/*--------------------------------*- C++ -*----------------------------------*\
  =========                 |
  \\      /  F ield         | OpenFOAM: The Open Source CFD Toolbox
   \\    /   O peration     | Website:  https://openfoam.org
    \\  /    A nd           | Version:  9
     \\/     M anipulation  |
\*---------------------------------------------------------------------------*/
FoamFile
{
    format      ascii;
    class       volVectorField;
    location    "4";
    object      U;
}
// * * * * * * * * * * * * * * * * * * * * * * * * * * * * * * * * * * * * * //

dimensions      [0 1 -1 0 0 0 0];

internalField   nonuniform List<vector> 
5250
(
(3 2.01353e-08 0)
(2.99999 4.66593e-08 0)
(2.99997 3.73163e-07 0)
(2.99991 4.7026e-07 0)
(2.99978 2.53821e-06 0)
(2.99946 3.45623e-06 0)
(2.99867 1.54187e-05 0)
(2.99669 2.31348e-05 0)
(2.99187 9.22579e-05 0)
(2.97961 0.00016262 0)
(2.948 0.00052194 0)
(2.86133 0.00119379 0)
(2.60989 0.00346188 0)
(1.87355 0.0097499 0)
(0.87014 0.0265489 0)
(0.442632 0.0244277 0)
(0.534934 0.0244902 0)
(0.560019 0.0263404 0)
(0.505231 0.028207 0)
(0.414379 0.0300971 0)
(0.329563 0.0323185 0)
(0.260985 0.0348739 0)
(0.191842 0.0375024 0)
(0.114497 0.0404811 0)
(0.0498015 0.0444705 0)
(3 5.1506e-08 0)
(2.99999 1.84493e-07 0)
(2.99997 9.79994e-07 0)
(2.99991 1.83738e-06 0)
(2.99978 6.96254e-06 0)
(2.99947 1.25112e-05 0)
(2.99869 4.42514e-05 0)
(2.99676 7.77715e-05 0)
(2.99199 0.000271227 0)
(2.97997 0.000512139 0)
(2.94885 0.00157898 0)
(2.86378 0.00370552 0)
(2.61694 0.0106763 0)
(1.89216 0.0302664 0)
(0.880806 0.0809144 0)
(0.439256 0.0705355 0)
(0.534959 0.0674447 0)
(0.561255 0.0704335 0)
(0.506178 0.0734845 0)
(0.415364 0.0766832 0)
(0.330534 0.0802183 0)
(0.261369 0.084012 0)
(0.191206 0.0874157 0)
(0.112532 0.0905513 0)
(0.0472052 0.0932378 0)
(3 6.46657e-08 0)
(2.99999 3.96191e-07 0)
(2.99997 1.29507e-06 0)
(2.99992 3.92265e-06 0)
(2.99979 9.8645e-06 0)
(2.99949 2.4772e-05 0)
(2.99873 6.72085e-05 0)
(2.99688 0.000144819 0)
(2.99223 0.000427946 0)
(2.9807 0.000903958 0)
(2.95066 0.00256953 0)
(2.8689 0.00633115 0)
(2.63215 0.0178882 0)
(1.93357 0.0513234 0)
(0.906482 0.138812 0)
(0.436664 0.11986 0)
(0.538912 0.113348 0)
(0.567983 0.118517 0)
(0.512775 0.124291 0)
(0.422277 0.130953 0)
(0.337423 0.137651 0)
(0.267445 0.144574 0)
(0.195863 0.151062 0)
(0.115222 0.156704 0)
(0.0474986 0.160122 0)
(3 6.14391e-08 0)
(2.99999 5.94724e-07 0)
(2.99997 1.51372e-06 0)
(2.99992 5.85512e-06 0)
(2.9998 1.174e-05 0)
(2.99952 3.84642e-05 0)
(2.99879 7.61229e-05 0)
(2.99706 0.000236757 0)
(2.99262 0.000483501 0)
(2.98175 0.00142058 0)
(2.95341 0.00319886 0)
(2.87644 0.00895343 0)
(2.65506 0.0240074 0)
(1.99699 0.0700237 0)
(0.94776 0.192726 0)
(0.43705 0.168569 0)
(0.547916 0.158757 0)
(0.581249 0.165916 0)
(0.526151 0.174561 0)
(0.436031 0.185291 0)
(0.350711 0.195659 0)
(0.279554 0.20629 0)
(0.206033 0.216651 0)
(0.122147 0.225594 0)
(0.0500614 0.230217 0)
(3 9.62787e-08 0)
(2.99999 6.05346e-07 0)
(2.99997 2.12933e-06 0)
(2.99993 5.94387e-06 0)
(2.99982 1.60684e-05 0)
(2.99954 4.01135e-05 0)
(2.99889 0.000101857 0)
(2.99722 0.000254635 0)
(2.99322 0.000631936 0)
(2.98296 0.00158642 0)
(2.95696 0.0040197 0)
(2.88624 0.010485 0)
(2.68359 0.0289989 0)
(2.08106 0.0840027 0)
(1.00575 0.238419 0)
(0.446335 0.21861 0)
(0.56387 0.206641 0)
(0.60196 0.214372 0)
(0.547215 0.224919 0)
(0.457512 0.239504 0)
(0.371068 0.253816 0)
(0.298166 0.268702 0)
(0.221912 0.283757 0)
(0.133268 0.297146 0)
(0.0547187 0.304024 0)
(3 1.04395e-07 0)
(2.99999 6.47403e-07 0)
(2.99997 2.27891e-06 0)
(2.99993 6.39579e-06 0)
(2.99983 1.71041e-05 0)
(2.99959 4.27862e-05 0)
(2.99897 0.000109664 0)
(2.9975 0.000266926 0)
(2.99373 0.000682045 0)
(2.98457 0.00167501 0)
(2.96083 0.00426688 0)
(2.89734 0.0110843 0)
(2.71691 0.0304414 0)
(2.1805 0.0881469 0)
(1.08843 0.257445 0)
(0.479835 0.263314 0)
(0.592417 0.257093 0)
(0.632693 0.265158 0)
(0.578294 0.27688 0)
(0.489024 0.29502 0)
(0.400686 0.313918 0)
(0.325147 0.334015 0)
(0.245283 0.355167 0)
(0.150224 0.375118 0)
(0.0624512 0.386694 0)
(3 9.97041e-08 0)
(2.99999 6.11965e-07 0)
(2.99998 2.20908e-06 0)
(2.99994 6.08948e-06 0)
(2.99985 1.64113e-05 0)
(2.99962 4.11929e-05 0)
(2.99908 0.000102795 0)
(2.9977 0.000256454 0)
(2.99439 0.000628622 0)
(2.98595 0.00158168 0)
(2.96481 0.0039251 0)
(2.90811 0.010137 0)
(2.74835 0.0274526 0)
(2.27758 0.0782173 0)
(1.18735 0.231573 0)
(0.528741 0.296366 0)
(0.624681 0.30971 0)
(0.664874 0.317381 0)
(0.613589 0.32991 0)
(0.527636 0.35203 0)
(0.438851 0.376676 0)
(0.361169 0.403397 0)
(0.277796 0.432648 0)
(0.175399 0.462597 0)
(0.0750812 0.483895 0)
(3 9.38553e-08 0)
(2.99999 5.83222e-07 0)
(2.99998 2.03993e-06 0)
(2.99994 5.72463e-06 0)
(2.99986 1.515e-05 0)
(2.99966 3.77911e-05 0)
(2.99915 9.56644e-05 0)
(2.99794 0.000231611 0)
(2.99483 0.000583091 0)
(2.98732 0.00141437 0)
(2.96795 0.00356395 0)
(2.91699 0.00902221 0)
(2.77349 0.0241131 0)
(2.35002 0.0675691 0)
(1.29052 0.19933 0)
(0.57504 0.337034 0)
(0.639438 0.370714 0)
(0.679255 0.369179 0)
(0.640686 0.381886 0)
(0.565468 0.408366 0)
(0.481187 0.440787 0)
(0.404751 0.476384 0)
(0.320778 0.516796 0)
(0.212759 0.562309 0)
(0.096378 0.604677 0)
(3 8.91429e-08 0)
(2.99999 5.81408e-07 0)
(2.99998 1.97253e-06 0)
(2.99995 5.68002e-06 0)
(2.99988 1.46285e-05 0)
(2.99969 3.76079e-05 0)
(2.99924 9.15212e-05 0)
(2.99811 0.000231992 0)
(2.99538 0.000557511 0)
(2.98843 0.00140559 0)
(2.97115 0.00345419 0)
(2.9252 0.00881023 0)
(2.79688 0.0233723 0)
(2.41998 0.0652511 0)
(1.42015 0.192417 0)
(0.655647 0.386741 0)
(0.647359 0.419242 0)
(0.677639 0.415399 0)
(0.660892 0.431957 0)
(0.60174 0.461654 0)
(0.526949 0.503396 0)
(0.455977 0.550419 0)
(0.376898 0.605365 0)
(0.270823 0.676616 0)
(0.134945 0.76407 0)
(3 9.42781e-08 0)
(2.99999 5.72964e-07 0)
(2.99998 2.03897e-06 0)
(2.99996 5.63117e-06 0)
(2.99989 1.5177e-05 0)
(2.99972 3.72356e-05 0)
(2.99931 9.57886e-05 0)
(2.99833 0.000228706 0)
(2.99581 0.000585683 0)
(2.98974 0.00139554 0)
(2.97412 0.00358454 0)
(2.93358 0.0088801 0)
(2.8204 0.0237169 0)
(2.48983 0.0659989 0)
(1.57423 0.193032 0)
(0.756415 0.434989 0)
(0.654644 0.45156 0)
(0.682789 0.453742 0)
(0.68089 0.476802 0)
(0.637692 0.510733 0)
(0.577478 0.560984 0)
(0.516554 0.620214 0)
(0.45256 0.69671 0)
(0.366901 0.813225 0)
(0.207667 1.02392 0)
(3 8.36532e-08 0)
(2.99999 6.4105e-07 0)
(2.99998 1.92637e-06 0)
(2.99996 6.31027e-06 0)
(2.9999 1.44915e-05 0)
(2.99975 4.17123e-05 0)
(2.9994 9.18484e-05 0)
(2.99851 0.000255061 0)
(2.99635 0.000566106 0)
(2.99093 0.00154104 0)
(2.97739 0.00354688 0)
(2.94196 0.00945275 0)
(2.84453 0.0241496 0)
(2.56076 0.067995 0)
(1.74902 0.196716 0)
(0.875909 0.483352 0)
(0.663972 0.48579 0)
(0.69515 0.48842 0)
(0.706218 0.513347 0)
(0.676944 0.553305 0)
(0.633046 0.609298 0)
(0.591088 0.680067 0)
(0.561881 0.777131 0)
(0.561629 0.925424 0)
(0.603644 1.17603 0)
(3 1.00786e-07 0)
(2.99999 5.76316e-07 0)
(2.99999 2.14962e-06 0)
(2.99997 5.71513e-06 0)
(2.99992 1.60225e-05 0)
(2.99979 3.85376e-05 0)
(2.99949 0.000101539 0)
(2.99872 0.000239133 0)
(2.99688 0.000624531 0)
(2.99222 0.00147716 0)
(2.98072 0.00383705 0)
(2.95073 0.00942157 0)
(2.86927 0.0250773 0)
(2.63395 0.0689893 0)
(1.94509 0.200105 0)
(1.01801 0.52641 0)
(0.684154 0.523984 0)
(0.716434 0.524694 0)
(0.738689 0.544647 0)
(0.722076 0.58822 0)
(0.694275 0.647785 0)
(0.67528 0.726298 0)
(0.682632 0.832303 0)
(0.745638 0.978329 0)
(0.901024 1.1701 0)
(3 9.59825e-08 0)
(3 5.58045e-07 0)
(2.99999 2.08949e-06 0)
(2.99997 5.50048e-06 0)
(2.99993 1.55728e-05 0)
(2.99983 3.72224e-05 0)
(2.99957 9.83119e-05 0)
(2.99895 0.000235218 0)
(2.99738 0.000603176 0)
(2.99361 0.00147308 0)
(2.984 0.00371989 0)
(2.95969 0.00934289 0)
(2.89421 0.0244134 0)
(2.70759 0.0670876 0)
(2.1575 0.194272 0)
(1.19136 0.544233 0)
(0.735716 0.566205 0)
(0.754884 0.571087 0)
(0.781614 0.578553 0)
(0.776374 0.618676 0)
(0.761345 0.678654 0)
(0.762384 0.757197 0)
(0.795734 0.858022 0)
(0.885911 0.980506 0)
(1.06424 1.10157 0)
(3 7.69437e-08 0)
(3 5.26363e-07 0)
(2.99999 1.73943e-06 0)
(2.99998 5.17379e-06 0)
(2.99994 1.3043e-05 0)
(2.99986 3.44789e-05 0)
(2.99965 8.20594e-05 0)
(2.99914 0.000214488 0)
(2.99791 0.000501074 0)
(2.99482 0.00131407 0)
(2.98727 0.00310302 0)
(2.96803 0.00806488 0)
(2.9174 0.0202859 0)
(2.7769 0.0552552 0)
(2.36707 0.157385 0)
(1.4117 0.465388 0)
(0.837143 0.589747 0)
(0.814825 0.614461 0)
(0.832676 0.620637 0)
(0.839339 0.650613 0)
(0.833376 0.704499 0)
(0.845882 0.775581 0)
(0.892866 0.8616 0)
(0.989388 0.956738 0)
(1.15832 1.03427 0)
(3 6.66382e-08 0)
(3 4.39662e-07 0)
(2.99999 1.47142e-06 0)
(2.99998 4.31483e-06 0)
(2.99995 1.09606e-05 0)
(2.99988 2.83815e-05 0)
(2.99972 6.89777e-05 0)
(2.9993 0.000173034 0)
(2.9983 0.000419279 0)
(2.99578 0.00103723 0)
(2.98963 0.00254321 0)
(2.974 0.00631516 0)
(2.9335 0.0158428 0)
(2.8212 0.0418565 0)
(2.49681 0.115676 0)
(1.6274 0.344579 0)
(0.935491 0.623909 0)
(0.855829 0.656294 0)
(0.872267 0.668139 0)
(0.892246 0.684892 0)
(0.899988 0.727583 0)
(0.92098 0.787052 0)
(0.973511 0.856305 0)
(1.06766 0.927833 0)
(1.21868 0.981078 0)
(3 5.96718e-08 0)
(3 3.71257e-07 0)
(2.99999 1.30519e-06 0)
(2.99998 3.63561e-06 0)
(2.99996 9.70762e-06 0)
(2.99991 2.40616e-05 0)
(2.99977 6.09385e-05 0)
(2.99944 0.000148075 0)
(2.99863 0.000369188 0)
(2.99659 0.000899157 0)
(2.99167 0.00223337 0)
(2.97909 0.00550297 0)
(2.94695 0.0138771 0)
(2.85882 0.0361308 0)
(2.60531 0.0995708 0)
(1.88203 0.290186 0)
(1.08556 0.665795 0)
(0.886177 0.691915 0)
(0.899294 0.704506 0)
(0.930222 0.712694 0)
(0.955656 0.745621 0)
(0.985345 0.794259 0)
(1.03995 0.849235 0)
(1.12872 0.902788 0)
(1.26123 0.940854 0)
(3 5.2565e-08 0)
(3 3.20982e-07 0)
(3 1.13999e-06 0)
(2.99999 3.15839e-06 0)
(2.99997 8.51616e-06 0)
(2.99993 2.10095e-05 0)
(2.99982 5.4026e-05 0)
(2.99956 0.000129575 0)
(2.99892 0.00033142 0)
(2.99733 0.000794085 0)
(2.99347 0.00202239 0)
(2.9837 0.00494 0)
(2.959 0.0125683 0)
(2.89232 0.0324864 0)
(2.70347 0.0891759 0)
(2.14726 0.257942 0)
(1.2812 0.680085 0)
(0.937189 0.723857 0)
(0.934048 0.732811 0)
(0.966513 0.736428 0)
(1.00512 0.758144 0)
(1.04159 0.79746 0)
(1.09595 0.841846 0)
(1.17805 0.882764 0)
(1.29385 0.910593 0)
(3 4.49809e-08 0)
(3 2.61433e-07 0)
(3 9.68173e-07 0)
(2.99999 2.56767e-06 0)
(2.99998 7.18919e-06 0)
(2.99994 1.70882e-05 0)
(2.99986 4.52671e-05 0)
(2.99967 0.000105596 0)
(2.99919 0.000275618 0)
(2.998 0.000646517 0)
(2.99512 0.00167028 0)
(2.98788 0.00398619 0)
(2.9699 0.0102367 0)
(2.92269 0.0257358 0)
(2.79258 0.0699199 0)
(2.41647 0.198676 0)
(1.55111 0.575929 0)
(1.04807 0.731069 0)
(0.994153 0.755434 0)
(1.01209 0.764285 0)
(1.05367 0.773839 0)
(1.09499 0.801821 0)
(1.14667 0.836402 0)
(1.22067 0.86775 0)
(1.32147 0.888172 0)
(3 3.24948e-08 0)
(3 2.16854e-07 0)
(3 7.14194e-07 0)
(2.99999 2.12056e-06 0)
(2.99998 5.33879e-06 0)
(2.99996 1.38538e-05 0)
(2.9999 3.37544e-05 0)
(2.99975 8.37969e-05 0)
(2.99938 0.0002056 0)
(2.99849 0.000499136 0)
(2.99625 0.0012469 0)
(2.99085 0.00298727 0)
(2.97711 0.00756655 0)
(2.94197 0.0186154 0)
(2.84573 0.0490241 0)
(2.57072 0.134397 0)
(1.82249 0.399906 0)
(1.16859 0.736445 0)
(1.04296 0.776273 0)
(1.05071 0.793517 0)
(1.09195 0.795812 0)
(1.14011 0.810769 0)
(1.19121 0.835144 0)
(1.25819 0.858257 0)
(1.34628 0.872739 0)
(3 2.61161e-08 0)
(3 1.7207e-07 0)
(3 5.82154e-07 0)
(2.99999 1.68559e-06 0)
(2.99999 4.33026e-06 0)
(2.99997 1.11831e-05 0)
(2.99992 2.7066e-05 0)
(2.99981 6.89062e-05 0)
(2.99953 0.00016362 0)
(2.99886 0.000417203 0)
(2.9972 0.0009885 0)
(2.99314 0.00252735 0)
(2.98291 0.00606415 0)
(2.95701 0.0155549 0)
(2.88737 0.0396632 0)
(2.68974 0.108872 0)
(2.11574 0.316386 0)
(1.35026 0.755685 0)
(1.09261 0.808116 0)
(1.08586 0.820668 0)
(1.12154 0.819279 0)
(1.17569 0.82126 0)
(1.2293 0.836306 0)
(1.2913 0.85273 0)
(1.36905 0.862617 0)
(3 2.16681e-08 0)
(3 1.30334e-07 0)
(3 4.68759e-07 0)
(3 1.28433e-06 0)
(2.99999 3.47711e-06 0)
(2.99998 8.54316e-06 0)
(2.99994 2.17824e-05 0)
(2.99986 5.25549e-05 0)
(2.99967 0.000131733 0)
(2.99918 0.000319018 0)
(2.99801 0.000792671 0)
(2.99507 0.00193861 0)
(2.98796 0.0048137 0)
(2.96995 0.0119722 0)
(2.92307 0.0306993 0)
(2.79497 0.0821603 0)
(2.42177 0.235518 0)
(1.62782 0.651725 0)
(1.19782 0.809961 0)
(1.14199 0.835262 0)
(1.15894 0.84162 0)
(1.20939 0.836177 0)
(1.26522 0.841082 0)
(1.32282 0.850747 0)
(1.39151 0.856564 0)
(3 1.54021e-08 0)
(3 1.01757e-07 0)
(3 3.3781e-07 0)
(3 9.99365e-07 0)
(2.99999 2.51456e-06 0)
(2.99998 6.54369e-06 0)
(2.99996 1.58147e-05 0)
(2.9999 3.95145e-05 0)
(2.99976 9.62196e-05 0)
(2.99941 0.000234392 0)
(2.99855 0.000580013 0)
(2.99649 0.00139041 0)
(2.99127 0.00349667 0)
(2.97857 0.0084204 0)
(2.9456 0.0214102 0)
(2.85692 0.0552624 0)
(2.60493 0.152235 0)
(1.92612 0.448281 0)
(1.32873 0.797181 0)
(1.19519 0.845772 0)
(1.19581 0.864488 0)
(1.23737 0.859204 0)
(1.29497 0.85199 0)
(1.35133 0.853128 0)
(1.41349 0.854636 0)
(3 1.15557e-08 0)
(3 7.54761e-08 0)
(3 2.56547e-07 0)
(3 7.38995e-07 0)
(3 1.90674e-06 0)
(2.99999 4.8788e-06 0)
(2.99997 1.1908e-05 0)
(2.99993 2.99014e-05 0)
(2.99983 7.17827e-05 0)
(2.99958 0.000179889 0)
(2.99897 0.000431037 0)
(2.9975 0.00107912 0)
(2.99381 0.00260605 0)
(2.98485 0.00651554 0)
(2.96192 0.0161066 0)
(2.90126 0.0414901 0)
(2.73222 0.111722 0)
(2.23944 0.324701 0)
(1.53143 0.771722 0)
(1.26136 0.863517 0)
(1.23721 0.882923 0)
(1.26129 0.882007 0)
(1.31563 0.868401 0)
(1.37492 0.860997 0)
(1.43419 0.857506 0)
(3 8.92547e-09 0)
(3 5.4068e-08 0)
(3 1.94069e-07 0)
(3 5.30129e-07 0)
(3 1.43801e-06 0)
(2.99999 3.50797e-06 0)
(2.99998 8.97161e-06 0)
(2.99995 2.15218e-05 0)
(2.99988 5.38705e-05 0)
(2.99971 0.000130101 0)
(2.99929 0.00032089 0)
(2.9983 0.000785753 0)
(2.9958 0.00191938 0)
(2.98982 0.00476226 0)
(2.97466 0.0117472 0)
(2.93596 0.0297969 0)
(2.83155 0.07884 0)
(2.52998 0.222837 0)
(1.82969 0.620281 0)
(1.37993 0.854598 0)
(1.2946 0.887904 0)
(1.29747 0.898819 0)
(1.33928 0.887103 0)
(1.39689 0.871957 0)
(1.45398 0.863545 0)
(3 6.27675e-09 0)
(3 3.93283e-08 0)
(3 1.37484e-07 0)
(3 3.8534e-07 0)
(3 1.01723e-06 0)
(2.99999 2.54666e-06 0)
(2.99999 6.31967e-06 0)
(2.99997 1.55294e-05 0)
(2.99992 3.78651e-05 0)
(2.9998 9.30641e-05 0)
(2.99952 0.000225082 0)
(2.99884 0.000556283 0)
(2.99713 0.00133888 0)
(2.99304 0.00332724 0)
(2.98273 0.00810269 0)
(2.95692 0.0202667 0)
(2.88798 0.052041 0)
(2.69533 0.140927 0)
(2.15397 0.411524 0)
(1.54366 0.833913 0)
(1.35139 0.900823 0)
(1.33466 0.914129 0)
(1.35972 0.906606 0)
(1.41377 0.886403 0)
(1.47195 0.871803 0)
(3 4.22948e-09 0)
(3 2.85577e-08 0)
(3 9.45231e-08 0)
(3 2.78611e-07 0)
(3 7.01916e-07 0)
(3 1.82554e-06 0)
(2.99999 4.36966e-06 0)
(2.99998 1.1096e-05 0)
(2.99995 2.62689e-05 0)
(2.99987 6.6205e-05 0)
(2.99968 0.000156992 0)
(2.99923 0.00039258 0)
(2.99811 0.000939696 0)
(2.99546 0.00233503 0)
(2.98876 0.00567583 0)
(2.97241 0.0141233 0)
(2.92997 0.0356256 0)
(2.81565 0.0945689 0)
(2.48537 0.270061 0)
(1.81816 0.697056 0)
(1.45284 0.882506 0)
(1.38779 0.913273 0)
(1.39167 0.92027 0)
(1.43322 0.904032 0)
(1.4894 0.881602 0)
(3 3.08051e-09 0)
(3 1.87949e-08 0)
(3 6.7243e-08 0)
(3 1.8353e-07 0)
(3 4.95876e-07 0)
(3 1.20807e-06 0)
(2.99999 3.06357e-06 0)
(2.99999 7.3655e-06 0)
(2.99996 1.81848e-05 0)
(2.99991 4.40879e-05 0)
(2.99979 0.000106882 0)
(2.99949 0.000262981 0)
(2.99875 0.000628102 0)
(2.99698 0.00156498 0)
(2.99254 0.00372383 0)
(2.98182 0.00936208 0)
(2.95435 0.0228305 0)
(2.88183 0.0592865 0)
(2.67879 0.160487 0)
(2.1318 0.459735 0)
(1.59476 0.847716 0)
(1.44206 0.915054 0)
(1.42671 0.930086 0)
(1.45027 0.922334 0)
(1.50145 0.897225 0)
(3 2.10891e-09 0)
(3 1.27596e-08 0)
(3 4.58394e-08 0)
(3 1.24626e-07 0)
(3 3.38107e-07 0)
(3 8.21438e-07 0)
(3 2.08705e-06 0)
(2.99999 4.99526e-06 0)
(2.99998 1.23872e-05 0)
(2.99994 2.99161e-05 0)
(2.99986 7.28161e-05 0)
(2.99967 0.000178562 0)
(2.99919 0.000427451 0)
(2.99804 0.00106644 0)
(2.99525 0.00252662 0)
(2.98832 0.00637603 0)
(2.97124 0.0153727 0)
(2.9271 0.039418 0)
(2.80771 0.103593 0)
(2.46417 0.296167 0)
(1.8447 0.727006 0)
(1.52932 0.898617 0)
(1.47265 0.929728 0)
(1.4765 0.936214 0)
(1.51549 0.918254 0)
(3 1.35189e-09 0)
(3 8.83925e-09 0)
(3 2.96433e-08 0)
(3 8.62933e-08 0)
(3 2.19305e-07 0)
(3 5.62444e-07 0)
(3 1.36529e-06 0)
(2.99999 3.38152e-06 0)
(2.99998 8.17429e-06 0)
(2.99996 1.99536e-05 0)
(2.99991 4.85837e-05 0)
(2.99978 0.000117362 0)
(2.99949 0.000287484 0)
(2.99873 0.000691092 0)
(2.99697 0.00170609 0)
(2.99251 0.00409823 0)
(2.98181 0.0102035 0)
(2.95441 0.0250842 0)
(2.88258 0.0648925 0)
(2.68102 0.176623 0)
(2.15643 0.497085 0)
(1.6683 0.862166 0)
(1.52693 0.931 0)
(1.5094 0.945914 0)
(1.52866 0.938186 0)
(3 9.00801e-10 0)
(3 5.85153e-09 0)
(3 1.9669e-08 0)
(3 5.71455e-08 0)
(3 1.45116e-07 0)
(3 3.71576e-07 0)
(3 9.04162e-07 0)
(3 2.22526e-06 0)
(2.99999 5.42289e-06 0)
(2.99998 1.30712e-05 0)
(2.99994 3.22146e-05 0)
(2.99987 7.65547e-05 0)
(2.99967 0.000190905 0)
(2.99922 0.000448495 0)
(2.99809 0.00112893 0)
(2.99539 0.00265297 0)
(2.98871 0.006689 0)
(2.97231 0.016068 0)
(2.93005 0.0410927 0)
(2.81703 0.107393 0)
(2.49237 0.306688 0)
(1.91573 0.729452 0)
(1.61413 0.908709 0)
(1.55433 0.942601 0)
(1.55359 0.949652 0)
(3 5.75395e-10 0)
(3 3.78004e-09 0)
(3 1.27879e-08 0)
(3 3.68269e-08 0)
(3 9.43165e-08 0)
(3 2.41278e-07 0)
(3 5.79574e-07 0)
(3 1.45623e-06 0)
(2.99999 3.43134e-06 0)
(2.99999 8.61767e-06 0)
(2.99996 2.0198e-05 0)
(2.99992 5.05527e-05 0)
(2.9998 0.000119073 0)
(2.99951 0.000295817 0)
(2.9988 0.000702562 0)
(2.99714 0.00173386 0)
(2.99297 0.00417157 0)
(2.98296 0.0102858 0)
(2.9575 0.0253596 0)
(2.89132 0.0649403 0)
(2.70625 0.176203 0)
(2.22665 0.488537 0)
(1.75669 0.864551 0)
(1.60846 0.940283 0)
(1.58594 0.956047 0)
(3 3.81261e-10 0)
(3 2.36513e-09 0)
(3 8.34746e-09 0)
(3 2.30687e-08 0)
(3 6.13297e-08 0)
(3 1.51459e-07 0)
(3 3.7535e-07 0)
(3 9.14976e-07 0)
(3 2.20781e-06 0)
(2.99999 5.43118e-06 0)
(2.99998 1.28831e-05 0)
(2.99995 3.19904e-05 0)
(2.99988 7.52108e-05 0)
(2.9997 0.000188085 0)
(2.99929 0.000439831 0)
(2.99828 0.00110271 0)
(2.99583 0.00259257 0)
(2.98992 0.00649775 0)
(2.97529 0.0155944 0)
(2.93836 0.0396337 0)
(2.84072 0.102805 0)
(2.56197 0.291199 0)
(2.01812 0.69999 0)
(1.70314 0.903801 0)
(1.63402 0.946397 0)
(3 2.43792e-10 0)
(3 1.47049e-09 0)
(3 5.24832e-09 0)
(3 1.43494e-08 0)
(3 3.8431e-08 0)
(3 9.34152e-08 0)
(3 2.36551e-07 0)
(3 5.58739e-07 0)
(3 1.39676e-06 0)
(2.99999 3.27975e-06 0)
(2.99999 8.14591e-06 0)
(2.99997 1.9218e-05 0)
(2.99993 4.72532e-05 0)
(2.99982 0.000112553 0)
(2.99957 0.000273582 0)
(2.99894 0.00065909 0)
(2.99747 0.00158507 0)
(2.99379 0.00387045 0)
(2.985 0.00930425 0)
(2.96275 0.023083 0)
(2.9056 0.0578624 0)
(2.7482 0.154954 0)
(2.32867 0.426935 0)
(1.85712 0.825618 0)
(1.68922 0.929916 0)
(3 1.45064e-10 0)
(3 9.44842e-10 0)
(3 3.16755e-09 0)
(3 9.20596e-09 0)
(3 2.32744e-08 0)
(3 5.96105e-08 0)
(3 1.43765e-07 0)
(3 3.54373e-07 0)
(3 8.5393e-07 0)
(3 2.06359e-06 0)
(2.99999 5.02275e-06 0)
(2.99998 1.19602e-05 0)
(2.99996 2.94608e-05 0)
(2.99989 6.93206e-05 0)
(2.99974 0.000172372 0)
(2.99937 0.000403326 0)
(2.9985 0.00100598 0)
(2.99635 0.00236197 0)
(2.99126 0.00589896 0)
(2.97853 0.0141051 0)
(2.94687 0.0356149 0)
(2.86372 0.0912014 0)
(2.62784 0.253624 0)
(2.12786 0.63884 0)
(1.79291 0.890138 0)
(3 8.8151e-11 0)
(3 5.7599e-10 0)
(3 1.94883e-09 0)
(3 5.59558e-09 0)
(3 1.43185e-08 0)
(3 3.63532e-08 0)
(3 8.76213e-08 0)
(3 2.17119e-07 0)
(3 5.14766e-07 0)
(3 1.26918e-06 0)
(3 3.0032e-06 0)
(2.99999 7.3642e-06 0)
(2.99997 1.74918e-05 0)
(2.99994 4.26126e-05 0)
(2.99984 0.000101861 0)
(2.99963 0.000246121 0)
(2.9991 0.000593629 0)
(2.99786 0.00142341 0)
(2.99477 0.00346576 0)
(2.98743 0.00833969 0)
(2.96899 0.0205178 0)
(2.92232 0.051297 0)
(2.79585 0.135101 0)
(2.45019 0.375513 0)
(1.98137 0.776632 0)
(3 5.50872e-11 0)
(3 3.44524e-10 0)
(3 1.20233e-09 0)
(3 3.3463e-09 0)
(3 8.81539e-09 0)
(3 2.17058e-08 0)
(3 5.39423e-08 0)
(3 1.29795e-07 0)
(3 3.16444e-07 0)
(3 7.60585e-07 0)
(3 1.83663e-06 0)
(2.99999 4.43878e-06 0)
(2.99998 1.06341e-05 0)
(2.99996 2.58537e-05 0)
(2.99991 6.15546e-05 0)
(2.99978 0.000150485 0)
(2.99949 0.000357253 0)
(2.99874 0.000874449 0)
(2.99702 0.00208294 0)
(2.99271 0.00511216 0)
(2.98245 0.0123298 0)
(2.95655 0.0306506 0)
(2.88975 0.0778542 0)
(2.70325 0.212105 0)
(2.2669 0.553083 0)
(3 3.23852e-11 0)
(3 2.09593e-10 0)
(3 7.08078e-10 0)
(3 2.03704e-09 0)
(3 5.18949e-09 0)
(3 1.31598e-08 0)
(3 3.18156e-08 0)
(3 7.80989e-08 0)
(3 1.87265e-07 0)
(3 4.53674e-07 0)
(3 1.09046e-06 0)
(3 2.62004e-06 0)
(2.99999 6.34331e-06 0)
(2.99998 1.50953e-05 0)
(2.99995 3.68007e-05 0)
(2.99988 8.70925e-05 0)
(2.9997 0.000213371 0)
(2.9993 0.000502349 0)
(2.9983 0.00123681 0)
(2.99596 0.00291787 0)
(2.99022 0.0072075 0)
(2.97634 0.0172832 0)
(2.94141 0.0433905 0)
(2.84998 0.112027 0)
(2.59543 0.31112 0)
(3 1.95868e-11 0)
(3 1.20988e-10 0)
(3 4.26371e-10 0)
(3 1.17497e-09 0)
(3 3.113e-09 0)
(3 7.62694e-09 0)
(3 1.89081e-08 0)
(3 4.53903e-08 0)
(3 1.10036e-07 0)
(3 2.64793e-07 0)
(3 6.32955e-07 0)
(3 1.53547e-06 0)
(2.99999 3.63171e-06 0)
(2.99999 8.87067e-06 0)
(2.99997 2.08524e-05 0)
(2.99993 5.10512e-05 0)
(2.99983 0.000119804 0)
(2.9996 0.000293248 0)
(2.99903 0.00068781 0)
(2.99768 0.0016845 0)
(2.9944 0.00396996 0)
(2.98653 0.00973892 0)
(2.96696 0.0234094 0)
(2.91735 0.0589152 0)
(2.78321 0.154707 0)
(3 1.13517e-11 0)
(3 7.1779e-11 0)
(3 2.45973e-10 0)
(3 6.97576e-10 0)
(3 1.796e-09 0)
(3 4.49271e-09 0)
(3 1.09896e-08 0)
(3 2.64762e-08 0)
(3 6.44782e-08 0)
(3 1.52731e-07 0)
(3 3.73735e-07 0)
(3 8.78936e-07 0)
(3 2.15367e-06 0)
(2.99999 5.06057e-06 0)
(2.99998 1.23837e-05 0)
(2.99996 2.91518e-05 0)
(2.99991 7.10691e-05 0)
(2.99977 0.000168339 0)
(2.99946 0.000407416 0)
(2.9987 0.000973 0)
(2.99693 0.00234301 0)
(2.99251 0.00565862 0)
(2.98204 0.0136994 0)
(2.95576 0.0337289 0)
(2.88818 0.0857595 0)
(3 6.33371e-12 0)
(3 4.17077e-11 0)
(3 1.39872e-10 0)
(3 4.03925e-10 0)
(3 1.02271e-09 0)
(3 2.60588e-09 0)
(3 6.21039e-09 0)
(3 1.54131e-08 0)
(3 3.6132e-08 0)
(3 8.90079e-08 0)
(3 2.08766e-07 0)
(3 5.09948e-07 0)
(3 1.20218e-06 0)
(3 2.91594e-06 0)
(2.99999 6.93156e-06 0)
(2.99998 1.66271e-05 0)
(2.99995 3.99215e-05 0)
(2.99988 9.47976e-05 0)
(2.9997 0.000230212 0)
(2.9993 0.000540036 0)
(2.9983 0.00132608 0)
(2.99599 0.00310085 0)
(2.99028 0.00766111 0)
(2.97667 0.0182201 0)
(2.94244 0.0456163 0)
(3 3.74364e-12 0)
(3 2.31893e-11 0)
(3 8.11119e-11 0)
(3 2.24533e-10 0)
(3 5.90886e-10 0)
(3 1.44853e-09 0)
(3 3.58023e-09 0)
(3 8.5523e-09 0)
(3 2.07463e-08 0)
(3 4.94546e-08 0)
(3 1.18799e-07 0)
(3 2.84138e-07 0)
(3 6.77565e-07 0)
(3 1.62949e-06 0)
(2.99999 3.85974e-06 0)
(2.99999 9.32635e-06 0)
(2.99997 2.19762e-05 0)
(2.99993 5.32598e-05 0)
(2.99983 0.000125242 0)
(2.99961 0.000303216 0)
(2.99906 0.000714213 0)
(2.99778 0.0017269 0)
(2.99462 0.00408825 0)
(2.98719 0.00991085 0)
(2.9686 0.0238769 0)
(3 2.10184e-12 0)
(3 1.29971e-11 0)
(3 4.56789e-11 0)
(3 1.26085e-10 0)
(3 3.32421e-10 0)
(3 8.10616e-10 0)
(3 2.01816e-09 0)
(3 4.76646e-09 0)
(3 1.17197e-08 0)
(3 2.74528e-08 0)
(3 6.70435e-08 0)
(3 1.577e-07 0)
(3 3.81907e-07 0)
(3 9.03271e-07 0)
(3 2.17221e-06 0)
(2.99999 5.18211e-06 0)
(2.99998 1.23279e-05 0)
(2.99996 2.97045e-05 0)
(2.99991 7.00422e-05 0)
(2.99979 0.000170147 0)
(2.99949 0.000398477 0)
(2.9988 0.000973244 0)
(2.9971 0.00227889 0)
(2.99312 0.00558734 0)
(2.98331 0.0132488 0)
(3 1.16411e-12 0)
(3 7.13279e-12 0)
(3 2.52914e-11 0)
(3 6.93434e-11 0)
(3 1.83551e-10 0)
(3 4.46445e-10 0)
(3 1.10883e-09 0)
(3 2.62404e-09 0)
(3 6.41294e-09 0)
(3 1.50607e-08 0)
(3 3.6653e-08 0)
(3 8.61413e-08 0)
(3 2.08198e-07 0)
(3 4.92084e-07 0)
(3 1.1805e-06 0)
(3 2.81054e-06 0)
(2.99999 6.68366e-06 0)
(2.99998 1.60504e-05 0)
(2.99995 3.78281e-05 0)
(2.99988 9.15439e-05 0)
(2.99973 0.000214516 0)
(2.99935 0.000521393 0)
(2.99846 0.0012188 0)
(2.99632 0.00297716 0)
(2.99126 0.00699617 0)
(3 6.1432e-13 0)
(3 3.98184e-12 0)
(3 1.32459e-11 0)
(3 3.82938e-11 0)
(3 9.62794e-11 0)
(3 2.43802e-10 0)
(3 5.81293e-10 0)
(3 1.41978e-09 0)
(3 3.36202e-09 0)
(3 8.06273e-09 0)
(3 1.9201e-08 0)
(3 4.54729e-08 0)
(3 1.09075e-07 0)
(3 2.55999e-07 0)
(3 6.18212e-07 0)
(3 1.43862e-06 0)
(3 3.49115e-06 0)
(2.99999 8.09806e-06 0)
(2.99997 1.96345e-05 0)
(2.99994 4.55446e-05 0)
(2.99985 0.000110074 0)
(2.99964 0.000256697 0)
(2.99914 0.000614336 0)
(2.99793 0.00144593 0)
(2.99515 0.00344068 0)
(3 3.05638e-13 0)
(3 2.02191e-12 0)
(3 6.89247e-12 0)
(3 1.92713e-11 0)
(3 5.01386e-11 0)
(3 1.22972e-10 0)
(3 2.99445e-10 0)
(3 7.1716e-10 0)
(3 1.69794e-09 0)
(3 4.07776e-09 0)
(3 9.49011e-09 0)
(3 2.29521e-08 0)
(3 5.27915e-08 0)
(3 1.28253e-07 0)
(3 2.93544e-07 0)
(3 7.12171e-07 0)
(3 1.62811e-06 0)
(2.99999 3.92841e-06 0)
(2.99998 9.0329e-06 0)
(2.99996 2.14972e-05 0)
(2.9999 4.98323e-05 0)
(2.99977 0.000117002 0)
(2.99945 0.000274213 0)
(2.99868 0.000630772 0)
(2.99687 0.0015014 0)
(3 1.56442e-13 0)
(3 9.89625e-13 0)
(3 3.43073e-12 0)
(3 9.51329e-12 0)
(3 2.45362e-11 0)
(3 6.04591e-11 0)
(3 1.44524e-10 0)
(3 3.47688e-10 0)
(3 8.08517e-10 0)
(3 1.94435e-09 0)
(3 4.4534e-09 0)
(3 1.06871e-08 0)
(3 2.4437e-08 0)
(3 5.81662e-08 0)
(3 1.33267e-07 0)
(3 3.13527e-07 0)
(3 7.23856e-07 0)
(2.99999 1.67212e-06 0)
(2.99999 3.89947e-06 0)
(2.99997 8.83773e-06 0)
(2.99993 2.07541e-05 0)
(2.99982 4.61012e-05 0)
(2.99957 0.000109306 0)
(2.99896 0.000236639 0)
(2.99746 0.000564208 0)
(3 7.37322e-14 0)
(3 4.51206e-13 0)
(3 1.64389e-12 0)
(3 4.51464e-12 0)
(3 1.15231e-11 0)
(3 2.82204e-11 0)
(3 6.75233e-11 0)
(3 1.58295e-10 0)
(3 3.751e-10 0)
(3 8.58786e-10 0)
(3 2.04119e-09 0)
(3 4.59572e-09 0)
(3 1.09757e-08 0)
(3 2.44133e-08 0)
(3 5.81924e-08 0)
(3 1.28692e-07 0)
(3 3.04217e-07 0)
(3 6.75698e-07 0)
(2.99999 1.56069e-06 0)
(2.99997 3.51504e-06 0)
(2.99994 7.87591e-06 0)
(2.99984 1.80377e-05 0)
(2.99961 3.87783e-05 0)
(2.99905 9.14432e-05 0)
(2.99768 0.000184638 0)
(3 3.55552e-14 0)
(3 1.67378e-13 0)
(3 7.52083e-13 0)
(3 1.7975e-12 0)
(3 5.42263e-12 0)
(3 1.15774e-11 0)
(3 3.15193e-11 0)
(3 6.56843e-11 0)
(3 1.69687e-10 0)
(3 3.59691e-10 0)
(3 8.80071e-10 0)
(3 1.95848e-09 0)
(3 4.4381e-09 0)
(3 1.0622e-08 0)
(3 2.18727e-08 0)
(3 5.7178e-08 0)
(3 1.05219e-07 0)
(3 3.02525e-07 0)
(2.99999 5.04253e-07 0)
(2.99997 1.553e-06 0)
(2.99994 2.38984e-06 0)
(2.99985 7.72209e-06 0)
(2.99963 1.11836e-05 0)
(2.99908 3.67305e-05 0)
(2.99776 5.17222e-05 0)
(3 1.56413e-14 0)
(3 1.0233e-13 0)
(3 2.70819e-13 0)
(3 9.15212e-13 0)
(3 1.95552e-12 0)
(3 5.53171e-12 0)
(3 1.15637e-11 0)
(3 2.9406e-11 0)
(3 6.44945e-11 0)
(3 1.49253e-10 0)
(3 3.56677e-10 0)
(3 7.32592e-10 0)
(3 1.95239e-09 0)
(3 3.52418e-09 0)
(3 1.05659e-08 0)
(3 1.65013e-08 0)
(3 5.5679e-08 0)
(3 7.61554e-08 0)
(2.99999 2.81371e-07 0)
(2.99998 3.54016e-07 0)
(2.99994 1.32082e-06 0)
(2.99985 1.69997e-06 0)
(2.99964 5.70975e-06 0)
(2.99909 8.53029e-06 0)
(2.99778 2.0544e-05 0)
(3 5.82621e-15 0)
(3 3.07538e-14 0)
(3 6.85589e-14 0)
(3 3.21792e-13 0)
(3 4.4233e-13 0)
(3 1.78555e-12 0)
(3 2.64664e-12 0)
(3 8.26981e-12 0)
(3 1.65166e-11 0)
(3 3.64331e-11 0)
(3 1.05836e-10 0)
(3 1.4284e-10 0)
(3 6.50897e-10 0)
(3 5.33176e-10 0)
(3 3.80731e-09 0)
(3 1.49162e-09 0)
(3 2.1568e-08 0)
(3 2.03823e-09 0)
(2.99999 1.12156e-07 0)
(2.99998 -7.41483e-09 0)
(2.99994 5.13828e-07 0)
(2.99985 -1.78799e-08 0)
(2.99964 2.01968e-06 0)
(2.99909 6.59668e-07 0)
(2.99779 4.82398e-06 0)
(1.27787 1.08118 0)
(1.68918 0.881269 0)
(1.87298 0.617585 0)
(1.90047 0.354457 0)
(1.85099 0.13522 0)
(1.75679 -0.00891018 0)
(1.65973 -0.0454103 0)
(1.6083 -0.0142793 0)
(1.59736 0.0284303 0)
(1.59795 0.04904 0)
(1.59606 0.0477676 0)
(1.58647 0.0384312 0)
(1.55933 0.0295345 0)
(1.49565 0.0257828 0)
(1.35527 0.0336607 0)
(1.05656 0.0643759 0)
(0.612577 0.134161 0)
(0.230942 0.158629 0)
(0.0412141 0.142859 0)
(-0.144302 0.104611 0)
(-0.321042 0.0717963 0)
(-0.472017 0.0350693 0)
(-0.604144 0.0112621 0)
(-0.696586 -0.000985202 0)
(-0.755679 0.00196864 0)
(-0.799112 0.00989905 0)
(-0.838404 0.0152539 0)
(-0.873986 0.0182159 0)
(-0.898515 0.0159911 0)
(-0.911549 0.0100099 0)
(-0.916131 0.00299403 0)
(-0.906067 -0.00232737 0)
(-0.872299 -0.00725085 0)
(-0.811647 -0.0138798 0)
(-0.73126 -0.020944 0)
(-0.640517 -0.0266269 0)
(-0.545702 -0.0313563 0)
(-0.451648 -0.0349806 0)
(-0.358117 -0.0392046 0)
(-0.269683 -0.0408582 0)
(-0.186161 -0.0412251 0)
(-0.106383 -0.0425548 0)
(-0.0339053 -0.0478919 0)
(0.0514874 -0.0407746 0)
(0.114933 -0.0352247 0)
(0.17948 -0.0333551 0)
(0.238669 -0.0314868 0)
(0.293835 -0.029634 0)
(0.344451 -0.0275951 0)
(0.393051 -0.0262938 0)
(0.44305 -0.0261654 0)
(0.492208 -0.0252528 0)
(0.538608 -0.0239806 0)
(0.582562 -0.0226465 0)
(0.624714 -0.0215096 0)
(0.665246 -0.0204442 0)
(0.70439 -0.0194782 0)
(0.742173 -0.0185091 0)
(0.778761 -0.0175903 0)
(0.814189 -0.0166879 0)
(0.848572 -0.0158409 0)
(0.88194 -0.0150235 0)
(0.914372 -0.0142585 0)
(0.945898 -0.0135239 0)
(0.976578 -0.0128368 0)
(1.00644 -0.0121782 0)
(1.03552 -0.01156 0)
(1.06385 -0.0109658 0)
(1.09148 -0.0104052 0)
(1.11842 -0.00986372 0)
(1.14472 -0.00934907 0)
(1.1704 -0.00884848 0)
(1.19549 -0.00836875 0)
(1.22002 -0.00789856 0)
(1.24403 -0.00744467 0)
(1.26753 -0.00699654 0)
(1.29055 -0.0065623 0)
(1.3131 -0.0061322 0)
(1.33521 -0.00571596 0)
(1.35687 -0.0053051 0)
(1.3781 -0.00490941 0)
(1.39892 -0.00452085 0)
(1.41933 -0.00414777 0)
(1.43935 -0.00378148 0)
(1.45898 -0.00342962 0)
(1.47825 -0.0030846 0)
(1.49715 -0.0027509 0)
(1.51571 -0.00242333 0)
(1.53393 -0.00210318 0)
(1.55181 -0.0017857 0)
(1.56936 -0.00149002 0)
(1.58656 -0.00121739 0)
(1.60336 -0.000985656 0)
(1.61974 -0.00074263 0)
(1.63559 -0.000476333 0)
(1.65073 -0.000179213 0)
(1.66481 0.000166232 0)
(1.67725 0.000589854 0)
(1.68664 0.00116271 0)
(1.69318 0.00185363 0)
(1.37172 0.992562 0)
(1.68487 0.71003 0)
(1.85848 0.39764 0)
(1.94289 0.130232 0)
(1.99309 -0.0609347 0)
(2.02251 -0.161818 0)
(2.03098 -0.167892 0)
(2.02876 -0.127149 0)
(2.01324 -0.0769424 0)
(1.98681 -0.0363235 0)
(1.96488 -0.0119604 0)
(1.95086 -0.00242602 0)
(1.93265 0.000314924 0)
(1.89427 0.00785996 0)
(1.80569 0.0292444 0)
(1.59827 0.0827249 0)
(1.20496 0.194312 0)
(0.83945 0.254818 0)
(0.636921 0.241962 0)
(0.49929 0.221363 0)
(0.367963 0.202532 0)