/*--------------------------------*- C++ -*----------------------------------*\
  =========                 |
  \\      /  F ield         | OpenFOAM: The Open Source CFD Toolbox
   \\    /   O peration     | Website:  https://openfoam.org
    \\  /    A nd           | Version:  9
     \\/     M anipulation  |
\*---------------------------------------------------------------------------*/
FoamFile
{
    format      ascii;
    class       volScalarField;
    location    "32";
    object      p;
}
// * * * * * * * * * * * * * * * * * * * * * * * * * * * * * * * * * * * * * //

dimensions      [0 2 -2 0 0 0 0];

internalField   nonuniform List<scalar> 
918
(
0.54284122
1.8119879
0.015341402
0.51182343
-0.0073912103
1.7826517
-0.92419678
1.323945
0.56632833
-0.15861014
-0.038905923
0.74591956
1.6540392
1.413331
-0.68029907
-0.016579981
1.1624284
-0.75338011
0.56825803
-0.040016816
1.4247569
0.51344004
0.5401857
0.51431345
0.91891415
1.3858838
1.5170294
0.013784931
0.00011626529
-0.0094205224
-0.0016452831
-0.047774319
-0.027941097
1.658928
1.7129488
1.7366364
0.53570985
0.57156576
-0.69804853
-0.78928159
-0.77053829
-1.0102701
1.306329
1.2994243
-0.31631389
1.3331723
1.3495343
0.52614915
0.56175495
0.57310827
0.50920144
0.54045116
0.55618078
0.4897427
-0.17221449
-0.23191115
-0.11793607
-0.098138143
0.07346696
-0.033268278
-0.036802629
-0.028492409
-0.024881306
0.5608492
0.71481142
0.69164574
0.76327965
0.80054908
1.749084
1.7125273
1.7395054
1.6863281
1.6766335
1.633881
1.5970295
1.4521961
1.4596213
1.4106675
1.3741529
-1.213306
-2.2607126
-0.098493395
0.20951834
0.0015367821
0.0016059742
0.015603192
1.1374161
1.1236138
1.181563
1.2058816
1.3032071
-0.69174884
-0.96193157
0.57142637
0.56609168
0.55393653
0.53563209
0.58226915
0.62745751
-0.032441638
-0.02767702
-0.048683123
-0.034628019
-0.029972361
1.4064027
1.3977999
0.52873288
0.53305245
0.8188522
0.87755228
0.85741065
0.39427158
0.93467818
0.95721929
1.1894259
1.3820248
1.391069
1.3733439
1.5032704
1.4586874
1.5636847
1.5892602
0.026632348
0.0044028272
0.00068537109
-0.0199287
0.0053969626
0.54559598
0.54665015
0.57808313
0.53540478
0.54003642
0.51630983
0.37656628
0.65777531
0.67504361
-0.53679201
-0.59348346
-0.81359012
-0.8333687
-1.0386943
0.91609251
1.2810635
1.2709121
-0.38118877
-0.25411295
-0.43551008
-0.17071947
-0.21760187
0.53521121
0.53781257
0.53443564
0.52819841
0.52962335
0.53076826
0.54924816
0.54881483
0.5642604
0.56132922
0.70110711
0.43754767
0.38106962
-0.45222799
-0.2586377
-0.43278515
-0.079822458
-0.06888281
0.099515955
0.14737933
0.078028736
0.074108923
-0.057570368
-0.042318728
-0.049158387
-0.025466524
-0.02412593
0.55137943
0.54911548
0.55814003
0.56340637
0.626154
0.63546
0.66927153
0.6537641
1.5230015
1.546666
1.5913528
1.5542818
-3.6583719
-6.3490461
0.53873095
0.72086752
-0.0047409245
0.0013404104
0.006211291
0.0068029594
0.0085950101
-0.0069435938
0.033622957
0.025872527
0.01892252
0.026778548
1.0889893
1.0734304
1.2510826
1.288461
1.1685625
1.1586398
0.5757578
0.57289789
0.5797741
0.57100604
-0.026457904
-0.028501036
-0.026771267
1.3578416
1.3843541
1.374469
0.31047445
0.21847858
0.43504669
0.47695124
1.0403997
0.9906658
1.0225735
1.2641941
1.298176
1.5787371
1.5907592
1.6286374
1.625402
1.6736933
1.6660124
1.6244879
0.55476067
0.54883015
0.55915127
0.57316645
0.57731133
0.57693115
0.60824689
0.59340923
0.59771486
0.21123286
-0.12634764
0.74040711
0.7362108
0.71948712
0.71105264
0.9910772
1.0820469
1.2171877
1.2499203
1.2387313
-0.067409373
-0.09468614
0.31240276
0.28547713
0.50009733
0.53271557
0.52557513
1.4971009
1.4973831
1.543812
1.5060539
1.4473882
1.4701748
-0.15254191
-1.3186021
-0.70232239
1.123103
0.90365874
1.0078942
0.035690646
0.034445269
0.013191306
1.2606737
1.3222285
0.76048892
1.0094645
1.0110799
1.3453292
1.3679165
1.4397493
1.3657184
1.3919309
1.4160282
1.3990016
0.86295044
0.77300817
0.79403908
1.1293676
1.1827625
0.14483498
0.038549295
0.027485046
0.15987598
0.21752562
0.18321295
1.288792
1.2268042
1.2979417
0.53994391
0.5321408
0.016716761
0.027328303
0.57477849
0.54963937
-0.017231117
0.0055607141
0.9844836
-0.42618257
0.17190586
0.58034812
0.55060364
0.555571
-0.15103964
0.452645
-0.027267204
0.07210437
0.010452833
0.72697955
0.5810434
0.55430727
0.0085322185
-0.017609253
-0.018184439
-0.3633492
0.54687134
0.5257335
0.54456837
0.52810748
0.56147657
-0.0063508449
0.0060305516
0.0049792265
-0.019599539
-0.0063438582
-0.020368214
0.55361248
0.60094091
-0.26586053
0.5609946
0.5494022
0.56539183
0.52925762
0.58629203
0.54039014
0.0052703037
0.0016290246
0.0086230243
0.34052212
0.49384576
1.3011632
1.4460076
1.3256206
0.93572338
0.60428807
1.1576689
1.2545624
1.1204134
1.2947797
1.2637273
1.3159471
0.24964941
0.042682641
0.27948964
0.17557877
0.57611133
0.57876861
0.54619791
0.53958213
0.56306968
0.53498295
0.56521183
0.56929188
0.56746723
0.58296419
-0.07757462
-0.1166167
-0.14228201
-0.23008809
0.46623966
0.7412639
0.36656026
0.40414302
0.20069761
-0.021606308
-0.025718489
-0.025384547
-0.039148417
0.039922401
-0.020857718
0.093124058
0.091881305
0.066525492
0.017206153
0.0069745849
-0.019112788
0.020817886
0.681272
0.66036613
0.7214947
0.77221549
0.57519437
0.56220528
0.5595197
0.57814635
0.56084324
0.50223166
0.5551658
0.51905518
0.0010038305
0.0084673372
-0.0001497856
-0.0023262868
0.014814472
0.010259811
0.002723989
-0.0049973591
-0.0013156119
-0.00070367133
-0.018716421
-0.026368362
-0.31478033
-0.47467092
1.2061381
1.0649312
0.2556278
0.52238252
0.52411774
0.50976419
0.55219917
0.54043042
0.54384822
0.54373182
0.54005798
0.55272806
0.55358126
0.59953677
0.61237698
-0.19271865
-0.40893058
-0.16576176
-0.22866576
0.43876768
1.0474383
0.50193423
0.408079
0.40868924
0.85187645
1.5324708
1.3916801
1.3901696
1.4155416
-0.067895826
0.41176496
0.12711158
0.80589558
1.0340821
1.2706703
1.3277708
1.3318463
1.301881
1.2395357
0.015450251
1.0353724
-0.089635342
-0.063070825
0.29727893
0.085926376
1.3363482
1.2291855
1.2263191
1.3046883
1.3393206
1.2575901
1.2089014
1.2271669
1.2877991
1.285451
0.93378186
0.38202403
0.28351858
0.25139296
1.1671801
1.0011312
1.0983451
0.88519806
0.5631046
0.58392934
0.56717471
0.52429946
0.54315399
0.52159362
0.57172939
0.59873177
0.57775685
0.55288267
0.578668
0.55281855
-0.073702507
-0.075604735
-0.026604395
-0.23631545
-0.21931978
-0.33467121
-0.1087698
0.12339765
0.087623058
0.30745883
0.43694
0.078560906
-0.12245043
-0.063234746
-0.0019049384
0.22178647
0.27796802
0.13932175
0.19924393
0.18860516
0.16411954
0.30660205
0.31106057
0.0034200481
0.0095118726
-0.013354722
-0.011394481
0.058893033
0.1685118
0.17050672
0.027803512
0.015457032
-0.020523105
-0.022533135
0.02796889
-0.0047045724
0.01657147
0.036448494
0.0031319937
0.031837216
0.024587648
0.012606198
0.037469767
0.030793382
0.63268352
0.64258113
0.63162305
0.80095552
0.79488952
0.83066997
0.80372852
0.55700711
0.56149825
0.55444738
0.60175795
0.57649229
0.6111918
0.63292074
0.6759082
0.68866082
0.60825519
0.58648749
0.65792128
0.61478354
0.60553911
0.61827005
0.63257306
0.56905908
0.5836339
-0.002355907
0.020029426
0.039831506
-0.043226466
0.025677211
0.0026950718
0.018000532
0.053351914
0.0073583216
0.030229144
0.020167538
-0.0018708363
0.011517279
-0.13625199
0.02888882
-0.37076395
-0.40225892
-0.4991211
1.0987595
1.255894
0.99926921
0.72163563
0.75419458
1.0373809
1.1792913
0.69355825
0.8258043
0.9386239
0.87965149
1.1182059
0.54653677
0.53816671
0.55028158
0.52592634
0.55737552
0.00032877711
0.21048801
0.13155311
0.31650204
0.55405297
0.60403694
0.40446394
0.34399059
0.50581671
0.40308827
1.0478163
1.0825221
0.94328513
1.0050865
0.99368472
0.65550357
0.88101865
1.0146975
0.8888748
0.95055934
0.98933869
0.93232716
0.99213074
0.88950108
0.77063124
0.80048328
0.58985426
0.6702265
0.62206056
0.57694237
0.70990503
0.66509536
0.7076577
0.69015806
0.75677182
0.8574048
0.83807155
0.84906078
0.89987339
0.74568462
0.66594658
0.69057781
0.76587142
0.63612549
0.65748825
0.70005288
0.41235618
0.42261308
0.30501403
0.21401456
0.29516953
0.13802444
0.11570939
0.14759062
0.45733952
-0.16648813
-0.1536874
-0.52263547
0.89281884
1.5534353
1.2618227
1.2533174
1.3419049
1.3078891
1.3007889
1.3577972
1.3618216
1.1596033
1.2105964
1.205345
1.1450777
1.1892101
1.2874926
1.2652974
0.98501278
0.67586184
0.64323708
0.59042874
0.315161
0.40495461
0.80539327
0.64735565
0.49179076
0.47186164
0.79101407
0.52841588
0.66160911
0.80142549
0.62550382
0.52220324
0.97476772
1.105365
1.0936717
1.0403654
0.8766098
0.92755546
1.0078964
1.0812705
1.1203721
1.1944939
0.54700199
0.56044897
0.55446051
0.53526458
0.56128794
0.57080717
0.56973699
0.55883223
0.56494208
0.5685544
0.57938086
-0.038499697
-0.025057304
-0.048176549
-0.05623155
-0.00069435836
-0.019962609
0.058791357
0.031851315
0.0073412352
0.015425394
-0.021743104
-0.039867845
-0.019371191
-0.0024036094
0.17406031
0.21091042
0.15655166
0.14163249
0.34555184
0.48292875
0.53779442
0.45732922
0.27477393
0.29905322
0.36696091
0.052184126
0.067707179
0.080165787
0.10262682
0.10710786
-0.016533745
-0.017980205
-0.010857441
-0.011452633
0.0037627308
-0.01446509
-0.022056461
-0.010936446
-0.012404663
-0.019162696
-0.025817906
0.55763269
0.57376111
0.62217047
0.58470719
0.58320367
0.61295666
0.58858273
0.60490703
0.61010835
0.63673577
0.62002752
0.65505973
0.64694661
-0.0016407877
-0.002597172
-0.021774462
-0.0090799106
-0.0021166878
-0.002025108
-0.0094583542
0.25724748
0.11626952
0.15110363
0.028913765
-0.21149283
-0.10331733
0.62948892
0.7589822
0.75683458
0.98709248
0.77435868
0.72210715
0.86669639
0.99006619
0.42545068
0.65418265
0.46575599
1.1200577
1.0238731
1.1978284
0.74363838
0.42480236
0.67210407
0.75574709
0.44372796
0.55873362
0.54611506
0.37235378
0.44249197
0.4708344
0.6311222
0.43616153
0.48724345
0.41511501
0.43527321
0.49813815
0.51613451
0.61944092
0.67907311
0.35624331
0.32461791
0.25520628
1.0685144
1.0861098
1.1222053
1.10961
1.1385726
0.91853684
0.9090961
0.94976294
0.94900035
0.91999673
-0.35228595
-0.44933547
-0.78977086
-0.2399571
0.37311269
0.93802383
0.81285842
1.3994423
1.1257487
1.346327
1.2911332
1.2351587
1.1420248
1.1359125
1.2198289
0.62202855
0.82162937
0.79916405
0.7530389
0.55518928
0.46108976
1.0768366
1.0519934
1.1307997
1.1629964
1.1000641
1.1824448
0.56815179
0.58618545
0.56515823
0.57879799
0.56214667
0.5716419
0.096442977
0.040134136
0.15574332
0.13601573
0.057815614
0.029578565
0.0025048694
0.0092496438
-0.0071635388
-0.00078746833
0.011394023
0.015768862
0.27808303
0.23825956
0.044310453
0.15703657
-0.021192636
-0.11831987
-0.179341
0.0091479608
0.13949916
0.15525256
0.55602906
0.83987574
0.68347227
0.79566648
0.62252802
0.73233301
0.70765967
0.67082958
0.70756219
0.58684291
0.60233861
0.61944571
-0.17223486
0.16277604
1.447733
1.3815448
0.98288667
0.83410119
0.7778201
1.1102925
1.0198814
0.85094183
0.96171448
1.0850759
1.0680176
0.39482894
0.36946709
0.73124896
0.86596049
0.49430339
0.37982562
0.34375594
0.51333045
0.56181057
)
;

boundaryField
{
    wall-4
    {
        type            zeroGradient;
    }
    velocity-inlet-5
    {
        type            zeroGradient;
    }
    velocity-inlet-6
    {
        type            zeroGradient;
    }
    pressure-outlet-7
    {
        type            fixedValue;
        value           uniform 0;
    }
    wall-8
    {
        type            zeroGradient;
    }
    frontAndBackPlanes
    {
        type            empty;
    }
}


// ************************************************************************* //
