/*--------------------------------*- C++ -*----------------------------------*\
  =========                 |
  \\      /  F ield         | OpenFOAM: The Open Source CFD Toolbox
   \\    /   O peration     | Website:  https://openfoam.org
    \\  /    A nd           | Version:  9
     \\/     M anipulation  |
\*---------------------------------------------------------------------------*/
FoamFile
{
    format      ascii;
    class       surfaceScalarField;
    location    "32";
    object      phi;
}
// * * * * * * * * * * * * * * * * * * * * * * * * * * * * * * * * * * * * * //

dimensions      [0 3 -1 0 0 0 0];

internalField   nonuniform List<scalar> 
1300
(
1.7582594
5.6264299
-5.1573103
1.7582594
-8.500332
5.6264299
-5.9393735
5.9393735
-1.2123581
1.2123581
3.7334872
3.6512021
-4.2525795
4.2525795
-3.6881764
3.6881764
-1.3681008
1.3681008
-5.2377155
5.2377155
-5.0571361
5.0571361
4.7517957
-4.7517957
-6.9055461
6.9055461
-1.4399726
1.4399726
-5.4373757
5.4373757
1.4932049
-1.4932049
-3.6887219
3.6887219
-0.23394019
0.23394019
-0.57258581
5.1440601
1.1856735
1.1856735
-1.4659179
1.4659179
-4.854301
4.854301
6.2142259
-6.2142259
7.9622505
-7.9622505
-2.8049402
-3.2376751
1.938229
-12.453842
-6.562103
-6.562103
-8.438266
8.438266
-2.811836
2.814594
1.4563911
-1.4563911
-1.7761778
1.7761778
-5.786467
-0.15290644
-5.786467
6.0448826
-0.1055091
6.0448826
-1.350401
0.13804298
-1.350401
4.7964665
-4.7964665
1.0389293
0.17342876
1.0389293
1.2529674
-1.2529674
-3.738343
7.4718302
3.6463463
-3.0529678
8.1970279
-3.3939832
7.0451853
-6.5380025
6.5380025
-4.5456994
0.29311984
-4.5456994
4.0411194
0.21146011
4.0411194
-7.4599859
7.4599859
-3.7337564
0.045580046
-3.7337564
3.6592935
0.02888286
3.6592935
2.1664003
-2.1664003
-1.2880288
-0.08007205
-1.2880288
1.4334181
-0.065317291
1.4334181
0.35898273
5.2674472
-5.9854128
8.8000067
-5.2674472
0.029731686
5.2000765
0.037638997
5.2000766
-5.093633
0.036496918
-5.093633
5.0144241
0.042712006
5.0144241
4.8493186
-0.097522909
4.8493186
-4.8527512
0.10095539
-4.8527511
-4.1592872
-4.4640583
-7.0699917
0.16444559
-7.0699917
-1.3684559
-0.07151671
-1.3684559
1.5037659
-0.063793269
1.5037659
-4.1084429
4.1084429
-5.8659147
0.42853901
-5.8659147
1.364039
0.12916593
1.364039
2.0097828
2.5616915
3.7680422
-3.7680422
2.2748372
-3.6391133
-0.049608643
-3.6391133
-3.7798252
-4.1824253
3.7798252
-0.091103282
-0.61462086
0.38068069
-0.61462087
1.2372157
-0.051542104
1.2372156
1.4759476
-0.042529491
-1.4759476
0.010029732
3.3945584
-3.3945584
1.009944
0.45597384
1.009944
-5.5745865
5.5745865
4.954079
0.060345055
-4.954079
0.099778077
6.1536959
0.060530035
6.1536959
-6.1926921
-0.02153376
-6.1926921
3.4721126
-6.7097877
-3.3412825
6.7380681
0.16747801
-6.7380681
0.17596509
1.5907997
-0.13440868
1.5907997
-1.1395735
1.1395735
-1.4055398
-0.050851248
-1.4055398
-2.1104148
0.33423705
-2.1104148
1.5037951
0.27238269
1.5037951
-5.4510659
-0.33540107
-5.4510659
-6.0403875
0.17447276
6.0403875
0.0044950631
1.3954594
-1.3954594
-1.4562718
0.10587078
-1.4562718
-5.0797666
-0.37129933
5.0797666
-0.28330005
-4.6188637
-0.17760279
-4.6188637
-1.3177815
-0.087758387
1.3177815
-0.06481411
1.2632124
-0.025996741
-1.2632124
0.010245023
-3.0514981
5.6131895
-3.3954529
7.0417992
-6.1565602
-0.38144232
-6.1565602
6.8798849
-0.34188247
6.8798849
5.0148824
0.42249327
-5.0148824
0.46918301
3.8938252
0.14729418
3.8938252
-7.4252307
-0.034755157
-7.4252307
7.4699243
-0.0099384123
7.4699243
3.798328
0.095497176
-3.798328
0.064571543
3.6348905
0.024402999
3.6348905
2.3843275
-0.21792724
2.3843275
-1.9600393
-0.20636102
-1.9600393
1.1848315
-1.1848315
1.2369285
-0.05209705
-1.2369285
-0.051100226
-11.148728
11.127194
-0.035776784
-11.112951
5.1642998
5.1642998
4.061806
0.78751257
4.061806
-5.0431725
0.19042141
-5.0431725
3.6603958
-7.0016784
3.7245736
-7.8838608
5.0617463
-17.515588
4.729139
-9.1931973
7.3182381
-7.3182381
7.2000627
0.11817538
-7.2000628
0.1300711
-1.2825983
-0.085857629
-1.2825983
-3.489618
-0.61882489
-3.489618
4.7719738
-0.66353087
4.7719738
-1.2964445
1.2964445
-1.3135998
0.017155295
1.3135998
0.050439165
3.6220869
0.012803592
-3.6220868
-0.017026417
0.84087023
0.19805907
-0.84087023
0.22624936
3.8161429
-0.4215846
3.8161429
-2.9500516
-0.4445068
-2.9500516
-1.1576458
-0.12495246
1.1576458
-0.14770175
-5.8198371
0.24525061
-5.8198371
-11.213437
0.10048599
-11.175798
-6.0922061
-6.0922061
2.3460598
11.146066
-1.7671179
-0.19292136
1.7671179
-0.1763182
1.2546902
0.041754348
-1.2546902
0.1151167
-1.1390107
-0.045820757
1.1390107
0.00056280017
-2.5370604
0.42664555
-2.5370603
-1.2135773
1.2135773
-1.3098693
0.096292045
1.3098693
0.19392579
1.7020648
-0.30660545
1.7020648
1.5049113
-0.0011453715
-1.5049113
0.048639447
-4.3973332
-0.22153046
-4.3973332
7.1466015
-0.26671657
7.1466015
-2.6530487
-0.29700287
2.6530487
-0.26872116
-0.035209232
11.162403
-5.1290905
0.035457507
5.1290905
-11.222934
11.258391
-3.1154366
0.57837629
3.1154366
0.94636938
5.3065807
0.26800588
-5.3065807
0.26340813
7.4062311
0.063693165
-7.4062312
0.087993079
-2.9798219
-0.50979606
-2.9798219
-5.5166349
-0.63992529
5.5166349
-0.74466115
-11.475514
-0.19594461
11.671459
-11.432802
6.0157817
0.13791413
-6.0157817
11.396305
-1.2297056
-0.16575383
1.2297056
-0.016128322
2.0508092
-0.34874435
2.0508092
4.1695569
-0.35341393
-4.1695569
-0.22777639
-7.3102352
-0.11499548
7.3102352
-0.1636338
-2.4939124
-0.48590945
2.4939124
-0.4431032
-5.3364578
5.2849157
2.8605701
-3.3493762
-3.3604115
-7.5318015
2.5443787
3.0688108
4.8192159
-10.994537
-6.5210515
-10.818572
7.2722548
-7.0088466
-9.4954545
9.3979316
10.011668
-10.189271
-7.3154092
7.3658484
8.7225316
-8.7873457
3.7848858
3.6869444
10.917031
-10.623911
-16.766067
16.384625
10.268222
-10.222642
17.027066
-17.061822
-19.278579
19.342272
-7.3564652
7.2763932
-9.2183641
9.012003
-9.4691842
9.200463
-3.7743297
-4.1095311
14.201435
-14.036989
11.685115
-11.734723
-11.540029
11.968568
4.0433519
1.2415637
4.0173552
-3.6160744
7.4009602
-3.4291109
6.289681
3.5042344
-7.2785641
3.497444
-6.8578555
5.9736801
5.7114346
-5.8825768
-1.6492247
-8.166969
8.0325603
-7.5152836
7.5158464
11.86574
-12.018647
-3.6068501
7.2937945
-3.4349491
6.50376
-3.6926538
-3.6227555
3.5634878
1.2557281
8.7605797
5.440855
-8.9280578
-1.8905138
-10.684611
10.331197
-11.272966
10.82846
-0.45037683
5.7863685
-5.3359917
4.4039242
-1.4725492
7.2589177
5.7997057
5.9901271
5.8673945
-5.5993886
1.1414521
-6.4774437
-6.3776657
-3.0935782
3.1994489
3.1418255
-2.9683968
7.7655641
2.2461037
7.4822641
-7.2429014
-2.9463692
-7.4644318
4.4184762
2.9473722
4.4356315
5.2559463
3.4665853
5.1681879
5.861721
-5.9598176
0.098096564
-5.4707094
11.33243
1.3339769
-9.0934649
-7.8377368
6.9151401
4.0018909
7.1266002
-7.5469867
-3.0769246
-7.0778037
-10.20639
-6.559677
-10.846316
10.948001
5.4366243
10.606118
-12.882902
12.719268
6.7035301
3.5646921
6.732413
-6.8213702
-3.4012719
-6.7567987
13.256098
-3.1849656
-10.071132
-11.152626
-8.1259522
11.162565
5.8645016
11.871534
7.4707377
11.959527
4.8671288
8.3889687
-10.73163
2.6056782
-4.5062299
-2.8502353
-4.5573302
4.5155452
2.760848
4.4502279
-5.4206305
-3.7977335
-5.6135519
-5.4086324
-4.0605518
5.6265597
3.3854433
-5.6014537
-5.6715127
5.8984566
3.3020064
4.353545
-10.874596
4.8396522
-8.9491834
-9.958331
-4.0786581
-9.8282599
4.5344301
3.08251
-7.6169401
-2.7441341
11.251214
-5.5397798
9.6019896
-7.2371588
-4.4975645
-7.2541852
-9.1311777
-2.4088509
-8.9567048
-9.5075843
8.9977883
-9.8908405
9.2273096
13.874431
-6.7320062
-7.1424253
-4.8814868
-3.9058588
4.8712418
-0.85388665
-7.2100515
7.3081481
0.19090866
6.4805897
7.7221534
6.8682667
-4.5060695
-3.0092141
-4.3909528
4.607508
2.9083383
4.5616873
9.0985818
2.7671584
8.9930727
-8.3395365
-3.6791102
-8.6749376
9.5510573
-9.2168202
3.0316595
-3.1566119
7.0815808
3.7468789
-6.6599961
-4.0246145
9.3099707
-4.3442199
-4.9657508
-12.065885
10.640933
1.4249512
-4.806967
-0.40304289
-0.16910274
-5.5743748
-3.9210797
5.4734195
0.51670757
11.157641
7.2365614
-5.5169454
5.7621961
6.1545132
6.2148582
-0.16280743
6.0818797
-5.5035034
7.3058811
-3.3867685
-3.9191126
6.7574728
-7.1287721
-1.9174648
-7.3814822
5.4640174
0.35349202
2.1902369
-1.8095562
-2.2994578
-0.79412033
-2.2508184
1.8736553
1.2681703
2.0717143
1.1270087
2.0724402
-3.8253347
0.75791353
3.0674212
-2.698326
-2.2104832
-5.0717241
-1.844583
6.916307
7.4479704
2.8832262
-7.220194
-0.24423781
2.9165987
-2.9803919
-0.73264175
-4.3390823
3.076805
-3.8094468
-5.8168748
-2.3885101
8.2053849
-3.7238218
-0.66713102
3.6820674
0.75356409
-4.7943535
-3.3726155
4.8452048
0.32298306
-5.3753299
11.022511
-5.6471813
-8.3845441
4.510003
6.8224275
7.4573752
-9.1671388
4.7726094
4.3945293
-2.3447113
5.9303341
1.1962662
6.0776282
-9.2019417
6.1250171
7.8738776
4.0946899
-8.2963709
1.2185672
-7.9833746
10.59972
-9.2587435
-1.340977
5.2410257
5.3586948
7.5619512
6.3124803
-6.0235317
13.585483
-1.4881097
-7.7706338
9.4714842
-5.3767943
6.1484831
-11.525277
-12.460963
4.6903296
-9.816619
11.906773
-2.0901539
-3.8645591
-9.018343
13.681178
-1.3210586
-12.36012
9.2850596
-5.5299774
-5.5989401
11.128917
-8.714943
9.0002121
-2.5787794
-6.4214326
-10.868963
-6.1928582
10.983959
1.7353094
-11.771267
14.376945
-3.382298
5.8024686
0.92994435
5.8268716
4.1581139
-6.7800218
2.6219079
4.5568291
-7.1356085
2.5903693
-9.3703911
-7.193056
13.190929
-5.9978727
-11.271714
-10.245378
-1.0263364
2.77076
11.606185
-10.241498
7.995935
2.2455629
3.8592108
0.70247655
-3.8071137
-0.75021647
0.59802898
6.7246975
-7.3227265
5.0482569
5.0057273
5.072792
1.6519055
5.1175584
2.9150019
-4.9412402
-0.6723117
-6.3868385
2.3262867
-3.0013951
-6.3313883
8.657675
-7.0631518
0.73176346
-4.2765694
-6.1587333
10.435303
-7.1268047
5.2851334
5.7373778
8.1934718
-8.6740509
2.5153176
-4.3890802
-4.2849708
4.5478342
-7.5492293
3.2888674
5.3688076
6.5908738
0.91936107
6.4976378
6.6932909
-9.5801478
0.63096446
12.134146
-10.243632
2.6723617
9.2871654
-10.668297
0.42291905
-9.4053408
1.2189791
-6.7587588
-6.3979611
6.7319162
-9.1407671
-4.7933613
8.2968588
0.69621394
-8.3013539
-0.65535088
-6.4861162
-3.0214681
-6.9720256
-3.2898595
-6.600981
-9.3133913
-1.7779825
-7.5354087
7.2198058
-7.1966332
-3.6496826
7.9412943
1.2860153
-7.9914315
7.8256776
-8.0318052
7.6830609
0.27267344
7.0354746
7.1409402
3.2350813
-4.6907633
7.9258446
-6.9279963
9.6951547
-11.577529
4.6495332
5.4518375
-9.1309477
-6.1256919
5.4576135
4.0934438
5.7299962
9.3718319
-10.850568
1.4787356
-11.06074
12.605481
-1.5447406
-17.111191
6.0504506
-7.7393591
2.8694638
0.16219568
2.7836062
0.85473392
2.8959894
-3.7507233
-2.301878
-2.4495797
-3.618913
-5.4576033
9.0765164
1.8532018
-5.1863263
3.3331245
-4.7383334
6.5915352
0.10583283
-5.2921591
7.1390599
-4.2430705
7.3012556
-4.6325006
2.668755
5.0669002
8.9110721
-3.8441719
6.5799925
-2.8331136
2.9022254
-6.7463973
-2.555378
-4.909259
7.670107
-5.5260436
6.257807
-0.34738047
6.6051875
-5.7791944
1.4349745
-0.70640237
4.299325
4.3093547
6.8511956
-5.1992901
4.8609524
-7.694066
-1.8854449
-6.7747049
-1.4058973
-0.49987663
-5.1348829
5.6347596
6.7214332
-7.2213098
-5.3629489
9.7623956
-4.3994466
8.0712439
-5.5404996
-2.5307443
-4.5563742
-4.660446
4.1297286
1.9521511
10.023395
0.27538364
-5.8158833
-5.2281198
-4.2817504
4.4830405
2.8228406
-2.3079384
3.7328896
2.4770411
-0.28680424
0.74298578
1.3287286
2.4611525
-1.7181667
0.25457832
2.2065742
-1.5549779
2.2051269
0.71147178
-2.2039815
-0.046836898
-1.6566768
4.7334818
1.4107444
-2.6789146
0.96074794
1.5576336
-4.9444021
6.8353538
-3.4914379
-3.3439159
8.3929874
1.6145174
-5.1059554
5.7669647
-5.4134727
3.2360975
-5.0806805
-1.869858
-7.2833306
-5.0372269
-4.126233
7.4593574
-4.9502834
7.8335097
1.6424826
-7.5892719
9.2317545
-4.8204455
2.4319354
-4.1715422
4.883014
-1.7710896
-2.4004525
4.2373553
3.9680297
-4.2035746
-0.13550769
0.03378065
3.210089
-3.1763084
-0.59935775
-3.2976837
-7.5664243
7.8894073
-3.8260056
8.598615
4.099839
-3.5537934
12.152408
3.2255894
-6.7793828
-5.1589547
-5.8260857
-2.3848535
5.0725217
-0.83062677
-5.9261719
-7.2520594
5.8306748
0.24695342
-9.2866818
10.354079
-1.0673973
-5.2847909
-0.84022615
6.0812518
-7.7712221
0.63561353
-5.1808528
5.1732263
6.3694925
6.6164459
-12.121442
-0.23867728
-6.684818
1.3266731
-8.0114912
6.6853679
-3.7970621
8.4873917
-11.074436
7.4247535
-9.7884208
7.1464147
-0.86507652
7.1428042
-4.5208963
2.9283278
-9.121186
-7.3858766
7.1911533
-3.6264612
8.1210976
-4.1201583
12.241256
-7.5024563
6.9893368
5.2519191
-1.3794675
-5.8747177
-6.9542943
5.5748267
0.035042505
5.8619141
7.8254859
-4.910484
7.1531742
4.1937887
-8.5828689
-3.3554407
-11.848913
3.2660436
-6.1115347
-3.1415542
6.4075978
5.0519175
5.7543941
2.122627
-5.0041776
8.3553942
-9.3817307
-2.3575215
-4.0404396
6.892784
-1.3179573
4.3635394
-8.403979
-2.3952195
5.7475747
-0.71182886
-5.0357459
0.98443141
-5.7777927
2.342014
-8.1198067
6.7987531
-7.454104
2.3405283
-10.079887
-5.6509032
-5.6670316
-2.4157923
-5.6160129
-7.9535099
5.5377176
-1.9030592
5.9226184
-8.9021258
8.1902969
-3.7033553
9.2410729
-5.8363239
-1.1357017
6.2794271
1.4036338
10.644707
0.33215728
-6.4578492
-2.7512484
5.5656715
-2.8144231
1.7317921
-4.8027256
0.76294583
3.5046082
4.8883791
-8.9686257
-0.1623221
-6.6201713
-4.1573064
8.2507502
5.6050892
12.326522
1.4759548
9.4111161
-1.1603659
10.887071
4.5696302
4.763556
-4.1022865
5.5810221
1.5324731
6.1820063
-0.87336665
3.5421216
1.9102395
1.8387228
1.1416691
2.6534976
1.6558571
4.088472
0.33774872
-2.111831
4.7003773
-8.9821277
-1.115506
-8.1946152
1.2033164
5.8759892
-4.6726728
4.324437
-1.5015965
1.5100139
-0.027507858
-2.295368
2.3228759
-3.9466207
-2.5821722
-0.37559808
-2.203771
3.1645189
2.5297109
-2.7889208
-1.1576999
0.62238329
-5.6596102
4.4582971
-4.5938048
-0.62577514
8.6059793
-3.7221376
0.54582923
-1.2902022
-2.7518545
-3.5459749
3.5928118
11.546388
0.60602051
5.8992064
8.4954278
5.1228123
0.2123283
4.7991533
-6.8893073
-4.5712378
-7.1279846
-0.44261668
5.6386351
2.2137348
9.3924501
7.465654
6.1476966
-2.2562823
-11.638013
8.2137386
-2.6327165
6.668998
-1.6332521
-6.4865545
6.6753097
3.019845
-7.3715236
-0.082580378
-6.5691349
-9.2018513
-0.5039538
8.6942508
-10.140753
9.0050513
5.9835832
1.5518255
-4.8117314
-0.85530018
4.7154394
0.048116638
10.935188
-1.1959488
-7.1180577
8.3140066
-4.6800404
3.5645344
0.932213
2.8006766
3.255089
1.7534926
-5.3645651
-10.037238
-2.8686945
-2.0757076
-6.2126104
0.70369671
-3.2334076
6.2941644
-2.7296301
3.7634202
5.5843765
7.0943904
-2.047872
-5.1734378
6.4473186
-2.6838984
4.410492
)
;

boundaryField
{
    wall-4
    {
        type            calculated;
        value           uniform 0;
    }
    velocity-inlet-5
    {
        type            calculated;
        value           nonuniform List<scalar> 8(-1.7582594 -1.7582594 -7.3846893 -4.5714743 -7.3846893 -6.446951 -4.5714743 -6.446951);
    }
    velocity-inlet-6
    {
        type            calculated;
        value           uniform -5.6264299;
    }
    pressure-outlet-7
    {
        type            calculated;
        value           nonuniform List<scalar> 8(5.1573103 8.500332 6.0426153 10.515613 8.6233455 6.8133951 7.3849694 9.7908853);
    }
    wall-8
    {
        type            calculated;
        value           uniform 0;
    }
    frontAndBackPlanes
    {
        type            empty;
        value           nonuniform List<scalar> 0();
    }
}


// ************************************************************************* //
