/*--------------------------------*- C++ -*----------------------------------*\
  =========                 |
  \\      /  F ield         | OpenFOAM: The Open Source CFD Toolbox
   \\    /   O peration     | Website:  https://openfoam.org
    \\  /    A nd           | Version:  9
     \\/     M anipulation  |
\*---------------------------------------------------------------------------*/
FoamFile
{
    format      ascii;
    class       volVectorField;
    location    "32";
    object      U;
}
// * * * * * * * * * * * * * * * * * * * * * * * * * * * * * * * * * * * * * //

dimensions      [0 1 -1 0 0 0 0];

internalField   nonuniform List<vector> 
918
(
(0.40911719 -0.00017541353 0)
(0.0090456319 2.9576279 0)
(-0.0094160324 1.3635698 0)
(0.29010873 -0.0085126276 0)
(-0.022709397 2.2606445 3.6436732e-20)
(-0.01174404 2.9485782 -3.4986576e-18)
(1.0271871 1.6087096 7.7390397e-19)
(0.37365988 0.22511448 -2.8445337e-20)
(1.9883733 0.0035224014 0)
(0.02607806 1.208172 0)
(0.0023655803 1.0175827 0)
(0.29526192 -0.01238725 0)
(0.012837669 2.9163508 0)
(0.013751239 2.7908865 0)
(0.10125471 3.1813218 3.1862235e-19)
(-0.0063180005 2.1197927 6.3486209e-21)
(0.40212257 0.08982381 1.7732901e-18)
(0.22617388 1.7024456 5.8027416e-19)
(0.36791837 0.0048937218 0)
(-0.016200422 1.018686 0)
(0.038453871 0.22125961 -1.4264527e-18)
(1.0476323 -0.022036962 0)
(0.54283151 -0.028434351 0)
(0.2478016 -0.0073219933 0)
(0.39068818 -0.0069798841 0)
(0.023375474 2.6175405 0)
(-0.0099628678 2.9058922 1.2926533e-18)
(-0.02045482 1.4121776 0)
(-0.018910311 1.6137322 0)
(-0.016959924 1.3922963 0)
(-0.017585806 2.8061873 0)
(-0.0086378115 2.3301439 -2.8643257e-20)
(-0.0065712611 2.1064562 0)
(-0.018161886 2.9813221 -1.3052068e-22)
(-0.018375495 3.0070227 2.716316e-18)
(0.00085955881 3.0015935 0)
(0.28707501 0.0010303351 0)
(0.43303857 0.91505323 3.30364e-19)
(1.1088478 1.5856715 -8.7615539e-19)
(1.1588499 1.4376204 9.3186016e-19)
(0.94821436 1.7425708 -1.7744379e-19)
(0.85272524 1.7487516 1.0363745e-18)
(0.47087637 0.27026534 2.7677536e-20)
(0.40030163 0.20466264 0)
(1.3133921 0.76980893 0)
(0.4180954 0.27361667 1.2732002e-19)
(0.33502385 0.22638366 -1.3257404e-19)
(0.24522561 -0.013759207 0)
(1.9896229 0.00041795967 0)
(1.9887015 -0.0022687368 0)
(1.3549687 0.001110956 0)
(1.867605 0.0051716068 0)
(1.7381045 0.0030545941 0)
(0.026687168 2.0217499 -8.6788531e-19)
(0.050390014 1.4415342 0)
(0.051070832 1.3122846 0)
(0.030708399 1.3878578 0)
(0.018417161 1.1244789 0)
(-0.0021931347 2.230372 0)
(0.0087345285 1.2536483 0)
(0.0089600429 1.035767 0)
(0.002094512 1.2565574 0)
(0.0019747215 0.99853912 0)
(0.53738005 0.027340242 0)
(0.54085951 -0.022461682 0)
(0.25905133 -0.0054974108 0)
(0.54866481 -0.018964467 0)
(0.33624439 -0.0077104788 0)
(0.016738816 3.0145159 1.3406464e-18)
(0.012390884 3.0113813 0)
(0.007727937 3.0035764 0)
(0.01332704 3.0004893 1.4294631e-23)
(0.010556648 2.9476307 -1.9146824e-18)
(0.016841461 2.9848923 0)
(0.013435377 2.8938408 0)
(0.017658787 2.9239415 3.0993487e-24)
(0.013853988 2.8181846 0)
(0.017619857 2.9103739 0)
(0.011172681 2.7542169 0)
(0.25208157 3.6420473 0)
(0.17941135 3.5792537 0)
(0.13500705 3.3145783 -2.9806095e-19)
(0.049822667 3.0045279 0)
(0.0063884889 2.2994804 0)
(-0.012706283 2.3467218 -6.2573587e-21)
(-0.0082025697 2.144998 -1.4109618e-20)
(0.53599731 0.10946458 -6.0794134e-19)
(0.38167228 0.058381226 -5.7886787e-19)
(0.5526785 0.14225278 -1.8553548e-18)
(0.41958772 0.12162929 -1.2405507e-18)
(0.17852155 1.151749 0)
(0.34741455 1.8473383 -6.518692e-19)
(0.43473825 1.828421 1.0950391e-18)
(0.54512373 0.038970238 0)
(0.31184771 0.025919534 0)
(1.2188832 -0.0014115354 0)
(0.73761699 -0.035307553 0)
(0.64840556 0.017028408 -2.9496447e-18)
(0.6488852 -0.026186019 2.3130638e-18)
(-0.012556442 1.2364232 0)
(-0.0049514602 1.0092708 0)
(-0.035739504 1.4346257 0)
(-0.026303456 1.2748382 0)
(-0.018886863 1.0352146 0)
(0.10728396 0.2634158 4.3526579e-19)
(0.19967094 0.20499751 0)
(0.50331185 0.018797599 0)
(0.2449883 0.013567923 0)
(0.54025749 -0.013749895 0)
(0.52176713 -0.014378081 0)
(0.37655246 -0.0041435631 0)
(0.95231846 0.052851014 0)
(0.49028916 0.013762605 0)
(0.28244883 0.0046295002 2.3454127e-18)
(0.001967974 2.8609497 1.1429997e-18)
(0.021345659 2.8994363 0)
(0.035549057 2.874784 0)
(0.015740122 2.703514 0)
(-0.010429252 2.985753 1.2509577e-18)
(-0.0090938561 2.8907683 0)
(-0.011760756 2.9907561 -3.8381273e-18)
(-0.009592991 2.915864 1.3122364e-18)
(0.008793372 1.8015047 0)
(0.030209279 1.8174297 0)
(-0.0038369689 2.3404146 -1.2303587e-22)
(-0.0054197 2.3103403 0)
(-0.0064561014 2.1003399 0)
(0.63172703 0.028353198 0)
(0.32042279 0.018676506 0)
(0.22616878 0.021530022 0)
(0.59721778 0.0065796429 0)
(0.27890873 0.015619466 0)
(0.52022399 1.0947078 -4.0506953e-19)
(0.55437487 1.1319068 0)
(0.40910533 0.89762189 5.2821156e-20)
(0.31853101 0.68962955 0)
(1.208947 1.389272 -2.6033654e-19)
(1.2268995 1.2023433 4.8849321e-19)
(0.55557922 1.8955325 0)
(0.7638315 1.8560608 0)
(0.65403611 1.8311716 0)
(0.14827825 0.24891012 -4.2629495e-19)
(0.51433042 0.25003419 0)
(0.41653995 0.18391257 3.5673399e-19)
(1.2848532 1.1674036 0)
(1.3429563 0.94612301 0)
(1.2733916 0.9753778 -3.6527005e-19)
(1.3933074 0.74048315 0)
(1.3455401 0.58777725 6.2506326e-20)
(0.57287078 0.023279342 0)
(0.53579109 0.012648478 0)
(0.25583797 0.011569894 0)
(0.52101843 0.0069472625 0)
(0.52789611 -0.014724579 0)
(0.25390342 0.0067358981 0)
(1.4987106 -0.0019598327 0)
(1.8698345 -0.0021021029 0)
(1.73183 0.00031499952 0)
(0.041353428 2.2439759 4.7010916e-19)
(0.050505563 1.9453879 0)
(0.033796287 2.3349108 7.6157671e-19)
(0.0204924 2.0848919 -6.3927896e-19)
(0.16791796 1.6921273 -4.7572101e-19)
(0.081812137 1.5334203 0)
(0.1013648 1.4968654 0)
(0.022350798 1.3402323 0)
(0.012969657 1.0765548 0)
(-0.00449467 2.4145977 -1.1032801e-21)
(0.0019340285 2.2264693 0)
(0.0011576288 2.4181871 -5.9312474e-20)
(-0.0018859537 2.2303304 1.0188547e-19)
(0.015688255 1.3049922 0)
(0.011625391 1.2760808 0)
(0.010612107 1.0487168 0)
(0.0033616938 1.2486273 0)
(0.0028993569 0.9953851 0)
(0.82869273 0.047419301 0)
(0.60695925 0.027909047 0)
(0.76898232 0.044100165 0)
(0.45966303 0.01862363 0)
(0.22555498 -0.013483956 0)
(0.51083746 -0.013656388 0)
(0.52706978 -0.0095383092 0)
(0.24298981 -0.010254743 0)
(0.0037117851 3.0719928 -1.1535126e-20)
(0.010790865 3.0616324 0)
(0.016167987 2.9688075 0)
(0.013253628 2.8677256 0)
(0.7324351 4.2303483 0)
(1.2330841 3.2957385 8.807897e-19)
(0.072509151 3.135847 0)
(0.030105628 2.9069611 0)
(0.028128291 1.852494 0)
(0.0176393 2.0959235 0)
(0.028983082 1.9656543 0)
(-0.022522252 2.746589 -5.302033e-21)
(-0.0043590795 2.457775 0)
(-0.018833259 2.6134818 0)
(-0.0035737789 2.1722363 3.3887049e-21)
(-0.007851046 2.3941505 2.3317451e-20)
(-0.0084286252 2.3717126 1.4381453e-20)
(-0.0064033366 2.1538701 0)
(0.53190732 0.068212982 8.7931018e-19)
(0.35930756 0.026648765 -8.7064468e-19)
(0.3042633 1.6932873 0)
(0.20614077 0.93061095 -3.7748587e-19)
(0.22545583 1.8348379 -1.1789995e-18)
(0.13744899 1.3930299 1.1829464e-18)
(0.27702515 -0.0039541436 0)
(0.5245728 -0.0015524736 0)
(0.52084781 0.014855124 0)
(0.28511089 0.00431724 0)
(0.0026746089 1.2367985 0)
(-0.0035804384 1.2309703 0)
(0.00035792982 0.99744721 0)
(0.357672 0.27168801 1.1787358e-18)
(0.27791211 0.26218912 -1.4086927e-18)
(0.27750957 0.22107483 0)
(1.2154964 0.13075228 3.5216442e-20)
(1.143425 0.11582184 0)
(1.0767219 0.08922273 0)
(0.79650555 0.036941096 0)
(0.51382543 0.030684397 0)
(0.48873625 0.0060690026 -3.7754648e-18)
(0.3198016 0.0096694396 1.438552e-18)
(0.0030248069 2.9854597 1.1391512e-18)
(-0.0033666882 2.8654391 4.6406506e-20)
(0.0038429371 3.053945 -2.4096211e-20)
(0.012752521 3.0472547 8.6763951e-19)
(-0.0093920359 2.9952584 4.2599425e-20)
(-0.008390041 2.9361776 -1.709362e-22)
(-0.013158396 3.0201635 -8.0136821e-19)
(0.0012155164 3.0231457 5.7760438e-19)
(0.006675663 3.0398194 -8.6826387e-19)
(0.72730469 0.039052668 0)
(0.68582571 0.040467099 0)
(0.38040625 0.019361808 0)
(0.51406597 0.010053934 0)
(0.49312801 0.034460835 0)
(0.26738461 0.0021690098 0)
(0.49542735 -0.019627726 0)
(0.47357836 -0.0010399962 0)
(0.2169979 -0.0082270302 0)
(0.70812096 1.3811913 -1.2969976e-19)
(0.77603315 1.4626061 0)
(0.16183345 0.3488882 1.0248474e-19)
(0.32855887 0.75878701 7.8327133e-19)
(0.34984098 0.79130424 -4.6341737e-19)
(0.2275609 0.48625846 9.0449442e-19)
(0.41737837 0.95674425 2.1785846e-18)
(0.16515223 0.33307981 4.8771481e-19)
(0.5533424 0.18284011 1.3150614e-18)
(0.54380368 0.22269794 3.4369317e-19)
(0.4260745 0.150659 6.6245171e-19)
(1.412353 0.55075692 1.1752472e-19)
(1.326673 0.40053118 8.1441136e-20)
(0.024072426 2.3925888 2.8837983e-19)
(0.011253635 2.1591363 0)
(0.97451858 0.062051111 0)
(0.89556899 0.054661757 0)
(0.70145965 0.032905973 0)
(0.01002945 3.0770177 0)
(0.016978281 2.9387235 1.6981552e-18)
(0.016542478 2.9537037 0)
(0.013505768 2.8433727 -1.6951462e-18)
(0.0095274185 3.0917489 3.8971141e-19)
(0.0037670725 3.088771 0)
(0.86662447 1.7518924 -9.2273037e-20)
(1.1320317 2.3625046 4.3819269e-20)
(0.84602519 1.8681959 -8.0317379e-19)
(0.014896434 2.9989661 -1.0481989e-18)
(0.036377319 3.0395795 0)
(0.012754973 2.8740436 0)
(-0.01037449 2.400428 -2.3652272e-20)
(-0.0052862713 2.4050397 -4.5550599e-20)
(-0.0024616923 2.2105736 -4.6125917e-22)
(0.3436068 1.5304928 1.1900597e-18)
(0.21057481 0.74706916 -8.1643622e-19)
(0.088593476 2.1541204 8.296904e-19)
(0.16668088 2.0147914 -1.0167069e-18)
(0.082722109 1.6812232 1.2239803e-19)
(0.014241501 3.1141984 -2.5859226e-18)
(0.016850616 3.1196061 2.9272843e-18)
(-0.008601699 2.9803126 1.1994897e-18)
(-0.0052161968 2.97745 -1.1806584e-18)
(-0.0075602725 2.8762654 -1.2219137e-18)
(0.0046854172 3.1054955 -3.0337939e-18)
(0.0095759772 3.104787 3.0127495e-18)
(0.37573748 0.82620097 0)
(0.32721107 0.76575984 -1.7380377e-18)
(0.13268289 0.27426319 7.7182796e-19)
(0.41243841 1.0778911 1.3981163e-18)
(0.18975688 0.42649669 -2.1707964e-18)
(1.347504 0.21757767 8.3333345e-20)
(1.403024 0.37136705 0)
(1.2779911 0.23737463 -1.1765984e-20)
(0.007770649 2.4222623 -2.045293e-21)
(0.0086031188 2.4076593 0)
(0.0048703578 2.198213 0)
(0.39179317 1.3937348 -4.2805029e-19)
(0.42180714 1.2479139 -9.5952034e-19)
(0.20004088 0.56751347 1.727902e-18)
(1.1920419 0.0056787656 0)
(1.3366808 0.0017617448 4.7604831e-19)
(0.0012834369 1.7837501 0)
(-0.024804988 1.795995 0)
(1.513002 -0.0010460682 3.3118387e-21)
(1.101386 0.015559089 1.0510426e-18)
(-0.018083903 2.7528646 6.8764831e-21)
(-0.014545259 2.7963405 0)
(0.063159585 3.1802099 8.4690733e-19)
(0.54063182 3.5545331 0)
(1.4704783 0.87298019 -8.5624e-20)
(1.2784677 0.0098252661 2.3799823e-20)
(1.3720425 0.02381212 0)
(1.9989152 0.007667289 8.3215753e-21)
(0.11713588 1.8762323 0)
(0.12204677 2.7474273 0)
(0.016919923 1.7934553 0)
(0.0044165583 2.8247534 5.335505e-20)
(-0.020052231 2.7739671 2.9453148e-20)
(1.2733251 -0.012600456 1.9989917e-20)
(1.4217013 0.067008406 0)
(1.4613407 0.095815078 0)
(0.004154926 2.1065252 0)
(-0.012615831 2.789629 0)
(-0.011776132 1.7875651 0)
(0.34627078 1.9911628 -2.7357385e-19)
(1.2987788 0.0094926907 0)
(1.0940442 0.0083653123 0)
(1.9710174 0.010627389 6.1951128e-19)
(1.6577402 0.015687792 -7.1211181e-19)
(1.9058704 0.010153086 0)
(0.007998826 1.9301099 0)
(0.0070488891 1.8158501 0)
(0.016495502 1.874749 0)
(-0.012780532 1.7811248 0)
(-0.015695262 1.7530382 0)
(-0.020085651 1.7569387 0)
(1.408181 0.045681037 0)
(1.3072934 0.0025991428 2.3232731e-20)
(0.98752451 1.7171843 4.3114524e-19)
(1.9566696 0.0011734356 -6.3051288e-19)
(1.7070777 -0.0047255169 7.5269492e-19)
(1.8971199 -0.006203713 0)
(1.3084515 0.0024098547 6.2278254e-19)
(1.1828606 0.0018290571 -7.8249278e-19)
(0.92892713 0.020827564 0)
(-0.015923756 2.827465 0)
(-0.016579849 2.8005117 4.5785488e-21)
(-0.015012097 2.8201382 -4.2029293e-21)
(1.6108947 0.36542262 7.947581e-19)
(1.5602609 0.16674498 0)
(0.079447354 3.0544271 -1.5523914e-18)
(0.044992967 2.8456975 -1.0866578e-19)
(0.18393174 3.1797078 2.3548589e-18)
(0.16836834 3.2456125 -3.824012e-19)
(0.16641681 3.2928737 0)
(0.032181283 3.1349588 4.4263302e-19)
(0.086170772 3.1738475 1.5265458e-18)
(0.082558698 3.2012442 -8.2386521e-19)
(0.050525753 3.1085619 0)
(0.79069665 0.37367734 0)
(0.71989346 0.46386917 0)
(1.4303374 0.94688058 1.9718928e-19)
(1.3819806 1.0996972 -1.7876385e-19)
(1.5346671 0.76185126 0)
(1.5331234 0.69949775 0)
(1.277528 0.016393992 -1.2503574e-18)
(1.0929169 0.012743264 1.6037321e-18)
(1.3910062 0.021867622 0)
(1.2362315 0.022220734 0)
(2.0041604 0.013045527 0)
(1.877877 0.0033893587 0)
(1.9370453 0.0085050178 0)
(1.7284978 -0.0062195627 0)
(1.6669389 -0.0017541474 0)
(1.7983485 -0.0017332562 0)
(0.10281233 1.864869 0)
(0.077838977 1.8535433 0)
(0.14653732 1.906017 0)
(0.15776821 1.9316088 0)
(0.14277253 2.7754803 0)
(0.18190994 2.8529319 -5.0680927e-19)
(0.10033281 2.8470521 0)
(0.08261302 2.8640729 2.3087664e-19)
(0.030482377 2.8826604 -2.0667119e-19)
(0.015517166 1.7983704 0)
(0.013113421 1.7682753 0)
(0.021741418 1.8049759 0)
(0.022887705 1.789826 0)
(0.0088091675 2.2592312 -1.5368004e-20)
(-0.018282312 2.8222456 -1.7468333e-20)
(-0.0018258239 2.8702908 5.1450309e-20)
(-0.0074251339 2.9041846 0)
(-0.018989785 2.8278165 -7.4367489e-20)
(-0.018482593 2.8238109 -2.0449513e-20)
(0.010501388 2.2542323 1.6701272e-20)
(-0.011848953 2.585811 2.3071924e-20)
(-0.017706526 2.6228645 -6.5370913e-20)
(1.3031312 -0.011251051 1.484211e-18)
(1.1138919 -0.019671675 -1.82479e-18)
(1.2548646 -0.0056362604 -1.5959301e-18)
(1.152755 -0.010441189 2.1178355e-18)
(1.4571147 0.059723162 0)
(1.3289054 0.062569183 0)
(1.4893273 0.086912469 0)
(1.4615669 0.06904469 0)
(1.3070976 0.067991011 0)
(1.565706 0.1514823 0)
(1.5029925 0.10543969 0)
(1.3690115 0.095643723 0)
(-0.017349866 2.6131742 -1.9411477e-21)
(-0.0051963936 2.2765379 0)
(-0.0088179411 2.4481709 0)
(-0.012942797 2.8175875 8.7428818e-21)
(-0.013888408 2.8295503 -3.771838e-22)
(-0.011504737 1.9964798 7.1288289e-21)
(-0.006140917 1.9431122 -7.1797672e-21)
(-0.017970399 1.8458414 0)
(-0.01130421 1.848272 0)
(-0.0054805303 1.8462202 0)
(-0.0071314307 1.7909168 0)
(-0.0054930714 1.7652027 0)
(0.48063499 1.998379 4.6419632e-19)
(0.49678194 2.0204403 2.3779969e-19)
(0.59088384 2.630321 -2.7424731e-19)
(0.38065256 2.7606197 7.2301749e-19)
(0.40062663 2.2490071 1.0200916e-19)
(1.4052616 0.022562786 0)
(1.3337423 0.022337714 0)
(1.1444266 0.013839615 0)
(1.9815158 0.016630142 0)
(1.9611226 0.011965424 0)
(1.7247064 0.017794319 0)
(1.6316242 0.016325286 0)
(1.6471286 0.020832041 0)
(1.3457504 0.0032522774 1.2184857e-18)
(1.0522829 0.020281038 -1.5369056e-18)
(1.3030822 0.0061053604 -1.3039004e-18)
(1.1524274 -0.0020802248 1.6976805e-18)
(0.94939576 1.7397417 0)
(0.84362417 1.8781193 4.1630177e-19)
(1.0854194 1.6076507 1.5958796e-19)
(1.1256867 1.5871949 -2.1267405e-19)
(1.2720507 2.7117843 8.3210741e-19)
(0.86355433 0.080857499 9.4346689e-19)
(1.5737853 0.18879744 0)
(1.619333 0.27926759 -6.2254733e-19)
(1.5284418 0.2306786 -2.4750813e-20)
(1.5174534 0.16170377 0)
(0.22556413 2.9262598 1.0460324e-18)
(0.10843945 2.8165938 -2.2454874e-18)
(0.037058137 2.3802141 1.4086561e-18)
(0.077396191 -0.029754297 -7.0874933e-19)
(0.37211111 3.4686594 2.0298368e-20)
(0.2396147 3.3741775 0)
(0.2523112 3.4371157 -2.8611098e-20)
(0.27140285 3.0893937 -2.5611592e-18)
(0.40623427 3.1778711 0)
(0.014272168 3.1193375 7.969604e-20)
(0.017333533 3.1324571 -8.5051904e-19)
(0.031936309 3.1178437 1.3219394e-18)
(0.038960131 3.1486031 0)
(0.036918262 3.1569531 0)
(1.3573517 2.8073734 0)
(0.77187807 1.0930029 -8.9009019e-19)
(1.2833947 1.3346625 -5.2131827e-21)
(1.2063022 1.4171549 0)
(1.100829 1.3395085 -1.8012638e-19)
(1.3307709 1.1853235 3.8822502e-20)
(0.43924359 0.49330059 -1.6683654e-18)
(0.85943884 0.36378131 -3.2617601e-20)
(0.76297155 0.28880975 7.4118243e-19)
(0.74789924 0.51470876 5.4607134e-20)
(0.630413 0.46446842 -2.2454636e-18)
(0.83167944 0.41840669 0)
(0.93686356 0.52556608 1.2304331e-18)
(0.94185885 0.48355759 0)
(0.79548361 0.46998914 0)
(0.72610456 0.39238077 0)
(1.1808536 0.84134116 7.2467961e-19)
(1.6181297 0.39722424 -6.9012411e-19)
(1.5972795 0.56516748 0)
(1.5832746 0.50312402 0)
(0.82358556 0.19410158 1.0825654e-18)
(1.2143605 0.7099339 -6.9658634e-19)
(1.0372054 0.64254505 1.249195e-18)
(1.4293558 0.53314738 -1.2632323e-18)
(1.263416 0.0053961954 8.2448638e-19)
(1.2402815 0.010517122 -8.5784604e-19)
(1.0096921 0.010264068 0)
(1.4363943 0.042549879 0)
(1.3831548 0.03188271 -7.5733634e-19)
(1.2013092 0.025136437 7.48434e-19)
(1.8260074 0.013010513 0)
(1.7059887 -0.0013760711 0)
(1.910873 0.0022042659 0)
(1.6765609 0.0063307725 0)
(1.9552197 0.015129673 0)
(1.9409595 0.013414875 0)
(0.068004899 1.8471686 0)
(0.053140278 1.8243467 0)
(0.175638 1.8315731 -3.4671205e-21)
(0.32533689 1.9815295 1.4138604e-19)
(0.20403849 1.9692255 3.1537757e-19)
(0.22917939 1.9892688 -5.0733311e-19)
(0.21736641 1.8688231 0)
(0.17600056 1.9790114 -1.0203129e-19)
(0.15803533 1.9671869 0)
(0.37175335 2.2064504 -1.4136769e-19)
(0.35767489 2.5031013 6.8245701e-19)
(0.2342414 1.9161436 9.1418483e-20)
(0.31626529 1.8655162 4.6999656e-20)
(0.26274838 1.8514261 -3.8278087e-20)
(0.34364467 1.7902272 -1.2356823e-19)
(0.26960593 1.9531618 0)
(0.31725281 1.9684221 1.3010445e-19)
(0.044987751 2.474431 -4.7187575e-20)
(0.03694771 2.8721406 0)
(0.069166752 2.5782008 1.8111324e-19)
(0.060827893 2.5841115 0)
(0.061079783 2.883989 -2.5674335e-19)
(0.046944989 2.9258151 0)
(0.025073065 1.8529857 4.2037149e-21)
(0.032032456 1.9015554 0)
(0.034825952 1.8368044 0)
(0.026822198 1.8240658 -4.7665027e-21)
(0.0079670778 2.855903 -9.0165984e-22)
(0.017917447 2.886253 2.3999379e-19)
(0.010174881 2.925789 1.6865249e-21)
(0.0048044889 2.1515138 1.3380633e-20)
(0.0047947305 2.0553221 3.5245153e-21)
(0.012111079 1.7863282 0)
(0.0099534488 1.7583899 0)
(0.051587154 1.9797429 4.2228569e-20)
(0.040105237 1.8743646 6.9230008e-21)
(0.042301731 1.9340559 -1.8808336e-20)
(0.05955342 1.9990054 0)
(-0.038548052 2.4698493 -1.0454999e-20)
(-0.030634251 2.7229617 2.2468734e-20)
(-0.032133262 2.643376 -7.6791441e-21)
(0.0008476142 2.1543236 -1.5834681e-20)
(-0.026554753 2.6747843 -8.8080846e-21)
(-0.02597117 2.6452824 5.8395262e-20)
(1.2634061 -0.0066092425 -9.1743609e-19)
(1.2721383 -0.01598311 9.591696e-19)
(1.0714998 -0.015559347 0)
(1.4934554 0.061804222 1.5848813e-18)
(1.1968615 -0.00011796343 -1.7676392e-18)
(1.1532189 -0.0038406917 2.0033106e-18)
(1.5182059 0.094959735 -2.1746021e-19)
(1.4195198 0.046295469 0)
(1.4270062 0.054987011 7.8966978e-19)
(1.3138458 0.05160528 -7.8233494e-19)
(1.6597966 0.092952487 -5.0069826e-20)
(1.6400444 0.076825093 4.2639086e-19)
(1.7649384 0.09666386 0)
(1.8313413 0.091072383 -1.6671963e-19)
(1.7235502 0.031290327 0)
(1.6002802 0.013488587 0)
(1.8518773 0.012074182 0)
(1.660216 0.0015572425 0)
(1.8465818 0.046607607 3.2677067e-19)
(1.8347201 0.028100792 -6.8173945e-19)
(1.8168483 0.077855597 -3.330444e-19)
(1.8244832 0.072340442 -3.847714e-19)
(1.7873886 0.117816 7.8025949e-19)
(1.647931 0.11914597 0)
(1.6917915 0.16323059 0)
(-0.031723102 2.4654189 2.6919089e-20)
(-0.012703255 2.2801659 -3.3845381e-21)
(-0.019672103 2.2728486 0)
(-0.027367161 2.6546066 -2.7654879e-20)
(-0.017949365 2.610524 5.0659098e-21)
(-0.021629502 2.6479567 -5.719758e-22)
(-0.020341514 2.8387869 1.8946916e-20)
(-0.019108808 2.7524455 -3.204206e-21)
(-0.022598104 2.7192433 4.0900756e-21)
(-0.01356046 2.8299199 -1.4258783e-20)
(-0.020441177 2.8315192 1.9025737e-20)
(-0.01662779 1.9114074 -2.6047987e-21)
(-0.0069749413 2.0161108 5.9641698e-21)
(0.48249419 1.9032328 -1.9965778e-19)
(0.4423812 1.8222872 6.8370319e-20)
(0.81644254 1.8977717 -4.0406965e-19)
(0.65619086 1.9857094 -2.2962217e-19)
(0.67880912 1.984768 0)
(0.6411628 2.5938052 2.5266326e-19)
(0.69724842 2.6070722 3.9869651e-19)
(0.44661226 2.6912185 1.113647e-19)
(0.45617776 2.6979499 -7.071677e-19)
(0.54209403 2.6289955 6.8312855e-19)
(0.5522556 2.6474822 0)
(0.48367648 2.7043558 -6.391951e-19)
(0.22764566 2.7755272 1.2926518e-18)
(0.33394868 2.760768 -4.9797442e-20)
(0.2696396 2.8507187 -1.7648862e-18)
(1.0210619 2.5408875 1.0103479e-18)
(0.89138296 2.5517607 0)
(1.954454 0.022907244 2.4410128e-20)
(1.6595341 0.022541731 -2.0872399e-20)
(1.6791158 0.022618052 -3.6780757e-19)
(1.8792512 0.028249069 3.6866662e-19)
(1.9893624 0.028288896 0)
(0.8633997 1.7108402 0)
(0.85144681 1.6083548 0)
(1.0179443 1.521356 0)
(0.87819068 1.5324342 0)
(1.2789039 2.7473523 -1.6566418e-21)
(1.1884234 2.5714186 0)
(0.93418161 2.2833715 6.0944406e-21)
(0.87670801 2.5432396 0)
(0.99383099 2.6145157 -5.2730492e-19)
(1.0215845 2.6031816 3.6035571e-19)
(0.88832321 0.11871672 0)
(0.84610913 0.12824775 2.6196481e-19)
(1.0991743 0.11532489 1.4493356e-18)
(0.91980805 0.077774621 -5.584902e-19)
(0.85858487 0.024439835 -1.6914224e-18)
(1.6779211 0.32620328 -1.2660801e-18)
(1.5495431 0.39978513 -2.8202344e-20)
(1.2799226 0.32192734 1.4510607e-18)
(1.5225607 0.28456239 1.1800588e-18)
(1.2959117 0.1654475 -1.9460556e-18)
(1.244923 0.17953461 2.4736858e-19)
(1.2841278 0.25371521 -5.4328781e-19)
(1.2689117 0.22128642 0)
(1.5156301 0.20531617 9.55579e-19)
(1.6326351 0.24373132 0)
(1.6289917 0.29311485 0)
(1.6592783 0.20453797 3.8799167e-19)
(1.7437565 0.25111695 -2.2916386e-20)
(1.6950935 0.32850482 -2.2249383e-19)
(1.668173 0.28972069 0)
(1.5524904 0.018220868 8.0469937e-19)
(1.7934686 0.070377745 9.8322569e-19)
(1.7508789 0.043009901 -7.6505359e-19)
(1.742546 0.0896708 -6.7067307e-19)
(1.5440282 0.056065945 -1.1374259e-18)
(1.4000645 0.12686499 0)
(1.4221164 0.11209574 0)
(1.147199 0.023154346 -7.264829e-19)
(1.0679645 0.026246151 2.9637409e-19)
(1.6646089 0.12099315 9.9616884e-19)
(1.7617721 0.19003155 -1.1357617e-18)
(1.7378296 0.20629461 1.0387321e-18)
(1.6830954 0.18690012 0)
(1.7543999 0.15677949 0)
(1.7901066 0.13731477 -4.4244542e-19)
(1.7624086 0.1237348 -8.1261081e-19)
(0.73813915 1.5033549 2.4153915e-19)
(0.82016502 1.8381558 -2.6715842e-19)
(1.1818452 2.7843078 -3.0095545e-19)
(1.3016105 3.1349262 5.7470316e-20)
(1.3429611 2.8269659 -6.4496649e-19)
(1.3987622 2.8954206 8.4284788e-20)
(1.2695173 2.5689369 2.678102e-20)
(1.3330556 3.0591422 -2.2309481e-19)
(1.3399649 3.0773938 4.2746138e-19)
(1.3201856 3.3418064 -5.6072259e-20)
(1.4370063 3.108805 5.787321e-20)
(1.4541712 3.0367718 0)
(0.77503499 1.1761445 -7.8388903e-20)
(0.26123269 1.3430526 9.1217477e-19)
(0.65618266 0.69648476 1.1008341e-18)
(0.43158368 0.26823647 1.2612311e-18)
(0.66376234 0.52149739 1.2611711e-18)
(0.7347241 0.63369126 -2.0868022e-18)
(0.71970599 0.65024948 1.6932922e-18)
(0.61895975 0.54900086 -6.5152972e-19)
(0.50842826 0.43458149 1.4738644e-18)
(0.87107994 0.24502127 -6.0983824e-19)
(0.8451665 0.29049771 0)
(0.76061691 0.24061627 1.6317459e-20)
(0.9820437 0.65465927 6.6099807e-19)
(0.93703997 0.61218946 -2.4033896e-18)
(0.79427971 0.63967719 2.6641073e-20)
(0.82038482 0.5953211 0)
(0.9109732 1.0455363 7.0766531e-19)
(1.1516953 1.081628 6.3388387e-19)
(1.0473819 1.2102542 -7.2809537e-19)
(1.201328 1.1115983 -2.5646373e-19)
(1.2558434 1.172885 -5.8784899e-20)
(1.2327023 1.1745117 5.9274843e-20)
(1.2636199 0.88365896 -1.2020404e-18)
(1.2780251 0.99739278 2.4068127e-19)
(1.3544799 1.0014796 0)
(1.3898825 0.94683053 -3.1708368e-19)
(1.5879553 0.43002082 3.5324758e-19)
(1.6595565 0.42627365 4.1459102e-19)
(1.6669529 0.38933289 5.3662423e-19)
(1.5644486 0.51816849 -7.1615251e-19)
(1.5586575 0.5804606 0)
(1.5840291 0.55304643 0)
(1.2666059 0.44781007 2.255354e-20)
(1.1022668 0.31023617 0)
(1.1584962 0.28916005 7.0601811e-19)
(1.2615078 0.33224791 -1.8591573e-20)
(1.4205253 0.58079172 3.2862756e-18)
(1.3277783 0.67668021 9.1495412e-19)
(1.3114272 0.5872087 -1.0266346e-18)
(1.1254574 0.5307327 1.1162679e-18)
(1.0767603 0.53050783 6.6391278e-19)
(1.0029753 0.48236404 -6.5081416e-19)
(1.6680784 0.037206416 6.2989034e-19)
(1.9479483 0.030479479 0)
(1.912941 0.037473433 4.2632721e-19)
(1.6869246 0.035763811 -9.5508938e-19)
(1.9292538 0.025258678 4.7095017e-19)
(1.8742699 0.007296564 -9.9849026e-19)
(1.6933961 0.0048128076 0)
(1.5803385 0.010592017 -2.0604106e-19)
(1.8414678 0.0077393434 5.1530302e-19)
(1.6707053 0.0096798861 -2.6589533e-19)
(1.6089018 0.013556843 1.9453434e-19)
(0.029888671 1.8122733 0)
(0.036834588 1.8192823 0)
(0.044515876 1.8230735 0)
(0.032499939 1.8055482 0)
(0.089072343 1.8392823 -2.2880844e-20)
(0.10412673 1.8234966 1.6250116e-20)
(0.14237406 1.9111251 -3.1586478e-20)
(0.12637561 1.8120733 1.7061897e-21)
(0.048499127 1.8838605 -1.5067116e-20)
(0.052322786 1.8793433 1.1681226e-20)
(0.081011086 1.8287672 -2.1788904e-20)
(0.071108555 1.8345122 4.0786567e-20)
(0.052121675 1.8165878 5.3409252e-21)
(0.043990655 1.823702 -4.3707798e-22)
(0.09620133 2.5174406 -1.9479615e-19)
(0.098928493 2.5511346 0)
(0.16547475 2.2611415 1.1630289e-19)
(0.1532552 2.0550603 6.7097506e-20)
(0.26825991 2.2277659 -1.0659721e-19)
(0.23404327 2.5987589 0)
(0.27666998 2.5854825 -6.7888032e-19)
(0.32550681 2.486174 4.881547e-19)
(0.23180642 2.1907346 -2.6923644e-19)
(0.18060741 2.3511563 1.8403758e-19)
(0.17000313 2.486493 0)
(0.025681414 2.2124864 -8.5324772e-20)
(0.022418537 2.5918313 -1.1264007e-19)
(0.0188969 2.359151 0)
(0.020785552 2.649914 -1.6091447e-20)
(0.040320034 2.4825624 5.3167339e-20)
(0.011867594 1.8407308 -2.9239298e-21)
(0.0092989919 1.8342895 4.2399884e-20)
(0.01239901 1.8367361 -1.561658e-20)
(0.017978907 1.8298084 -1.0574483e-20)
(0.02422818 1.8599262 0)
(0.0058058791 1.8158916 0)
(0.00059418604 1.7849358 -2.2320416e-20)
(-0.0002850114 1.8114696 5.4636862e-21)
(0.0031768173 1.8139577 0)
(0.0072828863 1.7804078 -1.7191662e-20)
(0.003613924 1.7594553 3.5733012e-20)
(1.6307867 0.047491126 0)
(1.624529 0.049637443 -7.3269395e-20)
(1.9161322 0.046126719 -5.6519281e-19)
(1.7877892 0.057316686 0)
(1.6298927 0.051435253 0)
(1.8901005 0.036098178 8.1830827e-21)
(1.8938441 0.037356714 8.3575407e-19)
(1.7702512 0.013273671 1.0761689e-18)
(1.6528609 0.0046870326 0)
(1.5754427 0.0048898921 0)
(1.7538476 0.024804821 5.6517383e-19)
(1.596577 0.013484015 0)
(1.5729368 -0.0020342604 0)
(-0.023333402 2.2766872 0)
(-0.0099510241 2.0437779 -1.0136879e-20)
(-0.020678523 2.1563321 -3.1013664e-21)
(-0.0027936034 1.8231516 0)
(-0.016142053 1.9595422 -9.2543118e-22)
(-0.013703313 1.8903659 7.6520673e-22)
(-0.0054326114 1.8239151 0)
(0.49266771 1.9110385 0)
(0.44183568 1.7119441 -1.5239731e-19)
(0.40381498 1.7210695 0)
(0.53322965 1.7503078 4.0698985e-20)
(0.62385583 1.9162195 0)
(0.56260107 1.8607789 3.0279298e-20)
(1.1112854 2.8042633 -2.0879719e-20)
(1.0416985 2.5613485 -1.1626291e-18)
(1.0353573 2.451135 1.3403551e-18)
(0.91763348 2.5397539 3.341665e-19)
(0.90907867 2.6041106 0)
(0.97375474 2.5855968 0)
(0.99528425 2.5443978 0)
(0.97629975 2.5392758 -1.2067843e-18)
(0.73259623 2.5512565 -5.4490854e-19)
(0.85807748 2.5765587 -1.2731744e-19)
(0.85757849 2.5321387 1.018608e-19)
(0.74705175 2.5709229 0)
(0.84765694 2.5638817 0)
(0.80285233 2.5808776 -4.354625e-19)
(0.80378587 2.5957049 0)
(0.83221874 1.4860565 0)
(0.714976 1.2882538 -7.9251993e-19)
(0.79975153 1.3145167 -4.8314331e-20)
(0.74687339 1.4079745 0)
(0.73927866 1.375832 1.206223e-18)
(1.0583105 1.2563901 -1.9976998e-19)
(1.0331078 1.3846308 0)
(1.0491756 1.3187229 3.0278406e-19)
(0.87514696 1.4452662 0)
(0.90693068 1.3286545 0)
(1.2490116 2.8252235 -3.6460363e-19)
(1.2094499 2.8642229 -2.601718e-19)
(1.0002318 2.3749961 4.4951826e-19)
(0.99963451 2.4058574 -1.5335174e-19)
(1.2176375 2.8142419 0)
(1.1745396 2.7695383 1.9478733e-19)
(1.2017686 2.6453415 -3.6434572e-19)
(1.1108052 2.4843365 -2.9010978e-20)
(0.67805673 1.6979625 0)
(0.68864358 1.4944306 -2.1264762e-19)
(0.73569864 1.5698004 0)
(1.0989505 0.2267195 0)
(0.8590261 0.14513078 0)
(0.74345217 0.13779165 0)
(1.0793325 0.23555885 -1.1001352e-18)
(0.87768849 0.18557668 6.3911127e-19)
(1.0687047 0.024880147 -5.8638708e-19)
(1.1636424 0.086797545 0)
(1.1401707 0.10659886 2.6093815e-19)
(0.94945096 0.03275901 1.0587471e-18)
(0.8851188 0.0094986908 -6.6892613e-19)
(1.3293111 3.4658464 -2.6995465e-19)
(1.3114937 3.3977977 0)
(1.3499355 3.4200399 -6.1567976e-19)
(0.5361937 3.5194051 5.850259e-19)
(0.78419462 3.0504222 -3.8500685e-19)
(0.66327981 1.1692656 9.861451e-19)
(0.632641 1.1956018 0)
(0.55728522 0.7189481 -2.7916277e-19)
(0.67175881 1.0128476 1.4746397e-18)
(0.68919134 0.66696099 -3.8435093e-19)
(0.67114615 0.72387892 4.3313565e-19)
(0.85946356 0.69383215 9.017413e-19)
(0.94551762 0.71392503 0)
(0.87692147 0.83597503 0)
(0.7976308 0.78428359 0)
(1.4303534 0.8294517 1.1673145e-19)
(1.3534125 0.7453919 -8.7082911e-19)
(1.3486561 0.79760574 6.6014437e-19)
(1.4267564 0.69785302 -6.6517821e-19)
(1.5260104 0.69247672 0)
(1.5252765 0.76144479 -1.5724739e-19)
(1.1251801 0.47118679 -1.4782536e-18)
(1.1536884 0.46568606 -1.7672077e-18)
(1.054048 0.43787666 1.1565038e-18)
(1.0333888 0.40369167 -1.1778872e-18)
(1.1045148 0.34873688 -9.1580147e-19)
(1.0096223 0.3319812 1.1365358e-18)
(1.9111062 0.026197291 -5.1151352e-19)
(1.93887 0.0284514 1.0355417e-18)
(1.6691118 0.03734006 6.4408144e-19)
(1.6840338 0.044155448 -7.6644271e-19)
(1.7743448 0.048237188 0)
(1.93152 0.041943296 -1.3537505e-18)
(0.078894822 2.0379291 2.6192565e-20)
(0.074042875 1.9809227 0)
(0.11329435 2.0320846 2.775595e-19)
(0.12591846 2.0233839 -2.5166682e-19)
(0.10958658 1.9390504 5.595272e-20)
(0.099520356 1.9310736 0)
(0.0035580705 2.0631692 0)
(-0.00055041554 1.900973 -4.5482662e-22)
(-0.0026805978 1.8703217 4.1151072e-22)
(-0.014628766 1.9569073 3.6768068e-21)
(-0.012646024 2.197961 -2.7292742e-21)
(-0.011250876 2.2214223 7.2110099e-21)
(0.6569199 1.7028117 -4.8688292e-19)
(0.61816291 1.7359496 5.1365158e-19)
(0.57143025 1.7243309 -3.4409591e-20)
(0.57404237 1.6754034 1.7344737e-20)
(0.80386005 1.7432021 0)
(0.68604532 1.837636 1.8000495e-19)
(0.75237869 1.8482175 -1.7488508e-19)
(0.60472357 1.7464202 3.4136367e-20)
(0.67718897 1.6753857 0)
(0.72707231 1.6514051 0)
(0.71003083 2.5198996 7.9797745e-19)
(0.71285259 2.5830346 1.4706551e-18)
(0.75862157 2.5854795 -1.0565893e-18)
(0.63158043 2.5905466 -2.2103243e-19)
(0.61818582 2.6508387 3.6510699e-19)
(0.57229198 2.6198988 -9.1852939e-19)