/*--------------------------------*- C++ -*----------------------------------*\
  =========                 |
  \\      /  F ield         | OpenFOAM: The Open Source CFD Toolbox
   \\    /   O peration     | Website:  https://openfoam.org
    \\  /    A nd           | Version:  9
     \\/     M anipulation  |
\*---------------------------------------------------------------------------*/
FoamFile
{
    format      ascii;
    class       volVectorField;
    location    "8.5";
    object      gradT;
}
// * * * * * * * * * * * * * * * * * * * * * * * * * * * * * * * * * * * * * //

dimensions      [0 -1 0 1 0 0 0];

internalField   nonuniform List<vector> 10((8.9421382e-07 0 0) (3.2683529e-06 0 0) (-0 0 0) (-0 -0 -0) (0.001546071 0 0) (0.0049118153 0 0) (0.023936811 0 0) (0.069126654 0 0) (1.2271932 0 0) (-0 0 0));

boundaryField
{
    inlet
    {
        type            extrapolatedCalculated;
        value           uniform (8.9421382e-07 0 0);
    }
    outlet
    {
        type            extrapolatedCalculated;
        value           uniform (-25.010962 0 0);
    }
    bottom
    {
        type            extrapolatedCalculated;
        value           nonuniform List<vector> 10((8.9421382e-07 0 0) (3.2683529e-06 0 0) (0 0 0) (0 0 -0) (0.001546071 0 0) (0.0049118153 0 0) (0.023936811 0 0) (0.069126654 0 0) (1.2271932 0 0) (0 0 0));
    }
    top
    {
        type            extrapolatedCalculated;
        value           nonuniform List<vector> 10((8.9421382e-07 0 0) (3.2683529e-06 0 0) (0 0 0) (0 0 0) (0.001546071 0 0) (0.0049118153 0 0) (0.023936811 0 0) (0.069126654 0 0) (1.2271932 0 0) (0 0 0));
    }
    frontAndBack
    {
        type            empty;
    }
}


// ************************************************************************* //
