/*--------------------------------*- C++ -*----------------------------------*\
  =========                 |
  \\      /  F ield         | OpenFOAM: The Open Source CFD Toolbox
   \\    /   O peration     | Website:  https://openfoam.org
    \\  /    A nd           | Version:  9
     \\/     M anipulation  |
\*---------------------------------------------------------------------------*/
FoamFile
{
    format      ascii;
    class       volScalarField;
    location    "0.5";
    object      alpha.phase1;
}
// * * * * * * * * * * * * * * * * * * * * * * * * * * * * * * * * * * * * * //

dimensions      [0 0 0 0 0 0 0];

internalField   nonuniform List<scalar> 
10000
(
1.0459002e-97
1.0459002e-97
2.7296404e-96
1.5695917e-94
6.5442916e-94
5.9398113e-92
6.4244711e-90
7.8415685e-88
1.2030488e-85
2.6153791e-83
1.1528955e-80
3.286728e-78
1.7311518e-76
2.135748e-75
1.1060587e-74
3.8424789e-74
1.0408457e-73
2.1351793e-73
5.3398491e-73
2.6131046e-71
2.1735334e-69
1.6645381e-67
1.1017422e-65
4.9395471e-64
2.2335771e-62
2.4885741e-60
3.7171434e-58
6.7876856e-56
1.3221443e-53
1.9329016e-51
3.3809203e-49
1.1497816e-46
2.4931039e-44
3.7812068e-44
4.362523e-43
2.2339105e-43
3.9634662e-44
3.1981562e-45
2.2852853e-45
2.2850772e-45
1.3064899e-44
1.8741821e-43
2.2948602e-42
2.3554082e-41
1.939303e-40
1.2606731e-39
6.6164261e-39
2.8349253e-38
9.5728066e-38
2.6006464e-37
2.937345e-37
1.9284133e-37
6.7077937e-38
1.549977e-38
2.8976862e-39
4.2878767e-40
4.4392108e-41
2.7120521e-42
3.3934861e-43
3.3934861e-43
9.7793323e-42
3.783709e-39
1.6330123e-37
1.8508671e-37
3.6681211e-38
3.4241121e-39
2.3248545e-40
3.908145e-42
1.2307424e-45
6.7315473e-48
3.5454235e-50
2.1286581e-52
2.3768191e-53
2.8797708e-54
3.9430183e-56
2.3873362e-58
1.6564815e-60
1.141334e-62
7.4777164e-65
4.6196421e-67
2.6769962e-69
1.52467e-71
6.0649231e-73
2.407298e-73
8.6718944e-74
2.9436702e-74
8.5607616e-75
1.8640015e-75
1.9324148e-76
5.040304e-78
2.2232618e-80
3.571007e-83
8.5347398e-86
2.2001725e-88
5.4748413e-91
1.7644305e-93
7.7914795e-96
1.1988798e-97
9.4992814e-98
9.498934e-98
1.2681177e-97
2.9510859e-96
1.4612551e-94
7.7808494e-94
1.8206599e-93
6.723774e-92
6.8313741e-90
1.0792637e-87
2.1694071e-85
5.5484545e-83
1.6632405e-80
3.3492116e-78
1.6984508e-76
2.1427405e-75
1.0835783e-74
3.41819e-74
1.1471797e-73
3.1284579e-72
2.855815e-70
2.6325486e-68
2.2502274e-66
1.740044e-64
1.1407296e-62
4.6303602e-61
7.012243e-60
3.9709062e-58
6.8177535e-56
1.3270125e-53
1.9399628e-51
3.3927368e-49
1.1537646e-46
2.4832238e-44
3.7696793e-43
2.0339328e-43
8.9845386e-43
1.9250126e-40
6.3568477e-41
1.5799427e-42
3.9018911e-45
1.9107263e-43
2.8503351e-42
3.5820671e-41
3.9144443e-40
3.5913868e-39
2.5417155e-38
1.2619883e-37
4.2441992e-37
1.0282725e-36
2.1209046e-36
4.0296609e-36
4.4002082e-36
3.4229123e-36
1.8372978e-36
8.031386e-37
2.8006996e-37
6.4816716e-38
8.5030861e-39
5.9860492e-40
2.3772775e-41
9.8288323e-42
3.7933094e-39
1.6302907e-37
7.1707988e-36
2.4482394e-35
9.6748162e-36
2.2343989e-36
2.6438136e-37
6.9722015e-39
2.0041659e-42
1.2307288e-45
6.7312935e-48
3.5447012e-50
2.2161483e-50
2.7812409e-51
7.813019e-53
4.0175958e-55
2.1386955e-57
1.3809977e-59
8.830918e-62
5.3026261e-64
2.9783919e-66
1.5586124e-68
7.8180638e-71
9.4710272e-73
1.2628483e-73
3.5927988e-74
9.5674771e-75
1.9060314e-75
1.8723242e-76
5.1160525e-78
3.0337598e-80
8.2641586e-83
1.9727247e-85
3.9541698e-88
1.348551e-90
1.0208708e-92
1.4238936e-94
2.082164e-95
2.6801603e-96
1.0390704e-97
1.5827054e-94
5.8457952e-93
3.3439162e-91
2.4665179e-90
4.0384764e-90
1.5112494e-89
6.8784069e-88
5.3213264e-85
3.0139813e-82
1.8484255e-79
1.9751341e-77
3.4493096e-76
2.1193477e-75
1.8199579e-74
3.9637013e-73
3.3547946e-72
2.9097062e-71
2.3798613e-69
2.3716918e-67
2.2100836e-65
1.9059501e-63
1.4883853e-61
9.895999e-60
4.2411399e-58
7.5702076e-57
5.1468204e-55
8.6748318e-53
1.6436323e-50
2.3625897e-48
4.1379672e-46
1.439444e-43
3.2393371e-41
3.5683019e-40
2.651951e-40
8.8385304e-40
2.061201e-37
7.575226e-38
2.3013102e-39
2.6439333e-42
4.1805621e-41
5.2781112e-40
6.2746613e-39
6.520276e-38
5.7398072e-37
3.9691842e-36
1.9681133e-35
6.7008496e-35
1.6384217e-34
3.3490083e-34
6.4862979e-34
7.1314619e-34
5.5192002e-34
2.9599821e-34
1.2990013e-34
4.5169761e-35
1.0446779e-35
1.4014193e-36
1.053584e-37
5.155005e-39
3.1684818e-38
7.2465451e-36
2.4428635e-34
1.1307854e-32
1.9068644e-32
6.5499263e-33
1.4849338e-33
1.8049218e-34
5.8350246e-36
2.7390189e-39
1.5314321e-42
8.5934374e-45
4.7242297e-47
2.4856146e-47
2.3444226e-48
5.2210927e-50
3.2992857e-52
1.9006229e-54
1.2379001e-56
7.9103522e-59
4.7290011e-61
2.6345516e-63
1.3621272e-65
6.6319907e-68
5.5732365e-70
3.6404024e-71
6.9440337e-72
1.214885e-72
1.3969906e-73
1.1133512e-74
6.8146878e-76
1.9200394e-77
1.5449493e-79
4.9398996e-82
1.5314938e-84
5.4735688e-87
5.5130037e-89
2.8565833e-90
2.0735035e-91
3.1392614e-93
6.3475256e-95
1.3406455e-91
7.1463742e-90
4.2418192e-88
8.1084986e-87
8.4090911e-86
1.7916867e-85
7.5371755e-85
4.0933994e-82
2.0907906e-79
1.1548541e-76
1.2084292e-74
2.3670845e-73
2.3301792e-72
7.0757665e-71
9.3359482e-70
3.5309585e-69
1.6843939e-68
1.4968757e-66
1.5167521e-64
1.4337833e-62
1.254061e-60
9.9687261e-59
6.8644779e-57
3.3476103e-55
7.0541233e-54
4.3843492e-52
7.0955591e-50
1.3124613e-47
1.8627447e-45
3.2698221e-43
1.1620042e-40
2.7394259e-38
2.4832707e-37
2.7028143e-37
1.0839783e-36
1.5876085e-34
6.6016153e-35
2.503118e-36
4.3635975e-39
7.160226e-39
7.5148669e-38
8.3611912e-37
8.2489954e-36
6.9569983e-35
4.6836015e-34
2.3019018e-33
7.8689352e-33
1.9328133e-32
3.9191901e-32
7.6909367e-32
8.4958034e-32
6.5392568e-32
3.5053844e-32
1.5496852e-32
5.4103596e-33
1.2607079e-33
1.7411501e-34
1.4012429e-35
1.4809947e-36
3.8883769e-34
4.0226428e-32
1.0724925e-30
8.6935273e-30
9.9881484e-30
3.1265329e-30
7.0518232e-31
8.8447644e-32
3.3764925e-33
2.5777902e-36
1.2742074e-39
7.463709e-42
4.3133893e-44
2.4197174e-44
1.7035711e-45
3.3574025e-47
2.1233389e-49
1.2973063e-51
8.5764306e-54
5.4703215e-56
3.2487454e-58
1.7891541e-60
9.0944448e-63
4.2975372e-65
2.9752212e-67
1.7497751e-68
3.6515796e-69
7.1335635e-70
1.0326691e-70
9.7291861e-72
5.4213533e-73
1.3254226e-74
1.1466429e-76
5.6393408e-79
3.3076083e-81
2.3769778e-83
2.6510423e-85
9.3752608e-87
1.5468336e-88
1.2032395e-90
1.9843022e-92
9.6950481e-89
6.5613249e-87
3.7511257e-85
3.7982891e-84
1.5486425e-82
2.3225755e-81
9.2530843e-81
3.3043397e-79
1.0937569e-76
5.2420177e-74
5.7670567e-72
1.2501043e-70
1.3715384e-69
3.6969106e-68
4.3461615e-67
1.533992e-66
8.275305e-66
7.9369094e-64
8.1793857e-62
7.864879e-60
7.0073957e-58
5.7167439e-56
4.1361434e-54
2.3557302e-52
6.0750705e-51
2.8141059e-49
4.2457428e-47
7.6554232e-45
1.0708344e-42
1.8802764e-40
6.8136438e-38
1.6758676e-35
1.3537882e-34
1.9784398e-34
9.4546488e-34
9.3299272e-32
4.4367717e-32
2.1284037e-33
4.5851198e-36
8.5044322e-37
8.539792e-36
8.6495302e-35
8.0600736e-34
6.4906295e-33
4.2428813e-32
2.0632109e-31
7.0667281e-31
1.7428435e-30
3.5098023e-30
6.9351854e-30
7.6895969e-30
5.8950658e-30
3.1670533e-30
1.4127584e-30
4.9503072e-31
1.1625077e-31
1.6554858e-32
1.4551398e-33
2.8820777e-33
6.533989e-31
4.5608212e-29
8.9222185e-28
4.3614258e-27
3.7930636e-27
1.1103014e-27
2.5296912e-28
3.2912417e-29
1.4497304e-30
1.9560557e-33
7.8318233e-37
4.8647178e-39
3.0036163e-41
1.4925258e-41
9.8493785e-43
1.7802651e-44
1.1526629e-46
7.3109967e-49
4.8839233e-51
3.1097833e-53
1.830906e-55
9.9237412e-58
4.927581e-60
2.2444894e-62
1.2602831e-64
6.160165e-66
1.4668816e-66
3.1317218e-67
5.1209979e-68
5.236782e-69
2.8407058e-70
6.5581654e-72
5.9848379e-74
3.8165014e-76
2.6038029e-78
1.9529422e-80
2.9520828e-82
5.2460308e-84
5.2487924e-86
3.4671266e-88
4.8505236e-90
5.8489621e-86
4.5645795e-84
2.6336274e-82
1.5692236e-81
4.6034608e-80
2.3232572e-78
3.7698875e-77
2.7791868e-76
4.7757498e-74
1.9324628e-71
2.1831354e-69
5.0941775e-68
6.4423014e-67
1.6207458e-65
1.5504591e-64
4.9299205e-64
3.5261695e-63
3.6274381e-61
3.8170223e-59
3.7395003e-57
3.4017732e-55
2.8545662e-53
2.1691077e-51
1.4031502e-49
5.7022814e-48
1.585771e-46
1.9974064e-44
3.4874806e-42
4.7929571e-40
8.380608e-38
2.9963409e-35
7.8656173e-33
6.0381181e-32
1.0950218e-31
6.1582386e-31
4.3238491e-29
2.3372955e-29
1.4033972e-30
3.88877e-33
1.851448e-35
8.4745206e-34
7.2136691e-33
6.289099e-32
4.8050849e-31
3.0354937e-30
1.4561408e-29
4.9829796e-29
1.2313469e-28
2.46306e-28
4.877993e-28
5.4246316e-28
4.1426518e-28
2.2355839e-28
1.0095208e-28
3.5590153e-29
8.4613593e-30
1.2514382e-30
1.3140702e-31
4.8299721e-30
6.0462931e-28
2.7553463e-26
4.2608974e-25
1.5544286e-24
1.0891335e-24
3.0460992e-25
7.0917992e-26
9.6283674e-27
4.8304801e-28
1.1471636e-30
3.7328404e-34
2.4846902e-36
6.5886193e-38
9.9991814e-39
5.0220834e-40
8.2704601e-42
5.1672903e-44
3.4349517e-46
2.3326419e-48
1.4787104e-50
8.5894753e-53
4.5494247e-55
2.1826656e-57
9.4594618e-60
4.4575838e-62
1.7662206e-63
4.7242e-64
1.0659742e-64
1.8938372e-65
2.0954262e-66
1.1203077e-67
2.4249941e-69
2.3206393e-71
1.6592866e-73
9.9046556e-76
8.5636719e-78
1.5315411e-79
1.6569701e-81
1.2699016e-83
7.754089e-86
9.6947145e-88
2.97059e-83
2.5519336e-81
1.489804e-79
6.8844036e-79
1.0176548e-77
8.2515426e-76
2.4513206e-74
2.2350554e-73
1.5806284e-71
5.4395235e-69
6.0836933e-67
1.5923731e-65
2.5713481e-64
5.9116693e-63
4.5465296e-62
1.294699e-61
1.3225712e-60
1.4468746e-58
1.5584895e-56
1.5586772e-54
1.4484029e-52
1.2483449e-50
9.8971139e-49
7.0178265e-47
3.999014e-45
1.0511731e-43
7.7946451e-42
1.2928414e-39
1.7358948e-37
3.0047066e-35
8.8590047e-33
2.9249204e-30
2.2633243e-29
4.7198834e-29
3.0887831e-28
1.6166629e-26
9.7396376e-27
7.1433114e-28
2.7375464e-30
1.587394e-32
8.4355066e-32
4.9998172e-31
3.992959e-30
2.8786872e-29
1.746384e-28
8.2198565e-28
2.7902397e-27
6.8237183e-27
1.3395945e-26
2.6416052e-26
2.9500549e-26
2.2454206e-26
1.2281223e-26
5.6876684e-27
2.0374717e-27
4.9276475e-28
7.8428802e-29
2.403101e-29
3.9994178e-27
3.6019455e-25
1.134157e-23
1.3857891e-22
4.1070271e-22
2.4080901e-22
6.6051891e-23
1.5814032e-23
2.2553913e-24
1.2795047e-25
5.3476901e-28
1.4232292e-31
1.0255853e-33
6.8664653e-35
5.4943474e-36
2.1049175e-37
3.1218431e-39
2.0058536e-41
1.3749065e-43
9.4154496e-46
5.9154768e-48
3.3621597e-50
1.7171449e-52
7.804696e-55
3.1239856e-57
1.2401762e-59
4.2076509e-61
1.2411838e-61
2.9593285e-62
5.6982715e-63
6.7211295e-64
3.4585635e-65
6.9795478e-67
7.1130938e-69
4.6930202e-71
3.0606455e-73
4.334498e-75
4.4928495e-77
3.4921641e-79
2.4528292e-81
1.4205634e-83
1.6363671e-85
1.2923657e-80
1.1906601e-78
7.0412538e-77
2.8677713e-76
1.8705336e-75
1.2837602e-73
8.1163246e-72
2.4130706e-70
4.065193e-69
1.1442058e-66
1.410713e-64
4.3875828e-63
8.0314139e-62
1.5517437e-60
1.0460715e-59
2.8967642e-59
4.3887628e-58
5.0740607e-56
5.6118064e-54
5.7427403e-52
5.4547067e-50
4.8172576e-48
3.9545215e-46
2.9885802e-44
2.0045192e-42
9.9573394e-41
3.0404312e-39
4.0242358e-37
5.2151071e-35
8.8820677e-33
2.198159e-30
7.7815457e-28
7.6348855e-27
1.6139652e-26
2.1810465e-25
4.9751286e-24
3.2147432e-24
2.7856674e-25
1.5820288e-27
4.9350032e-30
7.5626703e-30
3.0403762e-29
2.0769239e-28
1.4055077e-27
8.1074662e-27
3.7053388e-26
1.2358376e-25
2.9500023e-25
5.5679621e-25
1.0899037e-24
1.2269717e-24
9.3217978e-25
5.2490547e-25
2.5185452e-25
9.2570735e-26
2.2905959e-26
4.1286816e-27
1.3771895e-26
2.0072336e-24
1.357837e-22
3.7457614e-21
3.2505674e-20
8.4325019e-20
4.1721754e-20
1.1413986e-20
2.8309166e-21
4.2764367e-22
2.7329793e-23
2.0547911e-25
4.7906391e-29
3.5113194e-31
4.4596468e-32
2.5866735e-33
7.3779819e-35
9.426228e-37
6.5633958e-39
4.6589743e-41
3.1951448e-43
1.9715006e-45
1.0800693e-47
5.1885396e-50
2.1403502e-52
7.3049842e-55
2.1635135e-57
8.2338691e-59
2.7741943e-59
6.9028174e-60
1.4236458e-60
1.752602e-61
8.8236594e-63
1.7362771e-64
1.7536365e-66
1.0875707e-68
1.1331213e-70
1.211477e-72
8.8788616e-75
6.0126537e-77
3.9776692e-79
2.2029452e-81
2.3884732e-83
4.8982141e-78
4.7636289e-76
2.8538564e-74
1.0944046e-73
3.5175485e-73
2.0954147e-71
1.5757011e-69
6.234244e-68
1.1623923e-66
1.7360547e-64
2.6160136e-62
1.0655923e-60
2.1621667e-59
3.4284526e-58
2.0352171e-57
5.689967e-57
1.2717314e-55
1.5545199e-53
1.7756071e-51
1.8652123e-49
1.8124432e-47
1.6382315e-45
1.382312e-43
1.0902533e-41
7.9863348e-40
5.2384374e-38
2.462209e-36
1.2209917e-34
1.357879e-32
2.2003024e-30
4.6304492e-28
1.6561876e-25
2.3839755e-24
4.4346978e-24
2.068221e-22
1.2684557e-21
8.3843142e-22
8.2812509e-23
7.015421e-25
1.5183267e-27
6.3163496e-28
1.8170161e-27
8.8750882e-27
5.5659322e-26
3.0315992e-25
1.337683e-24
4.435728e-24
1.063901e-23
1.9627934e-23
3.8048058e-23
4.3055623e-23
3.3147008e-23
1.9146061e-23
9.2194601e-24
3.3747949e-24
8.6733643e-25
1.9605887e-25
6.5152498e-24
6.6542572e-22
3.4980972e-20
8.3215111e-19
6.4896702e-18
1.5998998e-17
6.027886e-18
1.6703625e-18
4.1577939e-19
6.6094329e-20
4.7461716e-21
6.4935572e-23
3.7690634e-26
1.7073427e-28
2.0142951e-29
1.0246756e-30
2.2855088e-32
2.4091118e-34
1.8189856e-36
1.3305666e-38
9.0193738e-41
5.3677688e-43
2.748866e-45
1.1731012e-47
3.8645968e-50
7.3385638e-53
1.0625291e-55
1.2365899e-56
5.3916115e-57
1.3982403e-57
3.1286169e-58
3.9843921e-59
1.9298633e-60
3.7219732e-62
3.2984085e-64
2.6081417e-66
3.1407856e-68
2.3818844e-70
1.4028261e-72
8.8446659e-75
5.5630028e-77
2.9634264e-79
3.067493e-81
1.6405192e-75
1.6671562e-73
1.0117392e-71
3.7752104e-71
6.8304269e-71
2.8748466e-69
2.1815658e-67
1.3290365e-65
4.9830145e-64
2.0569362e-62
3.8844073e-60
2.3548266e-58
5.7168946e-57
7.0958746e-56
3.4558694e-55
9.9044777e-55
3.1463372e-53
4.1106664e-51
4.8994929e-49
5.3173175e-47
5.3046638e-45
4.9054024e-43
4.2342724e-41
3.4400525e-39
2.6513174e-37
1.9555867e-35
1.3738841e-33
8.8907459e-32
6.3304588e-30
5.5477162e-28
8.4509978e-26
8.4156036e-23
5.8532719e-22
9.8446126e-22
9.4059812e-20
2.6907174e-19
1.7343193e-19
1.8667597e-20
2.3475591e-22
4.9217087e-25
4.0570677e-26
1.0215489e-25
3.2600275e-25
1.7606917e-24
9.1422438e-24
3.9797668e-23
1.3660896e-22
3.567323e-22
7.3140486e-22
1.4082732e-21
1.5634471e-21
1.2359468e-21
6.9750489e-22
3.0870492e-22
1.0467178e-22
2.8577993e-23
1.9521072e-23
2.0372671e-21
1.5192089e-19
6.5389177e-18
1.3255945e-16
6.9008079e-16
1.2785994e-15
6.5803789e-16
2.2402431e-16
5.2363013e-17
8.4673385e-18
6.7657505e-19
1.4694215e-20
1.5338372e-23
9.2261685e-26
7.3888495e-27
3.0720361e-28
5.8076278e-30
5.4536043e-32
4.2870239e-34
3.1652692e-36
2.0755135e-38
1.148398e-40
5.1038563e-43
1.5887393e-45
1.0210752e-48
2.3328382e-51
9.7519952e-54
1.0943538e-54
9.4650863e-55
2.5462953e-55
5.9607137e-56
7.7445053e-57
3.6173335e-58
6.7143508e-60
5.9947424e-62
6.8836352e-64
6.0669628e-66
3.5187576e-68
1.9158463e-70
1.1409798e-72
6.8367703e-75
3.5208075e-77
3.519239e-79
4.9116366e-73
5.1818115e-71
3.1856269e-69
1.177014e-68
1.4923321e-68
3.5530068e-67
2.8316416e-65
2.1420476e-63
1.0125913e-61
2.9794626e-60
5.8071447e-58
4.8533758e-56
1.1814209e-54
1.1876703e-53
5.1487148e-53
1.4965415e-52
6.2596635e-51
9.1281251e-49
1.1580464e-46
1.3123153e-44
1.3521382e-42
1.2829197e-40
1.1323388e-38
9.4127558e-37
7.4907295e-35
5.8527119e-33
4.6616389e-31
3.9636415e-29
3.7963717e-27
4.2128218e-25
2.5205398e-23
2.7577329e-20
1.3804043e-19
1.7892364e-19
1.6665917e-17
4.6256517e-17
2.8454722e-17
3.1856621e-18
5.9425819e-20
1.8007408e-22
6.902121e-24
6.362429e-24
1.1954718e-23
4.4642293e-23
2.1751266e-22
9.5290699e-22
3.371501e-21
9.6219675e-21
2.5083525e-20
5.0949839e-20
5.4660315e-20
4.1101737e-20
2.1706041e-20
8.7208203e-21
2.746473e-21
8.3504533e-22
4.4973981e-21
4.2731214e-19
2.5202692e-17
9.6994953e-16
1.113693e-14
9.3293995e-15
1.317919e-14
2.3905781e-14
1.0992167e-14
3.8411353e-15
8.4637987e-16
8.1978862e-17
2.4826045e-18
6.7800176e-21
3.7814919e-23
2.1974747e-24
6.8058181e-26
1.1268501e-27
1.0363355e-29
8.3674027e-32
6.0899877e-34
3.7059744e-36
1.7439146e-38
5.0383664e-41
1.1045846e-44
5.066437e-47
2.8691237e-49
1.095063e-51
3.5275199e-53
1.6362212e-52
4.4966998e-53
1.0227021e-53
1.2882797e-54
5.8355827e-56
9.9365241e-58
1.1498936e-59
1.2577054e-61
8.7031419e-64
4.5201509e-66
2.3337695e-68
1.311049e-70
7.5025467e-73
3.7519607e-75
3.7165892e-77
1.3267863e-70
1.4470621e-68
9.0081651e-67
3.3297861e-66
3.5503812e-66
3.9833706e-65
3.1187212e-63
2.4382379e-61
1.7031771e-59
9.2083926e-58
8.8239997e-56
9.1918573e-54
2.0673474e-52
1.7097445e-51
6.833359e-51
1.7060913e-50
8.8837721e-49
1.5952501e-46
2.2794023e-44
2.7564257e-42
2.966049e-40
2.9047636e-38
2.6281347e-36
2.2335096e-34
1.8227463e-32
1.4743159e-30
1.2353362e-28
1.1136875e-26
1.0820389e-24
1.3042521e-22
1.7932832e-20
6.2307177e-18
3.2684568e-17
2.7250771e-17
2.6932472e-16
4.2220104e-15
3.2514335e-15
4.2542476e-16
1.1482286e-17
6.3202318e-20
8.8363896e-22
4.6385103e-22
5.1348245e-22
1.0134205e-21
3.9504453e-21
1.6372681e-20
5.5960092e-20
1.6067544e-19
4.8738661e-19
1.0820529e-18
1.1558351e-18
7.8297518e-19
3.9801859e-19
1.5918417e-19
5.4227193e-20
2.3297917e-20
8.6167918e-19
6.3167399e-17
3.0310877e-15
5.760268e-14
4.4744882e-13
5.9938181e-13
9.0229265e-13
4.75458e-13
1.0892301e-13
8.7765956e-14
4.498256e-14
7.5852693e-15
3.3410017e-16
2.6123345e-18
1.4962744e-20
5.1375888e-22
1.211651e-23
1.7414215e-25
1.660752e-27
1.3414271e-29
9.1197216e-32
4.6480306e-34
1.248658e-36
3.8807475e-40
8.4879448e-43
4.7100867e-45
3.0430263e-47
1.3136962e-49
7.4687706e-51
2.4684977e-50
7.0392152e-51
1.5551853e-51
1.877943e-52
8.4108151e-54
1.426751e-55
1.946672e-57
1.7668376e-59
1.0493183e-61
5.2110693e-64
2.5582017e-66
1.3585026e-68
7.4433051e-71
3.6806051e-73
4.1742331e-75
3.2585633e-68
3.6657805e-66
2.3087273e-64
8.6002307e-64
8.5560391e-64
4.183226e-63
3.1400963e-61
2.5453199e-59
2.1398984e-57
1.7297703e-55
1.7317442e-53
1.5507832e-51
3.053601e-50
2.1830034e-49
7.8377243e-49
1.1420204e-48
9.4415978e-47
1.9456135e-44
3.4727118e-42
4.7693342e-40
5.4830686e-38
5.6061741e-36
5.2359409e-34
4.5633184e-32
3.8140657e-30
3.1617991e-28
2.6974369e-26
2.4136271e-24
2.3062665e-22
3.5163859e-20
5.4873209e-18
5.4415208e-16
1.5900615e-15
3.1381323e-15
3.0017103e-14
1.704485e-13
2.0551991e-13
3.7929914e-14
1.6092261e-15
2.2499161e-17
1.9099031e-19
4.3612185e-20
2.5690121e-20
2.8802026e-20
6.2076569e-20
2.0948579e-19
6.8347762e-19
1.9056618e-18
5.2288915e-18
1.1686986e-17
1.3384884e-17
8.8034911e-18
4.570639e-18
2.0000259e-18
8.3763037e-19
1.6521007e-18
1.1625138e-16
5.8891637e-15
1.2563428e-13
2.6214431e-12
2.8236047e-11
3.6323275e-11
5.2627162e-11
2.7827703e-11
5.4913521e-12
4.3360078e-12
2.0931996e-12
3.6615846e-13
2.7972465e-14
6.0184365e-16
4.9661273e-18
9.5174395e-20
1.7566193e-21
2.3170361e-23
2.2345233e-25
1.6995515e-27
9.4548668e-30
2.2855206e-32
1.9359951e-35
4.8387745e-38
1.0163479e-40
6.3399627e-43
3.5825671e-45
1.4272559e-47
1.428965e-48
3.0603821e-48
8.8125916e-49
1.9590751e-49
2.4194661e-50
1.106359e-51
2.1603167e-53
2.5950279e-55
1.9995643e-57
1.1333382e-59
5.4451245e-62
2.5504684e-64
1.2847031e-66
6.7715863e-69
3.8014208e-71
7.904076e-73
7.3236047e-66
8.4879375e-64
5.4018027e-62
2.0405463e-61
1.9876551e-61
4.4173644e-61
2.8789952e-59
2.3798335e-57
2.1257632e-55
2.7377317e-53
3.9906817e-51
2.29376e-49
3.6720395e-48
2.2670034e-47
7.8586267e-47
1.5289636e-46
1.6255145e-44
1.9591565e-42
3.6844971e-40
6.3493424e-38
8.2877094e-36
9.0453545e-34
8.8106537e-32
7.9206885e-30
6.7886582e-28
5.7153935e-26
4.8169489e-24
4.1463798e-22
4.2272455e-20
9.4241185e-18
2.6794373e-15
1.257935e-13
1.5450184e-14
2.9539187e-13
2.9632065e-12
1.3667695e-11
1.5972183e-11
2.3009999e-12
1.0502364e-13
4.4287423e-15
8.5328247e-17
5.2569819e-18
2.2372813e-18
1.4070477e-18
1.5568044e-18
3.17246e-18
1.0325194e-17
3.018671e-17
4.8373169e-17
8.9350487e-17
1.2842991e-16
1.0548918e-16
5.706997e-17
3.1247868e-17
1.6166305e-17
1.9858396e-16
1.1653471e-14
1.8948546e-13
8.7106755e-13
1.1497942e-10
1.4473606e-09
1.678512e-09
2.3462937e-09
1.3711949e-09
2.6834747e-10
2.3209044e-10
1.3155448e-10
2.3718543e-11
1.5784297e-12
4.6968243e-14
7.6898157e-16
1.2441256e-17
1.9527823e-19
2.4461094e-21
2.2849713e-23
1.4752308e-25
3.7901829e-28
6.4868722e-31
1.9577437e-33
4.138513e-36
1.2167491e-38
7.7805725e-41
3.4460404e-43
1.5636718e-45
1.9423486e-46
3.2471981e-46
9.0857193e-47
2.0549576e-47
2.7520779e-48
1.3230806e-49
2.6041437e-51
2.7874176e-53
2.012682e-55
1.1123481e-57
5.2005965e-60
2.3340777e-62
1.1144593e-64
6.0246244e-67
6.5784894e-69
2.8369187e-70
1.5150654e-63
1.8071999e-61
1.1626071e-59
4.4716196e-59
4.3521881e-59
5.1833963e-59
2.4232603e-57
2.0685768e-55
1.939972e-53
3.1581453e-51
6.0225652e-49
2.9901954e-47
3.8161095e-46
2.0863334e-45
6.7502761e-45
2.558757e-44
2.8620331e-42
2.9349377e-40
3.3113593e-38
5.7243711e-36
9.2430039e-34
1.1399544e-31
1.1825331e-29
1.1091475e-27
9.7701938e-26
8.2345713e-24
6.882072e-22
6.6581828e-20
6.8362777e-18
6.9120719e-16
2.598076e-13
1.0551011e-10
1.3601048e-12
2.1706095e-11
2.3660353e-10
8.7757764e-10
1.0180084e-09
1.1386947e-10
1.6128983e-12
2.0393275e-13
1.434513e-14
8.1730342e-16
2.2990135e-16
1.0317332e-16
7.8075119e-17
9.2140227e-17
2.0138474e-16
5.1528033e-16
5.212567e-16
7.9498094e-16
1.3939773e-15
1.5486975e-15
8.9329061e-16
6.3676607e-16
6.6356069e-16
1.425962e-14
1.680631e-13
1.5001716e-12
3.5921163e-11
1.6878136e-09
7.3845897e-08
1.2773308e-06
1.7767697e-06
3.042838e-07
9.7199581e-09
1.0871018e-08
7.6341255e-09
1.5840857e-09
4.3339322e-11
1.1472901e-13
2.6367777e-14
1.167138e-15
1.4663267e-17
1.6041944e-19
1.3739317e-21
6.0720561e-24
9.5381119e-27
3.5962106e-29
9.183181e-32
2.119301e-34
1.4998376e-36
8.3538529e-39
3.0689689e-41
1.105961e-43
2.1082175e-44
2.9867227e-44
8.0189173e-45
1.8562265e-45
2.670054e-46
1.3674614e-47
2.5827395e-49
2.6029959e-51
1.837495e-53
9.9896254e-56
4.5532495e-58
1.9680935e-60
9.0398409e-63
7.0274396e-65
2.2303225e-66
1.143954e-67
2.9002121e-61
3.554916e-59
2.3177067e-57
9.0886084e-57
8.9219849e-57
7.2618112e-57
1.8931643e-55
1.6662608e-53
1.6471327e-51
2.9199055e-49
6.4312233e-47
3.0748433e-45
3.4763731e-44
1.7681291e-43
5.1447829e-43
3.1192808e-42
3.7235002e-40
4.0702452e-38
3.9617653e-36
4.3839512e-34
6.9714134e-32
1.0177473e-29
1.1644175e-27
1.1482285e-25
1.0208974e-23
8.6751719e-22
8.9556618e-20
1.2567837e-17
6.1842551e-16
1.0344106e-14
2.1683219e-12
9.9178994e-10
4.3772967e-11
1.3492754e-09
1.4788181e-08
4.731354e-08
4.8537507e-08
4.3213406e-09
3.9060909e-11
8.1710365e-13
3.6041012e-13
5.9833351e-14
8.7730984e-15
3.2898836e-15
2.0517311e-15
1.8203097e-15
2.3887808e-15
7.1392385e-15
4.1575665e-15
5.2824667e-15
1.2043493e-14
1.209327e-14
1.2383459e-14
9.5825451e-15
2.492877e-14
9.8874409e-14
2.1628502e-12
1.2532771e-10
6.9321176e-09
8.3653202e-08
6.0132522e-06
1.7518131e-05
1.7688191e-05
1.189824e-05
8.4553997e-06
5.293347e-06
1.4207015e-06
6.0209304e-08
1.0392991e-10
3.2882865e-12
1.3325555e-13
7.7846605e-15
6.785789e-16
9.3324435e-18
4.410563e-20
7.7212918e-23
3.708442e-25
1.196934e-27
2.4098874e-30
1.2481248e-32
1.0564509e-34
3.7688909e-37
1.0600717e-39
4.4344325e-42
1.7705521e-42
2.3752897e-42
6.1876873e-43
1.475584e-43
2.2267233e-44
1.1862365e-45
2.2096898e-47
2.1907632e-49
1.5303147e-51
8.2076997e-54
3.6787214e-56
1.5506222e-58
7.684859e-61
1.698219e-62
8.5694173e-64
4.0807064e-65
5.1587116e-59
6.4851397e-57
4.29773e-55
1.7202795e-54
1.7116828e-54
1.1988247e-54
1.3911118e-53
1.241841e-51
1.3052203e-49
2.3110354e-47
5.4860496e-45
2.6722055e-43
2.7990245e-42
1.3684179e-41
3.8024959e-41
1.8162737e-40
2.1943754e-38
2.9344693e-36
3.5065686e-34
3.7294902e-32
4.0697751e-30
5.5828397e-28
7.1820937e-26
7.4271703e-24
6.7837552e-22
7.4373507e-20
1.2729443e-17
9.8066245e-16
2.4411618e-14
6.591452e-13
2.2590332e-11
4.4201825e-11
1.1791703e-10
3.0280257e-06
3.2093152e-05
2.69134e-05
3.1244001e-06
9.6966685e-08
2.5764353e-09
2.2839865e-11
1.3878362e-12
1.6412345e-12
3.7665846e-13
4.4632709e-14
2.4101056e-14
1.6919502e-14
4.3606961e-14
1.4582121e-14
3.3259325e-14
1.8066877e-13
1.5383241e-13
9.8345907e-14
4.6845169e-14
1.9588933e-13
2.0664596e-13
3.4167255e-12
7.450951e-11
1.5205211e-09
8.2850056e-08
6.7381897e-06
1.971125e-05
1.9711114e-05
1.9713296e-05
1.9030889e-05
1.845067e-05
1.782322e-05
1.5671655e-05
4.8110288e-06
2.9057915e-09
1.4190042e-10
4.715785e-12
1.6047576e-13
4.1469422e-15
1.5622041e-16
5.8318633e-19
3.1205289e-21
1.2610747e-23
2.9194811e-26
1.0271235e-28
7.0657822e-31
3.3432457e-33
1.0034966e-35
3.2671519e-38
3.7623979e-40
3.0795218e-40
1.6002406e-40
4.2590171e-41
1.044336e-41
1.6440947e-42
9.0007052e-44
1.6931942e-45
1.6807618e-47
1.1673258e-49
6.2514608e-52
2.7781132e-54
1.1552369e-56
1.2148296e-58
5.6337543e-60
2.8977035e-61
1.2361749e-62
8.5521913e-57
1.1001319e-54
7.4272334e-53
3.0416229e-52
3.077862e-52
2.0973709e-52
9.8954949e-52
8.5243472e-50
9.5887753e-48
1.6465139e-45
3.9332622e-43
2.0253565e-41
2.011563e-40
9.6548989e-40
2.8185609e-39
7.5792894e-39
7.6527417e-37
1.068126e-34
1.315844e-32
1.4598388e-30
1.5744905e-28
1.9608697e-26
2.6102749e-24
2.8977837e-22
3.541001e-20
8.1470992e-18
7.3826506e-16
1.4682714e-14
4.5746047e-13
2.8652778e-11
1.7141335e-10
1.0909256e-10
2.2239408e-06
5.4864605e-05
7.5839844e-05
7.5828244e-05
3.7978529e-05
5.8489516e-07
1.5512214e-08
4.5786036e-10
3.4978841e-11
9.5133658e-11
3.2901028e-13
4.8055881e-14
7.2338233e-15
7.1020457e-14
4.7208734e-14
1.3183646e-12
1.8808263e-13
6.1847946e-13
4.6016148e-12
7.5595421e-12
3.7286087e-12
5.06864e-13
1.165186e-12
1.8214103e-11
3.4230481e-10
4.8382883e-09
4.782784e-07
1.4419191e-05
1.970054e-05
1.9713214e-05
9.5143732e-06
3.1459207e-07
1.353237e-06
8.9718847e-06
1.6730295e-05
1.6666887e-05
8.0522954e-06
2.3741488e-08
3.2075981e-10
9.2952761e-12
1.8467761e-13
2.2632829e-15
1.81427e-17
9.0852624e-20
2.4567308e-22
4.2041919e-25
3.4309858e-27
1.6571358e-29
6.5592771e-32
2.6634224e-34
7.2989792e-37
2.6735383e-38
2.4116699e-38
9.6354628e-39
2.6528986e-39
6.6481495e-40
1.0877318e-40
6.1936136e-42
1.1929306e-43
1.1863071e-45
8.2766053e-48
4.4506175e-50
1.9587928e-52
8.4643504e-55
3.5154455e-56
1.7396599e-57
8.2425247e-59
3.1716512e-60
1.3237987e-54
1.7384659e-52
1.1975347e-50
5.0338098e-50
5.1946044e-50
3.6106913e-50
7.3578567e-50
5.36879e-48
6.4308248e-46
1.0913104e-43
2.4587797e-41
1.3650139e-39
1.3035412e-38
6.2219063e-38
1.9377334e-37
2.7859263e-37
1.450846e-35
2.1686384e-33
2.727229e-31
3.0650138e-29
3.2953263e-27
4.0330608e-25
5.7617566e-23
9.2544076e-21
2.3911126e-18
3.2141172e-16
7.4173098e-15
4.9136909e-14
1.6117611e-12
1.6847291e-10
1.3161033e-09
3.1514141e-10
2.7759849e-05
7.5838324e-05
7.5839201e-05
7.5839885e-05
6.0839895e-05
2.1006813e-06
5.5730586e-08
5.0872488e-08
4.9478197e-09
5.6070506e-09
2.2929313e-09
6.4191115e-11
1.5535019e-14
7.1944e-14
1.5435862e-11
6.6339477e-11
3.8325292e-12
5.751195e-13
2.8332202e-12
7.9927825e-12
1.7665071e-11
1.6369438e-12
2.6195147e-12
1.0533959e-11
2.8874374e-10
3.8325552e-09
4.4878766e-08
5.0743258e-06
1.2331747e-05
1.8831474e-05
1.570754e-06
5.7829703e-08
5.1123945e-08
5.0519888e-08
6.1474083e-06
1.6730295e-05
1.6438426e-05
2.7029587e-06
3.5739232e-09
8.0293712e-11
1.2499061e-12
1.3215909e-14
8.2949905e-17
2.7916178e-19
6.6894727e-22
8.7918011e-24
5.4493382e-26
5.5872345e-28
2.2742184e-30
6.5433881e-33
1.9664483e-35
1.5852169e-36
1.4566505e-36
5.3372275e-37
1.5040744e-37
3.8362785e-38
6.5282432e-39
3.8970364e-40
7.7227307e-42
7.7644082e-44
5.4866641e-46
2.9741803e-48
1.256844e-50
7.6837278e-53
9.3979745e-54
4.5808647e-55
1.9740862e-56
6.9168707e-58
1.9144216e-52
2.5637134e-50
1.8041206e-48
7.8037779e-48
8.2447629e-48
5.9462459e-48
6.46723e-48
3.1213622e-46
3.9295936e-44
6.7999563e-42
1.4188597e-39
8.2946228e-38
7.662936e-37
3.5829647e-36
1.1346583e-35
1.3115661e-35
2.0522335e-34
3.1997225e-32
4.2273242e-30
4.8619848e-28
5.5903031e-26
7.9196945e-24
1.413617e-21
4.4680739e-19
7.5936806e-17
2.2041021e-15
1.6590315e-14
6.0433892e-14
1.2012839e-13
2.3407364e-10
3.1307482e-09
2.0998458e-09
3.5939012e-05
7.5631587e-05
7.5838324e-05
7.4673209e-05
1.988247e-05
1.0019514e-07
8.3024742e-08
6.1173674e-07
4.7342263e-07
1.7408122e-07
1.0330344e-07
7.9775736e-09
1.4609379e-11
9.7657666e-14
1.4266699e-11
6.6217431e-11
5.7511964e-13
5.8017279e-13
5.7511953e-13
9.8216512e-13
2.0411278e-12
2.3104293e-12
1.687376e-11
1.8972955e-10
2.0551037e-08
1.890351e-07
2.7795382e-07
7.7061026e-07
9.2843592e-07
1.0970835e-06
2.0999484e-06
3.5711942e-07
5.1519018e-08
4.8828238e-08
4.8548533e-08
6.5955807e-06
1.6304747e-05
6.7149138e-06
6.3576925e-09
1.2422222e-10
1.5725721e-12
1.882045e-14
5.6722059e-15
1.3794995e-16
8.2449924e-19
4.8610051e-21
2.3241813e-23
7.8831759e-26
1.8999242e-28
4.548064e-31
1.1077574e-33
1.6206356e-34
7.1300869e-35
2.7039388e-35
7.7666927e-36
2.0219058e-36
3.578765e-37
2.2429083e-38
4.6261046e-40
4.7475225e-42
3.424869e-44
1.8537529e-46
6.6316427e-49
1.5181329e-50
2.118608e-51
1.0212191e-52
4.0095987e-54
1.2888476e-55
2.5856118e-50
3.5298276e-48
2.5407205e-46
1.1321358e-45
1.2351622e-45
9.2613445e-46
7.198976e-46
1.7149906e-44
2.2072047e-42
3.9470053e-40
7.8216116e-38
4.5969724e-36
4.0958271e-35
1.8276874e-34
5.840454e-34
1.2993493e-33
1.6544464e-33
1.688668e-31
3.3834457e-29
5.9618268e-27
9.2659055e-25
1.2103567e-22
1.7755388e-20
4.1589868e-18
4.3347592e-16
9.6233473e-15
6.2957597e-14
1.677278e-13
9.4730508e-13
1.2298374e-09
1.0139612e-08
7.5902565e-09
8.7463669e-06
5.0484417e-05
5.2158284e-05
1.0031063e-05
1.1187437e-08
1.2137458e-07
9.1152721e-08
3.2857333e-07
1.0682848e-06
2.1665768e-06
2.8437053e-06
2.3007812e-07
1.0670354e-09
8.1766502e-11
1.6747858e-11
4.17429e-11
1.0184939e-08
1.0923747e-08
2.1154671e-08
5.2199655e-10
3.2688665e-12
2.1565684e-11
2.4479514e-10
2.4698279e-09
3.9353319e-07
2.0944597e-06
4.7465767e-06
9.2852381e-07
8.6121513e-07
6.6976684e-07
6.2312737e-07
1.2120246e-07
5.2370435e-08
4.8828667e-08
4.7867051e-08
4.4049233e-08
1.0187385e-05
6.522242e-06
5.0832294e-08
3.4325429e-10
1.2911687e-11
2.5768679e-13
1.2327884e-14
2.5877991e-16
1.7185879e-18
1.1918977e-20
7.1835279e-23
3.3715052e-25
1.1751681e-27
2.1903002e-30
2.9215624e-32
8.1278333e-33
3.271093e-33
1.24571e-33
3.6716877e-34
9.8157609e-35
1.8035942e-35
1.1910958e-36
2.5860728e-38
2.7283379e-40
2.0236194e-42
1.0275942e-44
6.5992459e-47
3.146522e-48
4.036582e-49
1.9298439e-50
6.9499136e-52
2.0640033e-53
3.2582001e-48
4.5338445e-46
3.3437074e-44
1.5323739e-43
1.7559213e-43
1.355454e-43
9.683487e-44
9.1235607e-43
1.1641897e-40
2.1294994e-38