/*--------------------------------*- C++ -*----------------------------------*\
  =========                 |
  \\      /  F ield         | OpenFOAM: The Open Source CFD Toolbox
   \\    /   O peration     | Website:  https://openfoam.org
    \\  /    A nd           | Version:  9
     \\/     M anipulation  |
\*---------------------------------------------------------------------------*/
FoamFile
{
    format      ascii;
    class       volScalarField;
    location    "0.5";
    object      p;
}
// * * * * * * * * * * * * * * * * * * * * * * * * * * * * * * * * * * * * * //

dimensions      [1 -1 -2 0 0 0 0];

internalField   nonuniform List<scalar> 
10000
(
0
-0.022174223
-0.061792588
-0.11953619
-0.19464505
-0.28662627
-0.39521934
-0.5202724
-0.66162683
-0.81912316
-0.99260568
-1.1819033
-1.3868006
-1.6070323
-1.8422649
-2.0921104
-2.3560967
-2.6336534
-2.9241083
-3.2266778
-3.5404768
-3.8645248
-4.197722
-4.5388226
-4.886467
-5.2392011
-5.5954728
-5.9536473
-6.3120047
-6.6687687
-7.0221337
-7.3702722
-7.7113667
-8.0436225
-8.3652738
-8.6744771
-8.968872
-9.2450836
-9.5168139
-9.7707451
-10.007385
-10.227035
-10.43007
-10.617032
-10.78862
-10.945701
-11.089252
-11.220329
-11.340025
-11.449355
-11.549267
-11.640604
-11.724079
-11.800333
-11.869817
-11.932924
-11.989779
-12.040202
-12.083193
-12.124354
-12.156909
-12.180488
-12.194664
-12.198367
-12.190161
-12.168619
-12.132394
-12.080248
-12.011173
-11.923961
-11.817518
-11.696829
-11.559565
-11.407692
-11.242442
-11.065191
-10.877506
-10.681244
-10.478351
-10.27079
-10.060506
-9.8494437
-9.6394221
-9.4321863
-9.2294898
-9.0331181
-8.8446653
-8.6654567
-8.4965194
-8.3386204
-8.1920535
-8.0581967
-7.9373306
-7.8296048
-7.735253
-7.6545327
-7.5875681
-7.5352817
-7.4966503
-7.4714565
0.039900489
0.011548564
-0.030182611
-0.088721553
-0.16418305
-0.25632585
-0.36501271
-0.49013757
-0.63157164
-0.7892024
-0.96288922
-1.152464
-1.3577294
-1.5784523
-1.8143102
-2.0649177
-2.329816
-2.6084543
-2.9001457
-3.2041328
-3.5195554
-3.8454258
-4.1806114
-4.523887
-4.8739002
-5.2291749
-5.5881472
-5.9491409
-6.3104337
-6.6702412
-7.0267249
-7.3780226
-7.7222889
-8.057723
-8.3825813
-8.695294
-8.9948201
-9.2803228
-9.5493637
-9.8038983
-10.04215
-10.263609
-10.468311
-10.656624
-10.829156
-10.986699
-11.130195
-11.260658
-11.379202
-11.486848
-11.584583
-11.673365
-11.75403
-11.827364
-11.893969
-11.95448
-12.009385
-12.059099
-12.10449
-12.141265
-12.172848
-12.19718
-12.212799
-12.218274
-12.211936
-12.192139
-12.157366
-12.106221
-12.037599
-11.950735
-11.845525
-11.723901
-11.585351
-11.431176
-11.26323
-11.083157
-10.892653
-10.693528
-10.487793
-10.27749
-10.064564
-9.8509729
-9.638619
-9.4292594
-9.2245978
-9.0262969
-8.835826
-8.6544847
-8.4833664
-8.3234788
-8.1736593
-8.0379437
-7.9148964
-7.8050214
-7.7086999
-7.6261636
-7.5575233
-7.5035261
-7.4638623
-7.4394013
0.089019243
0.058508155
0.01526398
-0.044185648
-0.12019186
-0.21270172
-0.32167572
-0.44707295
-0.58881556
-0.74680227
-0.9209283
-1.1110617
-1.3170266
-1.538583
-1.7754585
-2.0272961
-2.2936566
-2.5739853
-2.8676576
-3.1739201
-3.4919026
-3.8206272
-4.1590018
-4.5057627
-4.859529
-5.2188217
-5.5820418
-5.9474932
-6.3133883
-6.6778837
-7.0390867
-7.3950799
-7.7439656
-8.0838935
-8.4131168
-8.7300569
-9.0334214
-9.3221887
-9.5943189
-9.8506587
-10.090254
-10.31268
-10.517949
-10.706388
-10.878548
-11.03522
-11.17738
-11.306078
-11.422446
-11.527593
-11.622555
-11.708394
-11.786059
-11.85649
-11.920461
-11.978671
-12.031971
-12.080891
-12.125597
-12.164226
-12.197474
-12.224293
-12.243093
-12.252106
-12.249317
-12.232755
-12.200626
-12.151351
-12.083797
-11.997304
-11.891847
-11.767488
-11.625911
-11.468236
-11.29605
-11.111216
-10.915695
-10.711492
-10.5007
-10.285457
-10.067806
-9.8497244
-9.633146
-9.4198672
-9.2115468
-9.0097664
-8.8159465
-8.6313501
-8.4570252
-8.2937319
-8.1420441
-8.003293
-7.8775818
-7.7652762
-7.6666417
-7.5818645
-7.5107974
-7.4535283
-7.4095893
-7.3809993
0.15240885
0.12104922
0.076914077
0.016780141
-0.059725732
-0.15261182
-0.26190845
-0.3876311
-0.52972897
-0.68815282
-0.86283462
-1.0536733
-1.2605212
-1.4831861
-1.7214224
-1.9749111
-2.2432427
-2.525902
-2.8222809
-3.1316616
-3.4531962
-3.7859103
-4.1286997
-4.4803142
-4.8393579
-5.2042994
-5.5734878
-5.9451732
-6.3175097
-6.6885783
-7.0564015
-7.4189748
-7.7743022
-8.1204286
-8.4555174
-8.777864
-9.0859072
-9.3782522
-9.6550975
-9.9144891
-10.156093
-10.379709
-10.585407
-10.773523
-10.944635
-11.099583
-11.239419
-11.365258
-11.478289
-11.579737
-11.670767
-11.752551
-11.826204
-11.892816
-11.953349
-12.008271
-12.059417
-12.10691
-12.150865
-12.191637
-12.228022
-12.258999
-12.282832
-12.297327
-12.300021
-12.288491
-12.260513
-12.214209
-12.148242
-12.061915
-11.955182
-11.828223
-11.682657
-11.519969
-11.341942
-11.150627
-10.948218
-10.736952
-10.519089
-10.296894
-10.072554
-9.848119
-9.6255531
-9.4066754
-9.1931567
-8.9865131
-8.7881131
-8.5992392
-8.420869
-8.2539235
-8.0991915
-7.9573487
-7.8288589
-7.7141271
-7.6134894
-7.5272091
-7.4554007
-7.3985865
-7.3570961
-7.3254306
0.23082313
0.19907904
0.15445081
0.093854006
0.016955655
-0.076265572
-0.18587682
-0.31192621
-0.45441557
-0.61333943
-0.78867416
-0.98035735
-1.1882832
-1.4123095
-1.6522386
-1.9077927
-2.178607
-2.4642179
-2.7640494
-3.0774083
-3.4034796
-3.7413026
-4.0897843
-4.447671
-4.8135319
-5.1857914
-5.5627443
-5.9425682
-6.3233329
-6.703007
-7.07949
-7.4506634
-7.8143975
-8.1685975
-8.5113098
-8.8407181
-9.1551861
-9.4534177
-9.7342822
-9.996994
-10.240973
-10.466002
-10.672117
-10.859664
-11.02928
-11.181851
-11.318497
-11.440447
-11.549003
-11.645521
-11.731301
-11.807639
-11.875871
-11.93744
-11.993773
-12.04317
-12.091813
-12.138012
-12.182437
-12.22513
-12.265519
-12.302218
-12.333139
-12.355453
-12.365982
-12.361604
-12.339494
-12.297329
-12.233512
-12.147254
-12.038511
-11.907811
-11.756746
-11.587205
-11.401302
-11.201362
-10.989849
-10.769272
-10.542112
-10.310804
-10.077672
-9.8449017
-9.6145145
-9.3883417
-9.1680575
-8.9551205
-8.7507914
-8.5564929
-8.3731612
-8.2019037
-8.0432215
-7.8977187
-7.7659519
-7.6483154
-7.5451628
-7.4568099
-7.3835768
-7.3253965
-7.2811785
-7.250368
0.32458953
0.29267958
0.24777879
0.18689971
0.10973201
0.01625421
-0.093614818
-0.21996412
-0.36284167
-0.52229235
-0.69833648
-0.89095894
-1.1001126
-1.3257126
-1.5676171
-1.8256077
-2.0993777
-2.3885162
-2.6924968
-3.0106684
-3.3422476
-3.6863112
-4.0417712
-4.4073606
-4.7816257
-5.1629399
-5.5495305
-5.9394858
-6.33076
-6.7211827
-7.1084928
-7.4904127
-7.8646512
-8.2289119
-8.5810688
-8.9191404
-9.2413292
-9.5461326
-9.8323563
-10.099133
-10.345919
-10.572487
-10.778884
-10.965471
-11.132943
-11.282283
-11.414728
-11.531646
-11.634503
-11.724786
-11.803924
-11.873373
-11.934719
-11.989499
-12.038895
-12.084281
-12.128307
-12.172005
-12.216548
-12.26201
-12.307984
-12.3527
-12.393473
-12.426653
-12.448081
-12.453585
-12.439478
-12.402866
-12.34185
-12.255612
-12.144382
-12.008161
-11.849763
-11.67126
-11.475118
-11.264058
-11.04092
-10.808523
-10.56963
-10.326896
-10.082799
-9.8396418
-9.5995368
-9.364356
-9.1357969
-8.9152522
-8.7034531
-8.5025668
-8.3137958
-8.1373696
-7.9740325
-7.8243525
-7.6888635
-7.5679244
-7.4618746
-7.3708874
-7.2951793
-7.2353947
-7.1904176
-7.1592877
0.43390323
0.40193473
0.35691007
0.29589495
0.21858406
0.1249625
0.014926616
-0.11165261
-0.2548717
-0.4148226
-0.59158048
-0.78518743
-0.99566366
-1.2229908
-1.4670963
-1.727839
-2.0049794
-2.2981663
-2.6069456
-2.9307278
-3.2687743
-3.6202021
-3.9839388
-4.358698
-4.743011
-5.1352069
-5.5334188
-5.9356204
-6.3396193
-6.7430854
-7.1435854
-7.5386221
-7.9256636
-8.3022013
-8.6658485
-9.0143999
-9.345882
-9.6586145
-9.9512417
-10.222892
-10.473005
-10.701298
-10.907832
-11.093022
-11.257624
-11.402772
-11.52988
-11.640471
-11.736225
-11.818804
-11.889803
-11.950848
-12.003699
-12.049749
-12.09111
-12.129738
-12.168157
-12.208566
-12.252521
-12.301058
-12.354023
-12.409422
-12.463641
-12.511722
-12.547998
-12.566851
-12.563418
-12.534026
-12.476429
-12.389777
-12.27465
-12.131418
-11.963581
-11.773608
-11.564484
-11.339469
-11.101869
-10.854881
-10.601595
-10.344922
-10.087531
-9.8318402
-9.5800537
-9.334119
-9.0958133
-8.8668419
-8.6447527
-8.4375334
-8.2422485
-8.0599102
-7.8913108
-7.7369475
-7.5973168
-7.4727612
-7.3635869
-7.2699173
-7.1922531
-7.1305039
-7.0843661
-7.0525794
0.55884871
0.52690605
0.48187981
0.4208607
0.34354882
0.24991675
0.13983364
0.013131409
-0.13033345
-0.29070298
-0.46811647
-0.66269236
-0.87451964
-1.1036582
-1.3501184
-1.6138465
-1.8946906
-2.1923862
-2.506558
-2.8366991
-3.1821397
-3.5420411
-3.9153554
-4.3008011
-4.6968751
-5.1018586
-5.5137928
-5.9305069
-6.3496394
-6.7686756
-7.1849753
-7.595769
-7.9982229
-8.3895283
-8.7669901
-9.1281241
-9.4707154
-9.7928863
-10.093125
-10.370564
-10.624579
-10.854863
-11.061476
-11.244893
-11.405953
-11.545958
-11.666519
-11.769402
-11.856524
-11.929835
-11.991119
-12.042173
-12.084159
-12.119803
-12.150849
-12.180026
-12.210529
-12.245578
-12.288045
-12.339934
-12.401606
-12.47101
-12.543449
-12.611894
-12.668326
-12.705016
-12.715513
-12.69523
-12.641576
-12.553677
-12.431768
-12.280447
-12.10056
-11.896006
-11.670634
-11.428347
-11.173026
-10.908348
-10.637743
-10.364406
-10.091234
-9.8207671
-9.5552604
-9.2967231
-9.0468817
-8.8063607
-8.5771232
-8.3608917
-8.1579813
-7.9689492
-7.7944546
-7.6349472
-7.4908097
-7.3623667
-7.2498998
-7.1537694
-7.0735973
-7.0098821
-6.9624301
-6.929934
0.69944442
0.66761166
0.62269681
0.56181004
0.48464855
0.39115941
0.2811822
0.15451088
0.010952073
-0.14969898
-0.32764953
-0.5230996
-0.73622091
-0.96716582
-1.2160446
-1.4829
-1.7676892
-2.0702651
-2.390353
-2.7275389
-3.0812481
-3.4507122
-3.8349184
-4.2326017
-4.6422302
-5.0620149
-5.4899018
-5.9235792
-6.3604885
-6.7979003
-7.2329129
-7.6624503
-8.0833151
-8.4922704
-8.8862263
-9.2623953
-9.6182336
-9.9515973
-10.260893
-10.545091
-10.803692
-11.036359
-11.24313
-11.42446
-11.581262
-11.714994
-11.827573
-11.921193
-11.998123
-12.060494
-12.11034
-12.149377
-12.179085
-12.201639
-12.219573
-12.236043
-12.255242
-12.281939
-12.320886
-12.375796
-12.448071
-12.535785
-12.632956
-12.72929
-12.812995
-12.873336
-12.901771
-12.892701
-12.843414
-12.753524
-12.624178
-12.459744
-12.263738
-12.040591
-11.794957
-11.531466
-11.25464
-10.968736
-10.67758
-10.384643
-10.093052
-9.8054785
-9.5241798
-9.2511578
-8.987971
-8.7362056
-8.4969161
-8.271282
-8.0600268
-7.8637165
-7.6828084
-7.5177188
-7.3687699
-7.2361745
-7.1200744
-7.0210372
-6.9385902
-6.8729834
-6.824155
-6.7909411
0.85566177
0.82403251
0.77934577
0.71873846
0.64189087
0.54872386
0.43904929
0.31261707
0.16917469
0.0084460183
-0.16984784
-0.36598749
-0.5802486
-0.81288803
-1.0641353
-1.3341565
-1.6230304
-1.9307468
-2.2571733
-2.6020161
-2.9648124
-3.3448827
-3.7412809
-4.1527755
-4.577816
-5.0145436
-5.4608001
-5.9141014
-6.3716995
-6.8306061
-7.2876189
-7.7393166
-8.1820933
-8.6121103
-9.0257267
-9.4198218
-9.7914656
-10.138074
-10.457959
-10.750117
-11.014262
-11.249994
-11.457219
-11.636244
-11.787997
-11.914161
-12.017134
-12.099724
-12.164754
-12.214607
-12.251431
-12.276602
-12.292031
-12.299101
-12.300473
-12.299965
-12.30314
-12.316847
-12.348626
-12.40512
-12.490003
-12.60183
-12.732573
-12.867603
-12.988325
-13.079798
-13.1308
-13.134806
-13.089587
-12.995752
-12.85476
-12.673219
-12.456374
-12.209705
-11.938908
-11.649545
-11.346861
-11.035708
-10.720408
-10.404728
-10.091932
-9.7847775
-9.485539
-9.1962304
-8.918652
-8.6540642
-8.4034479
-8.1677447
-7.9475026
-7.7433686
-7.5556189
-7.3846177
-7.2305851
-7.0936979
-6.9742912
-6.8718385
-6.7868611
-6.7193146
-6.6690719
-6.6351688
1.0274147
0.99610751
0.95177342
0.89160143
0.81526056
0.72263597
0.61350779
0.48757624
0.34452376
0.18400352
0.0056573985
-0.19088867
-0.40602231
-0.64012949
-0.89357179
-1.1666607
-1.4596305
-1.772626
-2.1056862
-2.4586866
-2.8313011
-3.2229649
-3.6328298
-4.0597244
-4.5020954
-4.9580374
-5.4252876
-5.9011507
-6.3826394
-6.8665056
-7.3492503
-7.8270741
-8.2959786
-8.7511581
-9.1882478
-9.6037398
-9.9942464
-10.356588
-10.688866
-10.990324
-11.261526
-11.501421
-11.70974
-11.886463
-12.032371
-12.149466
-12.240906
-12.310399
-12.361602
-12.397361
-12.419723
-12.430056
-12.429377
-12.418565
-12.399662
-12.376784
-12.35715
-12.350645
-12.369087
-12.423962
-12.52312
-12.667111
-12.843979
-13.033344
-13.204234
-13.336374
-13.414947
-13.432989
-13.390136
-13.289561
-13.130498
-12.926012
-12.682256
-12.405922
-12.10399
-11.783175
-11.449602
-11.108705
-10.765257
-10.423371
-10.086472
-9.7572921
-9.43769
-9.1305494
-8.8372937
-8.5587221
-8.2957218
-8.0491462
-7.8193703
-7.6069633
-7.4120279
-7.2348437
-7.0754989
-6.9340254
-6.810821
-6.7053836
-6.6179164
-6.5483964
-6.4967102
-6.4620706
1.2145636
1.1837278
1.1398785
1.0803177
1.0047142
0.91289717
0.80460764
0.6794953
0.5371842
0.37725336
0.19925045
0.0026957127
-0.21292582
-0.44813885
-0.70346218
-0.97936921
-1.2762752
-1.59453
-1.9343745
-2.2958824
-2.6789114
-3.0830617
-3.5076183
-3.9515087
-4.413224
-4.8908118
-5.3818676
-5.8834994
-6.3924314
-6.9051369
-7.4178629
-7.9263746
-8.4266782
-8.912096
-9.3773912
-9.8187516
-10.231885
-10.612646
-10.959383
-11.272816
-11.552454
-11.798301
-12.009101
-12.184028
-12.323372
-12.429468
-12.506769
-12.560617
-12.595896
-12.616132
-12.623261
-12.618263
-12.600828
-12.570397
-12.527577
-12.475859
-12.42404
-12.386306
-12.381225
-12.428052
-12.542551
-12.730078
-12.973011
-13.238761
-13.476907
-13.66125
-13.772021
-13.802801
-13.757476
-13.647006
-13.459174
-13.223937
-12.945504
-12.631889
-12.291647
-11.932783
-11.562431
-11.186705
-10.810751
-10.438908
-10.074843
-9.7215109
-9.3784653
-9.0525966
-8.7422148
-8.4485739
-8.1723892
-7.9142892
-7.6745372
-7.4534485
-7.2510966
-7.0676024
-6.9029275
-6.7571483
-6.6298163
-6.5212053
-6.4312181
-6.3597422
-6.3066182
-6.2711937
1.4169193
1.3867348
1.3435168
1.2847782
1.2101729
1.1194664
1.0123586
0.88845731
0.7473278
0.58846484
0.41130944
0.21526465
-0.00032206236
-0.23612899
-0.49284544
-0.77113999
-1.071644
-1.3949416
-1.7415147
-2.1116818
-2.5055396
-2.9229219
-3.3633182
-3.8257993
-4.3089393
-4.8107577
-5.3286887
-5.8596056
-6.3999332
-6.9457951
-7.4933235
-8.037729
-8.5760124
-9.0977786
-9.5964482
-10.070179
-10.51153
-10.913396
-11.275994
-11.603255
-11.89552
-12.151008
-12.367263
-12.541934
-12.674108
-12.766508
-12.825899
-12.86056
-12.877535
-12.881328
-12.873194
-12.853959
-12.820979
-12.771208
-12.701988
-12.614201
-12.517175
-12.431307
-12.386485
-12.41477
-12.544129
-12.790239
-13.132076
-13.505077
-13.833768
-14.083395
-14.228068
-14.26537
-14.204347
-14.052007
-13.84622
-13.573869
-13.251103
-12.890512
-12.503086
-12.098373
-11.684481
-11.268159
-10.8549
-10.449119
-10.054514
-9.6731701
-9.3078786
-8.9605461
-8.6316833
-8.3219651
-8.0318966
-7.7617636
-7.5117568
-7.2818193
-7.0719267
-6.8819866
-6.7118803
-6.5615022
-6.4304698
-6.318776
-6.2262903
-6.1528648
-6.0983697
-6.0620365
1.6342616
1.6049304
1.5625144
1.5048239
1.4315034
1.3422493
1.2367272
1.1145055
0.9750814
0.8178676
0.6421816
0.44729694
0.23242501
-0.0032857415
-0.2607145
-0.54075402
-0.84429156
-1.1721757
-1.5251651
-1.9038841
-2.3087545
-2.7399234
-3.1971643
-3.6797686
-4.1864586
-4.7152541
-5.2634448
-5.8276
-6.403736
-6.9874949
-7.5752988
-8.1616475
-8.7459077
-9.3116389
-9.8516599
-10.365158
-10.842857
-11.267775
-11.646824
-11.992046
-12.303076
-12.574738
-12.802221
-12.980048
-13.104447
-13.178775
-13.214316
-13.224557
-13.219992
-13.206389
-13.185227
-13.1551
-13.1115
-13.046975
-12.952301
-12.821611
-12.661674
-12.501551
-12.391383
-12.384038
-12.523656
-12.850943
-13.356654
-13.864823
-14.314702
-14.647753
-14.82223
-14.852617
-14.764709
-14.577988
-14.316614
-13.987531
-13.605305
-13.184809
-12.739111
-12.27923
-11.814126
-11.350973
-10.895285
-10.451134
-10.022504
-9.6121695
-9.2215573
-8.8517666
-8.5034606
-8.1769772
-7.8725569
-7.5901448
-7.3296974
-7.0908592
-6.8734722
-6.6772025
-6.5017926
-6.3469281
-6.2122351
-6.0975703
-6.0026919
-5.9273707
-5.8715166
-5.8341388
1.8663579
1.8380538
1.7966445
1.7402332
1.6685039
1.5810886
1.4776206
1.3576245
1.2205157
1.0656214
0.89215216
0.69923484
0.48593344
0.25121943
-0.0060180987
-0.28692191
-0.59264837
-0.92435868
-1.2831448
-1.6700041
-2.0857758
-2.5310207
-3.005889
-3.5100032
-4.0423461
-4.6010504
-5.1832781
-5.7852014
-6.4022014
-7.0290473
-7.6632487
-8.2977609
-8.9405564
-9.560538
-10.166749
-10.725962
-11.243902
-11.684968
-12.077946
-12.449801
-12.792738
-13.092963
-13.342242
-13.530198
-13.645991
-13.693663
-13.694205
-13.671698
-13.641865
-13.611062
-13.580103
-13.546093
-13.502554
-13.435895
-13.324966
-13.148755
-12.902888
-12.627186
-12.409684
-12.343374
-12.507044
-12.965502
-13.747974
-14.40935
-14.980026
-15.413252
-15.604666
-15.603162
-15.460094
-15.212948
-14.880564
-14.474203
-14.013551
-13.517095
-12.999763
-12.473777
-11.948753
-11.432022
-10.928834
-10.441212
-9.976072
-9.5345593
-9.1168504
-8.7236105
-8.3552057
-8.0115914
-7.6926141
-7.3979005
-7.127053
-6.8794737
-6.6547196
-6.4523084
-6.2719046
-6.1127724
-5.9746175
-5.857127
-5.7599596
-5.6828561
-5.6256864
-5.5871145
2.1129599
2.0857796
2.0455942
1.9907084
1.9208979
1.8357564
1.7348647
1.6177073
1.4836199
1.33183
1.1614462
0.9714666
0.7607909
0.52818675
0.27230094
-0.0082925636
-0.31505139
-0.64946913
-1.013061
-1.4072837
-1.8334628
-2.292675
-2.7855995
-3.3123701
-3.8723973
-4.4640978
-5.0846375
-5.7297396
-6.3936873
-7.0692905
-7.7546088
-8.4409906
-9.1632912
-9.8456456
-10.529338
-11.16659
-11.746674
-12.179164
-12.575305
-12.987958
-13.388555
-13.744724
-14.036833
-14.246383
-14.350039
-14.354464
-14.300559
-14.230149
-14.166899
-14.118883
-14.083824
-14.05899
-14.037356
-13.995573
-13.893466
-13.681205
-13.321903
-12.862142
-12.471847
-12.353179
-12.532084
-12.824975
-13.824105
-15.045917
-15.956616
-16.488033
-16.61571
-16.559638
-16.324201
-15.991852
-15.558899
-15.045613
-14.481388
-13.888772
-13.283676
-12.678922
-12.08426
-11.506894
-10.952602
-10.413114
-9.9114431
-9.4368298
-8.9906723
-8.5732688
-8.1844046
-7.8235671
-7.4901244
-7.1833501
-6.9023929
-6.6464527
-6.4147434
-6.2063912
-6.0213881
-5.8584097
-5.717109
-5.5970521
-5.4977608
-5.4190076
-5.3605945
-5.320645
2.3737666
2.3477049
2.3089524
2.2558673
2.1883336
2.1059365
2.0081935
1.8945468
1.7642678
1.6164922
1.4502194
1.2643209
1.0575205
0.8283627
0.57526157
0.2964912
-0.0097685658
-0.34539686
-0.71237243
-1.1126907
-1.5482589
-2.0207963
-2.5316978
-3.0818421
-3.6713566
-4.299239
-4.9629594
-5.6580235
-6.3772336
-7.109041
-7.8447404
-8.585651
-9.389372
-10.109543
-10.13185
-10.978103
-12.326075
-12.746468
-13.145629
-13.631993
-14.135915
-14.595098
-14.972231
-15.226243
-15.304777
-15.223604
-15.07241
-14.930475
-14.82836
-14.765439
-14.734478
-14.733443
-14.76596
-14.803875
-14.76991
-14.556778
-14.052761
-13.284792
-12.566784
-12.268775
-12.411072
-13.487207
-14.6455
-15.607798
-16.283428
-17.228684
-17.769661
-17.748806
-17.424111
-16.969923
-16.384154
-15.716075
-15.013906
-14.299696
-13.587408
-12.889444
-12.214484
-11.568087
-10.952774
-10.370378
-9.825091
-9.3150303
-8.8394475
-8.3975643
-7.9883321
-7.6105679
-7.2631342
-6.9448301
-6.6543727
-6.3906609
-6.1527037
-5.9396712
-5.7499513
-5.583437
-5.4393207
-5.3170135
-5.2158838
-5.1356658
-5.0761161
-5.0345519
2.648357
2.623334
2.586219
2.5352291
2.4703528
2.391202
2.2972259
2.1878245
2.0622277
1.9194912
1.7585092
1.5780099
1.3765343
1.1524278
0.90383701
0.62874096
0.32491088
-0.0099737826
-0.37839375
-0.78293496
-1.2262012
-1.7107121
-2.2387914
-2.8123439
-3.4326158
-4.0997458
-4.8121499
-5.5662425
-6.3558132
-7.1631071
-7.9617022
-8.787292
-9.5454385
-8.8569001
-8.0987946
-8.6789624
-11.530177
-13.229994
-13.716128
-14.381796
-15.114709
-15.783885
-16.318644
-16.639326
-16.653639
-16.399856
-16.078642
-15.824303
-15.664952
-15.587451
-15.572787
-15.622638
-15.763702
-15.974775
-16.116616
-15.988322
-15.312053
-13.964713
-12.429375
-11.351548
-12.360056
-14.585047
-17.092044
-18.445948
-19.634817
-20.259344
-19.535807
-19.256916
-18.861127
-18.255302
-17.407514
-16.504937
-15.614474
-14.746182
-13.904073
-13.097297
-12.331499
-11.608944
-10.931349
-10.298418
-9.709913
-9.1640914
-8.6591238
-8.1931062
-7.7641471
-7.3702437
-7.009668
-6.6806803
-6.3816011
-6.1109727
-5.867407
-5.6497264
-5.4566315
-5.2873233
-5.1409472
-5.0167982
-4.9141691
-4.8327641
-4.7722714
-4.7288704
2.9361836
2.9120741
2.876782
2.8281855
2.7663696
2.6909855
2.6014394
2.4970917
2.3771344
2.240565
2.0861903
1.912587
1.7181204
1.5009258
1.2589064
0.98968469
0.69064575
0.3589754
-0.0083417642
-0.41452803
-0.86298784
-1.3572041
-1.9006385
-2.4965575
-3.147773
-3.8563247
-4.622732
-5.446937
-6.3319369
-7.2494744
-8.1656869
-9.1767281
-9.5351045
-8.054488
-8.7753855
-9.5682053
-10.846042
-13.690007
-14.312138
-15.290791
-16.463665
-17.552332
-18.521417
-18.942685
-18.711531
-18.055481
-17.407169
-16.947635
-16.693545
-16.613131
-16.629547
-16.753343
-17.091523
-17.66394
-18.222572
-18.386779
-17.558347
-15.277849
-12.306428
-10.551228
-13.03295
-15.858476
-19.789556
-21.844751
-22.924884
-23.321563
-23.340863
-21.275881
-20.468275
-19.901796
-18.677748
-17.425122
-16.278927
-15.217452
-14.221155
-13.290152
-12.423866
-11.620435
-10.877388
-10.191476
-9.5597131
-8.9787394
-8.4453381
-7.9563514
-7.5088798
-7.1001552
-6.727766
-6.389372
-6.0828552
-5.8064099
-5.5583179
-5.3370336
-5.1412364
-4.9698192
-4.8218259
-4.6963593
-4.5926038
-4.5103149
-4.4490698
-4.4038889
3.2365367
3.2132036
3.1799074
3.1339941
3.0756457
3.0045655
2.9201392
2.8217159
2.7084543
2.5792864
2.4329418
2.2679067
2.0823731
1.8742405
1.6411508
1.3804021
1.0889767
0.76356253
0.40057839
-0.003888887
-0.45410648
-0.9546267
-1.5102272
-2.1258647
-2.806424
-3.5566205
-4.3804853
-5.2860422
-6.2893594
-7.3392625
-8.4163057
-9.6447456
-9.8159039
-8.2949088
-9.5323014
-11.100316
-13.466923
-14.350161
-15.040311
-16.697603
-18.804515
-20.593948
-22.06065
-22.687725
-21.743569
-20.217291
-19.038996
-18.338551
-18.011965
-17.934123
-18.010529
-18.210871
-18.744704
-19.929058
-21.424972
-22.407284
-21.920127
-18.51498
-13.32504
-11.474736
-14.699752
-20.545762
-25.572825
-28.469424
-28.971539
-28.23003
-26.894405
-25.384635
-22.410183
-21.877361
-20.17689
-18.469215
-16.986837
-15.689822
-14.517325
-13.449823
-12.477015
-11.589787
-10.78027
-10.04162
-9.3678468
-8.7534885
-8.1935758
-7.6836202
-7.2196344
-6.7980333
-6.4156114
-6.0694746
-5.7570914
-5.4761897
-5.2247815
-5.0010808
-4.8035477
-4.630864
-4.4819642
-4.355788
-4.2513809
-4.1685695
-4.1068024
-4.0599262
3.5484999
3.5258701
3.4947299
3.4517727
3.3972793
3.3310501
3.2524582
3.1608553
3.0554054
2.9349977
2.7982643
2.64361
2.4691128
2.2724579
2.0509903
1.8017296
1.5212459
1.2057195
0.85101756
0.45249708
0.0050102311
-0.49710973
-1.0600546
-1.6905952
-2.3963444
-3.1853947
-4.0660689
-5.0573587
-6.194579
-7.3857464
-8.6461002
-10.089058
-11.525937
-10.816354
-12.24208
-14.231776
-14.962749
-14.707568
-15.698051
-18.800337
-22.884969
-27.914589
-30.928128
-30.456502
-27.002758
-23.516857
-21.245263
-20.025867
-19.534996
-19.498533
-19.63531
-19.964181
-20.892046
-23.430658
-27.239901
-29.559044
-29.712444
-24.849111
-16.499492
-18.196803
-22.586444
-30.612313
-38.336108
-41.744013
-40.542245
-36.504104
-32.058532
-28.732749
-25.828278
-23.702764
-21.694109
-19.497693
-17.66517
-16.118569
-14.760004
-13.552105
-12.472086
-11.502123
-10.628389
-9.8398163
-9.1271975
-8.4826425
-7.8993812
-7.3714588
-6.8937112
-6.4617606
-6.0716204
-5.7198395
-5.4034489
-5.1197427
-4.8664793
-4.6416535
-4.4435193
-4.2705765
-4.1215842
-3.995354
-3.8908356
-3.8079254
-3.7459547
-3.6974806
3.8710439
3.8490694
3.8202264
3.7804773
3.7302013
3.6693482
3.5973161
3.5134642
3.416971
3.3067305
3.1813397
3.0390859
2.8779082
2.6953592
2.4885571
2.2541788
1.9884762
1.6870979
1.345316
0.95785257
0.51870852
0.021120412
-0.54245711
-1.1807044
-1.9039686
-2.7252836
-3.6608584
-4.7432578
-6.0044491
-7.3519254
-8.7788299
-10.370959
-12.066717
-13.625019
-15.223053
-16.400872
-16.819128
-16.465912
-18.043612
-22.237969
-28.765606
-39.409711
-46.771195
-43.491237
-34.561495
-27.887167
-23.790047
-21.744367
-21.093412
-21.205221
-21.380842
-21.823045
-23.489009
-28.218922
-32.472238
-39.208307
-42.05112
-37.490455
-24.034974
-27.856038
-35.172128
-45.355
-56.201504
-60.223517
-56.94468
-48.379054
-38.758534
-32.642148
-29.070049
-25.803498
-22.993007
-20.373681
-18.2266
-16.445895
-14.909046
-13.568101
-12.387499
-11.341208
-10.40935
-9.5765883
-8.8304795
-8.1606528
-7.5584524
-7.0165734
-6.5287238
-6.0896029
-5.694543
-5.3396141
-5.0213766
-4.7367787
-4.4833449
-4.2588559
-4.0613628
-3.8892408
-3.7410911
-3.6155612
-3.5115142
-3.4289745
-3.3671804
-3.317198
4.2030515
4.1816428
4.1552175
4.1188808
4.073157
4.0181754
3.9533961
3.878227
3.7918871
3.6932781
3.5810109
3.4533158
3.3079952
3.142456
2.9536326
2.7379474
2.4912873
2.2088936
1.8853661
1.514903
1.0907967
0.60534049
0.049770033
-0.58623761
-1.3155747
-2.1555879
-3.1306553
-4.2853428
-5.6598371
-7.1969284
-8.8194748
-10.621298
-12.425233
-14.31255
-17.026927
-19.584827
-22.03064
-23.9609
-26.302252
-30.892135
-39.541268
-42.438289
-16.203452
-32.173672
-40.511388
-32.219877
-26.353003
-23.663894
-22.753467
-22.813641
-23.432736
-24.340524
-26.747485
-32.913349
-40.25443
-45.27392
-26.985547
-24.575903
-36.492434
-31.524034
-43.244163
-55.366611
-69.36524
-73.869561
-70.597704
-58.590671
-44.633538
-36.220152
-31.678414
-27.675988
-23.93696
-21.008597
-18.599749
-16.611508
-14.922687
-13.46735
-12.200834
-11.090268
-10.11062
-9.2426254
-8.4707356
-7.7823069
-7.1670291
-6.6162721
-6.1227496
-5.6802773
-5.2836202
-4.9283648
-4.6107218
-4.327344
-4.0755792
-3.8530243
-3.6575524
-3.487409
-3.3410959
-3.217113
-3.114215
-3.0325693
-2.9713
-2.9199181
4.543293
4.522312
4.4983434
4.4655795
4.4246772
4.3760222
4.3191509
4.2535478
4.178539
4.0930858
3.9958114
3.8849231
3.7581835
3.612819
3.4455883
3.2527193
3.0298066
2.7716864
2.4724116
2.1256433
1.7241572
1.2596664
0.72251784
0.10116492
-0.61919899
-1.4594371
-2.4525023
-3.6399848
-5.0960299
-6.7956797
-8.6494559
-10.64552
-12.635276
-14.812395
-19.760424
-25.91034
-30.939898
-34.055329
-35.038027
-40.023639
-45.250458
-37.933129
-56.094963
-54.104234
-48.692717
-37.856133
-29.402829
-25.207709
-23.628986
-24.113143
-24.876486
-26.36196
-29.244101
-34.483736
-43.997727
-65.003375
34.293269
-29.448164
-33.828577
-31.089219
-44.444612
-56.984051
-68.516576
-72.621589
-70.275137
-60.079358
-47.043437
-38.489667
-33.072247
-28.557389
-24.577501
-21.336908
-18.715147
-16.568181
-14.762755
-13.220843
-11.890544
-10.733498
-9.7205935
-8.8293086
-8.0417074
-7.3432215
-6.7221102
-6.1686259
-5.6745874
-5.2331468
-4.8386222
-4.4861714
-4.17163
-3.8918616
-3.6437484
-3.4247995
-3.2328083
-3.0659061
-2.9224896
-2.8009325
-2.699897
-2.6197281
-2.5593589
-2.5067448
4.8904015
4.8696517
4.8481179
4.8190061
4.7831057
4.741123
4.6927201
4.6374922
4.5749192
4.504106
4.4237537
4.3320704
4.2267692
4.1049251
3.9631521
3.7974823
3.6033996
3.3753362
3.1068844
2.7910902
2.4205121
1.9865302
1.4791005
0.88642179
0.19326004
-0.62155908
-1.5899936
-2.7658518
-4.2257271
-6.0001859
-8.0188972
-10.211626
-12.512928
-15.018984
-22.853844
-31.153686
-35.53487
-36.555372
-32.072695
-33.313482
-6.1928914
-2.58464
-49.954516
-71.615748
-56.425755
-38.301863
-31.80427
-28.391957
-23.98251
-18.540607
-18.009156
-27.065335
-34.61025
-39.302336
-58.485236
-59.503165
-7.8374604
3.4922575
-40.877816
-33.852453
-37.625796
-48.919782
-57.410808
-62.791757
-61.158675
-54.195723
-45.597133
-38.700967
-33.29764
-28.656222
-24.589864
-21.22915
-18.503413
-16.268001
-14.394969
-12.803439
-11.438058
-10.257266
-9.2293564
-8.3296641
-7.5385514
-6.840207
-6.2217656
-5.6726257
-5.1839234
-4.7483985
-4.3600357
-4.0138996
-3.7052577
-3.431326
-3.1888601
-2.9752327
-2.7882078
-2.625852
-2.4864316
-2.3681916
-2.2697828
-2.1917142
-2.1327003
-2.0790698
5.2428871
5.2220997
5.2028985
5.1774212
5.146575
5.1114482
5.0719022
5.0277111
4.9785774
4.9238233
4.8622833
4.7922442
4.7113409
4.6165499
4.5042763
4.3703903
4.2107151
4.0189174
3.788284
3.5111915
3.1800612
2.7862475
2.3197679
1.7694383
1.1211055
0.35486728
-0.55960033
-1.6724945
-3.0714743
-4.8568118
-6.9833663
-9.3177216
-11.761547
-15.03393
-23.264444
-26.167737
-38.114553
-31.926938
-21.384177
-2.0742032
13.643185
56.692615
-9.6973152
-50.057394
-99.997346
39.392742
905.16587
2149.5117
3168.8942
3626.5979
3577.315
2994.7561
1711.472
348.45557
-154.86863
-138.96252
-50.786189
23.867236
4.7335508
-16.999732
-22.509313
-37.885455
-48.018503
-53.877995
-53.784711
-48.463719
-42.452801
-37.472688
-32.469413
-27.962002
-23.98679
-20.650741
-17.926574
-15.678967
-13.794652
-12.196519
-10.829469
-9.651393
-8.629679
-7.7388146
-6.9583162
-6.2717027
-5.6654956
-5.1285276
-4.6515848
-4.2271733
-3.8491033
-3.5120803
-3.2127805
-2.9471438
-2.7123347
-2.5057647
-2.3251783
-2.1686279
-2.0343215
-1.9203614
-1.8253999
-1.7501052
-1.6929514
-1.638534
5.5992378
5.5780136
5.5609093
5.5388923
5.5129597
5.4846617
5.4541315
5.4214141
5.3865401
5.3491316
5.3082191
5.2622137
5.2087627
5.1447769
5.0662498
4.9685171
4.8498239
4.7007942
4.5153269
4.2846139
4.0012938
3.6569537
3.2416904
2.7454547
2.1560724
1.4565983
0.61978895
-0.40567528
-1.7426179
-3.573227
-5.8905768
-8.5844026
-11.228448
-14.05005
-20.881089
-28.299599
-26.493553
-28.775678
-15.154856
9.4309971
43.09979
282.68283
359.49343
866.25167
2745.3694
4073.5456
4760.5363
5402.7251
5619.9244
5684.3908
5739.24
5713.4127
5219.6385
4425.5972
3400.4809
1337.3619
38.131159
299.67115
158.53515
14.891657
-12.569554
-31.016764
-43.413662
-53.939728
-53.761954
-46.093671
-41.025409
-36.151968
-31.006914
-26.659173
-22.8547
-19.626154
-16.980405
-14.789366
-12.949745
-11.389753
-10.05678
-8.9100512
-7.9176925
-7.0545749
-6.3002594
-5.6381342
-5.0545559
-4.5381988
-4.0798331
-3.6719562
-3.3086334
-2.9845513
-2.6966959
-2.4414593
-2.2161054
-2.0182065
-1.8454818
-1.6959792
-1.567904
-1.4592279
-1.3685449
-1.2967162
-1.2418767
-1.1869188
5.9579196
5.9357462
5.920316
5.9013419
5.8798794
5.8580602
5.8363988