/*--------------------------------*- C++ -*----------------------------------*\
  =========                 |
  \\      /  F ield         | OpenFOAM: The Open Source CFD Toolbox
   \\    /   O peration     | Website:  https://openfoam.org
    \\  /    A nd           | Version:  9
     \\/     M anipulation  |
\*---------------------------------------------------------------------------*/
FoamFile
{
    format      ascii;
    class       surfaceScalarField;
    location    "0.5";
    object      phi;
}
// * * * * * * * * * * * * * * * * * * * * * * * * * * * * * * * * * * * * * //

dimensions      [0 3 -1 0 0 0 0];

internalField   nonuniform List<scalar> 
19800
(
6.9775583e-05
-5.3994862e-05
0.00010254095
-5.2548651e-05
0.00013493916
-5.1935329e-05
0.00016692995
-5.102716e-05
0.00019867825
-5.0391707e-05
0.00023016851
-4.9570189e-05
0.00026142666
-4.8824345e-05
0.00029247019
-4.806435e-05
0.00032335224
-4.7399374e-05
0.0003541227
-4.6830147e-05
0.00038480469
-4.6356715e-05
0.00041552372
-4.6111128e-05
0.00044629146
-4.5937212e-05
0.00047724903
-4.6155058e-05
0.00050844376
-4.6567876e-05
0.00054002679
-4.7327885e-05
0.00057208313
-4.8386806e-05
0.0006047123
-4.9784087e-05
0.00063806583
-5.1538925e-05
0.00067222367
-5.3621171e-05
0.00070723083
-5.6037129e-05
0.00074312666
-5.8684005e-05
0.00077998893
-6.1510857e-05
0.00081778823
-6.4480221e-05
0.00085640165
-6.7382968e-05
0.00089569859
-7.0111951e-05
0.00093544949
-7.2358239e-05
0.00097534735
-7.3900769e-05
0.0010149806
-7.4577275e-05
0.0010537445
-7.4003934e-05
0.0010909089
-7.1963059e-05
0.0011256207
-6.8209703e-05
0.0011568535
-6.2560754e-05
0.0011834103
-5.4634825e-05
0.0012039632
-4.4260842e-05
0.001216754
-3.1040468e-05
0.0012197367
-1.4945506e-05
0.0012175615
2.5367061e-06
0.0012046404
2.476298e-05
0.0011814054
4.8104509e-05
0.0011478084
7.2780075e-05
0.0011040831
9.8167407e-05
0.0010506967
0.00012341879
0.0009885104
0.00014762426
0.00091872329
0.00016958296
0.00084279175
0.00018826729
0.00076244763
0.00020267284
0.00067979151
0.00021196602
0.00059691055
0.00021568453
0.00051609486
0.00021347577
0.0004395812
0.00020520086
0.0003695554
0.00019115184
0.00030795217
0.00017173212
0.00025642886
0.00014776003
0.00021635317
0.00012017395
0.00018846794
9.0378207e-05
0.00017305893
5.9630365e-05
0.00016997052
2.9325806e-05
0.00017921658
3.0359362e-07
0.00019575028
-2.3282554e-05
0.00022283138
-4.3839327e-05
0.00025688595
-5.8970577e-05
0.00029494408
-6.8822476e-05
0.00033435373
-7.3622864e-05
0.00037264842
-7.3413645e-05
0.00040764191
-6.8816225e-05
0.00043746151
-6.0417438e-05
0.00046062363
-4.9025699e-05
0.00047600333
-3.549648e-05
0.00048257834
-2.0479749e-05
0.00048159555
-4.1030516e-06
0.00047412441
1.2618719e-05
0.0004589805
2.852053e-05
0.00043867418
4.2582311e-05
0.00041405062
5.5421214e-05
0.00038532841
6.6842466e-05
0.00035325484
7.6250014e-05
0.00031905931
8.3333912e-05
0.00028369348
8.8330482e-05
0.00024799665
9.1362143e-05
0.00021273041
9.2601095e-05
0.00017853825
9.2208975e-05
0.00014595595
9.0394923e-05
0.0001154766
8.7392397e-05
8.7517232e-05
8.343844e-05
6.2384735e-05
7.8672191e-05
4.0271465e-05
7.3236212e-05
2.1211609e-05
6.725102e-05
5.1956981e-06
6.0901102e-05
-7.8499688e-06
5.4330888e-05
-1.7913029e-05
4.7564351e-05
-2.5295121e-05
4.0953154e-05
-3.0155292e-05
3.4517344e-05
-3.2670876e-05
2.827531e-05
-3.314358e-05
2.2531175e-05
-3.178734e-05
1.7204961e-05
-2.8938548e-05
1.2739922e-05
-2.4875499e-05
8.8924804e-06
-1.9880848e-05
5.775546e-06
3.5503206e-06
7.1116818e-05
-8.6352583e-05
0.00010363782
-8.5065922e-05
0.00013599527
-8.4292886e-05
0.00016807746
-8.3107699e-05
0.00019986528
-8.2178143e-05
0.00023136033
-8.1063103e-05
0.00026259924
-8.0061463e-05
0.00029361458
-7.9079764e-05
0.00032434773
-7.8132668e-05
0.0003549207
-7.7402958e-05
0.00038539802
-7.6833659e-05
0.00041581858
-7.6530603e-05
0.00044624945
-7.6366584e-05
0.00047684192
-7.674573e-05
0.00050766991
-7.7393298e-05
0.00053885379
-7.8509021e-05
0.00057045191
-7.9983057e-05
0.0006026751
-8.2005877e-05
0.00063556582
-8.4427561e-05
0.00066925827
-8.7311103e-05
0.00070386078
-9.0638042e-05
0.00073953512
-9.4358141e-05
0.00077621294
-9.8188975e-05
0.00081393913
-0.00010220628
0.00085274809
-0.00010619108
0.00089246871
-0.00010983107
0.00093299914
-0.00011288664
0.00097396278
-0.00011486241
0.0010149421
-0.00011555552
0.0010554023
-0.00011446459
0.0010945985
-0.00011116044
0.0011317018
-0.00010531335
0.0011655551
-9.6412584e-05
0.0011949272
-8.4003855e-05
0.0012185989
-6.7929082e-05
0.0012354044
-4.7843754e-05
0.0012443891
-2.3929644e-05
0.0012431623
3.7628126e-06
0.0012323559
3.5567805e-05
0.0012106246
6.9833692e-05
0.0011775513
0.00010585214
0.0011332626
0.00014245645
0.0010781526
0.00017852812
0.0010129782
0.0002127973
0.00093912298
0.00024343936
0.00085820402
0.00026918637
0.00077212882
0.0002887467
0.00068314139
0.00030095615
0.00059376406
0.00030506378
0.00050646103
0.00030078094
0.00042371266
0.0002879536
0.00034791224
0.00026695389
0.00028148953
0.00023815782
0.00022624486
0.00020300543
0.00018353509
0.00016289032
0.00015445277
0.00011946555
0.00013939401
7.4693569e-05
0.00013825344
3.0467429e-05
0.00014944091
-1.0880938e-05
0.00017284875
-4.6693871e-05
0.00020532445
-7.6311814e-05
0.0002448129
-9.8462216e-05
0.00028849914
-0.00011250494
0.00033341525
-0.0001185388
0.00037685035
-0.00011685238
0.00041631265
-0.00010827857
0.00044977781
-9.3885415e-05
0.00047571771
-7.497067e-05
0.0004929882
-5.27702e-05
0.0005012211
-2.8713896e-05
0.00050104822
-3.9318278e-06
0.00049315009
2.0517299e-05
0.00047793424
4.3736026e-05
0.00045562303
6.4894195e-05
0.00042788359
8.3161897e-05
0.00039614009
9.8584539e-05
0.00036152908
0.00011085624
0.00032490482
0.00011995932
0.00028723848
0.00012600326
0.0002493958
0.00012920607
0.00021218693
0.00012981367
0.00017629002
0.00012811243
0.0001422682
0.00012441826
0.00011059238
0.00011906929
8.1664503e-05
0.00011237043
5.5753007e-05
0.00010458422
3.3016145e-05
9.5973659e-05
1.3489721e-05
8.6777253e-05
-2.7851564e-06
7.717603e-05
-1.5796451e-05
6.7344988e-05
-2.5946798e-05
5.7716547e-05
-3.3138754e-05
4.8143451e-05
-3.7592306e-05
3.8973115e-05
-3.968618e-05
3.0371132e-05
-3.9552454e-05
2.2400229e-05
-3.7583275e-05
1.5239945e-05
-3.3827108e-05
8.9862631e-06
-2.8561698e-05
3.6264611e-06
-2.2302485e-05
-4.7527504e-07
-3.0991108e-06
7.1948838e-05
-0.00011900941
0.00010446082
-0.00011757794
0.00013680288
-0.00011663332
0.0001689007
-0.00011520415
0.00020070327
-0.00011397831
0.00023221632
-0.00011257357
0.00026344131
-0.00011128555
0.00029430507
-0.00010994314
0.00032499788
-0.00010882528
0.00035542271
-0.00010782803
0.00038569982
-0.00010711096
0.00041583961
-0.00010667057
0.00044611301
-0.00010664002
0.00047638
-0.00010701171
0.00050687859
-0.00010788988
0.00053763655
-0.00010926514
0.00056885837
-0.00011120343
0.00060060306
-0.0001137486
0.00063311802
-0.00011693983
0.00066655467
-0.00012074537
0.00070090595
-0.00012498799
0.00073622213
-0.00012967358
0.0007729411
-0.00013490712
0.00081092469
-0.00014018897
0.00085007366
-0.0001453394
0.00089041478
-0.00015017184
0.00093190063
-0.00015437223
0.00097420431
-0.00015716586
0.0010170133
-0.00015836432
0.0010596911
-0.00015714187
0.0011014813
-0.00015294912
0.0011416071
-0.00014543653
0.0011789332
-0.00013373538
0.0012121433
-0.00011721132
0.0012399552
-9.5739667e-05
0.0012609759
-6.8864546e-05
0.0012737301
-3.668476e-05
0.0012765114
9.8075246e-07
0.0012688172
4.3262085e-05
0.0012493823
8.9268593e-05
0.0012175776
0.0001376563
0.0011730921
0.00018694233
0.0011161865
0.0002354335
0.0010478421
0.00028113873
0.00096911089
0.00032216896
0.00088166088
0.0003566369
0.0007878057
0.00038260106
0.00069000251
0.00039876144
0.00059109185
0.00040397729
0.00049425039
0.00039762312
0.00040227543
0.00037993003
0.0003180623
0.00035116688
0.000244136
0.00031208525
0.0001831648
0.00026397726
0.00013689637
0.00020916279
0.00010629503
0.00015006954
9.2006039e-05
8.89879e-05
9.2785877e-05
2.9685522e-05
0.00010933635
-2.7431681e-05
0.00013935503
-7.6712523e-05
0.00017990786
-0.00011686321
0.00022790048
-0.00014645635
0.0002800829
-0.00016468391
0.00033300506
-0.00017145922
0.00038351852
-0.00016736909
0.00042888097
-0.00015364356
0.00046689764
-0.00013190344
0.00049595178
-0.00010402642
0.00051533383
-7.2153362e-05
0.00052465089
-3.8031706e-05
0.00052422942
-3.5127165e-06
0.00051462357
3.0123341e-05
0.00049718942
6.1170103e-05
0.00047290814
8.9173952e-05
0.00044270007
0.0001133695
0.0004081146
0.0001331714
0.00037041527
0.00014855628
0.00033079734
0.00015957752
0.00029031549
0.00016648944
0.00024993063
0.00016959267
0.00021047336
0.00016926933
0.00017265652
0.00016593261
0.00013699133
0.00016008686
0.00010400387
0.00015205542
7.3995214e-05
0.00014237971
4.723913e-05
0.00013134205
2.3923009e-05
0.00011929198
4.056159e-06
0.00010664621
-1.2369735e-05
9.3603899e-05
-2.5508792e-05
8.0483087e-05
-3.5335049e-05
6.7544646e-05
-4.2163917e-05
5.4971492e-05
-4.6177796e-05
4.2986972e-05
-4.7577678e-05
3.1773689e-05
-4.6708244e-05
2.1531566e-05
-4.3876502e-05
1.2407543e-05
-3.9248198e-05
4.3584223e-06
-3.3144247e-05
-2.468749e-06
-2.5732548e-05
-7.8853752e-06
-1.1566025e-05
7.286235e-05
-0.00015198882
0.00010554692
-0.00015026074
0.00013802027
-0.00014910528
0.00017019584
-0.00014737732
0.00020201927
-0.00014579876
0.00023347111
-0.00014402382
0.00026454297
-0.00014235646
0.00029539509
-0.00014079471
0.000325814
-0.00013924444
0.00035603105
-0.00013804579
0.00038599614
-0.0001370772
0.00041584154
-0.00013651733
0.00044562435
-0.00013642318
0.00047547128
-0.0001368574
0.00050546868
-0.00013788546
0.00053567774
-0.00013947258
0.0005663312
-0.00014185497
0.00059757662
-0.00014499134
0.00062950823
-0.00014886873
0.00066234709
-0.00015358227
0.00069624532
-0.00015888478
0.00073145426
-0.00016488097
0.00076797177
-0.00017142308
0.00080595145
-0.00017816785
0.00084558567
-0.00018497392
0.00088680301
-0.00019139014
0.00092945635
-0.00019702637
0.00097351302
-0.00020122246
0.0010184994
-0.00020334929
0.0010640384
-0.00020267804
0.001109542
-0.00019844886
0.0011537883
-0.00018967892
0.0011955913
-0.00017553554
0.0012338447
-0.00015546379
0.0012667363
-0.00012863156
0.0012926615
-9.4790237e-05
0.0013097417
-5.376518e-05
0.0013166407
-5.9180454e-06
0.0013124226
4.7481165e-05
0.0012954434
0.00010624879
0.0012645431
0.00016855582
0.0012193374
0.00023214679
0.0011599608
0.00029480978
0.0010869731
0.0003541243
0.0010017694
0.00040737009
0.00090620177
0.00045220511
0.00080285508
0.00048594827
0.00069455277
0.00050706436
0.00058455168
0.0005139797
0.00047625542
0.0005059192
0.00037325897
0.00048292571
0.00027915249
0.00044527404
0.00019726658
0.00039397187
0.00013039684
0.00033084751
8.0521655e-05
0.00025904186
4.9447503e-05
0.00018114142
3.6569761e-05
0.00010186661
4.3504544e-05
2.2751547e-05
6.4912944e-05
-4.8842554e-05
0.00010221249
-0.0001140109
0.00015219293
-0.00016683891
0.00021084056
-0.00020510077
0.00027393052
-0.0002277761
0.00033730119
-0.0002348315
0.0003971807
-0.00022724942
0.00045034882
-0.00020681356
0.00049434263
-0.00017589763
0.00052753446
-0.00013721692
0.00054897669
-9.3596331e-05
0.00055880628
-4.7864879e-05
0.00055731228
-2.0237148e-06
0.00054512773
4.2305754e-05
0.00052401578
8.2282031e-05
0.0004955849
0.00011760391
0.00046131879
0.00014763493
0.000422524
0.00017196613
0.00038069312
0.00019038593
0.0003371038
0.00020316488
0.00029297997
0.0002106141
0.00024930315
0.0002132708
0.00020694217
0.00021162759
0.00016658717
0.00020628474
0.00012892498
0.00019775005
9.4236142e-05
0.00018674682
6.2970226e-05
0.00017364779
3.5346875e-05
0.00015896832
1.1363797e-05
0.00014327761
-8.8593082e-06
0.00012687026
-2.5382996e-05
0.0001101315
-3.8317708e-05
9.3416326e-05
-4.7712079e-05
7.6937328e-05
-5.3924114e-05
6.1185696e-05
-5.7128225e-05
4.6193581e-05
-5.758419e-05
3.2230137e-05
-5.5539177e-05
1.9488835e-05
-5.1285567e-05
8.1579935e-06
-4.5214807e-05
-1.7105272e-06
-3.7547735e-05
-1.0129113e-05
-2.8947353e-05
-1.6485753e-05
-2.1592792e-05
7.4018607e-05
-0.00018524311
0.00010684096
-0.0001830816
0.00013953456
-0.00018179651
0.00017178772
-0.00017962757
0.00020368759
-0.00017769681
0.00023511477
-0.00017544969
0.00026623823
-0.00017347896
0.00029677683
-0.00017133318
0.00032704681
-0.00016951497
0.0003569318
-0.00016793204
0.00038657671
-0.00016672394
0.000415997
-0.00016593875
0.00044517545
-0.00016560102
0.00047444139
-0.00016612165
0.00050376394
-0.0001672063
0.00053336172
-0.00016906856
0.00056346192
-0.00017195283
0.00059396414
-0.00017549114
0.0006251518
-0.00018005464
0.00065726973
-0.00018569897
0.00069063106
-0.0001922446
0.00072536638
-0.00019961436
0.00076150793
-0.00020756311
0.00079950833
-0.00021616794
0.00083944281
-0.00022490922
0.00088147454
-0.00023342293
0.0009256076
-0.00024115972
0.00097178517
-0.0002473989
0.0010197549
-0.00025131626
0.0010690617
-0.00025198103
0.0011189796
-0.00024836273
0.0011686451
-0.00023934131
0.0012166832
-0.00022357183
0.0012616108
-0.00020039077
0.0013015673
-0.00016858789
0.0013347223
-0.00012794461
0.0013589245
-7.796659e-05
0.0013722833
-1.9276619e-05
0.0013724835
4.7281084e-05
0.0013582656
0.00012046734
0.0013283579
0.0001984635
0.0012818721
0.00027863156
0.0012187
0.00035798185
0.0011396131
0.00043321119
0.0010458183
0.00050116301
0.00093949883
0.00055852309
0.00082334277
0.00060210439
0.0007009351
0.00062947194
0.00057617839
0.00063873611
0.00045315891
0.00062894036
0.00033607642
0.00060000797
0.00022883298
0.00055251937
0.00013607264
0.00048673359
6.0705913e-05
0.00040621053
4.7496033e-06
0.00031499711
-3.0235563e-05
0.00021612589
-4.2203286e-05
0.00011383179
-3.1975032e-05
1.2525144e-05
3.2122148e-07
-8.1133829e-05
4.9374744e-05
-0.00016305997
0.00011326768
-0.00023073643
0.00018715032
-0.00027897995
0.00026561868
-0.0003062433
0.00034349252
-0.00031271
0.00041616733
-0.00029992612
0.00047980318
-0.00027044771
0.00053161018
-0.00022770506
0.00056989854
-0.00017550751
0.00059395733
-0.00011765686
0.00060376893
-5.7678157e-05
0.00060010283
1.6398235e-06
0.00058483531
5.7570344e-05
0.00055923384
0.00010788341
0.00052540989
0.00015142967
0.00048526232
0.0001877828
0.0004406605
0.00021656868
0.00039316439
0.00023788313
0.00034431041
0.00025201951
0.000295344
0.00025958122
0.0002474098
0.00026120604
0.00020138802
0.0002576527
0.00015799344
0.00024968257
0.00011772643
0.00023801764
8.1094596e-05
0.0002233803
4.8314111e-05
0.00020642841
1.9528383e-05
0.00018775535
-5.0621284e-06
0.00016786947
-2.5519119e-05
0.00014732596
-4.1976491e-05
0.00012659078
-5.4491331e-05
0.00010593389
-6.3424896e-05
8.5871662e-05
-6.8823788e-05
6.6587833e-05
-7.1023598e-05
4.8395097e-05
-7.0248602e-05
3.1459436e-05
-6.6820016e-05
1.606107e-05
-6.0983014e-05
2.3160612e-06
-5.3386413e-05
-9.3054445e-06
-4.3957904e-05
-1.9555608e-05
-3.3580569e-05
-2.6861815e-05
-3.3640244e-05
7.5456392e-05
-0.00021884544
0.00010860882
-0.00021623178
0.00014145576
-0.00021464091
0.00017380814
-0.00021197846
0.00020570464
-0.00020959209
0.00023721859
-0.00020696257
0.00026811136
-0.00020437131
0.00029863776
-0.00020185971
0.00032862265
-0.00019950058
0.00035818903
-0.00019749982
0.00038731104
-0.00019584694
0.00041617128
-0.00019479841
0.0004448757
-0.00019430363
0.00047338781
-0.0001946319
0.00050197041
-0.00019578719
0.00053079284
-0.00019788905
0.00055981944
-0.00020097752
0.00058945769
-0.00020512834
0.00061985396
-0.0002104507
0.00065115618
-0.00021700084
0.00068359473
-0.00022468195
0.00071755354
-0.00023357146
0.00075336365
-0.0002433719
0.00079123382
-0.0002540376
0.00083147821
-0.00026515353
0.00087426277
-0.00027620723
0.00091995935
-0.00028685541
0.00096851549
-0.00029595337
0.0010197548
-0.00030255325
0.0010733728
-0.00030559623
0.0011288832
-0.00030387043
0.001185037
-0.00029549272
0.0012408727
-0.00027940528
0.0012943085
-0.00025382451
0.0013433943
-0.00021767219
0.0013855742
-0.00017012361
0.0014184733
-0.00011086537
0.0014394851
-4.0288713e-05
0.0014462764
4.0489506e-05
0.0014365936
0.00013015115
0.0014087527
0.00022630645
0.001361532
0.00032585355
0.0012945005
0.00042501323
0.0012079816
0.00051972973
0.0011034129
0.00060573088
0.00098334968
0.00067858342
0.00085095286
0.00073450004
0.00071054524
0.00076988205
0.00056656843
0.00078271351
0.00042418691
0.00077132525
0.00028830385
0.00073589196
0.00016429205
0.0006765296
5.6702594e-05
0.00059432189
-3.1689797e-05
0.00049460168
-9.5963784e-05
0.00037926525
-0.0001334945
0.00025365732
-0.00014327681
0.00012361941
-0.00012607723
-4.6727412e-06
-8.2986576e-05
-0.00012422671
-1.7235312e-05
-0.00022880249
6.4806272e-05
-0.00031278039
0.00015899348
-0.00037317259
0.00025791829
-0.000405168
0.00035488323
-0.00040967415
0.00044410001
-0.00038914494
0.0005209693
-0.00034731837
0.00058234855
-0.00028908326
0.00062640643
-0.00021956312
0.00065265188
-0.00014390132
0.00066169007
-6.6717512e-05
0.00065476054
8.5701427e-06
0.00063412499
7.8207973e-05
0.00060212743
0.00013988132
0.00056118791
0.00019236811
0.00051360639
0.00023536206
0.00046154365
0.00026862893
0.00040699985
0.00029242541
0.00035161037
0.00030741009
0.00029681776
0.00031437626
0.00024373586
0.00031428899
0.0001933242
0.0003080674
0.00014623472
0.00029677586
0.0001030575
0.0002811938
6.4109001e-05
0.00026233024
2.9620386e-05
0.00024091783
-3.2823266e-07
0.0002177042
-2.5468146e-05
0.00019300998
-4.6149622e-05
0.00016800953
-6.2435425e-05
0.00014287672
-7.4604614e-05
0.0001181062
-8.2699668e-05
9.3967214e-05
-8.7050872e-05
7.0944082e-05
-8.792036e-05
4.9261927e-05
-8.564252e-05
2.9180135e-05
-8.0571657e-05
1.0990109e-05
-7.307073e-05
-5.1868305e-06
-6.3213361e-05
-1.9158696e-05
-5.1653201e-05
-3.1117901e-05
-3.9093802e-05
-3.9420316e-05
-4.8092028e-05
7.7216182e-05
-0.00025283525
0.000110675
-0.00024968843
0.0001437403
-0.00024770514
0.00017628525
-0.00024452245
0.00020828029
-0.00024158627
0.0002397383
-0.00023842027
0.00027055975
-0.00023519276
0.00030086925
-0.00023216948
0.00033051778
-0.00022914979
0.00035969326
-0.00022667557
0.00038833394
-0.00022448643
0.00041663943
-0.0002231016
0.00044454982
-0.00022221181
0.00047230719
-0.00022238755
0.00050001343
-0.00022349171
0.00052774865
-0.0002256227
0.00055582212
-0.00022905044
0.00058434945
-0.00023365647
0.00061356261
-0.00023966512
0.00064372435
-0.00024716307
0.00067521368
-0.00025617059
0.00070818691
-0.00026654323
0.0007433615
-0.00027854472
0.00078089426
-0.00029156844
0.00082109896
-0.00030535628
0.00086461513
-0.00031972174
0.00091169747
-0.00033393663
0.00096271963
-0.0003469749
0.0010176731
-0.00035750613
0.0010763841
-0.00036430594
0.0011382762
-0.00036576042
0.0012025969
-0.00035981041
0.0012676541
-0.00034445902
0.0013316366
-0.00031780411
0.0013920031
-0.00027803709
0.0014458111
-0.00022393139
0.0014898853
-0.00015493967
0.0015209472
-7.1350178e-05
0.0015363304
2.5107742e-05
0.0015330074
0.00013347625
0.0015083775
0.00025093881
0.0014607712
0.00037346193
0.0013891686
0.00049661574
0.0012938802
0.00061501613
0.0011763292
0.00072328247
0.0010391791
0.00081573369
0.0008866522
0.00088702496
0.00072344269
0.00093309554
0.00055552666
0.00095063198
0.00038867413
0.00093817865
0.00022901463
0.00089555198
8.329979e-05
0.00082224392
-4.4875287e-05
0.00072249043
-0.00014788121
0.0005976101
-0.00022211316
0.00045349969
-0.00026401155
0.00029555496
-0.00027196035
0.00013156827
-0.00024598956
-3.0637864e-05
-0.00018822622
-0.0001819938
-0.00010224213
-0.00031478797
5.6267616e-06
-0.00042064738
0.00012613016
-0.00049367733
0.00025196082
-0.00053100171
0.00037375968
-0.00053147463
0.00048395717
-0.00049934066
0.00057713959
-0.00044049752
0.00064974952
-0.00036169208
0.00070009612
-0.00026991214
0.00072811896
-0.00017192702
0.00073509551
-7.369583e-05
0.00072284105
2.0824301e-05
0.00069468784
0.00010636046
0.00065382522
0.00018074139
0.00060342567
0.00024276361
0.00054621633
0.00029257159
0.0004848378
0.00033001028
0.00042154261
0.00035572029
0.0003582476
0.00037070565
0.00029644572
0.00037618134
0.00023736234
0.00037337276
0.0001818606
0.00036356792
0.00013066953
0.00034796891
8.415539e-05
0.00032770833
4.2680595e-05
0.00030380657
6.4279527e-06
0.00027717323
-2.4344414e-05
0.00024847874
-5.0370401e-05
0.00021903507
-7.1248568e-05
0.00018889151
-8.7220884e-05
0.0001588473
-9.851898e-05
0.00012940951
-0.00010563246
0.00010107679
-0.00010867735
7.3987567e-05
-0.00010795783
4.8544278e-05
-0.00010381632
2.5036239e-05
-9.669285e-05
3.8677659e-06
-8.6948123e-05
-1.4928206e-05
-7.4918849e-05
-3.1185332e-05
-6.0794149e-05
-4.5240643e-05
-4.5680394e-05
-5.4536111e-05
-6.5207928e-05
7.9326576e-05
-0.00028730931
0.00011314674
-0.00028350766
0.00014651989
-0.00028107723
0.0001793259
-0.00027732762
0.00021140943
-0.00027366969
0.00024285116
-0.00026986227
0.0002736657
-0.00026600768
0.00030371037
-0.00026221458
0.00033300176
-0.00025844086
0.0003617164
-0.00025538832
0.00038985201
-0.0002526191
0.00041736525
-0.00025061223
0.00044457758
-0.00024942236
0.00047125389
-0.00024906231
0.00049788657
-0.00025012292
0.00052457133
-0.00025230687
0.00055128952
-0.00025576966
0.00057856224
-0.00026093138
0.00060626275
-0.00026736774
0.00063499885
-0.00027590019
0.00066509858
-0.00028626991
0.00069708632
-0.00029852916
0.00073092313
-0.00031237854
0.00076756417
-0.0003282059
0.00080750039
-0.00034528936
0.0008513388
-0.00036355842
0.00089983797
-0.0003824357
0.00095319373
-0.00040033141
0.0010120513
-0.000416364
0.001076382
-0.00042863556
0.0011457932
-0.00043516903
0.0012194749
-0.00043348883
0.0012958915
-0.00042087257
0.0013729137
-0.00039482423
0.0014474853
-0.0003526075
0.0015160437
-0.00029248886
0.0015744629
-0.00021335753
0.0016189401
-0.00011582548
0.0016454723
-1.4220339e-06
0.0016506849
0.00012826567
0.0016311456
0.0002704784
0.0015838943
0.00042071417
0.0015073414
0.00057317082
0.0014016032
0.00072075328
0.0012679137
0.00085697245
0.0011101077
0.00097354368
0.00093258545
0.0010645456
0.00074150728
0.0011241737
0.00054332867
0.0011488141
0.00034584377
0.001135665
0.00015628518
0.001085107
-1.7927629e-05
0.00099646106
-0.00016974855
0.00087431083
-0.00029237872
0.00072023824
-0.00037967144
0.00054079198
-0.00042788148
0.00034376929
-0.00043420366
0.00013788821
-0.00039788753
-6.6955832e-05
-0.00032120934
-0.00025867127
-0.00020868098
-0.0004273177
-6.8701084e-05
-0.0005606276
8.8085961e-05
-0.00065046612
0.00024971962
-0.00069263726
0.00040350814
-0.00068526569
0.00054015558
-0.00063599017
0.00065313305
-0.00055347577
0.00073866821
-0.0004472247
0.00079548315
-0.00032672347
0.00082414844
-0.00020058974
0.00082685054
-7.6398262e-05
0.00080644632
4.1227253e-05
0.00076800053
0.00014480701
0.00071537995
0.00023336588
0.00065247495
0.00030566909
0.00058298774
0.00036205866
0.00051001458
0.00040298815
0.00043612652
0.00042960966
0.00036338875
0.00044343931
0.00029338676
0.00044618298
0.00022735506
0.00043940746
0.00016611473
0.000424808
0.00011026751
0.00040381639
6.0190973e-05
0.00037778835
1.6067683e-05
0.00034793039
-2.2094754e-05
0.00031533341
-5.4227954e-05
0.00028061357
-8.0535814e-05
0.00024534185
-0.00010128878
0.0002096465
-0.00011671081
0.00017426112
-0.00012706322
0.00013976549
-0.00013261094
0.00010662735
-0.00013378666
7.5159651e-05
-0.00013111353
4.5874814e-05
-0.00012489623
1.8822595e-05
-0.00011538617
-5.6438371e-06
-0.00010305916
-2.7254282e-05
-8.850732e-05
-4.5738357e-05
-7.1535843e-05
-6.2209417e-05
-5.3563012e-05
-7.2504809e-05
-8.5272375e-05
8.1922035e-05
-0.00032237859
0.00011611518
-0.0003176991
0.00014993387
-0.0003148945
0.00018292083
-0.0003103142
0.00021518776
-0.00030593706
0.00024668999
-0.00030136533
0.00027736409
-0.00029668256
0.00030723517
-0.00029208541
0.00033625223
-0.00028745581
0.00036436265
-0.00028349548
0.0003918663
-0.00028011996
0.00041855411
-0.00027729839
0.00044472294
-0.00027559001
0.00047056092
-0.00027489898
0.00049591299
-0.0002754741
0.00052107175
-0.00027746611
0.00054634017
-0.00028104006
0.00057188441
-0.00028647821
0.00059819661
-0.00029368205
0.00062538989
-0.00030309436
0.00065368612
-0.00031456533
0.00068355308
-0.00032839348
0.00071574694
-0.00034456847
0.00075107035
-0.00036352531
0.00079012745
-0.00038434379
0.00083391426
-0.00040734449
0.00088299932
-0.00043152136
0.00093858107
-0.0004559138
0.0010013046
-0.0004790871
0.001071642
-0.00049897138
0.001149496
-0.000513021
0.0012341749
-0.00051816591
0.0013241026
-0.00051079875
0.001416932
-0.00048765213
0.001509297
-0.00044497038
0.0015964773
-0.00037966623
0.0016731185
-0.00028999573
0.0017347481
-0.00017745357
0.0017762446
-4.2918582e-05
0.0017934496
0.00011106141
0.0017814853
0.00028244286
0.0017359117
0.0004662877
0.0016547041
0.00065438249
0.0015367193
0.00083874001
0.0013841737
0.0010095157
0.0012005785
0.0011571409
0.00099200881
0.0012731177
0.0007658893
0.0013502919
0.00053079814
0.0013839051
0.00029508452
0.0013713849
6.874305e-05
0.0013114465
-0.00014123767
0.0012064386
-0.00032388032
0.0010569543
-0.00047151617
0.00086787876
-0.00057642513
0.00064569836
-0.00063306995
0.00040041131
-0.0006380492
0.00014286707
-0.00058935356
-0.0001156533
-0.00048875252
-0.00035927257
-0.00034244151
-0.00057363089
-0.00015924497
-0.0007438257
4.5954778e-05
-0.00085566692
0.0002546121
-0.00090129324
0.00044950661
-0.00088015682
0.00061892772
-0.00080540579
0.00075539708
-0.00068993904
0.000855389
-0.00054721092
0.00091815047
-0.00038948406
0.00094532387
-0.00022776483
0.00094044272
-7.1518387e-05
0.00090842616
7.3242297e-05
0.00085527923
0.00019795349
0.000786832
0.00030181714
0.00070803575
0.0003844689
0.00062322058
0.00044687064
0.00053610351
0.00049010373
0.00044957468
0.00051614073
0.0003658095
0.00052720049
0.00028645521
0.0005255329
0.00021260045
0.00051326677
0.00014502758
0.00049238588
8.4187816e-05
0.0004646527
3.0323845e-05
0.00043165009
-1.647778e-05
0.00039473499
-5.6133786e-05
0.00035498857
-8.9546041e-05
0.00031402363
-0.00011621467
0.00027200608
-0.00013662926
0.00023006539
-0.00015116397
0.00018880187
-0.00016017226
0.00014877315
-0.00016406566
0.00011052271
-0.00016325402
7.4346345e-05
-0.00015818628
4.0805223e-05
-0.00014927564
9.9152578e-06
-0.00013698009
-1.7933692e-05
-0.00012166187
-4.2569281e-05
-0.00010402753
-6.3372376e-05
-8.3904516e-05
-8.233552e-05
-6.277966e-05
-9.3626718e-05
-0.00010855558
8.5009466e-05
-0.00035812852
0.00011971087
-0.00035239786
0.00015396927
-0.00034915159
0.00018732327
-0.00034366814
0.00021983192
-0.00033844668
0.00025136162
-0.00033289637
0.00028194047
-0.00032726169
0.00031147837
-0.00032162155
0.00034013521
-0.00031610958
0.00036776241
-0.00031112013
0.0003944563
-0.00030681269
0.00042037663
-0.00030321822
0.00044551231
-0.00030072492
0.00047000601
-0.00029939176
0.00049396559
-0.0002994335
0.00051770155
-0.0003012031
0.00054120358
-0.00030454397
0.00056488666
-0.00031016324
0.00058919098
-0.00031798767
0.00061406817
-0.00032797156
0.0006400806
-0.00034057615
0.0006679063
-0.00035621615
0.00069809766
-0.00037475634
0.0007311002
-0.00039652514
0.00076831612
-0.00042155838
0.00081073569
-0.00044976373
0.00085991629
-0.00048070164
0.00091715537
-0.00051315197
0.00098342413
-0.00054535459
0.0010599481
-0.00057549441
0.0011470907
-0.00060016328
0.0012442649
-0.00061534007
0.0013499619
-0.00061649485
0.0014620707
-0.00059975823
0.0015766054
-0.00055950167
0.0016869201
-0.00048997811
0.0017872056
-0.00039027946
0.0018706653
-0.00026091351
0.0019321204
-0.00010437618
0.0019656289
7.7552816e-05
0.0019649761
0.00028309828
0.0019238565
0.00050740707
0.0018380774
0.00074016212
0.0017064594
0.00097036038
0.0015306293
0.0011853445
0.001315532
0.0013722368
0.001068716
0.0015199377
0.00079948887
0.0016195244
0.0005181087
0.0016652813
0.00023559552
0.0016538958
-3.7866357e-05
0.0015849108
-0.00029109475
0.0014596686
-0.00051305465
0.0012789103
-0.00069278558
0.001047608
-0.00082119549
0.00077410962
-0.00089021817
0.00046943307
-0.00089500702
0.00014765381
-0.00083180361
-0.00017885872
-0.00070226921
-0.00048880639
-0.00051126545
-0.00076463031
-0.00027128108
-0.00098380568
-1.7818004e-06
-0.0011251667
0.0002716197
-0.0011746973
0.00051949169
-0.0011280287
0.00072911085
-0.0010150211
0.00089282999
-0.00085365336
0.0010079363
-0.000662313
0.001075113
-0.00045665999
0.0010974907
-0.00025014425
0.0010801478
-5.4174584e-05
0.0010311629
0.00012222994
0.00095795608
0.00027116056
0.00086868383
0.00039108929
0.00076958315
0.00048357336
0.00066583485
0.0005506184
0.00056168741
0.00059424556
0.00046028709
0.00061754163
0.0003638787
0.00062361281
0.00027399123
0.00061541864
0.00019158832
0.00059566534
0.00011722849
0.00056674706
5.1155953e-05
0.00053072884
-6.5545051e-06
0.00048935562
-5.6069742e-05
0.00044424523
-9.7701406e-05
0.00039662238
-0.00013151671
0.00034784831
-0.00015805649
0.00029855199
-0.00017773619
0.00024973414
-0.00019097732
0.00020204814
-0.00019830122
0.00015609375
-0.00020008233
0.00011230844
-0.00019683365
7.1102022e-05
-0.00018898307
3.2954925e-05
-0.00017703884
-2.0298623e-06
-0.00016156434
-3.3406079e-05
-0.00014292931
-6.1202229e-05
-0.00012170242
-8.4595067e-05
-9.822054e-05
-0.00010581516
-7.3096609e-05
-0.00011875255
-0.00013520236
8.873414e-05
-0.00039465729
0.0001239728
-0.00038763375
0.00015875717
-0.00038393479
0.00019254088
-0.00037745227
0.00022528025
-0.00037118742
0.00025699166
-0.00036460844
0.0002875257
-0.00035779447
0.00031693459
-0.00035102787
0.00034514586
-0.00034431881
0.00037208716
-0.00033806093
0.00039807955
-0.00033280546
0.00042283964
-0.00032797843
0.00044682859
-0.00032471341
0.00047000638
-0.00032256917
0.00049233992
-0.00032176727
0.00051428604
-0.00032315004
0.00053606475
-0.00032632368
0.00055765292
-0.00033175206
0.00057943407
-0.00033976871
0.0006018961
-0.00035043247
0.00062525332
-0.00036393136
0.00065006742
-0.00038102801
0.00067705586
-0.00040174307
0.00070723599
-0.00042670426
0.00074170553
-0.0004560271
0.00078196608
-0.00049002293
0.00082963406
-0.0005283676
0.00088686711
-0.00057038307
0.00095596338
-0.00061444998
0.0010384192
-0.00065795055
0.0011354206
-0.00069716541
0.0012467483
-0.00072666747
0.0013705408
-0.00074028561
0.0015059917
-0.00073520612
0.0016486026
-0.00070211019
0.0017888843
-0.00063025988
0.0019176322
-0.00051902872
0.0020288763
-0.00037215762
0.0021165357
-0.00019203652
0.0021728326
2.1254553e-05
0.002188918