/*--------------------------------*- C++ -*----------------------------------*\
  =========                 |
  \\      /  F ield         | OpenFOAM: The Open Source CFD Toolbox
   \\    /   O peration     | Website:  https://openfoam.org
    \\  /    A nd           | Version:  9
     \\/     M anipulation  |
\*---------------------------------------------------------------------------*/
FoamFile
{
    format      ascii;
    class       volVectorField;
    location    "0.5";
    object      U;
}
// * * * * * * * * * * * * * * * * * * * * * * * * * * * * * * * * * * * * * //

dimensions      [0 1 -1 0 0 0 0];

internalField   nonuniform List<vector> 
10000
(
(0.0045436495 -0.0027638492 0)
(0.0085201933 -0.0026793315 0)
(0.012122038 -0.0026376804 0)
(0.014966201 -0.0025705757 0)
(0.018330017 -0.0025197251 0)
(0.021454606 -0.0024484734 0)
(0.024588048 -0.0023838334 0)
(0.027702612 -0.0023151919 0)
(0.030804173 -0.0022515459 0)
(0.033885839 -0.0021933631 0)
(0.036958098 -0.0021438351 0)
(0.040019713 -0.0021066378 0)
(0.043090813 -0.0020764277 0)
(0.046181781 -0.002076793 0)
(0.049286402 -0.0020947006 0)
(0.052422266 -0.0021361567 0)
(0.055601796 -0.0022030585 0)
(0.058831807 -0.0022981109 0)
(0.062126371 -0.0024172073 0)
(0.065501703 -0.0025651368 0)
(0.068954831 -0.0027463797 0)
(0.072487433 -0.0029486259 0)
(0.076125232 -0.0031610913 0)
(0.079859874 -0.003392172 0)
(0.083677461 -0.0036275092 0)
(0.087566793 -0.0038550935 0)
(0.091508774 -0.0040493925 0)
(0.095493428 -0.0041933292 0)
(0.099470872 -0.0042798388 0)
(0.10338659 -0.0042856557 0)
(0.10718536 -0.0041998729 0)
(0.11078541 -0.0040078484 0)
(0.11409949 -0.0037083457 0)
(0.11699943 -0.003274841 0)
(0.11937995 -0.0026999016 0)
(0.12107759 -0.0019755157 0)
(0.12186474 -0.0010406835 0)
(0.12188731 0.000229273 0)
(0.1211374 0.0016028495 0)
(0.11935728 0.0030946101 0)
(0.11652956 0.0046980125 0)
(0.11266359 0.0063898895 0)
(0.1077864 0.0081064301 0)
(0.10198753 0.0097926798 0)
(0.095383246 0.011356698 0)
(0.088095403 0.012716372 0)
(0.080281058 0.013793385 0)
(0.072122234 0.014538294 0)
(0.063822718 0.014901215 0)
(0.055632842 0.014865469 0)
(0.047763566 0.014411861 0)
(0.04041537 0.013567542 0)
(0.033805527 0.01235009 0)
(0.028131278 0.01081966 0)
(0.023528 0.0090465018 0)
(0.020113222 0.007116519 0)
(0.017953908 0.0051139224 0)
(0.017057715 0.0031351719 0)
(0.017384736 0.0012639577 0)
(0.018678562 -0.00046539976 0)
(0.020895575 -0.001777382 0)
(0.023986079 -0.0027983952 0)
(0.027622634 -0.0035063473 0)
(0.03152065 -0.0039090842 0)
(0.035418915 -0.003996715 0)
(0.039096528 -0.0038129268 0)
(0.042338158 -0.0033902642 0)
(0.044989408 -0.0027787316 0)
(0.046917499 -0.0020232663 0)
(0.048020923 -0.0011661311 0)
(0.048315753 -0.00021773362 0)
(0.047898604 0.00076647564 0)
(0.046754609 0.0017376047 0)
(0.04495882 0.0027233171 0)
(0.042699001 0.0036243126 0)
(0.040028408 0.0043661285 0)
(0.036978525 0.0049556498 0)
(0.033651472 0.0054182469 0)
(0.030163241 0.0057540624 0)
(0.026599562 0.005965508 0)
(0.023039882 0.0060626411 0)
(0.019558619 0.006051632 0)
(0.01621297 0.0059428849 0)
(0.013050862 0.0057555309 0)
(0.010122808 0.0055055055 0)
(0.0074662711 0.0051994145 0)
(0.0051014803 0.0048504693 0)
(0.0030415685 0.0044620119 0)
(0.0012875608 0.0040512975 0)
(-0.00017104387 0.0036294321 0)
(-0.0013294863 0.0031992663 0)
(-0.0022008256 0.0027777788 0)
(-0.0028067435 0.0023718267 0)
(-0.0031705641 0.0019797477 0)
(-0.0033357403 0.0016194427 0)
(-0.0033129242 0.0012882984 0)
(-0.00296818 0.001015429 0)
(-0.0030239152 0.00077618135 0)
(-0.0017783533 0.00058738238 0)
(-0.0018637334 0.00044863422 0)
(0.0046256083 -0.0071607056 0)
(0.0086475666 -0.0070188325 0)
(0.012230352 -0.0069538089 0)
(0.015079962 -0.0068471466 0)
(0.018445182 -0.0067727045 0)
(0.021580739 -0.0066816179 0)
(0.024709123 -0.006597901 0)
(0.027820233 -0.0065144548 0)
(0.030909934 -0.0064433587 0)
(0.033976971 -0.0063875969 0)
(0.03702864 -0.0063449192 0)
(0.040072735 -0.0063331374 0)
(0.043109668 -0.0063288483 0)
(0.046157864 -0.0063720758 0)
(0.049228564 -0.0064381366 0)
(0.052325074 -0.0065480289 0)
(0.055461648 -0.0066910303 0)
(0.0586497 -0.0068736074 0)
(0.061901623 -0.0071005637 0)
(0.065225866 -0.0073633776 0)
(0.068635089 -0.0076614962 0)
(0.072144633 -0.0079861978 0)
(0.075758328 -0.0083348068 0)
(0.079471376 -0.0086957371 0)
(0.083289062 -0.0090451047 0)
(0.087211701 -0.0093719707 0)
(0.091223598 -0.0096429905 0)
(0.095296499 -0.0098299057 0)
(0.099390511 -0.0099117367 0)
(0.10346361 -0.009840069 0)
(0.10745556 -0.0095835287 0)
(0.11127113 -0.0091104821 0)
(0.11483112 -0.0083872388 0)
(0.11800967 -0.0073703061 0)
(0.12067936 -0.0060435389 0)
(0.12272158 -0.004383406 0)
(0.12401821 -0.0023607557 0)
(0.12442373 0.00012117409 0)
(0.12383182 0.0028325169 0)
(0.1222039 0.0057567017 0)
(0.11947649 0.0088267275 0)
(0.11562083 0.011939437 0)
(0.1106468 0.015001501 0)
(0.10462815 0.017898085 0)
(0.097665966 0.020491046 0)
(0.089908664 0.022668634 0)
(0.081542267 0.024318817 0)
(0.072775206 0.025333505 0)
(0.063839082 0.025674426 0)
(0.054995578 0.025294584 0)
(0.046483394 0.024186676 0)
(0.038528458 0.022378896 0)
(0.031381762 0.019928412 0)
(0.025272925 0.016929107 0)
(0.020348027 0.013488769 0)
(0.016735684 0.0097833245 0)
(0.014525913 0.005964987 0)
(0.013727704 0.0022126211 0)
(0.014254072 -0.0013223934 0)
(0.01603795 -0.0044632489 0)
(0.018879313 -0.0069228101 0)
(0.022499092 -0.0087515446 0)
(0.02668171 -0.0099041419 0)
(0.031137611 -0.010401168 0)
(0.035572526 -0.01025452 0)
(0.039730746 -0.0095376066 0)
(0.043387839 -0.0083291418 0)
(0.04637151 -0.0067317022 0)
(0.048544878 -0.0048588788 0)
(0.049831699 -0.0028065202 0)
(0.050237924 -0.00063170273 0)
(0.049825783 0.0015483724 0)
(0.048663556 0.0036060144 0)
(0.046776564 0.0055444552 0)
(0.044256129 0.0072835192 0)
(0.041265736 0.0087313302 0)
(0.037936388 0.0098802784 0)
(0.034362168 0.010750911 0)
(0.030634828 0.011354617 0)
(0.026848644 0.011706745 0)
(0.023085703 0.011830117 0)
(0.019418427 0.01174935 0)
(0.015913219 0.01149251 0)
(0.012622525 0.011085437 0)
(0.0095865617 0.010557343 0)
(0.0068410184 0.0099299458 0)
(0.004402235 0.0092208599 0)
(0.0022849908 0.0084512064 0)
(0.00049948526 0.007640001 0)
(-0.00097909528 0.006801188 0)
(-0.0021387461 0.0059608498 0)
(-0.0029897275 0.0051275757 0)
(-0.0035712074 0.0043198036 0)
(-0.0038955649 0.0035483896 0)
(-0.004005736 0.0028332063 0)
(-0.0039004352 0.0021782879 0)
(-0.0034678393 0.0016120949 0)
(-0.0034476738 0.0011184917 0)
(-0.0021029696 0.00072307719 0)
(-0.0020059636 0.00039622581 0)
(0.0046940692 -0.010350589 0)
(0.0087286366 -0.010224866 0)
(0.012312361 -0.010138662 0)
(0.015169702 -0.010017804 0)
(0.018525151 -0.0099147208 0)
(0.021666083 -0.0097957971 0)
(0.024795641 -0.0096869688 0)
(0.027900929 -0.0095836549 0)
(0.030978072 -0.0094854836 0)
(0.034034439 -0.0094072137 0)
(0.037064564 -0.0093475173 0)
(0.040089412 -0.0093145781 0)
(0.043105365 -0.0093094638 0)
(0.04612566 -0.0093446875 0)
(0.049161594 -0.0094179191 0)
(0.052217179 -0.009543446 0)
(0.05531914 -0.00971065 0)
(0.058459592 -0.0099296342 0)
(0.061668262 -0.010203194 0)
(0.064966041 -0.01053097 0)
(0.068350885 -0.010902649 0)
(0.071827556 -0.011317288 0)
(0.075423857 -0.01175799 0)
(0.079153815 -0.012213308 0)
(0.083003543 -0.012654225 0)
(0.086972411 -0.013055848 0)
(0.091059467 -0.013385374 0)
(0.095244218 -0.013607478 0)
(0.099498041 -0.013670452 0)
(0.10377579 -0.013521259 0)
(0.1080029 -0.01310854 0)
(0.11209908 -0.01239253 0)
(0.11599196 -0.011310751 0)
(0.11953772 -0.0098109333 0)
(0.12261444 -0.0078813297 0)
(0.12507354 -0.0054753519 0)
(0.12676038 -0.002616348 0)
(0.12755566 0.00065866735 0)
(0.12733162 0.0043445087 0)
(0.12598712 0.0083690482 0)
(0.12342123 0.012630161 0)
(0.11960536 0.016976333 0)
(0.11454196 0.021253778 0)
(0.10827425 0.025300159 0)
(0.10091256 0.028947072 0)
(0.09260268 0.031996083 0)
(0.083514628 0.034312363 0)
(0.073905654 0.035762863 0)
(0.064054093 0.036267315 0)
(0.054249115 0.035766279 0)
(0.044792456 0.034255542 0)
(0.035948665 0.031764829 0)
(0.028002871 0.028370672 0)
(0.021207146 0.024223812 0)
(0.015791785 0.019448671 0)
(0.011912325 0.014293274 0)
(0.0096431939 0.0089798637 0)
(0.0089790114 0.0037988192 0)
(0.0099054066 -0.0010511247 0)
(0.012311715 -0.0053242354 0)
(0.015901702 -0.0088936363 0)
(0.020375483 -0.011566612 0)
(0.025422329 -0.013263757 0)
(0.030702561 -0.013985455 0)
(0.035892979 -0.013779599 0)
(0.040703799 -0.012743086 0)
(0.044888739 -0.011015011 0)
(0.048258384 -0.0087560866 0)
(0.050687894 -0.0061317033 0)
(0.052128812 -0.0032948972 0)
(0.052579127 -0.00037933005 0)
(0.052067598 0.0024846127 0)
(0.050702906 0.0051400353 0)
(0.048607591 0.0075039358 0)
(0.045869887 0.009564089 0)
(0.042613368 0.01130178 0)
(0.038983158 0.01268168 0)
(0.035102443 0.013693666 0)
(0.031083973 0.014349856 0)
(0.027027231 0.014678378 0)
(0.023022211 0.01470637 0)
(0.019148626 0.014467996 0)
(0.015466525 0.014001092 0)
(0.012024962 0.013345934 0)
(0.0088703813 0.01253725 0)
(0.0060286944 0.011604942 0)
(0.0035203832 0.010583089 0)
(0.0013604757 0.0095013676 0)
(-0.00045782043 0.0083772486 0)
(-0.0019391005 0.0072361107 0)
(-0.0030844005 0.0061126906 0)
(-0.0039163922 0.0050108734 0)
(-0.0044530973 0.0039617478 0)
(-0.0047179582 0.0029787295 0)
(-0.0047597518 0.0020740907 0)
(-0.0045784641 0.0012682798 0)
(-0.0040642671 0.00056170685 0)
(-0.0039450003 -2.7765839e-05 0)
(-0.0025134553 -0.00046321031 0)
(-0.0022187301 -0.00085394869 0)
(0.0047630008 -0.013548782 0)
(0.0088334884 -0.013399877 0)
(0.012430533 -0.013290203 0)
(0.015292673 -0.013138146 0)
(0.018656411 -0.012994765 0)
(0.021799947 -0.012832302 0)
(0.024912749 -0.012683395 0)
(0.028013327 -0.012536563 0)
(0.031079195 -0.012407213 0)
(0.034109416 -0.012295179 0)
(0.037117031 -0.012215846 0)
(0.040109446 -0.012162595 0)
(0.043081977 -0.012157428 0)
(0.04605681 -0.012200285 0)
(0.049042928 -0.012300957 0)
(0.052051362 -0.012451315 0)
(0.055100655 -0.012669784 0)
(0.05818947 -0.012958638 0)
(0.061340438 -0.013303473 0)
(0.064574268 -0.013727871 0)
(0.067904685 -0.014214016 0)
(0.071353304 -0.014749211 0)
(0.074932813 -0.015329477 0)
(0.078651077 -0.015930437 0)
(0.08252581 -0.016531784 0)
(0.086560649 -0.017093395 0)
(0.090748981 -0.017572846 0)
(0.095080929 -0.017917849 0)
(0.099534626 -0.018066214 0)
(0.10407225 -0.017960663 0)
(0.1086235 -0.017526223 0)
(0.11310322 -0.016693845 0)
(0.11744221 -0.015385545 0)
(0.12146428 -0.01354427 0)
(0.12503635 -0.011126756 0)
(0.12800003 -0.0081028753 0)
(0.13015241 -0.004472045 0)
(0.13137049 -0.00026485726 0)
(0.13152362 0.0044826535 0)
(0.13047884 0.0096545568 0)
(0.12809652 0.015100146 0)
(0.12429204 0.020671153 0)
(0.11906063 0.026162313 0)
(0.11245308 0.031354087 0)
(0.1045305 0.036025796 0)
(0.095467516 0.039941465 0)
(0.085504504 0.042887033 0)
(0.074896934 0.044725968 0)
(0.063953068 0.045305635 0)
(0.053019424 0.044568949 0)
(0.042436216 0.042525035 0)
(0.032527959 0.0392027 0)
(0.023670592 0.034695181 0)
(0.016139163 0.029136196 0)
(0.010192138 0.02283505 0)
(0.0060546287 0.01604373 0)
(0.0038639597 0.0090974078 0)
(0.003592327 0.0023104123 0)
(0.0050753267 -0.004018835 0)
(0.0081600863 -0.0096203204 0)
(0.012617316 -0.014175671 0)
(0.0181198 -0.017500573 0)
(0.024256358 -0.019507327 0)
(0.030611992 -0.02017528 0)
(0.036799417 -0.019582638 0)
(0.04247628 -0.017876884 0)
(0.047354862 -0.015255758 0)
(0.051231464 -0.011951129 0)
(0.053976028 -0.0081954921 0)
(0.055538327 -0.0042115361 0)
(0.055951892 -0.00021526511 0)
(0.05526303 0.0036181518 0)
(0.053585673 0.0071696976 0)
(0.051091217 0.010310797 0)
(0.047939023 0.012969254 0)
(0.044270047 0.015134672 0)
(0.040221528 0.016797585 0)
(0.035933612 0.017965646 0)
(0.031534087 0.018667167 0)
(0.027131602 0.018942414 0)
(0.022813878 0.018835667 0)
(0.018664732 0.018396307 0)
(0.01475429 0.017673961 0)
(0.011131388 0.016718951 0)
(0.0078272483 0.015577567 0)
(0.0048761858 0.014293805 0)
(0.0022952811 0.012908044 0)
(8.28986e-05 0.011454708 0)
(-0.0017569097 0.0099672134 0)
(-0.003230834 0.0084805348 0)
(-0.0043484853 0.0070165552 0)
(-0.0051241079 0.0056059015 0)
(-0.0055871018 0.0042606426 0)
(-0.0057686165 0.0030095661 0)
(-0.005703568 0.0018718129 0)
(-0.0053998917 0.00086279385 0)
(-0.0047528055 -1.7404989e-05 0)
(-0.0044692117 -0.00073673314 0)
(-0.0029080035 -0.0012538361 0)
(-0.0024200295 -0.0017291056 0)
(0.0048607381 -0.016794579 0)
(0.0089609044 -0.016608422 0)
(0.012569715 -0.016483295 0)
(0.015454706 -0.016292771 0)
(0.018820784 -0.016112368 0)
(0.021969374 -0.015927391 0)
(0.025083063 -0.015740055 0)
(0.028168854 -0.015561204 0)
(0.031211992 -0.015401606 0)
(0.034218764 -0.015263393 0)
(0.037192508 -0.015157509 0)
(0.040145676 -0.015094243 0)
(0.043068902 -0.015085063 0)
(0.045986434 -0.015128103 0)
(0.048918989 -0.015236725 0)
(0.051862005 -0.015413245 0)
(0.054831046 -0.015677573 0)
(0.057850332 -0.016018734 0)
(0.060928788 -0.016452419 0)
(0.064091463 -0.016959205 0)
(0.067370527 -0.017548363 0)
(0.070757007 -0.018205526 0)
(0.074290266 -0.018933609 0)
(0.078000474 -0.019695758 0)
(0.081888959 -0.020469268 0)
(0.085977279 -0.021211422 0)
(0.090276827 -0.021878075 0)
(0.094788541 -0.022396761 0)
(0.099491812 -0.022694006 0)
(0.10435743 -0.022685358 0)
(0.10932092 -0.022270201 0)
(0.11430285 -0.021370604 0)
(0.11921724 -0.019857814 0)
(0.12388624 -0.017676282 0)
(0.12816069 -0.014733213 0)
(0.13184629 -0.011001761 0)
(0.13471977 -0.0064426074 0)
(0.13661947 -0.0010984943 0)
(0.13733709 0.0049554124 0)
(0.13665973 0.01156528 0)
(0.13445634 0.018539566 0)
(0.13064873 0.025674965 0)
(0.12517316 0.032724815 0)
(0.11806124 0.039405986 0)
(0.10940821 0.045416298 0)
(0.099370796 0.050485428 0)
(0.088213226 0.054315594 0)
(0.076256978 0.056716335 0)
(0.06384638 0.057507416 0)
(0.051434148 0.056614908 0)
(0.039409391 0.054038243 0)
(0.028132698 0.049818429 0)
(0.017983391 0.04401752 0)
(0.0094199947 0.036870911 0)
(0.0027914496 0.028785705 0)
(-0.0017366465 0.020024107 0)
(-0.0040264114 0.011024186 0)
(-0.0041183043 0.0021035371 0)
(-0.002037049 -0.0062562053 0)
(0.0021191561 -0.013636712 0)
(0.0079601694 -0.019655221 0)
(0.014961616 -0.023963206 0)
(0.022646371 -0.026461679 0)
(0.030512184 -0.02714809 0)
(0.038073924 -0.026149826 0)
(0.044920943 -0.023685232 0)
(0.050720545 -0.020041454 0)
(0.055244914 -0.015537197 0)
(0.058374905 -0.010498884 0)
(0.060069238 -0.0052313861 0)
(0.060369315 -9.9362505e-06 0)
(0.059408221 0.0049319485 0)
(0.057347271 0.00944399 0)
(0.054356831 0.013406208 0)
(0.050640457 0.016737727 0)
(0.04638505 0.019395023 0)
(0.041756251 0.021384105 0)
(0.03691558 0.022733004 0)
(0.032007687 0.023489104 0)
(0.027148424 0.023705757 0)
(0.02243526 0.023449078 0)
(0.017952301 0.022789094 0)
(0.013761082 0.021790743 0)
(0.0099081453 0.020512873 0)
(0.0064303414 0.019017629 0)
(0.0033496103 0.017363387 0)
(0.00067768113 0.015589534 0)
(-0.0015797805 0.013749558 0)
(-0.0034278806 0.01188552 0)
(-0.0048832356 0.010027714 0)
(-0.0059513407 0.0082136035 0)
(-0.0066626873 0.006471886 0)
(-0.0070389679 0.0048157428 0)
(-0.0070974449 0.0032784247 0)
(-0.006899261 0.0018819585 0)
(-0.0064579585 0.00063447568 0)
(-0.0056545242 -0.00044196113 0)
(-0.0051813369 -0.0013636355 0)
(-0.0034833567 -0.0020190763 0)
(-0.00272118 -0.0026350873 0)
(0.0049800038 -0.02020597 0)
(0.0091237328 -0.019971992 0)
(0.012753634 -0.019820214 0)
(0.01566434 -0.019577471 0)
(0.019023644 -0.019357398 0)
(0.022177929 -0.019123961 0)
(0.025284855 -0.018889406 0)
(0.028358344 -0.018669663 0)
(0.031386062 -0.018460381 0)
(0.034364081 -0.018285324 0)
(0.03729818 -0.018145784 0)
(0.040195905 -0.0180548 0)
(0.043064692 -0.018026363 0)
(0.045925039 -0.01805736 0)
(0.048780821 -0.018169446 0)
(0.051636963 -0.018377553 0)
(0.054524852 -0.018672079 0)
(0.057448346 -0.01906299 0)
(0.060438083 -0.01957479 0)
(0.063520065 -0.020172596 0)
(0.066704008 -0.020884303 0)
(0.070017904 -0.021699753 0)
(0.073496226 -0.022589932 0)
(0.077171105 -0.023544505 0)
(0.081067105 -0.024541903 0)
(0.085210277 -0.025515526 0)
(0.089623581 -0.026419484 0)
(0.094326623 -0.02717272 0)
(0.099312025 -0.027687749 0)
(0.10457071 -0.027854567 0)
(0.11002467 -0.027561006 0)
(0.11561613 -0.026666103 0)
(0.12124877 -0.025041422 0)
(0.12671579 -0.022580253 0)
(0.13185947 -0.019160506 0)
(0.13646453 -0.014738605 0)
(0.14024948 -0.0092735926 0)
(0.14297478 -0.0028141589 0)
(0.14439871 0.0045603247 0)
(0.14427906 0.012662312 0)
(0.14242434 0.021321232 0)
(0.13869224 0.030265011 0)
(0.13299188 0.039154312 0)
(0.12531823 0.047629929 0)
(0.11575191 0.055299994 0)
(0.10447769 0.061778942 0)
(0.091811208 0.066727344 0)
(0.078130354 0.069847201 0)
(0.063851117 0.070947568 0)
(0.049507419 0.069901386 0)
(0.035563663 0.066698535 0)
(0.022417742 0.061376454 0)
(0.010609985 0.053982549 0)
(0.00077215629 0.045005416 0)
(-0.0068109614 0.034697202 0)
(-0.011884853 0.023491738 0)
(-0.014251918 0.011921148 0)
(-0.0138923 0.00050999728 0)
(-0.01087353 -0.010085244 0)
(-0.0054573585 -0.019355582 0)
(0.0020627787 -0.026908374 0)
(0.011083482 -0.032318203 0)
(0.020847205 -0.035260968 0)
(0.030707825 -0.035813678 0)
(0.040065614 -0.034165979 0)
(0.048413125 -0.030638435 0)
(0.055359047 -0.025640679 0)
(0.06065482 -0.019607625 0)
(0.064183429 -0.012979774 0)
(0.065941076 -0.0061684902 0)
(0.066031445 0.00049008542 0)
(0.064633734 0.0067149388 0)
(0.061978296 0.012289187 0)
(0.05830693 0.017092532 0)
(0.053853562 0.021061591 0)
(0.048846197 0.024165926 0)
(0.043491958 0.026425587 0)
(0.037972725 0.027891562 0)
(0.032443867 0.028629991 0)
(0.027031839 0.028718464 0)
(0.021841606 0.02824447 0)
(0.016955571 0.027293366 0)
(0.012431994 0.025945141 0)
(0.0083165685 0.024281093 0)
(0.004640336 0.022373565 0)
(0.0014146203 0.020288619 0)
(-0.0013482086 0.018067012 0)
(-0.0036462337 0.015797735 0)
(-0.0055006488 0.013509077 0)
(-0.0069222512 0.011240911 0)
(-0.0079217683 0.0090315247 0)
(-0.0085376586 0.0069170816 0)
(-0.0087944921 0.004925558 0)
(-0.0087149125 0.003074445 0)
(-0.0083592992 0.0013931221 0)
(-0.0077315203 -0.0001040424 0)
(-0.0067571825 -0.0013879384 0)
(-0.0060598506 -0.0025038878 0)
(-0.0041650998 -0.0032766009 0)
(-0.0030770561 -0.0040410102 0)
(0.0051291104 -0.023571336 0)
(0.0093198021 -0.023286695 0)
(0.012969199 -0.023108557 0)
(0.015913935 -0.022816647 0)
(0.019271256 -0.02255263 0)
(0.022437709 -0.022263581 0)
(0.025537414 -0.021980888 0)
(0.02859898 -0.02170181 0)
(0.031599445 -0.021445219 0)
(0.034538323 -0.02121801 0)
(0.037430682 -0.021044869 0)
(0.040276833 -0.02091879 0)
(0.043082666 -0.020862022 0)
(0.045863954 -0.020876733 0)
(0.048624277 -0.02099449 0)
(0.051391174 -0.021212276 0)
(0.054184212 -0.021539348 0)
(0.056992449 -0.021984179 0)
(0.059870767 -0.022556744 0)
(0.06284054 -0.023259641 0)
(0.065909193 -0.024094237 0)
(0.06912399 -0.025060006 0)
(0.072524153 -0.026145659 0)
(0.07613237 -0.02731818 0)
(0.080006091 -0.028567996 0)
(0.084190266 -0.029831443 0)
(0.088710433 -0.031050601 0)
(0.093608801 -0.032138757 0)
(0.098897862 -0.032978079 0)
(0.10457542 -0.03344456 0)
(0.11060951 -0.033401178 0)
(0.11693351 -0.032645848 0)
(0.12342503 -0.031036467 0)
(0.12990038 -0.028403097 0)
(0.13615433 -0.024579389 0)
(0.14191049 -0.01947541 0)
(0.14684138 -0.013060678 0)
(0.15066068 -0.0053584793 0)
(0.15302417 0.0035160925 0)
(0.15363123 0.013378653 0)
(0.15226731 0.024000661 0)
(0.14869059 0.035051841 0)
(0.14274625 0.046121064 0)
(0.13440758 0.056727707 0)
(0.12374533 0.066379188 0)
(0.11096746 0.074569025 0)
(0.096429566 0.080887722 0)
(0.080588339 0.08492846 0)
(0.063954591 0.086463139 0)
(0.0471677 0.085274168 0)
(0.030802208 0.081391245 0)
(0.015291099 0.074762371 0)
(0.0014567666 0.065690397 0)
(-0.01003275 0.054542274 0)
(-0.018915467 0.04160073 0)
(-0.024724403 0.027511524 0)
(-0.027244128 0.012880733 0)
(-0.026371854 -0.0015650581 0)
(-0.022159505 -0.015057678 0)
(-0.014961764 -0.026860974 0)
(-0.0052571847 -0.03629875 0)
(0.0063593482 -0.042935674 0)
(0.018905596 -0.046371833 0)
(0.031377165 -0.046629313 0)
(0.043042401 -0.044032521 0)
(0.053268728 -0.039053899 0)
(0.061602622 -0.032268767 0)
(0.067779526 -0.024279898 0)
(0.071705454 -0.015672105 0)
(0.073439154 -0.0069648451 0)
(0.073150993 0.001411588 0)
(0.071101429 0.0091027393 0)
(0.067616071 0.015890147 0)
(0.063020269 0.021633882 0)
(0.057606697 0.026271856 0)
(0.05164549 0.029806779 0)
(0.045384014 0.032286093 0)
(0.039028171 0.033792316 0)
(0.032749728 0.034424734 0)
(0.026686016 0.034290513 0)
(0.020941592 0.033502616 0)
(0.015592113 0.032168751 0)
(0.010695294 0.030390653 0)
(0.006291233 0.02826453 0)
(0.0023995054 0.025874639 0)
(-0.00098798811 0.023289057 0)
(-0.0038366184 0.020590588 0)
(-0.0061554819 0.017840628 0)
(-0.007997711 0.015087711 0)
(-0.0093701407 0.012380882 0)
(-0.010281092 0.0097601827 0)
(-0.010771737 0.0072576846 0)
(-0.010881532 0.0049032934 0)
(-0.010629563 0.0027287749 0)
(-0.0100769 0.00076224024 0)
(-0.0092338331 -0.00098647992 0)
(-0.0080489093 -0.0025006814 0)
(-0.0070751527 -0.0037970971 0)
(-0.0049950391 -0.0046758424 0)
(-0.0035258686 -0.0056389918 0)
(0.0053049227 -0.026986305 0)
(0.0095584971 -0.026641631 0)
(0.013229995 -0.026422544 0)
(0.016218536 -0.026078163 0)
(0.019574971 -0.025747517 0)
(0.022751808 -0.025400919 0)
(0.025849051 -0.025055116 0)
(0.028896523 -0.024711201 0)
(0.031874644 -0.024394624 0)
(0.034771719 -0.024105274 0)
(0.037608444 -0.023871754 0)
(0.040393862 -0.02369942 0)
(0.04312699 -0.023607981 0)
(0.045818229 -0.023607051 0)
(0.04847727 -0.023710309 0)
(0.051130384 -0.023927633 0)
(0.053798563 -0.024281349 0)
(0.056484193 -0.02477448 0)
(0.059224037 -0.025410505 0)
(0.062051671 -0.026210741 0)
(0.064980603 -0.027181751 0)
(0.068051365 -0.028319908 0)
(0.071329264 -0.029606974 0)
(0.074844798 -0.031045369 0)
(0.078654383 -0.032586437 0)
(0.082830973 -0.034209835 0)
(0.087421385 -0.035845116 0)
(0.092504507 -0.037374224 0)
(0.098114218 -0.038677038 0)
(0.10426388 -0.03959751 0)
(0.11095409 -0.039954867 0)
(0.11812358 -0.039528059 0)
(0.12564688 -0.038081789 0)
(0.13334508 -0.035399187 0)
(0.14098059 -0.031260187 0)
(0.14819977 -0.025527901 0)
(0.15460369 -0.018116157 0)
(0.15979957 -0.0090684391 0)
(0.16338775 0.0014693108 0)
(0.16501148 0.013344191 0)
(0.16433755 0.026272003 0)
(0.16104545 0.039839929 0)
(0.15489078 0.053537941 0)
(0.14578852 0.066788317 0)
(0.13379506 0.078913504 0)
(0.11917041 0.089289536 0)
(0.10233666 0.097348995 0)
(0.083831713 0.10258977 0)
(0.064260714 0.10468991 0)
(0.044409613 0.10344357 0)
(0.024947145 0.098819732 0)
(0.0065484862 0.090720182 0)
(-0.0097960177 0.079677838 0)
(-0.023532032 0.065819637 0)
(-0.034079114 0.049676767 0)
(-0.040861368 0.031996409 0)
(-0.043603808 0.013609335 0)
(-0.042106364 -0.0045945749 0)
(-0.036448394 -0.021671418 0)
(-0.026984626 -0.036664831 0)
(-0.014297281 -0.048530966 0)
(0.00071913183 -0.056615722 0)
(0.016861077 -0.060573336 0)
(0.032770551 -0.060239106 0)
(0.047388762 -0.056225343 0)
(0.059955967 -0.049246385 0)
(0.069944128 -0.040094179 0)
(0.077089833 -0.029583811 0)
(0.081361269 -0.018480935 0)
(0.082902878 -0.0074487848 0)
(0.081979514 0.0029685711 0)
(0.078990375 0.012378025 0)
(0.074385868 0.020519163 0)
(0.068566261 0.027263812 0)
(0.061907024 0.03257581 0)
(0.054744803 0.036497929 0)
(0.047367089 0.039122135 0)
(0.040006891 0.040575841 0)
(0.032844846 0.041000387 0)
(0.026021022 0.040538704 0)
(0.019640847 0.039333791 0)
(0.013774125 0.03751961 0)
(0.0084676219 0.035220822 0)
(0.0037501637 0.032546803 0)
(-0.00037674962 0.029598955 0)
(-0.0039028429 0.026439923 0)
(-0.0068227804 0.023213744 0)
(-0.0091692765 0.019930366 0)
(-0.010975198 0.01666628 0)
(-0.012260271 0.013475152 0)
(-0.013051924 0.010406482 0)
(-0.013399355 0.0074825603 0)
(-0.013325654 0.0047472177 0)
(-0.01285771 0.002225429 0)
(-0.01207575 -5.3734497e-05 0)
(-0.010991141 -0.0020723766 0)
(-0.0095645865 -0.0038070353 0)
(-0.0082426716 -0.0053312774 0)
(-0.0059824037 -0.0063094667 0)
(-0.0040851309 -0.0074917632 0)
(0.0055201759 -0.030458647 0)
(0.009853908 -0.030038801 0)
(0.013539604 -0.029778957 0)
(0.01658826 -0.02936419 0)
(0.019947763 -0.028967682 0)
(0.023133941 -0.028546113 0)
(0.026231612 -0.028121701 0)
(0.029264185 -0.027704998 0)
(0.032212536 -0.027310244 0)
(0.035072009 -0.026959344 0)
(0.037850775 -0.026646186 0)
(0.040559784 -0.026420496 0)
(0.043199575 -0.026275757 0)
(0.045792484 -0.026239045 0)
(0.048341697 -0.026322057 0)
(0.050865187 -0.026531292 0)
(0.053390562 -0.026886159 0)
(0.055925215 -0.027421931 0)
(0.058506238 -0.028122861 0)
(0.061150995 -0.029019277 0)
(0.063890823 -0.030115832 0)
(0.066797922 -0.031425784 0)
(0.069906419 -0.032927539 0)
(0.073268002 -0.034668162 0)
(0.076963035 -0.036557789 0)
(0.081058684 -0.038611366 0)
(0.085676337 -0.040733666 0)
(0.090909424 -0.04282958 0)
(0.096812294 -0.044759022 0)
(0.10344725 -0.046327798 0)
(0.11084921 -0.047300848 0)
(0.11899142 -0.047409102 0)
(0.1277505 -0.046345604 0)
(0.13693653 -0.043819508 0)
(0.14625989 -0.039520966 0)
(0.15531427 -0.03323369 0)
(0.16358659 -0.024785913 0)
(0.17055429 -0.014288546 0)
(0.17575418 -0.0018561078 0)
(0.17874664 0.012335458 0)
(0.17906396 0.027957041 0)
(0.17624226 0.044547852 0)
(0.16996119 0.061473586 0)
(0.16003098 0.077983855 0)
(0.14647697 0.093217313 0)
(0.12961209 0.10634817 0)
(0.10991668 0.11662077 0)
(0.088074618 0.12340923 0)
(0.064877483 0.1262848 0)
(0.041256736 0.12501639 0)
(0.017939613 0.11957552 0)
(-0.0040575947 0.10992726 0)
(-0.023662572 0.096390773 0)
(-0.040289597 0.079279211 0)
(-0.053013023 0.059321058 0)
(-0.061087517 0.037302276 0)
(-0.064154782 0.01424261 0)
(-0.061992188 -0.0087362857 0)
(-0.05457542 -0.030384493 0)
(-0.042176173 -0.049404492 0)
(-0.025570139 -0.064465662 0)
(-0.0060565533 -0.074458604 0)
(0.014922524 -0.078808493 0)
(0.035374575 -0.077427833 0)
(0.053728034 -0.071317677 0)
(0.069132811 -0.061548644 0)
(0.081032793 -0.04924949 0)
(0.089193368 -0.03549261 0)
(0.093671328 -0.021243587 0)
(0.094738311 -0.0073475505 0)
(0.092830858 0.0055051035 0)
(0.088503493 0.016895262 0)
(0.08235419 0.026522513 0)
(0.074932374 0.034295835 0)
(0.066700917 0.04024177 0)
(0.058057846 0.044461329 0)
(0.04933474 0.0471103 0)
(0.040787648 0.048374119 0)
(0.032603104 0.048445822 0)
(0.024919089 0.047516632 0)
(0.017832406 0.045764052 0)
(0.011399859 0.043348412 0)
(0.0056540971 0.040415673 0)
(0.00061133507 0.037093555 0)
(-0.003755251 0.033490766 0)
(-0.00741229 0.029719971 0)
(-0.010378188 0.025867314 0)
(-0.012728688 0.021995818 0)
(-0.014473235 0.018170786 0)
(-0.015644707 0.01445097 0)
(-0.016284695 0.010885014 0)
(-0.016438612 0.0075059527 0)
(-0.016142787 0.0043659968 0)
(-0.015433503 0.0014702713 0)
(-0.014376988 -0.0011391052 0)
(-0.012984996 -0.0034525286 0)
(-0.011304896 -0.0054086691 0)
(-0.0095859498 -0.0071836682 0)
(-0.0071326771 -0.0082598442 0)
(-0.0047574084 -0.0096495029 0)
(0.0057776626 -0.033993599 0)
(0.010205906 -0.03348181 0)
(0.013911337 -0.03318039 0)
(0.017028749 -0.032677057 0)
(0.020392401 -0.032204835 0)
(0.023602172 -0.031698228 0)
(0.026695221 -0.031181731 0)
(0.029714347 -0.030674009 0)
(0.032628042 -0.030184996 0)
(0.035448268 -0.029744064 0)
(0.038163707 -0.029356598 0)
(0.040786206 -0.029049808 0)
(0.043336804 -0.028841548 0)
(0.045807297 -0.028744797 0)
(0.048228615 -0.028790307 0)
(0.050618697 -0.028985726 0)
(0.052970168 -0.029347693 0)
(0.055320268 -0.029892449 0)
(0.057710235 -0.030655451 0)
(0.060153452 -0.031638428 0)
(0.062680824 -0.032851673 0)
(0.065357633 -0.034319122 0)
(0.06821556 -0.036061264 0)
(0.071354203 -0.038100714 0)
(0.074859527 -0.040384297 0)
(0.078810843 -0.042941408 0)
(0.083364579 -0.045667461 0)
(0.088645889 -0.048478186 0)
(0.094791221 -0.051220894 0)
(0.10191436 -0.053669678 0)
(0.11009103 -0.055527488 0)
(0.11931788 -0.056460324 0)
(0.12949286 -0.056064211 0)
(0.14044423 -0.053984211 0)
(0.15185816 -0.049758798 0)
(0.16324817 -0.042973548 0)
(0.17389294 -0.033511401 0)
(0.18310963 -0.021435265 0)
(0.1904097 -0.0068947651 0)
(0.19522398 0.0099390037 0)
(0.19693723 0.028745026 0)
(0.19492702 0.048996425 0)
(0.18866673 0.069926587 0)
(0.17784604 0.090513988 0)
(0.16245089 0.10966333 0)
(0.14283645 0.12625427 0)
(0.11962428 0.13932752 0)
(0.09367094 0.14809727 0)
(0.065954557 0.1520472 0)
(0.037649721 0.15085028 0)
(0.0096689062 0.14447248 0)
(-0.016875839 0.13301703 0)
(-0.04071694 0.11653104 0)
(-0.060913604 0.095582758 0)
(-0.076405555 0.070955497 0)
(-0.086320169 0.043623956 0)
(-0.090042005 0.014785078 0)
(-0.087159703 -0.01418138 0)
(-0.077559497 -0.041687085 0)
(-0.061504738 -0.065989913 0)
(-0.039802351 -0.085262522 0)
(-0.014101593 -0.09776814 0)
(0.013443686 -0.10246774 0)
(0.039840686 -0.099208642 0)
(0.06290184 -0.089987025 0)
(0.081702249 -0.076345615 0)
(0.095718559 -0.059857429 0)
(0.10485011 -0.041911492 0)
(0.1092934 -0.023706515 0)
(0.10946351 -0.0062872285 0)
(0.10604246 0.009485652 0)
(0.099828418 0.023076422 0)
(0.09160985 0.03430509 0)
(0.082113713 0.043121797 0)
(0.071907711 0.04961368 0)
(0.061457234 0.05397778 0)
(0.051132982 0.056469175 0)
(0.041205685 0.057352222 0)
(0.031861675 0.056885133 0)
(0.023224958 0.055311654 0)
(0.015370848 0.052847752 0)
(0.0083368387 0.049683584 0)
(0.0021364543 0.045985519 0)
(-0.0032392762 0.04190436 0)
(-0.007803833 0.037553096 0)
(-0.011570019 0.033082598 0)
(-0.014582607 0.028530294 0)
(-0.016894444 0.024003297 0)
(-0.018542103 0.019564821 0)
(-0.019562125 0.015271547 0)
(-0.020008477 0.011174333 0)
(-0.019925979 0.0073073506 0)
(-0.019364701 0.0037243883 0)
(-0.018365244 0.00043215465 0)
(-0.016999358 -0.0025193913 0)
(-0.015257412 -0.0051452916 0)
(-0.013290679 -0.0073521887 0)
(-0.011098984 -0.0093677745 0)
(-0.0084262428 -0.010550867 0)
(-0.0055300706 -0.012143892 0)
(0.0060909822 -0.037602265 0)
(0.010631062 -0.036973525 0)
(0.014350682 -0.03662532 0)
(0.017561925 -0.036031236 0)
(0.020925347 -0.035458452 0)
(0.024161603 -0.034856813 0)
(0.027261113 -0.034232804 0)
(0.030268134 -0.033617576 0)
(0.033152423 -0.033016239 0)
(0.035914508 -0.032471832 0)
(0.038564279 -0.031989021 0)
(0.041099693 -0.03158784 0)
(0.043536489 -0.031294088 0)
(0.045884153 -0.031129897 0)