/*--------------------------------*- C++ -*----------------------------------*\
  =========                 |
  \\      /  F ield         | OpenFOAM: The Open Source CFD Toolbox
   \\    /   O peration     | Website:  https://openfoam.org
    \\  /    A nd           | Version:  9
     \\/     M anipulation  |
\*---------------------------------------------------------------------------*/
FoamFile
{
    format      ascii;
    class       surfaceScalarField;
    location    "0.17";
    object      alphaPhi0.phase1;
}
// * * * * * * * * * * * * * * * * * * * * * * * * * * * * * * * * * * * * * //

dimensions      [0 3 -1 0 0 0 0];

internalField   nonuniform List<scalar> 
19800
(
3.3214226e-119
-7.0178991e-120
1.2281167e-118
-1.0542968e-119
3.3324058e-115
-7.3999559e-117
1.6478067e-112
-2.869896e-114
5.7805349e-110
-7.8715305e-112
1.5672755e-107
-1.7646253e-109
3.4555054e-105
-3.4428286e-107
6.4076835e-103
-5.9968332e-105
1.0233786e-100
-9.3627425e-103
1.4336306e-98
-1.3673248e-100
1.7869893e-96
-1.8898689e-98
2.0037713e-94
-2.3982989e-96
2.0398669e-92
-2.8112916e-94
1.8999358e-90
-3.038637e-92
1.6296661e-88
-3.0300552e-90
1.2938062e-86
-2.7645589e-88
9.574436e-85
-2.4340052e-86
6.6265592e-83
-1.942551e-84
4.3070571e-81
-1.4305781e-82
2.6402203e-79
-9.8896804e-81
1.5326008e-77
-6.4457212e-79
8.4311329e-76
-3.8937397e-77
4.4212189e-74
-2.1874896e-75
2.2150618e-72
-1.1396059e-73
1.0638958e-70
-5.5681326e-72
4.9208792e-69
-2.5539509e-70
2.2094372e-67
-1.1295419e-68
9.7539857e-66
-4.7869462e-67
4.3155002e-64
-2.0035175e-65
1.9397373e-62
-8.3875554e-64
8.745359e-61
-3.4852814e-62
3.7748059e-59
-1.377419e-60
1.5031927e-57
-4.9774826e-59
5.44302e-56
-1.5703127e-57
1.7832169e-54
-4.3124141e-56
5.2397168e-53
-9.8034585e-55
1.3644968e-51
-1.6637596e-53
3.1147527e-50
-1.6211742e-52
6.1733125e-49
7.184426e-52
1.0449984e-47
5.4680889e-50
1.4585597e-46
1.4837816e-48
1.65068e-45
2.7822578e-47
1.515992e-44
3.816842e-46
1.1163372e-43
3.9789243e-45
6.215797e-43
3.1207815e-44
2.5169345e-42
1.8149175e-43
7.5765428e-42
8.2314698e-43
1.6099934e-41
2.9787906e-42
1.8597637e-41
8.1718846e-42
-3.3064787e-42
1.670459e-41
-2.2998073e-41
1.6671775e-41
-1.7539811e-41
8.179959e-42
-7.7440799e-42
2.9432138e-42
-2.3518658e-42
7.9329075e-43
-4.9811639e-43
1.6272645e-43
-6.2621326e-44
2.4143651e-44
-3.7553861e-45
2.1479419e-45
-9.3479538e-47
9.1341148e-47
-8.9343914e-49
1.5794723e-48
-5.298775e-51
9.5420791e-51
-6.0883899e-54
3.2030309e-53
-4.8491596e-57
1.1086606e-56
-1.6520157e-60
-9.9092023e-60
-3.1160481e-62
-8.7013807e-63
-6.9659515e-63
-2.6064184e-64
-4.6626919e-65
-7.5086458e-65
-7.0135719e-65
-2.1344379e-64
-5.6200594e-65
-9.7241227e-64
-2.3902542e-65
-3.9449663e-64
-8.1446893e-66
-8.6996132e-67
-1.3206221e-66
-2.6039569e-67
-4.4673271e-68
-6.5912592e-68
-5.1498606e-70
-6.7411918e-69
-8.5179745e-72
-8.4250016e-71
-1.9343035e-73
-5.9071137e-73
-4.3300528e-75
-1.1311074e-74
-9.0993481e-77
-2.4508074e-76
-1.8054012e-78
-4.9469589e-78
-3.387981e-80
-9.2099092e-80
-6.0032716e-82
-1.571809e-81
-1.0017498e-83
-2.5077492e-83
-1.5726501e-85
-3.7027893e-85
-2.3114131e-87
-5.1888553e-87
-3.169235e-89
-6.7313651e-89
-4.0404882e-91
-7.9600379e-91
-4.7653902e-93
-8.7571678e-93
-5.1665461e-95
-9.0957775e-95
-5.1191685e-97
-8.6556549e-97
-4.6011682e-99
-7.5841111e-99
-3.7178781e-101
-6.1357516e-101
-2.67107e-103
-4.5851928e-103
-1.6827607e-105
-3.1548483e-105
-9.1324684e-108
-1.9915521e-107
-4.1698301e-110
-1.1327714e-109
-1.548262e-112
-5.8469804e-112
-4.4462509e-115
-2.5669622e-114
-9.076616e-118
-8.8140447e-117
-3.5065912e-121
-2.2362898e-119
-9.6823335e-122
-3.1358091e-122
-1.9410067e-122
3.5187813e-119
-1.0340291e-118
1.9450786e-116
-1.7044003e-116
2.4434608e-113
-1.1422141e-113
1.6206069e-110
-5.1449847e-111
6.7275281e-108
-1.7546898e-108
2.0425853e-105
-4.654834e-106
4.8898297e-103
-9.506063e-104
9.6677358e-101
-1.6322791e-101
1.6283677e-98
-2.4393943e-99
2.3882822e-96
-3.2387332e-97
3.1002348e-94
-3.8710429e-95
3.6084545e-92
-4.2119187e-93
3.8061321e-90
-4.2143308e-91
3.6685056e-88
-3.8973636e-89
3.2539491e-86
-3.3491529e-87
2.6760308e-84
-2.7061267e-85
2.0489318e-82
-2.0540629e-83
1.4663509e-80
-1.4575783e-81
9.8569319e-79
-9.7462252e-80
6.2584832e-77
-6.2230456e-78
3.754188e-75
-3.723145e-76
2.1404687e-73
-2.1241148e-74
1.1606257e-71
-1.1371673e-72
6.0149022e-70
-5.7735391e-71
2.9892563e-68
-2.78426e-69
1.4290687e-66
-1.2701456e-67
6.6320852e-65
-5.5585216e-66
3.0223141e-63
-2.3583446e-64
1.368084e-61
-9.6752298e-63
6.2363844e-60
-3.9254341e-61
2.8333611e-58
-1.5505477e-59
1.2308283e-56
-5.6485864e-58
4.9257888e-55
-1.783522e-56
1.7896929e-53
-4.4639501e-55
5.8665048e-52
-7.1831262e-54
1.7274941e-50
1.1736225e-53
4.5817943e-49
7.0512156e-51
1.0618028e-47
3.3035205e-49
2.1165334e-46
1.0477635e-47
3.5620515e-45
2.5357557e-46
4.9480485e-44
4.8247653e-45
5.5610286e-43
7.2497133e-44
4.9769512e-42
8.6016739e-43
3.4469713e-41
7.9217641e-42
1.6881345e-40
5.3322191e-41
5.0499516e-40
2.3402937e-40
8.8146425e-40
6.3831506e-40
1.0515148e-39
1.256394e-39
8.871302e-40
2.3916226e-39
-1.2970861e-40
3.7435352e-39
-1.0963045e-39
3.7477506e-39
-1.1751493e-39
2.4023893e-39
-9.3404216e-40
1.2675826e-39
-5.1232546e-40
6.3080165e-40
-1.5173834e-40
2.2446159e-40
-2.0751848e-41
4.4985351e-41
-1.3182887e-42
4.4268301e-42
-3.5953029e-44
2.1107288e-43
-4.3887762e-46
4.3840125e-45
-2.1597697e-48
4.0328814e-47
-2.8103831e-51
1.4601033e-49
-1.254109e-54
1.3387728e-52
-5.0116014e-58
3.6987962e-56
-1.7043646e-60
7.3989476e-60
-3.939812e-62
2.9613962e-64
-6.0654162e-63
-6.3199263e-64
-5.0405498e-62
-2.6277945e-64
-6.7371099e-62
-4.2178797e-63
-2.3381071e-62
-4.6161912e-62
-2.6836284e-63
-1.9962739e-62
-5.5259482e-64
-2.3019087e-64
-3.5618185e-65
-4.3365721e-65
-3.8141395e-67
-2.11786e-66
-3.4799576e-69
-2.3296645e-68
-6.5237734e-71
-2.8285564e-70
-1.3757974e-72
-5.9853719e-72
-2.7678175e-74
-1.3282319e-73
-5.2549817e-76
-2.761457e-75
-9.4548215e-78
-5.3362116e-77
-1.6125924e-79
-9.6351952e-79
-2.5904896e-81
-1.65404e-80
-3.9186912e-83
-2.6456694e-82
-5.56195e-85
-4.0144911e-84
-7.364881e-87
-5.7609901e-86
-9.0585494e-89
-7.7189486e-88
-1.0313895e-90
-9.6327546e-90
-1.0802802e-92
-1.127643e-91
-1.032916e-94
-1.2290146e-93
-8.9423978e-97
-1.2363274e-95
-6.9386379e-99
-1.140889e-97
-4.7648981e-101
-9.5776621e-100
-2.8483231e-103
-7.243756e-102
-1.4499345e-105
-4.8644873e-104
-6.0958012e-108
-2.8392773e-106
-2.0223306e-110
-1.3914028e-108
-4.9234811e-113
-5.1103038e-111
-7.5649749e-116
-1.5747464e-113
-6.5295466e-119
-3.6372138e-116
-9.9227346e-122
-5.6106581e-119
-2.9121288e-121
1.2581219e-117
-1.3665533e-116
2.6991887e-114
-4.6292467e-114
3.519645e-111
-3.3002849e-111
2.2306195e-108
-1.4537343e-108
9.8435175e-106
-4.7459964e-106
3.239321e-103
-1.2546792e-103
8.2000796e-101
-2.8579317e-101
1.6891248e-98
-5.3376199e-99
2.9372838e-96
-8.2364447e-97
4.4216802e-94
-1.1160652e-94
5.8698974e-92
-1.3529977e-92
6.969217e-90
-1.4857443e-90
7.4827838e-88
-1.4921548e-88
7.3324238e-86
-1.3814113e-86
6.6121154e-84
-1.1891783e-84
5.5148376e-82
-9.5243111e-83
4.2776197e-80
-7.1371565e-81
3.1006214e-78
-5.0131811e-79
2.1123923e-76
-3.3315062e-77
1.3564622e-74
-2.0937732e-75
8.2291187e-73
-1.2374281e-73
4.7405966e-71
-6.966611e-72
2.5953464e-69
-3.6922946e-70
1.3580218e-67
-1.8672987e-68
6.7965536e-66
-8.9266789e-67
3.2725423e-64
-4.0650025e-65
1.5294763e-62
-1.7730088e-63
7.0075868e-61
-7.4672816e-62
3.179772e-59
-3.0396409e-60
1.4448291e-57
-1.2093574e-58
6.5381969e-56
-4.6429023e-57
2.8421506e-54
-1.6189418e-55
1.1372874e-52
-4.724994e-54
4.1240757e-51
-1.0138337e-52
1.3440587e-49
-5.910628e-52
3.9845125e-48
6.4681166e-50
1.0481364e-46
4.090607e-48
2.403262e-45
1.5554705e-46
4.7319216e-44
4.4652139e-45
7.8520682e-43
1.0136477e-43
1.073562e-41
1.8420317e-42
1.1851659e-40
2.6601464e-41
1.0417843e-39
3.0341164e-40
7.1031111e-39
2.7133774e-39
3.4589339e-38
1.797865e-38
1.0488606e-37
7.9193639e-38
1.8798817e-37
2.206008e-37
2.2808927e-37
4.4278713e-37
1.9400725e-37
8.4197856e-37
-2.7518388e-38
1.3728155e-36
-2.370687e-37
1.3734197e-36
-2.532634e-37
8.4445998e-37
-1.9854438e-37
4.4542757e-37
-1.0632141e-37
2.174138e-37
-3.128334e-38
7.5819739e-38
-4.4138838e-39
1.5243661e-38
-3.0245708e-40
1.562902e-39
-9.3787606e-42
8.1249168e-41
-1.3521905e-43
1.9445464e-42
-8.0697627e-46
2.166433e-44
-1.5385721e-48
9.7896075e-47
-1.2490981e-51
1.3690026e-49
-8.4324483e-55
7.6701133e-53
-3.4701934e-57
3.0815241e-56
-1.206497e-58
5.2054903e-59
-1.3629507e-59
-2.5106848e-60
-1.1154448e-58
-5.7833531e-61
-1.09909e-58
-9.6243042e-60
-3.0961827e-59
-8.1875749e-59
-2.4260673e-60
-1.7748873e-59
-2.1191091e-61
-2.5778186e-61
-5.0545104e-63
-2.0239504e-62
-4.6500288e-65
-4.8098582e-64
-7.4134357e-67
-4.9661817e-66
-1.573286e-68
-9.008427e-68
-3.330581e-70
-2.0722283e-69
-6.6646565e-72
-4.6561539e-71
-1.2632063e-73
-9.6976001e-73
-2.2632213e-75
-1.9017032e-74
-3.8272854e-77
-3.4970265e-76
-6.1065035e-79
-6.0462486e-78
-9.136368e-81
-9.8904808e-80
-1.2813691e-82
-1.5139011e-81
-1.6777898e-84
-2.1847975e-83
-2.0385121e-86
-2.9621298e-85
-2.2877518e-88
-3.7392753e-87
-2.3570597e-90
-4.3957161e-89
-2.2152981e-92
-4.7773445e-91
-1.8817963e-94
-4.786921e-93
-1.4287011e-96
-4.3848167e-95
-9.5599941e-99
-3.6354243e-97
-5.5366294e-101
-2.6952017e-99
-2.7074059e-103
-1.7521534e-101
-1.0783536e-105
-9.4044748e-104
-3.3251927e-108
-4.0357819e-106
-8.1001159e-111
-1.6182842e-108
-1.3443172e-113
-5.3211387e-111
-1.0934142e-116
-1.2499544e-113
-4.6504377e-120
-1.7847587e-116
-4.914683e-119
2.7396511e-115
-4.2807408e-114
2.8305153e-112
-8.7456225e-112
4.5068963e-109
-6.2093258e-109
2.9616217e-106
-2.8591508e-106
1.2401899e-103
-9.275835e-104
3.9278597e-101
-2.3664072e-101
1.0427421e-98
-5.0944172e-99
2.2579417e-96
-9.6352265e-97
4.0937395e-94
-1.6504496e-94
6.3717839e-92
-2.3384408e-92
8.696812e-90
-2.9124012e-90
1.0576997e-87
-3.2630198e-88
1.1603281e-85
-3.3315217e-86
1.1595152e-83
-3.1265791e-84
1.0637693e-81
-2.7164281e-82
9.0196051e-80
-2.1943025e-80
7.1094717e-78
-1.6566836e-78
5.2359265e-76
-1.1729471e-76
3.6178836e-74
-7.822499e-75
2.353478e-72
-4.9203915e-73
1.4469837e-70
-2.9237925e-71
8.4311391e-69
-1.645414e-69
4.6691361e-67
-8.7595953e-68
2.4650123e-65
-4.4270847e-66
1.2443812e-63
-2.1230703e-64
6.0380307e-62
-9.6903463e-63
2.8424771e-60
-4.2305849e-61
1.3111142e-58
-1.7785127e-59
5.9760529e-57
-7.2014029e-58
2.708365e-55
-2.8231371e-56
1.2165344e-53
-1.067318e-54
5.2648509e-52
-3.6652199e-53
2.1012955e-50
-1.0230911e-51
7.5812895e-49
-1.9139943e-50
2.4589305e-47
2.8734777e-50
7.2810028e-46
2.1227942e-47
1.8975424e-44
1.1413977e-45
4.3023229e-43
4.0951992e-44
8.3573284e-42
1.136002e-42
1.3650966e-40
2.5065387e-41
1.8341792e-39
4.4233229e-40
1.986425e-38
6.2046518e-39
1.7095997e-37
6.8944203e-38
1.1428396e-36
6.0194654e-37
5.502802e-36
3.91952e-36
1.6724194e-35
1.7212559e-35
3.0262281e-35
4.8282378e-35
3.6769813e-35
9.7086127e-35
3.1178915e-35
1.8224306e-34
-4.1445005e-36
3.027971e-34
-3.7558504e-35
3.0287239e-34
-4.0517851e-35
1.826915e-34
-3.1812461e-35
9.7538285e-35
-1.6923444e-35
4.7580106e-35
-5.0062108e-36
1.6509371e-35
-7.3244728e-37
3.3526131e-36
-5.420039e-38
3.5780398e-37
-1.9109194e-39
2.014996e-38
-3.2337641e-41
5.5098465e-40
-2.2159472e-43
7.2497119e-42
-6.708731e-46
3.8094512e-44
-1.0096346e-48
8.5881577e-47
-2.0928308e-51
9.0930598e-50
-2.3575164e-53
1.1873392e-52
-5.9770721e-55
6.3292102e-55
-2.7757941e-56
-8.7941735e-58
-1.781813e-55
-1.3148159e-57
-1.5798345e-55
-2.5774091e-56
-3.0320514e-56
-1.3280144e-55
-1.6210932e-57
-2.5757241e-56
-7.2185614e-59
-1.9312221e-58
-1.1424092e-60
-9.3389218e-60
-9.7361163e-63
-1.5536861e-61
-1.6135338e-64
-1.4022001e-63
-3.3608083e-66
-2.5362727e-65
-6.8805462e-68
-5.7122826e-67
-1.3511358e-69
-1.2475762e-68
-2.52711e-71
-2.5788012e-70
-4.474934e-73
-5.0257738e-72
-7.4779999e-75
-9.2232853e-74
-1.1762531e-76
-1.593397e-75
-1.7371149e-78
-2.5919199e-77
-2.3999224e-80
-3.9614961e-79
-3.0908445e-82
-5.6846114e-81
-3.6942543e-84
-7.6376077e-83
-4.0748758e-86
-9.5664985e-85
-4.1214595e-88
-1.1129647e-86
-3.7923157e-90
-1.1957988e-88
-3.1451643e-92
-1.17951e-90
-2.3229975e-94
-1.0591733e-92
-1.5040272e-96
-8.5486375e-95
-8.3662386e-99
-6.0774976e-97
-3.9053418e-101
-3.5663895e-99
-1.4957412e-103
-1.8461225e-101
-5.1185576e-106
-9.1156907e-104
-1.2875589e-108
-3.8738345e-106
-2.0348335e-111
-1.2377684e-108
-1.4220036e-114
-2.7705651e-111
-1.1168585e-117
-3.6107955e-114
-1.7053033e-116
4.7837001e-113
-9.7168492e-112
2.1543244e-110
-1.4221705e-109
4.7693859e-107
-8.7013454e-107
3.3759464e-104
-4.3061757e-104
1.4661024e-101
-1.4425476e-101
4.6292743e-99
-3.7298622e-99
1.1509434e-96
-7.8543591e-97
2.434376e-94
-1.3939083e-94
4.6168909e-92
-2.2561074e-92
7.486913e-90
-3.4881402e-90
1.0576849e-87
-4.6249428e-88
1.3247472e-85
-5.3481504e-86
1.4910911e-83
-5.5910364e-84
1.5245818e-81
-5.3518172e-82
1.4283208e-79
-4.7283626e-80
1.2350279e-77
-3.8789183e-78
9.9149392e-76
-2.9691455e-76
7.4288905e-74
-2.1296577e-74
5.2160885e-72
-1.4352741e-72
3.4458845e-70
-9.1179108e-71
2.1486986e-68
-5.4675966e-69
1.268956e-66
-3.1038699e-67
7.1108555e-65
-1.6644341e-65
3.7937275e-63
-8.4638928e-64
1.9323561e-61
-4.0806271e-62
9.4514109e-60
-1.871908e-60
4.4835241e-58
-8.2028924e-59
2.0854995e-56
-3.443651e-57
9.5860894e-55
-1.3860681e-55
4.3396982e-53
-5.3687615e-54
1.9185088e-51
-1.9835082e-52
8.1930019e-50
-6.7832154e-51
3.2512179e-48
-1.884791e-49
1.1661735e-46
-3.3377067e-48
3.7594855e-45
1.5682641e-47
1.1038181e-43
4.3040268e-45
2.845848e-42
2.2160369e-43
6.3683226e-41
7.7684791e-42
1.2189093e-39
2.107138e-40
1.958138e-38
4.5502493e-39
2.5813414e-37
7.8465802e-38
2.7343283e-36
1.074482e-36
2.2984098e-35
1.1622399e-35
1.5021623e-34
9.900669e-35
7.1159677e-34
6.3332527e-34
2.1528075e-33
2.7588789e-33
3.9030102e-33
7.7369337e-33
4.7239268e-33
1.5506881e-32
3.9841564e-33
2.8695769e-32
-4.7939092e-34
4.8200126e-32
-4.7148832e-33
4.8208244e-32
-5.1587265e-33
2.8763353e-32
-4.0826715e-33
1.5572091e-32
-2.1744698e-33
7.6299805e-33
-6.5055031e-34
2.6509711e-33
-9.8829479e-35
5.4594201e-34
-7.9168665e-36
6.0633866e-35
-3.1658332e-37
3.7007508e-36
-6.1893085e-39
1.1487296e-37
-5.2494236e-41
1.751333e-39
-2.1051311e-43
1.1414168e-41
-6.5468588e-46
3.425725e-44
-4.2767282e-48
7.5631331e-47
-3.4972664e-50
3.1420152e-49
-4.6268997e-52
1.2492945e-51
-5.1790106e-53
4.8717044e-55
-2.3643909e-52
-3.028051e-54
-1.7030338e-52
-7.4727045e-53
-2.3202254e-53
-1.5330361e-52
-9.3406291e-55
-2.2221426e-53
-2.4861985e-56
-1.320932e-55
-2.9932451e-58
-4.1822196e-57
-2.2010918e-60
-5.4467642e-59
-3.3560874e-62
-4.1434636e-61
-6.5066008e-64
-6.6766343e-63
-1.2519015e-65
-1.3802582e-64
-2.3760086e-67
-2.8365644e-66
-4.3656651e-69
-5.6995353e-68
-7.6122531e-71
-1.0946969e-69
-1.2524375e-72
-1.9858361e-71
-1.9389603e-74
-3.3910298e-73
-2.8162218e-76
-5.4509172e-75
-3.823933e-78
-8.2328018e-77
-4.8354612e-80
-1.1656811e-78
-5.6673682e-82
-1.5432645e-80
-6.1214369e-84
-1.9028896e-82
-6.0515608e-86
-2.1751474e-84
-5.428594e-88
-2.2911801e-86
-4.3739868e-90
-2.2075357e-88
-3.1247079e-92
-1.9206311e-90
-1.9451589e-94
-1.4614922e-92
-1.0402931e-96
-9.4606055e-95
-5.022771e-99
-5.7672209e-97
-2.1987597e-101
-3.4713939e-99
-7.3577899e-104
-1.7992105e-101
-1.7453096e-106
-7.2322459e-104
-2.5963777e-109
-2.213345e-106
-1.4578388e-112
-4.70066e-109
-2.1796047e-115
-6.3054488e-112
-4.3270735e-114
6.9959389e-111
-1.7386642e-109
8.4738868e-109
-1.7100733e-108
4.2237513e-105
-9.1148329e-105
3.298002e-102
-5.2410148e-102
1.4902788e-99
-1.823271e-99
4.8336629e-97
-4.8177088e-97
1.226345e-94
-1.0377399e-94
2.5142214e-92
-1.8681249e-92
4.433062e-90
-2.8609712e-90
7.3665884e-88
-4.045395e-88
1.0807965e-85
-5.5526101e-86
1.4032496e-83
-6.9316879e-84
1.629525e-81
-7.533455e-82
1.7126481e-79
-7.4107301e-80
1.6449806e-77
-6.6968875e-78
1.4552077e-75
-5.6063337e-76
1.1931221e-73
-4.3707147e-74
9.1185832e-72
-3.1897818e-72
6.521137e-70
-2.1826248e-70
4.3829446e-68
-1.4064863e-68
2.7775107e-66
-8.5486849e-67
1.6638567e-64
-4.9071837e-65
9.4487951e-63
-2.6618394e-63
5.0991939e-61
-1.3661764e-61
2.6234328e-59
-6.6403291e-60
1.2940936e-57
-3.062303e-58
6.2029945e-56
-1.3508762e-56
2.9347953e-54
-5.7086162e-55
1.3867367e-52
-2.3457856e-53
6.3418944e-51
-9.1858302e-52
2.7084481e-49
-3.2332202e-50
1.1103962e-47
-1.0529371e-48
4.3361564e-46
-2.9887955e-47
1.5421619e-44
-5.3924481e-46
4.9190704e-43
1.9096724e-45
1.4289589e-41
6.4893987e-43
3.6370966e-40
3.3347816e-41
8.0207435e-39
1.1555191e-39
1.5098681e-37
3.089429e-38
2.3814039e-36
6.5449084e-37
3.0736295e-35
1.1049987e-35
3.1790888e-34
1.474701e-34
2.6013328e-33
1.5534274e-33
1.6561895e-32
1.2884839e-32
7.696603e-32
8.0675004e-32
2.3067866e-31
3.4759458e-31
4.1637102e-31
9.7035972e-31
5.0023013e-31
1.9299888e-30
4.189108e-31
3.5172385e-30
-4.4603937e-32
5.9413428e-30
-4.8656811e-31
5.9422699e-30
-5.4104415e-31
3.5254992e-30
-4.3302347e-31
1.9374662e-30
-2.322146e-31
9.5737143e-31
-7.0573811e-32
3.3459853e-31
-1.1144931e-32
7.0086328e-32
-9.6798895e-34
8.1035046e-33
-4.3927639e-35
5.3737922e-34
-9.7851123e-37
1.8883578e-35
-1.0184285e-38
3.2739495e-37
-5.2061248e-41
2.6228889e-39
-2.3366408e-43
1.0032083e-41
-2.5065156e-45
3.1943981e-44
-5.7173337e-47
2.1864241e-46
-4.2687408e-49
2.381119e-48
-8.5885889e-50
1.1131491e-52
-2.553169e-49
-6.8764525e-51
-1.4135126e-49
-1.2480815e-49
-1.4181121e-50
-1.3283738e-49
-4.5710079e-52
-1.4342817e-50
-8.1323807e-54
-3.0538623e-52
-7.716723e-56
-1.6105381e-54
-5.1660885e-58
-1.8093252e-56
-6.9617434e-60
-1.1597389e-58
-1.2012348e-61
-1.6532154e-60
-2.0858889e-63
-3.0239788e-62
-3.7537819e-65
-5.5884531e-64
-6.7331105e-67
-1.0729114e-65
-1.1518099e-68
-2.0242681e-67
-1.8595954e-70
-3.6216342e-69
-2.824731e-72
-6.0927336e-71
-4.0226904e-74
-9.6462912e-73
-5.350276e-76
-1.4337451e-74
-6.6199113e-78
-1.9946007e-76
-7.5801063e-80
-2.5911736e-78
-7.9842132e-82
-3.1295473e-80
-7.6788341e-84
-3.4955003e-82
-6.6788078e-86
-3.5822286e-84
-5.1996011e-88
-3.3302441e-86
-3.5884355e-90
-2.698613e-88
-2.1808628e-92
-1.9706751e-90
-1.2673299e-94
-1.3738353e-92
-6.7753958e-97
-9.4998928e-95
-2.8408882e-99
-5.8262365e-97
-8.9912058e-102
-2.8416703e-99
-2.057465e-104
-1.0986221e-101
-2.8444159e-107
-3.25793e-104
-1.0756213e-110
-6.3940459e-107
-3.6046885e-113
-5.9618399e-110
-8.8253651e-112
8.7664409e-109
-2.5612578e-107
6.5753553e-108
-4.0157394e-107
3.1238244e-103
-1.2943469e-102
2.7712825e-100
-5.2734455e-100
1.3197073e-97
-1.9292229e-97
4.3954374e-95
-5.2351171e-95
1.141034e-92
-1.1480462e-92
2.4289405e-90
-2.1282751e-90
4.291627e-88
-3.3750989e-88
6.5464308e-86
-4.5897344e-86
9.4692819e-84
-5.7370848e-84
1.2735761e-81
-7.0851121e-82
1.5341674e-79
-8.2649868e-80
1.6666249e-77
-8.5424934e-78
1.6490311e-75
-7.9649476e-76
1.4985168e-73
-6.8401571e-74
1.2593699e-71
-5.4577981e-72
9.8428248e-70
-4.0657743e-70
7.1896237e-68
-2.8379631e-68
4.9273361e-66
-1.8618783e-66
3.1790846e-64
-1.1508089e-64
1.9357274e-62
-6.7033521e-63
1.1154774e-60
-3.6861923e-61
6.0974121e-59
-1.9143404e-59
3.1742108e-57
-9.4077276e-58
1.5838525e-55
-4.3763703e-56
7.7215949e-54
-1.9520328e-54
3.811211e-52
-8.588545e-53
1.9526951e-50
-3.9021455e-51
9.444594e-49
-1.6687263e-49
3.8135633e-47
-5.5958707e-48
1.3877794e-45
-1.5287399e-46
5.10708e-44
-4.0526109e-45
1.7883472e-42
-7.9710444e-44
5.6157684e-41
-4.9789969e-45
1.6103305e-39
7.7112852e-41
4.0381017e-38
4.0799723e-39
8.7576915e-37
1.411065e-37
1.6195606e-35
3.7234086e-36
2.5036261e-34
7.7694059e-35
3.1576987e-33
1.2850573e-33
3.1802168e-32
1.6696507e-32
2.5257444e-31
1.7082142e-31
1.5619152e-30
1.3751981e-30
7.0935336e-30
8.410043e-30
2.0990541e-29
3.5724869e-29
3.7606428e-29
9.8930647e-29
4.4742716e-29
1.9477762e-28
3.7205255e-29
3.4929083e-28
-3.3187111e-30
5.9107107e-28
-4.2228342e-29
5.9117682e-28
-4.7835942e-29
3.5016412e-28
-3.8840136e-29
1.9550838e-28
-2.1044938e-29
9.7656879e-29
-6.5173234e-30
3.4451707e-29
-1.0719142e-30
7.3614421e-30
-1.0111264e-31
8.8689925e-31
-5.1737894e-33
6.380529e-32
-1.292076e-34
2.5273588e-33
-1.582897e-36
4.8992887e-35
-1.0489893e-38
4.6071948e-37
-6.4003661e-41
2.2806061e-39
-1.0175921e-42
9.8105986e-42
-2.9770842e-44
9.8292775e-44
-2.5149206e-46
1.3052053e-45
-1.0137511e-46
-1.7647722e-48
-2.2198187e-46
-1.3184099e-47
-9.2178434e-47
-1.4084121e-46
-7.0234233e-48
-8.9279838e-47
-1.8894397e-49
-7.2066258e-48
-2.6042631e-51
-1.8021517e-49
-1.9483201e-53
-5.8050046e-52
-1.2132657e-55
-4.6898394e-54
-1.4352751e-57
-3.2988831e-56
-2.1458338e-59
-4.1082447e-58
-3.214818e-61
-6.4415971e-60
-5.3430966e-63
-1.0123081e-61
-9.3012324e-65
-1.7930447e-63
-1.5570879e-66
-3.2920544e-65
-2.4646934e-68
-5.7744399e-67
-3.6663202e-70
-9.5467609e-69
-5.1084308e-72
-1.4824232e-70
-6.6398873e-74
-2.1591504e-72
-8.01391e-76
-2.9404791e-74
-8.9331522e-78
-3.7314068e-76
-9.1389979e-80
-4.391744e-78
-8.5142277e-82
-4.7551263e-80
-7.1491415e-84
-4.6526956e-82
-5.3974687e-86
-4.0041444e-84
-3.7846424e-88
-3.2607128e-86
-2.5446979e-90
-2.6017659e-88
-1.5683911e-92
-2.0174818e-90
-7.9187304e-95
-1.4090979e-92
-3.1459352e-97
-8.0782114e-95
-9.683652e-100
-3.7687339e-97
-2.125432e-102
-1.4216923e-99
-2.6531287e-105
-4.0489417e-102
-3.7131991e-109
-6.8081847e-105
-5.2125428e-111
-9.545589e-109
-1.5103983e-109
9.5719461e-107
-3.1764865e-105
4.6497436e-106
-3.8582729e-105
2.1294627e-101
-4.460265e-100
1.9966074e-98
-4.4341186e-98
1.0198115e-95
-1.7555064e-95
3.5224146e-93
-4.9350705e-93
9.3409154e-91
-1.1058983e-90
2.0306837e-88
-2.0836584e-88
3.7410445e-86
-3.4071164e-86
5.8420749e-84
-4.8477831e-84
7.9142844e-82
-5.960076e-82
1.017292e-79
-6.7376036e-80
1.2569883e-77
-7.5894627e-78
1.4157878e-75
-8.229117e-76
1.4511689e-73
-8.1392038e-74
1.3615127e-71
-7.2395547e-72
1.1775901e-69
-5.9430211e-70
9.4496779e-68
-4.5397983e-68
7.0710821e-66
-3.2428028e-66
4.9548241e-64
-2.1732447e-64
3.2627685e-62
-1.3699659e-62
2.0232924e-60
-8.1188837e-61
1.18564e-58
-4.5382746e-59
6.5805324e-57
-2.3915964e-57
3.4756794e-55
-1.190804e-55
1.7659026e-53
-5.6266017e-54
8.9190656e-52
-2.5904694e-52
4.8388106e-50
-1.2690079e-50
2.9691058e-48
-7.2079466e-49
1.6581282e-46
-4.2061444e-47
6.4918824e-45
-1.5438449e-45
1.8656972e-43
-2.8808284e-44
5.5488354e-42
-5.1702776e-43
1.8444426e-40
-1.0459482e-41
5.7055217e-39
-4.8578575e-41
1.601471e-37
7.356014e-39
3.9474304e-36
4.164305e-37
8.4039255e-35
1.4498489e-35
1.5234269e-33
3.7970148e-34
2.3052207e-32
7.8016214e-33
2.8386895e-31
1.2623666e-31
2.7762301e-30
1.5980154e-30
2.1326252e-29
1.5834209e-29
1.2753795e-28
1.2333909e-28
5.6399915e-28
7.3427764e-28
1.6434069e-27
3.0659035e-27
2.9139929e-27
8.4002196e-27
3.426055e-27
1.6335618e-26
2.8261344e-27
2.8800681e-26
-2.001353e-28
4.8651937e-26
-3.1294968e-27
4.8663287e-26
-3.6176726e-27
2.8879278e-26
-2.9864256e-27
1.6396131e-26
-1.6405919e-27
8.2991491e-27
-5.1913884e-28
2.9627711e-27
-8.9071373e-29
6.4694489e-28
-9.109482e-30
8.1400145e-29
-5.1951555e-31
6.3425347e-30
-1.4360085e-32
2.7918306e-31
-2.0540077e-34
5.968403e-33
-1.8178312e-36
6.5355277e-35
-1.5125172e-38
4.2921737e-37
-3.7872196e-40
2.4998436e-39
-1.1813608e-41
3.8387832e-41
-1.6493694e-43
4.9289854e-43
-1.3527422e-43
-2.6995683e-45
-1.5400732e-43
-2.019107e-44
-4.7834564e-44
-1.1516056e-43
-2.8440723e-45
-4.7402887e-44
-6.5159665e-47
-2.9537811e-45
-7.5557853e-49
-6.5676309e-47
-5.0000339e-51
-2.9408806e-49
-2.857035e-53
-1.8352533e-51
-2.9749345e-55
-8.9143354e-54
-3.8483354e-57
-1.0065061e-55
-4.8080985e-59
-1.3579479e-57
-7.0686315e-61
-1.7626538e-59
-1.177418e-62
-2.7421677e-61
-1.9150994e-64
-4.8221396e-63
-2.9570814e-66
-8.2249953e-65
-4.2913116e-68
-1.3280473e-66
-5.8293176e-70
-2.0128206e-68
-7.3754308e-72
-2.860375e-70
-8.6486416e-74
-3.7947826e-72
-9.343558e-76
-4.6782828e-74
-9.2450794e-78
-5.3190271e-76
-8.3351472e-80
-5.4501708e-78
-6.8126035e-82
-5.0802151e-80
-5.3845529e-84
-4.5247851e-82
-4.1068313e-86
-3.9877909e-84
-2.8605834e-88
-3.4112035e-86
-1.6837306e-90
-2.6694981e-88
-8.0300059e-93
-1.7540377e-90
-3.0903622e-95
-9.5427694e-93
-9.2243581e-98
-4.3364291e-95
-1.913503e-100
-1.5877784e-97
-2.1139917e-103
-4.2846601e-100
-4.328528e-108
-1.120855e-102
-6.6685874e-109
-3.2384886e-107
-2.2184237e-107
9.2167628e-105
-3.4284983e-103
3.1924644e-104
-3.3708564e-103
6.1084151e-100
-1.0324322e-99
1.2287228e-96
-3.0111842e-96
6.8867576e-94
-1.3673734e-93
2.4932539e-91
-4.0162986e-91
6.8096839e-89
-9.2655562e-89
1.5093663e-86
-1.7808823e-86
2.8377044e-84
-2.9577587e-84
4.6256258e-82
-4.3432702e-82
6.5000814e-80
-5.633029e-80
8.0187798e-78
-6.4053117e-78
9.3792247e-76
-6.6961281e-76
1.0631966e-73
-6.895272e-74
1.1298545e-71
-6.9732485e-72
1.1003586e-69
-6.6181344e-70
9.8441195e-68
-5.6660193e-68
8.1449811e-66
-4.4664236e-66
6.2664666e-64
-3.2788517e-64
4.5046298e-62
-2.2541172e-62
3.0335864e-60
-1.4523528e-60
1.9214974e-58
-8.7949478e-59
1.1479097e-56
-5.0118808e-57
6.4899187e-55
-2.6898179e-55
3.4979854e-53
-1.3650504e-53
1.8313286e-51
-6.6347685e-52
9.9053171e-50
-3.286331e-50
6.4129702e-48
-1.9751533e-48
5.1466746e-46
-1.5695448e-46
3.5032492e-44
-8.7256825e-45
1.4555223e-42
-3.1244138e-43
3.4701741e-41
-5.992553e-42
6.5129235e-40
-9.5142429e-41
1.7167911e-38
-1.1863433e-39
5.1935118e-37
-1.0872695e-38
1.420024e-35
5.5866059e-37
3.4311929e-34
3.5978569e-35
7.1533865e-33
1.2757577e-33
1.2691557e-31
3.3267182e-32
1.8773468e-30
6.7389415e-31
2.2518162e-29
1.0683711e-29
2.1344636e-28
1.313748e-28
1.5803307e-27
1.2569757e-27
9.0978905e-27
9.4375627e-27
3.9044408e-26
5.4445566e-26
1.1158217e-25
2.2290367e-25
1.9490351e-25
6.0193118e-25
2.2555441e-25
1.1508614e-24
1.8418522e-25
1.9900587e-24
-9.5253064e-27
3.3514554e-24
-1.9873932e-25
3.352591e-24
-2.3503765e-25
1.9961222e-24
-1.9813939e-25
1.1552751e-24
-1.1084725e-25
5.9520285e-25
-3.5945522e-26
2.1581965e-25
-6.4588107e-27
4.8301515e-26
-7.1677868e-28
6.3622006e-27
-4.5199751e-29
5.3738284e-28
-1.372069e-30
2.6077522e-29
-2.2995715e-32
6.0948683e-31
-2.7933434e-34
7.7854706e-33
-3.2008183e-36
6.9724792e-35
-1.1815792e-37
5.509621e-37
-3.4706063e-39
1.1932248e-38
-7.2734299e-41
1.210114e-40
-1.3274066e-40
-2.5345282e-42
-1.1224172e-40
-2.3991498e-41
-1.9916135e-41
-9.8213245e-41
-9.4736313e-43
-2.0106911e-41
-1.8713587e-44
-9.9571188e-43
-1.912461e-46
-1.9518563e-44
-1.175896e-48
-1.5130018e-46
-6.2117662e-51
-1.0672717e-48
-5.8504331e-53
-2.925175e-51
-6.7441506e-55
-2.2563021e-53
-7.033804e-57
-2.7492425e-55
-8.7911109e-59
-2.9646321e-57
-1.3736862e-60
-3.8837306e-59
-2.1507247e-62
-6.403872e-61
-3.2194595e-64
-1.0524831e-62
-4.5396116e-66
-1.6484635e-64
-5.9851171e-68
-2.4290168e-66
-7.3390262e-70
-3.3510396e-68
-8.3240659e-72
-4.3037863e-70
-8.6801045e-74
-5.0947963e-72
-8.3202028e-76
-5.4411579e-74
-7.471108e-78
-5.4480228e-76
-6.5185294e-80
-5.3281307e-78
-5.4560427e-82
-5.1117793e-80
-4.2060786e-84
-4.7293824e-82
-2.8190803e-86
-4.0606852e-84
-1.5642894e-88
-2.9919608e-86
-7.1855873e-91
-1.8519528e-88
-2.6914237e-93
-9.7821092e-91
-7.7180056e-96
-4.3343577e-93
-1.485889e-98
-1.5263338e-95
-1.5844528e-101
-3.7869906e-98
-3.5088303e-106
-2.9920517e-100
-7.6123703e-107
-3.2586716e-105
-2.8429713e-105
7.939921e-103
-3.2182622e-101
2.2648323e-102
-3.0011593e-101
1.2419345e-99
-4.5221237e-99
6.3969189e-95
-3.5352184e-94
3.968867e-92
-8.9759356e-92
1.5266342e-89
-2.7830062e-89
4.330637e-87
-6.6606427e-87
9.8631657e-85
-1.3157164e-84
1.8904669e-82
-2.2303057e-82
3.1493843e-80
-3.3333124e-80
4.6341458e-78
-4.4708375e-78
5.9840227e-76
-5.3729197e-76
6.8569876e-74
-5.740803e-74
7.3970128e-72
-5.6449195e-72
7.7837513e-70
-5.436348e-70
7.8586054e-68
-5.1786151e-68
7.3052106e-66
-4.6730487e-66
6.2666582e-64
-3.8628456e-64
4.9815263e-62
-2.9348636e-62
3.6878627e-60
-2.0788581e-60
2.5508263e-58
-1.3758719e-58
1.6558105e-56
-8.5432694e-57
1.0124119e-54
-4.9839169e-55
5.8626196e-53
-2.7389068e-53
3.2563493e-51
-1.4312928e-51
1.7951697e-49
-7.3382506e-50
1.0945352e-47
-4.1578362e-48
9.0943593e-46
-3.2902866e-46
9.5385505e-44
-3.1297315e-44
7.7363355e-42
-2.3363436e-42
3.632824e-40
-1.3420372e-40
8.8021321e-39
-1.9453351e-39
1.1367317e-37
-1.7854647e-38
1.5067864e-36
-1.3501864e-37
4.2774808e-35
-1.6016403e-36
1.1325346e-33
3.1559267e-35
2.6726822e-32
2.64896e-33
5.4385905e-31
9.7391126e-32
9.4245316e-30
2.5370429e-30
1.3613321e-28
5.0677145e-29
1.5885869e-27
7.8716339e-28
1.4557033e-26
9.3881808e-27
1.0345735e-25
8.6393404e-26
5.6990432e-25
6.2141013e-25
2.356671e-24
3.4536855e-24
6.5838946e-24
1.381692e-23
1.1285443e-23
3.6667566e-23
1.2800533e-23
6.863661e-23
1.0352109e-23
1.1626123e-22
-3.4137748e-25
1.9653214e-22
-1.0880962e-23
1.966163e-22
-1.3164457e-23
1.1667464e-22
-1.1376716e-23
6.8907945e-23
-6.5100822e-24
3.6295335e-23
-2.1694205e-24
1.3402047e-23
-4.105445e-25
3.0810388e-24
-4.9668662e-26
4.278184e-25
-3.448433e-27
3.9348893e-26
-1.1434278e-28
2.0925914e-27
-2.2832435e-30
5.3194433e-29
-4.154467e-32
8.0752565e-31
-6.2904603e-34
1.0703816e-32
-2.8187066e-35
1.0915807e-34
-8.1900252e-37
2.691512e-36
-3.5503449e-38
1.9258855e-38
-9.1945281e-38
-2.6029042e-39
-5.6779404e-38
-3.8913731e-38
-6.6870988e-39
-5.3087123e-38
-2.6048457e-40
-6.8609338e-39
-4.5080617e-42
-2.7710421e-40
-4.1588472e-44
-4.8488008e-42
-2.4097955e-46
-4.0099671e-44
-1.2002591e-48
-2.5104119e-46
-1.0507227e-50
-1.0165469e-48
-1.1167098e-52
-4.6153493e-51
-9.975463e-55
-5.1705423e-53
-1.032162e-56
-4.7661027e-55
-1.4807771e-58
-5.1096606e-57
-2.2064215e-60
-7.7080068e-59
-3.1807508e-62
-1.2064498e-60
-4.3331519e-64
-1.8220109e-62
-5.5187962e-66
-2.5967391e-64
-6.5284146e-68
-3.4574396e-66
-7.1398299e-70
-4.2422479e-68
-7.2098646e-72
-4.7616494e-70
-7.0021275e-74
-5.069541e-72
-6.6645471e-76
-5.3246643e-74
-6.0544404e-78
-5.4860358e-76
-5.0930179e-80
-5.443948e-78
-3.7980369e-82
-5.0600299e-80
-2.3885344e-84
-4.1028148e-82
-1.2681482e-86
-2.8303475e-84
-5.673673e-89
-1.6934728e-86
-2.0563346e-91
-8.7340261e-89
-5.5991039e-94
-3.743329e-91
-9.7669007e-97
-1.2534998e-93
-4.4066489e-100
-2.7546027e-96
-2.722278e-104
-8.3738228e-100
-7.791318e-105
-3.0870986e-103
-3.1835456e-103
6.0426466e-101
-2.6062156e-99
1.6640516e-100
-2.3504398e-99
3.1873251e-98
-9.7190536e-98
2.9980444e-93
-4.0889882e-92
1.9041426e-90
-5.2597372e-90
7.9512664e-88
-1.6266502e-87
2.3665924e-85
-4.0599008e-85
5.5798924e-83
-8.2828404e-83
1.0991634e-80