/*--------------------------------*- C++ -*----------------------------------*\
  =========                 |
  \\      /  F ield         | OpenFOAM: The Open Source CFD Toolbox
   \\    /   O peration     | Website:  https://openfoam.org
    \\  /    A nd           | Version:  9
     \\/     M anipulation  |
\*---------------------------------------------------------------------------*/
FoamFile
{
    format      ascii;
    class       volScalarField;
    location    "0.17";
    object      p_rgh;
}
// * * * * * * * * * * * * * * * * * * * * * * * * * * * * * * * * * * * * * //

dimensions      [1 -1 -2 0 0 0 0];

internalField   nonuniform List<scalar> 
10000
(
0
-0.053330786
-0.11133287
-0.18021559
-0.26065238
-0.35250823
-0.4558396
-0.5705833
-0.69653577
-0.83348423
-0.98081189
-1.1386823
-1.3074849
-1.4871812
-1.677435
-1.8777143
-2.08769
-2.3071596
-2.5356697
-2.7722692
-3.0138529
-3.2584888
-3.5135643
-3.7768181
-4.0540871
-4.3471258
-4.651838
-4.9666177
-5.2908034
-5.6233694
-5.9632712
-6.3099761
-6.6633607
-7.0209822
-7.3797972
-7.7374378
-8.0907748
-8.4391645
-8.7862435
-9.1291889
-9.4624615
-9.7816064
-10.08306
-10.362642
-10.615742
-10.838048
-11.025605
-11.17502
-11.283609
-11.349518
-11.371824
-11.350506
-11.286427
-11.18132
-11.037741
-10.858913
-10.648521
-10.410553
-10.149218
-9.8688865
-9.5726315
-9.2640509
-8.9504409
-8.632629
-8.3078834
-7.976155
-7.6405194
-7.3035623
-6.9685615
-6.6378455
-6.3113793
-5.98991
-5.674605
-5.3666202
-5.0671042
-4.7768498
-4.5012037
-4.2394696
-3.9844464
-3.7391654
-3.4988119
-3.2601657
-3.0286171
-2.8056237
-2.59187
-2.3876827
-2.1934088
-2.0095221
-1.8365154
-1.6746547
-1.5240749
-1.3847593
-1.2563551
-1.1390581
-1.0333661
-0.93927552
-0.85682777
-0.78628634
-0.72732814
-0.67340353
0.064939527
0.012113208
-0.045169993
-0.11367783
-0.19378239
-0.28534743
-0.38838852
-0.50290976
-0.62882559
-0.76593498
-0.91445244
-1.074166
-1.2446705
-1.4256933
-1.6169321
-1.8179779
-2.0280584
-2.2475628
-2.4762457
-2.7132155
-2.9572373
-3.2084416
-3.4687563
-3.7390837
-4.0214259
-4.316372
-4.6225809
-4.9390276
-5.2649429
-5.5996137
-5.9422201
-6.2920863
-6.6486416
-7.0104854
-7.375858
-7.7433689
-8.1116933
-8.4783928
-8.8383256
-9.190934
-9.5351523
-9.8682538
-10.184963
-10.479688
-10.747374
-10.983165
-11.18252
-11.341475
-11.456834
-11.52637
-11.549
-11.524674
-11.454391
-11.340239
-11.185244
-10.993175
-10.768336
-10.515314
-10.23878
-9.9434751
-9.6356985
-9.3187908
-8.9918011
-8.6563534
-8.3162841
-7.97452
-7.6321955
-7.2907831
-6.9522989
-6.6180642
-6.2886546
-5.9648363
-5.6475838
-5.3378395
-5.0365443
-4.7447483
-4.4642664
-4.1948991
-3.9345073
-3.6828224
-3.4380764
-3.1993251
-2.9677955
-2.744861
-2.5312579
-2.3269261
-2.1320696
-1.947367
-1.773256
-1.6100664
-1.4580265
-1.3174064
-1.1885672
-1.0714805
-0.96597857
-0.87219243
-0.79017959
-0.72011749
-0.66152841
-0.60769597
0.12241192
0.069518493
0.012130109
-0.056366549
-0.13641799
-0.22781593
-0.33059737
-0.44474817
-0.57020988
-0.70690289
-0.85481613
-1.0138172
-1.1836633
-1.3641153
-1.5549104
-1.7556892
-1.9661114
-2.1861117
-2.4154721
-2.6536995
-2.9003886
-3.1556837
-3.4203782
-3.6952244
-3.9810513
-4.2781794
-4.586144
-4.9043365
-5.2321877
-5.5691297
-5.914581
-6.2679673
-6.6286569
-6.9957169
-7.368001
-7.7433456
-8.1211355
-8.4992527
-8.8746085
-9.2451111
-9.6081981
-9.9602673
-10.296336
-10.610681
-10.897527
-11.151201
-11.366298
-11.538029
-11.662488
-11.736913
-11.759935
-11.731491
-11.652846
-11.52659
-11.356426
-11.146933
-10.903289
-10.630934
-10.335322
-10.021798
-9.69566
-9.3605078
-9.0181905
-8.6709746
-8.3214195
-7.9714745
-7.6220882
-7.2753062
-6.9323308
-6.5941746
-6.261533
-5.9350844
-5.6155767
-5.3037527
-5.0003589
-4.7062078
-4.4220295
-4.1477586
-3.8827516
-3.6265139
-3.3783004
-3.1378565
-2.9055695
-2.6821332
-2.468106
-2.2637111
-2.0691749
-1.8849289
-1.7113596
-1.548757
-1.3973114
-1.2572436
-1.1287667
-1.011923
-0.90672977
-0.81317931
-0.73133888
-0.6613779
-0.60294832
-0.54925031
0.19034832
0.13742651
0.080087554
0.011657893
-0.068277005
-0.15949687
-0.2620176
-0.37584451
-0.5009346
-0.63723543
-0.78470034
-0.94321947
-1.1126272
-1.2927354
-1.4833232
-1.6841719
-1.8950574
-2.1158187
-2.3462344
-2.5860773
-2.8352153
-3.0937107
-3.3619658
-3.6403958
-3.9294229
-4.2291909
-4.5395166
-4.86006
-5.1904167
-5.530173
-5.8789549
-6.2363489
-6.6018468
-6.9747017
-7.3539064
-7.7398434
-8.1300198
-8.5228536
-8.9160831
-9.3071972
-9.6930074
-10.069207
-10.430359
-10.770223
-11.082093
-11.359175
-11.59491
-11.783389
-11.91976
-12.000563
-12.024059
-11.990162
-11.900478
-11.758276
-11.568223
-11.336016
-11.068002
-10.770745
-10.450647
-10.113724
-9.7653446
-9.4096558
-9.0495897
-8.6875189
-8.3255806
-7.9653281
-7.6084986
-7.2555521
-6.9073902
-6.5647586
-6.2282645
-5.8984786
-5.5759415
-5.2612345
-4.9549826
-4.6577349
-4.3698757
-4.091517
-3.8224304
-3.5623987
-3.311146
-3.0685479
-2.8348748
-2.6104877
-2.3957441
-2.1909363
-1.9963415
-1.8122914
-1.6390274
-1.4767578
-1.3257025
-1.1860183
-1.0578606
-0.94129635
-0.8364169
-0.74313566
-0.66145392
-0.59164065
-0.53334697
-0.47976318
0.26945848
0.21657305
0.1593316
0.091040983
0.011259991
-0.079744319
-0.18200255
-0.29553005
-0.42029514
-0.55626662
-0.70339473
-0.86160151
-1.0307816
-1.2107963
-1.4014811
-1.6026677
-1.8141879
-2.0358948
-2.2676394
-2.5092849
-2.7607534
-3.0220828
-3.2934534
-3.5750914
-3.867195
-4.1698236
-4.4828697
-4.8061423
-5.1394068
-5.4824134
-5.834967
-6.1969085
-6.5680326
-6.9480876
-7.3368045
-7.7332729
-8.1371655
-8.5470161
-8.9608414
-9.3760023
-9.7889287
-10.194781
-10.587455
-10.959757
-11.303681
-11.610925
-11.873356
-12.083559
-12.235385
-12.324417
-12.348444
-12.307375
-12.203277
-12.04037
-11.824611
-11.563195
-11.26403
-10.935195
-10.584396
-10.218586
-9.8436975
-9.4643572
-9.0839598
-8.7049788
-8.3292039
-7.9577304
-7.5917477
-7.2313807
-6.8771644
-6.5294472
-6.1885571
-5.854828
-5.5286654
-5.2104833
-4.9007842
-4.6000007
-4.308381
-4.0260994
-3.7531911
-3.4896251
-3.2353356
-2.9903443
-2.7548696
-2.5291291
-2.3133997
-2.1079273
-1.912958
-1.7287382
-1.5554641
-1.3933259
-1.2425046
-1.1030736
-0.97519179
-0.85892645
-0.75431719
-0.66127842
-0.57980135
-0.51021298
-0.45209861
-0.39869353
0.35942776
0.30659407
0.24949345
0.18137252
0.1017892
0.011019658
-0.090972976
-0.20421339
-0.32869197
-0.46438865
-0.61127257
-0.7693032
-0.93841434
-1.1185095
-1.3094706
-1.5111703
-1.7234869
-1.9463128
-2.1795368
-2.4230536
-2.6767969
-2.9407673
-3.2150365
-3.4996968
-3.7948173
-4.1003923
-4.4163425
-4.7425484
-5.0789169
-5.4253571
-5.7818428
-6.1484688
-6.5253782
-6.9127046
-7.3105198
-7.7192658
-8.1384865
-8.5674413
-9.0046308
-9.4476079
-9.8926677
-10.334508
-10.766145
-11.179071
-11.563597
-11.909397
-12.206175
-12.444424
-12.616222
-12.715867
-12.740496
-12.690027
-12.567173
-12.377455
-12.128604
-11.829858
-11.491228
-11.122833
-10.734117
-10.333286
-9.9270619
-9.520546
-9.1172454
-8.7194414
-8.3284639
-7.9446492
-7.5692829
-7.2012199
-6.8406511
-6.4875478
-6.1419442
-5.803912
-5.473693
-5.1516449
-4.8381084
-4.5334174
-4.237857
-3.9516641
-3.6749843
-3.407922
-3.1505715
-2.9030027
-2.6654178
-2.4380311
-2.2210418
-2.0146484
-1.8190524
-1.6344552
-1.4609858
-1.2988194
-1.1480887
-1.0088734
-0.88122662
-0.76519636
-0.6608067
-0.56804495
-0.4868265
-0.41748231
-0.35953302
-0.30629443
0.46022572
0.40749282
0.35055427
0.28264668
0.20329028
0.11277875
0.011068474
-0.10188731
-0.22609321
-0.36155014
-0.50825862
-0.6662058
-0.8353563
-1.0156509
-1.2070115
-1.4093556
-1.6226058
-1.8466789
-2.0814806
-2.3269195
-2.5829295
-2.8494779
-3.1265609
-3.4141752
-3.7123004
-4.020885
-4.3398564
-4.6691314
-5.0086721
-5.3585428
-5.7188857
-6.0900467
-6.472576
-6.8670703
-7.2739428
-7.6953186
-8.1306293
-8.5802028
-9.0433252
-9.5180435
-10.000733
-10.485715
-10.965003
-11.428461
-11.864161
-12.259037
-12.599836
-12.874184
-13.07174
-13.18506
-13.210386
-13.147643
-13.000431
-12.776034
-12.484625
-12.138287
-11.74993
-11.332351
-10.897237
-10.454462
-10.011659
-9.5742589
-9.14567
-8.7276791
-8.3210321
-7.9258233
-7.5398937
-7.1639374
-6.7970053
-6.4384725
-6.0879571
-5.7454049
-5.410889
-5.0846129
-4.766856
-4.4579487
-4.1582286
-3.8679817
-3.5874477
-3.3168344
-3.056282
-2.8059675
-2.5660672
-2.3367923
-2.1183093
-1.9107809
-1.7143566
-1.5292089
-1.355417
-1.19313
-1.0424124
-0.90330353
-0.77584079
-0.6600693
-0.55594867
-0.46345661
-0.38246729
-0.31336031
-0.25566447
-0.2026138
0.57185366
0.5192533
0.46251628
0.39484656
0.3157458
0.22552536
0.1241207
0.011469686
-0.11245611
-0.24768976
-0.39425695
-0.55216945
-0.72142191
-0.90198947
-1.0938375
-1.2969301
-1.5112199
-1.7366383
-1.9731024
-2.2205313
-2.4788531
-2.7480012
-3.0279093
-3.3184994
-3.6196796
-3.931356
-4.2534316
-4.585814
-4.9284826
-5.2815813
-5.6454329
-6.020646
-6.4082076
-6.8093995
-7.2259429
-7.658087
-8.1092212
-8.580235
-9.0714189
-9.5817055
-10.107928
-10.644188
-11.181474
-11.707681
-12.2079
-12.665331
-13.062683
-13.383669
-13.614588
-13.745581
-13.771679
-13.692835
-13.51387
-13.244466
-12.898159
-12.491007
-12.039913
-11.561282
-11.069707
-10.577077
-10.092049
-9.6201446
-9.1642925
-8.7253601
-8.3028508
-7.8954525
-7.5009964
-7.1180349
-6.7452466
-6.3816105
-6.0263873
-5.6792421
-5.3401674
-5.0093285
-4.6870204
-4.3735909
-4.0694218
-3.7748963
-3.4903093
-3.2159452
-2.95202
-2.6987702
-2.4563666
-2.2250069
-2.0048479
-1.7960182
-1.5986285
-1.4127997
-1.2386055
-1.0761188
-0.9253879
-0.78636823
-0.65908493
-0.54355028
-0.43968523
-0.3474516
-0.26674535
-0.197912
-0.14047527
-0.087677455
0.69430146
0.64187438
0.58535462
0.51794333
0.43913323
0.349243
0.24819082
0.13588809
0.012270623
-0.12272254
-0.26914191
-0.42702716
-0.59640178
-0.77728081
-0.96967767
-1.1735934
-1.3890009
-1.6158477
-1.8540666
-2.1035811
-2.3643002
-2.636128
-2.9189476
-3.2126183
-3.5169834
-3.8318775
-4.1571324
-4.492611
-4.8382666
-5.1942669
-5.5610611
-5.9394764
-6.3308214
-6.736912
-7.1600472
-7.6028437
-8.068954
-8.5612197
-9.0817105
-9.630918
-10.206731
-10.803485
-11.411228
-12.015397
-12.597173
-13.134722
-13.605151
-13.986691
-14.260997
-14.414915
-14.441851
-14.341777
-14.121195
-13.793128
-13.375723
-12.890474
-12.359914
-11.805384
-11.245295
-10.693889
-10.160785
-9.6512867
-9.1671783
-8.7076732
-8.2705118
-7.8528241
-7.4510683
-7.062431
-6.6848507
-6.316771
-5.9571186
-5.6054255
-5.2616324
-4.9259234
-4.5986669
-4.2803277
-3.9713629
-3.6722106
-3.3832768
-3.1049093
-2.8373929
-2.5809896
-2.3358933
-2.1022803
-1.8803087
-1.6700462
-1.47158
-1.2849669
-1.110317
-0.94761864
-0.79683113
-0.65792943
-0.53084207
-0.41556429
-0.31201672
-0.22008074
-0.13967259
-0.071150167
-0.013985448
0.038549052
0.82756945
0.77531532
0.71902159
0.65188757
0.57340883
0.48391398
0.38328809
0.27140164
0.14815675
0.013462415
-0.13276211
-0.29058604
-0.46006941
-0.6412719
-0.83424871
-1.0390308
-1.2556159
-1.4839726
-1.7240454
-1.9757548
-2.2389951
-2.5136403
-2.7995347
-3.0964816
-3.4042416
-3.7225417
-4.0511029
-4.3896938
-4.7382072
-5.0967362
-5.4657317
-5.8461173
-6.2394731
-6.6481578
-7.0754756
-7.5256429
-8.0039219
-8.515436
-9.0648887
-9.655318
-10.286649
-10.95425
-11.647417
-12.348659
-13.034103
-13.675008
-14.240511
-14.701142
-15.032161
-15.215937
-15.243751
-15.115603
-14.840231
-14.435192
-13.925061
-13.338873
-12.707086
-12.057918
-11.414773
-10.794666
-10.207923
-9.6587968
-9.1469491
-8.6690078
-8.2200705
-7.7950987
-7.3886905
-6.9965797
-6.6157426
-6.2441221
-5.8804791
-5.5242901
-5.1755457
-4.8345993
-4.501949
-4.1781831
-3.8639083
-3.5596933
-3.2660241
-2.9833323
-2.711974
-2.4521948
-2.2042328
-1.9682392
-1.7443093
-1.53249
-1.3328929
-1.1455168
-0.97035566
-0.80743523
-0.6565994
-0.5178077
-0.39098156
-0.2760456
-0.17285739
-0.081323704
-0.0012607481
0.066945962
0.12379154
0.17605321
0.97161931
0.91951406
0.86342857
0.79658893
0.71851502
0.62951449
0.52941855
0.41805635
0.29529145
0.16099506
0.015053706
-0.142638
-0.31218666
-0.49369348
-0.6872477
-0.89291462
-1.1107243
-1.3406648
-1.5826854
-1.8367069
-2.1026237
-2.3802926
-2.6695171
-2.9700298
-3.2814848
-3.6034824
-3.9356095
-4.2774905
-4.6288422
-4.9895563
-5.3598906
-5.740733
-6.1338251
-6.5419929
-6.9694688
-7.4221424
-7.907407
-8.4335583
-9.0090967
-9.6411223
-10.333141
-11.082754
-11.879206
-12.701825
-13.52005
-14.295394
-14.98563
-15.550357
-15.955902
-16.1787
-16.20741
-16.042057
-15.694226
-15.187434
-14.555226
-13.837477
-13.075767
-12.308101
-11.564554
-10.865076
-10.219941
-9.631182
-9.0947129
-8.6030755
-8.1475435
-7.7202827
-7.3131648
-6.9205675
-6.5384657
-6.164435
-5.7972225
-5.4364581
-5.0824071
-4.7356548
-4.3969331
-4.067079
-3.7468694
-3.4370494
-3.1382161
-2.8508136
-2.5752843
-2.3119127
-2.0608771
-1.8223121
-1.5963347
-1.3829983
-1.1822325
-0.99405047
-0.81840478
-0.65529763
-0.50452809
-0.36595583
-0.23945826
-0.12498072
-0.022266213
0.06880952
0.14844876
0.21630763
0.27286237
0.32486341
1.1263404
1.0743453
1.0184209
0.95192258
0.87437311
0.78600717
0.6865926
0.57590972
0.45377529
0.32001933
0.174488
0.017031009
-0.15250256
-0.33425422
-0.52835086
-0.73489784
-0.95395652
-1.1855318
-1.4295846
-1.6860516
-1.9548438
-2.2358094
-2.5286996
-2.8331626
-3.1487473
-3.4749192
-3.8110989
-4.1566745
-4.511045
-4.8737299
-5.2446625
-5.6243974
-6.0145144
-6.4180732
-6.8401256
-7.2882763
-7.7721832
-8.3047321
-8.8997153
-9.5702113
-10.325736
-11.168517
-12.089412
-13.064596
-14.054583
-15.006797
-15.862466
-16.565266
-17.069083
-17.342882
-17.372485
-17.157813
-16.713817
-16.07161
-15.276907
-14.38555
-13.45561
-12.538973
-11.674382
-10.884921
-10.179051
-9.5540941
-9.0001092
-8.503509
-8.0504232
-7.6272986
-7.224869
-6.835496
-6.454426
-6.0791193
-5.7086081
-5.3429474
-4.9828471
-4.6293865
-4.2836913
-3.9468854
-3.6199921
-3.3039212
-2.9993792
-2.7068595
-2.4268087
-2.159539
-1.9052439
-1.6640444
-1.4359681
-1.2210347
-1.0191534
-0.83025378
-0.65425166
-0.49101949
-0.34039191
-0.20220114
-0.07623282
0.037681894
0.13977807
0.23028455
0.30938902
0.37684272
0.43310712
0.48483978
1.2915008
1.2395298
1.183781
1.1177213
1.040881
0.95335089
0.85482426
0.74502325
0.62371619
0.49068583
0.34572754
0.18864578
0.019252031
-0.16264234
-0.35721262
-0.5646002
-0.78489347
-1.0181257
-1.2642919
-1.5233642
-1.7952727
-2.0798544
-2.3768112
-2.685721
-3.0060528
-3.337125
-3.6781295
-4.0281226
-4.386062
-4.7509481
-5.1220701
-5.4993025
-5.883617
-6.2777399
-6.6870571
-7.1204565
-7.5911416
-8.1169995
-8.7187837
-9.4185485
-10.235746
-11.181314
-12.25094
-13.41867
-14.633694
-15.822431
-16.900526
-17.787563
-18.420896
-18.760926
-18.791067
-18.511669
-17.940221
-17.116602
-16.103002
-14.979041
-13.828468
-12.723673
-11.714371
-10.825831
-10.061642
-9.4101937
-8.8516976
-8.3636445
-7.9246223
-7.51627
-7.1256648
-6.7440329
-6.3663612
-5.990572
-5.6164749
-5.2450117
-4.8776792
-4.5162003
-4.1622805
-3.8174146
-3.4828776
-3.1597782
-2.8488849
-2.5507514
-2.2658431
-1.9944841
-1.736824
-1.4928882
-1.26271
-1.0462232
-0.84329086
-0.65375411
-0.47750861
-0.31435381
-0.16405832
-0.026403969
0.098865317
0.21200692
0.31330454
0.40302577
0.48140642
0.5483474
0.60428693
0.65579155
1.4668718
1.4145656
1.3591117
1.2937917
1.2179318
1.1315053
1.0341282
0.92546285
0.8052251
0.67314541
0.52896816
0.37245305
0.20336701
0.021472827
-0.17345402
-0.38159187
-0.60306397
-0.83795216
-1.0863101
-1.3481557
-1.6234376
-1.9119885
-2.2134918
-2.5274815
-2.8533571
-3.1903086
-3.5372492
-3.8928533
-4.2555376
-4.6235881
-4.9952884
-5.3693116
-5.7453015
-6.1248361
-6.5128018
-6.9188993
-7.3591952
-7.8579497
-8.4448637
-9.1549774
-10.023258
-11.076235
-12.320865
-13.733091
-15.247858
-16.758956
-18.140343
-19.274707
-20.077438
-20.501346
-20.531712
-20.169207
-19.430096
-18.362189
-17.049499
-15.608319
-14.163519
-12.819612
-11.640166
-10.6485
-9.8371119
-9.1788066
-8.6380392
-8.1791548
-7.7716665
-7.390792
-7.0204186
-6.6511783
-6.2787342
-5.9023581
-5.5234489
-5.1443558
-4.7678104
-4.3964557
-4.03265
-3.6782996
-3.3349943
-3.0039537
-2.6859953
-2.3817601
-2.0917005
-1.8160255
-1.5548628
-1.3082003
-1.0759665
-0.85801042
-0.65411812
-0.46414637
-0.2878459
-0.12500243
0.024712623
0.16156245
0.2859048
0.39802151
0.49825928
0.5868843
0.66429651
0.73047732
0.78603921
0.83758329
1.6516237
1.5987811
1.544069
1.4799212
1.4054131
1.3204347
1.2245276
1.1172995
0.99841412
0.86755451
0.72441973
0.5687166
0.40015554
0.21845563
0.023349187
-0.18539222
-0.40794871
-0.6444687
-0.89507549
-1.1598408
-1.4387432
-1.7316402
-2.0382425
-2.3580789
-2.6904748
-3.0345057
-3.388884
-3.7519139
-4.121393
-4.4946581
-4.8686615
-5.2401868
-5.606624
-5.9671526
-6.3245148
-6.6876618
-7.0744487
-7.5167049
-8.0542023
-8.7402613
-9.6332493
-10.786458
-12.231189
-13.955228
-15.877332
-17.838496
-19.641421
-21.109142
-22.127973
-22.652337
-22.682065
-22.218466
-21.264737
-19.866959
-18.137792
-16.253201
-14.408178
-12.759256
-11.385619
-10.29882
-9.4670678
-8.8367903
-8.3490019
-7.9497722
-7.5970468
-7.2592274
-6.9180931
-6.5650594
-6.1981346
-5.8193404
-5.43272
-5.0428997
-4.6541807
-4.2703358
-3.8944893
-3.5289677
-3.1755704
-2.8355764
-2.5098651
-2.1990322
-1.903472
-1.6233152
-1.3586338
-1.109268
-0.87503933
-0.65577059
-0.45118054
-0.26102139
-0.084950327
0.077298689
0.22613293
0.36190052
0.48498328
0.59577095
0.69460762
0.78183346
0.85792133
0.9229203
0.97771322
1.0296453
1.8439878
1.791493
1.7382735
1.6758826
1.6032341
1.5201278
1.426062
1.3206129
1.2034074
1.0740871
0.93230444
0.77771059
0.60995707
0.42871382
0.23366732
0.024523026
-0.19897657
-0.43705857
-0.68992294
-0.95771226
-1.2404614
-1.5380871
-1.8503634
-2.1768634
-2.5168999
-2.8694939
-3.2332583
-3.6061864
-3.9855694
-4.3676123
-4.7476154
-5.1198861
-5.4782732
-5.8175858
-6.1359976
-6.4392363
-6.74589
-7.0880832
-7.5235518
-8.1277034
-8.9919575
-10.213342
-11.872555
-13.993489
-16.483555
-19.096504
-21.50145
-23.41586
-24.692544
-25.322208
-25.349618
-24.777844
-23.566578
-21.726263
-19.4016
-16.874097
-14.471218
-12.434381
-10.852973
-9.7034277
-8.9053427
-8.361583
-7.9802072
-7.6840448
-7.4146254
-7.1372135
-6.8332794
-6.4976623
-6.1334115
-5.7474534
-5.3479357
-4.9424552
-4.537308
-4.1376471
-3.7471349
-3.3684162
-3.0034404
-2.6534567
-2.3192929
-2.0014243
-1.7001429
-1.4154024
-1.1471984
-0.89526158
-0.65929544
-0.43895513
-0.23394995
-0.043930035
0.13152587
0.29286743
0.44046367
0.57477222
0.69622555
0.80531991
0.90235384
0.98777166
1.0620593
1.1253774
1.178787
1.2304184
2.0401946
1.9916741
1.9413925
1.8815899
1.8113938
1.7306182
1.6387943
1.535501
1.4203473
1.292933
1.1528597
0.99972722
0.83313626
0.65269089
0.45801019
0.24872523
0.024490451
-0.21501187
-0.47007305
-0.74092736
-1.0277034
-1.3304043
-1.6488955
-1.9828588
-2.3317219
-2.6945835
-3.0700956
-3.4561386
-3.8495905
-4.24588
-4.6384534
-5.0185887
-5.375178
-5.6959218
-5.9704073
-6.195958
-6.3856765
-6.5763195
-6.8359576
-7.2672499
-8.0046989
-9.2118032
-11.062721
-13.675895
-16.979857
-20.590176
-23.885293
-26.393186
-27.926737
-28.630208
-28.651997
-27.999791
-26.531387
-24.103084
-20.894965
-17.382481
-14.18181
-11.664456
-9.8983177
-8.768503
-8.102343
-7.7368432
-7.5377598
-7.3993256
-7.2499488
-7.0506506
-6.7880117
-6.4655988
-6.0957778
-5.6934327
-5.2725441
-4.8442857
-4.417217
-3.9974932
-3.5892205
-3.1951442
-2.8170927
-2.4561166
-2.1128677
-1.7876294
-1.480468
-1.1912049
-0.91962138
-0.66532708
-0.42790986
-0.20691629
-0.0019089597
0.18757486
0.36199423
0.52195086
0.66793283
0.80039076
0.91981666
1.0267257
1.1215236
1.2046421
1.2765312
1.337463
1.3883747
1.4372049
2.2432188
2.1999413
2.1537741
2.0972827
2.0300178
1.9519968
1.8628179
1.762083
1.6493838
1.5242828
1.3863343
1.2350885
1.0700855
0.89085285
0.6969214
0.48783904
0.2631651
0.02247322
-0.23463967
-0.50851425
-0.79939604
-1.1074128
-1.4325687
-1.7747299
-2.1335738
-2.5084538
-2.8982689
-3.301186
-3.7140771
-4.1320704
-4.54736
-4.9479518
-5.3165261
-5.630414
-5.8646882
-6.0002848
-6.0361875
-6.0073024
-5.992393
-6.1190269
-6.564234
-7.5824334
-9.5035849
-12.688972
-17.220622
-22.484213
-27.139992
-30.419277
-32.049277
-32.686521
-32.695493
-32.096576
-30.533448
-27.340572
-22.774834
-17.629005
-13.231133
-10.158965
-8.324299
-7.3873147
-7.0174037
-6.9635899
-7.0494357
-7.1398697
-7.1491247
-7.0401121
-6.8135959
-6.4901789
-6.0980303
-5.6638869
-5.2089336
-4.7483658
-4.2924594
-3.847794
-3.4184832
-3.0068977
-2.6144084
-2.2416722
-1.8889304
-1.556176
-1.2431686
-0.94952566
-0.67483631
-0.41858882
-0.18019175
0.040990281
0.24552787
0.43390862
0.60682424
0.764905
0.90873841
1.0388659
1.1558289
1.2601157
1.3522204
1.4325595
1.5015489
1.5592676
1.6063324
1.6503378
2.4563125
2.4182017
2.3761707
2.3232593
2.2592888
2.1843906
2.0982452
2.000477
1.8906614
1.7683268
1.6329834
1.4841232
1.3212089
1.1436818
0.95097525
0.74253733
0.51781882
0.27627033
0.017364123
-0.2593653
-0.55429208
-0.86770783
-1.1998215
-1.5507532
-1.9205247
-2.3089707
-2.7155553
-3.1392155
-3.5776696
-4.026706
-4.4786233
-4.9193734
-5.3252059
-5.6595331
-5.873784
-5.9194982
-5.767118
-5.4429569
-5.0296733
-4.6794859
-4.5748778
-4.9829935
-6.6100689
-10.329261
-16.765616
-25.12335
-32.040647
-35.998604
-37.006854
-37.350648
-37.319929
-36.997598
-36.08137
-32.211248
-25.361387
-17.157765
-10.918614
-7.3445844
-5.7990066
-5.4608777
-5.6444338
-6.0775288
-6.5806497
-6.981289
-7.1857102
-7.1666643
-6.953079
-6.5971061
-6.1529803
-5.6632187
-5.1568496
-4.6520896
-4.159523
-3.6849975
-3.231568
-2.8006484
-2.3927375
-2.007757
-1.6453731
-1.305181
-0.98664834
-0.68904833
-0.41175249
-0.15409254
0.084715745
0.30545868
0.50890426
0.69562308
0.86638678
1.0220071
1.1631071
1.2903768
1.4043523
1.5056003
1.5945861
1.6716913
1.737321
1.7914005
1.8342493
1.8727038
2.6795226
2.6469908
2.6091285
2.5598828
2.4993917
2.4279131
2.3451655
2.2507764
2.1443036
2.0252436
1.8930529
1.7471482
1.586903
1.4116625
1.2207583
1.013516
0.78926399
0.54731748
0.28701609
0.0077608085
-0.2909826
-0.60969566
-0.94883216
-1.3088238
-1.6901039
-2.093174
-2.5184871
-2.9661742
-3.4359686
-3.9261203
-4.4316003
-4.9402076
-5.4244462
-5.8329835
-6.0812319
-6.0634297
-5.6866832
-4.9828651
-4.049915
-3.057027
-2.2463571
-1.5148855
-1.6891887
-5.0125568
-13.973145
-28.772531
-39.882808
-46.08804
-44.103389
-42.824061
-42.721735
-43.988355
-46.110411
-39.983061
-28.909157
-14.408953
-5.7561231
-2.5375414
-2.3503983
-3.1630084
-4.0669065
-5.1600603
-6.2359356
-7.0484759
-7.4843848
-7.5226921
-7.2615785
-6.812733
-6.2690579
-5.6903573
-5.1111139
-4.5490411
-4.0122916
-3.5037423
-3.0239677
-2.5727078
-2.1489834
-1.75175
-1.3799912
-1.0327941
-0.70924881
-0.40833071
-0.12912879
0.12921421
0.36767588
0.58726678
0.78880301
0.97313588
1.1410684
1.2935521
1.4312981
1.5550854
1.6655205
1.7632172
1.8486399
1.9221827
1.9841932
2.0344804
2.0730293
2.1062213
2.915976
2.8874479
2.8530669
2.8073021
2.7504013
2.6825964
2.6035999
2.5130227
2.4103967
2.2951771
2.1667519
2.0244486
1.8675441
1.6952734
1.5068567
1.3014852
1.0783483
0.83662311
0.57549773
0.29421745
-0.0079319336
-0.33163462
-0.67758626
-1.0465463
-1.4394115
-1.8573912
-2.3021387
-2.7757047
-3.2808609
-3.8206725
-4.3967564
-5.0065262
-5.6259575
-6.1954721
-6.5862935
-6.6063036
-5.9687803
-4.6200371
-2.8625391
-1.1488637
0.67740914
3.5919009
6.4053609
4.4540202
-12.289137
-45.144549
-60.270089
-57.716322
-47.32221
-45.191292
-44.555593
-47.266438
-58.034432
-59.295994
-44.712258
-13.118643
3.662315
5.137165
2.6427578
-0.27427149
-2.3019687
-4.2613948
-6.1516938
-7.5484637
-8.221323
-8.2081127
-7.7890274
-7.1528639
-6.4429778
-5.7338654
-5.0590344
-4.427976
-3.8415493
-3.2968485
-2.7902795
-2.3188116
-1.8797407
-1.4708893
-1.0904713
-0.7370942
-0.40938372
-0.10598286
0.17418899
0.43230302
0.66951773
0.88701969
1.0857911
1.2668546
1.4311709
1.5797292
1.7134214
1.8330696
1.9393963
2.0330192
2.1144452
2.1840992
2.2423194
2.2889042
2.3235899
2.3517335
3.1654973
3.1394936
3.1079494
3.0654882
3.0122488
2.9483575
2.873479
2.7871854
2.6889653
2.5782128
2.4542354
2.3162664
2.1634777
1.9949799
1.809861
1.6071824
1.3859744
1.1452602
0.88406166
0.60143905
0.29648572
-0.031679819
-0.38396828
-0.76140977
-1.1652939
-1.5974814
-2.0607198
-2.5595608
-3.1007493
-3.6939599
-4.352831
-5.0998561
-5.9286195
-6.7801254
-7.4816906
-7.7580935
-6.9544031
-5.1034721
-2.6708562
-0.26115691
1.4828739
7.6396963
22.681051
39.438751
40.598685
-26.384053
-87.136201
331.67584
1686.5866
2814.1566
2777.8693
1668.9458
335.86648
-89.908719
-25.493494
37.428752
36.113966
19.940911
6.9215152
0.87247165
-1.3453413
-4.0731934
-6.745794
-8.743154
-9.6007254
-9.3579223
-8.5972694
-7.6248244
-6.6544087
-5.7679364
-4.9786714
-4.2724811
-3.635446
-3.0557872
-2.5242711
-2.0342854
-1.5813644
-1.1621983
-0.77432922
-0.41594226
-0.085237901
0.2194563
0.49951226
0.75624126
0.99110318
1.2054043
1.4004063
1.5772032
1.7369378
1.880711
2.0095298
2.1243261
2.2259018
2.3149035
2.3919011
2.4573694
2.5117021
2.5548147
2.5865899
2.6124255
3.4254952
3.402103
3.3732779
3.3341243
3.2846819
3.2249866
3.1546374
3.0731518
2.9799533
2.8743637
2.7556034
2.622802
2.4750159
2.3112282
2.130374
1.9313761
1.7130942
1.4743616
1.2140153
0.93091085
0.62394655
0.29203727
-0.065912269
-0.45108823
-0.86492026
-1.3095197
-1.7885928
-2.3088437
-2.8811128
-3.5230126
-4.2573803
-5.176755
-6.3357212
-7.7478538
-9.22663
-9.9902892
-8.7515487
-5.1729162
-0.66498167
2.2607749
-0.96161199
-2.9780622
25.375981
59.567648
-33.646869
821.41405
5327.5991
8127.0343
8480.7097
8129.2895
8101.5711
8459.5435
8114.3813
5273.691
821.53579
-21.626487
53.572909
22.417248
-1.5240353
-0.76588107
0.59797551
-3.0162892
-7.3484739
-10.952585
-12.355465
-11.552591
-9.8542442
-8.2148655
-6.84403
-5.7412379
-4.8369026
-4.0609001
-3.380398
-2.771971
-2.2200505
-1.7148299
-1.2504772
-0.82291378
-0.42922153
-0.0672834
0.26501723
0.56953951
0.84804511
1.1020715
1.3332781
1.5431406
1.7331194
1.9045171
2.0585773
2.1965649
2.3196327
2.428795
2.5248914
2.6086699
2.6807585
2.7417191
2.7919818
2.8316029
2.8605646
2.88374
3.6954928
3.6745534
3.6484707
3.6127034
3.5672912
3.5121473
3.4468033
3.3707126
3.2832229
3.1835739
3.0708949
2.944206
2.8024358
2.6444366
2.468989
2.274843
2.0606785
1.8251052
1.5667351
1.2841996
0.97617316
0.64135527
0.27848116
-0.11363012
-0.53622217
-0.99112526
-1.48193
-2.016319
-2.6082817
-3.2899142
-4.029642
-5.1183238
-6.7242843
-9.2106131
-12.635383
-14.927793
-12.929148
-5.8705236
1.9109332
9.1382275
6.5743683
-25.173164
-36.350506
1383.1919
2920.3511
5306.0108
6981.2292
7594.6285
7676.5252
7623.5677
7615.6203
7666.7922
7588.8428
6987.7266
5333.6799
2992.0573
1460.0517
-27.858983
-16.480515
5.7164198
6.4155467
-1.24965
-8.6766329
-15.659608
-17.889679
-15.328709
-11.538223
-8.7543458
-6.8656065
-5.5683285
-4.5961043
-3.7703084
-3.0641065
-2.43869
-1.8735315
-1.357261
-0.88443276
-0.45066547
-0.053047083
0.31075807
0.64296458
0.94574004
1.2210533
1.4708191
1.6968194
1.900792
2.0843245
2.2489861
2.3961908
2.5272985
2.6436276
2.7462564
2.836095
2.9139742
2.9806242
3.0366616
3.0826052
3.1186174
3.1447041
3.1653349
3.9745774
3.9560844
3.9328188
3.900641
3.8595586
3.8093898
3.7495938
3.6795551
3.5985418
3.505704
3.400074
3.2805605
3.1459615
2.9949911
2.826278
2.6383551
2.4296894
2.1986754
1.9436638
1.6629848
1.3549982
1.0181419
0.65099088
0.25243786
-0.17836968
-0.64236131
-1.1404263
-1.6750944
-2.2560339
-2.9084826
-3.6784336
-4.762874
-6.604298
-9.9336417
-15.525976
-19.708257
-19.417877
-12.103798
-4.5090492
8.6453974
37.009251
-169.82059
1155.711
4154.9106
5701.9326
5948.7542
6490.6788
6852.1818
7005.5758
7043.1938
7041.2431
7002.5751
6852.507
6499.3281
5962.6116
5714.3717
4076.0087
1039.8039
-136.2454
32.076838
5.2539365
-6.7550555
-13.212917
-23.676435
-25.207158
-19.121119
-12.475693
-8.7562703
-6.5381197
-5.1734942
-4.1869571
-3.3791812
-2.6805838
-2.0544183
-1.4839473
-0.95978121
-0.48130816
-0.043444994
0.35622987
0.72005212
1.0503263
1.3494834
1.6197267
1.8633769
2.0824316
2.2788326
2.4543673
2.6108224
2.7497935
2.8727858
2.9812663
3.0763689
3.1591006
3.2303421
3.2909555
3.3415993
3.3828861
3.415063
3.4381386
3.4562414
4.2618413
4.2458379
4.2255409
4.1972205
4.1608518
4.1161517
4.0625145
3.9992567
3.925568
3.8405117
3.7430111
3.6318636
3.5057448
3.3632183
3.2027371
3.0226234
2.8210931
2.5962967
2.3462908
2.0690226
1.7624445
1.4245426
1.0535992
0.64838852
0.20828499
-0.26757124
-0.77511781
-1.3106275
-1.8716658
-2.4668851
-3.0890043
-3.8464633
-5.5759682
-8.6167253
-14.716095
-24.790871
-28.370006
6.7894681
-5.1423362
9.9008419
115.7105
1306.2261
3603.9769
4733.6527
5267.2945
5655.8649
6023.2789
6294.3784
6450.6665
6512.2362
6511.4554
6450.4867
6296.0878
6027.3297
5658.7283
5261.3853
4697.6579
3564.5841
1358.1819
114.75477
-2.3610046
-1.8544428
6.066096
-29.930655
-25.283573
-18.184474
-11.345424
-7.5424291
-5.5480408
-4.4861864
-3.6557156
-2.9171839
-2.2470103
-1.6272941
-1.0531151
-0.52414981
-0.040193575
0.40056008
0.80063915
1.1625109
1.4888236
1.7821921
2.0452616
2.2806496
2.4907181
2.6776344
2.8434235
2.9900302
3.1192643
3.2328113
3.332204
3.4186952
3.4933665
3.5571814
3.6110618
3.655806
3.6920185
3.7200548
3.7399643
3.7554873
4.5562914
4.542882
4.5257651
4.5016281
4.4704175
4.4317482
4.3849475
4.3292737
4.2638452
4.1876344
4.0994588
3.998004
3.881823
3.7493207
3.598767
3.4282767
3.2358042
3.0191969
2.7761639
2.5042217
2.2007405
1.8631798
1.4889851
1.0760838
0.62315219
0.12988293
-0.39969712
-0.95517568
-1.5207995
-2.077614
-2.4843432
-2.7856028
-3.7389048
-6.0857029
1.8603469
-0.18506099
25.525271
131.00904
-18.55638
-112.62966
1929.9168
4125.7221
4326.2679
4639.206
4998.3589
5361.8873
5652.6487
5861.5785
5993.6389
6053.5437
6053.6024
5994.4923
5863.6511
5655.4265
5363.4089
4995.7676
4635.9773
4336.886
4151.1056
1928.4874
-143.31926
0.94266051
36.939013
46.882892
-16.580022
-9.1639939
-8.2887311
-5.1785698
-4.0482027
-3.6547386
-3.1085214
-2.4463089
-1.7945651
-1.1718265
-0.58760302
-0.049882158
0.44053895
0.88342698
1.2823326
1.6401299
1.9600604
2.2451522
2.498588
2.7233477
2.9221538
3.0974415
3.2515185
3.3865126
3.5043939
3.6069969
3.695954
3.7726476
3.8382291
3.8937545
3.9401762
3.9783929
4.0090799
4.032649
4.0491901
4.0619885
4.8568648
4.8461864
4.832521
4.8129465
4.7873823
4.7553613
4.7161436
4.6689356
4.6127843
4.5465705
4.4690192
4.3787116
4.2740748
4.1533605