/*--------------------------------*- C++ -*----------------------------------*\
  =========                 |
  \\      /  F ield         | OpenFOAM: The Open Source CFD Toolbox
   \\    /   O peration     | Website:  https://openfoam.org
    \\  /    A nd           | Version:  9
     \\/     M anipulation  |
\*---------------------------------------------------------------------------*/
FoamFile
{
    format      ascii;
    class       surfaceScalarField;
    location    "0.17";
    object      phi;
}
// * * * * * * * * * * * * * * * * * * * * * * * * * * * * * * * * * * * * * //

dimensions      [0 3 -1 0 0 0 0];

internalField   nonuniform List<scalar> 
19800
(
2.0869061e-05
-1.0566239e-05
5.4778106e-05
-1.0334463e-05
8.8866475e-05
-1.0010219e-05
0.00012306587
-9.9484413e-06
0.00015739434
-9.8640742e-06
0.00019187229
-9.8858607e-06
0.00022651335
-1.0011436e-05
0.00026132647
-1.0249253e-05
0.00029628302
-1.06034e-05
0.00033135565
-1.1061884e-05
0.00036677162
-1.1876139e-05
0.00040254801
-1.2939463e-05
0.00043859093
-1.4219512e-05
0.00047483933
-1.5773928e-05
0.00051119016
-1.7641916e-05
0.00054731525
-1.9749491e-05
0.0005834949
-2.2387874e-05
0.00061962468
-2.5228245e-05
0.0006552935
-2.8327067e-05
0.00068980001
-3.1697779e-05
0.00072322065
-3.5005349e-05
0.00075559153
-3.7509675e-05
0.0007870745
-3.9688766e-05
0.00081846523
-4.0770993e-05
0.00084852435
-4.1403027e-05
0.0008770865
-4.1592976e-05
0.00090396235
-4.1434633e-05
0.0009288233
-4.0219394e-05
0.00095126454
-3.8495732e-05
0.00097077552
-3.6209328e-05
0.00098665562
-3.3551954e-05
0.00099765822
-3.0676067e-05
0.0010025417
-2.7652469e-05
0.0010005697
-2.3735151e-05
0.00099163657
-1.9153584e-05
0.00097537482
-1.3687965e-05
0.00095155425
-7.3207245e-06
0.00092117027
-1.2085246e-06
0.00088325139
6.5375344e-06
0.00083654537
1.5217045e-05
0.00078178447
2.4004984e-05
0.00071919156
3.3127751e-05
0.00064849984
4.2019257e-05
0.00057027623
5.0259959e-05
0.00048530914
5.7806045e-05
0.00039440897
6.4570197e-05
0.00029856579
7.0351482e-05
0.0001989244
7.4969556e-05
9.6710564e-05
7.8238165e-05
-6.8253682e-06
8.0016567e-05
-0.00011041818
8.0289623e-05
-0.00021280686
7.903744e-05
-0.00031274218
7.6239587e-05
-0.00040895985
7.2017208e-05
-0.00050030961
6.6561508e-05
-0.00058581203
6.0001933e-05
-0.00066466377
5.2547361e-05
-0.00073618777
4.4404516e-05
-0.00079976824
3.5798217e-05
-0.00085467692
2.6809121e-05
-0.00090191828
1.8041068e-05
-0.0009401986
8.2129654e-06
-0.0009709406
-1.7992806e-08
-0.00099498775
-6.6064853e-06
-0.0010114273
-1.3307814e-05
-0.0010203123
-1.9163783e-05
-0.0010219638
-2.4157226e-05
-0.0010164618
-2.8512579e-05
-0.0010049256
-3.1386275e-05
-0.00098838189
-3.4749663e-05
-0.00096810118
-3.7693595e-05
-0.0009447898
-4.0202689e-05
-0.00091901182
-4.2084255e-05
-0.00089105597
-4.3379925e-05
-0.00086137851
-4.3793907e-05
-0.00083033656
-4.3407832e-05
-0.00079787755
-4.2838065e-05
-0.00076549378
-4.194061e-05
-0.00073201716
-3.997955e-05
-0.00069768256
-3.7381163e-05
-0.00066284108
-3.4374859e-05
-0.00062667067
-3.0734144e-05
-0.00058983497
-2.749817e-05
-0.00055290855
-2.4511372e-05
-0.00051613872
-2.175531e-05
-0.00047937102
-1.937464e-05
-0.00044260504
-1.7401725e-05
-0.00040605962
-1.5689549e-05
-0.00036980262
-1.4273314e-05
-0.00033386349
-1.3133846e-05
-0.00029826017
-1.2241512e-05
-0.00026301739
-1.1535685e-05
-0.00022804371
-1.1105866e-05
-0.00019326799
-1.0847057e-05
-0.00015866017
-1.0669236e-05
-0.00012422726
-1.0566135e-05
-8.9962842e-05
-1.0522141e-05
-5.5849575e-05
-1.0515506e-05
-2.186186e-05
-1.0594015e-05
-1.0563221e-05
2.137912e-05
-4.4291134e-05
5.527636e-05
-4.4233135e-05
8.9282782e-05
-4.4012444e-05
0.000123384
-4.405218e-05
0.00015759952
-4.4075932e-05
0.00019193656
-4.4220537e-05
0.00022641081
-4.4480867e-05
0.00026104045
-4.4881027e-05
0.00029586959
-4.5434802e-05
0.00033096411
-4.6157121e-05
0.00036618534
-4.7095668e-05
0.00040152578
-4.8275564e-05
0.00043704463
-4.9737322e-05
0.00047268935
-5.1419428e-05
0.00050834326
-5.3294112e-05
0.00054425161
-5.565272e-05
0.00058010697
-5.8234916e-05
0.0006156194
-6.073323e-05
0.00065056581
-6.3271426e-05
0.00068513909
-6.6272992e-05
0.00071866637
-6.8534846e-05
0.00075180386
-7.0648004e-05
0.00078390559
-7.1789036e-05
0.00081534225
-7.2204712e-05
0.0008459806
-7.2040517e-05
0.00087519437
-7.0810294e-05
0.00090246846
-6.8714694e-05
0.0009279997
-6.5755225e-05
0.00095071511
-6.1212776e-05
0.00097025241
-5.574694e-05
0.00098596789
-4.9268963e-05
0.00099703539
-4.1747512e-05
0.0010025869
-3.3209291e-05
0.0010019418
-2.3092527e-05
0.00099442641
-1.1634569e-05
0.00098047316
2.7083859e-07
0.00095851729
1.4637027e-05
0.00092814488
2.9163709e-05
0.00088962336
4.5057766e-05
0.00084313231
6.1704558e-05
0.00078838681
7.8752004e-05
0.00072566221
9.5861494e-05
0.000654874
0.0001128151
0.00057643493
0.00012870495
0.00049099048
0.00014325825
0.00039939385
0.00015617352
0.00030264472
0.0001671067
0.00020189417
0.00017572464
9.8401085e-05
0.00018173242
-6.4989752e-06
0.00018491284
-0.00011148275
0.00018526736
-0.00021521376
0.00018276689
-0.00031634523
0.00017737284
-0.0004135961
0.00016927666
-0.000505795
0.00015877107
-0.00059195401
0.00014616851
-0.00067125007
0.0001318472
-0.00074302132
0.00011617903
-0.00080676371
9.9538637e-05
-0.00086200385
8.205198e-05
-0.00090850991
6.4550629e-05
-0.00094778536
4.7494697e-05
-0.00097835026
3.0550787e-05
-0.0010007195
1.5765194e-05
-0.0010146467
6.1403405e-07
-0.0010219838
-1.1831668e-05
-0.0010221013
-2.4037719e-05
-0.0010164232
-3.4187551e-05
-0.0010046267
-4.3181065e-05
-0.00098818103
-5.1193897e-05
-0.00096782838
-5.804597e-05
-0.00094426548
-6.3761077e-05
-0.00091796904
-6.8376233e-05
-0.00088942452
-7.1922872e-05
-0.00085917746
-7.4038807e-05
-0.00082745631
-7.5129435e-05
-0.00079491435
-7.5385479e-05
-0.00076162897
-7.5238134e-05
-0.00072763468
-7.3978084e-05
-0.00069322045
-7.1797299e-05
-0.00065796853
-6.9626248e-05
-0.00062228901
-6.6419354e-05
-0.00058626675
-6.3531836e-05
-0.0005498072
-6.0972657e-05
-0.00051322537
-5.8340472e-05
-0.00047689313
-5.5710302e-05
-0.00044077738
-5.352424e-05
-0.00040477168
-5.1694426e-05
-0.00036895919
-5.0081342e-05
-0.00033338636
-4.871032e-05
-0.00029805411
-4.7578659e-05
-0.00026290056
-4.6697971e-05
-0.00022797099
-4.6042926e-05
-0.00019326909
-4.5546852e-05
-0.00015875197
-4.517896e-05
-0.00012438617
-4.4923553e-05
-9.0152492e-05
-4.4759429e-05
-5.6005224e-05
-4.4661369e-05
-2.1962141e-05
-4.4652537e-05
-4.4598175e-05
2.1435891e-05
-7.8082161e-05
5.5287212e-05
-7.8083555e-05
8.9261569e-05
-7.7992337e-05
0.00012327333
-7.8063095e-05
0.00015739026
-7.8191817e-05
0.00019162428
-7.8449125e-05
0.00022598224
-7.8838859e-05
0.00026047941
-7.9379739e-05
0.00029513451
-8.0091821e-05
0.00032996839
-8.0992053e-05
0.00036498033
-8.2105531e-05
0.00040015476
-8.344915e-05
0.00043544417
-8.5026976e-05
0.00047087637
-8.6850172e-05
0.0005066559
-8.907059e-05
0.00054235886
-9.1351007e-05
0.00057784763
-9.3719178e-05
0.00061312392
-9.600785e-05
0.00064844208
-9.8589483e-05
0.00068330694
-0.00010113698
0.00071764003
-0.00010286658
0.00075151957
-0.0001045262
0.00078466885
-0.00010493705
0.0008174185
-0.00010495471
0.00084896712
-0.0001035923
0.00087928972
-0.00010113792
0.00090788194
-9.7312099e-05
0.00093424093
-9.2118006e-05
0.00095812056
-8.5093556e-05
0.00097882282
-7.6448731e-05
0.00099559254
-6.6038944e-05
0.0010076513
-5.3806888e-05
0.0010144569
-4.0013846e-05
0.0010159174
-2.4550919e-05
0.0010103472
-6.062516e-06
0.00099675995
1.3857081e-05
0.00097582279
3.5568773e-05
0.00094642293
5.8559888e-05
0.00090865854
8.2825577e-05
0.00086246072
0.00010790635
0.00080739127
0.00013382343
0.00074347916
0.00015977882
0.00067161258
0.00018468618
0.00059193562
0.00020838393
0.00050480643
0.00023039233
0.00041106932
0.00024991729
0.00031180043
0.00026638181
0.00020826172
0.00027926632
0.00010180767
0.00028818668
-6.1275467e-06
0.00029284673
-0.00011417034
0.00029330664
-0.00022094209
0.00028953725
-0.00032503803
0.00028146586
-0.00042491847
0.00026915625
-0.00051938003
0.00025323474
-0.00060741146
0.00023420386
-0.00068820027
0.00021263762
-0.00076110989
0.0001890895
-0.00082551528
0.00016394394
-0.0008814581
0.00013799862
-0.00092834547
0.00011144287
-0.00096631076
8.5466049e-05
-0.00099644747
6.0685848e-05
-0.0010173379
3.6649844e-05
-0.0010311981
1.4475493e-05
-0.0010365223
-6.5099233e-06
-0.0010351239
-2.5431678e-05
-0.0010275856
-4.1728921e-05
-0.0010147337
-5.6034881e-05
-0.00099711959
-6.8806009e-05
-0.00097547907
-7.9683877e-05
-0.0009505536
-8.8686528e-05
-0.00092285327
-9.6069505e-05
-0.00089342431
-0.00010135168
-0.00086213386
-0.00010533043
-0.0008294355
-0.00010783402
-0.00079549993
-0.0001093275
-0.0007614833
-0.00010925867
-0.00072667846
-0.00010878203
-0.00069123054
-0.00010724991
-0.00065590777
-0.00010495803
-0.00061969454
-0.00010263553
-0.00058356207
-9.9677375e-05
-0.00054756679
-9.6967315e-05
-0.00051138179
-9.4524008e-05
-0.00047511558
-9.1985277e-05
-0.00043897094
-8.9676221e-05
-0.00040318647
-8.7477826e-05
-0.00036763042
-8.5630324e-05
-0.00033228314
-8.4070075e-05
-0.00029711854
-8.2749337e-05
-0.00026215641
-8.1660819e-05
-0.00022741266
-8.0791692e-05
-0.00019285396
-8.0098721e-05
-0.00015846146
-7.9569507e-05
-0.00012419087
-7.9179524e-05
-9.0044908e-05
-7.8909864e-05
-5.5941629e-05
-7.8759679e-05
-2.1910027e-05
-7.868558e-05
-7.8636212e-05
2.1521905e-05
-0.00011193382
5.5359961e-05
-0.00011193094
8.9302885e-05
-0.0001119374
0.00012322646
-0.00011198765
0.00015723831
-0.00011219855
0.00019134285
-0.00011255194
0.00022555917
-0.00011305512
0.00025989552
-0.00011371759
0.00029437376
-0.00011457254
0.00032901847
-0.00011563685
0.00036383006
-0.00011691719
0.00039881375
-0.00011843284
0.00043397294
-0.00012018402
0.00046930028
-0.00012217448
0.0005046488
-0.00012441628
0.00054004931
-0.00012674968
0.00057551224
-0.00012918205
0.00061110261
-0.00013159765
0.00064653713
-0.00013402074
0.00068158282
-0.00013617876
0.00071659352
-0.00013787542
0.00075104995
-0.00013898268
0.00078524916
-0.00013913767
0.00081862422
-0.00013833294
0.00085127466
-0.00013624732
0.00088278841
-0.00013265651
0.00091273158
-0.00012725976
0.00094069454
-0.00012008429
0.00096637461
-0.00011077411
0.00098890798
-9.8979761e-05
0.0010076374
-8.4765305e-05
0.0010218696
-6.8035724e-05
0.0010306324
-4.8773307e-05
0.0010330857
-2.7004656e-05
0.0010295227
-2.5053116e-06
0.0010180515
2.5321601e-05
0.00099873026
5.4885391e-05
0.00097098907
8.6300063e-05
0.00093420977
0.00011961063
0.00088820361
0.00015391872
0.00083309739
0.00018892926
0.00076896464
0.00022391135
0.00069574954
0.00025790478
0.00061396187
0.00029017591
0.00052450764
0.00031985213
0.00042787783
0.00034655133
0.00032511737
0.0003691455
0.00021761191
0.0003867741
0.00010682319
0.00039897624
-5.6811329e-06
0.00040535063
-0.00011830528
0.00040592552
-0.00022944087
0.00040066825
-0.00033747299
0.00038949231
-0.00044103419
0.00037271397
-0.00053877175
0.00035097224
-0.00062952088
0.00032495667
-0.0007123176
0.00029543803
-0.0007864381
0.00026320966
-0.00085156469
0.000229071
-0.00090741376
0.0001938524
-0.00095414638
0.00015817868
-0.00099168248
0.00012300156
-0.0010199191
8.8921129e-05
-0.0010396512
5.6379145e-05
-0.0010509836
2.5809921e-05
-0.0010541355
-3.3577592e-06
-0.0010514971
-2.8068019e-05
-0.0010422587
-5.0970498e-05
-0.0010272851
-7.1018268e-05
-0.0010076695
-8.8430633e-05
-0.00098412836
-0.00010322197
-0.00095742247
-0.00011539359
-0.00092831239
-0.00012518338
-0.00089716534
-0.00013249623
-0.00086449232
-0.00013800735
-0.00083052344
-0.00014180539
-0.00079612877
-0.00014372094
-0.00076089099
-0.0001445027
-0.00072544303
-0.00014423729
-0.00068967509
-0.00014302406
-0.00065356837
-0.0001410749
-0.00061751445
-0.0001386946
-0.0005812077
-0.00013598651
-0.00054495366
-0.00013322946
-0.00050895254
-0.00013053175
-0.00047305588
-0.00012788448
-0.00043732363
-0.00012540214
-0.00040170972
-0.00012309171
-0.00036631935
-0.00012103296
-0.00033114595
-0.00011924627
-0.00029618425
-0.00011771389
-0.00026142351
-0.00011642466
-0.00022684213
-0.00011537331
-0.00019243075
-0.00011450577
-0.00015816162
-0.00011384327
-0.0001239975
-0.00011334654
-8.9922518e-05
-0.00011298104
-5.5886936e-05
-0.00011279393
-2.189852e-05
-0.00011267647
-0.00011263775
2.1567255e-05
-0.00014579475
5.5380088e-05
-0.00014574877
8.9229087e-05
-0.00014578963
0.00012307645
-0.00014583107
0.0001569864
-0.00014610604
0.00019095292
-0.00014651645
0.00022499002
-0.00014709158
0.00025913782
-0.00014786685
0.00029340974
-0.00014884484
0.00032783824
-0.00015006575
0.00036242302
-0.0001515017
0.00039717732
-0.0001531838
0.00043210483
-0.00015510688
0.00046719477
-0.00015726108
0.00050239694
-0.00015961771
0.00053775589
-0.00016211039
0.00057324892
-0.00016467587
0.00060888711
-0.00016723246
0.00064451101
-0.00016963943
0.00068011026
-0.00017177543
0.00071562814
-0.00017339414
0.00075110966
-0.00017446647
0.00078628325
-0.00017431367
0.00082102883
-0.00017308136
0.00085513584
-0.00017035825
0.00088841563
-0.00016594084
0.00092041596
-0.00015926363
0.00095056284
-0.00015023252
0.00097835049
-0.00013856063
0.0010034146
-0.00012404051
0.0010247169
-0.00010606348
0.0010415294
-8.4845668e-05
0.001053116
-6.0360344e-05
0.0010585421
-3.2435964e-05
0.0010570097
-9.8233083e-07
0.001048142
3.4183393e-05
0.0010309699
7.2057562e-05
0.0010047726
0.00011249721
0.00096924952
0.00015513354
0.00092403314
0.00019913752
0.00086894724
0.0002440171
0.00080372219
0.00028913989
0.00072895054
0.00033268186
0.00064471406
0.00037441431
0.00055155871
0.00041300775
0.0004506969
0.00044741386
0.00034321891
0.00047662678
0.00023025372
0.00049974303
0.00011355118
0.00051567773
-5.0905816e-06
0.0005239894
-0.00012387606
0.00052470501
-0.00024102131
0.00051781039
-0.00035473715
0.0005032065
-0.00046334657
0.00048132465
-0.00056542508
0.00045305307
-0.00065974328
0.00041927624
-0.00074528865
0.00038098641
-0.00082131101
0.00033923177
-0.00088747815
0.00029523748
-0.00094391298
0.00025028876
-0.00099007836
0.0002043447
-0.0010263874
0.0001593103
-0.0010531315
0.00011566571
-0.0010706703
7.3919125e-05
-0.0010796502
3.4788716e-05
-0.0010810885
-1.9262086e-06
-0.0010750151
-3.414992e-05
-0.0010627404
-6.3246645e-05
-0.0010450595
-8.870079e-05
-0.0010227679
-0.00011072816
-0.00099673408
-0.00012926257
-0.00096753674
-0.00014458533
-0.00093618578
-0.00015654003
-0.00090293068
-0.0001657515
-0.00086836318
-0.00017257315
-0.00083313605
-0.00017703837
-0.00079715421
-0.00017970897
-0.00076084931
-0.00018081331
-0.00072439665
-0.00018069239
-0.00068788629
-0.00017953929
-0.00065138718
-0.00017757691
-0.0006149638
-0.0001751197
-0.00057860648
-0.00017234975
-0.00054241075
-0.00016943023
-0.00050644104
-0.00016650798
-0.00047067278
-0.00016365729
-0.00043512632
-0.00016095587
-0.00039978195
-0.00015844515
-0.00036464207
-0.00015617865
-0.00032971337
-0.00015417649
-0.00029499335
-0.00015244459
-0.00026046383
-0.00015096317
-0.00022609237
-0.00014973436
-0.00019185514
-0.00014873944
-0.00015774079
-0.00014797051
-0.00012371222
-0.0001473647
-8.9737672e-05
-0.00014695346
-5.5796742e-05
-0.00014672354
-2.1874114e-05
-0.00014659851
-0.0001466042
2.1667139e-05
-0.00017961154
5.5404941e-05
-0.00017949186
8.9131169e-05
-0.00017951357
0.00012285887
-0.00017955728
0.00015660815
-0.00017985252
0.00019040696
-0.00018031261
0.00022427955
-0.00018096333
0.00025824063
-0.00018182686
0.00029232168
-0.0001829257
0.00032650094
-0.00018424462
0.00036084532
-0.00018584216
0.00039536565
-0.00018769774
0.00043007005
-0.0001898058
0.00046496287
-0.00019215189
0.00050004735
-0.00019470416
0.00053535399
-0.0001974193
0.00057086053
-0.00020018067
0.00060667447
-0.00020304216
0.00064261459
-0.00020557774
0.0006787386
-0.00020790131
0.00071506443
-0.00020972288
0.00075138149
-0.00021078536
0.00078780539
-0.00021073838
0.00082409559
-0.00020937274
0.00086005641
-0.00020632179
0.00089527776
-0.00020116535
0.00092975
-0.00019373699
0.00096259827
-0.00018307981
0.00099344176
-0.00016940324
0.0010216449
-0.00015224307
0.0010463038
-0.00013072155
0.0010666309
-0.00010517367
0.0010816953
-7.5428428e-05
0.0010905694
-4.1315024e-05
0.0010926446
-3.063295e-06
0.0010867319
4.0091835e-05
0.0010721476
8.6640718e-05
0.0010481892
0.00013645291
0.0010140416
0.00018927746
0.00096962079
0.0002435619
0.00091439488
0.00029925115
0.00084852554
0.0003550149
0.00077163585
0.00040957187
0.00068415921
0.00046188593
0.00058694246
0.00051022323
0.00048065645
0.00055370384
0.00036664743
0.00059063865
0.00024659776
0.00061979202
0.00012218632
0.00064008494
-4.452124e-06
0.00065062781
-0.00013127396
0.00065152733
-0.00025619801
0.00064273567
-0.00037710458
0.00062411464
-0.00049223675
0.00059646089
-0.00059982854
0.00056064785
-0.00069851096
0.00051795515
-0.00078732675
0.00046980027
-0.00086614172
0.0004180485
-0.00093372137
0.00036281701
-0.0009900924
0.000306659
-0.001035833
0.00025008671
-0.0010708636
0.0001943395
-0.0010955012
0.0001403026
-0.0011104701
8.8882849e-05
-0.0011164461
4.0762497e-05
-0.0011141751
-4.1980845e-06
-0.0011046901
-4.3637216e-05
-0.0010888031
-7.9131563e-05
-0.0010674558
-0.00011004628
-0.0010415956
-0.00013658911
-0.0010120087
-0.00015886294
-0.00097997241
-0.00017663163
-0.00094573955
-0.00019077111
-0.00090999439
-0.00020149445
-0.00087342082
-0.00020914967
-0.00083618425
-0.00021428002
-0.00079856665
-0.00021732905
-0.00076098784
-0.00021839392
-0.00072355088
-0.0002181306
-0.00068618066
-0.0002169085
-0.00064917079
-0.00021460025
-0.00061239464
-0.00021189914
-0.00057586189
-0.00020888668
-0.00053965386
-0.00020564329
-0.00050373509
-0.00020243019
-0.00046809958
-0.00019929392
-0.00043273597
-0.00019632071
-0.00039762631
-0.000193568
-0.00036274181
-0.00019106929
-0.00032807813
-0.0001888468
-0.00029361173
-0.0001869135
-0.00025930691
-0.00018527474
-0.00022515444
-0.00018389454
-0.00019111857
-0.00018277425
-0.00015719052
-0.00018189884
-0.00012332883
-0.00018122838
-8.9509324e-05
-0.00018077552
-5.5700329e-05
-0.00018053652
-2.1877303e-05
-0.000180418
-0.00018048657
2.1798572e-05
-0.00021336486
5.5457018e-05
-0.0002131499
8.9046951e-05
-0.00021310415
0.00012263278
-0.00021314138
0.0001562193
-0.00021343603
0.00018983195
-0.00021392286
0.00022349693
-0.00021462526
0.0002572225
-0.00021555078
0.00029104821
-0.00021675069
0.0003250096
-0.00021820238
0.00035911181
-0.00021993761
0.00039337717
-0.00022195607
0.00042785216
-0.00022427668
0.00046255221
-0.00022685256
0.00049750686
-0.00022966152
0.00053274457
-0.00023265718
0.00056834171
-0.0002357758
0.00060420135
-0.00023890214
0.00064050843
-0.00024188891
0.00067720892
-0.00024460627
0.00071433051
-0.00024684624
0.0007517859
-0.00024824024
0.00078955102
-0.00024850282
0.00082749091
-0.00024731271
0.00086560383
-0.00024443487
0.00090334713
-0.00023890796
0.00094033912
-0.00023072763
0.00097670349
-0.00021944414
0.001011233
-0.0002039358
0.0010432517
-0.00018426586
0.0010722227
-0.00015969433
0.0010969869
-0.00012993855
0.0011165032
-9.4946124e-05
0.001129702
-5.4514709e-05
0.0011361942
-9.5574594e-06
0.0011340513
4.2229011e-05
0.0011227875
9.7898638e-05
0.0011014606
0.00015777767
0.001069638
0.00022110229
0.0010261912
0.00028701637
0.00097080516
0.00035464334
0.00090384498
0.00042197329
0.00082474799
0.00048866464
0.00073387517
0.00055275659
0.00063150819
0.00061259341
0.0005186665
0.0006665497
0.00039676736
0.00071253558
0.00026764011
0.00074891615
0.00013338838
0.00077433529
-3.5342407e-06
0.00078755422
-0.00014067219
0.0007886694
-0.00027557289
0.00077763986
-0.00040575597
0.00075429932
-0.00052892394
0.00071962945
-0.00064330779
0.00067503064
-0.00074765465
0.00062229884
-0.00084070827
0.00056285072
-0.0009216029
0.00049894085
-0.00099070405
0.0004319194
-0.0010475879
0.00036354285
-0.0010923575
0.00029485201
-0.0011257448
0.00022772001
-0.0011477417
0.00016229499
-0.0011593713
0.00010051194
-0.0011614568
4.2854071e-05
-0.0011549977
-1.0651284e-05
-0.0011408764
-5.7754306e-05
-0.0011203388
-9.9669424e-05
-0.0010943897
-0.00013599921
-0.0010641565
-0.00016683783
-0.0010305946
-0.00019242223
-0.00099458418
-0.00021263646
-0.00095688724
-0.00022846877
-0.00091817088
-0.00024021434
-0.00087895787
-0.00024836678
-0.00083939459
-0.00025384427
-0.00080017935
-0.00025654527
-0.0007610307
-0.00025754137
-0.00072244942
-0.00025671708
-0.00068439138
-0.00025496843
-0.00064669537
-0.00025229789
-0.00060953736
-0.00024906526
-0.0005728745
-0.00024555732
-0.00053660592
-0.00024191577
-0.0005007542
-0.00023828259
-0.00046527032
-0.00023478201
-0.00043011169
-0.00023148261
-0.00039524389
-0.00022844454
-0.00036063723
-0.00022568329
-0.00032624014
-0.00022324052
-0.00029203929
-0.00022111401
-0.00025800619
-0.00021930337
-0.00022410713
-0.0002177909
-0.00019031094
-0.00021657142
-0.00015658757
-0.0002156137
-0.00012292967
-0.00021490537
-8.9278684e-05
-0.00021442234
-5.562867e-05
-0.00021418337
-2.1921137e-05
-0.00021413341
-0.0002142727
2.2003443e-05
-0.00024703749
5.5559866e-05
-0.00024670973
8.8992366e-05
-0.00024653703
0.00012241592
-0.00024656364
0.00015580967
-0.00024682791
0.0001892102
-0.00024731989
0.00022264001
-0.00024805267
0.00025613125
-0.00024904116
0.00028969514
-0.00025031182
0.00032337379
-0.00025187531
0.00035719929
-0.00025375622
0.00039121545
-0.00025596707
0.00042541758
-0.00025847804
0.00045988266
-0.00026132002
0.00049466873
-0.00026444903
0.00052982748
-0.00026781598
0.00056538853
-0.00027133932
0.00060143459
-0.00027495448
0.00063804965
-0.00027851068
0.00067528698
-0.00028184698
0.00071330247
-0.00028486148
0.00075184626
-0.00028678252
0.00079111932
-0.00028777479
0.00083103032
-0.00028722193
0.00087136155
-0.0002847621
0.00091204678
-0.00027958898
0.0009526753
-0.00027135562
0.00099263808
-0.00025941084
0.001031475
-0.00024277845
0.0010683101
-0.00022110512
0.0011024963
-0.00019388039
0.0011326428
-0.00016008193
0.001157664
-0.00011996552
0.0011763335
-7.3184125e-05
0.0011877743
-2.0998744e-05
0.0011906081
3.939206e-05
0.0011835786
0.00010492469
0.0011657976
0.00017555992
0.0011362365
0.00025066755
0.0010943252
0.00032893117
0.0010398034
0.00040916469
0.00097165717
0.00049011604
0.00088999312
0.00057033093
0.00079481734
0.00064793756
0.00068633564
0.00072107658
0.00056579919
0.00078708583
0.00043432773
0.00084400615
0.00029396397
0.00088928216
0.00014741341
0.00092088666
-2.4067413e-06
0.00093737465
-0.00015247921
0.00093874284
-0.00029982366
0.00092498505
-0.00044143237
0.00089590431
-0.00057464123
0.00085283584
-0.00069730004
0.00079769036
-0.00080791674
0.0007329141
-0.00090568378
0.00066061479
-0.0009897652
0.00058301784
-0.0010602982
0.00050244721
-0.0011171407
0.00042038552
-0.0011608805
0.00033858267
-0.001191648
0.00025848065
-0.0012104347
0.00018108305
-0.0012179562
0.00010803718
-0.0012151722
4.0076297e-05
-0.0012034167
-2.2400495e-05
-0.0011835902
-7.7575359e-05
-0.0011573325
-0.00012593712
-0.0011257564
-0.00016757605
-0.001090129
-0.00020246608
-0.0010514833
-0.00023106951
-0.0010108824
-0.00025323858
-0.00096906737
-0.00027028358
-0.00092686243
-0.00028241764
-0.00088460494
-0.00029062726
-0.00084266306
-0.00029578965
-0.00080134405
-0.00029786468
-0.00076083898
-0.00029805054
-0.00072100893
-0.00029654566
-0.00068204866
-0.00029393397
-0.00064371933
-0.00029062541
-0.0006062482
-0.00028653864
-0.00056941897
-0.00028238806
-0.00053316364
-0.00027816924
-0.00049741157
-0.00027403682
-0.00046211394
-0.00027008526
-0.00042720131
-0.00026640097
-0.0003926131
-0.00026302683
-0.00035829028
-0.00026000613
-0.00032420497
-0.00025732399
-0.00029031332
-0.00025500511
-0.00025657838
-0.00025304056
-0.00022295445
-0.000251414
-0.00018942813
-0.00025010754
-0.00015595314
-0.00024908819
-0.0001225087
-0.00024835476
-8.9059847e-05
-0.00024787498
-5.560243e-05
-0.00024764355
-2.2030832e-05
-0.00024770594
-0.00024794906
2.2317208e-05
-0.00028063111
5.5743864e-05
-0.00028013908
8.899244e-05
-0.00027978653
0.00012223235
-0.00027980369
0.00015540487
-0.00027999819
0.00018857801
-0.0002804916
0.00022174819
-0.00028122295
0.00025495562
-0.00028224728
0.00028822919
-0.0002835815
0.00032160164
-0.00028524231
0.00035510054
-0.00028725035
0.00038879403
-0.00028965944
0.00042271235
-0.00029239875
0.00045690316
-0.00029551322
0.00049148939
-0.00029903662
0.00052646323
-0.00030279324
0.00056197985
-0.00030686291
0.00059812369
-0.00031110597
0.00063500667
-0.00031539868
0.00067285986
-0.00031970214
0.00071146121
-0.00032346304
0.00075123076
-0.00032655113
0.00079208878
-0.0003286301
0.00083405304
-0.00032918101
0.00087703303
-0.00032773576
0.0009208697
-0.00032342229
0.00096523753
-0.00031572592
0.0010097533
-0.00030393162
0.0010537698
-0.00028679698
0.0010965293
-0.00026386286
0.0011367079
-0.00023405562
0.0011734526
-0.00019682339
0.0012053632
-0.00015187463
0.0012308578
-9.8678385e-05
0.001248449
-3.8587105e-05
0.0012571164
3.0729312e-05
0.0012552683
0.00010677557
0.0012417052
0.00018912316
0.0012153617
0.00027700861
0.0011755542
0.00036873711
0.001121377
0.00046334482
0.0010527387
0.00055875881
0.00096878844
0.00065428742
0.0008689883
0.00074774258
0.00075399313
0.00083607208
0.00062404844
0.00091703281
0.00048086018
0.00098719729
0.00032678886
0.0010433558
0.00016490628
0.001082769
-9.9681712e-07
0.0011032756
-0.00016722773
0.0011049688
-0.00033003075
0.0010877832
-0.00048569589
0.0010515665
-0.00063102586
0.0009981677
-0.00076343965
0.00093010452
-0.00088174449
0.00085121346
-0.00098448021
0.00076334388
-0.0010715452
0.00067007845
-0.001143486
0.00057438066
-0.0012000924
0.00047698546
-0.0012419499
0.00038044012
-0.0012700846
0.00028661862
-0.0012845749
0.0001955762
-0.0012868079
0.00011027588
-0.0012778836
3.1161187e-05
-0.0012592005
-4.1086513e-05
-0.0012329141
-0.00010386955
-0.0011996293
-0.00015921987
-0.0011610958
-0.00020610693
-0.0011187157
-0.0002448416
-0.0010742962
-0.00027548324
-0.0010283974
-0.00029913876
-0.00098197372
-0.00031671313
-0.00093564347
-0.000328751
-0.0008899275
-0.00033633406
-0.00084542502
-0.0003402851
-0.00080194833
-0.00034133692
-0.00075972305
-0.00034027658
-0.00071870034
-0.00033757059
-0.00067884385
-0.00033379666
-0.00064016108
-0.00032931123
-0.00060234633
-0.00032435166
-0.00056540502
-0.00031932592
-0.00052920001
-0.00031436627
-0.00049363177
-0.00030960725
-0.00045857556
-0.00030514808
-0.00042395724
-0.0003010167
-0.00038969056
-0.00029728462
-0.00035570996
-0.0002939716
-0.00032197846
-0.00029105289
-0.00028843331
-0.00028855069
-0.00025503607
-0.00028645793
-0.00022173315
-0.00028472526
-0.00018849831
-0.00028334448
-0.00015529835
-0.00028230227
-0.00012210195
-0.00028154339
-8.8870902e-05
-0.00028110964
-5.5643316e-05
-0.00028088765
-2.2243024e-05
-0.00028110369
-0.00028150366
2.2781705e-05
-0.00031413237
5.5983902e-05
-0.00031334378
8.9053793e-05
-0.00031285782
0.00012207627
-0.0003128255
0.00015503091
-0.00031295317
0.00018791891
-0.00031338154
0.00022080507
-0.0003141098
0.00025371168
-0.00031515208
0.0002866663
-0.00031653232
0.00031970995
-0.00031828205
0.00035288605
-0.00032042559
0.00038617662
-0.0003229529
0.00041973115
-0.00032595689
0.00045360495
-0.00032938961
0.00048782793
-0.00033326301
0.00052257979
-0.00033755069
0.00055794888
-0.00034223806
0.00059407758
-0.00034723921
0.00063112832
-0.00035245268
0.00066931533
-0.00035789216
0.00070870455
-0.00036285418
0.00074956465
-0.0003674097
0.00079200145
-0.0003710613
0.00083610715
-0.00037327994
0.00088189864
-0.000373523
0.00092927662
-0.00037079972
0.0009780143
-0.00036446504
0.001027587
-0.00035350409
0.0010776274
-0.00033683286
0.0011269305
-0.00031316036
0.0011746588
-0.00028178217
0.0012192688
-0.00024143355
0.0012593043
-0.00019190708
0.0012928569
-0.00013222454
0.0013182389
-6.3961916e-05
0.0013341727
1.4800588e-05
0.0013386071
0.00010234209
0.001329791
0.00019793785
0.001307185
0.00029961329
0.0012703834
0.00040554109
0.0012177286
0.0005160083
0.0011490806
0.00062741362
0.0010633749
0.00073999616
0.00095928525
0.00085183814
0.00083657098
0.00095879328
0.00069574176
0.0010578676
0.00053848452
0.0011444545
0.00036758639
0.0012142513
0.00018669976
0.001263653
7.1355927e-07
0.0012892584
-0.00018568986
0.0012913673
-0.00036774797
0.0012698409
-0.00054058891
0.001224409
-0.00070077666
0.0011583563
-0.00084458918
0.0010739128
-0.00097084387
0.00097746238
-0.0010787943
0.000871288
-0.0011688875
0.00076016374
-0.0012414537
0.0006469475
-0.0012970809
0.00053261901
-0.0013371365
0.00042049452
-0.0013614168
0.00031090201
-0.0013709439
0.00020510474
-0.0013669164
0.00010624401
-0.0013506366
1.4880726e-05
-0.00132421
-6.7498733e-05
-0.0012891875
-0.00013888903
-0.0012473567
-0.00020104947
-0.0012005913
-0.00025286746
-0.0011506803
-0.00029474688
-0.0010989208
-0.00032723849
-0.0010466002
-0.00035146386
-0.00099479646
-0.00036851557
-0.00094400158
-0.00037954325
-0.00089471507
-0.00038561609
-0.00084709508
-0.00038790006
-0.00080134886
-0.00038708177
-0.00075744252
-0.00038418327
-0.00071525661
-0.00037975195
-0.00067466587
-0.00037437983
-0.0006355129
-0.00036846714
-0.00059756043
-0.00036230307
-0.00056065341
-0.00035623386
-0.00052462331
-0.00035040561
-0.00048931664
-0.00034491872
-0.00045460703
-0.0003398598
-0.00042035058
-0.00033527084
-0.00038648891
-0.00033115653
-0.00035290185
-0.00032755057
-0.00031958703
-0.00032437322
-0.00028642007
-0.00032171836
-0.00025338224
-0.00031949141
-0.00022041981
-0.00031768081
-0.00018751879
-0.00031624905
-0.0001546288
-0.0003151827
-0.0001217121
-0.00031446468
-8.87369e-05
-0.00031408907
-5.5718787e-05
-0.00031391154
-2.2598464e-05
-0.00031423394
-0.00031492142
2.3451455e-05
-0.00034748656
5.6375592e-05
-0.00034626882
8.9229802e-05
-0.00034571078
0.000122025
-0.00034562171
0.00015469327
-0.00034562466
0.0001872881
-0.00034597884
0.00021985694
-0.00034667876
0.00025242048
-0.00034771309
0.00028501366
-0.00034912188
0.00031766784
-0.00035093506
0.00035040644
-0.00035316708
0.00038330083
-0.00035585187
0.00041644103
-0.00035910108
0.00044987584
-0.00036282811
0.00048371326
-0.00036710405
0.00051808994
-0.00037192973
0.00055316572
-0.000377315
0.00058912768
-0.00038320326
0.00062617896
-0.0003895081
0.00066457231
-0.00039628969
0.00070453422
-0.00040281699
0.00074636282
-0.00040923465
0.00079029595
-0.00041498858