/*--------------------------------*- C++ -*----------------------------------*\
  =========                 |
  \\      /  F ield         | OpenFOAM: The Open Source CFD Toolbox
   \\    /   O peration     | Website:  https://openfoam.org
    \\  /    A nd           | Version:  9
     \\/     M anipulation  |
\*---------------------------------------------------------------------------*/
FoamFile
{
    format      ascii;
    class       surfaceScalarField;
    location    "0.35";
    object      alphaPhi0.phase1;
}
// * * * * * * * * * * * * * * * * * * * * * * * * * * * * * * * * * * * * * //

dimensions      [0 3 -1 0 0 0 0];

internalField   nonuniform List<scalar> 
8032
(
-4.38988e-279
1.91422e-285
-1.00283e-272
4.37269e-279
-1.1843e-266
4.76768e-273
-9.42979e-261
3.39584e-267
-5.79694e-255
1.7449e-261
-2.98321e-249
6.84486e-256
-1.3599e-243
1.99685e-250
-5.74326e-238
3.22185e-245
-1.94072e-232
-3.95938e-233
-3.68289e-227
-4.20561e-227
-3.14731e-222
-1.2377e-221
-7.76454e-218
-1.35596e-216
-2.92839e-214
-3.98464e-212
-8.01803e-212
-1.90179e-208
-1.0683e-210
-7.38659e-206
1.08587e-212
-1.95551e-204
1.09168e-210
-1.95776e-204
8.13674e-212
-7.41337e-206
2.44146e-214
-1.57488e-208
2.88495e-218
-1.45761e-212
5.03361e-223
-1.98149e-217
4.00582e-228
-1.17563e-222
1.80021e-233
-3.35648e-228
5.11427e-239
-3.12598e-234
1.21285e-244
2.74355e-246
2.70265e-250
1.771e-251
5.34189e-256
6.21412e-257
8.84661e-262
1.61768e-262
1.13297e-267
3.2e-268
9.82044e-274
4.57694e-274
4.25354e-280
4.19703e-280
1.82939e-286
-3.40348e-272
3.06616e-278
-7.32284e-266
6.51718e-272
-7.95264e-260
6.6455e-266
-5.85239e-254
4.37558e-260
-3.33222e-248
2.08672e-254
-1.58845e-242
7.57645e-249
-6.70435e-237
2.04437e-243
-2.6185e-231
3.03088e-238
-8.03525e-226
-1.79681e-226
-1.33846e-220
-1.667e-220
-9.70981e-216
-4.20015e-215
-1.9812e-211
-3.83519e-210
-6.49092e-208
-9.2153e-206
-1.59612e-205
-3.80137e-202
-2.06196e-204
-1.32073e-199
1.63875e-206
-3.38071e-198
2.09694e-204
-3.38342e-198
1.61394e-205
-1.32406e-199
5.39882e-208
-3.14836e-202
7.2642e-212
-3.33422e-206
1.41921e-216
-5.12642e-211
1.26759e-221
-3.4617e-216
6.34963e-227
-1.12436e-221
1.97055e-232
-1.17451e-227
5.03215e-238
2.20738e-239
1.20508e-243
1.53223e-244
2.55718e-249
5.77245e-250
4.54376e-255
1.61226e-255
6.24133e-261
3.42092e-261
5.80106e-267
5.24747e-267
2.69291e-273
5.15947e-273
2.40957e-279
-1.61914e-265
2.28878e-271
-3.17125e-259
4.42674e-265
-3.11703e-253
4.09978e-259
-2.07569e-247
2.44267e-253
-1.06914e-241
1.0545e-247
-4.60754e-236
3.46259e-242
-1.75568e-230
8.4338e-237
-6.17733e-225
1.12033e-231
-1.67664e-219
-4.06619e-220
-2.39552e-214
-3.21468e-214
-1.44938e-209
-6.78795e-209
-2.41896e-205
-5.08283e-204
-6.85178e-202
-9.87298e-200
-1.50793e-199
-3.5e-196
-1.88646e-198
-1.08232e-193
8.98963e-201
-2.67349e-192
1.90565e-198
-2.67489e-192
1.5181e-199
-1.08409e-193
5.6868e-202
-2.90206e-196
8.75731e-206
-3.53686e-200
1.93528e-210
-6.20933e-205
1.96736e-215
-4.83118e-210
1.12102e-220
-1.81884e-215
3.89871e-226
-2.18679e-221
1.10011e-231
6.91619e-233
2.90228e-237
5.29211e-238
6.77421e-243
2.19323e-243
1.32262e-248
6.7313e-249
1.99494e-254
1.56829e-254
2.0353e-260
2.64063e-260
1.03696e-266
2.84954e-266
1.46018e-272
-6.11541e-259
1.21763e-264
-1.06712e-252
2.10325e-258
-9.3006e-247
1.72891e-252
-5.48563e-241
9.13057e-247
-2.49862e-235
3.48943e-241
-9.50348e-230
1.01251e-235
-3.18775e-224
2.17328e-230
-9.84043e-219
2.52538e-225
-2.30306e-213
-5.96129e-214
-2.763e-208
-3.93359e-208
-1.37194e-203
-6.83011e-203
-1.85174e-199
-4.13122e-198
-4.50916e-196
-6.40663e-194
-8.83703e-194
-1.93873e-190
-1.06833e-192
-5.29887e-188
2.11652e-195
-1.26017e-186
1.07291e-192
-1.26056e-186
8.86379e-194
-5.30405e-188
3.73975e-196
-1.61113e-190
6.62877e-200
-2.27467e-194
1.67284e-204
-4.60144e-199
1.95944e-209
-4.16734e-204
1.29402e-214
-1.84774e-209
5.17496e-220
-2.61738e-215
1.65835e-225
1.30905e-226
4.94774e-231
1.13347e-231
1.30322e-236
5.30158e-237
2.86695e-242
1.83341e-242
4.86732e-248
4.80822e-248
5.58565e-254
9.10633e-254
3.19988e-260
1.1048e-259
6.3646e-266
-1.98798e-252
5.27956e-258
-3.02383e-246
7.96689e-252
-2.2935e-240
5.70832e-246
-1.17448e-234
2.62151e-240
-4.63214e-229
8.69177e-235
-1.52074e-223
2.18193e-229
-4.38631e-218
4.03717e-224
-1.15896e-212
4.01557e-219
-2.28518e-207
-6.20943e-208
-2.2582e-202
-3.35813e-202
-9.06369e-198
-4.71239e-197
-9.77094e-194
-2.26816e-192
-2.03172e-190
-2.76763e-188
-3.52079e-188
-7.09223e-185
-4.10235e-187
-1.69706e-182
-4.61377e-191
-3.87352e-181
4.10185e-187
-3.87416e-181
3.52188e-188
-1.69795e-182
1.68667e-190
-5.91402e-185
3.46388e-194
-9.74826e-189
1.00731e-198
-2.29276e-193
1.37341e-203
-2.43712e-198
1.06807e-208
-1.28938e-203
5.02807e-214
-2.19621e-209
1.8776e-219
1.72429e-220
6.49211e-225
1.73125e-225
1.97598e-230
9.35812e-231
5.01247e-236
3.73191e-236
9.79802e-242
1.12686e-241
1.29325e-247
2.45472e-247
8.51533e-254
3.42317e-253
2.26544e-259
-5.67916e-246
1.95113e-251
-7.39771e-240
2.52664e-245
-4.79627e-234
1.55092e-239
-2.09368e-228
6.08633e-234
-7.01458e-223
1.71917e-228
-1.94825e-217
3.66357e-223
-4.73082e-212
5.72924e-218
-1.04614e-206
4.78379e-213
-1.70147e-201
-4.78252e-202
-1.36055e-196
-2.08375e-196
-4.34793e-192
-2.32389e-191
-3.68931e-188
-8.75991e-187
-6.49794e-185
-8.26365e-183
-9.86133e-183
-1.77684e-179
-1.10357e-181
-3.67935e-177
-1.58786e-184
-8.01957e-176
1.10041e-181
-8.02022e-176
9.84801e-183
-3.6803e-177
5.40918e-185
-1.48844e-179
1.29708e-188
-2.89041e-183
4.38573e-193
-7.9755e-188
7.01822e-198
-1.00155e-192
6.51183e-203
-6.39066e-198
3.68316e-208
-1.33219e-203
1.64005e-213
1.66852e-214
6.71596e-219
1.98505e-219
2.41167e-224
1.26606e-224
7.1973e-230
5.94007e-230
1.65173e-235
2.10589e-235
2.55583e-241
5.37797e-241
1.97082e-247
8.78268e-247
6.80267e-253
-1.42273e-239
6.21085e-245
-1.56297e-233
6.79913e-239
-8.52557e-228
3.52116e-233
-3.12068e-222
1.16247e-227
-8.73104e-217
2.75258e-222
-2.01499e-211
4.89642e-217
-4.04124e-206
6.35897e-212
-7.32736e-201
4.37889e-207
-9.63776e-196
-2.76808e-196
-6.12975e-191
-9.54804e-191
-1.53474e-186
-8.31869e-186
-1.00703e-182
-2.41243e-181
-1.48853e-179
-1.72438e-177
-1.95528e-177
-3.08523e-174
-2.09026e-176
-5.48953e-172
-4.27633e-179
-1.13131e-170
2.08165e-176
-1.13135e-170
1.95115e-177
-5.49023e-172
1.24456e-179
-2.59836e-174
3.51604e-183
-5.99854e-178
1.39477e-187
-1.95561e-182
2.63679e-192
-2.91367e-187
2.95033e-197
-2.26221e-192
2.04079e-202
-5.86233e-198
1.10592e-207
1.20621e-208
5.46609e-213
1.73283e-213
2.35756e-218
1.32756e-218
8.41957e-224
7.45396e-224
2.30594e-229
3.15367e-229
4.24966e-235
9.59239e-235
3.89721e-241
1.86315e-240
1.71443e-246
-3.08538e-233
1.69426e-238
-2.82149e-227
1.54819e-232
-1.27715e-221
6.67628e-227
-3.86391e-216
1.8292e-221
-8.89122e-211
3.5797e-216
-1.67754e-205
5.23632e-211
-2.73046e-200
5.55809e-206
-3.98159e-195
3.10437e-201
-4.15386e-190
-1.20659e-190
-2.06484e-185
-3.23278e-185
-3.97829e-181
-2.16098e-180
-1.97824e-177
-4.73146e-176
-2.43343e-174
-2.52702e-172
-2.74685e-172
-3.77245e-169
-2.77678e-171
-5.95487e-167
-6.01638e-174
-1.1371e-165
2.76464e-171
-1.13712e-165
2.74066e-172
-5.9557e-167
2.04575e-174
-3.1908e-169
6.87095e-178
-8.77212e-173
3.22034e-182
-3.35816e-177
7.22274e-187
-5.92322e-182
9.83273e-192
-5.63843e-187
8.44972e-197
-1.84317e-192
5.67617e-202
6.49076e-203
3.44379e-207
1.14504e-207
1.81201e-212
1.07025e-212
7.85753e-218
7.29667e-218
2.60377e-223
3.73537e-223
5.79067e-229
1.37108e-228
6.39585e-235
3.20733e-234
3.54977e-240
-5.69678e-227
3.91473e-232
-4.28818e-221
2.95455e-226
-1.59153e-215
1.04904e-220
-3.92889e-210
2.35699e-215
-7.33305e-205
3.76387e-210
-1.11403e-199
4.46564e-205
-1.44683e-194
3.81641e-200
-1.66438e-189
1.70075e-195
-1.34966e-184
-3.92778e-185
-5.14847e-180
-8.00102e-180
-7.49009e-176
-4.03346e-175
-2.78317e-172
-6.5998e-171
-2.85669e-169
-2.73222e-167
-2.86083e-167
-3.57595e-164
-2.67955e-166
-5.88877e-162
-5.40943e-169
-1.02299e-160
2.66868e-166
-1.02303e-160
2.85508e-167
-5.89051e-162
2.4125e-169
-3.01508e-164
9.64907e-173
-9.5456e-168
5.31033e-177
-4.01077e-172
1.40997e-181
-8.14168e-177
2.35315e-186
-9.55731e-182
2.54952e-191
-4.00044e-187
2.16055e-196
2.55119e-197
1.63446e-201
5.61336e-202
1.06403e-206
6.49186e-207
5.67513e-212
5.44404e-212
2.30282e-217
3.41265e-217
6.25001e-223
1.52873e-222
8.40316e-229
4.35339e-228
5.85376e-234
-8.80275e-221
7.55842e-226
-5.40009e-215
4.66813e-220
-1.62547e-209
1.35106e-214
-3.23511e-204
2.46236e-209
-4.83247e-199
3.17047e-204
-5.82217e-194
3.01065e-199
-5.92841e-189
2.04059e-194
-5.26997e-184
7.13125e-190
-3.24907e-179
-9.37529e-180
-9.34746e-175
-1.41941e-174
-1.01632e-170
-5.37095e-170
-2.92731e-167
-6.87042e-166
-2.63428e-164
-2.7201e-162
-2.75189e-162
-3.49144e-159
-2.34407e-161
-7.04672e-157
-4.10458e-164
-9.71507e-156
2.33586e-161
-9.71545e-156
2.74771e-162
-7.04978e-157
2.21826e-164
-2.89885e-159
1.0217e-167
-9.69715e-163
6.1713e-172
-3.53102e-167
1.88573e-176
-7.15509e-172
3.88071e-181
-1.03294e-176
5.38147e-186
-5.63261e-182
5.85656e-191
7.06755e-192
5.60992e-196
1.96946e-196
4.57925e-201
2.8561e-201
3.04025e-206
2.98141e-206
1.52719e-211
2.3137e-211
5.10984e-217
1.27773e-216
8.44281e-223
4.47141e-222
7.37143e-228
-1.11949e-214
1.20254e-219
-5.54401e-209
6.02603e-214
-1.33908e-203
1.40819e-208
-2.12275e-198
2.05968e-203
-2.5024e-193
2.11252e-198
-2.35189e-188
1.58326e-193
-1.84092e-183
8.37202e-189
-1.23508e-178
2.24977e-184
-5.65761e-174
-1.5955e-174
-1.22171e-169
-1.77411e-169
-1.03844e-165
-5.34407e-165
-2.86049e-162
-6.66743e-161
-2.50935e-159
-3.30114e-157
-1.87549e-158
-1.19099e-155
-1.36156e-156
-3.39087e-155
-2.01361e-159
-5.5268e-154
1.35765e-156
-5.52706e-154
2.24055e-158
-3.39238e-155
2.08948e-159
-1.49226e-155
1.01896e-162
-1.20323e-157
5.3338e-167
-3.12656e-162
1.62688e-171
-3.78322e-167
4.11718e-176
-6.34352e-172
7.43563e-181
-4.60878e-177
1.06012e-185
1.29832e-186
1.30676e-190
4.6564e-191
1.35549e-195
8.58133e-196
1.13318e-200
1.12797e-200
7.11947e-206
1.09483e-205
2.96456e-211
7.52467e-211
6.07315e-217
3.26504e-216
6.65482e-222
-1.15209e-208
1.55412e-213
-4.56044e-203
6.26391e-208
-8.73804e-198
1.17016e-202
-1.08852e-192
1.35788e-197
-9.9649e-188
1.09455e-192
-7.16446e-183
6.37091e-188
-4.21024e-178
2.57735e-183
-2.07662e-173
5.20149e-179
-6.98353e-169
-1.88234e-169
-1.20041e-164
-1.63356e-164
-9.95142e-161
-4.98271e-160
-2.96455e-157
-6.96822e-156
-1.13824e-156
-1.58769e-155
-2.06379e-153
-2.48231e-152
-2.42187e-151
-5.20666e-150
-2.95832e-154
-8.15608e-149
2.41619e-151
-8.15649e-149
2.03834e-153
-5.20902e-150
3.75418e-156
-2.00206e-152
1.24245e-157
-1.85915e-154
4.6644e-162
-3.93167e-157
8.49546e-167
-1.59327e-162
2.49702e-171
-1.89248e-167
6.00711e-176
-1.84604e-172
1.15218e-180
1.42524e-181
1.86698e-185
6.72012e-186
2.50358e-190
1.60106e-190
2.6737e-195
2.68845e-195
2.12767e-200
3.30525e-200
1.11525e-205
2.85957e-205
2.8628e-211
1.55475e-210
3.9572e-216
-9.41128e-203
1.60472e-207
-2.94358e-197
5.15133e-202
-4.41306e-192
7.60448e-197
-4.24877e-187
6.90524e-192
-2.95944e-182
4.30218e-187
-1.58773e-177
1.90546e-182
-6.81434e-173
5.75269e-178
-2.43053e-168
8.48165e-174
-6.37655e-164
-1.61326e-164
-1.10975e-159
-1.44732e-159
-4.05503e-156
-2.29301e-155
-2.87581e-155
-3.7553e-154
-2.04788e-151
-2.46225e-150
-3.26801e-148
-3.38886e-147
-3.53269e-146
-6.54738e-145
-3.54205e-149
-9.85707e-144
3.52599e-146
-9.85758e-144
3.22711e-148
-6.55039e-145
7.55687e-151
-2.73331e-147
5.15596e-153
-3.36836e-149
5.835e-157
-1.62062e-152
3.5478e-162
-2.04293e-157
7.38686e-167
-7.41309e-163
2.38562e-171
-5.64052e-168
6.38176e-176
7.94827e-177
1.40789e-180
5.10243e-181
2.51304e-185
1.61815e-185
3.5133e-190
3.55698e-190
3.61586e-195
5.65568e-195
2.42941e-200
6.27207e-200
7.9396e-206
4.34176e-205
1.39947e-210
-5.94304e-197
1.2943e-201
-1.44668e-191
3.26765e-196
-1.6659e-186
3.75447e-191
-1.21147e-181
2.61879e-186
-6.2427e-177
1.23248e-181
-2.42279e-172
4.03862e-177
-7.46779e-168
8.82098e-173
-2.07226e-163
9.34292e-169
-5.61726e-159
-1.47062e-159
-6.41174e-156
-1.04997e-155
-6.13072e-154
-3.09553e-153
-5.06055e-150
-5.63282e-149
-3.02588e-146
-3.1307e-145
-4.2474e-143
-3.79457e-142
-4.22925e-141
-6.75369e-140
-3.48459e-144
-9.7722e-139
4.22275e-141
-9.77271e-139
4.1932e-143
-6.75682e-140
1.09904e-145
-3.06062e-142
8.00872e-148
-4.54887e-144
7.60579e-152
-2.48557e-147
4.53025e-157
-2.72909e-152
2.87715e-162
-9.54875e-158
7.2477e-167
-3.19054e-163
2.5576e-171
3.20042e-172
7.78312e-176
2.8339e-176
1.87639e-180
1.21384e-180
3.46063e-185
3.51995e-185
4.60741e-190
7.24023e-190
3.94348e-195
1.02285e-194
1.62254e-200
8.91415e-200
3.58563e-205
-2.77291e-191
7.84435e-196
-5.13564e-186
1.52925e-190
-4.41554e-181
1.33693e-185
-2.34237e-176
6.96293e-181
-8.59862e-172
2.39057e-176
-2.37941e-167
5.58075e-172
-5.91836e-163
8.69183e-168
-1.88221e-158
7.43445e-164
-3.777e-156
-1.13322e-156
-7.18772e-153
-1.11399e-152
-9.33859e-149
-4.57439e-148
-7.30841e-145
-6.92853e-144
-3.67183e-141
-3.26697e-140
-4.53378e-138
-3.48888e-137
-4.15815e-136
-5.72125e-135
-2.83184e-139
-7.9566e-134
4.15294e-136
-7.95701e-134
4.47455e-138
-5.72389e-135
1.31332e-140
-2.81411e-137
1.0219e-142
-5.04333e-139
1.14342e-146
-3.12819e-142
6.2801e-152
-4.20222e-147
3.69055e-157
-1.33133e-152
4.08433e-162
-4.10297e-158
1.27906e-166
1.60583e-167
5.02958e-171
1.83717e-171
1.65872e-175
1.07643e-175
4.1433e-180
4.22768e-180
7.30583e-185
1.15169e-184
8.10388e-190
2.10863e-189
4.24195e-195
2.33797e-194
1.17838e-199
-9.58916e-186
3.58155e-190
-1.32173e-180
5.29922e-185
-8.25738e-176
3.44794e-180
-3.11354e-171
1.30488e-175
-8.25416e-167
3.18447e-171
-1.97331e-162
5.36903e-167
-6.17146e-158
7.23429e-163
-9.53438e-157
8.08597e-159
-4.41921e-152
-1.2882e-152
-1.07027e-147
-1.63333e-147
-1.17171e-143
-5.54405e-143
-8.66506e-140
-6.99367e-139
-3.66075e-136
-2.8002e-135
-3.97627e-133
-2.63627e-132
-3.3589e-131
-3.98375e-130
-1.90748e-134
-5.32516e-129
3.35544e-131
-5.32543e-129
3.94946e-133
-3.98557e-130
1.28977e-135
-2.14082e-132
1.07137e-137
-4.59237e-134
1.41111e-141
-3.23205e-137
9.70276e-147
-5.31095e-142
4.14548e-152
-2.07005e-147
5.21874e-157
-4.60819e-153
1.14258e-161
1.448e-162
4.46905e-166
1.63605e-166
1.86593e-170
1.21354e-170
6.29773e-175
6.43987e-175
1.49266e-179
2.35811e-179
2.18289e-184
5.69217e-184
1.47789e-189
8.16299e-189
5.23601e-194
-2.51869e-180
1.2593e-184
-2.53935e-175
1.39383e-179
-1.13978e-170
6.63368e-175
-3.18368e-166
1.80376e-170
-7.74331e-162
3.26103e-166
-2.3871e-157
5.06801e-162
-3.3291e-156
8.9092e-158
-1.6869e-151
1.61435e-153
-6.50617e-147
-1.87926e-147
-1.31067e-142
-1.96438e-142
-1.21178e-138
-5.51319e-138
-8.43591e-135
-5.79623e-134
-2.99935e-131
-1.97256e-130
-2.8661e-128
-1.63816e-127
-2.22984e-126
-2.28159e-125
-1.06693e-129
-2.93159e-124
2.22793e-126
-2.93173e-124
2.94134e-128
-2.28261e-125
1.04113e-130
-1.37507e-127
9.23134e-133
-3.43536e-129
1.42988e-136
-2.74211e-132
1.23139e-141
-5.51108e-137
6.44894e-147
-2.64532e-142
2.43705e-152
-7.16792e-148
1.43791e-156
3.26368e-157
4.82649e-161
1.8148e-161
2.04625e-165
1.33284e-165
8.74873e-170
8.95961e-170
2.79138e-174
4.41638e-174
5.47143e-179
1.42887e-178
4.88121e-184
2.70017e-183
2.24499e-188
-5.0711e-175
3.443e-179
-3.71242e-170
2.80902e-174
-1.25655e-165
9.70762e-170
-3.30557e-161
1.99055e-165
-1.00937e-156
3.45416e-161
-1.33022e-155
6.73779e-157
-5.92437e-151
1.86895e-152
-2.47275e-146
2.85672e-148
-7.8708e-142
-2.2489e-142
-1.32064e-137
-1.93833e-137
-1.03362e-133
-4.4998e-133
-6.74449e-130
-3.9458e-129
-2.01988e-126
-1.14256e-125
-1.69819e-123
-8.37559e-123
-1.21678e-121
-1.07539e-120
-4.95931e-125
-1.32827e-119
1.2159e-121
-1.32833e-119
1.80124e-123
-1.07587e-120
6.90864e-126
-7.26965e-123
6.53701e-128
-2.11151e-124
1.18979e-131
-1.91071e-127
1.28379e-136
-4.6963e-132
8.25102e-142
-2.77873e-137
3.78692e-147
-9.16805e-143
7.29569e-155
6.16876e-152
5.63224e-156
2.30496e-156
2.20727e-160
1.58154e-160
9.59483e-165
9.83649e-165
3.88119e-169
6.14704e-169
1.02545e-173
2.68076e-173
1.22822e-178
6.80116e-178
7.4656e-183
-7.6676e-170
7.14722e-174
-4.25613e-165
4.25016e-169
-1.3629e-160
1.11371e-164
-4.19291e-156
2.32947e-160
-5.76586e-155
4.68307e-156
-2.36464e-150
1.4349e-151
-8.67131e-146
3.29566e-147
-2.97805e-141
4.14614e-143
-7.82567e-137
-2.20771e-137
-1.09536e-132
-1.56943e-132
-7.27561e-129
-3.01511e-128
-4.42835e-125
-2.20708e-124
-1.11816e-121
-5.44388e-121
-8.27205e-119
-3.52507e-118
-5.45832e-117
-4.17348e-116
-1.91541e-120
-4.95563e-115
5.45496e-117
-4.95583e-115
9.06681e-119
-4.17528e-116
3.7688e-121
-3.16329e-118
3.80436e-123
-1.06644e-119
8.13013e-127
-1.09359e-122
1.09951e-131
-3.28678e-127
8.68245e-137
-2.39955e-132
4.84057e-142
-9.64277e-138
1.14499e-149
9.60034e-147
3.1333e-154
4.35351e-151
1.86086e-155
1.89587e-155
1.00558e-159
1.36099e-159
4.15027e-164
6.57825e-164
1.39496e-168
3.64941e-168
2.25947e-173
1.25211e-172
1.85016e-177
-8.741e-165
1.07746e-168
-4.57827e-160
4.84759e-164
-1.3839e-155
1.50354e-159
-2.55542e-154
3.0347e-155
-1.02297e-149
9.9912e-151
-3.45517e-145
2.52214e-146
-1.04297e-140
4.7659e-142
-2.94714e-136
4.93487e-138
-6.39649e-132
-1.77786e-132
-7.48185e-128
-1.04283e-127
-4.22832e-124
-1.65892e-123
-2.38783e-120
-1.01467e-119
-5.08842e-117
-2.13443e-116
-3.31286e-114
-1.22182e-113
-2.01304e-112
-1.33425e-111
-6.14259e-116
-1.52319e-110
2.01197e-112
-1.52325e-110
3.74972e-114
-1.33481e-111
1.69024e-116
-1.13283e-113
1.81959e-118
-4.42613e-115
4.56234e-122
-5.14141e-118
7.73578e-127
-1.88927e-122
7.51445e-132
-1.70353e-127
5.0893e-137
-8.34023e-133
1.48191e-144
1.22963e-141
4.9266e-149
6.77452e-146
1.45428e-153
3.58507e-150
2.97161e-155
1.42013e-154
3.97258e-159
8.62706e-159
1.36097e-163
3.5628e-163
2.82917e-168
1.56864e-167
3.17542e-172
-8.93295e-160
1.16661e-163
-2.60641e-155
7.14445e-159
-1.06652e-153
1.73881e-154
-4.52093e-149
6.46064e-150
-1.49139e-144
1.75033e-145
-4.14899e-140
3.63491e-141
-1.031e-135
5.65085e-137
-2.39695e-131
4.81615e-133
-4.2993e-127
-1.17444e-127
-4.2106e-123
-5.68699e-123
-2.27352e-119
-7.49613e-119
-1.05735e-115
-3.8351e-115
-1.90358e-112
-6.88915e-112
-1.09088e-109
-3.48921e-109
-6.10393e-108
-3.51556e-107
-1.63389e-111
-3.85894e-106
6.1011e-108
-3.85907e-106
1.26553e-109
-3.51699e-107
6.23209e-112
-3.3176e-109
7.15239e-114
-1.50957e-110
2.1025e-117
-1.98552e-113
4.47071e-122
-8.91907e-118
5.34896e-127
-9.94277e-123
4.40101e-132
-5.93202e-128
1.58209e-139
1.29621e-136
6.38934e-144
8.67509e-141
2.28982e-148
5.58022e-145
6.94082e-153
2.68691e-149
1.36974e-155
9.91702e-154
1.21404e-158
3.7338e-158
2.36576e-163
1.31264e-162
3.33294e-167
-2.74308e-155
1.62555e-158
-3.66009e-153
7.80032e-154
-1.87936e-148
3.68945e-149
-6.57039e-144
1.12778e-144
-1.78668e-139
2.51356e-140
-4.09486e-135
4.29421e-136
-8.37763e-131
5.49228e-132
-1.6025e-126
3.85341e-128
-2.37697e-122
-6.36404e-123
-1.95323e-118
-2.54559e-118
-1.00268e-114
-2.78241e-114
-3.84463e-111
-1.19209e-110
-5.85416e-108
-1.83116e-107
-2.95353e-105
-8.2135e-105
-1.52175e-103
-7.63811e-103
-3.60026e-107
-8.06237e-102
1.52113e-103
-8.06262e-102
3.50175e-105
-7.64115e-103
1.88909e-107
-7.98577e-105
2.31046e-109
-4.23073e-106
7.95663e-113
-6.29819e-109
2.12218e-117
-3.45798e-113
3.13148e-122
-4.77081e-118
3.13011e-127
-3.46948e-123
1.39378e-134
1.12461e-131
6.83707e-139
9.14161e-136
2.97416e-143
7.14747e-140
1.09366e-147
4.18346e-144
3.12808e-152
1.87693e-148
2.61402e-156
6.13985e-153
2.48023e-158
1.45823e-157
2.87385e-162
-7.60506e-153
2.02903e-153
-6.4145e-148
1.64865e-148
-2.71927e-143
6.41517e-144
-7.84457e-139
1.61325e-139
-1.75909e-134
2.95798e-135
-3.3223e-130
4.15742e-131
-5.597e-126
4.37482e-127
-8.80906e-122
2.52716e-123
-1.08135e-117
-2.82874e-118
-7.47192e-114
-9.35367e-114
-3.6256e-110
-8.48539e-110
-1.14781e-106
-3.04833e-106
-1.47996e-103
-4.01007e-103
-6.57515e-101
-1.59452e-100
-3.11931e-99
-1.36914e-98
-6.5633e-103
-1.38989e-97
3.11818e-99
-1.38993e-97
7.95255e-101
-1.36967e-98
4.70758e-103
-1.58245e-100
6.13338e-105
-9.74302e-102
2.47254e-108
-1.64091e-104
8.27318e-113
-1.10095e-108
1.50772e-117
-1.88182e-113
1.83085e-122
-1.66854e-118
1.01373e-129
8.03128e-127
6.03919e-134
7.9274e-131
3.18788e-138
7.53345e-135
1.42153e-142
5.35976e-139
4.92739e-147
2.923e-143
1.16227e-151
1.16228e-147
1.38286e-156
2.98681e-152
3.87796e-157
-1.32298e-147
4.26975e-148
-9.22408e-143
2.85419e-143
-3.23069e-138
9.13723e-139
-7.69501e-134
1.89044e-134
-1.42361e-129
2.85174e-130
-2.21638e-125
3.29757e-126
-3.07525e-121
2.85513e-122
-3.98272e-117
1.35823e-118
-4.04935e-113
-1.03136e-113
-2.3581e-109
-2.82175e-109
-1.07468e-105
-2.12665e-105
-2.81333e-102
-6.415e-102
-3.07546e-99
-7.23836e-99
-1.20355e-96
-2.55425e-96
-5.25722e-95
-2.02597e-94
-9.88698e-99
-1.97823e-93
5.2555e-95
-1.97828e-93
1.48168e-96
-2.02674e-94
9.64389e-99
-2.58175e-96
1.33792e-100
-1.84357e-97
6.30889e-104
-3.51114e-100
2.64845e-108
-2.87814e-104
5.96974e-113
-6.10143e-109
8.80652e-118
-6.59759e-114
6.09055e-125
4.72134e-122
4.4056e-129
5.65732e-126
2.82107e-133
6.53399e-130
1.52478e-137
5.65034e-134
6.40135e-142
3.74548e-138
1.8276e-146
1.81024e-142
2.62117e-151
5.65436e-147
8.45826e-152
-1.88638e-142
7.35621e-143
-1.08828e-137
4.04583e-138
-3.15186e-133
1.06567e-133
-6.20264e-129
1.81409e-129
-9.47229e-125
2.2516e-125
-1.21611e-120
2.14222e-121
-1.39005e-116
1.52627e-117
-1.48147e-112
5.98105e-114
-1.24868e-108
-3.08446e-109
-6.14188e-105
-6.99004e-105
-2.61084e-101
-4.38147e-101
-5.66041e-98
-1.11145e-97
-5.25314e-95
-1.07749e-94
-1.81141e-92
-3.3782e-92
-7.28501e-91
-2.47635e-90
-1.22935e-94
-2.3261e-89
7.28286e-91
-2.32615e-89
2.26344e-92
-2.47727e-90
1.62404e-94
-3.46794e-92
2.39807e-96
-2.86602e-93
1.32167e-99
-6.1697e-96
6.96109e-104
-6.17723e-100
1.94366e-108
-1.62593e-104
3.48313e-113
-2.14465e-109
3.02457e-120
2.28502e-117
2.65586e-124
3.32262e-121
2.06222e-128
4.66349e-125
1.35031e-132
4.9014e-129
6.86127e-137
3.94883e-133
2.36898e-141
2.3196e-137
4.10611e-146
8.806e-142
1.60104e-146
-2.20411e-137
1.03718e-137
-1.05342e-132
4.69375e-133
-2.52526e-128
1.01733e-128
-4.10916e-124
1.42505e-124
-5.18308e-120
1.45542e-120
-5.48983e-116
1.13945e-116
-5.17071e-112
6.68116e-113
-4.53542e-108
2.15744e-109
-3.17202e-104
-7.56674e-105
-1.40022e-100
-1.42219e-100
-5.1975e-97
-7.42305e-97
-9.34738e-94
-1.58613e-93
-7.37473e-91
-1.32346e-90
-2.24154e-88
-3.69117e-88
-8.29992e-87
-2.50191e-86
-1.26053e-90
-2.26113e-85
8.2977e-87
-2.26117e-85
2.83026e-88
-2.50281e-86
2.24806e-90
-3.83139e-88
3.53154e-92
-3.66026e-89
2.27309e-95
-8.90196e-92
1.50195e-99
-1.08831e-95
5.20323e-104
-3.56064e-100
1.13266e-108
-5.7304e-105
1.24234e-115
9.10568e-113
1.32391e-119
1.60607e-116
1.24602e-123
2.73907e-120
9.878e-128
3.49849e-124
6.07021e-132
3.42535e-128
2.53211e-136
2.44524e-132
5.29784e-141
1.12813e-136
2.49272e-141
-2.10991e-132
1.19614e-132
-8.36545e-128
4.4547e-128
-1.66173e-123
7.94594e-124
-2.23783e-119
9.16001e-120
-2.33295e-115
7.69903e-116
-2.03954e-111
4.96052e-112
-1.58337e-107
2.39409e-108
-1.14317e-103
6.37307e-105
-6.64047e-100
-1.52266e-100
-2.77431e-96
-2.37702e-96
-8.47662e-93
-1.03454e-92
-1.26671e-89
-1.86532e-89
-8.50853e-87
-1.34209e-86
-2.28059e-84
-3.33412e-84
-7.77457e-83
-2.09075e-82
-1.06497e-86
-1.81829e-81
7.77268e-83
-1.81832e-81
2.90111e-84
-2.09149e-82
2.55772e-86
-3.48897e-84
4.27265e-88
-3.8398e-85
3.20917e-91
-1.05452e-87
2.65977e-95
-1.57365e-91
1.14513e-99
-6.40667e-96
3.02779e-104
-1.2583e-100
4.22375e-111
2.9881e-108
5.46098e-115
6.38972e-112
6.22686e-119
1.32393e-115
5.97269e-123
2.05475e-119
4.43493e-127
2.44458e-123
2.23255e-131
2.12049e-127
5.63068e-136
1.18876e-131
3.19184e-136
-1.65432e-127
1.12775e-127
-5.44996e-123
3.45685e-123
-8.98209e-119
5.07525e-119
-1.00204e-114
4.8157e-115
-8.64009e-111
3.33155e-111
-6.2376e-107
1.76681e-107
-3.99267e-103
7.02002e-104
-2.37305e-99
1.54128e-100
-1.14592e-95
-2.51344e-96
-4.49778e-92
-3.26451e-92
-1.13229e-88
-1.18654e-88
-1.40841e-85
-1.80868e-85
-8.06683e-83
-1.12431e-82
-1.90764e-80
-2.49127e-80
-5.98719e-79
-1.44611e-78
-7.40882e-83
-1.21041e-77
5.98587e-79
-1.21043e-77
2.43719e-80
-1.44661e-78
2.39165e-82
-2.62002e-80
4.2464e-84
-3.30835e-81
3.71878e-87
-1.02544e-83
3.86505e-91
-1.86715e-87
2.07154e-95
-9.46937e-92
6.65219e-100
-2.27008e-96
1.18949e-106
8.07632e-104
1.86531e-110
2.0925e-107
2.57551e-114
5.26641e-111
2.98683e-118
9.93017e-115
2.67725e-122
1.43534e-118
1.62439e-126
1.51266e-122
4.93068e-131
1.03027e-126
3.36099e-131
-1.06217e-122
8.68717e-123
-2.91277e-118
2.1921e-118
-3.9885e-114
2.64953e-114
-3.68984e-110
2.06969e-110
-2.63345e-106
1.17874e-106
-1.57082e-102
5.14627e-103
-8.29296e-99
1.68374e-99
-4.05821e-95
3.05076e-96
-1.63038e-91
-3.40374e-92
-5.96437e-88
-3.68498e-88
-1.23845e-84
-1.1204e-84
-1.28459e-81
-1.44675e-81
-6.28409e-79
-7.78543e-79
-1.31184e-76
-1.54084e-76
-3.79049e-75
-8.28414e-75
-4.2417e-79
-6.67446e-74
3.78973e-75
-6.67453e-74
1.67779e-76
-8.28698e-75
1.83781e-78
-1.62335e-76
3.46644e-80
-2.34075e-77
3.53664e-83
-8.1841e-80
4.60773e-87
-1.81748e-83
3.07965e-91
-1.14943e-87
1.2009e-95
-3.36372e-92
2.77681e-102
1.79825e-99
5.27971e-106
5.64088e-103
8.82288e-110
1.72409e-106
1.23616e-113
3.94886e-110
1.33618e-117
6.9334e-114
9.75777e-122
8.87564e-118
3.55817e-126
7.34313e-122
2.90996e-126
-5.58318e-118
5.46392e-118
-1.27711e-113
1.13526e-113
-1.45514e-109
1.12988e-109
-1.11755e-105
7.26774e-106
-6.60709e-102
3.40828e-102
-3.25795e-98
1.2253e-98
-1.41909e-94
3.302e-95
-5.71888e-91
4.94085e-92
-2.06943e-87
-3.78147e-88
-6.4667e-84
-3.41986e-84
-1.10882e-80
-8.71381e-81
-9.60914e-78
-9.55146e-78
-4.02178e-75
-4.45875e-75
-7.41596e-73
-7.89306e-73
-1.97274e-71
-3.93272e-71
-1.99766e-75
-3.05039e-70
1.97238e-71
-3.05041e-70
9.46398e-73
-3.93405e-71
1.16041e-74
-8.30345e-73
2.32398e-76
-1.35977e-73
2.75995e-79
-5.35992e-76
4.50537e-83
-1.451e-79
3.76159e-87
-1.14545e-83
1.7808e-91
-4.09206e-88
5.37717e-98
3.29914e-95
1.23922e-101
1.25186e-98
2.50496e-105
4.64536e-102
4.23686e-109
1.29211e-105
5.51657e-113
2.75521e-109
4.84154e-117
4.28331e-113
2.11657e-121
4.30361e-117
2.07126e-121
-2.88112e-113
2.8043e-113
-4.95489e-109
4.79838e-109
-4.36186e-105
3.9333e-105
-2.78414e-101
2.08388e-101
-1.36456e-97
8.04911e-98
-5.56536e-94
2.38344e-94
-2.00074e-90
5.29215e-91
-6.64135e-87
6.54502e-88
-2.22921e-83
-3.44617e-84
-5.73011e-80
-2.6101e-80
-8.12375e-77
-5.58407e-77
-5.89368e-74
-5.20703e-74
-2.11431e-71
-2.11294e-71
-3.44613e-69
-3.3504e-69
-8.43959e-68
-1.54791e-67
-7.73602e-72
-1.15599e-66
8.43816e-68
-1.15599e-66
4.37398e-69
-1.54843e-67
6.01967e-71
-3.50809e-69
1.27938e-72
-6.4841e-70
1.76713e-75
-2.87986e-72
3.61213e-79
-9.4983e-76
3.77372e-83
-9.36784e-80
2.16821e-87
-4.08489e-84
8.64274e-94
4.98857e-91
2.41339e-97
2.28735e-94
5.89796e-101
1.03015e-97
1.20333e-104
3.47884e-101
1.88521e-108
9.00641e-105
2.13446e-112
1.69993e-108
1.24154e-116
2.07377e-112
1.21195e-116
-1.20586e-108
1.17339e-108
-1.70978e-104
1.65401e-104
-1.16399e-100
1.11696e-100
-5.7047e-97
4.87542e-97
-2.31969e-93
1.55156e-93
-7.82923e-90
3.78543e-90
-2.32378e-86
6.928e-87
-6.35489e-83
7.08871e-84
-1.96039e-79
-2.57583e-80
-4.14763e-76
-1.6386e-76
-4.86872e-73
-2.94947e-73
-2.96315e-70
-2.34485e-70
-9.12897e-68
-8.28831e-68
-1.31619e-65
-1.17893e-65
-2.9677e-64
-5.0535e-64
-2.46262e-68
-3.68613e-63
2.96724e-64
-3.68616e-63
1.6563e-65
-5.05519e-64
2.5652e-67
-1.22477e-65
5.78252e-69
-2.53752e-66
9.28167e-72
-1.26911e-68
2.37383e-75
-5.09627e-72
3.10839e-79
-6.28458e-76
2.16633e-83
-3.3438e-80
1.15358e-89
6.21863e-87
3.90178e-93
3.44115e-90
1.15221e-96
1.88022e-93
2.83351e-100
7.70643e-97
5.75585e-104
2.42155e-100
8.46006e-108
5.54767e-104
5.97006e-112
8.21498e-108
5.82776e-112
-4.11009e-104
3.99887e-104
-4.80309e-100
4.64539e-100
-2.69744e-96
2.58545e-96
-9.74824e-93
9.30033e-93
-3.24491e-89
2.43947e-89
-9.0677e-86
4.90576e-86
-2.22289e-82
7.40403e-83
-5.34762e-79
6.27559e-80
-1.40654e-75
-1.57861e-76
-2.45113e-72
-8.46275e-73
-2.38595e-69
-1.28433e-69
-1.22078e-66
-8.72477e-67
-3.23654e-64
-2.69205e-64
-4.1318e-62
-3.63939e-62
-8.57812e-61
-1.50692e-60
-6.44282e-65
-1.06438e-59
8.5769e-61
-1.06439e-59
5.08699e-62
-1.50742e-60
8.97808e-64
-3.70103e-62
2.14536e-65
-8.14759e-63
3.99836e-68
-4.5858e-65
1.27833e-71
-2.24046e-68
2.10127e-75
-3.45666e-72
1.77493e-79
-2.24265e-76
1.279e-85
6.39253e-83
5.2382e-89
4.26272e-86
1.86821e-92
2.82439e-89
5.58237e-96
1.40445e-92
1.54516e-99
5.35434e-96
2.75388e-103
1.48846e-99
2.35806e-107
2.67434e-103
2.3021e-107
-1.13979e-99
1.10884e-99
-1.09825e-95
1.06201e-95
-5.08642e-92
4.87368e-92
-1.52977e-88
1.44555e-88
-3.77544e-85
3.12618e-85
-9.0322e-82
5.18459e-82
-1.85005e-78
6.45642e-79
-3.81124e-75
4.5393e-76
-8.22765e-72
-7.92843e-73
-1.18197e-68
-3.59552e-69
-9.55626e-66
-4.61094e-66
-4.12086e-63
-2.76298e-63
-9.4223e-61
-8.01142e-61
-1.06591e-58
-9.71354e-59
-2.03753e-57
-3.72036e-57
-1.38465e-61
-2.52553e-56
2.03726e-57
-2.52554e-56
1.26753e-58
-3.7216e-57
2.57667e-60
-9.54798e-59
6.53201e-62
-2.14607e-59
1.41235e-64
-1.35822e-61
5.63864e-68
-8.06704e-65
1.16516e-71
-1.55779e-68
1.19149e-75
-1.2311e-72
1.17805e-81
5.42046e-79
6.10262e-85
4.34804e-82
2.54272e-88
3.49182e-85
1.02315e-91
2.10547e-88
3.40688e-95
9.73559e-92
7.36396e-99
3.28231e-95
7.6481e-103
7.15229e-99
7.46757e-103
-2.56876e-95
2.49873e-95
-2.04177e-91
1.97414e-91
-7.80181e-88
7.47395e-88
-1.93664e-84
1.82889e-84
-3.9334e-81
3.26308e-81
-7.75715e-78
4.46502e-78
-1.30915e-74
4.59072e-75
-2.21257e-71
2.68122e-72
-3.92078e-68
-3.26057e-69
-4.64792e-65
-1.25643e-65
-3.12746e-62
-1.43734e-62
-1.1392e-59
-7.77889e-60
-2.25136e-57
-1.96147e-57
-2.25924e-55
-2.1289e-55
-3.97637e-54
-7.54501e-54
-2.44358e-58
-4.92247e-53
3.97589e-54
-4.92248e-53
2.59387e-55
-7.54753e-54
6.06991e-57
-2.02179e-55
1.63146e-58
-4.63496e-56
4.08976e-61
-3.29635e-58
2.03638e-64
-2.37778e-61
5.29639e-68
-5.74793e-65
6.5457e-72
-5.52407e-69
9.25439e-78
3.7925e-75
6.19197e-81
3.65218e-78
3.12988e-84
3.55299e-81
1.5294e-87
2.59654e-84
6.1717e-91
1.45529e-87
1.61706e-94
5.94711e-91
2.036e-98
1.57082e-94
1.9882e-98
-4.69772e-91
4.56895e-91
-3.0821e-87
2.97951e-87
-9.72277e-84
9.31222e-84
-1.99243e-80
1.88117e-80
-3.33246e-77
2.77076e-77
-5.42043e-74
3.13024e-74
-7.5408e-71
2.65924e-71
-1.04524e-67
1.29261e-68
-1.52088e-64
-1.0966e-65