/*--------------------------------*- C++ -*----------------------------------*\
  =========                 |
  \\      /  F ield         | OpenFOAM: The Open Source CFD Toolbox
   \\    /   O peration     | Website:  https://openfoam.org
    \\  /    A nd           | Version:  9
     \\/     M anipulation  |
\*---------------------------------------------------------------------------*/
FoamFile
{
    format      ascii;
    class       volScalarField;
    location    "0.35";
    object      p;
}
// * * * * * * * * * * * * * * * * * * * * * * * * * * * * * * * * * * * * * //

dimensions      [1 -1 -2 0 0 0 0];

internalField   nonuniform List<scalar> 
4096
(
-1.76986e-07
0
4.7057e-07
1.11092e-06
1.89684e-06
2.8078e-06
3.81318e-06
4.87908e-06
5.96699e-06
7.03572e-06
8.04382e-06
8.95199e-06
9.72465e-06
1.03316e-05
1.07489e-05
1.09604e-05
1.09576e-05
1.07405e-05
1.03175e-05
9.70483e-06
8.92629e-06
8.01206e-06
6.99757e-06
5.92221e-06
4.82771e-06
3.75658e-06
2.75037e-06
1.84816e-06
1.08487e-06
4.90624e-07
8.98452e-08
-1.11282e-07
-0.0519321
-0.0519319
-0.0519314
-0.0519307
-0.0519299
-0.051929
-0.0519279
-0.0519268
-0.0519257
-0.0519246
-0.0519236
-0.0519226
-0.0519218
-0.0519212
-0.0519207
-0.0519205
-0.0519205
-0.0519208
-0.0519212
-0.0519218
-0.0519226
-0.0519236
-0.0519246
-0.0519257
-0.0519269
-0.051928
-0.051929
-0.05193
-0.0519308
-0.0519314
-0.0519318
-0.051932
-0.103864
-0.103864
-0.103863
-0.103863
-0.103862
-0.103861
-0.10386
-0.103859
-0.103857
-0.103856
-0.103855
-0.103854
-0.103853
-0.103853
-0.103852
-0.103852
-0.103852
-0.103852
-0.103853
-0.103853
-0.103854
-0.103855
-0.103856
-0.103857
-0.103859
-0.10386
-0.103861
-0.103862
-0.103863
-0.103863
-0.103864
-0.103864
-0.155797
-0.155796
-0.155796
-0.155795
-0.155794
-0.155793
-0.155792
-0.15579
-0.155789
-0.155788
-0.155786
-0.155785
-0.155784
-0.155784
-0.155783
-0.155783
-0.155783
-0.155783
-0.155784
-0.155784
-0.155785
-0.155786
-0.155788
-0.155789
-0.15579
-0.155792
-0.155793
-0.155794
-0.155795
-0.155796
-0.155796
-0.155796
-0.207729
-0.207729
-0.207728
-0.207727
-0.207726
-0.207725
-0.207724
-0.207722
-0.207721
-0.207719
-0.207718
-0.207716
-0.207715
-0.207714
-0.207714
-0.207714
-0.207714
-0.207714
-0.207714
-0.207715
-0.207716
-0.207718
-0.207719
-0.207721
-0.207722
-0.207724
-0.207725
-0.207726
-0.207727
-0.207728
-0.207729
-0.207729
-0.259662
-0.259662
-0.259661
-0.25966
-0.259659
-0.259657
-0.259656
-0.259654
-0.259652
-0.25965
-0.259649
-0.259647
-0.259646
-0.259645
-0.259644
-0.259644
-0.259644
-0.259644
-0.259645
-0.259646
-0.259647
-0.259649
-0.25965
-0.259652
-0.259654
-0.259656
-0.259657
-0.259659
-0.25966
-0.259661
-0.259662
-0.259662
-0.311595
-0.311595
-0.311594
-0.311593
-0.311591
-0.31159
-0.311588
-0.311586
-0.311584
-0.311582
-0.31158
-0.311578
-0.311577
-0.311575
-0.311575
-0.311574
-0.311574
-0.311575
-0.311575
-0.311577
-0.311578
-0.31158
-0.311582
-0.311584
-0.311586
-0.311588
-0.31159
-0.311591
-0.311593
-0.311594
-0.311595
-0.311595
-0.363529
-0.363528
-0.363527
-0.363526
-0.363524
-0.363522
-0.36352
-0.363518
-0.363515
-0.363513
-0.363511
-0.363508
-0.363507
-0.363505
-0.363504
-0.363504
-0.363504
-0.363504
-0.363505
-0.363507
-0.363508
-0.363511
-0.363513
-0.363515
-0.363518
-0.36352
-0.363522
-0.363524
-0.363526
-0.363527
-0.363528
-0.363529
-0.415463
-0.415462
-0.415461
-0.41546
-0.415458
-0.415455
-0.415452
-0.41545
-0.415447
-0.415444
-0.415441
-0.415439
-0.415437
-0.415435
-0.415434
-0.415433
-0.415433
-0.415434
-0.415435
-0.415437
-0.415439
-0.415441
-0.415444
-0.415447
-0.41545
-0.415452
-0.415455
-0.415458
-0.41546
-0.415461
-0.415462
-0.415463
-0.467398
-0.467397
-0.467396
-0.467394
-0.467391
-0.467388
-0.467385
-0.467382
-0.467378
-0.467375
-0.467371
-0.467368
-0.467366
-0.467364
-0.467363
-0.467362
-0.467362
-0.467363
-0.467364
-0.467366
-0.467368
-0.467371
-0.467375
-0.467378
-0.467382
-0.467385
-0.467388
-0.467391
-0.467394
-0.467395
-0.467397
-0.467397
-0.519333
-0.519332
-0.519331
-0.519328
-0.519325
-0.519322
-0.519318
-0.519314
-0.519309
-0.519305
-0.519301
-0.519298
-0.519295
-0.519292
-0.519291
-0.51929
-0.51929
-0.519291
-0.519292
-0.519295
-0.519298
-0.519301
-0.519305
-0.519309
-0.519314
-0.519318
-0.519322
-0.519325
-0.519328
-0.51933
-0.519332
-0.519333
-0.571269
-0.571268
-0.571266
-0.571263
-0.57126
-0.571256
-0.571251
-0.571246
-0.571241
-0.571236
-0.571231
-0.571227
-0.571223
-0.57122
-0.571218
-0.571217
-0.571217
-0.571218
-0.57122
-0.571223
-0.571227
-0.571231
-0.571236
-0.571241
-0.571246
-0.571251
-0.571255
-0.57126
-0.571263
-0.571266
-0.571268
-0.571269
-0.623206
-0.623205
-0.623203
-0.623199
-0.623195
-0.62319
-0.623184
-0.623178
-0.623172
-0.623166
-0.62316
-0.623155
-0.62315
-0.623147
-0.623145
-0.623143
-0.623143
-0.623145
-0.623147
-0.62315
-0.623155
-0.62316
-0.623166
-0.623172
-0.623178
-0.623184
-0.62319
-0.623195
-0.623199
-0.623203
-0.623205
-0.623206
-0.675144
-0.675143
-0.67514
-0.675136
-0.675131
-0.675125
-0.675118
-0.67511
-0.675103
-0.675095
-0.675089
-0.675082
-0.675077
-0.675073
-0.67507
-0.675068
-0.675068
-0.67507
-0.675073
-0.675077
-0.675082
-0.675088
-0.675095
-0.675103
-0.67511
-0.675118
-0.675125
-0.675131
-0.675136
-0.67514
-0.675143
-0.675144
-0.727084
-0.727082
-0.727079
-0.727074
-0.727068
-0.72706
-0.727052
-0.727043
-0.727034
-0.727025
-0.727016
-0.727009
-0.727002
-0.726997
-0.726994
-0.726992
-0.726992
-0.726994
-0.726997
-0.727002
-0.727009
-0.727016
-0.727025
-0.727034
-0.727043
-0.727052
-0.72706
-0.727068
-0.727074
-0.727079
-0.727082
-0.727084
-0.779026
-0.779024
-0.77902
-0.779014
-0.779006
-0.778997
-0.778986
-0.778976
-0.778965
-0.778954
-0.778943
-0.778934
-0.778926
-0.77892
-0.778916
-0.778914
-0.778914
-0.778916
-0.77892
-0.778926
-0.778934
-0.778943
-0.778954
-0.778964
-0.778976
-0.778986
-0.778997
-0.779006
-0.779013
-0.779019
-0.779024
-0.779026
-0.830969
-0.830967
-0.830962
-0.830955
-0.830945
-0.830934
-0.830922
-0.830909
-0.830895
-0.830882
-0.830869
-0.830858
-0.830849
-0.830841
-0.830836
-0.830833
-0.830833
-0.830836
-0.830841
-0.830849
-0.830858
-0.830869
-0.830882
-0.830895
-0.830908
-0.830922
-0.830934
-0.830945
-0.830954
-0.830962
-0.830967
-0.830969
-0.882916
-0.882913
-0.882907
-0.882898
-0.882886
-0.882873
-0.882858
-0.882842
-0.882825
-0.882809
-0.882794
-0.882781
-0.882769
-0.88276
-0.882754
-0.88275
-0.88275
-0.882754
-0.88276
-0.882769
-0.882781
-0.882794
-0.882809
-0.882825
-0.882842
-0.882858
-0.882873
-0.882886
-0.882898
-0.882906
-0.882912
-0.882915
-0.934865
-0.934861
-0.934854
-0.934843
-0.934829
-0.934813
-0.934795
-0.934775
-0.934755
-0.934736
-0.934718
-0.934701
-0.934687
-0.934676
-0.934668
-0.934664
-0.934664
-0.934668
-0.934676
-0.934687
-0.934701
-0.934718
-0.934736
-0.934755
-0.934775
-0.934795
-0.934813
-0.934829
-0.934843
-0.934854
-0.934861
-0.934865
-0.986818
-0.986814
-0.986805
-0.986792
-0.986775
-0.986755
-0.986733
-0.986709
-0.986685
-0.986661
-0.986639
-0.986619
-0.986602
-0.986588
-0.986579
-0.986574
-0.986574
-0.986579
-0.986588
-0.986602
-0.986619
-0.986639
-0.986661
-0.986685
-0.986709
-0.986733
-0.986755
-0.986775
-0.986792
-0.986805
-0.986814
-0.986818
-1.03878
-1.03877
-1.03876
-1.03874
-1.03872
-1.0387
-1.03867
-1.03864
-1.03861
-1.03859
-1.03856
-1.03853
-1.03851
-1.0385
-1.03849
-1.03848
-1.03848
-1.03849
-1.0385
-1.03851
-1.03853
-1.03856
-1.03859
-1.03861
-1.03864
-1.03867
-1.0387
-1.03872
-1.03874
-1.03876
-1.03877
-1.03878
-1.09074
-1.09073
-1.09072
-1.0907
-1.09068
-1.09065
-1.09061
-1.09058
-1.09054
-1.09051
-1.09048
-1.09045
-1.09042
-1.0904
-1.09039
-1.09038
-1.09038
-1.09039
-1.0904
-1.09042
-1.09045
-1.09048
-1.09051
-1.09054
-1.09058
-1.09061
-1.09065
-1.09068
-1.0907
-1.09072
-1.09073
-1.09074
-1.14271
-1.1427
-1.14269
-1.14266
-1.14263
-1.1426
-1.14256
-1.14251
-1.14247
-1.14243
-1.14239
-1.14235
-1.14232
-1.1423
-1.14228
-1.14227
-1.14227
-1.14228
-1.1423
-1.14232
-1.14235
-1.14239
-1.14243
-1.14247
-1.14251
-1.14256
-1.1426
-1.14263
-1.14266
-1.14269
-1.1427
-1.14271
-1.19469
-1.19468
-1.19466
-1.19463
-1.19459
-1.19455
-1.1945
-1.19445
-1.1944
-1.19435
-1.1943
-1.19425
-1.19422
-1.19419
-1.19417
-1.19416
-1.19416
-1.19417
-1.19419
-1.19422
-1.19425
-1.1943
-1.19435
-1.1944
-1.19445
-1.1945
-1.19455
-1.19459
-1.19463
-1.19466
-1.19468
-1.19469
-1.24668
-1.24667
-1.24664
-1.24661
-1.24656
-1.24651
-1.24645
-1.24639
-1.24633
-1.24626
-1.2462
-1.24615
-1.2461
-1.24607
-1.24604
-1.24603
-1.24603
-1.24604
-1.24607
-1.2461
-1.24615
-1.2462
-1.24626
-1.24633
-1.24639
-1.24645
-1.24651
-1.24656
-1.24661
-1.24664
-1.24667
-1.24668
-1.29868
-1.29866
-1.29864
-1.29859
-1.29854
-1.29848
-1.2984
-1.29833
-1.29825
-1.29817
-1.2981
-1.29804
-1.29798
-1.29794
-1.29791
-1.29789
-1.29789
-1.29791
-1.29794
-1.29798
-1.29804
-1.2981
-1.29817
-1.29825
-1.29833
-1.2984
-1.29848
-1.29854
-1.29859
-1.29864
-1.29866
-1.29868
-1.35069
-1.35068
-1.35064
-1.35059
-1.35053
-1.35045
-1.35036
-1.35027
-1.35018
-1.35008
-1.34999
-1.34992
-1.34985
-1.3498
-1.34976
-1.34974
-1.34974
-1.34976
-1.3498
-1.34985
-1.34992
-1.34999
-1.35008
-1.35018
-1.35027
-1.35036
-1.35045
-1.35053
-1.35059
-1.35064
-1.35068
-1.35069
-1.40273
-1.40271
-1.40267
-1.4026
-1.40252
-1.40243
-1.40233
-1.40221
-1.4021
-1.40199
-1.40188
-1.40178
-1.4017
-1.40164
-1.40159
-1.40157
-1.40157
-1.40159
-1.40164
-1.4017
-1.40178
-1.40188
-1.40199
-1.4021
-1.40221
-1.40233
-1.40243
-1.40252
-1.4026
-1.40267
-1.40271
-1.40273
-1.45479
-1.45476
-1.45471
-1.45463
-1.45454
-1.45442
-1.4543
-1.45416
-1.45402
-1.45388
-1.45375
-1.45364
-1.45354
-1.45346
-1.4534
-1.45337
-1.45337
-1.4534
-1.45346
-1.45354
-1.45364
-1.45375
-1.45388
-1.45402
-1.45416
-1.45429
-1.45442
-1.45454
-1.45463
-1.45471
-1.45476
-1.45479
-1.50687
-1.50684
-1.50678
-1.50668
-1.50657
-1.50643
-1.50627
-1.50611
-1.50594
-1.50577
-1.50561
-1.50547
-1.50535
-1.50525
-1.50519
-1.50515
-1.50515
-1.50519
-1.50525
-1.50535
-1.50547
-1.50561
-1.50577
-1.50594
-1.50611
-1.50627
-1.50643
-1.50657
-1.50668
-1.50678
-1.50684
-1.50687
-1.55898
-1.55895
-1.55887
-1.55876
-1.55862
-1.55845
-1.55826
-1.55806
-1.55786
-1.55765
-1.55746
-1.55729
-1.55714
-1.55702
-1.55694
-1.5569
-1.5569
-1.55694
-1.55702
-1.55714
-1.55729
-1.55746
-1.55765
-1.55786
-1.55806
-1.55826
-1.55845
-1.55862
-1.55876
-1.55887
-1.55895
-1.55898
-1.61114
-1.61109
-1.611
-1.61087
-1.6107
-1.61049
-1.61026
-1.61002
-1.60977
-1.60952
-1.60929
-1.60908
-1.6089
-1.60875
-1.60866
-1.60861
-1.60861
-1.60866
-1.60875
-1.6089
-1.60908
-1.60929
-1.60952
-1.60977
-1.61002
-1.61026
-1.61049
-1.6107
-1.61087
-1.611
-1.61109
-1.61114
-1.66334
-1.66329
-1.66318
-1.66301
-1.66281
-1.66256
-1.66228
-1.66198
-1.66168
-1.66138
-1.6611
-1.66084
-1.66062
-1.66044
-1.66032
-1.66026
-1.66026
-1.66032
-1.66044
-1.66062
-1.66084
-1.6611
-1.66138
-1.66168
-1.66198
-1.66228
-1.66256
-1.66281
-1.66301
-1.66318
-1.66329
-1.66334
-1.7156
-1.71554
-1.7154
-1.71521
-1.71495
-1.71465
-1.71432
-1.71396
-1.71359
-1.71322
-1.71288
-1.71256
-1.71229
-1.71208
-1.71194
-1.71186
-1.71186
-1.71194
-1.71208
-1.71229
-1.71256
-1.71288
-1.71322
-1.71359
-1.71396
-1.71432
-1.71465
-1.71495
-1.71521
-1.7154
-1.71553
-1.7156
-1.76793
-1.76785
-1.76769
-1.76745
-1.76715
-1.76679
-1.76638
-1.76594
-1.76549
-1.76505
-1.76463
-1.76424
-1.76392
-1.76366
-1.76348
-1.76339
-1.76339
-1.76348
-1.76366
-1.76392
-1.76424
-1.76463
-1.76505
-1.76549
-1.76594
-1.76638
-1.76678
-1.76715
-1.76745
-1.76769
-1.76785
-1.76793
-1.82035
-1.82025
-1.82006
-1.81977
-1.8194
-1.81896
-1.81847
-1.81794
-1.81739
-1.81685
-1.81634
-1.81587
-1.81547
-1.81515
-1.81494
-1.81482
-1.81482
-1.81494
-1.81515
-1.81547
-1.81587
-1.81634
-1.81685
-1.81739
-1.81794
-1.81847
-1.81896
-1.8194
-1.81977
-1.82006
-1.82025
-1.82035
-1.87287
-1.87275
-1.87252
-1.87217
-1.87172
-1.87119
-1.87059
-1.86995
-1.86929
-1.86863
-1.868
-1.86743
-1.86694
-1.86656
-1.86629
-1.86615
-1.86615
-1.86629
-1.86656
-1.86694
-1.86743
-1.868
-1.86863
-1.86929
-1.86995
-1.87059
-1.87119
-1.87172
-1.87217
-1.87252
-1.87275
-1.87287
-1.92551
-1.92537
-1.92509
-1.92467
-1.92413
-1.92349
-1.92277
-1.92199
-1.92118
-1.92038
-1.91962
-1.91892
-1.91832
-1.91785
-1.91752
-1.91735
-1.91735
-1.91752
-1.91785
-1.91832
-1.91892
-1.91962
-1.92038
-1.92118
-1.92199
-1.92277
-1.92349
-1.92413
-1.92467
-1.92509
-1.92537
-1.92551
-1.9783
-1.97813
-1.9778
-1.9773
-1.97665
-1.97587
-1.975
-1.97405
-1.97308
-1.9721
-1.97117
-1.97032
-1.96958
-1.969
-1.96859
-1.96838
-1.96838
-1.96859
-1.969
-1.96958
-1.97032
-1.97117
-1.9721
-1.97308
-1.97405
-1.975
-1.97587
-1.97665
-1.9773
-1.9778
-1.97813
-1.9783
-2.03128
-2.03108
-2.03067
-2.03007
-2.02929
-2.02836
-2.0273
-2.02616
-2.02497
-2.02378
-2.02265
-2.0216
-2.0207
-2.01998
-2.01948
-2.01922
-2.01922
-2.01948
-2.01998
-2.0207
-2.0216
-2.02264
-2.02378
-2.02497
-2.02616
-2.0273
-2.02836
-2.02929
-2.03007
-2.03067
-2.03108
-2.03128
-2.08447
-2.08423
-2.08375
-2.08303
-2.08209
-2.08097
-2.0797
-2.07832
-2.07688
-2.07543
-2.07404
-2.07275
-2.07164
-2.07076
-2.07014
-2.06982
-2.06982
-2.07014
-2.07076
-2.07164
-2.07275
-2.07404
-2.07543
-2.07688
-2.07832
-2.0797
-2.08097
-2.08209
-2.08303
-2.08375
-2.08423
-2.08447
-2.13793
-2.13764
-2.13707
-2.13621
-2.13509
-2.13374
-2.13221
-2.13054
-2.1288
-2.12703
-2.12533
-2.12375
-2.12238
-2.12128
-2.12051
-2.12012
-2.12012
-2.12051
-2.12128
-2.12238
-2.12375
-2.12533
-2.12703
-2.1288
-2.13054
-2.13221
-2.13374
-2.13509
-2.13621
-2.13707
-2.13764
-2.13793
-2.1917
-2.19136
-2.19068
-2.18966
-2.18832
-2.18671
-2.18487
-2.18286
-2.18075
-2.1786
-2.17651
-2.17457
-2.17287
-2.17151
-2.17055
-2.17005
-2.17005
-2.17055
-2.17151
-2.17287
-2.17457
-2.17651
-2.1786
-2.18075
-2.18286
-2.18487
-2.18671
-2.18832
-2.18966
-2.19068
-2.19136
-2.1917
-2.24585
-2.24545
-2.24465
-2.24343
-2.24185
-2.23993
-2.23773
-2.23531
-2.23275
-2.23014
-2.22757
-2.22518
-2.22307
-2.22136
-2.22016
-2.21954
-2.21954
-2.22016
-2.22136
-2.22307
-2.22518
-2.22757
-2.23014
-2.23275
-2.23531
-2.23773
-2.23993
-2.24185
-2.24343
-2.24465
-2.24545
-2.24585
-2.30046
-2.29999
-2.29904
-2.29761
-2.29574
-2.29347
-2.29084
-2.28794
-2.28484
-2.28166
-2.27851
-2.27555
-2.27292
-2.27077
-2.26925
-2.26846
-2.26846
-2.26925
-2.27077
-2.27292
-2.27555
-2.27851
-2.28166
-2.28484
-2.28794
-2.29084
-2.29347
-2.29574
-2.29761
-2.29904
-2.29999
-2.30046
-2.35561
-2.35506
-2.35395
-2.35228
-2.35008
-2.34739
-2.34428
-2.3408
-2.33707
-2.3332
-2.32933
-2.32566
-2.32236
-2.31965
-2.31771
-2.3167
-2.3167
-2.31771
-2.31965
-2.32236
-2.32566
-2.32933
-2.3332
-2.33707
-2.3408
-2.34428
-2.34739
-2.35008
-2.35228
-2.35395
-2.35506
-2.35561
-2.4114
-2.41076
-2.40948
-2.40754
-2.40497
-2.40182
-2.39814
-2.394
-2.38951
-2.38481
-2.38006
-2.37549
-2.37134
-2.36788
-2.36538
-2.36408
-2.36408
-2.36538
-2.36788
-2.37134
-2.37549
-2.38006
-2.38481
-2.38951
-2.394
-2.39814
-2.40182
-2.40497
-2.40754
-2.40948
-2.41076
-2.4114
-2.46795
-2.46722
-2.46575
-2.46351
-2.46054
-2.45687
-2.45255
-2.44766
-2.44228
-2.43659
-2.43075
-2.42505
-2.41979
-2.41535
-2.4121
-2.41038
-2.41038
-2.4121
-2.41535
-2.41979
-2.42505
-2.43075
-2.43658
-2.44228
-2.44766
-2.45255
-2.45687
-2.46054
-2.46351
-2.46575
-2.46722
-2.46795
-2.5254
-2.52457
-2.5229
-2.52035
-2.51695
-2.51272
-2.5077
-2.50194
-2.49555
-2.48868
-2.48152
-2.4744
-2.4677
-2.46192
-2.45763
-2.45533
-2.45533
-2.45763
-2.46192
-2.4677
-2.4744
-2.48152
-2.48868
-2.49555
-2.50194
-2.5077
-2.51272
-2.51695
-2.52035
-2.5229
-2.52457
-2.5254
-2.58389
-2.58297
-2.58109
-2.57823
-2.57438
-2.56956
-2.56379
-2.5571
-2.54956
-2.54131
-2.53256
-2.52366
-2.51508
-2.5075
-2.50173
-2.49859
-2.49859
-2.50173
-2.5075
-2.51508
-2.52366
-2.53256
-2.54131
-2.54956
-2.55709
-2.56379
-2.56956
-2.57438
-2.57823
-2.58109
-2.58297
-2.58389
-2.6436
-2.64259
-2.64052
-2.63734
-2.63306
-2.62765
-2.6211
-2.61342
-2.60464
-2.59485
-2.58422
-2.57311
-2.56208
-2.55201
-2.54411
-2.53972
-2.53972
-2.54411
-2.55201
-2.56208
-2.57311
-2.58422
-2.59484
-2.60464
-2.61342
-2.6211
-2.62765
-2.63306
-2.63734
-2.64052
-2.64259
-2.6436
-2.70472
-2.70362
-2.70138
-2.69793
-2.69325
-2.68729
-2.68
-2.67133
-2.66126
-2.64981
-2.63703
-2.62326
-2.60908
-2.59557
-2.5845
-2.5782
-2.5782
-2.5845
-2.59557
-2.60908
-2.62326
-2.63703
-2.64981
-2.66126
-2.67133
-2.68
-2.68729
-2.69325
-2.69793
-2.70138
-2.70362
-2.70472
-2.76743
-2.76628
-2.76391
-2.76024
-2.75524
-2.74882
-2.74088
-2.73133
-2.72004
-2.70696
-2.69187
-2.67503
-2.65686
-2.63856
-2.62267
-2.61334
-2.61334
-2.62267
-2.63856
-2.65686
-2.67503
-2.69186
-2.70696
-2.72004
-2.73133
-2.74088
-2.74882
-2.75524
-2.76024
-2.76391
-2.76628
-2.76743
-2.83196
-2.83078
-2.82833
-2.82455
-2.81935
-2.81262
-2.80424
-2.79401
-2.78172
-2.76708
-2.74994
-2.72989
-2.70696
-2.68205
-2.65871
-2.64438
-2.64438
-2.65871
-2.68205
-2.70696
-2.72989
-2.74994
-2.76708
-2.78172
-2.79401
-2.80423
-2.81262
-2.81934
-2.82455
-2.82833
-2.83078
-2.83196
-2.8985
-2.89733
-2.8949
-2.89112
-2.88589
-2.8791
-2.87055
-2.86003
-2.84724
-2.83177
-2.81308
-2.7903
-2.76241
-2.72906
-2.69494
-2.67253
-2.67253
-2.69494
-2.72906
-2.76241
-2.7903
-2.81308
-2.83177
-2.84724
-2.86003
-2.87055
-2.8791
-2.88589
-2.89112
-2.8949
-2.89733
-2.8985
-2.96725
-2.96615
-2.96383
-2.96021
-2.95518
-2.9486
-2.94026
-2.92994
-2.91734
-2.90203
-2.88326
-2.85962
-2.82836
-2.78608
-2.73628
-2.70351
-2.70351
-2.73629
-2.78608
-2.82836
-2.85962
-2.88326
-2.90203
-2.91734
-2.92994
-2.94026
-2.94859
-2.95518
-2.96021
-2.96383
-2.96615
-2.96725
-3.03841
-3.03742
-3.03534
-3.03205
-3.02745
-3.02137
-3.01363
-3.00401
-2.99231
-2.97828
-2.96117
-2.93903
-2.90724
-2.86256
-2.7973
-2.75733
-2.75733
-2.7973
-2.86256
-2.90724
-2.93903
-2.96117
-2.97828
-2.99231
-3.00401
-3.01363
-3.02137
-3.02745
-3.03205
-3.03534
-3.03742
-3.03841
-3.11211
-3.11131
-3.10959
-3.10682
-3.10286
-3.09753
-3.09063
-3.08198
-3.07154
-3.05952
-3.04533
-3.0259
-2.99333
-2.95416
-2.87974
-2.84479
-2.84479
-2.87974
-2.95416
-2.99333
-3.0259
-3.04532
-3.05952
-3.07154
-3.08198
-3.09063
-3.09753
-3.10286
-3.10682
-3.10958
-3.1113
-3.11211
-3.18847
-3.18793
-3.1867
-3.18463
-3.18149
-3.17702
-3.17097
-3.16304
-3.15344
-3.14305
-3.13202
-3.11691
-3.0909
-3.07773
-3.02432
-2.98923
-2.98923
-3.02432
-3.07772
-3.0909
-3.11691
-3.13202
-3.14305
-3.15344
-3.16304
-3.17097
-3.17702
-3.18149
-3.18463
-3.1867
-3.18793
-3.18847
-3.26756
-3.26735
-3.26678
-3.26557
-3.26336
-3.25973
-3.25416
-3.24601
-3.23526
-3.22413
-3.21335
-3.19994
-3.21363
-3.20042
-3.15013
-3.12228
-3.12228
-3.15013
-3.20042
-3.21363
-3.19994
-3.21334
-3.22413
-3.23526
-3.24601
-3.25416
-3.25972
-3.26336
-3.26557
-3.26678
-3.26735
-3.26756
-3.34934
-3.34959
-3.34985
-3.34972
-3.34855
-3.34563
-3.34001
-3.32979
-3.31454
-3.29955
-3.28577
-3.29706
-3.32382
-3.30191
-3.26402
-3.24574
-3.24574
-3.26402
-3.30191
-3.32382
-3.29706
-3.28577
-3.29955
-3.31454
-3.32979
-3.34001
-3.34563
-3.34855
-3.34972
-3.34985
-3.34959
-3.34934
-3.43368
-3.4345
-3.43585
-3.43709
-3.43715
-3.43489
-3.42858
-3.41471
-3.39041
-3.36964
-3.3767
-3.42037
-3.42435
-3.4001
-3.37719
-3.36594
-3.36594
-3.37719
-3.4001
-3.42434
-3.42036
-3.3767
-3.36964
-3.39041
-3.41471
-3.42857
-3.43488
-3.43715
-3.43709
-3.43585
-3.4345
-3.43367
-3.52014
-3.5217
-3.52448
-3.52755
-3.52913
-3.52722
-3.51988
-3.50292
-3.47864
-3.47979
-3.51529
-3.53414
-3.53035
-3.51695
-3.50409
-3.49714
-3.49714
-3.50408
-3.51695
-3.53035
-3.53414
-3.51528
-3.47979
-3.47863
-3.50291
-3.51988
-3.52722
-3.52913
-3.52755
-3.52448
-3.5217
-3.52014
-3.60789
-3.6104
-3.61514
-3.62057
-3.62335
-3.62072
-3.61106
-3.59101
-3.5955
-3.61667
-3.64472
-3.6585
-3.6606
-3.65615
-3.65047
-3.64743
-3.64743
-3.65047
-3.65615
-3.6606
-3.6585
-3.64471
-3.61667
-3.5955
-3.59101
-3.61106
-3.62072
-3.62335
-3.62057
-3.61514
-3.6104
-3.60788
-3.69561
-3.6994
-3.70674
-3.71487
-3.71848
-3.71219
-3.69324
-3.71447
-3.75147
-3.77471
-3.79312
-3.8081
-3.81476
-3.81621
-3.81633
-3.81622
-3.81622
-3.81633
-3.81621
-3.81475
-3.8081
-3.79312
-3.77471
-3.75147
-3.71446
-3.69324
-3.71219
-3.71848
-3.71487
-3.70674
-3.6994
-3.6956
-3.78125
-3.78695
-3.79736
-3.80867
-3.81321
-3.79669
-3.8184
-3.88377
-3.91834
-3.93915
-3.96084
-3.9783
-3.98972
-3.99699
-4.00138
-4.00342
-4.00342
-4.00138
-3.99699
-3.98972
-3.9783
-3.96084
-3.93915
-3.91834
-3.88377
-3.8184
-3.79669
-3.81321
-3.80867
-3.79736
-3.78695
-3.78125
-3.86308
-3.87044
-3.88407
-3.89823
-3.90359
-3.91788
-3.98195
-4.04709
-4.08333
-4.11473
-4.14363
-4.16714
-4.1847
-4.19702
-4.20482
-4.20859
-4.20859
-4.20482
-4.19702
-4.1847
-4.16714
-4.14363
-4.11473
-4.08332
-4.04709
-3.98195
-3.91787
-3.90359
-3.89823
-3.88407
-3.87043
-3.86308
-3.93856
-3.94699
-3.96348
-3.98208
-3.99938
-4.06483
-4.15337
-4.21665
-4.26587
-4.3092
-4.3462
-4.3761
-4.39901
-4.41545
-4.42604
-4.43121
-4.43121
-4.42604
-4.41545
-4.39901
-4.3761
-4.3462
-4.3092
-4.26587
-4.21665
-4.15337
-4.06483
-3.99938
-3.98208
-3.96348
-3.94699
-3.93855
-4.00572
-4.01459
-4.03288
-4.05328
-4.13944
-4.25178
-4.34007
-4.41105
-4.47301
-4.52595
-4.56979
-4.605
-4.63212
-4.65174
-4.66446
-4.6707
-4.6707
-4.66446
-4.65174
-4.63212
-4.605
-4.56979
-4.52595
-4.47301
-4.41105
-4.34007
-4.25178
-4.13944
-4.05328
-4.03288
-4.01459
-4.00572
-4.06607
-4.07349
-4.09582
-4.17688
-4.33211
-4.45652
-4.55244
-4.63518
-4.70649
-4.76592
-4.81454
-4.85342
-4.88339
-4.90516
-4.91932
-4.92629
-4.92629
-4.91932
-4.90516
-4.88339
-4.85342
-4.81454
-4.76592
-4.70649
-4.63518
-4.55244
-4.45653
-4.33211
-4.17688
-4.09582
-4.07348
-4.06607
-4.19464
-4.22689
-4.29634
-4.43019
-4.57988
-4.701
-4.80419
-4.89272
-4.96736
-5.02932
-5.08
-5.12056
-5.15191
-5.17477
-5.18969
-5.19704
-5.19704
-5.18969
-5.17477
-5.15191
-5.12056
-5.08
-5.02932
-4.96736
-4.89272
-4.80419
-4.701
-4.57989
-4.43019
-4.29634
-4.22689
-4.19464
-4.51564
-4.55758
-4.63894
-4.7582
-4.88342
-4.99663
-5.09553
-5.181
-5.25365
-5.31451
-5.36465
-5.40502
-5.43639
-5.45936
-5.4744
-5.48183
-5.48183
-5.4744
-5.45936
-5.43639
-5.40502
-5.36465
-5.31451
-5.25365
-5.181
-5.09553
-4.99663
-4.88342
-4.7582
-4.63894
-4.55758
-4.51564
-4.95119
-4.98251
-5.04394
-5.13462
-5.23431
-5.32993
-5.41691
-5.49442
-5.5616
-5.61872
-5.66633
-5.70499
-5.73524
-5.75752
-5.77216
-5.77942
-5.77942
-5.77216
-5.75752
-5.73524
-5.70499
-5.66633
-5.61872
-5.5616
-5.49442
-5.41691
-5.32994
-5.23431
-5.13462
-5.04394
-4.98251
-4.95119
-5.38915
-5.41372
-5.46209
-5.53047
-5.60769
-5.68571
-5.7598
-5.82712
-5.88695
-5.93875
-5.98252
-6.01843
-6.04676
-6.06774
-6.0816
-6.08847
-6.08847
-6.0816
-6.06774
-6.04676
-6.01843
-5.98252
-5.93876
-5.88695
-5.82712
-5.7598
-5.68571
-5.60769
-5.53047
-5.4621
-5.41373
-5.38915
-5.82336
-5.8425
-5.87973
-5.93159
-5.9918
-6.05469
-6.11619
-6.17361
-6.22566
-6.27149
-6.31074
-6.3433
-6.36919
-6.38849
-6.4013
-6.40767
-6.40767
-6.4013
-6.38849
-6.36919
-6.3433
-6.31074
-6.27149
-6.22566
-6.17361
-6.11619
-6.05469
-5.9918
-5.9316
-5.87973
-5.8425
-5.82336
-6.25042
-6.26519
-6.29373
-6.33359
-6.38072
-6.43112
-6.48162
-6.52985
-6.57437
-6.61419
-6.64874
-6.67769
-6.70091
-6.71832
-6.72992
-6.7357
-6.7357
-6.72992
-6.71832
-6.70091
-6.67769
-6.64874
-6.61419
-6.57437
-6.52985
-6.48162
-6.43113
-6.38072
-6.33359
-6.29373
-6.26519
-6.25042
-6.6697
-6.68112
-6.70315
-6.73405
-6.77109
-6.81146
-6.85269
-6.89282
-6.93045
-6.96459
-6.99455
-7.01992
-7.04041
-7.05586
-7.0662
-7.07137
-7.07137
-7.0662
-7.05586
-7.04041
-7.01992
-6.99456
-6.96459
-6.93045
-6.89282
-6.85269
-6.81146
-6.77109
-6.73405
-6.70315
-6.68112
-6.6697
-7.08178
-7.09065
-7.10779
-7.13193
-7.1612
-7.19356
-7.22713
-7.26032
-7.29188
-7.32086
-7.34657
-7.36852
-7.38637
-7.39992
-7.40901
-7.41357
-7.41357
-7.40901
-7.39992
-7.38637
-7.36852
-7.34657
-7.32087
-7.29188
-7.26032
-7.22714
-7.19356
-7.1612
-7.13193
-7.10779
-7.09066
-7.08178
-7.48758
-7.49452
-7.50794
-7.52695
-7.55019
-7.5762
-7.60352
-7.63087
-7.65719
-7.68161
-7.70348
-7.72229
-7.73769
-7.74942
-7.75733
-7.76131
-7.76131
-7.75733
-7.74942
-7.73769
-7.72229
-7.70348
-7.68161
-7.65719
-7.63087
-7.60352
-7.5762
-7.5502
-7.52695
-7.50795
-7.49453
-7.48758
-7.88807
-7.89354
-7.90413
-7.91918
-7.93774
-7.95869
-7.98093
-8.00344
-8.02529
-8.04575
-8.06422
-8.08022
-8.09339
-8.10347
-8.11029
-8.11372
-8.11372
-8.11029
-8.10347
-8.09339
-8.08022
-8.06422
-8.04575
-8.02529
-8.00344
-7.98093
-7.95869
-7.93774
-7.91919
-7.90413
-7.89354
-7.88808
-8.28414
-8.28847
-8.29687
-8.30887
-8.32375
-8.34068
-8.3588
-8.37729
-8.39538
-8.41246
-8.42798
-8.4415
-8.45269
-8.46129
-8.46712
-8.47006
-8.47006
-8.46712
-8.46129
-8.45269
-8.44151
-8.42798
-8.41246
-8.39538
-8.37729
-8.3588
-8.34068
-8.32375
-8.30888
-8.29687
-8.28847
-8.28414
-8.67654
-8.67999
-8.6867
-8.69632
-8.70829
-8.722
-8.73677
-8.75195
-8.76692
-8.78113
-8.79411
-8.80549
-8.81494
-8.82223
-8.82718
-8.82968
-8.82968
-8.82718
-8.82223
-8.81494
-8.80549
-8.79412
-8.78113
-8.76692
-8.75195
-8.73677
-8.722
-8.70829
-8.69632
-8.6867
-8.67999
-8.67654
-9.06593
-9.0687
-9.07408
-9.08181
-9.09149
-9.10261
-9.11467
-9.12713
-9.13949
-9.15128
-9.16212
-9.17165
-9.1796
-9.18574
-9.18992
-9.19204
-9.19204
-9.18992
-9.18574
-9.1796
-9.17165
-9.16212
-9.15128
-9.13949
-9.12713
-9.11467
-9.10261
-9.09149
-9.08181
-9.07408
-9.0687
-9.06593
-9.45284
-9.45507
-9.4594
-9.46565
-9.47348
-9.48254
-9.49239
-9.50262
-9.51281
-9.52259
-9.5316
-9.53956
-9.54622
-9.55138
-9.5549
-9.55668
-9.55668
-9.5549
-9.55138
-9.54622
-9.53956
-9.5316
-9.52259
-9.51281
-9.50262
-9.49239
-9.48254
-9.47349
-9.46565
-9.4594
-9.45507
-9.45284
-9.83772
-9.83952
-9.84302
-9.84808
-9.85445
-9.86182
-9.86988
-9.87828
-9.88668
-9.89477
-9.90226
-9.90889
-9.91445
-9.91877
-9.92172
-9.92321
-9.92321
-9.92172
-9.91877
-9.91445
-9.90889
-9.90226
-9.89477
-9.88668
-9.87828
-9.86988
-9.86182
-9.85445
-9.84808
-9.84302
-9.83952
-9.83772
-10.2209
-10.2224
-10.2252
-10.2293
-10.2345
-10.2405
-10.2471
-10.254
-10.261
-10.2676
-10.2738
-10.2794
-10.284
-10.2876
-10.2901
-10.2913
-10.2913
-10.2901
-10.2876
-10.284
-10.2794
-10.2738
-10.2676
-10.261
-10.254
-10.2471
-10.2405
-10.2345
-10.2293
-10.2252
-10.2224
-10.2209
-10.6028
-10.604
-10.6063
-10.6096
-10.6138
-10.6188
-10.6242
-10.6298
-10.6355
-10.6411
-10.6462
-10.6508
-10.6546
-10.6576
-10.6597
-10.6607
-10.6607
-10.6597
-10.6576
-10.6546
-10.6508
-10.6462
-10.6411
-10.6355
-10.6298
-10.6242
-10.6188
-10.6138
-10.6096
-10.6063
-10.604
-10.6028
-10.9835
-10.9845
-10.9863
-10.9891
-10.9925
-10.9965
-11.001
-11.0056
-11.0103
-11.0149
-11.0191
-11.0229
-11.0261
-11.0286
-11.0303
-11.0312
-11.0312
-11.0303
-11.0286
-11.0261
-11.0229
-11.0191
-11.0149
-11.0103
-11.0056
-11.001
-10.9965
-10.9925
-10.9891
-10.9863
-10.9845
-10.9835
-11.3633
-11.3641
-11.3656
-11.3678
-11.3707
-11.374
-11.3776
-11.3814
-11.3853
-11.389
-11.3926
-11.3957
-11.3983
-11.4004
-11.4018
-11.4026
-11.4026
-11.4018
-11.4004
-11.3983
-11.3957
-11.3926
-11.389
-11.3853
-11.3814
-11.3776
-11.374
-11.3707
-11.3678
-11.3656
-11.3641
-11.3633
-11.7423
-11.743
-11.7442
-11.746
-11.7484
-11.7511
-11.754
-11.7572
-11.7604
-11.7635
-11.7664
-11.769
-11.7712
-11.7729
-11.774
-11.7746
-11.7746
-11.774
-11.7729
-11.7712
-11.769
-11.7664
-11.7635
-11.7604
-11.7572
-11.754
-11.7511
-11.7484
-11.746
-11.7442
-11.743
-11.7423
-12.1207
-12.1213
-12.1223
-12.1238
-12.1257
-12.1279
-12.1303
-12.1329
-12.1356
-12.1381
-12.1405
-12.1426
-12.1445
-12.1459
-12.1469
-12.1473
-12.1473
-12.1469
-12.1459
-12.1445
-12.1426
-12.1405
-12.1381
-12.1356
-12.1329
-12.1303
-12.1279
-12.1257
-12.1238
-12.1223
-12.1213
-12.1207
-12.4986
-12.4991
-12.4999
-12.5011
-12.5027
-12.5045
-12.5065
-12.5086
-12.5108
-12.5129
-12.5149
-12.5167
-12.5182
-12.5193
-12.5201
-12.5205
-12.5205
-12.5201
-12.5193
-12.5182
-12.5167
-12.5149
-12.5129
-12.5108
-12.5086
-12.5065
-12.5045
-12.5027
-12.5011
-12.4999
-12.4991
-12.4986
-12.8761
-12.8765
-12.8772
-12.8782
-12.8794
-12.8809
-12.8826
-12.8843
-12.8861
-12.8879
-12.8895
-12.8909
-12.8922
-12.8932
-12.8938
-12.8942
-12.8942
-12.8938
-12.8932
-12.8922
-12.8909
-12.8895
-12.8879
-12.8861
-12.8843
-12.8826
-12.8809
-12.8794
-12.8782
-12.8772
-12.8765
-12.8761
-13.2533
-13.2536
-13.2541
-13.2549
-13.256
-13.2572
-13.2586
-13.26
-13.2615
-13.2629
-13.2643
-13.2655
-13.2665
-13.2673
-13.2678
-13.2681
-13.2681
-13.2678
-13.2673
-13.2665
-13.2655
-13.2643
-13.2629
-13.2615
-13.26
-13.2586
-13.2572
-13.256
-13.2549
-13.2541
-13.2536
-13.2533
-13.6301
-13.6304
-13.6308
-13.6315
-13.6324
-13.6334
-13.6345
-13.6357
-13.6369
-13.6381
-13.6392
-13.6402
-13.641
-13.6417
-13.6421
-13.6423
-13.6423
-13.6421
-13.6417
-13.641
-13.6402
-13.6392
-13.6381
-13.6369
-13.6357
-13.6345
-13.6334
-13.6324
-13.6315
-13.6308
-13.6304
-13.6301
-14.0067
-14.0069
-14.0073
-14.0079
-14.0086
-14.0094
-14.0103
-14.0113
-14.0123
-14.0133
-14.0142
-14.015
-14.0157
-14.0162
-14.0166
-14.0168
-14.0168
-14.0166
-14.0162
-14.0157
-14.015
-14.0142
-14.0133
-14.0123
-14.0113
-14.0103
-14.0094
-14.0086
-14.0079
-14.0073
-14.0069
-14.0067
-14.3832
-14.3833
-14.3836
-14.3841
-14.3847
-14.3854
-14.3861
-14.3869
-14.3877
-14.3885
-14.3893
-14.39
-14.3905
-14.391
-14.3913
-14.3915
-14.3915
-14.3913
-14.391
-14.3905
-14.39
-14.3893
-14.3885
-14.3877
-14.3869
-14.3861
-14.3854
-14.3847
-14.3841
-14.3836
-14.3833
-14.3832
-14.7594
-14.7596
-14.7598
-14.7602
-14.7607
-14.7613
-14.7619
-14.7625
-14.7632
-14.7639
-14.7645
-14.765
-14.7655
-14.7659
-14.7661
-14.7663
-14.7663
-14.7661
-14.7659
-14.7655
-14.765
-14.7645
-14.7639
-14.7632
-14.7625
-14.7619
-14.7613
-14.7607
-14.7602
-14.7598
-14.7596
-14.7594
-15.1356
-15.1357
-15.1359
-15.1362
-15.1366
-15.1371
-15.1376
-15.1381
-15.1387
-15.1392
-15.1397
-15.1402
-15.1406
-15.1409
-15.1411
-15.1412
-15.1412
-15.1411
-15.1409
-15.1406
-15.1402
-15.1397
-15.1392
-15.1387
-15.1381
-15.1376
-15.1371
-15.1366
-15.1362
-15.1359
-15.1357
-15.1356
-15.5116
-15.5117
-15.5119
-15.5121
-15.5125
-15.5128
-15.5133
-15.5137
-15.5142
-15.5146
-15.515
-15.5154
-15.5157
-15.516
-15.5162
-15.5162
-15.5162
-15.5162
-15.516
-15.5157
-15.5154
-15.515
-15.5146
-15.5142
-15.5137
-15.5133
-15.5128
-15.5125
-15.5121
-15.5119
-15.5117
-15.5116
-15.8876
-15.8876
-15.8878
-15.888
-15.8883
-15.8886
-15.8889
-15.8893
-15.8897
-15.89
-15.8904
-15.8907
-15.891
-15.8912
-15.8913
-15.8914
-15.8914
-15.8913