/*--------------------------------*- C++ -*----------------------------------*\
  =========                 |
  \\      /  F ield         | OpenFOAM: The Open Source CFD Toolbox
   \\    /   O peration     | Website:  https://openfoam.org
    \\  /    A nd           | Version:  9
     \\/     M anipulation  |
\*---------------------------------------------------------------------------*/
FoamFile
{
    format      ascii;
    class       volScalarField;
    location    "0.35";
    object      p_rgh;
}
// * * * * * * * * * * * * * * * * * * * * * * * * * * * * * * * * * * * * * //

dimensions      [1 -1 -2 0 0 0 0];

internalField   nonuniform List<scalar> 
4096
(
-3.29766
-3.29766
-3.29766
-3.29766
-3.29766
-3.29766
-3.29766
-3.29766
-3.29766
-3.29766
-3.29765
-3.29765
-3.29765
-3.29765
-3.29765
-3.29765
-3.29765
-3.29765
-3.29765
-3.29765
-3.29765
-3.29765
-3.29766
-3.29766
-3.29766
-3.29766
-3.29766
-3.29766
-3.29766
-3.29766
-3.29766
-3.29766
-3.29766
-3.29766
-3.29766
-3.29766
-3.29766
-3.29766
-3.29766
-3.29766
-3.29766
-3.29766
-3.29765
-3.29765
-3.29765
-3.29765
-3.29765
-3.29765
-3.29765
-3.29765
-3.29765
-3.29765
-3.29765
-3.29765
-3.29766
-3.29766
-3.29766
-3.29766
-3.29766
-3.29766
-3.29766
-3.29766
-3.29766
-3.29766
-3.29766
-3.29766
-3.29766
-3.29766
-3.29766
-3.29766
-3.29766
-3.29766
-3.29766
-3.29765
-3.29765
-3.29765
-3.29765
-3.29765
-3.29765
-3.29765
-3.29765
-3.29765
-3.29765
-3.29765
-3.29765
-3.29765
-3.29765
-3.29766
-3.29766
-3.29766
-3.29766
-3.29766
-3.29766
-3.29766
-3.29766
-3.29766
-3.29766
-3.29766
-3.29766
-3.29766
-3.29766
-3.29766
-3.29766
-3.29766
-3.29766
-3.29765
-3.29765
-3.29765
-3.29765
-3.29765
-3.29765
-3.29765
-3.29765
-3.29765
-3.29765
-3.29765
-3.29765
-3.29765
-3.29765
-3.29766
-3.29766
-3.29766
-3.29766
-3.29766
-3.29766
-3.29766
-3.29766
-3.29766
-3.29766
-3.29766
-3.29766
-3.29766
-3.29766
-3.29766
-3.29766
-3.29766
-3.29766
-3.29765
-3.29765
-3.29765
-3.29765
-3.29765
-3.29765
-3.29765
-3.29765
-3.29765
-3.29765
-3.29765
-3.29765
-3.29765
-3.29765
-3.29766
-3.29766
-3.29766
-3.29766
-3.29766
-3.29766
-3.29766
-3.29766
-3.29766
-3.29767
-3.29767
-3.29766
-3.29766
-3.29766
-3.29766
-3.29766
-3.29766
-3.29766
-3.29765
-3.29765
-3.29765
-3.29765
-3.29765
-3.29765
-3.29765
-3.29765
-3.29765
-3.29765
-3.29765
-3.29765
-3.29765
-3.29765
-3.29766
-3.29766
-3.29766
-3.29766
-3.29766
-3.29766
-3.29766
-3.29767
-3.29767
-3.29767
-3.29767
-3.29767
-3.29766
-3.29766
-3.29766
-3.29766
-3.29766
-3.29766
-3.29765
-3.29765
-3.29765
-3.29765
-3.29765
-3.29765
-3.29765
-3.29765
-3.29765
-3.29765
-3.29765
-3.29765
-3.29765
-3.29765
-3.29766
-3.29766
-3.29766
-3.29766
-3.29766
-3.29766
-3.29767
-3.29767
-3.29767
-3.29767
-3.29767
-3.29767
-3.29767
-3.29766
-3.29766
-3.29766
-3.29766
-3.29766
-3.29765
-3.29765
-3.29765
-3.29765
-3.29765
-3.29764
-3.29764
-3.29764
-3.29764
-3.29765
-3.29765
-3.29765
-3.29765
-3.29765
-3.29766
-3.29766
-3.29766
-3.29766
-3.29766
-3.29767
-3.29767
-3.29767
-3.29767
-3.29767
-3.29767
-3.29767
-3.29767
-3.29767
-3.29766
-3.29766
-3.29766
-3.29766
-3.29765
-3.29765
-3.29765
-3.29765
-3.29764
-3.29764
-3.29764
-3.29764
-3.29764
-3.29764
-3.29765
-3.29765
-3.29765
-3.29765
-3.29766
-3.29766
-3.29766
-3.29766
-3.29767
-3.29767
-3.29767
-3.29767
-3.29767
-3.29767
-3.29767
-3.29767
-3.29767
-3.29767
-3.29767
-3.29766
-3.29766
-3.29766
-3.29765
-3.29765
-3.29765
-3.29764
-3.29764
-3.29764
-3.29764
-3.29764
-3.29764
-3.29764
-3.29764
-3.29765
-3.29765
-3.29765
-3.29766
-3.29766
-3.29766
-3.29767
-3.29767
-3.29767
-3.29767
-3.29767
-3.29767
-3.29768
-3.29768
-3.29768
-3.29767
-3.29767
-3.29767
-3.29766
-3.29766
-3.29765
-3.29765
-3.29765
-3.29764
-3.29764
-3.29764
-3.29764
-3.29764
-3.29764
-3.29764
-3.29764
-3.29764
-3.29764
-3.29765
-3.29765
-3.29765
-3.29766
-3.29766
-3.29767
-3.29767
-3.29767
-3.29768
-3.29768
-3.29768
-3.29768
-3.29768
-3.29768
-3.29768
-3.29767
-3.29767
-3.29766
-3.29766
-3.29765
-3.29765
-3.29764
-3.29764
-3.29764
-3.29763
-3.29763
-3.29763
-3.29763
-3.29763
-3.29763
-3.29764
-3.29764
-3.29764
-3.29765
-3.29765
-3.29766
-3.29766
-3.29767
-3.29767
-3.29768
-3.29768
-3.29768
-3.29768
-3.29769
-3.29769
-3.29768
-3.29768
-3.29768
-3.29767
-3.29767
-3.29766
-3.29765
-3.29765
-3.29764
-3.29764
-3.29763
-3.29763
-3.29763
-3.29763
-3.29763
-3.29763
-3.29763
-3.29763
-3.29764
-3.29764
-3.29765
-3.29765
-3.29766
-3.29767
-3.29767
-3.29768
-3.29768
-3.29768
-3.29769
-3.29769
-3.29769
-3.29769
-3.29769
-3.29769
-3.29768
-3.29767
-3.29767
-3.29766
-3.29765
-3.29765
-3.29764
-3.29763
-3.29763
-3.29762
-3.29762
-3.29762
-3.29762
-3.29762
-3.29762
-3.29763
-3.29763
-3.29764
-3.29765
-3.29765
-3.29766
-3.29767
-3.29767
-3.29768
-3.29769
-3.29769
-3.29769
-3.29769
-3.2977
-3.2977
-3.2977
-3.29769
-3.29769
-3.29768
-3.29767
-3.29766
-3.29765
-3.29764
-3.29763
-3.29763
-3.29762
-3.29762
-3.29761
-3.29761
-3.29761
-3.29761
-3.29762
-3.29762
-3.29763
-3.29763
-3.29764
-3.29765
-3.29766
-3.29767
-3.29768
-3.29769
-3.29769
-3.2977
-3.2977
-3.2977
-3.29771
-3.29771
-3.29771
-3.2977
-3.29769
-3.29768
-3.29767
-3.29766
-3.29765
-3.29764
-3.29763
-3.29762
-3.29761
-3.29761
-3.2976
-3.2976
-3.2976
-3.2976
-3.29761
-3.29761
-3.29762
-3.29763
-3.29764
-3.29765
-3.29766
-3.29767
-3.29768
-3.29769
-3.2977
-3.29771
-3.29771
-3.29771
-3.29772
-3.29772
-3.29772
-3.29771
-3.2977
-3.29769
-3.29768
-3.29766
-3.29765
-3.29764
-3.29762
-3.29761
-3.2976
-3.2976
-3.29759
-3.29759
-3.29759
-3.29759
-3.2976
-3.2976
-3.29761
-3.29762
-3.29764
-3.29765
-3.29766
-3.29768
-3.29769
-3.2977
-3.29771
-3.29772
-3.29772
-3.29772
-3.29774
-3.29774
-3.29773
-3.29772
-3.29771
-3.2977
-3.29768
-3.29767
-3.29765
-3.29763
-3.29762
-3.2976
-3.29759
-3.29758
-3.29758
-3.29757
-3.29757
-3.29758
-3.29758
-3.29759
-3.2976
-3.29762
-3.29763
-3.29765
-3.29767
-3.29768
-3.2977
-3.29771
-3.29772
-3.29773
-3.29774
-3.29774
-3.29776
-3.29775
-3.29775
-3.29774
-3.29772
-3.2977
-3.29769
-3.29767
-3.29765
-3.29763
-3.29761
-3.29759
-3.29758
-3.29757
-3.29756
-3.29756
-3.29756
-3.29756
-3.29757
-3.29758
-3.29759
-3.29761
-3.29763
-3.29765
-3.29767
-3.29769
-3.2977
-3.29772
-3.29773
-3.29775
-3.29775
-3.29776
-3.29778
-3.29777
-3.29776
-3.29775
-3.29774
-3.29772
-3.29769
-3.29767
-3.29765
-3.29762
-3.2976
-3.29758
-3.29756
-3.29755
-3.29754
-3.29753
-3.29753
-3.29754
-3.29755
-3.29756
-3.29758
-3.2976
-3.29762
-3.29765
-3.29767
-3.29769
-3.29772
-3.29773
-3.29775
-3.29776
-3.29777
-3.29778
-3.2978
-3.2978
-3.29779
-3.29777
-3.29775
-3.29773
-3.2977
-3.29767
-3.29764
-3.29761
-3.29759
-3.29756
-3.29754
-3.29753
-3.29751
-3.29751
-3.29751
-3.29751
-3.29753
-3.29754
-3.29756
-3.29759
-3.29761
-3.29764
-3.29767
-3.2977
-3.29773
-3.29775
-3.29777
-3.29779
-3.2978
-3.2978
-3.29784
-3.29783
-3.29782
-3.2978
-3.29777
-3.29774
-3.29771
-3.29768
-3.29764
-3.2976
-3.29757
-3.29754
-3.29752
-3.2975
-3.29748
-3.29748
-3.29748
-3.29748
-3.2975
-3.29752
-3.29754
-3.29757
-3.2976
-3.29764
-3.29768
-3.29771
-3.29774
-3.29777
-3.2978
-3.29782
-3.29783
-3.29784
-3.29787
-3.29787
-3.29785
-3.29783
-3.2978
-3.29776
-3.29772
-3.29768
-3.29764
-3.29759
-3.29755
-3.29752
-3.29749
-3.29746
-3.29745
-3.29744
-3.29744
-3.29745
-3.29746
-3.29749
-3.29752
-3.29755
-3.29759
-3.29764
-3.29768
-3.29772
-3.29776
-3.2978
-3.29783
-3.29785
-3.29787
-3.29787
-3.29792
-3.29791
-3.29789
-3.29786
-3.29783
-3.29778
-3.29774
-3.29768
-3.29763
-3.29758
-3.29753
-3.29749
-3.29745
-3.29742
-3.2974
-3.29739
-3.29739
-3.2974
-3.29742
-3.29745
-3.29749
-3.29753
-3.29758
-3.29763
-3.29768
-3.29774
-3.29778
-3.29783
-3.29786
-3.29789
-3.29791
-3.29792
-3.29798
-3.29797
-3.29794
-3.29791
-3.29786
-3.29781
-3.29775
-3.29769
-3.29763
-3.29756
-3.2975
-3.29745
-3.29741
-3.29737
-3.29735
-3.29733
-3.29733
-3.29735
-3.29737
-3.29741
-3.29745
-3.2975
-3.29756
-3.29763
-3.29769
-3.29775
-3.29781
-3.29786
-3.29791
-3.29794
-3.29797
-3.29798
-3.29805
-3.29803
-3.29801
-3.29796
-3.29791
-3.29785
-3.29777
-3.2977
-3.29762
-3.29754
-3.29747
-3.29741
-3.29735
-3.29731
-3.29728
-3.29726
-3.29726
-3.29728
-3.29731
-3.29735
-3.29741
-3.29747
-3.29754
-3.29762
-3.2977
-3.29777
-3.29785
-3.29791
-3.29796
-3.29801
-3.29803
-3.29805
-3.29813
-3.29812
-3.29808
-3.29803
-3.29796
-3.29789
-3.2978
-3.29771
-3.29761
-3.29752
-3.29743
-3.29735
-3.29729
-3.29723
-3.2972
-3.29718
-3.29718
-3.2972
-3.29723
-3.29729
-3.29735
-3.29743
-3.29752
-3.29761
-3.29771
-3.2978
-3.29789
-3.29796
-3.29803
-3.29808
-3.29812
-3.29813
-3.29824
-3.29821
-3.29817
-3.29811
-3.29803
-3.29794
-3.29783
-3.29772
-3.2976
-3.29749
-3.29739
-3.29729
-3.29721
-3.29714
-3.2971
-3.29708
-3.29708
-3.2971
-3.29714
-3.29721
-3.29729
-3.29739
-3.29749
-3.2976
-3.29772
-3.29783
-3.29794
-3.29803
-3.29811
-3.29817
-3.29821
-3.29824
-3.29836
-3.29833
-3.29828
-3.29821
-3.29811
-3.298
-3.29787
-3.29773
-3.29759
-3.29746
-3.29733
-3.29721
-3.29711
-3.29703
-3.29698
-3.29695
-3.29695
-3.29698
-3.29703
-3.29711
-3.29721
-3.29733
-3.29746
-3.29759
-3.29773
-3.29787
-3.298
-3.29811
-3.29821
-3.29828
-3.29833
-3.29836
-3.29851
-3.29848
-3.29842
-3.29833
-3.29821
-3.29807
-3.29792
-3.29775
-3.29758
-3.29741
-3.29726
-3.29711
-3.29699
-3.2969
-3.29683
-3.2968
-3.2968
-3.29683
-3.2969
-3.29699
-3.29711
-3.29726
-3.29741
-3.29758
-3.29775
-3.29792
-3.29807
-3.29821
-3.29833
-3.29842
-3.29848
-3.29851
-3.2987
-3.29866
-3.29858
-3.29847
-3.29833
-3.29816
-3.29797
-3.29777
-3.29757
-3.29736
-3.29717
-3.297
-3.29685
-3.29673
-3.29665
-3.29661
-3.29661
-3.29665
-3.29673
-3.29685
-3.297
-3.29717
-3.29736
-3.29757
-3.29777
-3.29797
-3.29816
-3.29833
-3.29847
-3.29858
-3.29866
-3.29869
-3.29892
-3.29887
-3.29878
-3.29865
-3.29848
-3.29827
-3.29804
-3.2978
-3.29755
-3.2973
-3.29707
-3.29686
-3.29668
-3.29653
-3.29644
-3.29639
-3.29639
-3.29644
-3.29653
-3.29668
-3.29686
-3.29707
-3.2973
-3.29755
-3.2978
-3.29804
-3.29827
-3.29848
-3.29865
-3.29878
-3.29887
-3.29892
-3.29919
-3.29913
-3.29902
-3.29886
-3.29865
-3.29841
-3.29813
-3.29783
-3.29753
-3.29723
-3.29694
-3.29669
-3.29647
-3.29629
-3.29617
-3.29611
-3.29611
-3.29617
-3.29629
-3.29647
-3.29669
-3.29694
-3.29723
-3.29753
-3.29783
-3.29813
-3.29841
-3.29865
-3.29886
-3.29902
-3.29913
-3.29919
-3.29952
-3.29945
-3.29932
-3.29912
-3.29887
-3.29857
-3.29823
-3.29787
-3.2975
-3.29714
-3.29679
-3.29648
-3.29621
-3.296
-3.29585
-3.29578
-3.29578
-3.29585
-3.296
-3.29621
-3.29648
-3.29679
-3.29714
-3.2975
-3.29787
-3.29823
-3.29857
-3.29887
-3.29912
-3.29932
-3.29945
-3.29952
-3.29992
-3.29984
-3.29968
-3.29944
-3.29913
-3.29877
-3.29836
-3.29793
-3.29748
-3.29703
-3.29661
-3.29623
-3.2959
-3.29564
-3.29546
-3.29537
-3.29537
-3.29546
-3.29564
-3.2959
-3.29623
-3.29661
-3.29703
-3.29748
-3.29793
-3.29836
-3.29877
-3.29913
-3.29944
-3.29968
-3.29984
-3.29992
-3.3004
-3.3003
-3.30011
-3.29982
-3.29945
-3.29901
-3.29852
-3.29799
-3.29745
-3.2969
-3.29639
-3.29592
-3.29552
-3.29521
-3.29499
-3.29488
-3.29488
-3.29499
-3.29521
-3.29552
-3.29592
-3.29639
-3.2969
-3.29745
-3.29799
-3.29852
-3.29901
-3.29945
-3.29982
-3.30011
-3.3003
-3.3004
-3.30099
-3.30087
-3.30064
-3.30029
-3.29985
-3.29931
-3.29872
-3.29807
-3.29741
-3.29675
-3.29613
-3.29556
-3.29507
-3.29468
-3.29441
-3.29427
-3.29427
-3.29441
-3.29468
-3.29507
-3.29556
-3.29613
-3.29675
-3.29741
-3.29807
-3.29872
-3.29931
-3.29985
-3.30029
-3.30064
-3.30087
-3.30099
-3.3017
-3.30156
-3.30128
-3.30086
-3.30032
-3.29968
-3.29896
-3.29818
-3.29737
-3.29657
-3.29581
-3.29511
-3.29451
-3.29404
-3.29371
-3.29354
-3.29354
-3.29371
-3.29404
-3.29451
-3.29511
-3.29581
-3.29657
-3.29737
-3.29818
-3.29896
-3.29968
-3.30032
-3.30086
-3.30128
-3.30156
-3.3017
-3.30256
-3.30239
-3.30206
-3.30155
-3.3009
-3.30013
-3.29926
-3.29831
-3.29733
-3.29636
-3.29543
-3.29457
-3.29384
-3.29326
-3.29285
-3.29264
-3.29264
-3.29285
-3.29326
-3.29384
-3.29457
-3.29543
-3.29636
-3.29733
-3.29831
-3.29926
-3.30013
-3.3009
-3.30155
-3.30206
-3.30239
-3.30256
-3.3036
-3.3034
-3.303
-3.3024
-3.30162
-3.30068
-3.29963
-3.29849
-3.2973
-3.29611
-3.29497
-3.29393
-3.29302
-3.29231
-3.29181
-3.29155
-3.29155
-3.29181
-3.29231
-3.29302
-3.29393
-3.29497
-3.29611
-3.2973
-3.29849
-3.29963
-3.30068
-3.30162
-3.3024
-3.303
-3.3034
-3.3036
-3.30487
-3.30463
-3.30414
-3.30342
-3.30249
-3.30136
-3.30009
-3.29871
-3.29727
-3.29582
-3.29443
-3.29315
-3.29204
-3.29115
-3.29053
-3.29021
-3.29021
-3.29053
-3.29115
-3.29204
-3.29315
-3.29443
-3.29582
-3.29727
-3.29871
-3.30009
-3.30136
-3.30249
-3.30342
-3.30414
-3.30462
-3.30487
-3.30639
-3.3061
-3.30553
-3.30467
-3.30355
-3.3022
-3.30067
-3.29901
-3.29726
-3.2955
-3.29379
-3.29222
-3.29084
-3.28975
-3.28898
-3.28858
-3.28858
-3.28898
-3.28975
-3.29084
-3.29222
-3.29379
-3.2955
-3.29726
-3.29901
-3.30067
-3.3022
-3.30355
-3.30467
-3.30553
-3.3061
-3.30639
-3.30823
-3.30789
-3.30721
-3.30619
-3.30485
-3.30324
-3.30141
-3.29939
-3.29728
-3.29513
-3.29304
-3.2911
-3.2894
-3.28804
-3.28708
-3.28658
-3.28658
-3.28708
-3.28804
-3.2894
-3.2911
-3.29304
-3.29513
-3.29728
-3.29939
-3.30141
-3.30324
-3.30485
-3.30619
-3.30721
-3.30789
-3.30823
-3.31045
-3.31005
-3.30925
-3.30803
-3.30645
-3.30453
-3.30233
-3.29991
-3.29735
-3.29474
-3.29217
-3.28978
-3.28767
-3.28596
-3.28476
-3.28414
-3.28414
-3.28476
-3.28596
-3.28767
-3.28978
-3.29217
-3.29474
-3.29735
-3.29991
-3.30233
-3.30453
-3.30645
-3.30803
-3.30924
-3.31005
-3.31045
-3.31313
-3.31266
-3.31171
-3.31028
-3.30841
-3.30613
-3.30351
-3.3006
-3.29751
-3.29433
-3.29118
-3.28822
-3.28559
-3.28344
-3.28192
-3.28113
-3.28113
-3.28192
-3.28344
-3.28559
-3.28822
-3.29118
-3.29432
-3.29751
-3.3006
-3.30351
-3.30613
-3.30841
-3.31028
-3.31171
-3.31266
-3.31313
-3.31635
-3.3158
-3.31469
-3.31302
-3.31082
-3.30813
-3.30501
-3.30154
-3.29781
-3.29393
-3.29007
-3.28639
-3.2831
-3.28038
-3.27845
-3.27744
-3.27744
-3.27845
-3.28038
-3.2831
-3.28639
-3.29007
-3.29393
-3.2978
-3.30154
-3.30501
-3.30813
-3.31082
-3.31302
-3.31469
-3.3158
-3.31634
-3.3202
-3.31957
-3.31828
-3.31634
-3.31378
-3.31062
-3.30694
-3.3028
-3.29832
-3.29361
-3.28887
-3.28429
-3.28014
-3.27668
-3.27419
-3.27288
-3.27288
-3.27419
-3.27668
-3.28014
-3.28429
-3.28887
-3.29361
-3.29832
-3.3028
-3.30694
-3.31062
-3.31378
-3.31634
-3.31828
-3.31957
-3.3202
-3.32482
-3.3241
-3.32262
-3.32039
-3.31742
-3.31375
-3.30943
-3.30453
-3.29916
-3.29346
-3.28763
-3.28192
-3.27667
-3.27222
-3.26897
-3.26725
-3.26725
-3.26897
-3.27222
-3.27667
-3.28192
-3.28763
-3.29346
-3.29916
-3.30453
-3.30943
-3.31375
-3.31742
-3.32038
-3.32262
-3.3241
-3.32482
-3.33034
-3.32951
-3.32784
-3.32529
-3.32189
-3.31766
-3.31264
-3.30688
-3.3005
-3.29362
-3.28646
-3.27934
-3.27264
-3.26687
-3.26257
-3.26027
-3.26027
-3.26257
-3.26687
-3.27264
-3.27934
-3.28646
-3.29362
-3.3005
-3.30688
-3.31264
-3.31766
-3.32189
-3.32529
-3.32784
-3.32951
-3.33034
-3.3369
-3.33598
-3.3341
-3.33124
-3.32739
-3.32257
-3.3168
-3.3101
-3.30257
-3.29432
-3.28557
-3.27667
-3.26809
-3.26051
-3.25474
-3.2516
-3.2516
-3.25474
-3.26051
-3.26809
-3.27667
-3.28557
-3.29432
-3.30257
-3.3101
-3.3168
-3.32257
-3.32739
-3.33124
-3.3341
-3.33598
-3.3369
-3.34468
-3.34367
-3.3416
-3.33842
-3.33414
-3.32873
-3.32218
-3.3145
-3.30572
-3.29592
-3.2853
-3.27418
-3.26316
-3.25309
-3.24518
-3.2408
-3.2408
-3.24518
-3.25309
-3.26316
-3.27418
-3.28529
-3.29592
-3.30572
-3.3145
-3.32218
-3.32873
-3.33414
-3.33842
-3.3416
-3.34367
-3.34468
-3.35386
-3.35277
-3.35053
-3.34708
-3.34239
-3.33643
-3.32914
-3.32048
-3.31041
-3.29895
-3.28618
-3.27241
-3.25822
-3.24471
-3.23364
-3.22734
-3.22734
-3.23364
-3.24471
-3.25822
-3.27241
-3.28618
-3.29895
-3.31041
-3.32048
-3.32914
-3.33643
-3.34239
-3.34708
-3.35053
-3.35277
-3.35386
-3.36465
-3.3635
-3.36112
-3.35746
-3.35245
-3.34603
-3.3381
-3.32854
-3.31726
-3.30417
-3.28908
-3.27224
-3.25408
-3.23578
-3.21989
-3.21055
-3.21056
-3.21989
-3.23578
-3.25408
-3.27224
-3.28908
-3.30417
-3.31726
-3.32854
-3.3381
-3.34603
-3.35245
-3.35746
-3.36112
-3.3635
-3.36465
-3.37724
-3.37606
-3.37362
-3.36983
-3.36463
-3.3579
-3.34952
-3.33929
-3.327
-3.31236
-3.29522
-3.27517
-3.25225
-3.22734
-3.204
-3.18968
-3.18968
-3.204
-3.22734
-3.25225
-3.27517
-3.29522
-3.31236
-3.327
-3.33929
-3.34952
-3.3579
-3.36463
-3.36983
-3.37362
-3.37606
-3.37724
-3.39185
-3.39068
-3.38825
-3.38447
-3.37924
-3.37245
-3.3639
-3.35338
-3.34059
-3.32512
-3.30643
-3.28365
-3.25576
-3.2225
-3.1885
-3.16621
-3.16621
-3.1885
-3.22249
-3.25576
-3.28365
-3.30643
-3.32512
-3.34059
-3.35338
-3.3639
-3.37245
-3.37924
-3.38447
-3.38825
-3.39068
-3.39185
-3.40867
-3.40757
-3.40525
-3.40163
-3.3966
-3.39001
-3.38168
-3.37136
-3.35876
-3.34345
-3.32468
-3.30104
-3.26985
-3.22941
-3.18163
-3.19638
-3.19638
-3.18164
-3.2294
-3.26985
-3.30104
-3.32468
-3.34345
-3.35876
-3.37136
-3.38168
-3.39001
-3.3966
-3.40163
-3.40525
-3.40756
-3.40867
-3.42789
-3.42691
-3.42483
-3.42154
-3.41694
-3.41086
-3.40312
-3.39349
-3.3818
-3.36777
-3.35066
-3.32852
-3.29686
-3.29042
-4.06737
-4.60957
-4.60957
-4.06735
-3.29041
-3.29686
-3.32852
-3.35066
-3.36777
-3.38179
-3.39349
-3.40311
-3.41086
-3.41694
-3.42154
-3.42482
-3.4269
-3.42789
-3.44966
-3.44886
-3.44714
-3.44438
-3.44042
-3.43509
-3.42819
-3.41953
-3.40909
-3.39707
-3.38288
-3.3635
-3.33176
-3.89188
-5.24652
-5.2858
-5.2858
-5.24651
-3.89183
-3.33176
-3.3635
-3.38288
-3.39707
-3.40909
-3.41953
-3.42819
-3.43509
-3.44041
-3.44437
-3.44714
-3.44886
-3.44966
-3.4741
-3.47355
-3.47233
-3.47025
-3.46711
-3.46265
-3.45659
-3.44867
-3.43907
-3.42868
-3.41765
-3.4027
-3.57815
-4.83314
-5.08979
-5.05469
-5.05469
-5.08979
-4.8331
-3.57812
-3.4027
-3.41765
-3.42868
-3.43907
-3.44866
-3.45659
-3.46265
-3.46711
-3.47025
-3.47233
-3.47355
-3.47409
-3.50125
-3.50105
-3.50047
-3.49926
-3.49705
-3.49342
-3.48785
-3.4797
-3.46896
-3.45783
-3.44706
-3.45364
-4.40816
-4.89034
-4.84005
-4.81221
-4.81221
-4.84005
-4.89033
-4.40812
-3.45364
-3.44706
-3.45782
-3.46895
-3.4797
-3.48785
-3.49342
-3.49705
-3.49926
-3.50047
-3.50105
-3.50125
-3.5311
-3.53135
-3.53161
-3.53148
-3.53031
-3.52739
-3.52177
-3.51155
-3.4963
-3.48132
-3.46857
-3.88238
-4.61512
-4.6163
-4.57841
-4.56013
-4.56013
-4.57841
-4.6163
-4.61512
-3.88236
-3.46856
-3.48131
-3.4963
-3.51155
-3.52177
-3.52739
-3.53031
-3.53148
-3.53161
-3.53135
-3.5311
-3.56351
-3.56433
-3.56568
-3.56692
-3.56698
-3.56472
-3.55841
-3.54454
-3.52024
-3.50202
-3.76038
-4.29105
-4.36318
-4.33895
-4.31604
-4.30479
-4.30479
-4.31604
-4.33895
-4.36318
-4.29105
-3.76038
-3.50201
-3.52024
-3.54454
-3.5584
-3.56471
-3.56698
-3.56692
-3.56568
-3.56433
-3.5635
-3.59804
-3.5996
-3.60238
-3.60545
-3.60703
-3.60512
-3.59778
-3.58082
-3.59816
-3.77084
-4.04538
-4.09745
-4.09366
-4.08026
-4.06739
-4.06045
-4.06045
-4.06739
-4.08026
-4.09366
-4.09745
-4.04538
-3.77084
-3.59816
-3.58081
-3.59778
-3.60512
-3.60702
-3.60545
-3.60238
-3.5996
-3.59804
-3.63385
-3.63636
-3.6411
-3.64654
-3.64934
-3.64671
-3.63703
-3.62939
-3.7294
-3.80442
-3.83248
-3.84627
-3.84837
-3.84392
-3.83824
-3.8352
-3.8352
-3.83824
-3.84392
-3.84837
-3.84627
-3.83248
-3.80442
-3.7294
-3.62939
-3.63702
-3.64671
-3.64934
-3.64654
-3.6411
-3.63636
-3.63385
-3.66964
-3.67344
-3.68077
-3.6889
-3.6925
-3.68621
-3.66456
-3.57914
-3.56373
-3.58694
-3.60535
-3.62033
-3.62699
-3.62844
-3.62856
-3.62845
-3.62845
-3.62856
-3.62844
-3.62698
-3.62033
-3.60535
-3.58694
-3.56373
-3.57914
-3.66455
-3.6862
-3.6925
-3.6889
-3.68077
-3.67344
-3.66964
-3.70335
-3.70905
-3.71947
-3.73077
-3.73531
-3.70732
-3.47526
-3.32086
-3.35504
-3.37584
-3.39753
-3.415
-3.42641
-3.43368
-3.43808
-3.44011
-3.44011
-3.43808
-3.43368
-3.42641
-3.41499
-3.39753
-3.37584
-3.35504
-3.32085
-3.47525
-3.70731
-3.73531
-3.73077
-3.71946
-3.70905
-3.70335
-3.73325
-3.74061
-3.75425
-3.7684
-3.76364
-3.31262
-3.04368
-3.10825
-3.14448
-3.17588
-3.20478
-3.22829
-3.24585
-3.25817
-3.26598
-3.26974
-3.26974
-3.26598
-3.25817
-3.24585
-3.22829
-3.20478
-3.17588
-3.14448
-3.10825
-3.04368
-3.3126
-3.76364
-3.7684
-3.75424
-3.74061
-3.73325
-3.75679
-3.76523
-3.78172
-3.80032
-3.53226
-2.83213
-2.83911
-2.90227
-2.95148
-2.99481
-3.03182
-3.06171
-3.08462
-3.10107
-3.11166
-3.11683
-3.11683
-3.11166
-3.10107
-3.08462
-3.06171
-3.03182
-2.99481
-2.95148
-2.90227
-2.83911
-2.83212
-3.53224
-3.80032
-3.78172
-3.76523
-3.75679
-3.77203
-3.7809
-3.79919
-3.79748
-2.9127
-2.56257
-2.65017
-2.72113
-2.78309
-2.83602
-2.87986
-2.91508
-2.94219
-2.96181
-2.97454
-2.98078
-2.98078
-2.97454
-2.96181
-2.94219
-2.91508
-2.87986
-2.83602
-2.78309
-2.72113
-2.65017
-2.56258
-2.91268
-3.79747
-3.79919
-3.7809
-3.77203
-3.78044
-3.78786
-3.81019
-3.05338
-2.2953
-2.39115
-2.48698
-2.56972
-2.64102
-2.70045
-2.74908
-2.78796
-2.81792
-2.83969
-2.85386
-2.86083
-2.86083
-2.85386
-2.83969
-2.81792
-2.78796
-2.74908
-2.70045
-2.64102
-2.56972
-2.48698
-2.39115
-2.29529
-3.05334
-3.81019
-3.78786
-3.78044
-3.20366
-3.15197
-2.67647
-2.0643
-2.13904
-2.26
-2.36319
-2.45171
-2.52635
-2.58831
-2.63899
-2.67956
-2.71091
-2.73376
-2.74868
-2.75603
-2.75603
-2.74868
-2.73376
-2.71091
-2.67956
-2.63899
-2.58831
-2.52636
-2.45172
-2.36319
-2.26
-2.13904
-2.06429
-2.67645
-3.15196
-3.20366
-1.78427
-1.80149
-1.828
-1.9431
-2.06691
-2.18009
-2.27898
-2.36446
-2.43711
-2.49796
-2.54811
-2.58848
-2.61984
-2.64281
-2.65786
-2.66529
-2.66529
-2.65786
-2.64281
-2.61984
-2.58848
-2.54811
-2.49796
-2.43711
-2.36446
-2.27899
-2.18009
-2.06691
-1.9431
-1.828
-1.80149
-1.78427
-1.75924
-1.79052
-1.85197
-1.94257
-2.04223
-2.13785
-2.22483
-2.30234
-2.36952
-2.42664
-2.47424
-2.51291
-2.54316
-2.56544
-2.58008
-2.58733
-2.58733
-2.58008
-2.56544
-2.54316
-2.51291
-2.47424
-2.42664
-2.36952
-2.30234
-2.22483
-2.13785
-2.04223
-1.94257
-1.85197
-1.79052
-1.75924
-1.82153
-1.84611
-1.89448
-1.96285
-2.04007
-2.11809
-2.19218
-2.2595
-2.31933
-2.37113
-2.41489
-2.45081
-2.47913
-2.50012
-2.51397
-2.52085
-2.52085
-2.51397
-2.50012
-2.47914
-2.45081
-2.4149
-2.37113
-2.31933
-2.2595
-2.19218
-2.11809
-2.04007
-1.96285
-1.89448
-1.84611
-1.82153
-1.8802
-1.89934
-1.93657
-1.98843
-2.04864
-2.11153
-2.17303
-2.23045
-2.2825
-2.32833
-2.36758
-2.40014
-2.42603
-2.44533
-2.45814
-2.46451
-2.46451
-2.45814
-2.44533
-2.42603
-2.40014
-2.36758
-2.32833
-2.2825
-2.23045
-2.17303
-2.11153
-2.04864
-1.98844
-1.93657
-1.89934
-1.8802
-1.93172
-1.94649
-1.97503
-2.01489
-2.06202
-2.11243
-2.16292
-2.21115
-2.25567
-2.29549
-2.33004
-2.35899
-2.38221
-2.39962
-2.41122
-2.41701
-2.41701
-2.41122
-2.39962
-2.38221
-2.35899
-2.33004
-2.29549
-2.25567
-2.21115
-2.16292
-2.11243
-2.06202
-2.01489
-1.97503
-1.94649
-1.93172
-1.97546
-1.98688
-2.00892
-2.03982
-2.07685
-2.11722
-2.15845
-2.19858
-2.23621
-2.27035
-2.30032
-2.32568
-2.34617
-2.36162
-2.37196
-2.37714
-2.37714
-2.37196
-2.36162
-2.34617
-2.32568
-2.30032
-2.27035
-2.23621
-2.19858
-2.15845
-2.11722
-2.07686
-2.03982
-2.00892
-1.98688
-1.97546
-2.012
-2.02088
-2.03801
-2.06215
-2.09142
-2.12378
-2.15736
-2.19055
-2.22211
-2.25109
-2.27679
-2.29874
-2.3166
-2.33014
-2.33923
-2.34379
-2.34379
-2.33923
-2.33014
-2.3166
-2.29874
-2.2768
-2.25109
-2.22211
-2.19055
-2.15736
-2.12378
-2.09142
-2.06216
-2.03801
-2.02088
-2.012
-2.04226
-2.04921
-2.06263
-2.08163
-2.10488
-2.13088
-2.1582
-2.18555
-2.21187
-2.2363
-2.25816
-2.27697
-2.29237
-2.30411
-2.31201
-2.31599
-2.31599
-2.31201
-2.30411
-2.29237
-2.27697
-2.25816
-2.2363
-2.21187
-2.18555
-2.15821
-2.13088
-2.10488
-2.08163
-2.06263
-2.04921
-2.04227
-2.06722
-2.07269
-2.08327
-2.09833
-2.11688
-2.13784
-2.16008
-2.18259
-2.20443
-2.2249
-2.24336
-2.25936
-2.27253
-2.28262
-2.28943
-2.29286
-2.29286
-2.28943
-2.28262
-2.27253
-2.25936
-2.24337
-2.2249
-2.20443
-2.18259
-2.16008
-2.13784
-2.11688
-2.09833
-2.08327
-2.07269
-2.06722
-2.08774
-2.09208
-2.10048
-2.11248
-2.12736
-2.14428
-2.1624
-2.18089
-2.19899
-2.21607
-2.23159
-2.24511
-2.2563
-2.2649
-2.27072
-2.27366
-2.27366
-2.27072
-2.2649
-2.2563
-2.24511
-2.23159
-2.21607
-2.19899
-2.18089
-2.1624
-2.14428
-2.12736
-2.11248
-2.10048
-2.09208
-2.08775
-2.10461
-2.10806
-2.11477
-2.12438
-2.13636
-2.15007
-2.16484
-2.18002
-2.19498
-2.20919
-2.22218
-2.23356
-2.24301
-2.25029
-2.25524
-2.25775
-2.25775
-2.25524
-2.25029
-2.24301
-2.23356
-2.22218
-2.20919
-2.19498
-2.18002
-2.16484
-2.15007
-2.13636
-2.12438
-2.11477
-2.10806
-2.10461
-2.11846
-2.12122
-2.1266
-2.13434
-2.14401
-2.15514
-2.1672
-2.17966
-2.19202
-2.20381
-2.21465
-2.22418
-2.23212
-2.23827
-2.24245
-2.24457
-2.24457
-2.24245
-2.23827
-2.23212
-2.22418
-2.21465
-2.20381
-2.19202
-2.17966
-2.1672
-2.15514
-2.14401
-2.13434
-2.12661
-2.12122
-2.11846
-2.12983
-2.13205
-2.13639
-2.14264
-2.15047
-2.15952
-2.16938
-2.17961
-2.1898
-2.19957
-2.20859
-2.21655
-2.22321
-2.22837
-2.23189
-2.23367
-2.23367
-2.23189
-2.22837
-2.22321
-2.21655
-2.20859
-2.19957
-2.1898
-2.17961
-2.16938
-2.15953
-2.15047
-2.14264
-2.13639
-2.13205
-2.12983
-2.13917
-2.14097
-2.14447
-2.14953
-2.1559
-2.16327
-2.17133
-2.17973
-2.18813
-2.19622
-2.20371
-2.21034
-2.2159
-2.22022
-2.22317
-2.22466
-2.22466
-2.22317
-2.22022
-2.2159
-2.21034
-2.20371
-2.19622
-2.18813
-2.17973
-2.17133
-2.16327
-2.1559
-2.14953
-2.14447
-2.14097
-2.13917
-2.14684
-2.1483
-2.15114
-2.15525
-2.16043
-2.16645
-2.17305
-2.17994
-2.18687
-2.19355
-2.19976
-2.20527
-2.2099
-2.21351
-2.21597
-2.21723
-2.21723
-2.21597
-2.21351
-2.2099
-2.20527
-2.19976
-2.19355
-2.18687
-2.17994
-2.17305
-2.16645
-2.16043
-2.15525
-2.15114
-2.1483
-2.14684
-2.15314
-2.15432
-2.15664
-2.15998
-2.16421
-2.16913
-2.17453
-2.1802
-2.1859
-2.19142
-2.19656
-2.20113
-2.20499
-2.20799
-2.21004
-2.21109
-2.21109
-2.21004
-2.20799
-2.20499
-2.20113
-2.19656
-2.19142
-2.1859
-2.1802
-2.17453
-2.16913
-2.16421
-2.15998
-2.15664
-2.15432
-2.15314
-2.15832
-2.15928
-2.16117
-2.16389
-2.16734
-2.17137
-2.1758
-2.18046
-2.18515
-2.18971
-2.19396
-2.19775
-2.20095
-2.20344
-2.20515
-2.20602
-2.20602
-2.20515
-2.20344
-2.20095
-2.19775
-2.19396
-2.18971
-2.18516
-2.18046
-2.1758
-2.17137
-2.16734
-2.16389
-2.16117
-2.15928
-2.15832
-2.16258
-2.16336
-2.1649
-2.16713
-2.16995
-2.17325
-2.17688
-2.18071
-2.18458
-2.18834
-2.19185
-2.19498
-2.19763
-2.1997
-2.20112
-2.20184
-2.20184
-2.20112
-2.1997
-2.19763
-2.19498
-2.19185
-2.18834
-2.18458
-2.18071
-2.17688
-2.17325
-2.16995
-2.16713
-2.1649
-2.16336
-2.16258
-2.16608
-2.16672
-2.16797
-2.16979
-2.17211
-2.17481
-2.17779
-2.18094
-2.18412
-2.18722
-2.19012
-2.19272
-2.19491
-2.19663
-2.1978
-2.1984
-2.1984
-2.1978
-2.19663
-2.19491
-2.19272
-2.19012
-2.18722
-2.18412
-2.18094
-2.17779
-2.17481
-2.17211
-2.1698
-2.16797
-2.16672
-2.16608
-2.16895
-2.16948
-2.1705
-2.172
-2.17389
-2.17611
-2.17856
-2.18114
-2.18377
-2.18632
-2.18872
-2.19086
-2.19267
-2.19409
-2.19507
-2.19556
-2.19556
-2.19507
-2.19409
-2.19267
-2.19086
-2.18872
-2.18632
-2.18377
-2.18114
-2.17856
-2.17611
-2.17389
-2.172
-2.17051
-2.16948
-2.16895
-2.17132
-2.17175
-2.17259
-2.17381
-2.17536
-2.17718
-2.1792
-2.18133
-2.18348
-2.18559
-2.18756
-2.18933
-2.19083
-2.19201
-2.19281
-2.19322
-2.19322
-2.19281
-2.19201
-2.19083
-2.18933
-2.18756
-2.18559
-2.18348
-2.18133
-2.1792
-2.17718
-2.17537
-2.17381
-2.17259
-2.17175
-2.17132
-2.17326
-2.17362
-2.17431
-2.17531
-2.17658
-2.17808
-2.17973
-2.18148
-2.18326
-2.18499
-2.18662
-2.18808
-2.18932
-2.19029
-2.19096
-2.1913
-2.1913
-2.19096
-2.19029
-2.18932
-2.18808
-2.18662
-2.18499
-2.18326
-2.18148
-2.17973
-2.17808
-2.17658
-2.17531
-2.17431
-2.17362
-2.17326
-2.17487
-2.17515
-2.17572
-2.17654
-2.17759
-2.17882
-2.18018
-2.18162
-2.18308
-2.18451
-2.18585
-2.18705
-2.18808
-2.18888
-2.18943
-2.18971
-2.18971
-2.18943
-2.18888
-2.18808
-2.18705
-2.18585
-2.18451
-2.18308
-2.18162
-2.18018
-2.17882
-2.17759
-2.17654
-2.17572
-2.17515
-2.17487
-2.17618
-2.17642
-2.17688
-2.17756
-2.17842
-2.17943
-2.18055
-2.18173
-2.18293
-2.18411
-2.18522
-2.18621
-2.18705
-2.18771
-2.18817
-2.1884
-2.1884
-2.18817
-2.18771
-2.18705
-2.18621
-2.18522
-2.18411
-2.18293
-2.18173
-2.18055
-2.17943
-2.17842
-2.17756
-2.17688
-2.17642
-2.17618
-2.17727
-2.17746
-2.17784
-2.1784
-2.1791
-2.17993
-2.18085
-2.18183
-2.18282
-2.18379
-2.1847
-2.18552
-2.18621
-2.18676
-2.18713
-2.18732
-2.18732
-2.18713
-2.18676
-2.18621
-2.18552
-2.1847
-2.18379
-2.18282
-2.18183
-2.18085
-2.17993
-2.1791
-2.1784
-2.17784
-2.17746
-2.17727
-2.17816
-2.17832
-2.17863
-2.17909
-2.17967
-2.18035
-2.1811
-2.18191
-2.18272
-2.18352
-2.18427
-2.18495
-2.18552
-2.18597
-2.18628
-2.18644
-2.18644
-2.18628
-2.18597
-2.18552
-2.18495
-2.18427
-2.18352
-2.18272
-2.18191
-2.1811
-2.18035
-2.17967
-2.17909
-2.17863
-2.17832
-2.17816
-2.17889
-2.17902
-2.17928
-2.17965
-2.18013
-2.18069
-2.18131
-2.18197
-2.18265
-2.1833
-2.18392
-2.18448
-2.18495
-2.18532
-2.18558
-2.18571
-2.18571
-2.18558
-2.18532
-2.18495
-2.18448
-2.18392
-2.1833
-2.18265
-2.18197
-2.18131
-2.18069
-2.18013
-2.17965
-2.17928
-2.17902
-2.17889
-2.17949
-2.1796
-2.17981
-2.18012
-2.18051
-2.18098
-2.18149
-2.18203
-2.18258
-2.18312
-2.18363
-2.18409
-2.18448
-2.18479
-2.185
-2.1851
-2.1851
-2.185
-2.18479
-2.18448
-2.18409
-2.18363
-2.18312
-2.18258
-2.18203
-2.18149
-2.18098
-2.18051
-2.18012
-2.17981
-2.1796
-2.17949
-2.17999
-2.18008
-2.18025
-2.18051
-2.18083
-2.18121
-2.18163
-2.18208
-2.18253
-2.18298
-2.1834
-2.18377
-2.1841
-2.18435
-2.18452
-2.18461
-2.18461
-2.18452
-2.18435
-2.1841
-2.18377
-2.1834
-2.18298
-2.18253
-2.18208
-2.18163
-2.18121
-2.18083
-2.18051
-2.18025
-2.18008
-2.17999
-2.1804
-2.18047
-2.18062
-2.18082
-2.18109
-2.1814
-2.18175
-2.18212
-2.18249
-2.18286
-2.1832
-2.18351
-2.18378
-2.18399
-2.18413
-2.1842
-2.1842
-2.18413
-2.18399
-2.18378
-2.18351
-2.1832
-2.18286
-2.18249
-2.18212
-2.18175
-2.1814
-2.18109
-2.18082
-2.18062
-2.18047
-2.1804
-2.18074
-2.1808
-2.18091
-2.18109
-2.1813
-2.18156
-2.18185
-2.18215
-2.18246
-2.18276
-2.18304
-2.1833
-2.18352
-2.18369
-2.18381
-2.18387
-2.18387
-2.18381
-2.18369
-2.18352
-2.1833
-2.18304
-2.18276
-2.18246
-2.18215
-2.18185
-2.18156
-2.1813
-2.18109
-2.18091
-2.1808
-2.18074
-2.18101
-2.18106
-2.18116
-2.1813
-2.18148
-2.18169
-2.18193
-2.18217
-2.18243
-2.18268
-2.18291
-2.18312
-2.1833
-2.18344
-2.18354
-2.18359
-2.18359
-2.18354
-2.18344
-2.1833
-2.18312
-2.18291
-2.18268
-2.18243
-2.18217
-2.18193
-2.18169
-2.18148
-2.1813
-2.18116