/*--------------------------------*- C++ -*----------------------------------*\
  =========                 |
  \\      /  F ield         | OpenFOAM: The Open Source CFD Toolbox
   \\    /   O peration     | Website:  https://openfoam.org
    \\  /    A nd           | Version:  9
     \\/     M anipulation  |
\*---------------------------------------------------------------------------*/
FoamFile
{
    format      ascii;
    class       surfaceScalarField;
    location    "0.35";
    object      phi;
}
// * * * * * * * * * * * * * * * * * * * * * * * * * * * * * * * * * * * * * //

dimensions      [0 3 -1 0 0 0 0];

internalField   nonuniform List<scalar> 
8032
(
-1.27493e-08
1.28704e-08
-2.4861e-08
1.27037e-08
-3.65386e-08
1.17451e-08
-4.69043e-08
1.0455e-08
-5.5516e-08
8.68551e-09
-6.20324e-08
6.56686e-09
-6.6165e-08
4.16364e-09
-6.77236e-08
1.57734e-09
-6.66292e-08
-1.08278e-09
-6.2915e-08
-3.70622e-09
-5.67225e-08
-6.18645e-09
-4.82933e-08
-8.42406e-09
-3.79583e-08
-1.03304e-08
-2.61234e-08
-1.18306e-08
-1.32534e-08
-1.28659e-08
1.46667e-10
-1.3396e-08
1.35511e-08
-1.34006e-08
2.64346e-08
-1.28797e-08
3.82921e-08
-1.18538e-08
4.86592e-08
-1.03634e-08
5.71296e-08
-8.46696e-09
6.33718e-08
-6.23886e-09
6.71419e-08
-3.76675e-09
6.82935e-08
-1.14823e-09
6.67843e-08
1.51256e-09
6.26795e-08
4.10833e-09
5.61508e-08
6.53215e-09
4.74739e-08
8.68048e-09
3.70212e-08
1.04553e-08
2.52547e-08
1.17691e-08
1.27155e-08
1.25454e-08
1.27169e-08
-1.35457e-08
2.63515e-08
-2.67343e-08
2.58851e-08
-3.9139e-08
2.41973e-08
-5.01346e-08
2.15171e-08
-5.9277e-08
1.78876e-08
-6.61674e-08
1.35004e-08
-7.05142e-08
8.53903e-09
-7.21267e-08
3.20788e-09
-7.09256e-08
-2.27181e-09
-6.69483e-08
-7.67513e-09
-6.03447e-08
-1.27833e-08
-5.1371e-08
-1.73921e-08
-4.03775e-08
-2.13187e-08
-2.77946e-08
-2.44086e-08
-1.41151e-08
-2.65407e-08
1.25028e-10
-2.76317e-08
1.43684e-08
-2.76395e-08
2.8057e-08
-2.65641e-08
4.06552e-08
-2.44479e-08
5.16697e-08
-2.13739e-08
6.06695e-08
-1.74628e-08
6.73025e-08
-1.28681e-08
7.13099e-08
-7.77037e-09
7.25362e-08
-2.3708e-09
7.09367e-08
3.11589e-09
6.65804e-08
8.46862e-09
5.96497e-08
1.34668e-08
5.04365e-08
1.78971e-08
3.93354e-08
2.15601e-08
2.68347e-08
2.42739e-08
1.35059e-08
2.58767e-08
2.6227e-08
-1.47823e-08
4.10764e-08
-2.92683e-08
4.03406e-08
-4.28342e-08
3.77743e-08
-5.48328e-08
3.3551e-08
-6.47784e-08
2.78715e-08
-7.2255e-08
2.10086e-08
-7.69503e-08
1.32571e-08
-7.86654e-08
4.9387e-09
-7.73212e-08
-3.605e-09
-7.29616e-08
-1.20265e-08
-6.57514e-08
-1.9987e-08
-5.5969e-08
-2.71689e-08
-4.3995e-08
-3.32877e-08
-3.02965e-08
-3.81022e-08
-1.54089e-08
-4.14237e-08
8.59864e-11
-4.31222e-08
1.55822e-08
-4.31315e-08
3.04738e-08
-4.14515e-08
4.41784e-08
-3.81484e-08
5.61601e-08
-3.33516e-08
6.59505e-08
-2.72493e-08
7.31669e-08
-2.00808e-08
7.7528e-08
-1.21278e-08
7.88649e-08
-3.70405e-09
7.71291e-08
4.85548e-09
7.23956e-08
1.3206e-08
6.48626e-08
2.10037e-08
5.48473e-08
2.79163e-08
4.27787e-08
3.36315e-08
2.91864e-08
3.78688e-08
1.46931e-08
4.03778e-08
4.09208e-08
-1.64687e-08
5.75043e-08
-3.27058e-08
5.65482e-08
-4.78681e-08
5.29361e-08
-6.12788e-08
4.698e-08
-7.23791e-08
3.89963e-08
-8.07098e-08
2.93617e-08
-8.59278e-08
1.84928e-08
-8.78173e-08
6.84124e-09
-8.62953e-08
-5.11722e-09
-8.14145e-08
-1.68998e-08
-7.33603e-08
-2.80349e-08
-6.2444e-08
-3.80798e-08
-4.90895e-08
-4.66372e-08
-3.3817e-08
-5.33701e-08
-1.72224e-08
-5.80139e-08
4.64443e-11
-6.03868e-08
1.73152e-08
-6.03961e-08
3.3909e-08
-5.80413e-08
4.91796e-08
-5.3415e-08
6.25303e-08
-4.66985e-08
7.34395e-08
-3.81548e-08
8.14812e-08
-2.81189e-08
8.63421e-08
-1.69851e-08
8.78343e-08
-5.19274e-09
8.59038e-08
6.7896e-09
8.06343e-08
1.84794e-08
7.22464e-08
2.93954e-08
6.10934e-08
3.90724e-08
4.76522e-08
4.70762e-08
3.25145e-08
5.30113e-08
1.63699e-08
5.65231e-08
5.72954e-08
-1.87379e-08
7.61972e-08
-3.72198e-08
7.50037e-08
-5.45045e-08
7.02138e-08
-6.98038e-08
6.22869e-08
-8.24667e-08
5.16733e-08
-9.1966e-08
3.8876e-08
-9.79117e-08
2.44515e-08
-1.0006e-07
9.00032e-09
-9.83203e-08
-6.84863e-09
-9.27548e-08
-2.24585e-08
-8.3577e-08
-3.7207e-08
-7.11422e-08
-5.05096e-08
-5.59336e-08
-6.18411e-08
-3.85435e-08
-7.07557e-08
-1.965e-08
-7.69032e-08
9.72019e-12
-8.00425e-08
1.96679e-08
-8.00503e-08
3.85573e-08
-7.69269e-08
5.59401e-08
-7.07941e-08
7.11374e-08
-6.18921e-08
8.35556e-08
-5.05695e-08
9.27103e-08
-3.72701e-08
9.8245e-08
-2.25164e-08
9.99459e-08
-6.89029e-09
9.77517e-08
8.98731e-09
9.17575e-08
2.44771e-08
8.22146e-08
3.8942e-08
6.95244e-08
5.17662e-08
5.42307e-08
6.23722e-08
3.70036e-08
7.02399e-08
1.8632e-08
7.49038e-08
7.59271e-08
-2.1676e-08
9.78585e-08
-4.3058e-08
9.63696e-08
-6.30791e-08
9.02285e-08
-8.08216e-08
8.00324e-08
-9.55154e-08
6.63757e-08
-1.06542e-07
4.99133e-08
-1.13448e-07
3.13664e-08
-1.15948e-07
1.15091e-08
-1.13938e-07
-8.85092e-09
-1.07493e-07
-2.88975e-08
-9.68607e-08
-4.7834e-08
-8.2454e-08
-6.49115e-08
-6.48336e-08
-7.94571e-08
-4.46862e-08
-9.0899e-08
-2.27974e-08
-9.8788e-08
-2.14891e-11
-1.02815e-07
2.27527e-08
-1.02821e-07
4.46359e-08
-9.88064e-08
6.47735e-08
-9.09282e-08
8.23793e-08
-7.94945e-08
9.67659e-08
-6.49528e-08
1.07372e-07
-4.78731e-08
1.13785e-07
-2.89263e-08
1.15758e-07
-8.8595e-09
1.13218e-07
1.15299e-08
1.06277e-07
3.14213e-08
9.52262e-08
4.99967e-08
8.05297e-08
6.64654e-08
6.28159e-08
8.00892e-08
4.28644e-08
9.01967e-08
2.15825e-08
9.61845e-08
9.75148e-08
-2.54218e-08
1.23255e-07
-5.04946e-08
1.21428e-07
-7.39908e-08
1.13719e-07
-9.48303e-08
1.00873e-07
-1.12102e-07
8.36519e-08
-1.25072e-07
6.28902e-08
-1.33201e-07
3.95028e-08
-1.36154e-07
1.44692e-08
-1.33808e-07
-1.11917e-08
-1.26248e-07
-3.64521e-08
-1.13767e-07
-6.03097e-08
-9.68514e-08
-8.18227e-08
-7.61598e-08
-1.00145e-07
-5.24993e-08
-1.14556e-07
-2.67931e-08
-1.24491e-07
-4.44666e-11
-1.2956e-07
2.67023e-08
-1.29564e-07
5.24027e-08
-1.24503e-07
7.60532e-08
-1.14575e-07
9.67304e-08
-1.00168e-07
1.13627e-07
-8.18463e-08
1.26084e-07
-6.03271e-08
1.33617e-07
-3.6456e-08
1.35934e-07
-1.11744e-08
1.32954e-07
1.45134e-08
1.24805e-07
3.95737e-08
1.11829e-07
6.29762e-08
9.45712e-08
8.37261e-08
7.37715e-08
1.00891e-07
5.03399e-08
1.13629e-07
2.53486e-08
1.21186e-07
1.22862e-07
-3.01284e-08
1.53381e-07
-5.98441e-08
1.51137e-07
-8.77e-08
1.4157e-07
-1.1242e-07
1.25592e-07
-1.32919e-07
1.04154e-07
-1.48322e-07
7.82978e-08
-1.57984e-07
4.91705e-08
-1.61505e-07
1.79956e-08
-1.58736e-07
-1.39562e-08
-1.49778e-07
-4.54054e-08
-1.34979e-07
-7.51047e-08
-1.14914e-07
-1.01883e-07
-9.03679e-08
-1.24688e-07
-6.22968e-08
-1.42623e-07
-3.17971e-08
-1.54987e-07
-5.97148e-11
-1.61294e-07
3.1676e-08
-1.61297e-07
6.21705e-08
-1.54995e-07
9.0233e-08
-1.42635e-07
1.14768e-07
-1.247e-07
1.34816e-07
-1.01892e-07
1.49597e-07
-7.51055e-08
1.58536e-07
-4.53917e-08
1.61287e-07
-1.39226e-08
1.57751e-07
1.80516e-08
1.48084e-07
4.92446e-08
1.32688e-07
7.83745e-08
1.12214e-07
1.04203e-07
8.75345e-08
1.25573e-07
5.9735e-08
1.41434e-07
3.00788e-08
1.50839e-07
1.52947e-07
-3.59916e-08
1.89357e-07
-7.14853e-08
1.86622e-07
-1.04763e-07
1.74844e-07
-1.34302e-07
1.55131e-07
-1.58805e-07
1.28658e-07
-1.77225e-07
9.67203e-08
-1.88787e-07
6.07365e-08
-1.9301e-07
2.22225e-08
-1.89712e-07
-1.72495e-08
-1.79016e-07
-5.6098e-08
-1.61334e-07
-9.27826e-08
-1.37357e-07
-1.25857e-07
-1.08018e-07
-1.54022e-07
-7.44652e-08
-1.76173e-07
-3.80073e-08
-1.91442e-07
-6.88021e-11
-1.99229e-07
3.78684e-08
-1.99231e-07
7.43223e-08
-1.91446e-07
1.07869e-07
-1.76179e-07
1.37198e-07
-1.54027e-07
1.61165e-07
-1.25857e-07
1.78835e-07
-9.27728e-08
1.8952e-07
-5.60745e-08
1.92809e-07
-1.72089e-08
1.88583e-07
2.22801e-08
1.77026e-07
6.08039e-08
1.58623e-07
9.67801e-08
1.34148e-07
1.28681e-07
1.04648e-07
1.55075e-07
7.14129e-08
1.74668e-07
3.59616e-08
1.86301e-07
1.88906e-07
-4.32368e-08
2.32595e-07
-8.58728e-08
2.29255e-07
-1.25847e-07
2.14815e-07
-1.61334e-07
1.90616e-07
-1.90776e-07
1.58101e-07
-2.12914e-07
1.1886e-07
-2.26815e-07
7.46409e-08
-2.319e-07
2.73099e-08
-2.27947e-07
-2.11986e-08
-2.15102e-07
-6.89396e-08
-1.93862e-07
-1.1402e-07
-1.65053e-07
-1.54663e-07
-1.298e-07
-1.89273e-07
-8.94792e-08
-2.16491e-07
-4.56667e-08
-2.35251e-07
-7.36507e-11
-2.4482e-07
4.55185e-08
-2.4482e-07
8.93284e-08
-2.35253e-07
1.29645e-07
-2.16493e-07
1.64892e-07
-1.89272e-07
1.93695e-07
-1.54657e-07
2.1493e-07
-1.14005e-07
2.27771e-07
-6.89131e-08
2.31723e-07
-2.11585e-08
2.26643e-07
2.73615e-08
2.12755e-07
7.46952e-08
1.90638e-07
1.18899e-07
1.61225e-07
1.58095e-07
1.25771e-07
1.90531e-07
8.58316e-08
2.14613e-07
4.32218e-08
2.28906e-07
2.32134e-07
-5.21476e-08
2.8473e-07
-1.03564e-07
2.80664e-07
-1.51768e-07
2.63016e-07
-1.94562e-07
2.33409e-07
-2.30069e-07
1.93608e-07
-2.56771e-07
1.45563e-07
-2.73543e-07
9.14142e-08
-2.79681e-07
3.34509e-08
-2.74921e-07
-2.59561e-08
-2.59435e-07
-8.44235e-08
-2.3382e-07
-1.39632e-07
-1.99075e-07
-1.89406e-07
-1.56555e-07
-2.3179e-07
-1.07921e-07
-2.65123e-07
-5.50727e-08
-2.88097e-07
-7.59323e-11
-2.99814e-07
5.49203e-08
-2.99815e-07
1.07767e-07
-2.88098e-07
1.56399e-07
-2.65123e-07
1.98917e-07
-2.31788e-07
2.3366e-07
-1.89399e-07
2.59274e-07
-1.39617e-07
2.74762e-07
-8.43992e-08
2.79527e-07
-2.59221e-08
2.734e-07
3.34914e-08
2.56645e-07
9.14516e-08
2.29967e-07
1.45579e-07
1.94487e-07
1.93578e-07
1.51722e-07
2.33297e-07
1.03541e-07
2.62792e-07
5.21423e-08
2.80316e-07
2.84273e-07
-6.30619e-08
3.47795e-07
-1.25235e-07
3.42835e-07
-1.8352e-07
3.21299e-07
-2.35263e-07
2.85151e-07
-2.78197e-07
2.36542e-07
-3.10485e-07
1.77851e-07
-3.30768e-07
1.11699e-07
-3.38196e-07
4.088e-08
-3.32445e-07
-3.17054e-08
-3.13722e-07
-1.03144e-07
-2.8275e-07
-1.70602e-07
-2.40735e-07
-2.31419e-07
-1.89316e-07
-2.83207e-07
-1.30501e-07
-3.23935e-07
-6.65888e-08
-3.52008e-07
-7.68918e-11
-3.66324e-07
6.64349e-08
-3.66324e-07
1.30347e-07
-3.52008e-07
1.89162e-07
-3.23935e-07
2.40581e-07
-2.83205e-07
2.82598e-07
-2.31414e-07
3.13572e-07
-1.70591e-07
3.32301e-07
-1.03126e-07
3.38062e-07
-3.16813e-08
3.30649e-07
4.09061e-08
3.10385e-07
1.11717e-07
2.7812e-07
1.77846e-07
2.35212e-07
2.36486e-07
1.83492e-07
2.8502e-07
1.25226e-07
3.21063e-07
6.30625e-08
3.42473e-07
3.47341e-07
-7.64012e-08
4.24186e-07
-1.51718e-07
4.18147e-07
-2.22322e-07
3.919e-07
-2.85e-07
3.47827e-07
-3.37006e-07
2.88547e-07
-3.76119e-07
2.16964e-07
-4.00692e-07
1.36272e-07
-4.09693e-07
4.98818e-08
-4.0273e-07
-3.86673e-08
-3.80052e-07
-1.2582e-07
-3.42535e-07
-2.08118e-07
-2.91637e-07
-2.82316e-07
-2.29344e-07
-3.45498e-07
-1.5809e-07
-3.95188e-07
-8.06589e-08
-4.29437e-07
-7.73691e-11
-4.46904e-07
8.05044e-08
-4.46905e-07
1.57936e-07
-4.29439e-07
2.29192e-07
-3.9519e-07
2.91487e-07
-3.45499e-07
3.42388e-07
-2.82314e-07
3.79912e-07
-2.08113e-07
4.02598e-07
-1.25811e-07
4.09573e-07
-3.86555e-08
4.00589e-07
4.98919e-08
3.76036e-07
1.36271e-07
3.36946e-07
2.16937e-07
2.84962e-07
2.88472e-07
2.22306e-07
3.47676e-07
1.51714e-07
3.91651e-07
7.64045e-08
4.17794e-07
4.23742e-07
-9.26726e-08
5.16862e-07
-1.84026e-07
5.09499e-07
-2.69658e-07
4.7753e-07
-3.45676e-07
4.23842e-07
-4.08751e-07
3.51622e-07
-4.56191e-07
2.64403e-07
-4.85996e-07
1.66077e-07
-4.96917e-07
6.08028e-08
-4.88476e-07
-4.71078e-08
-4.60974e-07
-1.53321e-07
-4.15471e-07
-2.5362e-07
-3.53737e-07
-3.44049e-07
-2.78179e-07
-4.21055e-07
-1.91749e-07
-4.81617e-07
-9.78247e-08
-5.23361e-07
-7.79145e-11
-5.4465e-07
9.76693e-08
-5.44651e-07
1.91595e-07
-5.23363e-07
2.78028e-07
-4.81621e-07
3.53589e-07
-4.2106e-07
4.1533e-07
-3.44053e-07
4.6084e-07
-2.53623e-07
4.88353e-07
-1.53322e-07
4.96808e-07
-4.71097e-08
4.85904e-07
6.07962e-08
4.56119e-07
1.66057e-07
4.08701e-07
2.64356e-07
3.45648e-07
3.51526e-07
2.69647e-07
4.23679e-07
1.84027e-07
4.77276e-07
9.26768e-08
5.09136e-07
5.16425e-07
-1.12502e-07
6.29354e-07
-2.23395e-07
6.20388e-07
-3.27343e-07
5.81474e-07
-4.19617e-07
5.16114e-07
-4.96182e-07
4.28186e-07
-5.53769e-07
3.2199e-07
-5.89954e-07
2.02261e-07
-6.03216e-07
7.40649e-08
-5.92976e-07
-5.73482e-08
-5.59597e-07
-1.86699e-07
-5.04363e-07
-3.08852e-07
-4.29423e-07
-4.18989e-07
-3.37699e-07
-5.12779e-07
-2.32773e-07
-5.86542e-07
-1.18747e-07
-6.37386e-07
-7.88771e-11
-6.63317e-07
1.1859e-07
-6.63319e-07
2.32618e-07
-6.37391e-07
3.37547e-07
-5.8655e-07
4.29277e-07
-5.12789e-07
5.04224e-07
-4.19e-07
5.59467e-07
-3.08865e-07
5.92858e-07
-1.86713e-07
6.03113e-07
-5.73647e-08
5.89869e-07
7.40412e-08
5.53704e-07
2.02222e-07
4.96137e-07
3.21923e-07
4.19591e-07
4.28074e-07
3.27334e-07
5.15935e-07
2.23395e-07
5.81211e-07
1.12506e-07
6.20037e-07
6.28926e-07
-1.36645e-07
7.66003e-07
-2.71333e-07
7.55074e-07
-3.97582e-07
7.0772e-07
-5.09654e-07
6.28184e-07
-6.02649e-07
5.21179e-07
-6.72597e-07
3.91937e-07
-7.16553e-07
2.46217e-07
-7.3267e-07
9.01817e-08
-7.20242e-07
-6.97768e-08
-6.79708e-07
-2.27233e-07
-6.12627e-07
-3.75933e-07
-5.21605e-07
-5.10011e-07
-4.10192e-07
-6.24192e-07
-2.8274e-07
-7.13995e-07
-1.4423e-07
-7.75895e-07
-8.04915e-11
-8.07466e-07
1.4407e-07
-8.07469e-07
2.82582e-07
-7.75903e-07
4.10039e-07
-7.14007e-07
5.21458e-07
-6.24208e-07
6.12488e-07
-5.1003e-07
6.79579e-07
-3.75956e-07
7.20126e-07
-2.27259e-07
7.3257e-07
-6.98085e-08
7.1647e-07
9.01409e-08
6.72534e-07
2.46159e-07
6.02606e-07
3.91851e-07
5.0963e-07
5.21049e-07
3.97571e-07
6.27994e-07
2.71334e-07
7.07453e-07
1.36648e-07
7.54713e-07
7.6558e-07
-1.6603e-07
9.32023e-07
-3.29676e-07
9.18716e-07
-4.83067e-07
8.61109e-07
-6.19236e-07
7.6435e-07
-7.3223e-07
6.34171e-07
-8.17228e-07
4.76932e-07
-8.70649e-07
2.99637e-07
-8.90247e-07
1.09779e-07
-8.75162e-07
-8.48632e-08
-8.25924e-07
-2.76471e-07
-7.44425e-07
-4.57433e-07
-6.33829e-07
-6.20607e-07
-4.98449e-07
-7.59573e-07
-3.43572e-07
-8.68871e-07
-1.75255e-07
-9.44213e-07
-8.29119e-11
-9.82639e-07
1.7509e-07
-9.82642e-07
3.4341e-07
-9.44223e-07
4.98291e-07
-8.68888e-07
6.33678e-07
-7.59595e-07
7.44283e-07
-6.20635e-07
8.25794e-07
-4.57467e-07
8.75045e-07
-2.76511e-07
8.90146e-07
-8.49102e-08
8.70566e-07
1.09721e-07
8.17164e-07
2.99561e-07
7.32186e-07
4.76829e-07
6.19209e-07
6.34027e-07
4.83055e-07
7.64146e-07
3.29672e-07
8.60831e-07
1.66031e-07
9.18364e-07
9.31605e-07
-2.01776e-07
1.1338e-06
-4.00653e-07
1.11759e-06
-5.87068e-07
1.04752e-06
-7.52557e-07
9.29838e-07
-8.8989e-07
7.71502e-07
-9.93205e-07
5.80245e-07
-1.05815e-06
3.6458e-07
-1.08199e-06
1.33621e-07
-1.06368e-06
-1.03175e-07
-1.00386e-06
-3.36294e-07
-9.04823e-07
-5.56473e-07
-7.7041e-07
-7.5502e-07
-6.05864e-07
-9.24119e-07
-4.17612e-07
-1.05712e-06
-2.13018e-07
-1.14881e-06
-8.6256e-11
-1.19557e-06
2.12846e-07
-1.19558e-06
4.17444e-07
-1.14882e-06
6.05701e-07
-1.05715e-06
7.70254e-07
-9.24149e-07
9.04677e-07
-7.55058e-07
1.00373e-06
-5.56519e-07
1.06356e-06
-3.36347e-07
1.08189e-06
-1.03238e-07
1.05806e-06
1.33546e-07
9.93138e-07
3.64487e-07
8.89843e-07
5.80124e-07
7.52528e-07
7.7134e-07
5.87052e-07
9.29623e-07
4.00648e-07
1.04724e-06
2.01776e-07
1.11723e-06
1.13339e-06
-2.45254e-07
1.37905e-06
-4.8698e-07
1.35931e-06
-7.13564e-07
1.2741e-06
-9.14722e-07
1.13099e-06
-1.08167e-06
9.38444e-07
-1.20727e-06
7.0585e-07
-1.28625e-06
4.43555e-07
-1.31527e-06
1.62639e-07
-1.29305e-06
-1.25397e-07
-1.22036e-06
-4.08982e-07
-1.09999e-06
-6.76845e-07
-9.36607e-07
-9.18407e-07
-7.36575e-07
-1.12415e-06
-5.07713e-07
-1.28599e-06
-2.58972e-07
-1.39755e-06
-9.06077e-11
-1.45445e-06
2.58792e-07
-1.45446e-06
5.07536e-07
-1.39757e-06
7.36404e-07
-1.28601e-06
9.36443e-07
-1.12419e-06
1.09984e-06
-9.18454e-07
1.22022e-06
-6.76903e-07
1.29292e-06
-4.09049e-07
1.31516e-06
-1.25476e-07
1.28616e-06
1.62546e-07
1.2072e-06
4.43443e-07
1.08161e-06
7.05711e-07
9.14686e-07
9.38267e-07
7.13545e-07
1.13076e-06
4.8697e-07
1.27381e-06
2.45251e-07
1.35895e-06
1.37863e-06
-2.98122e-07
1.67717e-06
-5.91956e-07
1.65314e-06
-8.67389e-07
1.54953e-06
-1.11193e-06
1.37553e-06
-1.3149e-06
1.14141e-06
-1.46763e-06
8.5858e-07
-1.56369e-06
5.39613e-07
-1.59903e-06
1.97973e-07
-1.57207e-06
-1.52358e-07
-1.48375e-06
-4.97304e-07
-1.33744e-06
-8.23154e-07
-1.13882e-06
-1.11703e-06
-8.95619e-07
-1.36735e-06
-6.17346e-07
-1.56426e-06
-3.14889e-07
-1.70001e-06
-9.60441e-11
-1.76925e-06
3.14698e-07
-1.76925e-06
6.17159e-07
-1.70003e-06
8.95437e-07
-1.56429e-06
1.13864e-06
-1.3674e-06
1.33728e-06
-1.11709e-06
1.4836e-06
-8.23224e-07
1.57193e-06
-4.97386e-07
1.59891e-06
-1.52453e-07
1.56359e-06
1.97862e-07
1.46755e-06
5.39483e-07
1.31484e-06
8.58422e-07
1.11189e-06
1.14121e-06
8.67364e-07
1.37529e-06
5.91944e-07
1.54923e-06
2.98118e-07
1.65277e-06
1.67675e-06
-3.624e-07
2.03956e-06
-7.19588e-07
2.01033e-06
-1.05442e-06
1.88436e-06
-1.35172e-06
1.67282e-06
-1.59851e-06
1.38819e-06
-1.78425e-06
1.04432e-06
-1.90111e-06
6.56472e-07
-1.94415e-06
2.41015e-07
-1.91146e-06
-1.85053e-07
-1.80415e-06
-6.04617e-07
-1.62631e-06
-1.00099e-06
-1.38484e-06
-1.35851e-06
-1.08913e-06
-1.66306e-06
-7.50742e-07
-1.90265e-06
-3.82929e-07
-2.06782e-06
-1.02628e-10
-2.15208e-06
3.82725e-07
-2.15208e-06
7.50542e-07
-2.06785e-06
1.08893e-06
-1.90269e-06
1.38465e-06
-1.66312e-06
1.62614e-06
-1.35858e-06
1.80399e-06
-1.00108e-06
1.91132e-06
-6.04714e-07
1.94403e-06
-1.85165e-07
1.901e-06
2.40886e-07
1.78416e-06
6.56322e-07
1.59844e-06
1.04414e-06
1.35167e-06
1.38798e-06
1.05439e-06
1.67257e-06
7.1957e-07
1.88405e-06
3.62393e-07
2.00996e-06
2.03914e-06
-4.40538e-07
2.4801e-06
-8.74743e-07
2.44453e-06
-1.2818e-06
2.29141e-06
-1.64325e-06
2.03428e-06
-1.94333e-06
1.68827e-06
-2.16924e-06
1.27022e-06
-2.31143e-06
7.98661e-07
-2.36389e-06
2.93473e-07
-2.32427e-06
-2.24683e-07
-2.19389e-06
-7.34992e-07
-1.97773e-06
-1.21716e-06
-1.68415e-06
-1.6521e-06
-1.32457e-06
-2.02264e-06
-9.13054e-07
-2.31417e-06
-4.65719e-07
-2.51516e-06
-1.10431e-10
-2.61769e-06
4.655e-07
-2.6177e-06
9.12839e-07
-2.51519e-06
1.32436e-06
-2.31421e-06
1.68395e-06
-2.02271e-06
1.97755e-06
-1.65218e-06
2.19372e-06
-1.21725e-06
2.32411e-06
-7.35104e-07
2.36376e-06
-2.24813e-07
2.31131e-06
2.93325e-07
2.16914e-06
7.98491e-07
1.94326e-06
1.27002e-06
1.6432e-06
1.68804e-06
1.28176e-06
2.034e-06
8.74723e-07
2.29108e-06
4.40529e-07
2.44414e-06
2.47967e-06
-5.35511e-07
3.0156e-06
-1.06333e-06
2.97234e-06
-1.55818e-06
2.78625e-06
-1.99764e-06
2.47374e-06
-2.36255e-06
2.05318e-06
-2.63734e-06
1.545e-06
-2.81039e-06
9.71704e-07
-2.87436e-06
3.57439e-07
-2.82636e-06
-2.72687e-07
-2.66799e-06
-8.93362e-07
-2.40526e-06
-1.47989e-06
-2.04831e-06
-2.00905e-06
-1.61105e-06
-2.45991e-06
-1.11056e-06
-2.81466e-06
-5.66464e-07
-3.05926e-06
-1.19518e-10
-3.18403e-06
5.66226e-07
-3.18404e-06
1.11033e-06
-3.05929e-06
1.61082e-06
-2.81471e-06
2.04809e-06
-2.45998e-06
2.40505e-06
-2.00914e-06
2.6678e-06
-1.48e-06
2.82618e-06
-8.93491e-07
2.8742e-06
-2.72835e-07
2.81025e-06
3.57271e-07
2.63723e-06
9.71513e-07
2.36247e-06
1.54478e-06
1.99758e-06
2.05293e-06
1.55814e-06
2.47344e-06
1.06331e-06
2.78591e-06
5.35499e-07
2.97195e-06
3.01517e-06
-6.5093e-07
3.66654e-06
-1.29253e-06
3.61394e-06
-1.89409e-06
3.38781e-06
-2.4284e-06
3.00804e-06
-2.87216e-06
2.49694e-06
-3.20643e-06
1.87926e-06
-3.41707e-06
1.18234e-06
-3.49513e-06
4.35487e-07
-3.43703e-06
-3.30787e-07
-3.24469e-06
-1.0857e-06
-2.92537e-06
-1.79921e-06
-2.4914e-06
-2.44303e-06
-1.95964e-06
-2.99167e-06
-1.35091e-06
-3.42339e-06
-6.89067e-07
-3.7211e-06
-1.29971e-10
-3.87297e-06
6.88809e-07
-3.87299e-06
1.35065e-06
-3.72114e-06
1.9594e-06
-3.42345e-06
2.49116e-06
-2.99175e-06
2.92515e-06
-2.44313e-06
3.24448e-06
-1.79934e-06
3.43684e-06
-1.08585e-06
3.49496e-06
-3.30955e-07
3.41693e-06
4.35297e-07
3.20631e-06
1.18213e-06
2.87207e-06
1.87902e-06
2.42833e-06
2.49666e-06
1.89404e-06
3.00773e-06
1.2925e-06
3.38745e-06
6.50916e-07
3.61352e-06
3.66609e-06
-7.91173e-07
4.4577e-06
-1.57103e-06
4.39379e-06
-2.3023e-06
4.11907e-06
-2.95192e-06
3.65766e-06
-3.49159e-06
3.0366e-06
-3.89826e-06
2.28593e-06
-4.15472e-06
1.4388e-06
-4.25002e-06
5.30783e-07
-4.17978e-06
-4.01039e-07
-3.94624e-06
-1.31925e-06
-3.55818e-06
-2.18727e-06
-3.03055e-06
-2.97066e-06
-2.38387e-06
-3.63836e-06
-1.64342e-06
-4.16384e-06
-8.3829e-07
-4.52624e-06
-1.41871e-10
-4.71113e-06
8.38008e-07
-4.71114e-06
1.64315e-06
-4.52628e-06
2.3836e-06
-4.16391e-06
3.03029e-06
-3.63845e-06
3.55794e-06
-2.97078e-06
3.94601e-06
-2.18741e-06
4.17957e-06
-1.31941e-06
4.24984e-06
-4.01228e-07
4.15456e-06
5.3057e-07
3.89813e-06
1.43856e-06
3.49148e-06
2.28567e-06
2.95184e-06
3.0363e-06
2.30224e-06
3.65732e-06
1.57099e-06
4.11869e-06
7.91155e-07
4.39337e-06
4.45724e-06
-9.6155e-07
5.41925e-06
-1.90939e-06
5.34163e-06
-2.79827e-06
5.00795e-06
-3.58808e-06
4.44746e-06
-4.24441e-06
3.69292e-06
-4.73923e-06
2.78075e-06
-5.05156e-06
1.75112e-06
-5.16801e-06
6.47236e-07
-5.08317e-06
-4.85882e-07
-4.79969e-06
-1.60273e-06
-4.32816e-06
-2.65881e-06
-3.68668e-06
-3.61214e-06
-2.9002e-06
-4.42484e-06
-1.99949e-06
-5.06456e-06
-1.01994e-06
-5.50579e-06
-1.5532e-10
-5.73091e-06
1.01963e-06
-5.73093e-06
1.99919e-06
-5.50584e-06
2.89991e-06
-5.06463e-06
3.6864e-06
-4.42494e-06
4.32789e-06
-3.61227e-06
4.79944e-06
-2.65897e-06
5.08294e-06
-1.60292e-06
5.16781e-06
-4.86094e-07
5.05138e-06
6.46998e-07
4.73908e-06
1.75086e-06
4.24428e-06
2.78045e-06
3.58799e-06
3.6926e-06
2.79821e-06
4.4471e-06
1.90935e-06
5.00755e-06
9.6153e-07
5.34117e-06
5.41877e-06
-1.16849e-06
6.58773e-06
-2.32038e-06
6.49351e-06
-3.40079e-06
6.08835e-06
-4.361e-06
5.40767e-06
-5.15923e-06
4.49115e-06
-5.76137e-06
3.38289e-06
-6.14186e-06
2.1316e-06
-6.28431e-06
7.89681e-07
-6.182e-06
-5.88198e-07
-5.83802e-06
-1.94672e-06
-5.26513e-06
-3.2317e-06
-4.48528e-06
-4.392e-06
-3.52875e-06
-5.38137e-06
-2.43299e-06
-6.16033e-06
-1.24111e-06
-6.69767e-06
-1.70425e-10
-6.97186e-06
1.24077e-06
-6.97188e-06
2.43266e-06
-6.69772e-06
3.52843e-06
-6.16041e-06
4.48497e-06
-5.38149e-06
5.26484e-06
-4.39214e-06
5.83774e-06
-3.23188e-06
6.18174e-06
-1.94693e-06
6.28408e-06
-5.88434e-07
6.14166e-06
7.89417e-07
5.7612e-06
2.13131e-06
5.15909e-06
3.38256e-06
4.36089e-06
4.49079e-06
3.40071e-06
5.40728e-06
2.32033e-06
6.08792e-06
1.16847e-06
6.49304e-06
6.58723e-06
-1.41978e-06
8.00751e-06
-2.81949e-06
7.89321e-06
-4.13256e-06
7.40142e-06
-5.2999e-06
6.575e-06
-6.27074e-06
5.46198e-06
-7.0036e-06
4.11574e-06
-7.46729e-06
2.59528e-06
-7.64173e-06
9.64123e-07
-7.51857e-06
-7.11364e-07
-7.10137e-06
-2.36393e-06
-6.40547e-06
-3.9276e-06
-5.45744e-06
-5.34003e-06
-4.29406e-06
-6.54476e-06
-2.96089e-06
-7.4935e-06
-1.51047e-06
-8.14809e-06
-1.87318e-10
-8.48215e-06
1.5101e-06
-8.48216e-06
2.96052e-06
-8.14815e-06
4.2937e-06
-7.49359e-06
5.4571e-06
-6.54489e-06
6.40515e-06
-5.34019e-06
7.10107e-06
-3.9278e-06
7.51829e-06
-2.36416e-06
7.64148e-06
-7.11626e-07
7.46706e-06
9.6383e-07
7.00341e-06
2.59496e-06
6.27058e-06
4.11539e-06
5.29977e-06
5.46159e-06
4.13247e-06
6.57458e-06
2.81943e-06
7.40096e-06
1.41975e-06
7.8927e-06
8.00698e-06
-1.72483e-06
9.73234e-06
-3.42542e-06
9.59379e-06
-5.02109e-06
8.99708e-06
-6.44016e-06
7.99407e-06
-7.62099e-06
6.6428e-06
-8.5131e-06
5.00785e-06
-9.07843e-06
3.16061e-06
-9.29235e-06
1.17804e-06
-9.14442e-06
-8.59301e-07
-8.63868e-06
-2.86967e-06
-7.79354e-06
-4.77274e-06
-6.64114e-06
-6.49244e-06
-5.22611e-06
-7.95979e-06
-3.60391e-06
-9.1157e-06
-1.8386e-06
-9.91341e-06
-2.06136e-10
-1.03205e-05
1.83819e-06
-1.03206e-05
3.60351e-06
-9.91347e-06
5.22571e-06
-9.1158e-06
6.64076e-06
-7.95994e-06
7.79318e-06
-6.49262e-06
8.63834e-06
-4.77296e-06
9.14411e-06
-2.86993e-06
9.29207e-06
-8.59593e-07
9.07818e-06
1.17771e-06
8.51289e-06
3.16025e-06
7.62081e-06
5.00746e-06
6.44002e-06
6.64238e-06
5.02099e-06
7.99361e-06
3.42536e-06
8.99659e-06
1.7248e-06
9.59326e-06
9.73178e-06
-2.09503e-06
1.18274e-05
-4.16081e-06
1.16596e-05
-6.09964e-06
1.09359e-05
-7.82462e-06
9.71904e-06
-9.26091e-06
8.07908e-06
-1.03471e-05
6.09403e-06
-1.10367e-05
3.8502e-06
-1.12994e-05
1.44079e-06
-1.11222e-05
-1.03651e-06
-1.05096e-05
-3.48233e-06
-9.48349e-06
-5.79884e-06
-8.08276e-06
-7.89318e-06
-6.36158e-06
-9.68098e-06
-4.38745e-06
-1.10898e-05
-2.2385e-06
-1.20624e-05
-2.27047e-10
-1.25588e-05
2.23804e-06
-1.25588e-05
4.38701e-06
-1.20624e-05
6.36115e-06
-1.10899e-05
8.08234e-06
-9.68114e-06
9.48309e-06
-7.89338e-06
1.05092e-05
-5.79909e-06
1.11219e-05
-3.48262e-06
1.12991e-05
-1.03683e-06
1.10364e-05
1.44043e-06
1.03469e-05
3.84981e-06
9.26071e-06
6.0936e-06
7.82447e-06
8.07862e-06
6.09953e-06
9.71854e-06
4.16074e-06
1.09354e-05
2.09499e-06
1.1659e-05
1.18268e-05
-2.54407e-06
1.43714e-05
-5.05295e-06
1.41685e-05
-7.40837e-06
1.32913e-05
-9.50503e-06
1.18157e-05
-1.12521e-05
9.82617e-06
-1.25749e-05
7.41683e-06
-1.34166e-05
4.6919e-06
-1.374e-05
1.76412e-06
-1.35284e-05
-1.24807e-06
-1.27868e-05
-4.22392e-06
-1.15415e-05
-7.04423e-06
-9.83906e-06
-9.59558e-06
-7.74539e-06
-1.17747e-05
-5.3426e-06
-1.34926e-05
-2.72605e-06
-1.46789e-05
-2.50229e-10
-1.52846e-05
2.72555e-06
-1.52847e-05
5.34211e-06
-1.4679e-05
7.74491e-06
-1.34927e-05
9.8386e-06
-1.17748e-05
1.1541e-05
-9.5958e-06
1.27864e-05
-7.0445e-06
1.3528e-05
-4.22423e-06
1.37396e-05
-1.24842e-06
1.34163e-05
1.76372e-06
1.25747e-05
4.69146e-06
1.12519e-05
7.41636e-06
9.50485e-06
9.82567e-06
7.40824e-06
1.18152e-05
5.05287e-06
1.32907e-05
2.54403e-06
1.41678e-05
1.43708e-05
-3.0885e-06
1.74599e-05
-6.13474e-06
1.72147e-05
-8.99569e-06
1.61522e-05
-1.15439e-05
1.43639e-05
-1.36692e-05
1.19514e-05
-1.52806e-05
9.02825e-06
-1.63087e-05
5.71998e-06
-1.67074e-05
2.16289e-06
-1.6456e-05
-1.49956e-06
-1.55592e-05
-5.12067e-06
-1.40483e-05
-8.55515e-06
-1.19795e-05
-1.16643e-05
-9.43259e-06
-1.43216e-05
-6.50754e-06
-1.64177e-05
-3.3208e-06
-1.78657e-05
-2.75891e-10
-1.86052e-05
3.32025e-06
-1.86052e-05
6.507e-06
-1.78658e-05
9.43206e-06
-1.64178e-05
1.1979e-05
-1.43218e-05
1.40478e-05
-1.16646e-05
1.55588e-05
-8.55545e-06
1.64555e-05
-5.12101e-06
1.67071e-05
-1.49996e-06
1.63083e-05
2.16245e-06
1.52803e-05
5.71951e-06
1.36689e-05
9.02773e-06
1.15437e-05
1.19509e-05
8.99554e-06
1.43633e-05
6.13465e-06
1.61516e-05
3.08846e-06
1.7214e-05
1.74592e-05
-3.74818e-06
2.12081e-05
-7.44575e-06
2.09122e-05
-1.09199e-05
1.96264e-05
-1.40165e-05
1.74605e-05
-1.6602e-05
1.45369e-05
-1.85656e-05
1.09919e-05
-1.98225e-05
6.9768e-06
-2.03155e-05
2.65596e-06
-2.00182e-05
-1.79695e-06
-1.89351e-05
-6.20373e-06
-1.7103e-05
-1.03873e-05
-1.45894e-05
-1.41779e-05
-1.14908e-05
-1.74201e-05
-7.9292e-06
-1.99793e-05
-4.0468e-06
-2.17481e-05
-3.04254e-10
-2.26517e-05
4.04619e-06
-2.26517e-05
7.9286e-06
-2.17482e-05
1.14902e-05
-1.99795e-05
1.45888e-05
-1.74204e-05
1.71024e-05
-1.41782e-05
1.89346e-05
-1.03876e-05
2.00177e-05
-6.20412e-06
2.03151e-05
-1.79739e-06
1.98221e-05
2.65547e-06
1.85653e-05
6.97627e-06
1.66017e-05
1.09913e-05
1.40163e-05
1.45363e-05
1.09197e-05
1.74598e-05
7.44564e-06
1.96257e-05
3.74813e-06
2.09115e-05
2.12074e-05
-4.54694e-06
2.5755e-05
-9.03345e-06
2.53987e-05
-1.32511e-05
2.3844e-05
-1.70135e-05
2.1223e-05
-2.01591e-05
1.76824e-05
-2.25529e-05
1.33858e-05
-2.40909e-05
8.51477e-06
-2.47024e-05
3.26745e-06
-2.43531e-05
-2.14622e-06
-2.3047e-05
-7.50988e-06
-2.08267e-05
-1.26076e-05
-1.77732e-05
-1.72314e-05
-1.40033e-05
-2.119e-05
-9.66545e-06
-2.43172e-05
-4.9337e-06
-2.64798e-05
-3.35569e-10
-2.7585e-05
4.93303e-06
-2.75851e-05
9.66479e-06
-2.64799e-05
1.40027e-05
-2.43174e-05
1.77726e-05
-2.11903e-05
2.08261e-05
-1.72317e-05
2.30464e-05
-1.26079e-05
2.43526e-05
-7.51031e-06
2.47019e-05
-2.1467e-06
2.40905e-05
3.26692e-06
2.25525e-05
8.51418e-06
2.01588e-05
1.33851e-05
1.70133e-05
1.76818e-05
1.32509e-05
2.12223e-05
9.03332e-06
2.38433e-05
4.54688e-06
2.5398e-05
2.57543e-05
-5.51327e-06
3.12683e-05
-1.09547e-05
3.08401e-05
-1.60731e-05
2.89624e-05
-2.06438e-05
2.57937e-05
-2.4471e-05
2.15096e-05
-2.73906e-05
1.63054e-05
-2.92748e-05
1.0399e-05
-3.00358e-05
4.0284e-06
-2.96292e-05
-2.55282e-06
-2.80569e-05
-9.08217e-06
-2.53683e-05
-1.52962e-05
-2.16599e-05
-2.09398e-05
-1.70728e-05
-2.57772e-05
-1.17878e-05
-2.96022e-05
-6.0182e-06
-3.22494e-05
-3.701e-10
-3.36029e-05
6.01747e-06
-3.36029e-05
1.17871e-05
-3.22495e-05
1.70721e-05
-2.96024e-05
2.16592e-05
-2.57774e-05
2.53676e-05
-2.09402e-05
2.80563e-05
-1.52966e-05
2.96286e-05
-9.08264e-06
3.00352e-05
-2.55335e-06
2.92743e-05
4.02782e-06
2.73902e-05
1.03983e-05
2.44706e-05
1.63047e-05
2.06436e-05
2.15088e-05
1.60729e-05
2.57929e-05
1.09545e-05
2.89616e-05
5.5132e-06
3.08393e-05
3.12674e-05
-6.68113e-06
3.79494e-05
-1.32772e-05
3.74362e-05
-1.94863e-05
3.51715e-05
-2.50377e-05
3.13451e-05
-2.96945e-05
2.61663e-05
-3.32572e-05
1.98681e-05
-3.55688e-05
1.27105e-05
-3.65194e-05
4.97906e-06
-3.60515e-05
-3.02073e-06
-3.41632e-05
-1.09705e-05
-3.09106e-05
-1.85488e-05
-2.64082e-05
-2.54422e-05
-2.08262e-05
-3.13592e-05
-1.43849e-05
-3.60435e-05
-7.34588e-06
-3.92884e-05
-4.08148e-10
-4.09483e-05
7.34507e-06
-4.09484e-05
1.43841e-05
-3.92885e-05
2.08254e-05
-3.60437e-05
2.64075e-05
-3.13595e-05
3.09099e-05
-2.54426e-05
3.41625e-05
-1.85492e-05
3.60509e-05
-1.0971e-05
3.65188e-05
-3.02131e-06
3.55682e-05
4.97841e-06
3.32568e-05
1.27098e-05
2.96941e-05
1.98673e-05
2.50374e-05
2.61655e-05
1.94861e-05
3.13443e-05
1.3277e-05
3.51707e-05
6.68106e-06
3.74353e-05
3.79485e-05
-8.09084e-06
4.60403e-05
-1.60816e-05
4.54269e-05
-2.36101e-05
4.27e-05
-3.03508e-05
3.80858e-05
-3.60175e-05
3.18331e-05
-4.03676e-05
2.42182e-05
-4.32079e-05
1.55507e-05
-4.44007e-05
6.17194e-06
-4.38706e-05
-3.55082e-06
-4.16092e-05
-1.32319e-05
-3.7679e-05
-2.2479e-05
-3.22148e-05
-3.09065e-05
-2.54213e-05
-3.81527e-05
-1.75671e-05
-4.38978e-05
-8.97356e-06
-4.78819e-05
-4.50034e-10
-4.99215e-05
8.97266e-06
-4.99215e-05
1.75662e-05
-4.7882e-05
2.54205e-05
-4.3898e-05
3.2214e-05
-3.8153e-05
3.76782e-05
-3.09069e-05
4.16085e-05
-2.24795e-05
4.38699e-05
-1.32325e-05
4.44001e-05
-3.55147e-06
4.32073e-05
6.17122e-06
4.03671e-05
1.555e-05
3.60171e-05
2.42174e-05
3.03504e-05
3.18322e-05
2.36098e-05
3.80849e-05
1.60814e-05
4.26991e-05
8.09075e-06
4.54259e-05
4.60393e-05
-9.79003e-06
5.58303e-05
-1.94631e-05
5.51e-05
-2.85859e-05
5.18228e-05
-3.6768e-05
4.62679e-05
-4.36641e-05
3.87292e-05
-4.89793e-05
2.95334e-05
-5.24755e-05
1.9047e-05
-5.39798e-05
7.67615e-06
-5.33921e-05
-4.13846e-06
-5.06936e-05
-1.59305e-05
-4.59516e-05
-2.72209e-05
-3.93235e-05
-3.75346e-05
-3.10548e-05
-4.64214e-05
-2.14725e-05
-5.34801e-05
-1.09725e-05
-5.83819e-05
-4.96128e-10
-6.08934e-05
1.09715e-05
-6.08935e-05