/*--------------------------------*- C++ -*----------------------------------*\
  =========                 |
  \\      /  F ield         | OpenFOAM: The Open Source CFD Toolbox
   \\    /   O peration     | Website:  https://openfoam.org
    \\  /    A nd           | Version:  9
     \\/     M anipulation  |
\*---------------------------------------------------------------------------*/
FoamFile
{
    format      ascii;
    class       volScalarField;
    location    "0.01";
    object      alpha.phase1;
}
// * * * * * * * * * * * * * * * * * * * * * * * * * * * * * * * * * * * * * //

dimensions      [0 0 0 0 0 0 0];

internalField   nonuniform List<scalar> 
10000
(
1.1038816e-175
5.7848082e-170
1.8435489e-165
3.0462473e-161
3.4815519e-157
7.4773992e-154
7.7867563e-153
4.1459987e-149
2.1414849e-145
9.3018852e-142
3.3783854e-138
1.0209289e-134
2.6066763e-131
5.2945616e-128
8.4404461e-125
1.1228621e-121
1.3482092e-118
1.280184e-115
9.0000114e-113
4.7014058e-110
1.699226e-107
4.0087535e-105
5.825866e-103
4.8760925e-101
2.1429031e-99
4.3244795e-98
7.454477e-99
2.7657532e-100
4.9452307e-102
2.2856103e-104
4.1921698e-107
2.5639037e-110
1.1761668e-113
7.6537985e-117
9.4159877e-120
7.3014419e-123
4.8690857e-126
3.1652061e-129
1.9808312e-132
1.1776554e-135
6.55581e-139
3.3618031e-142
1.5579988e-145
6.3765882e-149
2.4263094e-152
1.0635959e-153
5.5130727e-156
1.3326676e-159
2.1898315e-163
1.8494246e-167
4.3180323e-167
5.3945105e-163
3.4261755e-159
1.4562036e-155
1.1263218e-153
6.5877208e-152
1.7622066e-148
4.3190353e-145
9.352094e-142
1.8296776e-138
3.2966642e-135
5.5605239e-132
8.9088859e-129
1.3738264e-125
2.0640038e-122
3.0589576e-119
5.9393592e-116
1.1234211e-112
1.221822e-109
8.3329975e-107
2.4392011e-104
5.1696559e-102
2.7893197e-100
7.5034983e-99
4.360833e-98
1.9220549e-99
3.1165776e-101
2.0635367e-103
5.8266143e-106
8.3843229e-109
7.0184969e-112
3.8914707e-115
2.0148818e-118
2.4310436e-122
4.1812162e-126
5.8274521e-130
7.3422641e-134
9.2664177e-138
1.2331081e-141
1.7265043e-145
2.46755e-149
4.264736e-153
4.7714599e-154
9.3024586e-157
1.1460714e-160
1.2203571e-164
1.0411296e-168
6.7795931e-173
2.7399317e-177
3.1721549e-182
4.9834904e-171
6.1723399e-166
1.6051703e-161
2.3866262e-157
7.0806134e-154
7.9161701e-153
5.5695062e-149
3.7973049e-145
2.1524965e-141
1.0116417e-137
3.9076218e-134
1.2318747e-130
3.2138567e-127
6.4575542e-124
9.8784803e-121
1.1403167e-117
9.715273e-115
5.8772449e-112
2.5155384e-109
7.109975e-107
1.236492e-104
1.3672155e-102
7.5187962e-101
2.1361778e-99
4.333371e-98
1.0027416e-96
2.181827e-96
1.2864802e-96
6.26207e-99
4.8518852e-102
2.4335448e-103
4.1921661e-107
2.563903e-110
1.1827921e-113
7.8465691e-117
2.1415513e-118
1.5372771e-121
9.6654909e-125
5.973162e-128
3.4897542e-131
1.8957647e-134
9.3906272e-138
4.139822e-141
1.5724461e-144
5.301251e-148
1.5160412e-151
1.194864e-153
4.6201296e-155
8.0828789e-159
6.921549e-163
1.9961512e-162
2.4501536e-158
1.3185154e-154
1.2039831e-153
4.8379734e-151
1.7000093e-147
5.0501613e-144
1.334665e-140
3.037413e-137
6.1498607e-134
1.1351709e-130
1.9479036e-127
3.1591813e-124
4.91411e-121
7.4305783e-118
1.1855267e-114
2.2959867e-111
3.456393e-108
3.0299938e-105
1.7934935e-102
2.0964326e-100
6.9698532e-99
1.2875319e-96
2.2071382e-96
1.016494e-96
4.3672689e-98
1.9122333e-99
4.7558602e-101
4.873321e-103
1.8486584e-105
3.5757145e-108
3.7832109e-111
2.3655159e-114
1.0345898e-118
2.4310436e-122
4.1812161e-126
5.827452e-130
7.342264e-134
9.2664175e-138
1.233108e-141
1.7265043e-145
2.4675542e-149
4.3281083e-153
6.0987247e-154
1.5395269e-156
1.8664452e-160
1.8265124e-164
1.3145965e-168
5.8294917e-173
8.2965563e-178
1.1941437e-166
8.8363999e-162
1.9578482e-157
7.0278981e-154
8.0649935e-153
6.2375719e-149
4.7723724e-145
3.2441e-141
1.9298337e-137
9.3690589e-134
3.6718441e-130
1.1622364e-126
2.9944005e-123
5.8692033e-120
8.676241e-117
9.640558e-114
7.9136402e-111
4.6472339e-108
1.9332803e-105
5.4297472e-103
9.5618757e-101
1.0993228e-98
6.8005117e-97
2.1320541e-95
4.4654159e-94
8.1398006e-93
1.6549959e-92
1.0422063e-92
5.9639926e-95
8.5356732e-98
6.8293459e-99
1.0234102e-102
8.0100815e-106
4.0230957e-109
2.4494609e-112
4.0210116e-114
3.0877509e-117
2.0040634e-120
1.2620411e-123
7.4915912e-127
4.1177352e-130
2.0508595e-133
8.9980917e-137
3.3388474e-140
1.04e-143
2.7336201e-147
5.1878352e-151
1.2574114e-153
1.6899402e-154
1.767202e-158
5.6738826e-158
4.0722353e-154
1.3616978e-153
1.7676651e-150
9.3657629e-147
3.5724097e-143
1.1489289e-139
3.1082834e-136
7.1079491e-133
1.4313502e-129
2.610919e-126
4.4086713e-123
7.0155347e-120
1.0683298e-116
1.5787502e-113
2.6359322e-110
4.6668585e-107
5.911979e-104
4.3943575e-101
2.2846295e-98
2.3011022e-96
6.5819842e-95
1.0467762e-92
1.6663086e-92
8.2805699e-93
4.5041861e-94
1.9150225e-95
4.2842269e-97
3.8836307e-99
1.412068e-101
2.7004522e-104
2.8849035e-107
3.0391865e-111
1.0863818e-114
2.6574816e-118
4.7779626e-122
6.9308621e-126
9.0020848e-130
1.1534125e-133
1.5396843e-137
2.1522117e-141
3.0742515e-145
4.339991e-149
6.9705816e-153
9.3310576e-154
3.3743855e-156
3.6147482e-160
2.8755481e-164
1.4207234e-168
2.532215e-173
3.0637129e-162
1.5069214e-157
7.1174651e-154
8.4590918e-153
7.5031606e-149
6.1545098e-145
4.3919789e-141
2.8214872e-137
1.6219406e-133
7.859215e-130
3.0246144e-126
9.3987451e-123
2.3274627e-119
4.3549778e-116
6.1160292e-113
6.4275134e-110
5.0128717e-107
2.8224667e-104
1.1251499e-101
3.0919316e-99
5.430167e-97
6.3087836e-95
4.1079485e-93
1.3728755e-91
2.9711868e-90
4.4145951e-89
9.452443e-89
5.8420492e-89
4.0196425e-91
1.0552225e-93
8.6829484e-95
1.4528019e-98
1.3740325e-101
8.0972325e-105
4.5480133e-108
5.5596223e-110
4.5782945e-113
3.0765649e-116
1.9943157e-119
1.2143298e-122
6.8110862e-126
3.4335536e-129
1.5031358e-132
5.4049159e-136
1.4352447e-139
2.9936589e-143
2.8898196e-147
6.3917998e-151
1.4266538e-153
2.7468375e-154
5.6838136e-154
1.8234126e-153
2.1933302e-150
9.9833785e-147
1.0306597e-142
4.9521677e-139
1.8701513e-135
5.220611e-132
1.1959679e-128
2.3784483e-125
4.2503786e-122
6.9950021e-119
1.0809528e-115
1.5942228e-112
2.2776381e-109
3.8484677e-106
6.2901248e-103
6.9977735e-100
4.4794462e-97
2.0553165e-94
1.7946313e-92
4.4064819e-91
5.8635362e-89
9.5130909e-89
4.4855548e-89
2.9952056e-90
1.2325708e-91
2.5881858e-93
2.216622e-95
7.9385212e-98
1.5251197e-100
1.667998e-103
2.1792343e-107
8.2408072e-111
2.1525798e-114
4.1671452e-118
6.5138788e-122
9.0643973e-126
1.2280714e-129
1.7115261e-133
2.4788444e-137
3.6570881e-141
5.3584337e-145
8.1665705e-148
1.2447443e-151
9.5863269e-154
7.3198439e-156
6.5549884e-160
3.7446192e-164
8.819837e-169
7.4499055e-158
6.9438268e-154
7.9656016e-153
8.5481387e-149
7.8745004e-145
5.9428852e-141
3.9057503e-137
2.3323666e-133
1.2579812e-129
5.9191285e-126
2.1818487e-122
6.5562597e-119
1.5318463e-115
2.6966709e-112
3.5625536e-109
3.5103133e-106
2.5732154e-103
1.3759148e-100
5.220522e-98
1.3888555e-95
2.4146203e-93
2.7791e-91
1.8630807e-89
6.451549e-88
1.4348873e-86
1.8622478e-85
4.1476969e-85
2.538177e-85
2.0909312e-87
2.0512624e-89
7.303656e-91
1.4368884e-94
1.6162324e-97
1.1017301e-100
6.0024124e-104
6.0332224e-106
5.4211462e-109
3.8039391e-112
2.5622352e-115
1.6146481e-118
9.3154621e-122
4.7811033e-125
2.0896075e-128
7.1582954e-132
1.4997352e-135
2.0992887e-139
6.3404122e-143
1.4559363e-146
2.2528664e-150
1.604258e-153
2.2332647e-153
7.7364581e-150
5.0318222e-146
2.1997742e-142
7.3047869e-139
5.0265784e-135
2.4188246e-131
7.0880903e-128
1.6261858e-124
3.1752901e-121
5.5137028e-118
8.7632629e-115
1.3027305e-111
1.8431991e-108
2.5214279e-105
4.2234616e-102
6.3723225e-99
6.2983023e-96
3.480443e-93
1.4108601e-90
1.0724661e-88
2.2724932e-87
2.5459876e-85
4.1729156e-85
1.8896782e-85
1.4454413e-86
5.7893311e-88
1.1733884e-89
9.7254594e-92
3.5007851e-94
6.8056081e-97
7.6889513e-100
1.1963112e-103
4.8447104e-107
1.3718337e-110
2.9118135e-114
5.0145535e-118
7.6794281e-122
1.1345103e-125
1.7037776e-129
2.636683e-133
4.1383577e-137
7.0952317e-141
1.1641936e-143
1.9198681e-147
2.7038236e-151
9.7838192e-154
1.4860162e-155
1.0067569e-159
3.0494933e-164
5.995237e-154
6.0182568e-153
8.7490131e-149
9.8787295e-145
8.3556965e-141
5.755046e-137
3.4319683e-133
1.8538063e-129
9.1534811e-126
3.9594936e-122
1.3764026e-118
3.9615203e-115
8.6237231e-112
1.413776e-108
1.7421296e-105
1.6038805e-102
1.0983084e-99
5.5418223e-97
1.9939745e-94
5.0936018e-92
8.6816166e-90
9.8068146e-88
6.6774658e-86
2.4034768e-84
5.3700238e-83
6.3481381e-82
1.4578089e-81
8.8951849e-82
8.7172498e-84
1.5408004e-85
4.570874e-87
1.0758304e-90
1.4354085e-93
1.1293104e-96
6.140288e-100
4.8230509e-103
5.2771678e-105
4.0025359e-108
2.7970792e-111
1.8394293e-114
1.0996835e-117
5.7759592e-121
2.5159889e-124
7.9525972e-128
9.6923117e-132
3.7785793e-135
1.1989379e-138
2.8885212e-142
4.6831177e-146
3.8278596e-150
1.2714657e-149
1.5714006e-145
9.7414612e-142
4.0573664e-138
1.2821596e-134
3.2957715e-131
2.6184885e-127
8.3200294e-124
1.9149074e-120
3.6530647e-117
6.1207577e-114
9.32022e-111
1.3213673e-107
1.7776048e-104
2.3291172e-101
3.7465937e-98
5.1489047e-95
4.5431195e-92
2.1587765e-89
7.7260918e-87
5.1286714e-85
9.4048385e-84
8.9165209e-82
1.4658755e-81
6.4329537e-82
5.4050084e-83
2.1538871e-84
4.2039336e-86
3.4218756e-88
1.250377e-90
2.4827519e-93
1.7523943e-96
5.2620713e-100
2.3017104e-103
7.1410695e-107
1.6797808e-110
3.2365668e-114
5.558205e-118
9.1621728e-122
1.5208294e-125
2.5783645e-129
4.4135178e-133
7.7505225e-136
1.5776107e-139
2.8492315e-143
4.3761639e-147
5.4453785e-151
1.0068846e-153
2.6374147e-155
1.0469023e-159
2.7608988e-153
5.5410028e-149
9.555751e-145
1.0288549e-140
8.0908127e-137
5.1140343e-133
2.770753e-129
1.3484919e-125
6.0360901e-122
2.3609966e-118
7.7890971e-115
2.0796096e-111
4.1806593e-108
6.3386068e-105
7.2513874e-102
6.2223399e-99
3.9741595e-96
1.8807772e-93
6.4329793e-91
1.5939364e-88
2.7580634e-86
3.0613026e-84
2.1624996e-82
8.2838215e-81
1.6186489e-79
1.9641836e-78
4.3029639e-78
2.5787166e-78
2.9868514e-80
7.8183367e-82
2.2522732e-83
6.396361e-87
1.0114837e-89
9.1989023e-93
5.1868281e-96
4.2598665e-99
4.3906083e-101
3.5922042e-104
2.6548318e-107
1.8360037e-110
1.1452682e-113
6.1839521e-117
2.6732846e-120
7.3315797e-124
1.4627666e-127
6.0374294e-131
2.0254814e-134
5.156985e-138
8.8317098e-142
7.6168898e-146
2.4709489e-145
2.8903749e-141
1.6954068e-137
6.6796927e-134
1.9959632e-130
4.8455617e-127
2.36096e-123
8.6644037e-120
2.0100391e-116
3.7297283e-113
5.9880316e-110
8.6690014e-107
1.1630552e-103
1.476132e-100
1.8564742e-97
2.7764475e-94
3.4275406e-91
2.7049649e-88
1.1001438e-85
3.4683855e-83
2.0163343e-81
3.2026098e-80
2.5832391e-78
4.3253754e-78
1.9885743e-78
1.6278273e-79
7.4256807e-81
1.3650863e-82
1.0707842e-84
3.9460837e-87
7.7290738e-90
2.7411765e-93
1.909616e-96
9.0757325e-100
3.1060557e-103
8.1702858e-107
1.7799688e-110
3.4731272e-114
6.4908415e-118
1.2134282e-121
2.2983918e-125
4.7048138e-129
8.7414678e-132
1.9668612e-135
3.8985136e-139
6.5113141e-143
8.6819796e-147
8.4630997e-151
1.0507171e-153
3.1715796e-155
1.7854737e-149
3.9376367e-145
8.4327799e-141
9.2004058e-137
6.9066598e-133
4.0526369e-129
2.0028243e-125
8.76748e-122
3.499063e-118
1.2391469e-114
3.89835e-111
9.5116116e-108
1.7516502e-104
2.4480049e-101
2.590045e-98
2.0654769e-95
1.2333992e-92
5.5821486e-90
1.8731051e-87
4.4999424e-85
7.6087312e-83
8.3864182e-81
5.7330904e-79
2.2815383e-77
4.5313947e-76
5.4312972e-75
1.1278702e-74
6.3274217e-75
8.6400242e-77
3.0362852e-78
9.0303519e-80
3.1097596e-83
5.8247034e-86
6.1339181e-89
3.7226021e-92
3.1681535e-95
3.1651668e-97
2.8064781e-100
2.2088186e-103
1.6177096e-106
1.0595336e-109
5.9042689e-113
2.5141934e-116
5.2336339e-120
1.9790787e-123
8.7013084e-127
3.1056977e-130
8.4076186e-134
1.5302306e-137
1.401849e-141
4.4658238e-141
4.9138919e-137
2.7112546e-133
1.004436e-129
2.8206555e-126
6.4274968e-123
1.629722e-119
7.9089445e-116
1.8630285e-112
3.3499129e-109
5.1225273e-106
7.0023182e-103
8.8248207e-100
1.0487351e-96
1.2526301e-93
1.7303752e-90
1.9199078e-87
1.357131e-84
4.6913056e-82
1.3007758e-79
6.6403528e-78
9.2120731e-77
6.3350025e-75
1.1330204e-74
5.4889364e-75
4.533453e-76
2.0435105e-77
3.62342e-79
2.9152708e-81
1.0818376e-83
2.1635258e-86
7.7868238e-90
5.8319933e-93
3.025847e-96
1.1478529e-99
3.3982395e-103
8.4352735e-107
1.8881917e-110
4.0471011e-114
8.6435177e-118
1.8569185e-121
4.7174791e-125
8.8902652e-128
2.2267635e-131
4.8044635e-135
8.6317472e-139
1.2024262e-142
1.1551046e-146
5.8055221e-151
1.0860352e-153
3.3186729e-145
5.3879875e-141
5.7840218e-137
6.6697254e-133
5.0589289e-129
2.8180695e-125
1.2774581e-121
5.0396121e-118
1.7913033e-114
5.7316152e-111
1.7072468e-107
3.8034353e-104
6.3949168e-101
8.1901755e-98
7.9905843e-95
6.0089277e-92
3.4502342e-89
1.4789147e-86
4.6869177e-84
1.073431e-81
1.7508206e-79
1.9098837e-77
1.2867246e-75
5.1179351e-74
1.0598455e-72
1.2444602e-71
2.4952201e-71
1.3232056e-71
2.1837885e-73
9.681264e-75
3.0074834e-76
1.2603101e-79
2.7935292e-82
3.4094779e-85
2.2441236e-88
2.003536e-91
1.9932505e-93
1.9235573e-96
1.6222335e-99
1.2660387e-102
8.7546739e-106
5.0503094e-109
2.093221e-112
4.3421883e-116
2.408408e-119
1.1335881e-122
4.3265122e-126
1.2516414e-129
2.4330762e-133
2.3796207e-137
7.3735746e-137
7.5949769e-133
3.9222107e-129
1.3594672e-125
3.5697597e-122
7.5980106e-119
1.3719051e-115
6.3548338e-112
1.5381298e-108
2.6713355e-105
3.8686893e-102
4.9627885e-99
5.8383273e-96
6.4547896e-93
7.2565179e-90
9.200638e-87
9.1764359e-84
5.801827e-81
1.697713e-78
4.1272163e-76
1.8748395e-74
2.3127669e-73
1.3241283e-71
2.5051501e-71
1.2559797e-71
1.0605068e-72
4.5808274e-74
8.1085282e-76
6.6109359e-78
2.4782599e-80
1.5768108e-83
1.8813102e-86
1.519652e-89
8.6368408e-93
3.6485279e-96
1.2216044e-99
3.4732316e-103
8.9739627e-107
2.2280277e-110
5.4771491e-114
1.3484814e-117
2.636341e-120
8.0947049e-124
2.2305587e-127
5.2261772e-131
9.8557184e-135
1.3479142e-138
9.9227665e-143
8.1167222e-147
4.7666009e-151
5.2552439e-141
7.4889804e-137
6.395054e-133
3.8722279e-129
3.1756832e-125
1.733485e-121
7.2847332e-118
2.5910686e-114
8.2060554e-111
2.461635e-107
6.5233252e-104
1.3222079e-100
2.0306503e-97
2.3920957e-94
2.2006673e-91
1.5522009e-88
8.3311666e-86
3.3613516e-83
1.0047709e-80
2.1955962e-78
3.4146807e-76
3.6542844e-74
2.4688774e-72
9.5763054e-71
2.0454267e-69
2.4007401e-68
4.6963178e-68
2.3744344e-68
4.734843e-70
2.5983991e-71
8.5156171e-73
4.3093573e-76
1.130369e-78
1.5987015e-81
1.1496524e-84
1.0883717e-87
1.1018853e-89
1.1615377e-92
1.0553277e-95
8.8230941e-99
6.4717532e-102
3.8728508e-105
1.5335015e-108
4.4252735e-112
2.6420153e-115
1.336625e-118
5.477482e-122
1.7000629e-125
3.5432292e-129
3.7135949e-133
1.112849e-132
1.0691478e-128
5.1482636e-125
1.6629339e-121
4.0662723e-118
8.0511894e-115
1.3504261e-111
4.4714436e-108
1.133051e-104
1.8968732e-101
2.5897369e-98
3.1010864e-95
3.3863886e-92
3.462874e-89
3.6336981e-86
4.2076011e-83
3.7695478e-80
2.1395097e-77
5.2590266e-75
1.1264472e-72
4.5906215e-71
4.9727601e-70
2.3749893e-68
4.7122825e-68
2.4202558e-68
2.0467844e-69
8.5646579e-71
1.5539293e-72
1.2607852e-74
4.8206198e-77
3.0654498e-80
3.9045927e-83
3.4127559e-86
2.1311703e-89
1.0061202e-92
3.8245821e-96
1.2506434e-99
3.7489377e-103
1.0809108e-106
3.0806138e-110
8.8140523e-114
1.9041016e-116
6.5165927e-120
1.9756005e-123
4.9465121e-127
9.4010921e-131
1.0515079e-134
1.3691887e-138
1.6909324e-142
1.1859015e-146
7.4864663e-137
9.1001253e-133
6.4916617e-129
3.3755455e-125
1.5511177e-121
9.0096861e-118
3.5968683e-114
1.1800126e-110
3.3841035e-107
9.2303453e-104
2.1790785e-100
4.0076325e-97
5.6773858e-94
6.2374949e-91
5.2950341e-88
3.4601806e-85
1.7327549e-82
6.5723547e-80
1.8540997e-77
3.8548936e-75
5.7272859e-73
5.9530937e-71
4.0004548e-69
1.576998e-67
3.3172351e-66
3.9342466e-65
7.5710387e-65
3.6760237e-65
8.8308402e-67
5.8310264e-68
2.0573927e-69
1.2570793e-72
3.8912846e-75
6.3750031e-78
5.0436497e-81
5.1122957e-84
5.3645773e-86
6.1950015e-89
6.0914504e-92
5.4799263e-95
4.2796508e-98
2.6588984e-101
9.7615016e-105
4.0480934e-108
2.610249e-111
1.4239231e-114
6.2841944e-118
2.098362e-121
4.7016119e-125
5.2944639e-129
1.5274528e-128
1.3651229e-124
6.11289e-121
1.8350148e-117
4.1658957e-114
7.6487933e-111
1.1877552e-107
2.7247494e-104
7.4458269e-101
1.2004301e-97
1.5390944e-94
1.7125925e-91
1.7276085e-88
1.6258305e-85
1.5804482e-82
1.6645807e-79
1.3409389e-76
6.8391531e-74
1.4148752e-71
2.6516042e-69
9.688088e-68
9.1889767e-67
3.6753008e-65
7.592571e-65
3.962511e-65
3.3191347e-66
1.4084979e-67
2.5153143e-69
2.0485084e-71
8.0306625e-74
5.1605622e-77
7.0198191e-80
6.6486498e-83
4.5772993e-86
2.4224056e-89
1.0486043e-92
3.9550496e-96
1.377745e-99
4.6274453e-103
1.5332122e-106
5.4749423e-110
1.210997e-112
4.7530389e-116
1.5186627e-119
3.9502242e-123
6.8523934e-127
1.0985707e-130
2.1955507e-134
3.1342926e-138
2.6100154e-142
9.1691202e-133
9.3392885e-129
5.8105306e-125
2.5688948e-121
9.3340546e-118
3.9399421e-114
1.6541257e-110
4.9947733e-107
1.2738206e-103
3.0149726e-100
6.3731978e-97
1.0748851e-93
1.3971833e-90
1.4089536e-87
1.1033823e-84
6.6867256e-82
3.1204732e-79
1.1106386e-76
2.9687045e-74
5.8520862e-72
8.3362226e-70
8.3442915e-68
5.5346681e-66
2.2008303e-64
4.669969e-63
5.5163942e-62
1.0504565e-61
4.9281087e-62
1.420457e-63
1.1102294e-64
4.2469731e-66
3.1455167e-69
1.147749e-71
2.174526e-74
1.9052648e-77
2.0864471e-80
2.3040209e-82
2.9209547e-85
3.1201348e-88
3.0309352e-91
2.5269075e-94
1.62819e-97
5.3262429e-101
3.3202625e-104
2.3180629e-107
1.3662404e-110
6.5057283e-114
2.3410079e-117
5.6477834e-121
6.8437626e-125
1.8934576e-124
1.5720394e-120
6.5362105e-117
1.8203807e-113
3.8295765e-110
6.5072277e-107
9.3317138e-104
1.4234869e-100
4.3484605e-97
6.757901e-94
8.1150946e-91
8.3615857e-88
7.7613731e-85
6.6934697e-82
5.9863152e-79
5.7164783e-76
4.1445462e-73
1.9182296e-70
3.3238173e-68
5.383282e-66
1.7698377e-64
1.4649912e-63
4.9253209e-62
1.0529217e-61
5.5516107e-62
4.667528e-63
1.9683679e-64
3.4767752e-66
2.8635105e-68
3.4531081e-71
7.5402129e-74
1.0986288e-76
1.1304554e-79
8.6016936e-83
5.1166708e-86
2.5282284e-89
1.1014613e-92
4.4653896e-96
1.7488799e-99
6.7522141e-103
2.9956013e-106
7.1730111e-109
3.2877942e-112
1.1266858e-115
2.6793122e-119
4.6416042e-123
1.3429371e-126
3.0826127e-130
5.0952007e-134
4.9993338e-138
9.3344325e-129
8.0280812e-125
4.4808226e-121
1.7348992e-117
5.3228535e-114
1.7188703e-110
6.7922357e-107
1.854168e-103
4.1868608e-100
8.5747133e-97
1.6345172e-93
2.5137394e-90
2.9908721e-87
2.7636047e-84
1.9949553e-81
1.1226527e-78
4.8809197e-76
1.6282879e-73
4.1160801e-71
7.7129588e-69
1.0529572e-66
1.0139246e-64
6.5865901e-63
2.6269785e-61
5.6842816e-60
6.650537e-59
1.2585152e-58
5.7345702e-59
1.9748751e-60
1.8272649e-61
7.723539e-63
6.7914488e-66
2.9128318e-68
6.3690383e-71
6.2173156e-74
7.420497e-77
8.7367383e-79
1.2177101e-81
1.4173113e-84
1.4904715e-87
1.3282381e-90
8.8408205e-94
2.8028826e-97
2.4359698e-100
1.8440571e-103
1.1754232e-106
6.0439479e-110
2.3451395e-113
6.0946043e-117
7.9500034e-121
2.1015016e-120
1.6203949e-116
6.2532316e-113
1.6148418e-109
3.1454772e-106
4.9411324e-103
6.5346436e-100
7.5256434e-97
2.2441351e-93
3.3750479e-90
3.7909211e-87
3.607796e-84
3.071631e-81
2.4186764e-78
1.9773603e-75
1.7081939e-72
1.1219561e-69
4.7283714e-67
6.7885219e-65
9.460702e-63
2.8102069e-61
2.0206331e-60
5.7295152e-59
1.2609228e-58
6.6885342e-59
5.6814083e-60
2.3519428e-61
4.1341183e-63
3.4703555e-65
4.1567516e-68
9.6162969e-71
1.5011981e-73
1.6834823e-76
1.4199511e-79
9.5169578e-83
5.3749023e-86
2.7089555e-89
1.2790934e-92
5.8443077e-96
2.6270043e-99
1.4436741e-102
4.0061166e-105
1.9870917e-108
7.569127e-112
1.9192851e-115
4.352751e-119
1.4393115e-122
3.7737398e-126
7.1229159e-130
8.0689183e-134
8.0239069e-125
6.0350528e-121
2.9589914e-117
1.0068821e-113
2.7150326e-110
6.6546599e-107
2.5087594e-103
6.120077e-100
1.2118378e-96
2.1661101e-93
3.6669584e-90
5.1093301e-87
5.5641098e-84
4.7308803e-81
3.1453251e-78
1.6400919e-75
6.6583492e-73
2.0829826e-70
4.968231e-68
8.8718793e-66
1.1557228e-63
1.0697074e-61
6.8050466e-60
2.698141e-58
5.9283588e-57
6.9171228e-56
1.3047894e-55
5.8001652e-56
2.3694082e-57
2.7704343e-58
1.2246448e-59
1.2692977e-62
6.3811776e-65
1.6064265e-67
1.7563785e-70
2.3043737e-73
2.9268945e-75
4.4884013e-78
5.7046996e-81
6.5041207e-84
6.1935064e-87
4.2233859e-90
1.6864165e-93
1.5938796e-96
1.3084867e-99
9.0223698e-103
5.0082141e-106
2.0942915e-109
5.8582619e-113
8.2182596e-117
2.068548e-116
1.4824732e-112
5.3141604e-109
1.2731555e-105
2.2969148e-102
3.3349567e-99
4.066514e-96
4.3060862e-93
1.0157921e-89
1.4903787e-86
1.5661879e-83
1.3745493e-80
1.0707975e-77
7.6751773e-75
5.7014883e-72
4.4607162e-69
2.6567308e-66
1.0217237e-63
1.2084285e-61
1.4429104e-59
3.8911807e-58
2.4153339e-57
5.793372e-56
1.3067358e-55
6.9523591e-56
5.9251457e-57
2.4178022e-58
4.2667805e-60
3.6541997e-62
4.3763772e-65
1.0722693e-67
1.798472e-70
2.2021591e-73
2.0664658e-76
1.5622412e-79
1.0096092e-82
5.9011345e-86
3.239637e-89
1.7239613e-92
9.0198327e-96
2.6957096e-98
1.9877852e-101
1.0555688e-104
4.476758e-108
1.1949184e-111
3.5457192e-115
1.3368864e-118
3.9850108e-122
8.5611022e-126
1.1059957e-129
6.0323184e-121
3.901808e-117
1.7092743e-113
5.1260564e-110
1.217397e-106
2.475427e-103
8.1611972e-100
1.7892277e-96
3.1437118e-93
4.8913701e-90
7.1851369e-87
9.0246074e-84
9.0005713e-81
7.0344047e-78
4.3248736e-75
2.0883897e-72
7.9052864e-70
2.322715e-67
5.2306966e-65
8.8771029e-63
1.1052558e-60
9.8470638e-59
6.0978162e-57
2.3985733e-55
5.3219919e-54
6.2202679e-53
1.1721776e-52
5.1021687e-53
2.4636714e-54
3.6122611e-55
1.6743399e-56
2.3821613e-59
1.2095837e-61
3.4981201e-64
4.3033237e-67
6.2587529e-70
8.6646751e-72
1.4626442e-74
2.0327932e-77
2.5135804e-80
2.5517123e-83
1.7562346e-86
9.0202207e-90
9.2719281e-93
8.2502644e-96
6.1476109e-99
3.6784594e-102
1.6547369e-105
4.971629e-109
7.4834444e-113
1.7873266e-112
1.1931798e-108
3.9813547e-105
8.8651611e-102
1.4835436e-98
1.9930211e-95
2.2419708e-92
2.1826125e-89
3.9909937e-86
5.7977534e-83
5.7133854e-80
4.6224623e-77
3.2895815e-74
2.1410615e-71
1.4371764e-68
1.018123e-65
5.4999981e-63
1.9402161e-60
1.8786301e-58
1.9130526e-56
4.6983072e-55
2.5044605e-54
5.0947519e-53
1.173444e-52
6.2485136e-53
5.3187564e-54
2.1504928e-55
3.8211604e-57
2.2729228e-59
4.030302e-62
1.0470868e-64
1.8933587e-67
2.54088e-70
2.651945e-73
2.2686254e-76
1.6840696e-79
1.1380603e-82
7.2749516e-86
4.5119396e-89
2.818833e-92
1.0159366e-94
8.2184708e-98
4.8907147e-101
2.295738e-104
6.3172802e-108
2.5442765e-111
1.0875966e-114
3.6737536e-118
8.9799785e-122
1.3251998e-125
3.8997282e-117
2.1262709e-113
8.6144954e-110
2.2831693e-106
4.795276e-103
8.4594553e-100
2.2636199e-96
4.4931898e-93
7.0106867e-90
9.5528803e-87
1.2207996e-83
1.3862517e-80
1.2674765e-77
9.1205993e-75
5.1769006e-72
2.3228664e-69
8.2016085e-67
2.261951e-64
4.804434e-62
7.7455617e-60
9.2419985e-58
7.929264e-56
4.7502322e-54
1.8514518e-52
4.1246356e-51
4.8288325e-50
9.1609408e-50
3.8864899e-50
2.2195085e-51
4.0365918e-52
1.9817465e-53
7.4200424e-56
1.9875932e-58
6.593892e-61
9.1616527e-64
1.4889459e-66
2.2712762e-68
4.2195636e-71
6.4159662e-74
8.5961201e-77
9.2572751e-80
6.2669618e-83
4.2805851e-86
4.7820503e-89
4.6038998e-92
3.6989791e-95
2.3792341e-98
1.1477119e-101
3.6909755e-105
5.9400829e-109
1.3419363e-108
8.3753033e-105
2.6104595e-101
5.4194928e-98
8.4352905e-95
1.0508411e-91
1.0924361e-88
9.7845714e-86
1.3408012e-82
1.9781567e-79
1.8371522e-76
1.3715343e-73
8.9094378e-71
5.2556062e-68
3.1712046e-65
2.0335271e-62
9.9911987e-60
3.2436632e-57
2.552549e-55
2.2079839e-53
4.9477982e-52
2.2509336e-51
3.8829835e-50
9.1620581e-50
4.8509616e-50
4.1218395e-51
1.6617462e-52
2.974311e-54
7.2940483e-57
3.2482862e-59
8.9762545e-62
1.7543209e-64
2.5849872e-67
3.0091588e-70
2.9223082e-73
2.4871225e-76
1.945795e-79
1.4455348e-82
1.0420638e-85
8.0671374e-89
3.3627483e-91
2.9622996e-94
1.9694236e-97
1.0143382e-100
2.7905537e-104
1.5814419e-107
7.6348712e-111
2.9158832e-114
8.0530369e-118
1.3483907e-121
2.1249191e-113
9.8101838e-110
3.6830554e-106
8.6701943e-103
1.6134385e-99
2.5144803e-96
5.3385358e-93
9.66936e-90
1.3487704e-86
1.6136756e-83
1.8004862e-80
1.8493006e-77
1.5534329e-74
1.0305698e-71
5.4183177e-69
2.2553804e-66
7.4329126e-64
1.9242008e-61
3.863184e-59
5.9164922e-57
6.7545292e-55
5.5659143e-53
3.222896e-51
1.2397366e-49
2.7752117e-48
3.2371528e-47
6.2349298e-47
2.556235e-47
1.7343746e-48
3.8419777e-49
2.0313294e-50
1.2517496e-52
2.8394839e-55
1.0783786e-57
1.6989965e-60
3.1110088e-63
5.275695e-65
1.0780065e-67
1.7926704e-70
2.5959936e-73
2.9397954e-76
1.8855776e-79
1.8013033e-82
2.1830533e-85
2.267356e-88
1.9572405e-91
1.3476429e-94
6.9388529e-98
2.3741979e-101
4.0687657e-105
8.658652e-105
4.7430553e-101
1.4857531e-97
2.8894103e-94
4.2004558e-91
4.8697039e-88
4.692111e-85
3.8735409e-82
3.7943554e-79
5.8872595e-76
5.197815e-73
3.5894735e-70
2.128458e-67
1.1363548e-64
6.1339432e-62
3.561466e-59
1.5951559e-56
4.7801659e-54
3.0355953e-52
2.2183972e-50
4.5030208e-49
1.7552869e-48
2.5535396e-47
6.2340522e-47
3.2505535e-47
2.7730653e-48
1.113841e-49
2.0165322e-51
4.8995225e-54
2.2934215e-56
6.758083e-59
1.4327268e-61
2.3228869e-64
3.0278299e-67
3.3334035e-70
3.264073e-73
2.9515874e-76
2.5465455e-79
2.1287274e-82
2.0321483e-85
9.7768637e-88
9.3497299e-91
6.8984398e-94
3.8673765e-97
1.3127554e-100
8.4943309e-104
4.6239294e-107
1.9868517e-110
6.1818574e-114
1.1699582e-117
9.8028665e-110
3.8080063e-106
1.3435496e-102
2.8129158e-99
4.6546896e-96
6.4332739e-93
1.0765991e-89
1.7996692e-86
2.2520503e-83
2.3832716e-80
2.3102201e-77
2.1461219e-74
1.6561905e-71
1.0132218e-68
4.9353085e-66
1.9146564e-63
5.8873053e-61
1.4295453e-58
2.710847e-56
3.9450489e-54
4.3070327e-52
3.4114155e-50
1.9068201e-48
7.2097013e-47
1.6170639e-45
1.8824976e-44
3.674598e-44
1.4600518e-44
1.1768123e-45
3.121046e-46
1.8056547e-47
1.6259056e-49
3.5316825e-52
1.5336252e-54
2.7492682e-57
5.7181372e-60
1.0874197e-61
2.4415204e-64
4.4341197e-67
6.9088613e-70
8.1067862e-73
4.6800479e-76
6.7111689e-79
8.7975243e-82
9.8138985e-85
9.0554349e-88
6.6353239e-91
3.6232944e-94
1.1640058e-97
2.3738673e-101
4.7396806e-101
2.1711947e-97
7.2740304e-94
1.3336718e-90
1.8216192e-87
1.9755068e-84
1.7720201e-81
1.3523921e-78
9.0347611e-76
1.5160961e-72
1.2913727e-69
8.2864868e-67
4.489815e-64
2.1675075e-61
1.0420163e-58
5.4827447e-56
2.2416313e-53
6.2322882e-51
3.1611617e-49
1.9395215e-47
3.5356097e-46
1.1888168e-45
1.4583336e-44
3.6732901e-44
1.8895637e-44
1.6157336e-45
6.4838591e-47
1.1921948e-48
2.8819796e-51
1.4200514e-53
4.4783531e-56
1.0306996e-58
1.8459087e-61
2.6971386e-64
3.3820661e-67
3.8007018e-70
3.9773299e-73
3.9766835e-76
3.8552291e-79
4.5155554e-82
2.5830707e-84
2.5743717e-87
2.1009423e-90
1.2677725e-93
5.4318478e-97
3.968773e-100
2.4275388e-103
1.1719914e-106
4.0938137e-110
8.7178996e-114
3.8047431e-106
1.2834283e-102
4.1482157e-99
7.7716665e-96
1.1493326e-92
1.4160309e-89
1.9014391e-86
2.9586096e-83
3.3448049e-80
3.1607754e-77
2.6897317e-74
2.1884127e-71
1.5345948e-68
8.6743883e-66
3.9165771e-63
1.4151749e-60
4.0774386e-58
9.2945538e-56
1.6625514e-53
2.2987296e-51
2.3990827e-49
1.8282689e-47
9.861845e-46
3.6427256e-44
8.1599828e-43
9.4901331e-42
1.8739614e-41
7.2323408e-42
6.929856e-43
2.1993924e-43
1.3938633e-44
1.7090546e-46
1.5573833e-48
1.901134e-51
3.8912023e-54
9.2660846e-57
1.9939624e-58
4.9134687e-61
9.719279e-64
1.617479e-66
1.9173471e-69
1.3625315e-72
2.2126622e-75
3.1205567e-78
3.7178677e-81
3.6410622e-84
2.8167391e-87
1.6173488e-90
4.7139184e-94
1.1630253e-97
2.1691993e-97
8.1763185e-94
3.0321423e-90
5.2860191e-87
6.837703e-84
6.9859624e-81
5.8663309e-78
4.1616536e-75
2.5628958e-72
3.3357166e-69
2.811626e-66
1.6888864e-63
8.3797458e-61
3.6565167e-58
1.5592958e-55
7.4421827e-53
2.7834534e-50
7.1843148e-48
2.882675e-46
1.477024e-44
2.4236434e-43
6.9890352e-43
7.2229474e-42
1.8729211e-41
9.5225222e-42
8.1528991e-43
3.279187e-44
5.6015618e-46
1.4813878e-48
7.7067526e-51
2.6085528e-53
6.5415518e-56
1.2967482e-58
2.1334761e-61
3.0429102e-64
3.9302372e-67
4.7566428e-70
5.504037e-73
6.1674444e-76
3.8023719e-78
5.6072953e-81
6.1336571e-84
5.5418577e-87
3.5694114e-90
1.9497306e-93
1.6025646e-96
1.096331e-99
5.9126358e-103
2.3114699e-106
5.5265666e-110
1.2821208e-102
3.6150981e-99
1.1271343e-95
1.8961864e-92
2.5161202e-89
2.773068e-86
2.8009414e-83
4.1307791e-80
4.2555742e-77
3.6105047e-74
2.7113833e-71
1.9358748e-68
1.2362077e-65
6.4647819e-63
2.7096269e-60
9.1192108e-58
2.4593651e-55
5.2744054e-53
8.91003e-51
1.1694817e-48
1.1660021e-46
8.5473459e-45
4.4548904e-43
1.5989077e-41
3.5660329e-40
4.1432163e-39
8.2602614e-39
3.1015217e-39
3.5566928e-40
1.3362241e-40
9.3136568e-42
1.4864929e-43
3.2390428e-45
2.0607219e-48
4.8363616e-51
1.3289808e-53
3.2654168e-55
8.8180029e-58
1.8916265e-60
3.3235775e-63
3.8004449e-66
3.6793163e-69
6.4541074e-72
9.7279021e-75
1.2278297e-77
1.2640468e-80
1.0215679e-83
6.1001145e-87
1.5476748e-90
4.7089415e-94
8.1669793e-94
2.4855321e-90
1.0632254e-86
1.78209e-83
2.2063721e-80
2.1441903e-77
1.6994708e-74
1.1280469e-71
6.4309009e-69
6.1300956e-66
5.354035e-63
3.0461245e-60
1.3891327e-57
5.4794877e-55
2.0649134e-52
8.9715442e-50
3.0612177e-47
7.3433401e-45
2.3011098e-43
9.7614516e-42
1.4405162e-40
3.5817764e-40
3.0971419e-39
8.2541871e-39
4.1561231e-39
3.5628524e-40
1.4407333e-41
1.9211442e-43
6.6503513e-46
3.6664088e-48
1.3356865e-50
3.6640705e-53
8.0707027e-56
1.495287e-58
2.4311474e-61
3.6126769e-64
5.0471545e-67
6.7552017e-70
9.3142626e-73
6.5967192e-75
1.0549304e-77
1.2758067e-80
1.2584525e-83
8.4860056e-87
6.1110546e-90
5.6077354e-93
4.2726546e-96
2.564773e-99
1.1155648e-102
2.9706958e-106
3.6105333e-99
8.4229499e-96
2.5661705e-92
3.9127708e-89
4.6760378e-86
4.6314763e-83
3.9526764e-80
4.8786634e-77
4.6145325e-74
3.5374848e-71
2.3600769e-68
1.4814878e-65
8.6322985e-63
4.1852652e-60
1.6317646e-57
5.1189425e-55
1.2923022e-52
2.6101682e-50
4.1657644e-48
5.1916704e-46
4.9438664e-44
3.4826421e-42
1.7512534e-40
6.0945628e-39
1.3485062e-37
1.5643877e-36
3.1423826e-36
1.1493983e-36
1.5926e-37
6.9854816e-38
5.387473e-39
1.1031693e-40
4.0671597e-42
1.9637607e-45
5.3063521e-48
1.6949372e-50
4.8036268e-52
1.419773e-54
3.2813386e-57
5.9737415e-60
6.1053849e-63
8.8512058e-66
1.6672771e-68
2.6612733e-71
3.5143961e-74
3.7589101e-77