/*--------------------------------*- C++ -*----------------------------------*\
  =========                 |
  \\      /  F ield         | OpenFOAM: The Open Source CFD Toolbox
   \\    /   O peration     | Website:  https://openfoam.org
    \\  /    A nd           | Version:  9
     \\/     M anipulation  |
\*---------------------------------------------------------------------------*/
FoamFile
{
    format      ascii;
    class       volScalarField;
    location    "0.01";
    object      p_rgh;
}
// * * * * * * * * * * * * * * * * * * * * * * * * * * * * * * * * * * * * * //

dimensions      [1 -1 -2 0 0 0 0];

internalField   nonuniform List<scalar> 
10000
(
0
0.027795915
0.058773501
0.092398426
0.13043521
0.17268324
0.21932067
0.27002417
0.32519038
0.38452397
0.44777646
0.51473331
0.58494613
0.65806888
0.73368788
0.81115366
0.88994533
0.96948113
1.0491886
1.1277899
1.204688
1.2791618
1.3505996
1.4185276
1.4825104
1.5421404
1.5971055
1.6471734
1.6921453
1.7318524
1.7661227
1.7945053
1.8167393
1.8359161
1.8522147
1.8645289
1.8726981
1.8769283
1.8776369
1.8753453
1.8706048
1.8640169
1.8562277
1.8478408
1.83941
1.8314747
1.8244818
1.8188291
1.8148575
1.812728
1.8125702
1.8143644
1.817994
1.8232026
1.8296906
1.8370918
1.8449309
1.8527168
1.85989
1.8658694
1.8700147
1.8716914
1.8703276
1.8654617
1.8566232
1.8437055
1.8268109
1.8071214
1.7844183
1.7555596
1.7208042
1.6806105
1.635215
1.584816
1.5295475
1.4695994
1.4052485
1.3368832
1.2650009
1.1901166
1.1128392
1.033848
0.95367196
0.87377737
0.79458229
0.71670322
0.6406751
0.56708326
0.49633411
0.42878767
0.36487321
0.30492611
0.24914233
0.19767026
0.15048189
0.10761393
0.06898722
0.034598053
0.0038014319
-0.023789766
-0.026635933
0.0015767883
0.03359627
0.069193266
0.10877681
0.15300234
0.20168454
0.25409548
0.31109124
0.37228347
0.43747822
0.50623377
0.57822671
0.65309535
0.73024814
0.80915694
0.88927643
0.96990188
1.050657
1.1301723
1.2080077
1.2834356
1.355885
1.4248437
1.4898114
1.550368
1.6061751
1.6569304
1.702397
1.7424342
1.776945
1.8057764
1.8291173
1.8479709
1.8628846
1.8736706
1.8803611
1.8832151
1.8826357
1.8791363
1.873276
1.8656514
1.8569165
1.8476904
1.8385071
1.8299177
1.8223992
1.8163333
1.8120898
1.8098307
1.8096759
1.811601
1.8154975
1.8211104
1.828107
1.8361412
1.8447399
1.8534006
1.8615342
1.868547
1.8738268
1.8767224
1.8766628
1.8731593
1.8657832
1.8543702
1.8388705
1.8194894
1.7956612
1.7663496
1.7313777
1.6908908
1.644989
1.5938712
1.5377639
1.4769026
1.4115896
1.3422216
1.269316
1.1934457
1.1152359
1.0353782
0.95408446
0.87310659
0.79262293
0.71330429
0.63572021
0.56044199
0.48793889
0.41857285
0.35277517
0.29095293
0.2333623
0.18024679
0.13120298
0.086551576
0.046469135
0.010569003
-0.021434765
-0.049790604
-0.057085709
-0.028248623
0.0044672322
0.041018048
0.081873988
0.12709102
0.176966
0.23222117
0.29158495
0.35510398
0.42248804
0.49344871
0.56768871
0.64468462
0.72392379
0.80490723
0.88697972
0.96945625
1.0520183
1.1332799
1.2127728
1.2898436
1.3639164
1.4344209
1.5008389
1.5627303
1.6196964
1.6713962
1.7176017
1.7581826
1.7930505
1.8221844
1.845806
1.8644436
1.8783219
1.8876814
1.8928114
1.8940571
1.8918375
1.8866824
1.8792077
1.8700425
1.8598405
1.8492523
1.838839
1.8291648
1.8207567
1.8140026
1.8092797
1.8067784
1.8066189
1.8087769
1.8131153
1.8194062
1.8272958
1.8364132
1.8462542
1.8562843
1.8659184
1.8745048
1.8814327
1.8859417
1.8875543
1.8856676
1.8798549
1.8698346
1.8553595
1.8361776
1.812054
1.7824464
1.747105
1.7060827
1.6594704
1.6074041
1.550134
1.4879398
1.4211621
1.3502584
1.2757509
1.1982353
1.1183429
1.036723
0.95381341
0.87089594
0.78841881
0.70704773
0.62736272
0.54991186
0.47520947
0.40366827
0.33569963
0.27166062
0.21177233
0.15619061
0.10565941
0.060005694
0.018880524
-0.017847748
-0.050476914
-0.079139362
-0.090626333
-0.061743647
-0.028717857
0.0087821275
0.050914158
0.097973515
0.14995077
0.2068739
0.26840942
0.33426183
0.40411253
0.47769249
0.55453386
0.63414546
0.71606663
0.7996918
0.88436055
0.96945154
1.0543736
1.1381341
1.219984
1.299342
1.3755951
1.4481463
1.5164621
1.580048
1.638454
1.6913341
1.7384565
1.7796607
1.8148507
1.8440413
1.8674141
1.8852893
1.8979632
1.905745
1.9090142
1.9082118
1.9038205
1.8964182
1.8866927
1.8753367
1.8630225
1.8504453
1.8382368
1.8269865
1.8172632
1.8094943
1.8040709
1.8012131
1.8010343
1.8035388
1.8085596
1.8158597
1.8250616
1.8357581
1.8474374
1.8594711
1.8712362
1.8820138
1.8912077
1.8979633
1.9017268
1.9018829
1.8979308
1.8894967
1.8762526
1.8578139
1.8338884
1.8042151
1.76858
1.7269485
1.6794016
1.6261037
1.5673586
1.5034899
1.43486
1.3619393
1.2852765
1.2055064
1.1232688
1.0391404
0.95385767
0.86834949
0.78325911
0.69925027
0.61691432
0.53680364
0.45946373
0.38537091
0.31496557
0.24860913
0.18658465
0.12920848
0.076833094
0.02947311
-0.012925168
-0.050486711
-0.083430578
-0.1121125
-0.12819509
-0.099664916
-0.06646655
-0.028319328
0.01515617
0.063894459
0.11780378
0.17689886
0.24083294
0.30932028
0.38206271
0.4586281
0.53853998
0.621365
0.70654601
0.79342891
0.88138102
0.96972548
1.0577377
1.1447917
1.2296828
1.3119639
1.3909883
1.4661387
1.5368328
1.602511
1.6626939
1.7170237
1.7652327
1.8071207
1.8425895
1.8716683
1.894501
1.9113347
1.9224912
1.9283394
1.9293191
1.9259424
1.9187846
1.9084976
1.8958402
1.8815937
1.8664912
1.8512789
1.8366757
1.8233271
1.8118386
1.8026977
1.7963282
1.7929985
1.7928059
1.7957622
1.8016985
1.8103616
1.8213581
1.8341753
1.848274
1.8629736
1.8775573
1.8912584
1.9033221
1.9129533
1.9194536
1.9221954
1.9205531
1.9140488
1.9023081
1.8849273
1.8615689
1.83199
1.7960318
1.7536989
1.7050926
1.65036
1.5898012
1.5237836
1.4527586
1.3772505
1.2978568
1.2152216
1.1299733
1.0425365
0.95413132
0.86540459
0.77706933
0.6898012
0.60420406
0.52087973
0.44044948
0.3634111
0.29017048
0.22117205
0.15679574
0.097323464
0.043021748
-0.0060045126
-0.049638845
-0.087930167
-0.12102755
-0.14935525
-0.17061341
-0.14268714
-0.109537
-0.07059645
-0.025884372
0.024486155
0.080528466
0.14202245
0.2086561
0.28016306
0.35614243
0.43612368
0.51968412
0.60629867
0.69532991
0.78614651
0.87807317
0.97031926
1.0619999
1.1535207
1.2419887
1.3278393
1.4102797
1.4886252
1.5622143
1.6304322
1.6927703
1.7488305
1.7982995
1.8409551
1.8766945
1.9055322
1.9275787
1.943057
1.9523174
1.9557887
1.9539591
1.9474058
1.936814
1.9229411
1.9066218
1.8887324
1.8701075
1.8515596
1.8338909
1.8178452
1.804091
1.7931918
1.785604
1.7816436
1.7814326
1.7849797
1.7921101
1.8025172
1.8157982
1.8313683
1.848558
1.8666516
1.8847626
1.9021554
1.9178947
1.9311144
1.9409962
1.9468649
1.9480121
1.9439242
1.9341117
1.91808
1.8954973
1.8661691
1.8299441
1.786805
1.7368831
1.6803851
1.6176409
1.5490554
1.4751506
1.3964955
1.3137067
1.2274962
1.1386652
1.04677
0.95469135
0.86207368
0.76980263
0.67861977
0.58915668
0.50205628
0.41799743
0.3375309
0.26107874
0.18910571
0.12200761
0.06018657
0.0038858272
-0.046779725
-0.091653822
-0.13064839
-0.16381095
-0.19156184
-0.2193159
-0.19166993
-0.15830843
-0.1186445
-0.072715798
-0.02050025
0.037801661
0.10192694
0.17162767
0.24649354
0.32611785
0.41006865
0.49784387
0.58881539
0.6823555
0.77781451
0.87444282
0.97143853
1.0680312
1.1636357
1.2568662
1.347116
1.4337016
1.5158873
1.5929387
1.6641944
1.7290999
1.787202
1.8381493
1.8817003
1.91772
1.9461833
1.9671878
1.9809698
1.987906
1.9884836
1.9832413
1.972839
1.9580807
1.9398495
1.9190687
1.8967009
1.8737071
1.8510147
1.8295208
1.8100962
1.7935008
1.7803913
1.7712881
1.7665349
1.7662958
1.7705869
1.7792285
1.791858
1.8079688
1.8269483
1.8479863
1.8703018
1.892849
1.9147314
1.93495
1.9525161
1.966547
1.9762805
1.9808526
1.9796118
1.9720759
1.9577275
1.9361755
1.9072125
1.8707113
1.8266635
1.7752235
1.7166593
1.6513414
1.5797178
1.5023331
1.4198328
1.3329131
1.2422986
1.1486829
1.0527096
0.95576545
0.85841258
0.7614236
0.66559787
0.57164474
0.48024553
0.39204514
0.30759441
0.22744386
0.15217592
0.082112251
0.017633699
-0.040877854
-0.093304044
-0.13945119
-0.17919713
-0.21256194
-0.24033908
-0.27486431
-0.24697227
-0.21342858
-0.17306665
-0.12571097
-0.07154139
-0.010792844
0.05630618
0.12937844
0.20797731
0.29178131
0.38025759
0.4727902
0.56875474
0.66751053
0.7683319
0.87042769
0.97297838
1.0751256
1.175999
1.2746477
1.370066
1.4615484
1.5482611
1.6293984
1.7042443
1.7721826
1.8327012
1.8854031
1.9299992
1.9663013
1.994251
2.0139579
2.0256874
2.0298359
2.026926
2.0175914
2.0026015
1.9828706
1.9593986
1.9332208
1.9054071
1.8770628
1.8492865
1.823102
1.7995239
1.779436
1.7635939
1.7526289
1.7469264
1.7466716
1.751891
1.7623686
1.7777303
1.7973571
1.8205053
1.8462592
1.873638
1.9015484
1.9289026
1.9545935
1.9774347
1.9964374
2.0107128
2.0193674
2.0216206
2.0168634
2.0045525
1.9842719
1.9557888
1.918997
1.8739152
1.8207028
1.7596874
1.6913056
1.6160674
1.5345791
1.447549
1.3557629
1.2600098
1.1609776
1.0597089
0.95722711
0.85436857
0.75193576
0.65073832
0.5515697
0.45518478
0.36225784
0.27335274
0.18903474
0.11004157
0.036654919
-0.030726404
-0.091728328
-0.14610236
-0.1936272
-0.23417054
-0.26781539
-0.2957717
-0.33658456
-0.30909609
-0.2755673
-0.23435083
-0.18549074
-0.1291895
-0.065666534
0.0047034657
0.081495836
0.16430922
0.25283976
0.34636178
0.44426958
0.54592761
0.65062893
0.7575955
0.86600689
0.97496123
1.0834738
1.1905691
1.2955381
1.3969608
1.4941397
1.5861296
1.6720523
1.7511184
1.8226337
1.8860124
1.9407826
1.9865826
2.0231783
2.0505013
2.0686688
2.0779606
2.0787959
2.0717539
2.0575802
2.0371656
2.0115253
1.9817692
1.9490838
1.9147052
1.8798986
1.8459592
1.8140847
1.7854587
1.76114
1.741989
1.728747
1.7218811
1.7216055
1.7279735
1.7407319
1.7593901
1.7832732
1.8114278
1.8428581
1.8763913
1.9107494
1.944658
1.9768769
2.0060401
2.0310292
2.0507965
2.0642916
2.0706469
2.0691905
2.0593107
2.0405567
2.0126673
1.975535
1.9292459
1.8739959
1.8101229
1.7381372
1.6586379
1.5723354
1.4800163
1.382541
1.2808024
1.1754929
1.0679888
0.95912394
0.84987209
0.74115344
0.63382698
0.52872352
0.42662825
0.32831225
0.2343922
0.14538304
0.062276922
-0.014860769
-0.085435974
-0.14918759
-0.20572968
-0.25477681
-0.29614378
-0.32980431
-0.35733588
-0.40420348
-0.37864649
-0.34533412
-0.30327784
-0.25273768
-0.19397823
-0.12740079
-0.053425337
0.027596142
0.11526519
0.20889652
0.30802751
0.41199395
0.52008177
0.63151984
0.7454966
0.86111111
0.97735325
1.093176
1.2075759
1.3196025
1.4280521
1.5318257
1.6299467
1.7214582
1.8054714
1.881189
1.947925
2.0051127
2.0523171
2.089266
2.1158779
2.1322574
2.1386858
2.1356284
2.1237465
2.103887
2.0770535
2.044386
2.0071381
1.9666772
1.9244493
1.8819056
1.8405558
1.8018335
1.7671242
1.7376862
1.7145253
1.6985111
1.6902236
1.6899525
1.6977018
1.7132307
1.7358746
1.7648628
1.7990912
1.8373231
1.8782337
1.9203161
1.962086
2.0020919
2.0388118
2.0708717
2.0970963
2.1162964
2.1274737
2.1298877
2.122877
2.1059349
2.0787709
2.0412707
1.9935543
1.9358813
1.8686539
1.7924625
1.7080143
1.6161104
1.5176403
1.4135425
1.3047625
1.1924088
1.0776406
0.96148344
0.84494781
0.72902553
0.61470425
0.50290019
0.39439636
0.29004845
0.19055361
0.096647099
0.0085616249
-0.072822602
-0.14704217
-0.21389437
-0.272857
-0.3235788
-0.36579928
-0.39918349
-0.4247962
-0.48178111
-0.4572944
-0.42392102
-0.38070994
-0.32810623
-0.26659895
-0.19663842
-0.11859296
-0.032876735
0.059992831
0.15941627
0.26485774
0.37561122
0.49091211
0.60995494
0.73184676
0.8555788
0.98007657
1.1042497
1.2269896
1.3471694
1.4636811
1.5750399
1.6802718
1.778289
1.8680707
1.9486928
2.0193506
2.0793754
2.1282567
2.1656673
2.1914866
2.2058009
2.2089044
2.2013168
2.1837835
2.1572473
2.1228336
2.0818525
2.035748
1.9860738
1.9345035
1.8827327
1.832523
1.7855845
1.7435508
1.7079143
1.6798839
1.6605362
1.6505333
1.6502876
1.6597271
1.6785644
1.7060591
1.7411907
1.7827296
1.8291545
1.8788941
1.9301786
1.9812978
2.030519
2.0761192
2.116516
2.1503315
2.1762312
2.1930934
2.2000509
2.1963572
2.1814816
2.1551212
2.1171637
2.0677644
2.00725
1.9361229
1.8550337
1.764823
1.6664104
1.5608025
1.4490851
1.3322103
1.2116976
1.0886003
0.96407701
0.8392709
0.71524643
0.59304676
0.47368358
0.35801423
0.24691633
0.1411411
0.041458795
-0.051788961
-0.13787731
-0.21619912
-0.2864486
-0.34814398
-0.40088376
-0.44428905
-0.47775781
-0.50223964
-0.5710445
-0.54665941
-0.5123891
-0.46741897
-0.41238081
-0.34776252
-0.273948
-0.19136254
-0.1005016
-0.0018767257
0.10394858
0.21639746
0.33469889
0.45805891
0.5856072
0.71634652
0.84919467
0.98303848
1.1167074
1.248957
1.3784815
1.5041579
1.624289
1.737754
1.8433083
1.939783
2.0261161
2.1013664
2.1647417
2.2156339
2.2536385
2.2785805
2.2905338
2.2898116
2.2769722
2.2528435
2.2184968
2.1752067
2.1244665
2.0679347
2.0073776
1.9447236
1.8819742
1.8211949
1.7644041
1.7135498
1.6704547
1.6365527
1.6131915
1.6011321
1.6008718
1.6123934
1.6352376
1.6685866
1.7111472
1.7614396
1.817682
1.8779761
1.9402219
2.0023609
2.0624755
2.1185445
2.168735
2.2114547
2.2452007
2.2686753
2.2808889
2.2810203
2.2684897
2.2429972
2.2044596
2.1530558
2.0891782
2.0134621
1.9266615
1.8297317
1.7237682
1.6099409
1.4894591
1.3634453
1.2335796
1.1009801
0.96693166
0.83273764
0.69958671
0.56854641
0.44071464
0.31703072
0.19841187
0.085656019
-0.020448361
-0.1194034
-0.21062094
-0.29352244
-0.36757102
-0.43237169
-0.48748131
-0.53257794
-0.56699991
-0.59145622
-0.67429939
-0.64765559
-0.61144326
-0.56420273
-0.50630097
-0.43808593
-0.35996861
-0.27242302
-0.17591529
-0.07093511
0.041912144
0.16210096
0.2887622
0.42106282
0.55803509
0.69863485
0.84173625
0.98613449
1.1305428
1.2735741
1.4137941
1.5498548
1.6801442
1.8030969
1.9173534
2.021591
2.1145839
2.1952202
2.2625474
2.315837
2.3546025
2.378604
2.3878855
2.3827751
2.3638724
2.3320955
2.2886744
2.2350516
2.1728978
2.1041095
2.0307246
1.9549684
1.8791839
1.8058029
1.7372341
1.675794
1.6237266
1.5827525
1.5544885
1.5399549
1.539672
1.5536877
1.5814059
1.6217979
1.6733429
1.7341765
1.8021774
1.8750244
1.9503226
2.0255581
2.0984864
2.1668386
2.2284837
2.281551
2.3243789
2.3555113
2.3737791
2.3782947
2.3684333
2.3438772
2.3045854
2.2507873
2.1829647
2.1018595
2.0084039
1.903697
1.7889916
1.6656733
1.5350321
1.3986449
1.2580889
1.1147393
0.96996587
0.82520294
0.68177959
0.54083979
0.40357135
0.27095723
0.14402224
0.023572792
-0.089551809
-0.19480968
-0.29161752
-0.37949607
-0.45778349
-0.5261765
-0.58421652
-0.63158038
-0.66791022
-0.69464651
-0.78845546
-0.75988714
-0.72157335
-0.67169955
-0.61047806
-0.53825938
-0.4554599
-0.3624908
-0.25978348
-0.14783587
-0.027254915
0.10136664
0.23720328
0.37933553
0.52674478
0.67833497
0.83292447
0.98918554
1.1456774
1.300904
1.4532992
1.6012621
1.7432237
1.8770495
2.0013532
2.1146088
2.2153666
2.3023049
2.3742909
2.4304558
2.4702154
2.4932444
2.4995259
2.4894055
2.4635539
2.4229752
2.3690478
2.3034087
2.2279368
2.1447981
2.0563429
1.9651367
1.8739207
1.7855492
1.7029036
1.6287479
1.5658008
1.5162729
1.482051
1.4644714
1.4641829
1.4812014
1.5148683
1.563827
1.6262419
1.6997606
1.7818389
1.8696714
1.9603926
2.0510884
2.1390744
2.2217731
2.2967336
2.36181
2.4151323
2.4550996
2.4803466
2.4898677
2.4830079
2.4594386
2.4191497
2.3624362
2.2899242
2.2024989
2.1012885
1.9875908
1.8628268
1.7286158
1.5863046
1.4380207
1.2852838
1.129732
0.97288376
0.81624511
0.66131989
0.50943034
0.3617164
0.21926258
0.08319604
-0.045657196
-0.16646357
-0.27867859
-0.38165882
-0.47493708
-0.55794605
-0.63032986
-0.69168532
-0.74168989
-0.78014126
-0.80875663
-0.91404139
-0.88390535
-0.8433321
-0.79048726
-0.72562534
-0.64908078
-0.5611883
-0.46230879
-0.35287403
-0.23336627
-0.10432662
0.03344923
0.17930024
0.33222897
0.49118559
0.65501445
0.82239985
0.99191534
1.1620075
1.3310393
1.497241
1.6587068
1.8141323
1.9604092
2.0963342
2.2200643
2.3298645
2.4241832
2.5016972
2.5613542
2.6024205
2.6244727
2.6274286
2.6116387
2.5778536
2.5271664
2.4610989
2.3815266
2.2905808
2.1907126
2.0846159
1.9752314
1.8657607
1.7595503
1.6600082
1.5705311
1.4943865
1.4344339
1.3929878
1.3716684
1.3713835
1.3921151
1.4330487
1.4924117
1.5679452
1.6567873
1.7557228
1.8613837
1.9703542
2.0792367
2.1848757
2.2843156
2.374748
2.4537287
2.5191471
2.5692365
2.6024666
2.6176632
2.6141331
2.5915468
2.5499473
2.4897284
2.4116789
2.3168598
2.2066015
2.0824534
1.9460897
1.7994127
1.6436554
1.4818485
1.3152924
1.1459106
0.97548445
0.80561106
0.63782996
0.47372102
0.31448739
0.16129363
0.015194012
-0.12282019
-0.25209754
-0.37183696
-0.4815571
-0.58069196
-0.66880142
-0.74550112
-0.81050205
-0.86343833
-0.9041405
-0.93433733
-1.052614
-1.0204452
-0.97732653
-0.92129108
-0.85254624
-0.77132942
-0.67793691
-0.57271187
-0.45603878
-0.32838516
-0.19030847
-0.042567894
0.11423197
0.27903275
0.45073375
0.62807531
0.80966951
0.99398526
1.1793673
1.3639761
1.5458422
1.7228794
1.8931399
2.0539907
2.2034008
2.3392936
2.4596521
2.562667
2.6467798
2.7106968
2.7534816
2.7746058
2.7739241
2.7517487
2.7089012
2.6466189
2.5665927
2.4709503
2.3621008
2.2427892
2.1160939
1.9853616
1.8542628
1.7267733
1.6069309
1.4989446
1.4067979
1.3340708
1.283743
1.2578752
1.2575891
1.2828508
1.3326482
1.4047841
1.4962867
1.6036201
1.7228064
1.8497351
1.9803186
2.1105661
2.2368203
2.3557032
2.4640666
2.5591397
2.6385081
2.70017
2.7424656
2.7640659
2.7642014
2.7425349
2.6991893
2.6347092
2.5500723
2.4465594
2.325732
2.1894191
2.0395658
1.878286
1.7076626
1.5302826
1.3480948
1.1631672
0.97746836
0.7928269
0.61086009
0.43323179
0.26120173
0.09615642
-0.060877787
-0.20888886
-0.3472071
-0.47507799
-0.59202686
-0.69750143
-0.79111035
-0.87244279
-0.94132017
-0.9974529
-1.0406564
-1.0728781
-1.2043039
-1.1700366
-1.1242872
-1.0648988
-0.99200624
-0.90581395
-0.80658309
-0.69459409
-0.57017528
-0.43378941
-0.28605682
-0.12769796
0.041122105
0.21892203
0.4045785
0.59679522
0.79411019
0.99493253
1.1974333
1.3995704
1.5991227
1.7937879
1.9812277
2.1588104
2.323776
2.4738001
2.6065437
2.7198529
2.8118503
2.8809653
2.9260244
2.9463449
2.9416979
2.9123433
2.8591784
2.7836545
2.6876575
2.5735416
2.444032
2.3021972
2.1514952
1.9957243
1.8390385
1.6861674
1.5419523
1.411501
1.2997701
1.2113286
1.1499601
1.1183978
1.1180878
1.1490087
1.209778
1.2976478
1.4087615
1.5385902
1.6821481
1.8344545
1.9905927
2.145886
2.2961157
2.4374831
2.5665067
2.6800778
2.7754575
2.8503442
2.9028939
2.9316761
2.9358062
2.9149627
2.8693617
2.7997267
2.7072438
2.5934343
2.4601944
2.309716
2.1442859
1.9662309
1.7784046
1.5833792
1.3834813
1.1810374
0.97824766
0.77712988
0.57948399
0.38697074
0.20096683
0.022872722
-0.14612615
-0.30475761
-0.45274581
-0.58936459
-0.71400326
-0.82621683
-0.92561705
-1.0119273
-1.0849239
-1.1444503
-1.1902858
-1.2245854
-1.3699489
-1.3334633
-1.2849844
-1.2220589
-1.1448202
-1.0534351
-0.94806684
-0.82891327
-0.69627703
-0.55061539
-0.39255679
-0.22317145
-0.040973813
0.15090446
0.35173242
0.56026246
0.77498227
0.9941387
1.2157464
1.4375528
1.6571038
1.8718149
2.0789307
2.2758681
2.4587923
2.6252897
2.7725937
2.8980997
2.9995342
3.0750159
3.1230792
3.142793
3.1338272
3.0964482
3.0316236
2.941016
2.8267596
2.6914597
2.538184
2.3703615
2.1917942
2.0067645
1.8199429
1.6367806
1.4631423
1.3052928
1.1694002
1.0613972
0.98621563
0.94750342
0.94718164
0.98526518
1.0598005
1.1671903
1.3024527
1.4597438
1.6327426
1.8153058
2.0015512
2.1860927
2.3641242
2.5314107
2.6841569
2.8189212
2.9326322
3.0226579
3.0868623
3.1236701
3.132099
3.1118695
3.0633096
2.9873345
2.8854231
2.7594137
2.6115972
2.4446026
2.2612109
2.0637986
1.8562776
1.641206
1.4212853
1.1991631
0.97726847
0.75781993
0.54277312
0.33394131
0.13284705
-0.059402798
-0.24183919
-0.41144501
-0.56972723
-0.71559916
-0.84837088
-0.96774637
-1.0732624
-1.1647902
-1.2421271
-1.3051536
-1.3537113
-1.3902638
-1.550164
-1.5114797
-1.4601431
-1.3935937
-1.3119129
-1.2151562
-1.1033877
-0.97675046
-0.83550311
-0.67996685
-0.51048008
-0.32714603
-0.13280555
0.073803855
0.29103336
0.51740798
0.75128887
0.99076535
1.2336628
1.4775498
1.7197318
1.9572325
2.1868531
2.4061158
2.6098794
2.7956411
2.9600698
3.1000463
3.2128271
3.2961222
3.3481033
3.3675316
3.3539393
3.3076263
3.2296436
3.1218419
2.9866875
2.8271624
2.6466936
2.449076
2.2384053
2.0193412
1.7970997
1.577816
1.368493
1.176944
1.0110246
0.87846132
0.78586894
0.73815749
0.73782576
0.78494223
0.8768781
1.0087458
1.1740078
1.3649937
1.5736875
1.79239
2.0140785
2.2326181
2.4427201
2.6397612
2.8196393
2.9786026
3.1132295
3.2204797
3.2978994
3.3436821
3.3567339
3.3367842
3.2843166
3.200536
3.0872692
2.9467942
2.7818554
2.595576
2.3913362
2.1716225
1.9415569
1.703688
1.4611692
1.2169646
0.97374482
0.73398724
0.49981936
0.27309999
0.05559717
-0.15132097
-0.3459854
-0.52956093
-0.69926826
-0.85500783
-0.99632771
-1.1230976
-1.2350156
-1.3319231
-1.4137548
-1.4803719
-1.5317372
-1.5704787
-1.745744
-1.7047492
-1.6505834
-1.5804228
-1.4942358
-1.3919771
-1.2736495
-1.1393358
-0.98918401
-0.82340905
-0.64233776
-0.44646769
-0.23702176
-0.014085312
0.22104422
0.46691069
0.72180142
0.98371379
1.2503292
1.519007
1.7867426
2.0501895
2.3058351
2.5502252
2.778507
2.9868721
3.1714871
3.3286829
3.4551405
3.5480255
3.6050835
3.6247512
3.6063239
3.5500439
3.4571061
3.3296897
3.1706383
2.9834697
2.7720682
2.54058
2.2932871
2.0349224
1.7710997
1.5087058
1.2560273
1.0227554
0.81917173
0.65547186
0.54060524
0.48128392
0.48096798
0.53966814
0.65384138
0.81682389
1.0197738
1.252462
1.5045098
1.7663025
2.0295206
2.2872833
2.5339965
2.7649019
2.9757071
3.1623163
3.3208225
3.447712
3.5401517
3.5959336
3.6138536
3.5936894
3.5361353
3.442756
3.3158041
3.1580981
2.9729602
2.7640792
2.5353133
2.2904725
2.0343826
1.7705396
1.5024523
1.2334607
0.96653057
0.70431889
0.44916638
0.20299831
-0.032481896
-0.25571819
-0.46547463
-0.66161047
-0.84288676
-1.0088155
-1.1590854
-1.2934854
-1.4119503
-1.5143529
-1.600684
-1.6709232
-1.7251167
-1.7661064
-1.957368
-1.9141194
-1.8572108
-1.7834638
-1.6927591
-1.5849899
-1.4600703
-1.317958
-1.1586582
-0.98230618
-0.78917773
-0.57976257
-0.35482523
-0.11432386
0.14014146
0.40715665
0.68499804
0.97163807
1.264611
1.56101
1.8575353
2.1505079
2.435904
2.709513
2.9663648
3.2012065
3.4096615
3.5873755
3.7303245
3.8350287
3.8987087
3.9193786
3.895973
3.8285397
3.7184594
3.5686112
3.3822181
3.1635705
2.917216
2.6475867
2.3589457
2.055748
1.7435175
1.4296591
1.1240019
0.83866125
0.58725693
0.38350552
0.23975241
0.16526001
0.16494901
0.23878816
0.38182032
0.58483341
0.83556654
1.1202839
1.4253051
1.7385152
2.0501402
2.3527434
2.6407996
2.9098338
3.1556
3.3736927
3.5595231
3.7088703
3.818503
3.8854564
3.9083782
3.8872162
3.8230315
3.7178242
3.5744021
3.3962072
3.1872374
2.9518661
2.694521
2.4204512
2.1345956
1.8411991
1.5442999
1.2475803
0.95431506
0.66736788
0.38924016
0.12196767
-0.13280611
-0.37362172
-0.59885056
-0.80857042
-1.0019748
-1.1784652
-1.3378861
-1.4800755
-1.6050903
-1.7129977
-1.803792
-1.8776292
-1.9345982
-1.9778411
-2.1858266
-2.1404381
-2.0808611
-2.003615
-1.9085233
-1.7953593
-1.6639043
-1.5139479
-1.3453823
-1.1582147
-0.95261838
-0.72895431
-0.48796509
-0.22869241
0.046405561
0.33621147
0.63905527
0.95283285
1.2749613
1.602307
1.9312624
2.2577951
2.5772558
2.8846489
3.1752173
3.4410571
3.6776837
3.8798615
4.0427338
4.1620874
4.2344431
4.2571732
4.2287253
4.1488335
4.0189098
3.8433056
3.6254093
3.3708102
3.0851576
2.7732398
2.4388119
2.0852826
1.7172591
1.3421419
0.97139904
0.62041375
0.3074267
0.051385469
-0.13047712
-0.22512718
-0.22546379
-0.13150333
0.049671938
0.30499819
0.61729145
0.96762628
1.337735
1.712169
2.0795499
2.4324499
2.7662824
3.0776026
3.3626592
3.6166839
3.8340532
4.0091861
4.1386767
4.218122
4.2460852
4.2228267
4.1499695
4.0301341
3.8667901
3.6641378
3.4269926
3.1606277
2.8695905
2.5617404
2.2418068
1.9148454
1.5855043
1.2578021
0.93540141
0.62139549
0.3182434
0.028083035
-0.2473679
-0.50696008
-0.74819775
-0.97213828
-1.1779797
-1.3652856
-1.5339546
-1.6840208
-1.8155637
-1.9288583
-2.0240193
-2.1013269
-2.1609601
-2.2063848
-2.431865
-2.3844137
-2.322328
-2.2418096
-2.1425818
-2.0242533
-1.8864239
-1.7287582
-1.550981
-1.3529188
-1.134511
-0.89571438
-0.63652694
-0.35915037
-0.062426205
0.25178444
0.58169725
0.92511122
1.2793595
1.6411609
2.006664
2.3713303
2.729802
3.0758134
3.4071807
3.7089171
3.9788704
4.210299
4.3973074
4.5348156
4.6185004
4.6448701
4.6116289
4.5179635
4.3645979
4.1592344
3.9044049
3.6083867
3.2786928
2.9207912
2.5372648
2.1289265
1.6977241
1.2499883
0.79865942
0.36379496
-0.029576041
-0.35495968
-0.5880425
-0.70992503
-0.71026113
-0.58906832
-0.35666073
-0.031995354
0.36068463
0.7948927
1.2455376
1.6926066
2.1231454
2.5308155
2.9137157
3.270981
3.6000185
3.8954694
4.1498499
4.3547594
4.507665
4.6008996
4.6336593
4.6067494
4.5225784
4.3846152
4.1971107
3.9651862
3.6947225
3.3924726
3.0606408
2.714188
2.3552723
1.9901901
1.6243025
1.2621271
0.90755602
0.56388938
0.23370924
-0.080808306
-0.37791251
-0.6555527
-0.91506238
-1.1541843
-1.3728266
-1.5710222
-1.748834
-1.9065875
-2.0445161
-2.1629604
-2.2623131
-2.342887
-2.4049933
-2.4524793
-2.6960406
-2.6467154
-2.5824109
-2.4989675
-2.3959534
-2.2728223
-2.1290029
-1.9639646
-1.7772409
-1.5683996
-1.3371022
-1.0832183
-0.80694571
-0.5092273
-0.18920853
0.15112634
0.5101651
0.88579556
1.2752892
1.6753384
2.0818538
2.4899324
2.8936014
3.2860206
3.6610418
4.0068085
4.3167649
4.5833061
4.7995344
4.9594749
5.0579353
5.0903591
5.0532385
4.9451234
4.7680309
4.5231315
4.2231586
3.8784919
3.4996093
3.0932318
2.6598373
2.1949483
1.6943278
1.1610581
0.60921273
0.065358811
-0.43489409
-0.8539804
-1.1569562
-1.3161414
-1.3165005
-1.1579886
-0.85566453
-0.43727638
0.062214362
0.60538038
1.1565811
1.6892166
2.1891611
2.6533382
3.0860181
3.491717
3.8699744
4.2141059
4.5135947
4.7580131
4.9346709
5.0423755
5.0790087
5.0460633
4.9471094
4.7866945
4.5699961
4.3029937
3.992518
3.6462318
3.2707643
2.87794
2.4738484
2.065405
1.6585308
1.2580686
0.86826921
0.49237859
0.13301546
-0.20764751
-0.52805571
-0.82610474
-1.1026459
-1.3568107
-1.5883266
-1.7973368
-1.9841509
-2.1492579
-2.2931607
-2.4163426
-2.5194645
-2.6030092
-2.6673626
-2.71672
-2.9788847
-2.927979
-2.8618469
-2.7759306
-2.6696506
-2.5422895
-2.393083
-2.2212555
-2.0260414
-1.806718
-1.562697
-1.2936485
-0.99959464
-0.68134212
-0.3368282
0.031087164
0.42119343
0.83153538
1.2595152
1.701739
2.1540755
2.6113605
3.0669361
3.5128209
3.9404435
4.3379931
4.6955542
5.0040031
5.2553501
5.4429209
5.5607293
5.6028089
5.5634243
5.4388162
5.2292277
4.9398577
4.5846467
4.1811465
3.7466991
3.2916067
2.813112
2.2962172
1.7232796
1.0901382
0.41089968
-0.27747046
-0.92257732
-1.4708945
-1.8692611
-2.0791835
-2.0795222
-1.870267
-1.4725787
-0.92497189
-0.28056768
0.40711366
1.0856609
1.7180494
2.2902626
2.8064184
3.2842229
3.7386674
4.1725358
4.5754887
4.9301427
5.2190163
5.4281755
5.5523375
5.5912371
5.5486909
5.4303893
5.2423296
4.9905355
4.6816539
4.3236227
3.9256024
3.4975547
3.0513168
2.5953498
2.1377128
1.6850534
1.2424479
0.81412518
0.40348164
0.013023374
-0.35528258
-0.70019907
-1.0187416
-1.3130875
-1.5823992
-1.8266458
-2.0461269
-2.2415036
-2.4134241
-2.5627414
-2.6901879
-2.7965183
-2.8825157
-2.9487136
-2.9996511
-3.2808472
-3.228747
-3.1612772
-3.0735035
-2.9646908
-2.8339135
-2.6801589
-2.5023509
-2.2993865
-2.0702052
-1.8138787
-1.5297084
-1.2171834
-0.87576657
-0.50843365
-0.11200288
0.31090825
0.75835906
1.227875
1.7162615
2.2194606
2.7322088
3.2472719
3.7556129
4.2462322
4.7055623
5.1198655
5.4780082
5.7710572
5.9923476
6.1355848
6.1929966
6.1551647
6.0138144
5.7661344
5.4189473
4.9914514
4.5122571
4.012467
3.5117979
3.0035408
2.4527656
1.8123489
1.0644591
0.21990444
-0.66579211
-1.5126138
-2.2371006
-2.767317
-3.048984
-3.0493298
-2.7683515
-2.2388701
-1.5151174
-0.66900944
0.21598041
1.0599132
1.8070225
2.44667
2.9966702
3.5042196
4.0042584
4.5034872
4.982127
5.4090456
5.7557075
6.0029374
6.1438483
6.1812426
6.1233511
5.9796101
5.7578375
5.464354
5.1057916
4.6911003
4.2313824
3.7403665
3.2317359
2.7163485
2.203267
1.6997498
1.2110034
0.74110972
0.29328706
-0.12999239
-0.52680512
-0.89449861
-1.236286
-1.5491001
-1.8334969
-2.0900469
-2.3194133
-2.5225961
-2.7005503
-2.8544216
-2.9853418
-3.0942457
-3.1820802
-3.2496001
-3.3017074
-3.602216
-3.5494056
-3.4812552
-3.3924405
-3.2820481
-3.148912
-2.9917267
-2.809063
-2.5994253
-2.3613616
-2.0935457
-1.7948654
-1.4645313
-1.1023167
-0.7094043
-0.2826529
0.1747218
0.66143017
1.1753105
1.7135475
2.272642
2.8475048
3.4308851
4.0123183
4.5783828
5.1128262
5.5950684
6.0116642
6.3531076
6.6145109
6.7910948
6.8731077
6.8448239
6.6893595
6.3969217
5.9730543
5.4451575
4.859865
4.2758335
3.7369123
3.2347429
2.69808
2.011768
1.1319144
0.064614699
-1.0973917
-2.2302693
-3.1988744
-3.9128533
-4.2937675
-4.294136
-3.9139495
-3.2007025
-2.2328493
-1.1007924
0.060416631
1.1273218
2.0062892
2.6917858
3.227703
3.7291733
4.2674541
4.850912
5.43569
5.963001
6.3863112
6.6782574
6.833235
6.8610827
6.778607
6.6015668
6.3396907
5.9978307
5.5808518
5.0982749
4.5635553
3.9971375
3.4154144
2.8318207
2.2566422
1.6972096
1.1586401
0.64435049
0.15720962
-0.30060172
-0.72773986
-1.1210212
-1.4835805
-1.8142171
-2.1131373
-2.3811457
-2.619384
-2.8292303
-3.012137
-3.1695022
-3.3027829
-3.4133122
-3.5022002
-3.5703865
-3.623183
-3.9430825
-3.8902007
-3.8221813
-3.7333353
-3.622559
-3.488419
-3.3292657
-3.1432588
-2.9284584
-2.6829139
-2.4048439
-2.0926095
-1.7449149
-1.3609892
-0.9403607
-0.48513233
0.0074340054
0.53503138
1.0955951
1.6869239
2.30625
2.9498051
3.611059
4.2788097
4.9358577
5.5638815
6.1280989
6.6125988
7.0076029
7.3140805
7.5337769
7.6559527
7.653514
7.4927896
7.1505464
6.6228453
5.948519
5.1993118
4.4884656
3.92073
3.498
3.0904546
2.4235862
1.3848237
-0.024137789
-1.5732015
-3.1299753
-4.4221119
-5.3836969
-5.8958912
-5.8962631
-5.3847953
-4.4239586
-3.1326268
-1.576701
-0.028398182
1.3799367
2.4179259
3.0840391
3.490877
3.9128766
4.479968
5.1901992
5.9388439
6.6125806
7.1397828
7.4815244
7.6416898
7.6436181
7.52096
7.3008402
6.9938895
6.5984869
6.1136572
5.5491902
4.9210514
4.26379
3.5957159
2.9342203
2.2904225
1.6707381
1.0790539
0.51803954
-0.010032609
-0.50302055
-0.95867349
-1.3796575
-1.7639094
-2.1118786
-2.4243677
-2.7026626
-2.9484261
-3.1634131
-3.3496838
-3.509093
-3.6433851
-3.7542658
-3.8431889
-3.9112554
-3.9641635
-4.3033136
-4.2511264
-4.1842072
-4.0965637
-3.9868954
-3.853459
-3.6942036