/*--------------------------------*- C++ -*----------------------------------*\
  =========                 |
  \\      /  F ield         | OpenFOAM: The Open Source CFD Toolbox
   \\    /   O peration     | Website:  https://openfoam.org
    \\  /    A nd           | Version:  9
     \\/     M anipulation  |
\*---------------------------------------------------------------------------*/
FoamFile
{
    format      ascii;
    class       surfaceScalarField;
    location    "0.01";
    object      phi;
}
// * * * * * * * * * * * * * * * * * * * * * * * * * * * * * * * * * * * * * //

dimensions      [0 3 -1 0 0 0 0];

internalField   nonuniform List<scalar> 
19800
(
-2.6357216e-06
4.3763697e-06
-6.2946282e-06
3.5656079e-06
-9.8659868e-06
2.9752156e-06
-1.325496e-05
2.1464358e-06
-1.6299959e-05
1.2507168e-06
-1.8966906e-05
2.9521875e-07
-2.1165731e-05
-7.2317705e-07
-2.2909329e-05
-1.7580913e-06
-2.4101421e-05
-2.8403619e-06
-2.4708502e-05
-3.9481133e-06
-2.4699712e-05
-5.0679094e-06
-2.4032089e-05
-6.1639865e-06
-2.2702756e-05
-7.2320693e-06
-2.0697115e-05
-8.2552549e-06
-1.8027786e-05
-9.1650985e-06
-1.4687152e-05
-1.0016135e-05
-1.0704774e-05
-1.0749619e-05
-6.1061241e-06
-1.1347422e-05
-9.2789906e-07
-1.1819694e-05
4.7444254e-06
-1.2156782e-05
1.0810018e-05
-1.2367221e-05
1.7162049e-05
-1.2440161e-05
2.3689365e-05
-1.2368642e-05
3.0285395e-05
-1.2140945e-05
3.6840151e-05
-1.1746559e-05
4.3235292e-05
-1.1183774e-05
4.9351582e-05
-1.0453654e-05
5.5070878e-05
-9.5554497e-06
6.0271917e-05
-8.4903958e-06
6.483594e-05
-7.2613624e-06
6.8701369e-05
-5.9043074e-06
7.1707587e-05
-4.345824e-06
7.3804776e-05
-2.5889379e-06
7.5396559e-05
-5.1035968e-07
7.6317505e-05
1.6457214e-06
7.6406783e-05
3.7624079e-06
7.5610199e-05
5.8141835e-06
7.3912884e-05
7.7863674e-06
7.1326478e-05
9.6680646e-06
6.7883556e-05
1.1446835e-05
6.3625998e-05
1.3108638e-05
5.8605036e-05
1.4641103e-05
5.2887298e-05
1.6031814e-05
4.6546345e-05
1.7269081e-05
3.9657142e-05
1.8346126e-05
3.2305817e-05
1.92554e-05
2.4579006e-05
1.9988705e-05
1.6564914e-05
2.0542824e-05
8.3624248e-06
2.0913075e-05
6.0844286e-08
2.1098509e-05
-8.2386398e-06
2.1097751e-05
-1.6442184e-05
2.0911103e-05
-2.4451851e-05
2.0540058e-05
-3.2176694e-05
1.9986208e-05
-3.9527333e-05
1.9254589e-05
-4.6412609e-05
1.8347192e-05
-5.275277e-05
1.7269975e-05
-5.8468088e-05
1.6031057e-05
-6.3487315e-05
1.4640074e-05
-6.7744675e-05
1.3107886e-05
-7.1186014e-05
1.1445198e-05
-7.3767989e-05
9.6663433e-06
-7.546719e-05
7.7831159e-06
-7.6263388e-05
5.8102758e-06
-7.6180946e-05
3.7584285e-06
-7.5259395e-05
1.6435009e-06
-7.3670927e-05
-5.1376281e-07
-7.1574971e-05
-2.5929896e-06
-6.8567205e-05
-4.3498269e-06
-6.4701768e-05
-5.9069381e-06
-6.0132742e-05
-7.2652249e-06
-5.493174e-05
-8.4969878e-06
-4.9216777e-05
-9.5611169e-06
-4.3097954e-05
-1.0456508e-05
-3.6696253e-05
-1.1187001e-05
-3.0133765e-05
-1.1751242e-05
-2.352826e-05
-1.2148358e-05
-1.6994499e-05
-1.2380204e-05
-1.0637349e-05
-1.2453008e-05
-4.5655733e-06
-1.2378949e-05
1.1170985e-06
-1.2169266e-05
6.3080312e-06
-1.1836594e-05
1.0916453e-05
-1.1360246e-05
1.4916289e-05
-1.0766011e-05
1.8273222e-05
-1.0039184e-05
2.096717e-05
-9.1948218e-06
2.299566e-05
-8.2756474e-06
2.4350615e-05
-7.2675305e-06
2.5043436e-05
-6.2071769e-06
2.5090006e-05
-5.1153108e-06
2.4519363e-05
-4.013124e-06
2.3368798e-05
-2.9213832e-06
2.1686512e-05
-1.8600989e-06
1.9539173e-05
-8.5670105e-07
1.6965777e-05
1.0283172e-07
1.402508e-05
9.8093853e-07
1.0776623e-05
1.7517262e-06
7.3197705e-06
2.3722935e-06
3.7116892e-06
2.8874155e-06
3.2592912e-06
-3.3697704e-06
8.2354432e-06
-7.191487e-06
7.4005827e-06
-1.0804791e-05
6.5850254e-06
-1.4126197e-05
5.4722589e-06
-1.7276281e-05
4.3866441e-06
-2.000841e-05
3.0395673e-06
-2.2222401e-05
1.4721976e-06
-2.4012059e-05
3.7679965e-08
-2.52271e-05
-1.616316e-06
-2.5841769e-05
-3.3426436e-06
-2.5803368e-05
-5.0972107e-06
-2.5102127e-05
-6.8677045e-06
-2.3721739e-05
-8.6289844e-06
-2.1640814e-05
-1.0335685e-05
-1.8854389e-05
-1.1949956e-05
-1.5387911e-05
-1.3487741e-05
-1.1259832e-05
-1.487345e-05
-6.5088036e-06
-1.6093366e-05
-1.2010507e-06
-1.7130493e-05
4.6079418e-06
-1.7964569e-05
1.0821894e-05
-1.8574862e-05
1.7330365e-05
-1.8948945e-05
2.402612e-05
-1.9068949e-05
3.080056e-05
-1.8916076e-05
3.7534787e-05
-1.8480258e-05
4.4107249e-05
-1.7756857e-05
5.0399718e-05
-1.6742898e-05
5.6293048e-05
-1.5441577e-05
6.1670655e-05
-1.386362e-05
6.6436959e-05
-1.2027487e-05
7.0477652e-05
-9.9440899e-06
7.3717283e-05
-7.5822761e-06
7.6125534e-05
-4.993411e-06
7.777416e-05
-2.1541779e-06
7.8648756e-05
7.7679311e-07
7.8665995e-05
3.7495941e-06
7.7782357e-05
6.7005517e-06
7.5986103e-05
9.5831144e-06
7.3287208e-05
1.2364917e-05
6.9716326e-05
1.5016577e-05
6.5316982e-05
1.7507764e-05
6.0140412e-05
1.9812962e-05
5.4253854e-05
2.1912603e-05
4.7736021e-05
2.3787215e-05
4.0661494e-05
2.5420455e-05
3.3115854e-05
2.6800303e-05
2.5190925e-05
2.7914458e-05
1.6973685e-05
2.8756041e-05
8.5667013e-06
2.9319742e-05
6.0337419e-08
2.9601107e-05
-8.4437335e-06
2.9600151e-05
-1.685128e-05
2.9316771e-05
-2.506319e-05
2.8753514e-05
-3.2984918e-05
2.7911561e-05
-4.0529386e-05
2.6798059e-05
-4.7602058e-05
2.5420258e-05
-5.4121148e-05
2.3787448e-05
-6.0004166e-05
2.1913225e-05
-6.5177993e-05
1.9812308e-05
-6.9577652e-05
1.7506063e-05
-7.3146736e-05
1.5012109e-05
-7.5843999e-05
1.2362386e-05
-7.7640171e-05
9.5765924e-06
-7.8521955e-05
6.6934992e-06
-7.8510084e-05
3.7418988e-06
-7.763819e-05
7.7009188e-07
-7.5993622e-05
-2.1616895e-06
-7.3585438e-05
-5.0007578e-06
-7.0342711e-05
-7.5886909e-06
-6.6302198e-05
-9.9507241e-06
-6.1533942e-05
-1.2034288e-05
-5.6153344e-05
-1.3869846e-05
-5.0262139e-05
-1.5449565e-05
-4.3970267e-05
-1.6750619e-05
-3.7392551e-05
-1.7765589e-05
-3.06517e-05
-1.8491614e-05
-2.3869049e-05
-1.892838e-05
-1.7164262e-05
-1.9083747e-05
-1.0648714e-05
-1.8967461e-05
-4.4306122e-06
-1.859491e-05
1.3853758e-06
-1.7982985e-05
6.697986e-06
-1.7147522e-05
1.1467429e-05
-1.6128775e-05
1.5609982e-05
-1.4906156e-05
1.909276e-05
-1.352257e-05
2.1893468e-05
-1.1993125e-05
2.3998825e-05
-1.0376043e-05
2.5413002e-05
-8.6755121e-06
2.6143365e-05
-6.9316054e-06
2.6204815e-05
-5.1741561e-06
2.5627695e-05
-3.4335624e-06
2.4449342e-05
-1.7391894e-06
2.2709887e-05
-1.1789514e-07
2.0517997e-05
1.3314419e-06
1.7859366e-05
2.7548653e-06
1.4789419e-05
4.0521283e-06
1.143311e-05
5.114715e-06
7.8771629e-06
5.9292858e-06
4.0793503e-06
6.6904019e-06
7.1892344e-06
-4.0434932e-06
1.219853e-05
-8.0171216e-06
1.1372842e-05
-1.1790549e-05
1.0366928e-05
-1.5398963e-05
9.0700004e-06
-1.8594259e-05
7.5973236e-06
-2.1428826e-05
5.8590393e-06
-2.3871841e-05
3.9195956e-06
-2.5697504e-05
1.8742305e-06
-2.6966784e-05
-3.5472548e-07
-2.7604005e-05
-2.6961652e-06
-2.757918e-05
-5.118325e-06
-2.6867357e-05
-7.5920334e-06
-2.5432015e-05
-1.0064429e-05
-2.3269751e-05
-1.2495549e-05
-2.0386473e-05
-1.4839866e-05
-1.677481e-05
-1.7100141e-05
-1.248181e-05
-1.9164031e-05
-7.5466623e-06
-2.1032779e-05
-2.0363613e-06
-2.2641966e-05
3.9957878e-06
-2.399085e-05
1.0445632e-05
-2.5023328e-05
1.7207779e-05
-2.5716104e-05
2.4175866e-05
-2.6040339e-05
3.1232736e-05
-2.5974052e-05
3.825414e-05
-2.5503328e-05
4.5116886e-05
-2.4618301e-05
5.1696808e-05
-2.3316772e-05
5.786794e-05
-2.160765e-05
6.3511393e-05
-1.9506704e-05
6.8520765e-05
-1.7037042e-05
7.280276e-05
-1.4222924e-05
7.6281115e-05
-1.1056574e-05
7.8924915e-05
-7.6347675e-06
8.0718503e-05
-3.9446557e-06
8.1625962e-05
-1.2667424e-07
8.1613651e-05
3.7629049e-06
8.0660052e-05
7.653317e-06
7.8762716e-05
1.1481876e-05
7.5933841e-05
1.519505e-05
7.2202891e-05
1.8746093e-05
6.7618082e-05
2.2091194e-05
6.2236523e-05
2.5192135e-05
5.6125514e-05
2.8019468e-05
4.936691e-05
3.0546313e-05
4.2039635e-05
3.2747899e-05
3.4228927e-05
3.4607219e-05
2.6031923e-05
3.6109579e-05
1.753719e-05
3.7244221e-05
8.8482892e-06
3.8004938e-05
5.9566332e-08
3.8385231e-05
-8.7272614e-06
3.8384785e-05
-1.7414233e-05
3.8002745e-05
-2.5904336e-05
3.7243046e-05
-3.4097117e-05
3.6108331e-05
-4.1905525e-05
3.4605754e-05
-4.9232593e-05
3.2747423e-05
-5.5992281e-05
3.0545288e-05
-6.2101387e-05
2.8019487e-05
-6.7480273e-05
2.5189936e-05
-7.206743e-05
2.2087413e-05
-7.5791558e-05
1.8740868e-05
-7.8624288e-05
1.5189961e-05
-8.0518492e-05
1.1476848e-05
-8.1470449e-05
7.6456689e-06
-8.1486711e-05
3.7535449e-06
-8.0583989e-05
-1.3602106e-07
-7.8792137e-05
-3.9554441e-06
-7.6148016e-05
-7.6459842e-06
-7.2668813e-05
-1.1064234e-05
-6.8385261e-05
-1.422837e-05
-6.337455e-05
-1.7049159e-05
-5.7730034e-05
-1.9521256e-05
-5.1559081e-05
-2.1622682e-05
-4.4981006e-05
-2.3328982e-05
-3.8114614e-05
-2.4627693e-05
-3.1084994e-05
-2.5514603e-05
-2.4021459e-05
-2.5990822e-05
-1.7045546e-05
-2.6061696e-05
-1.0274205e-05
-2.57407e-05
-3.8169844e-06
-2.5051434e-05
2.2219867e-06
-2.4021872e-05
7.7495814e-06
-2.2675732e-05
1.2691859e-05
-2.1069538e-05
1.6994355e-05
-1.920649e-05
2.0615179e-05
-1.7141595e-05
2.3521325e-05
-1.4899431e-05
2.5702596e-05
-1.255746e-05
2.7160346e-05
-1.0130627e-05
2.7905467e-05
-7.6699509e-06
2.7952688e-05
-5.2199678e-06
2.7334161e-05
-2.8186076e-06
2.6096975e-05
-5.0234757e-07
2.429227e-05
1.6904363e-06
2.1909538e-05
3.7201445e-06
1.9088296e-05
5.5772897e-06
1.5903432e-05
7.2374822e-06
1.2381745e-05
8.6472956e-06
8.5220456e-06
9.7890909e-06
4.5124456e-06
1.0701583e-05
1.1336997e-05
-4.8171458e-06
1.6519832e-05
-9.0504949e-06
1.5614762e-05
-1.3088181e-05
1.4395576e-05
-1.6873018e-05
1.2872378e-05
-2.0328371e-05
1.1041003e-05
-2.3363714e-05
8.89699e-06
-2.5919692e-05
6.4861769e-06
-2.7918154e-05
3.8645597e-06
-2.9306428e-05
1.0402268e-06
-3.0025276e-05
-1.969839e-06
-3.005236e-05
-5.0996012e-06
-2.9339541e-05
-8.3047069e-06
-2.7863526e-05
-1.1536098e-05
-2.5617767e-05
-1.4747451e-05
-2.2579567e-05
-1.7882571e-05
-1.8836697e-05
-2.0843153e-05
-1.435001e-05
-2.3656012e-05
-9.1820519e-06
-2.6204456e-05
-3.3832372e-06
-2.8436128e-05
2.9642968e-06
-3.0335183e-05
9.7537178e-06
-3.1816764e-05
1.6884323e-05
-3.2851232e-05
2.4242837e-05
-3.3400895e-05
3.1704054e-05
-3.3437466e-05
3.9139663e-05
-3.2939403e-05
4.6418819e-05
-3.1893502e-05
5.3406351e-05
-3.0299754e-05
5.9969707e-05
-2.8170034e-05
6.5987e-05
-2.5524445e-05
7.1348377e-05
-2.2396644e-05
7.5949439e-05
-1.8820431e-05
7.9724247e-05
-1.4828748e-05
8.258551e-05
-1.0495218e-05
8.4532903e-05
-5.8910604e-06
8.5513926e-05
-1.1056603e-06
8.5502606e-05
3.7745544e-06
8.4487117e-05
8.6678217e-06
8.2474437e-05
1.3496745e-05
7.9483542e-05
1.8189067e-05
7.554679e-05
2.2681274e-05
7.0717976e-05
2.6917302e-05
6.5062988e-05
3.0846738e-05
5.8651676e-05
3.4428337e-05
5.1567994e-05
3.762818e-05
4.3898617e-05
4.0415649e-05
3.573109e-05
4.276855e-05
2.7166491e-05
4.4670208e-05
1.8297931e-05
4.6105959e-05
9.2287028e-06
4.7068215e-05
5.9058597e-08
4.7549774e-05
-9.1093221e-06
4.7549892e-05
-1.8173841e-05
4.7067689e-05
-2.7038856e-05
4.6106266e-05
-3.5599378e-05
4.4671347e-05
-4.376344e-05
4.2769041e-05
-5.1434171e-05
4.0415364e-05
-5.8517375e-05
3.7626385e-05
-6.4930058e-05
3.4425734e-05
-7.0581774e-05
3.0843713e-05
-7.5412866e-05
2.6911181e-05
-7.9341218e-05
2.2676982e-05
-8.2336021e-05
1.8181199e-05
-8.4348199e-05
1.3489392e-05
-8.5361143e-05
8.6595089e-06
-8.5374754e-05
3.7640874e-06
-8.4399702e-05
-1.1171105e-06
-8.2451464e-05
-5.9022823e-06
-7.9589894e-05
-1.0508241e-05
-7.5817702e-05
-1.4845206e-05
-7.1215018e-05
-1.8834575e-05
-6.5852398e-05
-2.2409143e-05
-5.9832327e-05
-2.5537483e-05
-5.3265877e-05
-2.818713e-05
-4.628019e-05
-3.0320773e-05
-3.9002101e-05
-3.1915439e-05
-3.1561938e-05
-3.2960663e-05
-2.4093183e-05
-3.3460063e-05
-1.6725477e-05
-3.3425584e-05
-9.5859501e-06
-3.2879542e-05
-2.7886087e-06
-3.1850718e-05
3.5658589e-06
-3.0374086e-05
9.3726566e-06
-2.8477693e-05
1.4554096e-05
-2.6247554e-05
1.9056667e-05
-2.3706913e-05
2.2823662e-05
-2.0906304e-05
2.5866106e-05
-1.7941972e-05
2.8129494e-05
-1.4822256e-05
2.9620617e-05
-1.1624204e-05
3.0354641e-05
-8.403362e-06
3.0352873e-05
-5.2174826e-06
2.9648517e-05
-2.1161534e-06
2.8283678e-05
8.5850452e-07
2.6319328e-05
3.6483633e-06
2.3761932e-05
6.2748322e-06
2.0739847e-05
8.5983678e-06
1.7315799e-05
1.0657806e-05
1.3523134e-05
1.2444217e-05
9.442767e-06
1.3872145e-05
5.1567401e-06
1.4988269e-05
1.5817013e-05
-5.7141567e-06
2.1281465e-05
-1.0268701e-05
2.0159715e-05
-1.4609501e-05
1.8753532e-05
-1.8693492e-05
1.6944782e-05
-2.2392233e-05
1.4741892e-05
-2.5680025e-05
1.2194704e-05
-2.851012e-05
9.3066171e-06
-3.0732945e-05
6.0902316e-06
-3.2311183e-05
2.6262709e-06
-3.3153044e-05
-1.1343292e-06
-3.3256251e-05
-4.9965559e-06
-3.2570252e-05
-8.984994e-06
-3.107463e-05
-1.3036316e-05
-2.8753677e-05
-1.7074397e-05
-2.5610167e-05
-2.1027221e-05
-2.16409e-05
-2.4817493e-05
-1.6897106e-05
-2.8405284e-05
-1.1416937e-05
-3.1681881e-05
-5.2773072e-06
-3.4571508e-05
1.4841279e-06
-3.7098656e-05
8.7203584e-06
-3.9056736e-05
1.6335611e-05
-4.0467894e-05
2.4207093e-05
-4.1274375e-05
3.220282e-05
-4.143566e-05
4.0186104e-05
-4.092178e-05
4.801294e-05
-3.9717319e-05
5.5536379e-05
-3.7822493e-05
6.2615938e-05
-3.5250491e-05
6.9120502e-05
-3.2028006e-05
7.4926494e-05
-2.820057e-05
7.9935752e-05
-2.382907e-05
8.4046221e-05
-1.8939005e-05
8.7186706e-05
-1.3634634e-05
8.9315121e-05
-8.0185195e-06
9.0392322e-05
-2.1820049e-06
9.0394179e-05
3.7734905e-06
8.9314392e-05
9.7478059e-06
8.7165239e-05
1.5647751e-05
8.3974414e-05
2.1383256e-05
7.9781699e-05
2.6873404e-05
7.4646521e-05
3.2048878e-05
6.8643939e-05
3.6848285e-05
6.1851104e-05
4.1219134e-05
5.435525e-05
4.5120346e-05
4.6251466e-05
4.8517293e-05
3.7632811e-05
5.1382107e-05
2.8602403e-05
5.3695739e-05
1.9260407e-05
5.544145e-05
9.7105268e-06
5.6610523e-05
5.8921423e-08
5.7196566e-05
-9.5917203e-06
5.719707e-05
-1.9135394e-05
5.6612167e-05
-2.8473831e-05
5.5442599e-05
-3.7501658e-05
5.3696761e-05
-4.6116981e-05
5.1382905e-05
-5.4222853e-05
4.8516256e-05
-6.1717541e-05
4.5120279e-05
-6.851142e-05
4.1215785e-05
-7.4513435e-05
3.6844601e-05
-7.9645961e-05
3.2041097e-05
-8.383569e-05
2.686487e-05
-8.7026349e-05
2.1373167e-05
-8.917653e-05
1.5637929e-05
-9.0254957e-05
9.7371174e-06
-9.0254169e-05
3.7612281e-06
-8.9181833e-05
-2.1974729e-06
-8.705449e-05
-8.0346667e-06
-8.3912921e-05
-1.3648891e-05
-7.9803436e-05
-1.8953124e-05
-7.4792005e-05
-2.3847404e-05
-6.8986557e-05
-2.8221996e-05
-6.2482598e-05
-3.2050671e-05
-5.5399862e-05
-3.527318e-05
-4.7875334e-05
-3.7846513e-05
-4.0047997e-05
-3.9742449e-05
-3.2062193e-05
-4.0947203e-05
-2.4059716e-05
-4.1463693e-05
-1.6180564e-05
-4.1307167e-05
-8.5583793e-06
-4.0503782e-05
-1.3135705e-06
-3.9094978e-05
5.4566591e-06
-3.7140465e-05
1.1605122e-05
-3.4618169e-05
1.7093075e-05
-3.1731915e-05
2.1847422e-05
-2.846091e-05
2.5826362e-05
-2.488622e-05
2.8986303e-05
-2.1101049e-05
3.1327048e-05
-1.7157547e-05
3.2840528e-05
-1.3136056e-05
3.3539064e-05
-9.1035984e-06
3.3451661e-05
-5.1255189e-06
3.2617339e-05
-1.2734993e-06
3.1059355e-05
2.4256725e-06
2.8839044e-05
5.8727694e-06
2.6062013e-05
9.054348e-06
2.2787269e-05
1.1881387e-05
1.9032023e-05
1.4409154e-05
1.494803e-05
1.6524299e-05
1.0553705e-05
1.8266418e-05
5.8997575e-06
1.9639359e-05
2.0614279e-05
-6.5890688e-06
2.6363938e-05
-1.1626233e-05
2.5212171e-05
-1.6409168e-05
2.3521764e-05
-2.0903742e-05
2.1440655e-05
-2.5020326e-05
1.8867038e-05
-2.8668692e-05
1.5831719e-05
-3.1745135e-05
1.2382748e-05
-3.4199862e-05
8.5517254e-06
-3.5932016e-05
4.3527906e-06
-3.7006041e-05
-6.1063497e-08
-3.7241258e-05
-4.7551649e-06
-3.6619798e-05
-9.609725e-06
-3.5111664e-05
-1.4550706e-05
-3.2706205e-05
-1.9480584e-05
-2.9404166e-05
-2.4332572e-05
-2.5206614e-05
-2.9020946e-05
-2.0170187e-05
-3.344132e-05
-1.4306412e-05
-3.7542108e-05
-7.66542e-06
-4.1213329e-05
-4.7188124e-07
-4.4294375e-05
7.3106042e-06
-4.6838612e-05
1.5530312e-05
-4.8687892e-05
2.4046835e-05
-4.9794382e-05
3.2717547e-05
-5.0108984e-05
4.1391171e-05
-4.9594933e-05
4.9908123e-05
-4.8233577e-05
5.8108593e-05
-4.6023608e-05
6.5838944e-05
-4.2980988e-05
7.2953371e-05
-3.9141693e-05
7.9316916e-05
-3.4564754e-05
8.4808271e-05
-2.9322252e-05
8.933156e-05
-2.3461584e-05
9.2798537e-05
-1.7098099e-05
9.5149166e-05
-1.0367498e-05
9.6344751e-05
-3.3784787e-06
9.6366235e-05
3.7525639e-06
9.5212129e-05
1.0903994e-05
9.2898696e-05
1.7962973e-05
8.9462749e-05
2.4820956e-05
8.4955657e-05
3.1379539e-05
7.9444734e-05
3.7554995e-05
7.3013918e-05
4.3275891e-05
6.5751743e-05
4.848011e-05
5.7751877e-05
5.3117999e-05
4.9116178e-05
5.7151325e-05
3.9946507e-05
6.0548314e-05
3.0348311e-05
6.3288019e-05
2.0429759e-05
6.5354175e-05
1.0296903e-05
6.6736508e-05
5.9416964e-08
6.7429792e-05
-1.017692e-05
6.7430042e-05
-2.0305185e-05
6.6738174e-05
-3.0219758e-05
6.535562e-05
-3.98155e-05
6.3288733e-05
-4.8983464e-05
6.0549989e-05
-5.7618458e-05
5.7150282e-05
-6.5621357e-05
5.3117138e-05
-7.2881623e-05
4.8476911e-05
-7.9315708e-05
4.3270172e-05
-8.4820718e-05
3.7548656e-05
-8.9325685e-05
3.1369477e-05
-9.275961e-05
2.4809433e-05
-9.5075141e-05
1.7951658e-05
-9.6228544e-05
1.0890893e-05
-9.6209954e-05
3.7367556e-06
-9.5016438e-05
-3.3945333e-06
-9.2664498e-05
-1.0383906e-05
-8.9198779e-05
-1.711663e-05
-8.4678576e-05
-2.3480677e-05
-7.9186573e-05
-2.9342404e-05
-7.2820726e-05
-3.4586789e-05
-6.5705752e-05
-3.9166086e-05
-5.7973532e-05
-4.3006479e-05
-4.9771742e-05
-4.6050649e-05
-4.1253463e-05
-4.8262701e-05
-3.2579634e-05
-4.9626958e-05
-2.3904362e-05
-5.0143153e-05
-1.5378564e-05
-4.9831569e-05
-7.1512017e-06
-4.8728913e-05
6.38678e-07
-4.68817e-05
7.8403574e-06
-4.4339509e-05
1.44908e-05
-4.1263992e-05
2.0360196e-05
-3.7601048e-05
2.540633e-05
-3.3507639e-05
2.9614352e-05
-2.9094558e-05
3.2929224e-05
-2.4416871e-05
3.5347256e-05
-1.9573866e-05
3.6871036e-05
-1.465721e-05
3.7513461e-05
-9.7471859e-06
3.7291939e-05
-4.9069927e-06
3.6261011e-05
-2.4339588e-07
3.451489e-05
4.1743476e-06
3.2056847e-05
8.3245765e-06
2.8980299e-05
1.2127813e-05
2.5331397e-05
1.5534498e-05
2.1216363e-05
1.8522574e-05
1.6687334e-05
2.1044242e-05
1.1864085e-05
2.3083898e-05
6.7885042e-06
2.4712498e-05
2.5781787e-05
-7.6957566e-06
3.1978651e-05
-1.312648e-05
3.0625147e-05
-1.8484462e-05
2.8882649e-05
-2.3476754e-05
2.6440474e-05
-2.8056305e-05
2.3434106e-05
-3.2120567e-05
1.989452e-05
-3.5578733e-05
1.5846843e-05
-3.8407518e-05
1.137528e-05
-4.0472839e-05
6.4173161e-06
-4.169418e-05
1.1667672e-06
-4.2064557e-05
-4.387263e-06
-4.1555511e-05
-1.0125161e-05
-4.0039241e-05
-1.6066963e-05
-3.7556798e-05
-2.1963806e-05
-3.409234e-05
-2.7802038e-05
-2.9650693e-05
-3.3464382e-05
-2.4252985e-05
-3.8838016e-05
-1.7975618e-05
-4.3821447e-05
-1.0879527e-05
-4.8311382e-05
-3.0127018e-06
-5.2158651e-05
5.4631434e-06
-5.531202e-05
1.4425314e-05
-5.7652895e-05
2.3733503e-05
-5.9107449e-05
3.3232599e-05
-5.9610109e-05
4.2753196e-05
-5.9115134e-05
5.211842e-05
-5.7598133e-05
6.1151301e-05
-5.5055946e-05
6.9678509e-05
-5.1508481e-05
7.7534269e-05
-4.699956e-05
8.4564259e-05
-4.1597227e-05
9.0662254e-05
-3.5420216e-05
9.5677453e-05
-2.8473475e-05
9.9523802e-05
-2.0940721e-05
0.00010213598
-1.2979402e-05
0.00010347139
-4.71595e-06
0.00010351478
3.7102394e-06
0.00010226829
1.2154324e-05
9.9754087e-05
2.047808e-05
9.601908e-05
2.8553562e-05
9.1129267e-05
3.6265936e-05
8.5164204e-05
4.351585e-05
7.8217116e-05
5.0219938e-05
7.038898e-05
5.6307776e-05
6.178487e-05
6.1721745e-05
5.2513106e-05
6.6420618e-05
4.2686354e-05
7.0372216e-05
3.2414755e-05
7.3554033e-05
2.1812475e-05
7.5951398e-05
1.0990632e-05
7.7553261e-05
5.9540937e-08
7.8355714e-05
-1.0869196e-05
7.8356443e-05
-2.1688099e-05
7.7554733e-05
-3.2286844e-05
7.5953493e-05
-4.2554307e-05
7.3555732e-05
-5.238302e-05
7.0373189e-05
-6.1651195e-05
6.6421344e-05
-7.0260865e-05
6.1719683e-05
-7.8087275e-05
5.6306209e-05
-8.5035759e-05
5.0216791e-05
-9.0998024e-05
4.3512341e-05
-9.5883465e-05
3.6258412e-05
-9.9614827e-05
2.8543864e-05
-0.00010213319
2.046623e-05
-0.00010337991
1.2142644e-05
-0.00010333668
3.6963303e-06
-0.00010200392
-4.7323846e-06
-9.9391886e-05
-1.299704e-05
-9.5545589e-05
-2.0959687e-05
-9.0533746e-05
-2.8493487e-05
-8.4435461e-05
-3.5443735e-05
-7.7404033e-05
-4.1620785e-05
-6.9546501e-05
-4.7026425e-05
-6.1017882e-05
-5.153669e-05
-5.198423e-05
-5.5085213e-05
-4.2618521e-05
-5.7629122e-05
-3.3096969e-05
-5.9148235e-05
-2.3594206e-05
-5.9645601e-05
-1.4277578e-05
-5.9146169e-05
-5.3060063e-06
-5.7697419e-05
3.177236e-06
-5.5362238e-05
1.1049219e-05
-5.2213784e-05
1.8151382e-05
-4.8371445e-05
2.4433163e-05
-4.3887045e-05
2.9838002e-05
-3.8914569e-05
3.4291616e-05
-3.3548904e-05
3.7770571e-05
-2.7896333e-05
4.0261226e-05
-2.2067668e-05
4.1775426e-05
-1.61707e-05
4.2306585e-05
-1.0270035e-05
4.1955089e-05
-4.5514009e-06
4.0724336e-05
9.8529777e-07
3.8671007e-05
6.2253622e-06
3.5862227e-05
1.112783e-05
3.238935e-05
1.5591016e-05
2.8319441e-05
1.9604105e-05
2.3738129e-05
2.3102241e-05
1.87252e-05
2.6056924e-05
1.334785e-05
2.8458614e-05
7.8674847e-06
3.0196222e-05
3.1478985e-05
-8.9827867e-06
3.8193296e-05
-1.5099683e-05
3.6747635e-05
-2.0927571e-05
3.4718796e-05
-2.647202e-05
3.1972949e-05
-3.1592379e-05
2.8554464e-05
-3.6166074e-05
2.4474463e-05
-4.0109406e-05
1.9785785e-05
-4.330351e-05
1.456977e-05
-4.5723805e-05
8.8452272e-06
-4.7255228e-05
2.6965271e-06
-4.7826828e-05
-3.8224573e-06
-4.7344924e-05
-1.0607064e-05
-4.5928956e-05
-1.7481745e-05
-4.3391642e-05
-2.4504549e-05
-3.9752736e-05
-3.1443928e-05
-3.5025269e-05
-3.8193792e-05
-2.9239357e-05
-4.4628954e-05
-2.2459749e-05
-5.0605205e-05
-1.4728581e-05
-5.6039922e-05
-6.1570732e-06
-6.0725297e-05
3.1247148e-06
-6.459461e-05
1.2972649e-05
-6.7506154e-05
2.3232387e-05
-6.9370582e-05
3.3728743e-05
-7.0105978e-05
4.4270941e-05
-6.9655278e-05
5.4660902e-05
-6.7986205e-05
6.4698727e-05
-6.5093221e-05
7.4187612e-05
-6.0999553e-05
8.2941318e-05
-5.5756841e-05
9.0789765e-05
-4.9446493e-05
9.7556289e-05
-4.2183743e-05
0.0001031903
-3.4104514e-05
0.00010747844
-2.5228582e-05
0.00011039543
-1.5897405e-05
0.00011189356
-6.2141066e-06
0.00011195521
3.6507552e-06
0.00011058853
1.3523275e-05
0.0001078264
2.3238161e-05
0.00010372875
3.2645755e-05
9.8376999e-05
4.161329e-05
9.1866641e-05
5.0024243e-05
8.4303814e-05
5.7781106e-05
7.5802284e-05
6.4807024e-05
6.6483473e-05
7.1040421e-05
5.6464742e-05
7.6437118e-05
4.5868435e-05
8.096619e-05
3.4812543e-05
8.4605216e-05
2.3414862e-05
8.7342576e-05
1.1793689e-05
8.9170722e-05
6.030846e-08
9.008581e-05
-1.1671466e-05
9.0087516e-05
-2.3289866e-05
8.9173982e-05
-3.4684942e-05
8.7344792e-05
-4.5737014e-05
8.4607856e-05
-5.6334823e-05
8.0966173e-05
-6.6352517e-05
7.6440154e-05
-7.5673622e-05
7.1043445e-05
-8.4175464e-05
6.4809355e-05
-9.1738456e-05
5.7782596e-05
-9.8249701e-05
5.0024832e-05
-0.00010359532
4.1611391e-05
-0.00010768936
3.2641931e-05
-0.0001104533
2.323001e-05
-0.0001118226
1.3510516e-05
-0.00011176146
3.6373859e-06
-0.0001102645
-6.2272198e-06
-0.00010734774
-1.5913259e-05
-0.00010305953
-2.5248285e-05
-9.7427693e-05
-3.412716e-05
-9.0664878e-05
-4.2207482e-05
-8.2814677e-05
-4.9469019e-05
-7.4057085e-05
-5.5780851e-05
-6.4566486e-05
-6.1028327e-05
-5.4528558e-05
-6.5125958e-05
-4.4138511e-05
-6.8021738e-05
-3.3595637e-05
-6.9692551e-05
-2.3096431e-05
-7.0145653e-05
-1.2830856e-05
-6.9413533e-05
-2.973453e-06
-6.7554e-05
6.3159881e-06
-6.4648282e-05
1.4892842e-05
-6.0787483e-05
2.2629622e-05
-5.6109867e-05
2.9411652e-05
-5.0673385e-05
3.5204138e-05
-4.4708178e-05
3.9942142e-05
-3.8282802e-05
4.3595774e-05
-3.1543129e-05
4.6150006e-05
-2.4617473e-05
4.7602532e-05
-1.7620894e-05
4.8066156e-05
-1.0731417e-05
4.7497262e-05
-3.9771489e-06
4.5964076e-05
2.5209221e-06
4.3552853e-05
8.6422495e-06
4.0343255e-05
1.4341086e-05
3.6400257e-05
1.9532502e-05
3.1813987e-05
2.4185586e-05
2.6685565e-05
2.822751e-05
2.1116709e-05
3.1627273e-05
1.5245268e-05
3.4330141e-05
9.0944476e-06
3.6337951e-05
3.7754199e-05
-1.0311997e-05
4.501461e-05
-1.7123316e-05
4.3567459e-05
-2.3671307e-05
4.1256627e-05
-2.9856015e-05
3.8161371e-05
-3.5648224e-05
3.4353388e-05
-4.0797596e-05
2.961986e-05
-4.5298222e-05
2.4288536e-05
-4.901458e-05
1.8295643e-05
-5.1870394e-05
1.1700815e-05
-5.3767006e-05
4.5863721e-06
-5.4613079e-05
-2.9770739e-06
-5.4366957e-05
-1.0851504e-05
-5.2920194e-05
-1.893078e-05
-5.0320396e-05
-2.7107374e-05
-4.6498455e-05
-3.5269398e-05
-4.1458245e-05
-4.3241755e-05
-3.5222603e-05
-5.0872005e-05
-2.7822644e-05
-5.8004504e-05
-1.9411214e-05
-6.4445716e-05
-9.9992891e-06
-7.0135844e-05
2.1665607e-07
-7.4814697e-05
1.1110591e-05
-7.8403493e-05
2.2498853e-05
-8.0758054e-05
3.4180822e-05
-8.178483e-05
4.5940853e-05
-8.1412403e-05
5.7554117e-05
-7.9598134e-05
6.8792096e-05
-7.6332356e-05
7.9430003e-05
-7.1640458e-05
8.9254524e-05
-6.558339e-05
9.8068858e-05
-5.8260007e-05
0.00010570251
-4.9815592e-05
0.00011196088
-4.0363158e-05
0.00011679767
-3.0066931e-05
0.00012007309
-1.9172152e-05
0.00012175365
-7.8920424e-06
0.00012182317
3.5821584e-06
0.00012029911
1.5045214e-05
0.00011723015
2.6303095e-05
0.00011269304
3.7179072e-05
0.00010678538
4.7517682e-05
9.9621629e-05
5.7185736e-05
9.1328509e-05
6.6073231e-05
8.2035043e-05
7.4097406e-05
7.1880012e-05
8.1195685e-05
6.0994017e-05
8.7322026e-05
4.9507923e-05
9.2448518e-05
3.7550544e-05
9.6558299e-05
2.5243714e-05
9.964393e-05
1.2709562e-05
0.00010170285
6.2520329e-08
0.00010273267
-1.2585747e-05
0.0001027329
-2.5119801e-05
0.0001017061
-3.7422464e-05
9.964663e-05
-4.9379069e-05
9.6562739e-05
-6.086096e-05
9.245338e-05
-7.1748981e-05
8.7326645e-05
-8.1907039e-05
8.1202354e-05
-9.1200951e-05
7.4104639e-05
-9.9494248e-05
6.6079841e-05
-0.00010666042
5.719056e-05
-0.00011256137
4.7521344e-05
-0.00011709736
3.717762e-05
-0.00012016849
2.6298566e-05
-0.00012169119
1.5036675e-05
-0.00012162128
3.5699959e-06
-0.00011994496
-7.9049768e-06
-0.00011667102
-1.9185293e-05
-0.00011183347
-3.0082609e-05
-0.00010557548
-4.0382679e-05
-9.7942088e-05
-4.9838751e-05
-8.9129501e-05
-5.8285435e-05
-7.9304432e-05
-6.5611118e-05
-6.8664003e-05
-7.1671614e-05
-5.7424762e-05
-7.6367446e-05
-4.5810359e-05
-7.9636843e-05
-3.4050295e-05
-8.1454542e-05
-2.236628e-05
-8.18298e-05
-1.0973755e-05
-8.0806255e-05
-7.1316513e-08
-7.8455498e-05
1.0153779e-05
-7.4871714e-05
1.9567618e-05
-7.0198874e-05
2.7973005e-05
-6.4514695e-05
3.538301e-05
-5.8089635e-05
4.1627118e-05
-5.0962117e-05
4.6677522e-05
-4.3339779e-05
5.0510136e-05
-3.5378173e-05
5.3121921e-05
-2.7232781e-05
5.4561315e-05
-1.9069745e-05
5.482203e-05
-1.1000436e-05
5.3988656e-05
-3.1446292e-06
5.2082491e-05
4.4195757e-06
4.9236432e-05
1.1490205e-05
4.5507719e-05
1.8063962e-05
4.1003451e-05
2.4039243e-05
3.5834931e-05
2.9356021e-05
3.0042994e-05
3.4019344e-05
2.382606e-05
3.7843854e-05
1.7245142e-05
4.0907675e-05
1.039242e-05
4.3188331e-05
4.4618703e-05
-1.1667653e-05
5.2922319e-05
-1.9333939e-05
5.1225089e-05
-2.6778082e-05
4.8708824e-05
-3.3811212e-05
4.5200958e-05
-4.0273527e-05
4.0810447e-05
-4.6180006e-05
3.5529004e-05
-5.131844e-05
2.9437544e-05
-5.5609488e-05
2.2587795e-05
-5.8973205e-05
1.5058629e-05
-6.1284008e-05
6.8961359e-06
-6.2481036e-05
-1.7789089e-06
-6.244574e-05
-1.088899e-05
-6.1123853e-05
-2.0255311e-05
-5.8461087e-05
-2.9773366e-05
-5.4457988e-05
-3.9280689e-05
-4.9083603e-05
-4.8625437e-05
-4.2352892e-05
-5.7604391e-05
-3.4323296e-05
-6.6029206e-05
-2.5092051e-05
-7.3674431e-05
-1.4700644e-05
-8.0529866e-05
-3.3664226e-06
-8.6151384e-05
8.7590312e-06
-9.0527644e-05
2.1474353e-05
-9.3470136e-05
3.4554917e-05
-9.4862819e-05
4.7756095e-05
-9.4612347e-05
6.0820042e-05
-9.2662402e-05
7.3483367e-05
-8.8997597e-05
8.5486147e-05
-8.3645457e-05
9.6579238e-05
-7.6677587e-05
0.00010652848
-6.8209883e-05
0.0001151343
-5.8422789e-05
0.00012224867
-4.7478673e-05
0.00012766689
-3.5484388e-05
0.00013134678
-2.2849709e-05
0.00013322204
-9.7658307e-06
0.00013328054
3.5221103e-06
0.00013155168
1.6770442e-05
0.00012810143
2.9749924e-05
0.00012302774
4.2251263e-05
0.00011645041
5.4092802e-05
0.00010850701
6.5125733e-05
9.9351397e-05
7.5230171e-05
8.9132745e-05
8.4316178e-05
7.8006372e-05
9.2321735e-05
6.6120976e-05
9.9205475e-05
5.3618452e-05
0.00010494636
4.0637135e-05
0.00010953686
2.7303628e-05
0.00011297593
1.3740406e-05
0.00011526402
6.1314829e-08
0.00011640822
-1.3613579e-05
0.00011640757
-2.7180359e-05
0.00011526688
-4.0507314e-05
0.00011298081
-5.3489154e-05
0.00010954221
-6.5988101e-05
0.00010495403
-7.7873245e-05
9.9212237e-05
-8.9004181e-05
9.2329574e-05
-9.9224419e-05
8.4325244e-05
-0.00010838128
7.5239929e-05
-0.00011632642
6.5133135e-05
-0.00012290101
5.4098042e-05
-0.00012797157
4.2252408e-05
-0.00013142495
2.9747647e-05
-0.00013315212
1.6765973e-05
-0.00013309042
3.514426e-06
-0.00013121887
-9.777376e-06
-0.00012754252
-2.286329e-05
-0.00012212448
-3.5498952e-05
-0.00011501162
-4.7493653e-05
-0.00010640442
-5.8444355e-05
-9.6456746e-05
-6.8235447e-05
-8.5364242e-05
-7.6707318e-05
-7.3359475e-05
-8.3678414e-05
-6.0694538e-05
-8.9034691e-05
-4.7629201e-05
-9.2702886e-05
-3.4427366e-05
-9.4657172e-05
-2.1345153e-05
-9.4911832e-05
-8.6260965e-06
-9.3522433e-05
3.5066644e-06
-9.0584138e-05
1.4845671e-05
-8.621172e-05
2.5242155e-05
-8.0594545e-05
3.4479234e-05
-7.3745953e-05
4.2508155e-05
-6.6109665e-05
4.9244452e-05
-5.7692459e-05
5.4625638e-05
-4.8723252e-05
5.8638046e-05
-3.9391597e-05
6.1306843e-05
-2.9895569e-05
6.2630029e-05
-2.0392185e-05
6.2671631e-05
-1.1039191e-05
6.147337e-05
-1.9446701e-06
5.9176382e-05
6.7155813e-06
5.5810729e-05
1.48513e-05
5.1511631e-05
2.2364679e-05
4.6364557e-05
2.9193024e-05
4.0451509e-05
3.5265967e-05
3.3947916e-05
4.0515091e-05
2.690309e-05
4.4890624e-05
1.9432601e-05
4.8381823e-05
1.1733912e-05
5.0885012e-05
5.2564209e-05
-1.3284819e-05
6.1855567e-05
-2.1968657e-05
5.9920133e-05
-3.0283106e-05
5.7027605e-05
-3.819323e-05
5.3103461e-05
-4.5541259e-05
4.8160308e-05
-5.2252751e-05
4.2249929e-05
-5.8163503e-05
3.5349147e-05
-6.316926e-05
2.7588728e-05
-6.71379e-05
1.9026832e-05
-6.9959933e-05
9.7188476e-06
-7.1530872e-05
-2.1078778e-07
-7.1798836e-05
-1.0623618e-05
-7.0638209e-05
-2.141796e-05
-6.7985194e-05
-3.2432821e-05
-6.3778579e-05
-4.3495899e-05
-5.8049398e-05
-5.4357144e-05
-5.0771851e-05
-6.4878072e-05
-4.1970443e-05
-7.482806e-05
-3.1697418e-05
-8.3949249e-05
-2.0320208e-05
-9.1908695e-05
-7.7246664e-06
-9.8745281e-05
5.8204947e-06
-0.00010407018
2.0084525e-05