/*--------------------------------*- C++ -*----------------------------------*\
  =========                 |
  \\      /  F ield         | OpenFOAM: The Open Source CFD Toolbox
   \\    /   O peration     | Website:  https://openfoam.org
    \\  /    A nd           | Version:  9
     \\/     M anipulation  |
\*---------------------------------------------------------------------------*/
FoamFile
{
    format      ascii;
    class       volVectorField;
    location    "0.01";
    object      U;
}
// * * * * * * * * * * * * * * * * * * * * * * * * * * * * * * * * * * * * * //

dimensions      [0 1 -1 0 0 0 0];

internalField   nonuniform List<vector> 
10000
(
(-4.4428193e-05 0.00016018135 0)
(-0.00038495689 0.00010936331 0)
(-0.00083360876 7.6368994e-05 0)
(-0.0011564576 2.9491385e-05 0)
(-0.0014782216 -1.4013681e-05 0)
(-0.0017638415 -6.2828025e-05 0)
(-0.0020071539 -0.0001149142 0)
(-0.0022042894 -0.0001677608 0)
(-0.0023510868 -0.0002229145 0)
(-0.0024410636 -0.00027921413 0)
(-0.0024710027 -0.00033588687 0)
(-0.0024372314 -0.0003910728 0)
(-0.0023375277 -0.0004445718 0)
(-0.0021741647 -0.00049550349 0)
(-0.0019403817 -0.00054024298 0)
(-0.0016364321 -0.00058166892 0)
(-0.0012701872 -0.00061672392 0)
(-0.00084192956 -0.00064446442 0)
(-0.00035286594 -0.0006653946 0)
(0.00019071897 -0.00067905932 0)
(0.00077774853 -0.00068588462 0)
(0.0013987063 -0.00068528688 0)
(0.002042737 -0.00067686236 0)
(0.00269897 -0.00066001154 0)
(0.0033565861 -0.00063423701 0)
(0.0040041688 -0.00059948584 0)
(0.0046298374 -0.00055586579 0)
(0.0052217365 -0.00050343636 0)
(0.0057678775 -0.00044232019 0)
(0.0062561888 -0.00037239089 0)
(0.0066776913 -0.00029230657 0)
(0.0070213105 -0.00020345495 0)
(0.0072765351 -0.00010292222 0)
(0.0074610688 1.3160424e-05 0)
(0.0075867643 0.00013208494 0)
(0.0076372968 0.00024870194 0)
(0.0076019262 0.00036172883 0)
(0.0074772059 0.00047041227 0)
(0.0072629782 0.00057415492 0)
(0.0069614556 0.00067227711 0)
(0.0065763619 0.00076400307 0)
(0.0061123566 0.0008486376 0)
(0.0055753352 0.00092548656 0)
(0.0049723076 0.00099388761 0)
(0.0043107033 0.0010534354 0)
(0.003598579 0.001103706 0)
(0.0028445742 0.0011442489 0)
(0.0020574333 0.0011748734 0)
(0.0012465118 0.0011953275 0)
(0.00042118892 0.0012055439 0)
(-0.00040893789 0.0012054996 0)
(-0.0012341852 0.0011952253 0)
(-0.0020449381 0.0011747378 0)
(-0.0028317595 0.0011441268 0)
(-0.0035856315 0.0011036609 0)
(-0.0042975269 0.0010534964 0)
(-0.0049588937 0.00099395458 0)
(-0.0055617592 0.00092545926 0)
(-0.0060985767 0.00084857393 0)
(-0.0065624875 0.00076395761 0)
(-0.0069474904 0.00067222772 0)
(-0.0072487072 0.00057411118 0)
(-0.0074628067 0.00047023045 0)
(-0.0075876083 0.000361507 0)
(-0.0076233013 0.00024851596 0)
(-0.0075730791 0.00013200876 0)
(-0.0074475169 1.302909e-05 0)
(-0.0072632113 -0.0001031489 0)
(-0.0070079718 -0.00020372097 0)
(-0.0066642773 -0.00029253522 0)
(-0.0062425254 -0.00037258939 0)
(-0.0057539598 -0.00044263958 0)
(-0.0052080371 -0.00050372634 0)
(-0.0046162286 -0.00055601409 0)
(-0.0039901042 -0.00059964826 0)
(-0.0033418085 -0.0006344785 0)
(-0.0026833347 -0.00066038603 0)
(-0.0020263066 -0.00067743084 0)
(-0.0013816979 -0.00068591834 0)
(-0.00076017508 -0.00068647986 0)
(-0.00017231635 -0.00067971949 0)
(0.00037270527 -0.00066628617 0)
(0.00086287987 -0.00064514996 0)
(0.0012922165 -0.00061759975 0)
(0.0016601763 -0.0005828875 0)
(0.0019645863 -0.00054179148 0)
(0.0022007143 -0.00049654045 0)
(0.0023680777 -0.00044639107 0)
(0.0024703262 -0.00039325882 0)
(0.0025072425 -0.0003382422 0)
(0.0024810144 -0.00028247688 0)
(0.0023949446 -0.0002270328 0)
(0.0022532889 -0.0001729785 0)
(0.0020617715 -0.00012177511 0)
(0.0018256864 -7.2796049e-05 0)
(0.001549931 -2.8089024e-05 0)
(0.001240381 1.0145875e-05 0)
(0.00091455529 4.2978076e-05 0)
(0.00049502717 6.9768448e-05 0)
(0.00011901258 8.8612519e-05 0)
(-9.5156101e-05 0.0005754178 0)
(-0.00046870576 0.00048618229 0)
(-0.00091349376 0.00041719756 0)
(-0.0012468503 0.00032104321 0)
(-0.0015705502 0.00021387224 0)
(-0.0018647499 9.9153419e-05 0)
(-0.0021120923 -2.3972346e-05 0)
(-0.0023122952 -0.00015931161 0)
(-0.0024625444 -0.00029875187 0)
(-0.0025540389 -0.00044203755 0)
(-0.0025828637 -0.00058681266 0)
(-0.0025459159 -0.00073077306 0)
(-0.0024419571 -0.00087251038 0)
(-0.002269834 -0.0010088979 0)
(-0.0020265436 -0.0011344591 0)
(-0.0017129109 -0.0012528542 0)
(-0.0013329823 -0.0013572802 0)
(-0.00089060127 -0.0014461026 0)
(-0.00038746468 -0.0015189827 0)
(0.00017022242 -0.001574458 0)
(0.00077151116 -0.0016119216 0)
(0.0014077125 -0.0016301692 0)
(0.0020679906 -0.0016279097 0)
(0.0027415708 -0.0016036106 0)
(0.0034170846 -0.0015562674 0)
(0.0040825106 -0.0014855873 0)
(0.0047258585 -0.0013915206 0)
(0.0053352565 -0.0012742671 0)
(0.0058988992 -0.0011344319 0)
(0.0064061823 -0.00097247536 0)
(0.0068466101 -0.00078820639 0)
(0.007210673 -0.00058310097 0)
(0.0074931165 -0.00035437765 0)
(0.0076960279 -9.8349531e-05 0)
(0.0078222408 0.00016772749 0)
(0.0078668594 0.00043309979 0)
(0.0078235411 0.00069337002 0)
(0.0076895243 0.0009457696 0)
(0.0074647255 0.0011881496 0)
(0.0071511807 0.0014183901 0)
(0.0067525986 0.0016342176 0)
(0.0062737197 0.0018336739 0)
(0.005720473 0.0020150957 0)
(0.0051001562 0.0021768554 0)
(0.0044204362 0.002317739 0)
(0.0036893242 0.0024367308 0)
(0.0029156922 0.0025327699 0)
(0.0021084821 0.0026053205 0)
(0.0012771726 0.0026538639 0)
(0.00043137033 0.002678114 0)
(-0.0004192296 0.0026780217 0)
(-0.0012649026 0.0026536103 0)
(-0.0020959743 0.0026050538 0)
(-0.0029027585 0.002532503 0)
(-0.0036761703 0.0024365792 0)
(-0.0044071319 0.0023177908 0)
(-0.005086823 0.0021769289 0)
(-0.0057070257 0.0020151026 0)
(-0.0062599589 0.001833593 0)
(-0.0067387152 0.0016341025 0)
(-0.0071372252 0.0014181151 0)
(-0.0074505989 0.0011879734 0)
(-0.0076753069 0.00094527669 0)
(-0.0078092282 0.00069280969 0)
(-0.0078527247 0.00043253727 0)
(-0.0078085103 0.00016730382 0)
(-0.0076826354 -9.8899823e-05 0)
(-0.0074799315 -0.00035497861 0)
(-0.0071973336 -0.00058367554 0)
(-0.0068331224 -0.00078878932 0)
(-0.00639261 -0.0009729904 0)
(-0.0058850778 -0.0011350586 0)
(-0.0053213901 -0.0012749526 0)
(-0.0047121291 -0.0013920556 0)
(-0.0040685489 -0.0014861889 0)
(-0.0034025292 -0.0015570789 0)
(-0.002726275 -0.0016046041 0)
(-0.0020518342 -0.0016292222 0)
(-0.0013907508 -0.0016317292 0)
(-0.00075398749 -0.0016135243 0)
(-0.00015213923 -0.0015760424 0)
(0.00040725396 -0.0015207217 0)
(0.00091154304 -0.0014485495 0)
(0.0013544538 -0.0013597794 0)
(0.001735957 -0.0012558095 0)
(0.0020509036 -0.0011381603 0)
(0.0022960859 -0.0010119552 0)
(0.0024713325 -0.000876657 0)
(0.0025784506 -0.000736174 0)
(0.0026180025 -0.00059305844 0)
(0.0025922039 -0.00044989289 0)
(0.0025044251 -0.00030910913 0)
(0.002358531 -0.00017264989 0)
(0.0021619408 -4.2292686e-05 0)
(0.0019193618 7.6310603e-05 0)
(0.0016328642 0.00018251303 0)
(0.0013114404 0.00027647284 0)
(0.00097417306 0.00035674981 0)
(0.00054065365 0.00041467525 0)
(0.00013785621 0.00045571824 0)
(-0.00013343279 0.0010244596 0)
(-0.00054293875 0.00094507695 0)
(-0.00099874242 0.00085881558 0)
(-0.0013597999 0.00074464463 0)
(-0.0017001432 0.00060724267 0)
(-0.0020017263 0.00045452311 0)
(-0.002265663 0.00028660034 0)
(-0.0024791175 0.00010159111 0)
(-0.0026338668 -9.3819972e-05 0)
(-0.0027291822 -0.00029785498 0)
(-0.0027597955 -0.0005070649 0)
(-0.0027229838 -0.00071952912 0)
(-0.0026157039 -0.00093139078 0)
(-0.0024361564 -0.0011384025 0)
(-0.0021843712 -0.0013364327 0)
(-0.0018592788 -0.0015264049 0)
(-0.0014634491 -0.0016989503 0)
(-0.0010036317 -0.0018534429 0)
(-0.00048120645 -0.0019858196 0)
(9.7808415e-05 -0.0020950362 0)
(0.00072207508 -0.0021772551 0)
(0.0013827624 -0.0022306915 0)
(0.0020693474 -0.0022530187 0)
(0.0027706702 -0.0022422058 0)
(0.0034746683 -0.0021970504 0)
(0.0041689731 -0.0021168197 0)
(0.0048412129 -0.0020012468 0)
(0.005478874 -0.0018509127 0)
(0.0060697074 -0.0016670702 0)
(0.0066024441 -0.0014512265 0)
(0.0070670925 -0.0012056157 0)
(0.0074551768 -0.00093197538 0)
(0.0077613463 -0.00063153666 0)
(0.0079832794 -0.00030843875 0)
(0.0081183774 2.9599463e-05 0)
(0.0081631584 0.00037295959 0)
(0.0081148638 0.0007148928 0)
(0.0079722952 0.0010502351 0)
(0.0077359416 0.0013747553 0)
(0.0074078907 0.0016846699 0)
(0.0069920282 0.0019762833 0)
(0.0064936218 0.0022464142 0)
(0.0059188971 0.002492613 0)
(0.0052753135 0.0027125623 0)
(0.0045709121 0.0029042073 0)
(0.0038139041 0.0030660986 0)
(0.0030134102 0.003196885 0)
(0.002178717 0.0032956778 0)
(0.0013194327 0.0033618961 0)
(0.00044540686 0.0033949939 0)
(-0.00043345214 0.0033949234 0)
(-0.0013072328 0.0033616341 0)
(-0.0021661894 0.003295486 0)
(-0.0030004401 0.0031966756 0)
(-0.0038006071 0.0030659176 0)
(-0.0045574903 0.0029041739 0)
(-0.0052619348 0.002712518 0)
(-0.0059054778 0.00249265 0)
(-0.0064799747 0.0022462903 0)
(-0.0069783649 0.001976029 0)
(-0.0073940054 0.0016841875 0)
(-0.0077219057 0.0013743715 0)
(-0.0079582958 0.0010496745 0)
(-0.008100626 0.00071417218 0)
(-0.0081490378 0.00037211495 0)
(-0.0081046896 2.8784542e-05 0)
(-0.0079699163 -0.00030938481 0)
(-0.0077480553 -0.00063236971 0)
(-0.007441822 -0.00093268156 0)
(-0.0070536182 -0.0012064811 0)
(-0.0065888266 -0.0014521585 0)
(-0.0060559686 -0.0016681047 0)
(-0.0054650917 -0.0018520596 0)
(-0.0048275323 -0.0020022445 0)
(-0.0041552034 -0.0021177285 0)
(-0.0034603053 -0.0021981827 0)
(-0.0027555622 -0.0022436617 0)
(-0.0020535159 -0.0022548298 0)
(-0.0013660824 -0.0022328486 0)
(-0.00070456541 -0.0021796643 0)
(-7.9582434e-05 -0.0020975077 0)
(0.00050013861 -0.0019883524 0)
(0.0010237742 -0.0018570395 0)
(0.0014849221 -0.001702694 0)
(0.0018817745 -0.0015302114 0)
(0.0022084278 -0.0013415617 0)
(0.0024622135 -0.0011435155 0)
(0.0026438636 -0.00093702523 0)
(0.002753936 -0.00072663707 0)
(0.0027935398 -0.00051603578 0)
(0.0027649823 -0.00030856915 0)
(0.0026722066 -0.00010743443 0)
(0.0025201239 8.4418486e-05 0)
(0.0023107487 0.00026511237 0)
(0.0020505067 0.00042756778 0)
(0.0017501056 0.000571814 0)
(0.0014146279 0.00069826543 0)
(0.0010527714 0.00080280827 0)
(0.00059399597 0.00087961814 0)
(0.00016006327 0.00093358231 0)
(-0.00017442035 0.0014350124 0)
(-0.00063420874 0.0013489318 0)
(-0.0011139392 0.0012377533 0)
(-0.0014984392 0.0010967298 0)
(-0.0018607004 0.00093145207 0)
(-0.0021854285 0.00073734351 0)
(-0.0024650633 0.00051991124 0)
(-0.0026927529 0.00028639497 0)
(-0.0028620341 3.4130806e-05 0)
(-0.0029673336 -0.00023333216 0)
(-0.0030045909 -0.00051089971 0)
(-0.002970298 -0.00079481909 0)
(-0.0028608848 -0.0010799845 0)
(-0.0026749254 -0.0013620764 0)
(-0.0024145901 -0.0016360076 0)
(-0.0020754669 -0.0018969996 0)
(-0.0016600492 -0.0021407815 0)
(-0.001177486 -0.0023615787 0)
(-0.00062905656 -0.0025535557 0)
(-2.1198828e-05 -0.0027158848 0)
(0.00063587835 -0.0028415179 0)
(0.0013319818 -0.0029278122 0)
(0.0020565191 -0.0029714449 0)
(0.0027975862 -0.0029699034 0)
(0.0035425187 -0.002921414 0)
(0.0042783628 -0.0028248233 0)
(0.0049918114 -0.0026800181 0)
(0.0056694716 -0.0024880245 0)
(0.0062986155 -0.0022505957 0)
(0.0068676587 -0.0019700966 0)
(0.0073658689 -0.0016497533 0)
(0.0077847414 -0.0012930249 0)
(0.0081166159 -0.00090467315 0)
(0.0083571102 -0.0004914831 0)
(0.0085035782 -6.1550588e-05 0)
(0.0085520858 0.00037686464 0)
(0.0085007433 0.00081598273 0)
(0.0083493111 0.0012487844 0)
(0.0080990856 0.0016689865 0)
(0.007752637 0.0020710794 0)
(0.0073142771 0.0024500712 0)
(0.0067899917 0.0028015326 0)
(0.0061865722 0.0031219305 0)
(0.0055117119 0.0034082254 0)
(0.0047739443 0.0036576475 0)
(0.0039819834 0.003868236 0)
(0.0031452625 0.0040384218 0)
(0.0022734929 0.0041669333 0)
(0.0013764963 0.0042530808 0)
(0.00046440985 0.0042961785 0)
(-0.00045257568 0.004296162 0)
(-0.0013643228 0.004252944 0)
(-0.0022609076 0.0041668879 0)
(-0.0031322954 0.0040384132 0)
(-0.0039686365 0.0038681844 0)
(-0.0047604933 0.0036576086 0)
(-0.0054983052 0.0034080853 0)
(-0.0061732093 0.0031218035 0)
(-0.0067765329 0.0028012747 0)
(-0.007300768 0.0024495795 0)
(-0.0077388289 0.0020706065 0)
(-0.0080850503 0.0016683396 0)
(-0.0083354451 0.0012481641 0)
(-0.0084867256 0.00081518276 0)
(-0.0085380546 0.00037587055 0)
(-0.0084899599 -6.2593277e-05 0)
(-0.0083437491 -0.00049258287 0)
(-0.0081032011 -0.00090579634 0)
(-0.0077714359 -0.0012941369 0)
(-0.0073526086 -0.001650947 0)
(-0.0068542578 -0.0019713372 0)
(-0.0062850161 -0.0022519786 0)
(-0.0056555789 -0.0024896292 0)
(-0.0049778571 -0.0026816757 0)
(-0.0042645541 -0.0028263861 0)
(-0.0035285358 -0.002923037 0)
(-0.0027829979 -0.0029718681 0)
(-0.0020410937 -0.0029737455 0)
(-0.0013156528 -0.0029304566 0)
(-0.00061870678 -0.0028446175 0)
(3.9122908e-05 -0.0027193769 0)
(0.00064768195 -0.0025573213 0)
(0.0011971709 -0.0023655728 0)
(0.0016812632 -0.0021454519 0)
(0.0020970817 -0.0019022328 0)
(0.0024375992 -0.0016419593 0)
(0.002700629 -0.0013689171 0)
(0.0028882228 -0.0010877051 0)
(0.0029994552 -0.00080365285 0)
(0.0030360892 -0.00052188167 0)
(0.0030008282 -0.00024677925 0)
(0.0028974369 1.7662759e-05 0)
(0.0027311018 0.00026646684 0)
(0.0025051125 0.00049943839 0)
(0.0022260858 0.00070825478 0)
(0.0019035821 0.00089406338 0)
(0.0015424499 0.0010541517 0)
(0.0011555445 0.0011826096 0)
(0.00067142846 0.0012840383 0)
(0.00019183158 0.001357225 0)
(-0.00021941328 0.0018845946 0)
(-0.00074006307 0.0017878069 0)
(-0.0012509475 0.0016569827 0)
(-0.0016661114 0.0014905041 0)
(-0.0020595519 0.0012888332 0)
(-0.0024132983 0.0010541935 0)
(-0.0027166487 0.00078890661 0)
(-0.0029649381 0.00049748766 0)
(-0.003153634 0.00018292762 0)
(-0.003274261 -0.00015527347 0)
(-0.0033213389 -0.00050480784 0)
(-0.0032921292 -0.00086445525 0)
(-0.0031830223 -0.0012285601 0)
(-0.0029922394 -0.0015909896 0)
(-0.0027193488 -0.0019453326 0)
(-0.0023641017 -0.002282806 0)
(-0.0019280715 -0.0026027652 0)
(-0.0014164346 -0.002893934 0)
(-0.00083552491 -0.0031499111 0)
(-0.00019015331 -0.0033711293 0)
(0.00051015964 -0.0035430192 0)
(0.0012528599 -0.0036652115 0)
(0.0020272884 -0.0037329365 0)
(0.0028207375 -0.0037427544 0)
(0.0036197893 -0.0036920917 0)
(0.004410412 -0.0035795191 0)
(0.0051780511 -0.0034050429 0)
(0.0059083295 -0.0031699026 0)
(0.0065876623 -0.0028763942 0)
(0.0072033047 -0.0025280099 0)
(0.0077441692 -0.0021295048 0)
(0.0082002545 -0.0016864578 0)
(0.0085628783 -0.0012059756 0)
(0.0088263869 -0.00069519406 0)
(0.0089867154 -0.00016424477 0)
(0.0090406912 0.00037742923 0)
(0.0089867907 0.00092073851 0)
(0.0088253154 0.0014571078 0)
(0.0085582631 0.0019784279 0)
(0.0081890104 0.0024774818 0)
(0.0077225237 0.0029480032 0)
(0.0071655304 0.0033844033 0)
(0.0065256445 0.0037819957 0)
(0.005811089 0.0041370294 0)
(0.0050309827 0.00444624 0)
(0.0041947362 0.0047071226 0)
(0.0033121609 0.0049178898 0)
(0.0023934235 0.0050769702 0)
(0.0014487183 0.005183548 0)
(0.00048851095 0.0052369418 0)
(-0.00047668961 0.0052369725 0)
(-0.0014365272 0.0051836036 0)
(-0.0023807459 0.0050770428 0)
(-0.003299176 0.0049179973 0)
(-0.0041814519 0.0047071855 0)
(-0.0050176361 0.0044461713 0)
(-0.0057977906 0.0041369335 0)
(-0.006512339 0.0037816948 0)
(-0.0071522479 0.0033840648 0)
(-0.0077090786 0.0029473045 0)
(-0.0081752882 0.0024768358 0)
(-0.0085443856 0.0019775247 0)
(-0.0088114795 0.0014562405 0)
(-0.0089729403 0.00091977869 0)
(-0.0090268234 0.00037628344 0)
(-0.0089731439 -0.00016560355 0)
(-0.0088131117 -0.00069657207 0)
(-0.0085496042 -0.0012073512 0)
(-0.0081869734 -0.0016879093 0)
(-0.0077308264 -0.0021310529 0)
(-0.0071898804 -0.0025297036 0)
(-0.0065742959 -0.0028781783 0)
(-0.0058948357 -0.0031718875 0)
(-0.0051643464 -0.0034072882 0)
(-0.0043966276 -0.0035818659 0)
(-0.0036058536 -0.0036944204 0)
(-0.0028063385 -0.0037452804 0)
(-0.0020121672 -0.0037358056 0)
(-0.0012370085 -0.0036684197 0)
(-0.00049353246 -0.0035466306 0)
(0.00020767558 -0.0033751678 0)
(0.00085391505 -0.0031543276 0)
(0.0014356259 -0.0028985987 0)
(0.0019482556 -0.0026081028 0)
(0.0023852653 -0.0022894138 0)
(0.0027417487 -0.0019520065 0)
(0.0030164814 -0.0015988995 0)
(0.0032091463 -0.0012379631 0)
(0.0033197825 -0.0008753265 0)
(0.0033504399 -0.00051715519 0)
(0.0033045575 -0.00016953394 0)
(0.0031854863 0.0001638614 0)
(0.0030019352 0.00047574692 0)
(0.0027525705 0.00076266491 0)
(0.00244516 0.0010235064 0)
(0.0020960279 0.0012529938 0)
(0.0017031956 0.0014480617 0)
(0.0012826823 0.0016064911 0)
(0.0007686092 0.0017308033 0)
(0.00023326364 0.001820706 0)
(-0.00027112344 0.0023766811 0)
(-0.00086169341 0.0022669988 0)
(-0.0014112448 0.0021124798 0)
(-0.0018665977 0.001918721 0)
(-0.0022970327 0.0016800171 0)
(-0.0026853827 0.0014009368 0)
(-0.003021802 0.0010836935 0)
(-0.0032987708 0.00073174777 0)
(-0.0035148347 0.00034832636 0)
(-0.0036551203 -5.9847575e-05 0)
(-0.0037138339 -0.00048758939 0)
(-0.0036941169 -0.00092970388 0)
(-0.0035874889 -0.0013792816 0)
(-0.0033917675 -0.0018276284 0)
(-0.0031064721 -0.0022678012 0)
(-0.0027329594 -0.0026916514 0)
(-0.0022712312 -0.0030919642 0)
(-0.0017246735 -0.0034607299 0)
(-0.0011062775 -0.0037886586 0)
(-0.00041431623 -0.0040689496 0)
(0.00034180002 -0.0042939467 0)
(0.0011420796 -0.0044568539 0)
(0.0019789981 -0.0045523943 0)
(0.0028384604 -0.0045760906 0)
(0.0037057906 -0.0045246109 0)
(0.0045654495 -0.0043962531 0)
(0.0054014619 -0.0041909574 0)
(0.0061981492 -0.0039101677 0)
(0.0069405312 -0.0035569728 0)
(0.0076145604 -0.0031361917 0)
(0.0082074217 -0.0026542051 0)
(0.0087082638 -0.0021177452 0)
(0.0091078669 -0.0015360294 0)
(0.0093988161 -0.00091901268 0)
(0.0095761752 -0.00027779815 0)
(0.0096370527 0.00037632424 0)
(0.009580415 0.0010325168 0)
(0.0094070019 0.0016803629 0)
(0.0091194692 0.0023099419 0)
(0.0087222292 0.0029122943 0)
(0.008221223 0.0034797719 0)
(0.0076240171 0.0040057344 0)
(0.006939238 0.0044844504 0)
(0.006176001 0.0049113817 0)
(0.0053440859 0.0052828834 0)
(0.0044536827 0.0055959716 0)
(0.0035151594 0.0058486446 0)
(0.0025391983 0.0060392496 0)
(0.0015365116 0.0061668347 0)
(0.00051785808 0.0062308185 0)
(-0.00050592554 0.0062308556 0)
(-0.0015242834 0.0061669997 0)
(-0.0025265434 0.0060393789 0)
(-0.0035021818 0.0058487316 0)
(-0.004440495 0.0055960962 0)
(-0.0053307777 0.0052827779 0)
(-0.0061628112 0.0049113309 0)
(-0.0069261031 0.0044841161 0)
(-0.007610946 0.004005257 0)
(-0.0082080203 0.0034790611 0)
(-0.0087086289 0.0029113603 0)
(-0.0091056661 0.0023088561 0)
(-0.0093932022 0.0016792993 0)
(-0.0095666831 0.0010313197 0)
(-0.0096234274 0.00037491408 0)
(-0.0095627989 -0.00027937464 0)
(-0.0093854801 -0.00092064318 0)
(-0.0090945284 -0.0015376719 0)
(-0.0086951378 -0.0021194601 0)
(-0.0081944178 -0.0026561045 0)
(-0.0076014094 -0.0031383666 0)
(-0.0069272373 -0.0035593226 0)
(-0.0061847358 -0.0039125741 0)
(-0.0053878907 -0.0041935072 0)
(-0.0045517461 -0.0043989609 0)
(-0.0036920098 -0.0045274785 0)
(-0.002824442 -0.0045791965 0)
(-0.0019642881 -0.0045558899 0)
(-0.0011265227 -0.0044606987 0)
(-0.00032548863 -0.0042980172 0)
(0.00043139927 -0.0040733038 0)
(0.0011242343 -0.0037935316 0)
(0.0017433896 -0.0034661865 0)
(0.0022904509 -0.0030980716 0)
(0.0027531844 -0.0026987804 0)
(0.0031281278 -0.0022757196 0)
(0.0034146957 -0.0018364604 0)
(0.003611824 -0.0013896018 0)
(0.0037202978 -0.00094251278 0)
(0.0037419229 -0.00050163186 0)
(0.0036818894 -7.5921726e-05 0)
(0.0035427615 0.00032945363 0)
(0.0033299476 0.0007095209 0)
(0.0030529153 0.0010551429 0)
(0.0027164533 0.0013703829 0)
(0.0023281731 0.001646186 0)
(0.0018959785 0.0018778963 0)
(0.0014383207 0.0020666589 0)
(0.00088563974 0.0022134645 0)
(0.00028175153 0.0023183872 0)
(-0.0003290263 0.0029160744 0)
(-0.0010041448 0.0027904094 0)
(-0.0015992293 0.0026185178 0)
(-0.0020985844 0.0023929187 0)
(-0.0025773571 0.0021145116 0)
(-0.0030096495 0.0017858725 0)
(-0.0033858683 0.001410979 0)
(-0.00370034 0.00099282809 0)
(-0.0039452669 0.00053799771 0)
(-0.0041102184 5.5126666e-05 0)
(-0.0041912553 -0.00045713323 0)
(-0.0041838947 -0.00098670982 0)
(-0.0040810246 -0.001530808 0)
(-0.0038808374 -0.0020720834 0)
(-0.0035834496 -0.0026065126 0)
(-0.0031883346 -0.0031239485 0)
(-0.0026972109 -0.0036135309 0)
(-0.002113184 -0.0040676126 0)
(-0.0014437833 -0.0044755274 0)
(-0.00069546078 -0.0048217951 0)
(0.00012224909 -0.0051065256 0)
(0.00099441458 -0.0053158859 0)
(0.0019080637 -0.0054437988 0)
(0.0028485441 -0.005484538 0)
(0.0037996565 -0.0054339838 0)
(0.0047440952 -0.0052899838 0)
(0.0056641634 -0.0050523101 0)
(0.0065423376 -0.0047227426 0)
(0.0073616559 -0.0043052205 0)
(0.0081060799 -0.0038057075 0)
(0.008762611 -0.0032318959 0)
(0.0093184173 -0.0025943721 0)
(0.0097615923 -0.0019012254 0)
(0.010084586 -0.0011670194 0)
(0.010282019 -0.00040449672 0)
(0.010350984 0.00037315614 0)
(0.010290818 0.0011528084 0)
(0.010102737 0.0019218176 0)
(0.0097901985 0.002668372 0)
(0.0093588539 0.0033818173 0)
(0.0088159866 0.0040530031 0)
(0.008170241 0.0046741903 0)
(0.007431331 0.0052387505 0)
(0.0066095659 0.0057413184 0)
(0.005715621 0.0061779191 0)
(0.0047605489 0.0065453517 0)
(0.0037554927 0.0068414401 0)
(0.0027116677 0.0070646345 0)
(0.0016403394 0.0072138646 0)
(0.00055255891 0.0072886732 0)
(-0.00054052799 0.0072887224 0)
(-0.0016280484 0.0072140209 0)
(-0.0026990546 0.0070648109 0)
(-0.0037424952 0.0068415601 0)
(-0.0047474401 0.0065454841 0)
(-0.0057024315 0.0061779038 0)
(-0.0065964768 0.0057411721 0)
(-0.0074184351 0.0052385104 0)
(-0.0081573235 0.0046737427 0)
(-0.0088029967 0.0040525065 0)
(-0.0093455086 0.0033809373 0)
(-0.009776454 0.0026673136 0)
(-0.010089022 0.0019206653 0)
(-0.010277323 0.0011515757 0)
(-0.010337507 0.00037167526 0)
(-0.01026868 -0.00040610979 0)
(-0.010071387 -0.0011687203 0)
(-0.009748406 -0.001903093 0)
(-0.0093053966 -0.0025963398 0)
(-0.0087497438 -0.0032339085 0)
(-0.0080931279 -0.0038079856 0)
(-0.007348544 -0.0043077888 0)
(-0.006529066 -0.0047254344 0)
(-0.0056507826 -0.0050551311 0)
(-0.004730652 -0.0052929926 0)
(-0.0037861412 -0.0054372421 0)
(-0.0028347981 -0.0054880238 0)
(-0.0018937134 -0.0054475963 0)
(-0.00097917166 -0.0053201649 0)
(-0.00010616091 -0.0051111936 0)
(0.0007121485 -0.0048268135 0)
(0.0014610315 -0.0044810692 0)
(0.0021310977 -0.0040738445 0)
(0.0027156744 -0.0036206782 0)
(0.0032076349 -0.0031318579 0)
(0.0036040988 -0.0026154453 0)
(0.0039026412 -0.0020819419 0)
(0.004103144 -0.0015413189 0)
(0.0042078055 -0.0010008249 0)
(0.0042170837 -0.00047293217 0)
(0.004135694 3.6935281e-05 0)
(0.0039709816 0.00051949491 0)
(0.0037276756 0.00097116907 0)
(0.0034134824 0.0013854376 0)
(0.0030362496 0.0017564823 0)
(0.0026035811 0.0020807038 0)
(0.0021237037 0.0023541504 0)
(0.0016182925 0.0025754507 0)
(0.0010203325 0.0027411298 0)
(0.00033820594 0.0028617686 0)
(-0.00039673523 0.0035076857 0)
(-0.0011591468 0.0033676657 0)
(-0.0018087427 0.0031788569 0)
(-0.0023706162 0.0029189053 0)
(-0.0029041069 0.0025985837 0)
(-0.0033889516 0.0022179287 0)
(-0.0038148863 0.0017811225 0)
(-0.0041717953 0.0012935069 0)
(-0.0044525769 0.00076269256 0)
(-0.0046502851 0.00019269549 0)
(-0.0047557186 -0.00041053162 0)
(-0.0047678589 -0.001036587 0)
(-0.0046729467 -0.0016773515 0)
(-0.0044675615 -0.0023232661 0)
(-0.004158425 -0.0029620509 0)
(-0.0037400577 -0.0035825412 0)
(-0.0032149656 -0.0041728389 0)
(-0.002586735 -0.0047206598 0)
(-0.0018605116 -0.0052167224 0)
(-0.0010453476 -0.005643167 0)
(-0.00015231097 -0.0059941134 0)
(0.00080479534 -0.0062565474 0)
(0.0018103488 -0.0064223218 0)
(0.0028482893 -0.006484071 0)
(0.0039003627 -0.0064366595 0)
(0.0049471412 -0.0062772552 0)
(0.0059687213 -0.006005421 0)
(0.0069452547 -0.0056232997 0)
(0.007857575 -0.0051356084 0)
(0.0086878838 -0.0045494476 0)
(0.0094187485 -0.0038740216 0)
(0.010038916 -0.0031217605 0)
(0.010535192 -0.0023073948 0)
(0.010895506 -0.0014434524 0)
(0.011116311 -0.00054631924 0)
(0.011194329 0.00036806144 0)
(0.011129059 0.0012837343 0)
(0.010922558 0.0021855079 0)
(0.010579473 0.003059516 0)
(0.010106878 0.0038933869 0)
(0.0095136235 0.0046763303 0)
(0.0088098005 0.0053993044 0)
(0.0080064102 0.006054945 0)
(0.0071152192 0.0066372893 0)
(0.0061481736 0.0071420632 0)
(0.0051172617 0.0075661066 0)
(0.0040345023 0.0079071678 0)
(0.0029116859 0.0081639296 0)
(0.0017606162 0.0083354586 0)
(0.00059274958 0.0084213639 0)
(-0.00058060528 0.0084214858 0)
(-0.001748255 0.0083356936 0)
(-0.0028990568 0.0081641431 0)
(-0.0040215529 0.0079073831 0)
(-0.0051041923 0.0075661525 0)
(-0.0061351277 0.0071422507 0)
(-0.0071022381 0.0066373373 0)
(-0.007993563 0.0060549823 0)
(-0.0087969749 0.0053992198 0)
(-0.0095008445 0.0046761821 0)
(-0.010093836 0.0038929174 0)
(-0.010565945 0.0030588476 0)
(-0.010908944 0.0021845203 0)
(-0.01111567 0.0012825274 0)
(-0.011181096 0.00036671331 0)
(-0.011103161 -0.00054778129 0)
(-0.010882426 -0.001445111 0)
(-0.010522121 -0.0023093198 0)
(-0.010025942 -0.0031239073 0)
(-0.0094060742 -0.0038762317 0)
(-0.0086753102 -0.0045517489 0)
(-0.007844718 -0.0051381587 0)
(-0.0069321175 -0.0056261611 0)
(-0.0059554916 -0.006008536 0)
(-0.0049339017 -0.0062805974 0)
(-0.0038870858 -0.0064401944 0)
(-0.0028348359 -0.0064878457 0)
(-0.0017964618 -0.0064264196 0)
(-0.00079014232 -0.0062611758 0)
(0.00016785163 -0.0059993144 0)
(0.0010615265 -0.0056490385 0)
(0.0018772227 -0.0052232281 0)
(0.0026038119 -0.0047273501 0)
(0.0032324689 -0.0041806267 0)
(0.0037584556 -0.0035912151 0)
(0.0041780936 -0.0029717227 0)
(0.0044888848 -0.0023341016 0)
(0.004693015 -0.0016894909 0)
(0.0047887542 -0.0010500379 0)
(0.0047797488 -0.00042646812 0)
(0.0046743797 0.00017489939 0)
(0.0044770588 0.00074293047 0)
(0.0041959524 0.0012716928 0)
(0.0038382854 0.0017556542 0)
(0.003411774 0.0021889545 0)
(0.002925888 0.0025656898 0)
(0.0023907614 0.0028821507 0)
(0.0018253423 0.0031378366 0)
(0.0011719556 0.0033257165 0)
(0.00040241571 0.0034607489 0)
(-0.00046901221 0.0041594626 0)
(-0.0013328885 0.0040148595 0)
(-0.0020480036 0.0037977311 0)
(-0.002678876 0.003505144 0)
(-0.0032783715 0.0031380827 0)
(-0.0038271584 0.0027039623 0)
(-0.0043103462 0.0022031467 0)
(-0.0047188268 0.0016424763 0)
(-0.0050461298 0.0010267232 0)
(-0.0052834844 0.0003623013 0)
(-0.0054205822 -0.00034007025 0)
(-0.0054507696 -0.0010729149 0)
(-0.0053677772 -0.001820538 0)
(-0.0051656314 -0.0025804297 0)
(-0.0048428221 -0.0033353903 0)
(-0.0043992154 -0.0040713592 0)
(-0.0038354132 -0.0047744579 0)
(-0.0031571422 -0.0054296983 0)
(-0.0023663588 -0.0060232824 0)
(-0.0014729044 -0.0065418282 0)
(-0.00049116831 -0.006969003 0)
(0.00056618198 -0.0072937874 0)
(0.0016805303 -0.0075045203 0)
(0.0028342042 -0.0075924377 0)
(0.0040064734 -0.0075511219 0)
(0.0051753382 -0.0073768324 0)
(0.0063181259 -0.0070688094 0)
(0.0074121549 -0.0066294695 0)
(0.0084355053 -0.0060643889 0)
(0.0093676518 -0.0053822904 0)
(0.010190274 -0.0045951417 0)
(0.010885019 -0.003715933 0)
(0.011439869 -0.0027627317 0)
(0.011845613 -0.0017530061 0)
(0.012093482 -0.00070509802 0)
(0.012180999 0.00036166007 0)
(0.012108242 0.0014282407 0)
(0.011878512 0.0024766824 0)
(0.011498088 0.0034906808 0)
(0.010975694 0.0044558354 0)
(0.010321941 0.0053596659 0)
(0.0095489004 0.0061917983 0)
(0.0086693693 0.0069442514 0)
(0.0076967446 0.0076108134 0)
(0.0066445034 0.0081869669 0)
(0.0055257235 0.0086697647 0)
(0.0043533891 0.0090572355 0)
(0.0031400338 0.0093484204 0)
(0.0018978547 0.0095428113 0)
(0.00063862844 0.0096400921 0)
(-0.00062623183 0.0096401886 0)
(-0.001885467 0.0095431358 0)
(-0.0031274359 0.0093486629 0)
(-0.004340546 0.0090575828 0)
(-0.005512627 0.0086699985 0)
(-0.0066312958 0.0081873413 0)
(-0.0076837894 0.007611291 0)
(-0.008656594 0.0069447238 0)
(-0.0095361603 0.0061921957 0)
(-0.010309326 0.0053599262 0)
(-0.010962853 0.0044559139 0)
(-0.011484853 0.0034904157 0)
(-0.011865336 0.0024760571 0)
(-0.012095115 0.0014271922 0)
(-0.012167786 0.0003604018 0)
(-0.012080459 -0.0007063815 0)
(-0.011832879 -0.0017544421 0)
(-0.011427169 -0.0027644897 0)
(-0.010872292 -0.0037180187 0)
(-0.010177583 -0.0045975153 0)
(-0.0093550648 -0.0053846905 0)
(-0.0084229797 -0.0060669815 0)
(-0.0073994751 -0.0066324774 0)
(-0.0063052549 -0.0070722188 0)
(-0.0051623451 -0.0073805674 0)
(-0.0039934222 -0.0075551158 0)
(-0.0028210486 -0.0075966907 0)
(-0.0016670589 -0.0075090977 0)
(-0.00055206924 -0.0072987971 0)
(0.00050598584 -0.0069745488 0)
(0.0014882594 -0.0065480943 0)
(0.0023827617 -0.0060302297 0)
(0.0031737494 -0.0054373625 0)
(0.0038518684 -0.00478292 0)
(0.0044166084 -0.0040807042 0)
(0.0048612914 -0.0033457817 0)
(0.0051849582 -0.0025923406 0)
(0.0053872923 -0.0018344394 0)
(0.0054709147 -0.0010865708 0)
(0.0054421082 -0.00035617369 0)
(0.0053051753 0.00034358725 0)
(0.0050678528 0.0010060436 0)
(0.0047404738 0.0016193683 0)
(0.0043308125 0.0021780062 0)
(0.0038463457 0.002676345 0)
(0.0032968312 0.003108251 0)
(0.0026958929 0.003471467 0)
(0.0020619058 0.0037608194 0)
(0.0013432442 0.0039754095 0)
(0.00047326812 0.0041177198 0)
(-0.00054132351 0.0048956803 0)
(-0.0015208111 0.004738574 0)
(-0.0023184866 0.0044972505 0)
(-0.0030302889 0.0041669812 0)
(-0.0037053336 0.0037506686 0)
(-0.0043239506 0.0032561175 0)
(-0.0048764412 0.0026855993 0)
(-0.0053482858 0.0020434745 0)
(-0.0057328164 0.0013358102 0)
(-0.0060171329 0.00057222412 0)
(-0.0061909867 -0.00023793357 0)
(-0.0062483868 -0.0010870198 0)
(-0.0061805276 -0.0019592188 0)
(-0.0059824966 -0.0028438605 0)
(-0.0056494577 -0.003727197 0)
(-0.0051792342 -0.0045928885 0)
(-0.0045734065 -0.0054231463 0)
(-0.0038356486 -0.0062007703 0)
(-0.0029727276 -0.006904824 0)
(-0.0019911468 -0.0075318408 0)
(-0.00090432731 -0.0080465619 0)
(0.00026923692 -0.0084445271 0)
(0.0015116675 -0.0087091096 0)
(0.0028016629 -0.0088298421 0)
(0.0041159501 -0.0087984976 0)
(0.0054294431 -0.0086101377 0)
(0.0067160759 -0.008263511 0)
(0.0079496643 -0.0077612482 0)
(0.0091047386 -0.007109924 0)
(0.010157111 -0.0063200214 0)
(0.011085079 -0.0054056297 0)
(0.011871286 -0.0043841716 0)
(0.012498074 -0.0032751215 0)
(0.012953082 -0.0021005044 0)
(0.013230911 -0.00088263124 0)
(0.013327619 0.00035523646 0)
(0.013244054 0.0015905538 0)
(0.012984994 0.0028021752 0)
(0.012558641 0.0039708169 0)
(0.011975894 0.0050796372 0)