/*--------------------------------*- C++ -*----------------------------------*\
  =========                 |
  \\      /  F ield         | OpenFOAM: The Open Source CFD Toolbox
   \\    /   O peration     | Website:  https://openfoam.org
    \\  /    A nd           | Version:  9
     \\/     M anipulation  |
\*---------------------------------------------------------------------------*/
FoamFile
{
    format      ascii;
    class       surfaceScalarField;
    location    "16";
    object      phi;
}
// * * * * * * * * * * * * * * * * * * * * * * * * * * * * * * * * * * * * * //

dimensions      [0 3 -1 0 0 0 0];

internalField   nonuniform List<scalar> 
1890
(
0.0093061957
0.00069380426
0.008284393
0.0010218027
0.0073298986
0.0009544945
0.0064869553
0.00084294334
0.0057695845
0.0007173708
0.00518986
0.00057972442
0.004738168
0.00045169203
0.00439519
0.000342978
0.0041390268
0.00025616317
0.003949107
0.00018991983
0.003807888
0.00014121898
0.0037013782
0.0001065098
0.003619058
8.2320229e-05
0.0035534117
6.5646253e-05
0.0034992845
5.4127262e-05
0.0034532444
4.6040053e-05
0.0034130501
4.0194294e-05
0.0033772574
3.5792753e-05
0.0033449386
3.2318752e-05
0.0033154893
2.9449272e-05
0.0032885008
2.6988568e-05
0.0032636805
2.4820296e-05
0.003240805
2.2875482e-05
0.0032196926
2.1112426e-05
0.0032001879
1.9504668e-05
0.0031821539
1.803403e-05
0.0031654672
1.6686737e-05
0.0031500158
1.5451367e-05
0.0031356979
1.4317857e-05
0.0031224209
1.3277059e-05
0.0031101003
1.2320576e-05
0.0030986595
1.1440707e-05
0.0030880291
1.0630428e-05
0.0030781458
9.8833675e-06
0.003068952
9.1937825e-06
0.0030603955
8.5565126e-06
0.0030524286
7.9669369e-06
0.0030450077
7.4209177e-06
0.0030380929
6.914752e-06
0.0030316478
6.4451204e-06
0.0030256387
6.0090397e-06
0.0030200349
5.6038258e-06
0.0030148078
5.2270524e-06
0.0030099313
4.8765246e-06
0.0030053811
4.5502495e-06
0.0030011347
4.2464133e-06
0.0029971713
3.9633641e-06
0.0029934717
3.6995891e-06
0.002990018
3.4537041e-06
0.0029867936
3.2244364e-06
0.0029837829
3.0106136e-06
0.0029809718
2.8111556e-06
0.0029783467
2.6250618e-06
0.0029758953
2.4514085e-06
0.002973606
2.2893396e-06
0.0029714679
2.1380622e-06
0.0029694711
1.9968438e-06
0.0029676061
1.8650025e-06
0.0029658642
1.7419083e-06
0.0029642372
1.6269738e-06
0.0029627175
1.5196528e-06
0.0029612981
1.4194365e-06
0.0029599722
1.3258487e-06
0.0029587338
1.2384463e-06
0.002957577
1.1568161e-06
0.0029564964
1.0805716e-06
0.0029554871
1.0093571e-06
0.0029545442
9.4283741e-07
0.0029536635
8.807065e-07
0.0029528408
8.2267375e-07
0.0029520723
7.6847149e-07
0.0029513545
7.1784527e-07
0.0029506839
6.7056044e-07
0.0029500575
6.2639025e-07
0.0029494724
5.8513404e-07
0.0029489258
5.4658658e-07
0.0029484153
5.1058422e-07
0.0029479384
4.76939e-07
0.0029474929
4.4552404e-07
0.0029470767
4.1616047e-07
0.002946688
3.8875871e-07
0.0029463248
3.6313278e-07
0.0029459856
3.3924048e-07
0.0029456687
3.1686405e-07
0.0029453727
2.9603672e-07
0.0029450962
2.7647454e-07
0.0029448379
2.5833047e-07
0.0029445967
2.4120418e-07
0.0029443712
2.2543123e-07
0.0029441608
2.1041468e-07
0.002943964
1.9676192e-07
0.0029437804
1.8357162e-07
0.0029436085
1.7183812e-07
0.0029434482
1.6026712e-07
0.0029432979
1.5030261e-07
0.0029431575
1.4041506e-07
0.0029430253
1.3210036e-07
0.0029429003
1.2508434e-07
0.0029427809
1.1940399e-07
1.2575551e-07
0.010339525
0.00035427933
0.010570754
0.00079057337
0.0106063
0.00091894823
0.010547572
0.00090167138
0.010422317
0.00084262623
0.010244356
0.00075768557
0.010039421
0.00065662741
0.0098287427
0.00055365584
0.009625135
0.00045977081
0.0094353013
0.00037975353
0.0092624276
0.00031409258
0.0091075332
0.00026140426
0.008970154
0.0002196995
0.0088489024
0.00018689789
0.0087419716
0.00016105805
0.0086474927
0.00014051897
0.008563694
0.00012399297
0.0084890108
0.00011047599
0.0084221096
9.9219845e-05
0.0083618775
8.968137e-05
0.0083073954
8.1470639e-05
0.0082579079
7.4307834e-05
0.0082127929
6.7990505e-05
0.0081715353
6.2370017e-05
0.008133705
5.7335052e-05
0.0080989388
5.2800219e-05
0.0080669272
4.8698287e-05
0.0080374036
4.4974954e-05
0.0080101361
4.1585369e-05
0.0079849213
3.8491811e-05
0.0079615797
3.5662118e-05
0.0079399519
3.3068586e-05
0.0079198951
3.0687166e-05
0.0079012817
2.8496866e-05
0.0078839962
2.6479275e-05
0.0078679346
2.4618185e-05
0.0078530022
2.289928e-05
0.0078391133
2.1309866e-05
0.0078261893
1.9838659e-05
0.0078141588
1.8475587e-05
0.0078029562
1.7211631e-05
0.0077925214
1.6038689e-05
0.007782799
1.4949457e-05
0.0077737382
1.3937334e-05
0.0077652921
1.2996339e-05
0.0077574175
1.212104e-05
0.0077500744
1.1306492e-05
0.0077432258
1.0548184e-05
0.0077368375
9.8419895e-06
0.0077308778
9.1841269e-06
0.0077253172
8.5711208e-06
0.0077201286
7.9997713e-06
0.0077152866
7.4671255e-06
0.0077107675
6.9704575e-06
0.0077065497
6.5072487e-06
0.0077026126
6.0751707e-06
0.0076989374
5.672073e-06
0.0076955064
5.2959639e-06
0.0076923033
4.9450017e-06
0.0076893127
4.6174772e-06
0.0076865206
4.311802e-06
0.0076839135
4.026497e-06
0.0076814791
3.760183e-06
0.007679206
3.5115745e-06
0.0076770834
3.2794745e-06
0.0076751012
3.0627676e-06
0.0076732502
2.8604225e-06
0.0076715215
2.671478e-06
0.0076699072
2.4950495e-06
0.0076683995
2.3303041e-06
0.0076669914
2.1764763e-06
0.0076656764
2.0328338e-06
0.0076644483
1.8987081e-06
0.0076633012
1.7734467e-06
0.00766223
1.6564722e-06
0.0076612294
1.5472012e-06
0.0076602949
1.445156e-06
0.007659422
1.3498103e-06
0.0076586068
1.2607922e-06
0.0076578453
1.1776036e-06
0.007657134
1.0999827e-06
0.0076564698
1.0274075e-06
0.0076558493
9.5975078e-07
0.0076552698
8.964014e-07
0.0076547284
8.3743962e-07
0.0076542229
7.8206791e-07
0.0076537505
7.3071538e-07
0.0076533094
6.8222704e-07
0.0076528972
6.3761423e-07
0.0076525125
5.9504912e-07
0.0076521526
5.5652062e-07
0.0076518172
5.1897589e-07
0.0076515029
4.8608741e-07
0.0076512106
4.5264992e-07
0.0076509356
4.2530637e-07
0.0076506808
3.951644e-07
0.0076504386
3.7425921e-07
0.0076502165
3.4716082e-07
0.0076499999
3.3603217e-07
3.1072159e-07
0.010188704
0.00016557516
0.010530486
0.00044879102
0.010851453
0.00059798179
0.011124174
0.00062895026
0.011350581
0.00061621886
0.011524487
0.00058378054
0.01164633
0.00053478417
0.011724155
0.00047583045
0.011767999
0.00041592662
0.011786639
0.00036111397
0.011787114
0.00031361712
0.011775058
0.00027346029
0.011754861
0.00023989723
0.011729768
0.00021199036
0.011702054
0.00018877265
0.011673239
0.0001693339
0.011644339
0.00015289295
0.011616003
0.00013881179
0.011588629
0.00012659375
0.011562446
0.00011586441
0.011537571
0.00010634492
0.011514052
9.7827014e-05
0.011491889
9.01534e-05
0.011471056
8.3203416e-05
0.011451509
7.6882657e-05
0.011433193
7.1115585e-05
0.011416051
6.5840289e-05
0.011400021
6.1004879e-05
0.011385042
5.6565025e-05
0.011371051
5.2482294e-05
0.01135799
4.8723001e-05
0.011345801
4.5257387e-05
0.011334429
4.2059019e-05
0.011323822
3.9104315e-05
0.011313929
3.6372168e-05
0.011304704
3.3843642e-05
0.011296101
3.1501704e-05
0.01128808
2.9331002e-05
0.011280601
2.7317667e-05
0.011273628
2.5449137e-05
0.011267125
2.3714018e-05
0.011261062
2.2101942e-05
0.011255408
2.0603468e-05
0.011250135
1.9209982e-05
0.011245218
1.791361e-05
0.011240632
1.6707151e-05
0.011236354
1.5584005e-05
0.011232365
1.4538115e-05
0.011228643
1.3563913e-05
0.01122517
1.2656269e-05
0.011221931
1.1810452e-05
0.011218909
1.1022088e-05
0.011216089
1.0287133e-05
0.011213457
9.6018459e-06
0.011211002
8.9627628e-06
0.01120871
8.3666837e-06
0.011206572
7.8106432e-06
0.011204576
7.2918996e-06
0.011202713
6.807909e-06
0.011200974
6.3563066e-06
0.011199351
5.9348962e-06
0.011197836
5.5416243e-06
0.011196421
5.1745811e-06
0.011195101
4.8319836e-06
0.011193868
4.5121752e-06
0.011192718
4.2136169e-06
0.011191643
3.9348833e-06
0.01119064
3.67465e-06
0.011189703
3.431694e-06
0.011188829
3.204863e-06
0.011188012
2.9930967e-06
0.011187249
2.7953756e-06
0.011186537
2.6107741e-06
0.011185872
2.4383834e-06
0.011185252
2.2774092e-06
0.011184672
2.1270446e-06
0.01118413
1.9866379e-06
0.011183625
1.8554612e-06
0.011183153
1.7330157e-06
0.011182711
1.618596e-06
0.0111823
1.5118647e-06
0.011181915
1.4120566e-06
0.011181556
1.3190474e-06
0.01118122
1.2319093e-06
0.011180907
1.1508714e-06
0.011180614
1.0746664e-06
0.011180341
1.0041407e-06
0.011180086
9.3734089e-07
0.011179847
8.7620291e-07
0.011179624
8.1741667e-07
0.011179416
7.648729e-07
0.011179222
7.1267264e-07
0.01117904
6.6830784e-07
0.011178872
6.2107003e-07
0.011178712
5.8514588e-07
0.011178566
5.4104208e-07
0.011178425
5.1513489e-07
0.0111783
4.7223327e-07
0.011178177
4.5905915e-07
4.1609315e-07
0.010097182
6.8393562e-05
0.010346961
0.00019901114
0.010662469
0.00028247389
0.010982753
0.0003086665
0.011290229
0.00030874341
0.011575251
0.00029875786
0.011829022
0.00028101342
0.012047865
0.00025698751
0.012233272
0.00023051978
0.01238924
0.00020514589
0.012520295
0.00018256238
0.012630755
0.00016299962
0.012724428
0.00014622497
0.012804515
0.00013190317
0.012873613
0.00011967428
0.012933772
0.0001091746
0.012986596
0.00010006903
0.013033332
9.2076312e-05
0.01307495
8.4975208e-05
0.013112216
7.8598596e-05
0.013145739
7.282232e-05
0.013176012
6.7553982e-05
0.013203441
6.2723982e-05
0.013228366
5.8278948e-05
0.013251071
5.4177015e-05
0.013271803
5.0384427e-05
0.01329077
4.6873127e-05
0.013308155
4.3619126e-05
0.013324119
4.0601409e-05
0.0133388
3.7801251e-05
0.013352321
3.5201755e-05
0.013364791
3.2787564e-05
0.013376305
3.0544647e-05
0.01338695
2.8460147e-05
0.0133968
2.6522263e-05
0.013405923
2.4720147e-05
0.013414381
2.3043822e-05
0.013422228
2.14841e-05
0.013429513
2.0032508e-05
0.013436281
1.868123e-05
0.013442572
1.7423049e-05
0.013448423
1.6251294e-05
0.013453866
1.5159803e-05
0.013458933
1.4142881e-05
0.013463652
1.3195267e-05
0.013468047
1.2312094e-05
0.013472142
1.1488864e-05
0.013475959
1.072141e-05
0.013479517
1.0005867e-05
0.013482834
9.3386494e-06
0.013485928
8.7164213e-06
0.013488814
8.1360793e-06
0.013491507
7.5947426e-06
0.013494019
7.0897309e-06
0.013496363
6.6185624e-06
0.013498551
6.1789295e-06
0.013500593
5.7686994e-06
0.013502499
5.3858893e-06
0.013504278
5.0286514e-06
0.013505939
4.6952651e-06
0.01350749
4.3841225e-06
0.013508938
4.0937166e-06
0.01351029
3.8226426e-06
0.013511552
3.5695873e-06
0.013512731
3.3333394e-06
0.013513832
3.1127655e-06
0.01351486
2.9068281e-06
0.01351582
2.7145572e-06
0.013516716
2.5350567e-06
0.013517554
2.3674794e-06
0.013518336
2.2110399e-06
0.013519066
2.0649778e-06
0.013519748
1.9286045e-06
0.013520386
1.80124e-06
0.013520981
1.6823028e-06
0.013521537
1.5711929e-06
0.013522056
1.4674424e-06
0.013522541
1.3705117e-06
0.013522994
1.2800512e-06
0.013523417
1.195524e-06
0.013523812
1.1167037e-06
0.013524181
1.0429777e-06
0.013524526
9.7429874e-07
0.013524848
9.0990054e-07
0.013525149
8.5005922e-07
0.01352543
7.9368662e-07
0.013525692
7.4162959e-07
0.013525937
6.9215855e-07
0.013526166
6.471237e-07
0.01352638
6.0350707e-07
0.01352658
5.6497629e-07
0.013526767
5.2607123e-07
0.013526941
4.938049e-07
0.013527104
4.5827657e-07
0.013527257
4.3253599e-07
0.013527399
3.9883915e-07
0.013527533
3.8074362e-07
0.013527658
3.4715021e-07
0.013527779
3.3810597e-07
3.0569242e-07
0.010068394
2.3965161e-12
0.010267405
9.2418217e-12
0.010549878
1.7710673e-12
0.010858545
-1.3906635e-11
0.011167288
-3.0668361e-11
0.011466046
-3.8643623e-11
0.01174706
-3.2677013e-11
0.012004047
-1.185452e-11
0.012234567
1.6118546e-11
0.012439713
4.1660026e-11
0.012622275
5.1513695e-11
0.012785275
4.5468595e-11
0.0129315
2.2581965e-11
0.013063403
-5.9099499e-12
0.013183077
-2.7772095e-11
0.013292252
-4.2437775e-11
0.013392321
-3.7387193e-11
0.013484397
-1.830785e-11
0.013569373
7.1124779e-12
0.013647971
2.7250831e-11
0.013720794
4.2894838e-11
0.013788347
4.2762454e-11
0.013851071
2.6836335e-11
0.01390935
2.2500157e-12
0.013963527
-1.8779699e-11
0.014013912
-3.73716e-11
0.014060785
-4.1703972e-11
0.014104404
-2.9980931e-11
0.014145006
-6.9126719e-12
0.014182807
1.5450969e-11
0.014218009
3.371191e-11
0.014250796
4.1811934e-11
0.014281341
3.3858191e-11
0.014309801
1.5087431e-11
0.014336323
-7.3230766e-12
0.014361043
-2.4346917e-11
0.014384087
-3.487636e-11
0.014405571
-3.1087166e-11
0.014425604
-1.4759945e-11
0.014444285
5.2534002e-12
0.014461708
2.2464224e-11
0.014477959
3.3247459e-11
0.014493119
3.0091166e-11
0.014507262
1.6793296e-11
0.014520457
-2.5040414e-12
0.014532769
-1.8142234e-11
0.014544258
-2.8711874e-11
0.014554979
-2.6166317e-11
0.014564985
-1.0573084e-11
0.014574324
9.5641346e-12
0.014583041
2.8036465e-11
0.014591177
4.2135738e-11
0.014598771
4.0951376e-11
0.014605861
2.7778496e-11
0.014612479
5.0070555e-12
0.014618658
-1.6858217e-11
0.014624427
-3.194393e-11
0.014629813
-3.517938e-11
0.014634842
-2.3100048e-11
0.014639537
-1.2588248e-12
0.014643921
1.6395023e-11
0.014648015
3.0389867e-11
0.014651837
3.1731934e-11
0.014655407
1.7520121e-11
0.01465874
-1.0332088e-11
0.014661853
-3.6093093e-11
0.01466476
-5.4606742e-11
0.014667474
-5.9415187e-11
0.01467001
-4.6313966e-11
0.014672377
-1.800699e-11
0.014674588
1.4940449e-11
0.014676653
4.3476485e-11
0.014678582
5.6080095e-11
0.014680383
5.3553951e-11
0.014682065
3.5847352e-11
0.014683636
1.182047e-11
0.014685104
-4.3294779e-12
0.014686474
-5.7272724e-12
0.014687754
8.5639144e-12
0.01468895
3.6117099e-11
0.014690067
6.1112794e-11
0.01469111
8.5060034e-11
0.014692084
8.6540195e-11
0.014692993
6.6519444e-11
0.014693843
2.6466053e-11
0.014694637
-2.8181576e-11
0.014695379
-7.8348624e-11
0.014696071
-1.123044e-10
0.014696718
-1.2403167e-10
0.014697322
-1.1237914e-10
0.014697887
-8.3010292e-11
0.014698413
-4.9950213e-11
0.014698907
-2.3813459e-11
0.014699365
-8.9931479e-12
0.014699798
5.7140874e-12
0.014700197
3.0061237e-11
0.014700578
6.8990295e-11
0.014700925
8.2704583e-11
0.014701263
4.9431301e-11
1.0015435e-11
0.010068394
-6.839356e-05
0.010267405
-0.00019901113
0.010549878
-0.0002824739
0.010858545
-0.00030866653
0.011167288
-0.00030874347
0.011466046
-0.00029875792
0.01174706
-0.00028101346
0.012004047
-0.00025698751
0.012234567
-0.00023051974
0.012439713
-0.00020514581
0.012622275
-0.0001825623
0.012785275
-0.00016299957
0.0129315
-0.00014622496
0.013063403
-0.0001319032
0.013183077
-0.00011967435
0.013292252
-0.00010917466
0.013392321
-0.00010006907
0.013484397
-9.2076321e-05
0.013569373
-8.4975175e-05
0.013647971
-7.8598529e-05
0.013720794
-7.2822243e-05
0.013788347
-6.7553921e-05
0.013851071
-6.2723955e-05
0.01390935
-5.8278961e-05
0.013963527
-5.4177065e-05
0.014013912
-5.0384496e-05
0.014060785
-4.6873192e-05
0.014104404
-4.3619163e-05
0.014145006
-4.0601405e-05
0.014182807
-3.7801207e-05
0.014218009
-3.5201687e-05
0.014250796
-3.2787496e-05
0.014281341
-3.0544601e-05
0.014309801
-2.8460136e-05
0.014336323
-2.6522289e-05
0.014361043
-2.47202e-05
0.014384087
-2.3043881e-05
0.014405571
-2.1484142e-05
0.014425604
-2.0032518e-05
0.014444285
-1.8681206e-05
0.014461708
-1.7422999e-05
0.014477959
-1.6251238e-05
0.014493119
-1.5159761e-05
0.014507262
-1.4142867e-05
0.014520457
-1.3195284e-05
0.014532769
-1.2312136e-05
0.014544258
-1.1488913e-05
0.014554979
-1.0721445e-05
0.014564985
-1.0005871e-05
0.014574324
-9.3386161e-06
0.014583041
-8.7163568e-06
0.014591177
-8.1360047e-06
0.014598771
-7.5946797e-06
0.014605861
-7.0896984e-06
0.014612479
-6.6185675e-06
0.014618658
-6.1789697e-06
0.014624427
-5.7687558e-06
0.014629813
-5.385938e-06
0.014634842
-5.0286733e-06
0.014639537
-4.6952537e-06
0.014643921
-4.3840799e-06
0.014648015
-4.0936613e-06
0.014651837
-3.8225994e-06
0.014655407
-3.5695791e-06
0.01465874
-3.3333749e-06
0.014661853
-3.1128431e-06
0.01466476
-2.9069279e-06
0.014667475
-2.7146523e-06
0.01467001
-2.5351196e-06
0.014672377
-2.3674932e-06
0.014674588
-2.2110016e-06
0.014676653
-2.0649041e-06
0.014678582
-1.9285205e-06
0.014680383
-1.8011706e-06
0.014682065
-1.682261e-06
0.014683636
-1.5711764e-06
0.014685104
-1.4674387e-06
0.014686474
-1.3704996e-06
0.014687754
-1.2800059e-06
0.01468895
-1.1954347e-06
0.014690067
-1.1165688e-06
0.01469111
-1.0428245e-06
0.014692084
-9.7416249e-07
0.014692993
-9.0981591e-07
0.014693843
-8.5004655e-07
0.014694637
-7.9375675e-07
0.014695379
-7.4177116e-07
0.014696071
-6.9234325e-07
0.014696718
-6.4731952e-07
0.014697322
-6.0368304e-07
0.014697887
-5.6511869e-07
0.014698413
-5.2617023e-07
0.014698907
-4.9386165e-07
0.014699365
-4.5829288e-07
0.014699798
-4.3250249e-07
0.014700197
-3.9876987e-07
0.014700578
-3.8062388e-07
0.014700925
-3.469875e-07
0.014701263
-3.3800964e-07
-3.056692e-07
0.010097182
-0.00016557517
0.010346961
-0.00044879103
0.010662469
-0.00059798183
0.010982753
-0.00062895031
0.011290229
-0.0006162189
0.011575251
-0.00058378054
0.011829022
-0.00053478415
0.012047865
-0.00047583041
0.012233272
-0.00041592657
0.01238924
-0.00036111395
0.012520295
-0.00031361712
0.012630755
-0.00027346031
0.012724427
-0.00023989727
0.012804515
-0.00021199039
0.012873613
-0.00018877266
0.012933772
-0.00016933389
0.012986596
-0.00015289292
0.013033332
-0.00013881175
0.01307495
-0.00012659371
0.013112216
-0.00011586439
0.013145739
-0.00010634492
0.013176012
-9.7827026e-05
0.013203441
-9.0153421e-05
0.013228366
-8.3203438e-05
0.013251071
-7.6882674e-05
0.013271802
-7.1115591e-05
0.01329077
-6.5840283e-05
0.013308155
-6.1004863e-05
0.013324119
-5.6565005e-05
0.0133388
-5.2482276e-05
0.013352321
-4.872299e-05
0.013364791
-4.5257386e-05
0.013376305
-4.2059027e-05
0.01338695
-3.9104328e-05
0.0133968
-3.637218e-05
0.013405923
-3.3843648e-05
0.013414381
-3.1501702e-05
0.013422228
-2.9330992e-05
0.013429513
-2.7317653e-05
0.013436281
-2.5449124e-05
0.013442572
-2.371401e-05
0.013448422
-2.2101942e-05
0.013453866
-2.0603476e-05
0.013458933
-1.9209993e-05
0.013463652
-1.7913621e-05
0.013468047
-1.6707155e-05
0.013472142
-1.5583999e-05
0.013475959
-1.4538097e-05
0.013479517
-1.3563888e-05
0.013482834
-1.2656242e-05
0.013485928
-1.1810429e-05
0.013488814
-1.1022076e-05
0.013491507
-1.0287131e-05
0.013494019
-9.6018528e-06
0.013496363
-8.9627732e-06
0.013498551
-8.3666899e-06
0.013500593
-7.8106422e-06
0.013502499
-7.2918883e-06
0.013504278
-6.8078922e-06
0.013505939
-6.3562913e-06
0.01350749
-5.9348882e-06
0.013508938
-5.5416303e-06
0.01351029
-5.1746018e-06
0.013511552
-4.8320174e-06
0.013512731
-4.5122149e-06
0.013513832
-4.2136532e-06
0.01351486
-3.9349104e-06
0.01351582
-3.6746619e-06
0.013516717
-3.4316919e-06
0.013517554
-3.204851e-06
0.013518336
-2.9930811e-06
0.013519066
-2.7953633e-06
0.013519748
-2.6107649e-06
0.013520386
-2.4383747e-06
0.013520981
-2.2773929e-06
0.013521537
-2.1270123e-06
0.013522056
-1.9865869e-06
0.013522541
-1.8553911e-06
0.013522994
-1.7329338e-06
0.013523417
-1.6185115e-06
0.013523812
-1.5117884e-06
0.013524181
-1.4120007e-06
0.013524526
-1.3190197e-06
0.013524848
-1.2319133e-06
0.013525148
-1.150905e-06
0.013525429
-1.0747236e-06
0.013525692
-1.004218e-06
0.013525937
-9.3743169e-07
0.013526166
-8.7630268e-07
0.01352638
-8.1752096e-07
0.01352658
-7.6497143e-07
0.013526767
-7.1275626e-07
0.013526941
-6.683581e-07
0.013527104
-6.2106824e-07
0.013527257
-5.8508514e-07
0.013527399
-5.4093189e-07
0.013527534
-5.1502943e-07
0.013527658
-4.7216208e-07
0.013527779
-4.5901293e-07
-4.1606525e-07
0.010188704
-0.00035427935
0.010530486
-0.0007905734
0.010851453
-0.00091894826
0.011124174
-0.0009016714
0.011350581
-0.00084262622
0.011524487
-0.00075768553
0.01164633
-0.00065662736
0.011724155
-0.0005536558
0.011767999
-0.00045977081
0.011786639
-0.00037975356
0.011787114
-0.00031409264
0.011775058
-0.00026140432
0.01175486
-0.00021969953
0.011729768
-0.00018689789
0.011702054
-0.00016105802
0.011673239
-0.00014051892
0.011644339
-0.00012399292
0.011616003
-0.00011047596
0.011588629
-9.9219845e-05
0.011562446
-8.9681397e-05
0.011537571
-8.1470681e-05
0.011514052
-7.4307873e-05
0.011491889
-6.7990527e-05
0.011471056
-6.2370015e-05
0.011451509
-5.7335028e-05
0.011433193
-5.2800183e-05
0.011416051
-4.8698252e-05
0.011400021
-4.4974932e-05
0.011385042
-4.1585368e-05
0.011371051
-3.849183e-05
0.01135799
-3.566215e-05
0.011345801
-3.3068617e-05
0.011334429
-3.0687185e-05
0.011323822
-2.8496866e-05
0.011313929
-2.6479257e-05
0.011304704
-2.4618156e-05
0.011296101
-2.2899248e-05
0.01128808
-2.1309845e-05
0.011280601
-1.9838656e-05
0.011273628
-1.8475602e-05
0.011267125
-1.7211659e-05
0.011261062
-1.6038718e-05
0.011255408
-1.4949476e-05
0.011250135
-1.3937336e-05
0.011245218
-1.2996323e-05
0.011240632
-1.212101e-05
0.011236355
-1.1306457e-05
0.011232365
-1.0548154e-05
0.011228643
-9.8419747e-06
0.01122517
-9.1841307e-06
0.011221931
-8.5711406e-06
0.011218909
-7.9997973e-06
0.011216089
-7.467147e-06
0.011213457
-6.9704647e-06
0.011211002
-6.5072368e-06
0.01120871
-6.075143e-06
0.011206572
-5.6720375e-06
0.011204576
-5.2959343e-06
0.011202713
-4.9449891e-06
0.011200974
-4.6174872e-06
0.011199351
-4.311833e-06
0.011197836
-4.0265394e-06
0.011196421
-3.7602249e-06
0.011195101
-3.5116029e-06
0.011193868
-3.2794815e-06
0.011192718
-3.0627539e-06
0.011191643
-2.8603957e-06
0.01119064
-2.6714513e-06
0.011189703
-2.4950341e-06
0.011188829
-2.3303074e-06
0.011188012
-2.1764975e-06
0.011187249
-2.0328627e-06
0.011186537
-1.8987303e-06
0.011185872
-1.7734467e-06
0.011185252
-1.6564421e-06
0.011184672
-1.5471429e-06
0.01118413
-1.4450804e-06
0.011183625
-1.3497358e-06
0.011183153
-1.2607355e-06
0.011182711
-1.1775755e-06
0.011182299
-1.0999844e-06
0.011181915
-1.0274313e-06
0.011181555
-9.5978519e-07
0.01118122
-8.9643361e-07
0.011180907
-8.3746293e-07
0.011180614
-7.8208378e-07
0.011180341
-7.3073125e-07
0.011180086
-6.8225426e-07
0.011179847
-6.3765916e-07
0.011179625
-5.95111e-07
0.011179416
-5.5658682e-07
0.011179222
-5.1902419e-07
0.01117904
-4.8609505e-07
0.011178872
-4.5260711e-07
0.011178712
-4.2523171e-07
0.011178566
-3.9509043e-07
0.011178425
-3.7421651e-07
0.0111783
-3.4717248e-07
0.011178177
-3.3603758e-07
-3.1070122e-07
0.010339525
-0.00069380428
0.010570754
-0.0010218027
0.0106063
-0.0009544945
0.010547572
-0.00084294333
0.010422317
-0.00071737077
0.010244356
-0.0005797244
0.010039421
-0.00045169201
0.0098287427
-0.00034297799
0.0096251349
-0.00025616319
0.0094353012
-0.00018991987
0.0092624276
-0.00014121902
0.0091075331
-0.00010650983
0.0089701539
-8.2320239e-05
0.0088489024
-6.5646238e-05
0.0087419717
-5.4127227e-05
0.0086474928
-4.6040013e-05
0.0085636941
-4.0194263e-05
0.0084890108
-3.5792743e-05
0.0084221096
-3.2318765e-05
0.0083618774
-2.9449301e-05
0.0083073954
-2.6988602e-05
0.0082579078
-2.4820321e-05
0.0082127929
-2.287549e-05
0.0081715353
-2.1112414e-05
0.008133705
-1.9504642e-05
0.0080989388
-1.8033999e-05
0.0080669273
-1.6686712e-05
0.0080374036
-1.5451358e-05
0.0080101361
-1.4317866e-05
0.0079849213
-1.3277082e-05
0.0079615797
-1.2320605e-05
0.0079399518
-1.144073e-05
0.0079198951
-1.0630437e-05
0.0079012817
-9.8833601e-06
0.0078839962
-9.1937613e-06
0.0078679346
-8.5564862e-06
0.0078530023
-7.9669142e-06
0.0078391133
-7.4209074e-06
0.0078261893
-6.9147572e-06
0.0078141588
-6.4451387e-06
0.0078029562
-6.0090646e-06
0.0077925213
-5.6038469e-06
0.0077827989
-5.2270623e-06
0.0077737382
-4.8765188e-06
0.0077652921
-4.5502295e-06
0.0077574176
-4.2463861e-06
0.0077500744
-3.9633378e-06
0.0077432258
-3.6995734e-06
0.0077368375
-3.4537036e-06
0.0077308777
-3.2244512e-06
0.0077253172
-3.0106382e-06
0.0077201286
-2.8111797e-06
0.0077152865
-2.6250767e-06
0.0077107675
-2.4514074e-06
0.0077065497
-2.2893224e-06
0.0077026126
-2.1380354e-06
0.0076989374
-1.9968162e-06
0.0076955064
-1.8649857e-06
0.0076923033
-1.7419085e-06
0.0076893127
-1.6269926e-06
0.0076865205
-1.5196847e-06
0.0076839134
-1.4194708e-06
0.0076814791
-1.325875e-06
0.007679206
-1.2384556e-06
0.0076770834
-1.1568057e-06
0.0076751013
-1.0805466e-06
0.0076732503
-1.0093266e-06
0.0076715216
-9.4281436e-07
0.0076699072
-8.8069882e-07
0.0076683995
-8.2268421e-07
0.0076669914
-7.6849569e-07
0.0076656764
-7.1787101e-07
0.0076644483
-6.7057618e-07
0.0076633013
-6.263851e-07
0.00766223
-5.8510599e-07
0.0076612295
-5.465422e-07
0.007660295
-5.1053483e-07
0.0076594221
-4.7690055e-07
0.0076586068
-4.4550643e-07
0.0076578453
-4.1616829e-07
0.007657134
-3.8878759e-07
0.0076564697
-3.6317132e-07
0.0076558492
-3.3927712e-07
0.0076552697
-3.1688839e-07
0.0076547283
-2.9604509e-07
0.0076542228
-2.7647147e-07
0.0076537504
-2.5832353e-07
0.0076533094
-2.4120382e-07
0.0076528972
-2.2544267e-07
0.0076525125
-2.1043565e-07
0.0076521527
-1.9678472e-07
0.0076518173
-1.8358043e-07
0.0076515031
-1.7182352e-07
0.0076512108
-1.6023251e-07
0.0076509358
-1.5026148e-07
0.0076506809
-1.4040607e-07
0.0076504387
-1.3212795e-07
0.0076502165
-1.2510709e-07
0.00765
-1.1941318e-07
-1.2574824e-07
0.0093061957
0.008284393
0.0073298986
0.0064869553
0.0057695845
0.0051898601
0.004738168
0.00439519
0.0041390268
0.0039491069
0.003807888
0.0037013782
0.003619058
0.0035534117
0.0034992845
0.0034532444
0.0034130501
0.0033772574
0.0033449386
0.0033154893
0.0032885007
0.0032636805
0.003240805
0.0032196926
0.0032001879
0.0031821539
0.0031654672
0.0031500158
0.0031356979
0.0031224208
0.0031101002
0.0030986595
0.0030880291
0.0030781458
0.003068952
0.0030603955
0.0030524286
0.0030450076
0.0030380929
0.0030316477
0.0030256387
0.0030200349
0.0030148078
0.0030099313
0.0030053811
0.0030011347
0.0029971713
0.0029934717
0.002990018
0.0029867936
0.0029837829
0.0029809718
0.0029783467
0.0029758953
0.002973606
0.002971468
0.0029694711
0.0029676061
0.0029658642
0.0029642372
0.0029627175
0.0029612981
0.0029599722
0.0029587338
0.002957577
0.0029564964
0.0029554871
0.0029545442
0.0029536635
0.0029528408
0.0029520723
0.0029513545
0.0029506839
0.0029500576
0.0029494725
0.0029489259
0.0029484154
0.0029479384
0.0029474929
0.0029470767
0.0029466879
0.0029463248
0.0029459855
0.0029456687
0.0029453726
0.0029450962
0.0029448378
0.0029445966
0.0029443712
0.0029441608
0.002943964
0.0029437804
0.0029436086
0.0029434484
0.002943298
0.0029431575
0.0029430254
0.0029429003
0.002942781
)
;

boundaryField
{
    top
    {
        type            calculated;
        value           uniform 0;
    }
    inlet
    {
        type            calculated;
        value           nonuniform List<scalar> 10(-0.01 -0.01 -0.01 -0.01 -0.01 -0.01 -0.01 -0.01 -0.01 -0.01);
    }
    outlet
    {
        type            calculated;
        value           nonuniform List<scalar> 10(0.0029426551 0.007649815 0.011178072 0.01352789 0.014701568 0.014701568 0.01352789 0.011178072 0.0076498151 0.0029426552);
    }
    bottom
    {
        type            calculated;
        value           uniform 0;
    }
    back
    {
        type            empty;
        value           nonuniform List<scalar> 0();
    }
    front
    {
        type            empty;
        value           nonuniform List<scalar> 0();
    }
}


// ************************************************************************* //
