/*--------------------------------*- C++ -*----------------------------------*\
  =========                 |
  \\      /  F ield         | OpenFOAM: The Open Source CFD Toolbox
   \\    /   O peration     | Website:  https://openfoam.org
    \\  /    A nd           | Version:  9
     \\/     M anipulation  |
\*---------------------------------------------------------------------------*/
FoamFile
{
    format      ascii;
    class       volVectorField;
    location    "16";
    object      U;
}
// * * * * * * * * * * * * * * * * * * * * * * * * * * * * * * * * * * * * * //

dimensions      [0 1 -1 0 0 0 0];

internalField   nonuniform List<vector> 
1000
(
(0.91890839 0.035821913 0)
(0.86271384 0.062195639 0)
(0.7870597 0.062510091 0)
(0.69536033 0.054550395 0)
(0.61089745 0.044531651 0)
(0.54411592 0.034015971 0)
(0.49343012 0.024187539 0)
(0.45479413 0.016144229 0)
(0.42544582 0.010265784 0)
(0.40347313 0.0063041445 0)
(0.38715766 0.0037976294 0)
(0.3749622 0.0023103391 0)
(0.36566192 0.0014930164 0)
(0.35836272 0.0010851197 0)
(0.35244267 0.00090607334 0)
(0.34748201 0.00084105196 0)
(0.34320348 0.0008237236 0)
(0.33942726 0.00081930932 0)
(0.33603793 0.00081185077 0)
(0.33296114 0.00079580034 0)
(0.33014778 0.00077081121 0)
(0.32756384 0.00073870998 0)
(0.3251842 0.00070189036 0)
(0.32298902 0.00066256689 0)
(0.32096172 0.00062250057 0)
(0.31908785 0.00058295786 0)
(0.31735449 0.00054477132 0)
(0.31574996 0.00050843332 0)
(0.3142636 0.00047419048 0)
(0.31288574 0.0004421236 0)
(0.31160755 0.00041220886 0)
(0.31042101 0.00038436164 0)
(0.30931883 0.00035846551 0)
(0.30829438 0.00033439115 0)
(0.30734165 0.00031200751 0)
(0.30645515 0.00029118812 0)
(0.30562991 0.00027181434 0)
(0.30486136 0.00025377641 0)
(0.30414535 0.00023697372 0)
(0.30347807 0.00022131424 0)
(0.30285601 0.0002067138 0)
(0.30227596 0.00019309551 0)
(0.30173496 0.00018038886 0)
(0.30123029 0.00016852931 0)
(0.30075942 0.00015745757 0)
(0.30032002 0.00014711916 0)
(0.29990993 0.00013746401 0)
(0.29952715 0.00012844578 0)
(0.29916983 0.00012002168 0)
(0.29883624 0.0001121519 0)
(0.29852478 0.00010479939 0)
(0.29823397 9.792965e-05 0)
(0.29796241 9.1510424e-05 0)
(0.29770882 8.5511754e-05 0)
(0.29747201 7.9905732e-05 0)
(0.29725084 7.4666451e-05 0)
(0.29704429 6.9769969e-05 0)
(0.29685138 6.5193904e-05 0)
(0.2966712 6.0917533e-05 0)
(0.29650291 5.6921366e-05 0)
(0.29634572 5.3187124e-05 0)
(0.2961989 4.9697631e-05 0)
(0.29606176 4.6436645e-05 0)
(0.29593366 4.3389036e-05 0)
(0.295814 4.0540691e-05 0)
(0.29570224 3.7878452e-05 0)
(0.29559784 3.5390349e-05 0)
(0.29550032 3.3065081e-05 0)
(0.29540922 3.0892414e-05 0)
(0.29532413 2.8862499e-05 0)
(0.29524464 2.6966165e-05 0)
(0.29517039 2.5194552e-05 0)
(0.29510103 2.353937e-05 0)
(0.29503624 2.1992565e-05 0)
(0.29497572 2.0547085e-05 0)
(0.29491919 1.9195731e-05 0)
(0.29486638 1.7933053e-05 0)
(0.29481705 1.6752629e-05 0)
(0.29477097 1.5650458e-05 0)
(0.29472793 1.4620316e-05 0)
(0.29468772 1.365932e-05 0)
(0.29465016 1.2760598e-05 0)
(0.29461507 1.1922749e-05 0)
(0.2945823 1.1137502e-05 0)
(0.29455168 1.0406386e-05 0)
(0.29452309 9.7188256e-06 0)
(0.29449636 9.0811241e-06 0)
(0.29447142 8.4787074e-06 0)
(0.29444809 7.924495e-06 0)
(0.29442633 7.3971598e-06 0)
(0.29440597 6.9183e-06 0)
(0.29438698 6.4573551e-06 0)
(0.29436922 6.0462268e-06 0)
(0.29435261 5.647349e-06 0)
(0.29433715 5.2977853e-06 0)
(0.29432249 4.9757501e-06 0)
(0.29430919 4.6870579e-06 0)
(0.29429569 4.5361646e-06 0)
(0.29428502 4.4043096e-06 0)
(0.29426874 5.0567136e-06 0)
(1.0016583 0.053819431 0)
(1.0359761 0.10128444 0)
(1.0597199 0.11073663 0)
(1.0628947 0.10592202 0)
(1.0515569 0.096228727 0)
(1.0340529 0.083934059 0)
(1.0142795 0.070327061 0)
(0.99360703 0.056981332 0)
(0.97292577 0.045107478 0)
(0.95310739 0.035236749 0)
(0.93479538 0.02740165 0)
(0.91829011 0.021387228 0)
(0.90362379 0.0168845 0)
(0.89068067 0.013569711 0)
(0.87928175 0.011147751 0)
(0.86923242 0.0093736611 0)
(0.86034424 0.0080569295 0)
(0.85244667 0.0070571273 0)
(0.84539241 0.0062752367 0)
(0.83905793 0.005643826 0)
(0.83334126 0.0051180884 0)
(0.82815883 0.0046686707 0)
(0.82344212 0.0042764172 0)
(0.81913467 0.0039287402 0)
(0.81518962 0.003617206 0)
(0.81156765 0.0033359729 0)
(0.80823544 0.0030808056 0)
(0.8051644 0.0028484689 0)
(0.80232979 0.0026363675 0)
(0.79970999 0.0024423356 0)
(0.79728597 0.0022645157 0)
(0.79504086 0.0021012876 0)
(0.79295963 0.0019512246 0)
(0.7910288 0.0018130642 0)
(0.78923628 0.0016856861 0)
(0.7875711 0.0015680955 0)
(0.78602338 0.0014594082 0)
(0.78458412 0.001358837 0)
(0.78324511 0.0012656799 0)
(0.78199889 0.0011793098 0)
(0.7808386 0.0010991645 0)
(0.77975799 0.0010247388 0)
(0.77875128 0.00095557726 0)
(0.77781318 0.00089126817 0)
(0.77693881 0.00083143839 0)
(0.77612368 0.00077574897 0)
(0.77536363 0.00072389146 0)
(0.77465481 0.00067558424 0)
(0.77399368 0.00063056984 0)
(0.77337693 0.00058861203 0)
(0.77280153 0.00054949356 0)
(0.77226464 0.00051301426 0)
(0.77176363 0.00047898905 0)
(0.77129606 0.00044724693 0)
(0.77085967 0.00041762959 0)
(0.77045234 0.00038999052 0)
(0.77007212 0.00036419434 0)
(0.76971718 0.00034011553 0)
(0.76938581 0.00031763808 0)
(0.76907644 0.00029665419 0)
(0.7687876 0.00027706365 0)
(0.76851791 0.00025877306 0)
(0.76826609 0.00024169507 0)
(0.76803096 0.00022574821 0)
(0.76781139 0.00021085641 0)
(0.76760636 0.00019694864 0)
(0.76741489 0.00018395936 0)
(0.76723608 0.00017182728 0)
(0.7670691 0.00016049626 0)
(0.76691315 0.00014991341 0)
(0.76676751 0.00014003006 0)
(0.76663149 0.00013079977 0)
(0.76650446 0.00012217987 0)
(0.76638582 0.00011412872 0)
(0.76627501 0.00010660927 0)
(0.76617152 9.9583998e-05 0)
(0.76607486 9.3022227e-05 0)
(0.76598459 8.6890175e-05 0)
(0.76590026 8.1164069e-05 0)
(0.76582151 7.5812335e-05 0)
(0.76574793 7.0818107e-05 0)
(0.76567924 6.6148689e-05 0)
(0.76561505 6.1795174e-05 0)
(0.76555513 5.7719544e-05 0)
(0.76549911 5.3924958e-05 0)
(0.76544685 5.036272e-05 0)
(0.76539796 4.7055999e-05 0)
(0.76535239 4.39371e-05 0)
(0.7653097 4.1060949e-05 0)
(0.76526996 3.8326061e-05 0)
(0.7652327 3.5836406e-05 0)
(0.76519803 3.3433462e-05 0)
(0.76516556 3.1296658e-05 0)
(0.76513518 2.9180005e-05 0)
(0.76510713 2.7376197e-05 0)
(0.76507998 2.5525061e-05 0)
(0.76505664 2.4071217e-05 0)
(0.76503057 2.2555501e-05 0)
(0.76501445 2.1594547e-05 0)
(0.76498347 2.0989602e-05 0)
(1.0014244 0.026824855 0)
(1.0291272 0.062791354 0)
(1.0654292 0.077736555 0)
(1.098962 0.080597201 0)
(1.1253149 0.078285171 0)
(1.145053 0.073153898 0)
(1.1594858 0.066111275 0)
(1.1694287 0.05816206 0)
(1.1755354 0.050296751 0)
(1.1785738 0.043150707 0)
(1.1793571 0.036972825 0)
(1.1785949 0.031771634 0)
(1.1768304 0.027451842 0)
(1.1744518 0.023886771 0)
(1.1717287 0.020947623 0)
(1.1688444 0.018515782 0)
(1.1659195 0.016488085 0)
(1.1630317 0.014779501 0)
(1.1602295 0.013322982 0)
(1.1575415 0.01206713 0)
(1.1549828 0.010972999 0)
(1.1525601 0.010011061 0)
(1.1502747 0.0091587482 0)
(1.1481246 0.0083986069 0)
(1.1461059 0.0077169536 0)
(1.1442134 0.0071028905 0)
(1.1424415 0.0065475926 0)
(1.1407838 0.0060437943 0)
(1.1392344 0.0055854235 0)
(1.1377869 0.0051673413 0)
(1.1364353 0.0047851542 0)
(1.1351738 0.0044350748 0)
(1.1339968 0.0041138173 0)
(1.1328987 0.0038185151 0)
(1.1318746 0.0035466562 0)
(1.1309195 0.0032960302 0)
(1.1300289 0.0030646852 0)
(1.1291985 0.0028508909 0)
(1.1284242 0.0026531088 0)
(1.1277022 0.0024699658 0)
(1.1270291 0.0023002326 0)
(1.1264014 0.0021428048 0)
(1.1258161 0.0019966875 0)
(1.1252702 0.0018609819 0)
(1.1247612 0.0017348737 0)
(1.1242865 0.001617624 0)
(1.1238437 0.0015085604 0)
(1.1234307 0.0014070697 0)
(1.1230455 0.0013125915 0)
(1.1226861 0.0012246125 0)
(1.1223509 0.0011426616 0)
(1.1220381 0.001066305 0)
(1.1217462 0.00099514337 0)
(1.1214739 0.00092880826 0)
(1.1212198 0.00086695954 0)
(1.1209827 0.00080928325 0)
(1.1207614 0.0007554892 0)
(1.1205548 0.00070530914 0)
(1.1203621 0.0006584948 0)
(1.1201821 0.00061481589 0)
(1.1200142 0.00057405875 0)
(1.1198574 0.00053602432 0)
(1.1197111 0.0005005275 0)
(1.1195744 0.00046739581 0)
(1.1194469 0.0004364689 0)
(1.1193278 0.00040759752 0)
(1.1192167 0.00038064348 0)
(1.1191129 0.00035547814 0)
(1.119016 0.00033198278 0)
(1.1189255 0.00031004576 0)
(1.118841 0.00028956444 0)
(1.1187621 0.0002704407 0)
(1.1186884 0.00025258524 0)
(1.1186197 0.00023591098 0)
(1.1185554 0.00022034103 0)
(1.1184954 0.00020579787 0)
(1.1184394 0.00019221768 0)
(1.1183871 0.0001795304 0)
(1.1183383 0.0001676861 0)
(1.1182927 0.00015661812 0)
(1.11825 0.0001462913 0)
(1.1182103 0.00013663564 0)
(1.118173 0.00012763462 0)
(1.1181384 0.00011920615 0)
(1.1181059 0.0001113628 0)
(1.1180757 0.00010399585 0)
(1.1180473 9.7167228e-05 0)
(1.1180211 9.0715245e-05 0)
(1.1179962 8.4787242e-05 0)
(1.1179734 7.9118186e-05 0)
(1.1179516 7.4006431e-05 0)
(1.1179318 6.8990611e-05 0)
(1.1179128 6.4644396e-05 0)
(1.1178955 6.0140882e-05 0)
(1.117879 5.6565586e-05 0)
(1.1178635 5.2421708e-05 0)
(1.11785 4.9739657e-05 0)
(1.1178349 4.5810565e-05 0)
(1.1178261 4.4320021e-05 0)
(1.1178083 4.0572429e-05 0)
(1.0007347 0.011814722 0)
(1.0178472 0.030860928 0)
(1.0462163 0.041434443 0)
(1.0799018 0.045193571 0)
(1.1132664 0.045502351 0)
(1.143782 0.044080306 0)
(1.1708941 0.041439978 0)
(1.1945687 0.037973673 0)
(1.2148582 0.034195725 0)
(1.2319652 0.030536885 0)
(1.2462683 0.027222046 0)
(1.2582339 0.024313924 0)
(1.2683135 0.021797894 0)
(1.2768875 0.019633665 0)
(1.2842554 0.01777383 0)
(1.2906479 0.016169652 0)
(1.296243 0.014775587 0)
(1.3011791 0.013552293 0)
(1.3055645 0.012467859 0)
(1.3094838 0.011497463 0)
(1.3130042 0.010622162 0)
(1.3161792 0.0098275161 0)
(1.3190526 0.0091024158 0)
(1.3216607 0.0084381819 0)
(1.3240343 0.0078279075 0)
(1.3261995 0.0072659753 0)
(1.3281786 0.0067477066 0)
(1.3299913 0.0062691124 0)
(1.3316544 0.0058267224 0)
(1.3331829 0.0054174694 0)
(1.3345896 0.0050386109 0)
(1.3358862 0.0046876752 0)
(1.3370827 0.0043624233 0)
(1.3381882 0.0040608194 0)
(1.3392108 0.0037810084 0)
(1.3401576 0.0035212972 0)
(1.3410349 0.0032801379 0)
(1.3418486 0.0030561146 0)
(1.3426038 0.0028479298 0)
(1.3433051 0.0026543936 0)
(1.3439569 0.0024744138 0)
(1.3445629 0.0023069863 0)
(1.3451267 0.0021511884 0)
(1.3456513 0.0020061708 0)
(1.3461398 0.0018711521 0)
(1.3465947 0.0017454123 0)
(1.3470185 0.0016282881 0)
(1.3474135 0.0015191673 0)
(1.3477816 0.0014174842 0)
(1.3481249 0.0013227157 0)
(1.3484449 0.0012343772 0)
(1.3487435 0.0011520192 0)
(1.349022 0.0010752254 0)
(1.3492818 0.0010036093 0)
(1.3495242 0.00093681315 0)
(1.3497505 0.00087450533 0)
(1.3499616 0.00081637864 0)
(1.3501587 0.00076214823 0)
(1.3503427 0.00071154943 0)
(1.3505145 0.00066433594 0)
(1.3506748 0.00062027847 0)
(1.3508245 0.00057916257 0)
(1.3509643 0.00054078864 0)
(1.3510948 0.00050497034 0)
(1.3512167 0.000471535 0)
(1.3513305 0.0004403218 0)
(1.3514368 0.0004111822 0)
(1.3515361 0.0003839779 0)
(1.3516288 0.00035858112 0)
(1.3517153 0.00033487124 0)
(1.3517962 0.00031273702 0)
(1.3518717 0.00029207142 0)
(1.3519422 0.00027277738 0)
(1.3520081 0.00025475948 0)
(1.3520696 0.00023793502 0)
(1.3521271 0.00022221953 0)
(1.3521807 0.00020754569 0)
(1.3522309 0.00019383707 0)
(1.3522777 0.00018104233 0)
(1.3523215 0.00016908643 0)
(1.3523623 0.00015793544 0)
(1.3524005 0.00014750659 0)
(1.352436 0.00013778991 0)
(1.3524695 0.00012868327 0)
(1.3525004 0.00012021797 0)
(1.3525296 0.00011225149 0)
(1.3525565 0.00010488713 0)
(1.3525822 9.790076e-05 0)
(1.3526054 9.1523265e-05 0)
(1.3526282 8.5369007e-05 0)
(1.352648 7.9898356e-05 0)
(1.3526684 7.4420278e-05 0)
(1.3526849 6.981445e-05 0)
(1.3527037 6.4834124e-05 0)
(1.352717 6.1115241e-05 0)
(1.3527349 5.6431118e-05 0)
(1.3527447 5.3734192e-05 0)
(1.3527628 4.914657e-05 0)
(1.3527683 4.7709884e-05 0)
(1.3527888 4.295969e-05 0)
(1.0005903 0.0034629163 0)
(1.0136865 0.009366021 0)
(1.0370283 0.013046807 0)
(1.0674202 0.014563261 0)
(1.1000315 0.014854523 0)
(1.1316428 0.014564988 0)
(1.1610745 0.013888334 0)
(1.1880674 0.012919242 0)
(1.2125205 0.011806505 0)
(1.2343939 0.010696428 0)
(1.2538077 0.0096727457 0)
(1.2710339 0.0087628269 0)
(1.286401 0.0079659781 0)
(1.3002111 0.0072722173 0)
(1.3127102 0.0066688086 0)
(1.3240903 0.0061419228 0)
(1.3345036 0.0056780682 0)
(1.3440716 0.005265317 0)
(1.3528927 0.0048939327 0)
(1.3610463 0.0045563959 0)
(1.3685975 0.0042470723 0)
(1.3756004 0.0039617801 0)
(1.3821012 0.0036974021 0)
(1.3881402 0.0034515857 0)
(1.3937533 0.0032225194 0)
(1.3989728 0.0030087681 0)
(1.403828 0.0028091542 0)
(1.4083456 0.0026226748 0)
(1.4125503 0.0024484462 0)
(1.4164646 0.0022856693 0)
(1.4201094 0.0021336086 0)
(1.423504 0.0019915793 0)
(1.426666 0.0018589404 0)
(1.4296121 0.0017350896 0)
(1.4323573 0.0016194607 0)
(1.4349159 0.0015115213 0)
(1.4373007 0.0014107707 0)
(1.4395241 0.0013167386 0)
(1.441597 0.0012289829 0)
(1.4435301 0.0011470887 0)
(1.4453329 0.0010706666 0)
(1.4470143 0.000999352 0)
(1.4485827 0.00093280375 0)
(1.4500459 0.00087070318 0)
(1.451411 0.00081275296 0)
(1.4526846 0.00075867559 0)
(1.4538731 0.00070821232 0)
(1.4549822 0.00066112166 0)
(1.4560172 0.00061717786 0)
(1.4569831 0.00057616999 0)
(1.4578847 0.00053790056 0)
(1.4587262 0.00050218512 0)
(1.4595117 0.00046885152 0)
(1.460245 0.00043773939 0)
(1.4609295 0.00040869963 0)
(1.4615685 0.00038159361 0)
(1.4621651 0.00035629244 0)
(1.4627221 0.00033267611 0)
(1.4632422 0.0003106325 0)
(1.4637278 0.00029005668 0)
(1.4641812 0.00027084985 0)
(1.4646045 0.00025291988 0)
(1.4649998 0.00023618063 0)
(1.4653689 0.00022055169 0)
(1.4657136 0.00020595865 0)
(1.4660355 0.00019233264 0)
(1.4663361 0.00017961019 0)
(1.4666168 0.0001677319 0)
(1.466879 0.00015664256 0)
(1.4671238 0.00014628986 0)
(1.4673524 0.00013662503 0)
(1.467566 0.00012760094 0)
(1.4677654 0.0001191747 0)
(1.4679516 0.00011130421 0)
(1.4681256 0.00010395374 0)
(1.468288 9.7086586e-05 0)
(1.4684397 9.0674763e-05 0)
(1.4685815 8.4684995e-05 0)
(1.4687138 7.9095931e-05 0)
(1.4688375 7.3873689e-05 0)
(1.4689529 6.9004174e-05 0)
(1.4690608 6.4448543e-05 0)
(1.4691614 6.020502e-05 0)
(1.4692557 5.6223916e-05 0)
(1.4693433 5.2525069e-05 0)
(1.4694257 4.9038031e-05 0)
(1.4695019 4.5821148e-05 0)
(1.4695741 4.2760658e-05 0)
(1.4696402 3.9980592e-05 0)
(1.4697038 3.7282444e-05 0)
(1.4697606 3.4907052e-05 0)
(1.4698172 3.2498984e-05 0)
(1.4698653 3.0509688e-05 0)
(1.4699167 2.8308196e-05 0)
(1.469956 2.671476e-05 0)
(1.4700045 2.4629023e-05 0)
(1.470034 2.3488861e-05 0)
(1.4700832 2.1430498e-05 0)
(1.4701001 2.0822389e-05 0)
(1.4701556 1.8656945e-05 0)
(1.0005903 -0.0034629159 0)
(1.0136865 -0.0093660195 0)
(1.0370283 -0.013046807 0)
(1.0674202 -0.014563264 0)
(1.1000315 -0.014854529 0)
(1.1316428 -0.014564995 0)
(1.1610745 -0.01388834 0)
(1.1880674 -0.012919244 0)
(1.2125205 -0.011806501 0)
(1.2343939 -0.01069642 0)
(1.2538077 -0.0096727364 0)
(1.2710339 -0.0087628193 0)
(1.286401 -0.007965975 0)
(1.3002111 -0.0072722194 0)
(1.3127102 -0.0066688147 0)
(1.3240903 -0.0061419305 0)
(1.3345036 -0.0056780744 0)
(1.3440716 -0.0052653195 0)
(1.3528927 -0.0048939304 0)
(1.3610463 -0.0045563896 0)
(1.3685975 -0.0042470642 0)
(1.3756004 -0.0039617727 0)
(1.3821012 -0.0036973979 0)
(1.3881402 -0.0034515861 0)
(1.3937533 -0.003222524 0)
(1.3989728 -0.0030087753 0)
(1.403828 -0.0028091615 0)
(1.4083456 -0.0026226796 0)
(1.4125503 -0.0024484467 0)
(1.4164646 -0.0022856655 0)
(1.4201094 -0.0021336018 0)
(1.423504 -0.0019915718 0)
(1.426666 -0.0018589348 0)
(1.4296121 -0.0017350876 0)
(1.4323573 -0.0016194628 0)
(1.4349158 -0.0015115265 0)
(1.4373007 -0.0014107771 0)
(1.4395241 -0.0013167438 0)
(1.441597 -0.0012289849 0)
(1.4435301 -0.0011470869 0)
(1.4453329 -0.0010706617 0)
(1.4470143 -0.00099934591 0)
(1.4485827 -0.00093279869 0)
(1.4500459 -0.00087070085 0)
(1.451411 -0.00081275405 0)
(1.4526846 -0.0007586796 0)
(1.4538731 -0.00070821758 0)
(1.4549822 -0.00066112594 0)
(1.4560172 -0.00061717917 0)
(1.4569831 -0.00057616731 0)
(1.4578847 -0.00053789443 0)
(1.4587262 -0.00050217728 0)
(1.4595117 -0.00046884444 0)
(1.460245 -0.00043773517 0)
(1.4609295 -0.0004086995 0)
(1.4615685 -0.00038159732 0)
(1.4621651 -0.00035629844 0)
(1.4627221 -0.00033268207 0)
(1.4632422 -0.00031063599 0)
(1.4637278 -0.00029005618 0)
(1.4641812 -0.00027084587 0)
(1.4646045 -0.00025291402 0)
(1.4649998 -0.0002361754 0)
(1.4653689 -0.00022054954 0)
(1.4657136 -0.00020596141 0)
(1.4660355 -0.00019234023 0)
(1.4663361 -0.00017962067 0)
(1.4666168 -0.00016774233 0)
(1.466879 -0.00015664999 0)
(1.4671238 -0.00014629208 0)
(1.4673524 -0.00013662151 0)
(1.467566 -0.0001275928 0)
(1.4677654 -0.00011916467 0)
(1.4679516 -0.00011129534 0)
(1.4681256 -0.00010394831 0)
(1.468288 -9.7085161e-05 0)
(1.4684397 -9.0675758e-05 0)
(1.4685815 -8.4685522e-05 0)
(1.4687138 -7.909309e-05 0)
(1.4688375 -7.386549e-05 0)
(1.4689529 -6.899109e-05 0)
(1.4690608 -6.4432537e-05 0)
(1.4691614 -6.0189604e-05 0)
(1.4692557 -5.6213075e-05 0)
(1.4693433 -5.2522421e-05 0)
(1.4694257 -4.9045018e-05 0)
(1.4695019 -4.5836582e-05 0)
(1.4695741 -4.2781547e-05 0)
(1.4696402 -4.0002847e-05 0)
(1.4697038 -3.7302127e-05 0)
(1.4697606 -3.4921787e-05 0)
(1.4698172 -3.2508291e-05 0)
(1.4698653 -3.0514305e-05 0)
(1.4699167 -2.8309643e-05 0)
(1.469956 -2.6712487e-05 0)
(1.4700045 -2.4622652e-05 0)
(1.4700341 -2.3476383e-05 0)
(1.4700832 -2.1414291e-05 0)
(1.4701001 -2.0813087e-05 0)
(1.4701556 -1.8655577e-05 0)
(1.0007347 -0.011814723 0)
(1.0178472 -0.030860929 0)
(1.0462163 -0.041434445 0)
(1.0799018 -0.045193575 0)
(1.1132664 -0.045502355 0)
(1.143782 -0.044080309 0)
(1.1708941 -0.041439979 0)
(1.1945688 -0.037973671 0)
(1.2148582 -0.034195721 0)
(1.2319652 -0.03053688 0)
(1.2462683 -0.027222042 0)
(1.2582339 -0.024313923 0)
(1.2683135 -0.021797895 0)
(1.2768875 -0.019633668 0)
(1.2842554 -0.017773833 0)
(1.2906479 -0.016169655 0)
(1.296243 -0.014775588 0)
(1.3011792 -0.013552291 0)
(1.3055645 -0.012467855 0)
(1.3094838 -0.011497458 0)
(1.3130042 -0.010622158 0)
(1.3161792 -0.0098275138 0)
(1.3190526 -0.0091024159 0)
(1.3216607 -0.008438184 0)
(1.3240343 -0.0078279111 0)
(1.3261995 -0.0072659791 0)
(1.3281786 -0.0067477093 0)
(1.3299913 -0.0062691131 0)
(1.3316544 -0.0058267209 0)
(1.3331829 -0.0054174662 0)
(1.3345896 -0.005038607 0)
(1.3358862 -0.004687672 0)
(1.3370827 -0.0043624217 0)
(1.3381882 -0.0040608199 0)
(1.3392108 -0.0037810107 0)
(1.3401576 -0.0035213002 0)
(1.3410349 -0.0032801406 0)
(1.3418486 -0.0030561159 0)
(1.3426038 -0.0028479292 0)
(1.3433051 -0.0026543915 0)
(1.3439569 -0.0024744108 0)
(1.3445629 -0.0023069837 0)
(1.3451267 -0.0021511869 0)
(1.3456513 -0.0020061711 0)
(1.3461398 -0.0018711538 0)
(1.3465947 -0.0017454147 0)
(1.3470185 -0.0016282901 0)
(1.3474135 -0.0015191678 0)
(1.3477816 -0.0014174828 0)
(1.3481249 -0.0013227124 0)
(1.3484449 -0.0012343728 0)
(1.3487435 -0.001152015 0)
(1.349022 -0.0010752225 0)
(1.3492818 -0.0010036084 0)
(1.3495242 -0.00093681429 0)
(1.3497505 -0.00087450778 0)
(1.3499616 -0.00081638125 0)
(1.3501587 -0.00076214977 0)
(1.3503427 -0.00071154928 0)
(1.3505145 -0.00066433426 0)
(1.3506748 -0.00062027576 0)
(1.3508245 -0.00057916014 0)
(1.3509643 -0.00054078779 0)
(1.3510948 -0.00050497205 0)
(1.3512167 -0.00047153919 0)
(1.3513305 -0.00044032763 0)
(1.3514368 -0.00041118838 0)
(1.3515361 -0.00038398281 0)
(1.3516288 -0.00035858352 0)
(1.3517154 -0.00033487073 0)
(1.3517962 -0.00031273402 0)
(1.3518717 -0.00029206719 0)
(1.3519422 -0.00027277311 0)
(1.3520081 -0.00025475615 0)
(1.3520696 -0.00023793275 0)
(1.3521271 -0.00022221761 0)
(1.3521807 -0.00020754309 0)
(1.3522309 -0.00019383264 0)
(1.3522777 -0.00018103534 0)
(1.3523215 -0.0001690772 0)
(1.3523623 -0.0001579247 0)
(1.3524005 -0.00014749633 0)
(1.352436 -0.0001377822 0)
(1.3524694 -0.00012867998 0)
(1.3525004 -0.00012021977 0)
(1.3525296 -0.00011225823 0)
(1.3525565 -0.00010489799 0)
(1.3525822 -9.7914043e-05 0)
(1.3526054 -9.153725e-05 0)
(1.3526282 -8.5382117e-05 0)
(1.352648 -7.9909598e-05 0)
(1.3526684 -7.4428952e-05 0)
(1.352685 -6.9819811e-05 0)
(1.3527037 -6.4835278e-05 0)
(1.352717 -6.1110874e-05 0)
(1.3527349 -5.6422071e-05 0)
(1.3527447 -5.3722892e-05 0)
(1.3527629 -4.9135201e-05 0)
(1.3527683 -4.7702876e-05 0)
(1.3527888 -4.2956878e-05 0)
(1.0014244 -0.026824857 0)
(1.0291272 -0.062791357 0)
(1.0654292 -0.077736558 0)
(1.098962 -0.080597204 0)
(1.1253149 -0.078285172 0)
(1.145053 -0.073153896 0)
(1.1594858 -0.066111271 0)
(1.1694287 -0.058162056 0)
(1.1755354 -0.050296749 0)
(1.1785738 -0.043150708 0)
(1.1793571 -0.036972829 0)
(1.1785949 -0.031771639 0)
(1.1768304 -0.027451846 0)
(1.1744518 -0.023886772 0)
(1.1717287 -0.02094762 0)
(1.1688444 -0.018515778 0)
(1.1659195 -0.01648808 0)
(1.1630317 -0.014779497 0)
(1.1602295 -0.013322981 0)
(1.1575415 -0.012067131 0)
(1.1549828 -0.010973002 0)
(1.1525601 -0.010011065 0)
(1.1502747 -0.0091587508 0)
(1.1481246 -0.0083986076 0)
(1.1461059 -0.0077169523 0)
(1.1442134 -0.0071028878 0)
(1.1424415 -0.0065475895 0)
(1.1407838 -0.0060437919 0)
(1.1392344 -0.0055854226 0)
(1.1377869 -0.0051673423 0)
(1.1364353 -0.0047851564 0)
(1.1351738 -0.0044350774 0)
(1.1339968 -0.0041138192 0)
(1.1328987 -0.0038185157 0)
(1.1318746 -0.0035466552 0)
(1.1309195 -0.0032960279 0)
(1.1300289 -0.0030646825 0)
(1.1291985 -0.0028508887 0)
(1.1284242 -0.0026531079 0)
(1.1277022 -0.0024699665 0)
(1.1270291 -0.0023002346 0)
(1.1264014 -0.0021428073 0)
(1.1258161 -0.0019966896 0)
(1.1252702 -0.0018609827 0)
(1.1247612 -0.0017348729 0)
(1.1242865 -0.0016176218 0)
(1.1238437 -0.0015085573 0)
(1.1234308 -0.0014070666 0)
(1.1230455 -0.0013125893 0)
(1.1226861 -0.0012246119 0)
(1.1223509 -0.0011426623 0)
(1.1220381 -0.0010663067 0)
(1.1217462 -0.0009951451 0)
(1.1214739 -0.00092880915 0)
(1.1212198 -0.000866959 0)
(1.1209827 -0.00080928122 0)
(1.1207614 -0.00075548629 0)
(1.1205548 -0.00070530627 0)
(1.1203621 -0.00065849309 0)
(1.1201821 -0.00061481606 0)
(1.1200142 -0.00057406083 0)
(1.1198574 -0.00053602786 0)
(1.1197111 -0.00050053154 0)
(1.1195744 -0.00046739925 0)
(1.1194469 -0.00043647081 0)
(1.1193278 -0.00040759762 0)
(1.1192167 -0.00038064223 0)
(1.1191129 -0.00035547635 0)
(1.119016 -0.00033198151 0)
(1.1189255 -0.00031004579 0)
(1.118841 -0.0002895659 0)
(1.1187621 -0.00027044305 0)
(1.1186884 -0.0002525872 0)
(1.1186197 -0.00023591117 0)
(1.1185554 -0.00022033844 0)
(1.1184954 -0.00020579226 0)
(1.1184394 -0.00019220986 0)
(1.1183871 -0.00017952181 0)
(1.1183383 -0.00016767845 0)
(1.1182927 -0.00015661266 0)
(1.11825 -0.00014628852 0)
(1.1182103 -0.0001366354 0)
(1.118173 -0.0001276362 0)
(1.1181384 -0.00011920853 0)
(1.1181059 -0.00011136524 0)
(1.1180757 -0.00010399826 0)
(1.1180473 -9.7170206e-05 0)
(1.1180211 -9.0719622e-05 0)
(1.1179962 -8.4793644e-05 0)
(1.1179734 -7.9126645e-05 0)
(1.1179516 -7.4015736e-05 0)
(1.1179318 -6.8998771e-05 0)
(1.1179128 -6.4648838e-05 0)
(1.1178955 -6.0139631e-05 0)
(1.117879 -5.6559145e-05 0)
(1.1178636 -5.2412223e-05 0)
(1.11785 -4.9731575e-05 0)
(1.1178349 -4.5807402e-05 0)
(1.1178261 -4.431781e-05 0)
(1.1178083 -4.0569395e-05 0)
(1.0016583 -0.053819433 0)
(1.0359761 -0.10128444 0)
(1.0597199 -0.11073663 0)
(1.0628947 -0.10592202 0)
(1.0515569 -0.096228725 0)
(1.0340529 -0.083934056 0)
(1.0142795 -0.070327058 0)
(0.99360703 -0.056981331 0)
(0.97292576 -0.045107479 0)
(0.95310738 -0.035236752 0)
(0.93479537 -0.027401654 0)
(0.91829011 -0.021387231 0)
(0.90362378 -0.016884501 0)
(0.89068068 -0.013569709 0)
(0.87928175 -0.011147747 0)
(0.86923243 -0.0093736565 0)
(0.86034424 -0.0080569258 0)
(0.85244667 -0.0070571258 0)
(0.84539241 -0.0062752378 0)
(0.83905792 -0.005643829 0)
(0.83334125 -0.0051180921 0)
(0.82815883 -0.0046686735 0)
(0.82344212 -0.0042764181 0)
(0.81913467 -0.003928739 0)
(0.81518962 -0.0036172031 0)
(0.81156766 -0.0033359696 0)
(0.80823544 -0.0030808029 0)
(0.8051644 -0.0028484679 0)
(0.80232979 -0.0026363685 0)
(0.79970998 -0.0024423381 0)
(0.79728596 -0.0022645187 0)
(0.79504086 -0.00210129 0)
(0.79295963 -0.0019512255 0)
(0.7910288 -0.0018130632 0)
(0.78923628 -0.0016856837 0)
(0.78757111 -0.0015680926 0)
(0.78602339 -0.0014594058 0)
(0.78458412 -0.0013588359 0)
(0.78324511 -0.0012656805 0)
(0.78199888 -0.0011793119 0)
(0.7808386 -0.0010991672 0)
(0.77975798 -0.0010247411 0)
(0.77875127 -0.00095557832 0)
(0.77781318 -0.00089126752 0)
(0.77693882 -0.00083143619 0)
(0.77612369 -0.00077574596 0)
(0.77536363 -0.00072388853 0)
(0.77465481 -0.00067558237 0)
(0.77399368 -0.00063056956 0)
(0.77337693 -0.00058861334 0)
(0.77280153 -0.00054949591 0)
(0.77226463 -0.00051301659 0)
(0.77176363 -0.00047899044 0)
(0.77129606 -0.00044724671 0)
(0.77085967 -0.0004176277 0)
(0.77045235 -0.00038998761 0)
(0.77007212 -0.00036419134 0)
(0.76971718 -0.00034011363 0)
(0.76938581 -0.000317638 0)
(0.76907644 -0.00029665608 0)
(0.76878759 -0.00027706701 0)
(0.7685179 -0.00025877679 0)
(0.76826609 -0.0002416981 0)
(0.76803095 -0.00022574957 0)
(0.76781139 -0.00021085579 0)
(0.76760636 -0.00019694655 0)
(0.76741489 -0.00018395671 0)
(0.76723609 -0.00017182537 0)
(0.7670691 -0.00016049588 0)
(0.76691315 -0.00014991481 0)
(0.76676751 -0.00014003274 0)
(0.76663149 -0.00013080246 0)
(0.76650446 -0.00012218129 0)
(0.76638582 -0.00011412772 0)
(0.76627502 -0.00010660559 0)
(0.76617153 -9.9578318e-05 0)
(0.76607487 -9.3015818e-05 0)
(0.7659846 -8.6884756e-05 0)
(0.76590026 -8.1160816e-05 0)
(0.76582151 -7.5811757e-05 0)
(0.76574793 -7.0819822e-05 0)
(0.76567923 -6.6151592e-05 0)
(0.76561504 -6.179812e-05 0)
(0.76555512 -5.7721537e-05 0)
(0.76549911 -5.3925757e-05 0)
(0.76544685 -5.0362933e-05 0)
(0.76539796 -4.7056566e-05 0)
(0.76535239 -4.3939131e-05 0)
(0.7653097 -4.1064877e-05 0)
(0.76526996 -3.833145e-05 0)
(0.76523271 -3.5841944e-05 0)
(0.76519804 -3.3437014e-05 0)
(0.76516558 -3.1296496e-05 0)
(0.7651352 -2.9175908e-05 0)
(0.76510715 -2.7370034e-05 0)
(0.76508 -2.5520624e-05 0)
(0.76505665 -2.4070314e-05 0)
(0.76503057 -2.2556994e-05 0)
(0.76501446 -2.159481e-05 0)
(0.76498348 -2.0987845e-05 0)
(0.91890839 -0.035821914 0)
(0.86271383 -0.06219564 0)
(0.78705969 -0.062510091 0)
(0.69536033 -0.054550394 0)
(0.61089745 -0.04453165 0)
(0.54411592 -0.03401597 0)
(0.49343012 -0.024187538 0)
(0.45479413 -0.016144228 0)
(0.42544582 -0.010265784 0)
(0.40347313 -0.0063041449 0)
(0.38715766 -0.0037976306 0)
(0.3749622 -0.0023103405 0)
(0.36566192 -0.0014930175 0)
(0.35836272 -0.0010851199 0)
(0.35244268 -0.00090607253 0)
(0.34748201 -0.00084105054 0)
(0.34320348 -0.00082372212 0)
(0.33942726 -0.00081930838 0)
(0.33603793 -0.00081185065 0)
(0.33296114 -0.00079580097 0)
(0.33014778 -0.0007708123 0)
(0.32756384 -0.00073871102 0)
(0.3251842 -0.000701891 0)
(0.32298902 -0.00066256692 0)
(0.32096172 -0.0006225 0)
(0.31908785 -0.00058295697 0)
(0.31735449 -0.00054477039 0)
(0.31574995 -0.00050843272 0)
(0.3142636 -0.00047419039 0)
(0.31288574 -0.00044212402 0)
(0.31160755 -0.00041220965 0)
(0.31042101 -0.00038436244 0)
(0.30931883 -0.00035846606 0)
(0.30829438 -0.00033439124 0)
(0.30734165 -0.00031200712 0)
(0.30645515 -0.00029118742 0)
(0.30562991 -0.00027181355 0)
(0.30486136 -0.00025377585 0)
(0.30414535 -0.00023697358 0)
(0.30347806 -0.00022131455 0)
(0.302856 -0.00020671445 0)
(0.30227596 -0.00019309621 0)
(0.30173496 -0.00018038936 0)
(0.30123029 -0.00016852937 0)
(0.30075942 -0.00015745714 0)
(0.30032002 -0.00014711838 0)
(0.29990993 -0.00013746307 0)
(0.29952715 -0.00012844501 0)
(0.29916983 -0.0001200213 0)
(0.29883624 -0.00011215204 0)
(0.29852478 -0.00010479998 0)
(0.29823396 -9.7930427e-05 0)
(0.29796241 -9.1511106e-05 0)
(0.29770882 -8.5512031e-05 0)
(0.29747201 -7.9905481e-05 0)
(0.29725085 -7.4665764e-05 0)
(0.29704429 -6.9769043e-05 0)
(0.29685138 -6.5193146e-05 0)
(0.2966712 -6.091722e-05 0)
(0.2965029 -5.6921697e-05 0)
(0.29634572 -5.3188055e-05 0)
(0.29619889 -4.9698879e-05 0)
(0.29606175 -4.6437884e-05 0)
(0.29593366 -4.3389868e-05 0)
(0.295814 -4.054089e-05 0)
(0.29570224 -3.787804e-05 0)
(0.29559784 -3.5389492e-05 0)
(0.29550032 -3.3064193e-05 0)
(0.29540922 -3.089179e-05 0)
(0.29532413 -2.8862362e-05 0)
(0.29524464 -2.6966535e-05 0)
(0.29517039 -2.5195132e-05 0)
(0.29510104 -2.3539842e-05 0)
(0.29503625 -2.1992486e-05 0)
(0.29497573 -2.0546255e-05 0)
(0.2949192 -1.9194226e-05 0)
(0.29486639 -1.7931133e-05 0)
(0.29481706 -1.6750841e-05 0)
(0.29477098 -1.5649199e-05 0)
(0.29472793 -1.4619907e-05 0)
(0.29468772 -1.3659796e-05 0)
(0.29465016 -1.2761715e-05 0)
(0.29461506 -1.1924211e-05 0)
(0.29458229 -1.1138934e-05 0)
(0.29455167 -1.0407555e-05 0)
(0.29452308 -9.7197277e-06 0)
(0.29449635 -9.0818164e-06 0)
(0.29447141 -8.4794251e-06 0)
(0.29444808 -7.9253502e-06 0)
(0.29442633 -7.3980683e-06 0)
(0.29440597 -6.9190502e-06 0)
(0.29438699 -6.457388e-06 0)
(0.29436923 -6.0452583e-06 0)
(0.29435263 -5.6455931e-06 0)
(0.29433717 -5.295794e-06 0)
(0.2943225 -4.9752568e-06 0)
(0.2943092 -4.6881204e-06 0)
(0.2942957 -4.5368403e-06 0)
(0.29428502 -4.4045272e-06 0)
(0.29426875 -5.0563479e-06 0)
)
;

boundaryField
{
    top
    {
        type            fixedValue;
        value           uniform (0 0 0);
    }
    inlet
    {
        type            fixedValue;
        value           uniform (1 0 0);
    }
    outlet
    {
        type            zeroGradient;
    }
    bottom
    {
        type            fixedValue;
        value           uniform (0 0 0);
    }
    back
    {
        type            empty;
    }
    front
    {
        type            empty;
    }
}


// ************************************************************************* //
