/*--------------------------------*- C++ -*----------------------------------*\
  =========                 |
  \\      /  F ield         | OpenFOAM: The Open Source CFD Toolbox
   \\    /   O peration     | Website:  https://openfoam.org
    \\  /    A nd           | Version:  9
     \\/     M anipulation  |
\*---------------------------------------------------------------------------*/
FoamFile
{
    format      ascii;
    class       volScalarField;
    location    "0.05";
    object      alpha.phase1;
}
// * * * * * * * * * * * * * * * * * * * * * * * * * * * * * * * * * * * * * //

dimensions      [0 0 0 0 0 0 0];

internalField   nonuniform List<scalar> 
10000
(
3.2008942e-132
4.3311693e-132
3.3670783e-129
1.5942883e-126
5.7390258e-124
1.6640037e-121
4.0354641e-119
8.4073809e-117
1.5350312e-114
2.4945691e-112
3.6531959e-110
4.8704855e-108
5.9621893e-106
6.750747e-104
7.115046e-102
7.0203216e-100
6.5180219e-98
5.7212468e-96
4.7684546e-94
3.7894351e-92
2.8826283e-90
2.1070263e-88
1.4853664e-86
1.0136363e-84
6.7206282e-83
4.345225e-81
2.7491832e-79
1.7091912e-77
1.0627322e-75
6.7211213e-74
4.0095134e-72
2.1717871e-70
1.0595659e-68
4.6026015e-67
1.7560509e-65
5.7844881e-64
1.623038e-62
4.081219e-61
9.784007e-60
1.963479e-58
3.1873239e-57
4.1523073e-56
4.399481e-55
3.914238e-54
2.9187207e-53
1.7972406e-52
8.8446868e-52
3.0882224e-51
8.1231205e-51
2.0347877e-50
2.0335929e-50
8.0477717e-51
2.9860405e-51
8.3969644e-52
1.6137973e-52
2.2490076e-53
2.3622795e-54
2.216834e-55
1.8231942e-56
1.1304419e-57
4.9761631e-59
1.3827581e-60
2.5834211e-62
4.0407003e-64
5.9986808e-66
8.8372029e-68
1.3085463e-69
1.9540492e-71
2.9410805e-73
4.4383428e-75
7.2376878e-77
1.4191963e-78
5.6994225e-80
9.5661112e-82
1.4812403e-83
2.2881929e-85
3.4490518e-87
5.0507794e-89
7.1597109e-91
9.7884386e-93
1.2858715e-94
1.6169449e-96
1.9386525e-98
2.2070652e-100
2.3754728e-102
2.4058435e-104
2.2810683e-106
2.0132382e-108
1.6435111e-110
1.2319477e-112
8.4071049e-115
5.1702499e-117
2.8301995e-119
1.3578151e-121
5.5965788e-124
1.9295716e-126
5.3588408e-129
1.1313053e-131
1.4593608e-134
1.0710434e-134
3.2008942e-132
8.8197958e-130
8.8034512e-127
5.5200762e-124
2.3093498e-121
7.3642685e-119
1.9077466e-116
4.1729251e-114
7.9112323e-112
1.3247463e-109
1.9886463e-107
2.70614e-105
3.3711091e-103
3.8747596e-101
4.1377854e-99
4.1298233e-97
3.8740226e-95
3.4317108e-93
2.883948e-91
2.3088816e-89
1.7683572e-87
1.3004564e-85
9.2191953e-84
6.3234366e-82
4.2120612e-80
2.7350037e-78
1.7374691e-76
1.0838377e-74
6.7145642e-73
4.2886426e-71
2.5946052e-69
1.4197824e-67
6.9628751e-66
3.0268849e-64
1.1513029e-62
3.7722334e-61
1.0448613e-59
2.3916308e-58
4.3990724e-57
6.3303513e-56
7.065048e-55
6.3939162e-54
4.9144562e-53
3.1092274e-52
1.6420391e-51
6.3549255e-51
1.4910019e-50
2.5554139e-50
6.6435552e-50
1.2154463e-49
1.2152042e-49
6.6386302e-50
2.568189e-50
1.2495711e-50
5.0961389e-51
1.198521e-51
1.2483906e-52
2.3564925e-54
2.2127961e-55
1.820781e-56
1.1292406e-57
4.9717814e-59
1.3817011e-60
2.5815813e-62
4.0379183e-64
5.9948407e-66
8.8325841e-68
1.3081678e-69
1.9540922e-71
2.9410869e-73
4.4383427e-75
1.7837412e-75
5.1801349e-77
7.1535794e-79
1.0713555e-80
1.6435739e-82
2.4673829e-84
3.5950857e-86
5.0678749e-88
6.8867041e-90
8.9857355e-92
1.1216203e-93
1.3337513e-95
1.5046252e-97
1.6028759e-99
1.6048887e-101
1.5018263e-103
1.3057408e-105
1.0474973e-107
7.6927494e-110
5.1213414e-112
3.056697e-114
1.6113687e-116
7.3626248e-119
2.8408158e-121
8.9031486e-124
2.1258755e-126
3.3864593e-129
3.4185471e-132
1.0710434e-134
8.7887288e-130
4.2498361e-127
3.3090098e-124
1.6136639e-121
8.038977e-119
2.7913924e-116
7.6099221e-114
1.7219923e-111
3.3438301e-109
5.7006908e-107
8.6756772e-105
1.1933053e-102
1.4992533e-100
1.7350279e-98
1.8624469e-96
1.8663263e-94
1.7559319e-92
1.5585554e-90
1.3110414e-88
1.0498569e-86
8.0363961e-85
5.9022293e-83
4.1753921e-81
2.8559413e-79
1.8959059e-77
1.2260468e-75
7.7516866e-74
4.8088378e-72
2.9551971e-70
1.8739738e-68
1.1333667e-66
6.2013769e-65
3.0305249e-63
1.3081295e-61
4.9227783e-60
1.5898811e-58
4.3241713e-57
9.6793273e-56
1.7341316e-54
2.4167519e-53
2.5995327e-52
2.2672558e-51
1.6930919e-50
1.0504348e-49
5.470283e-49
2.1439108e-48
5.3240609e-48
9.6756039e-48
2.2745688e-47
4.4461805e-47
4.4451684e-47
2.2730058e-47
9.6873249e-48
4.6487624e-48
1.7989631e-48
3.9695458e-49
4.4863219e-50
1.0196644e-51
1.0173416e-52
9.0502734e-54
6.030151e-55
2.8364248e-56
8.3729983e-58
1.6385761e-59
2.6411829e-61
3.9955315e-63
5.9570418e-65
8.8817156e-67
1.3297728e-68
1.9986628e-70
3.0184466e-72
1.0411713e-72
2.6890897e-74
3.621107e-76
5.641142e-78
8.7114731e-80
1.3116823e-81
1.9164965e-83
2.7073905e-85
3.683983e-87
4.809576e-89
6.0022497e-91
7.130839e-93
8.0286464e-95
8.5277265e-97
8.5045122e-99
7.9173366e-101
6.8368793e-103
5.4381589e-105
3.9511549e-107
2.5946445e-109
1.5210207e-111
7.8277072e-114
3.4567313e-116
1.2672278e-118
3.6464677e-121
7.3089768e-124
1.3594314e-126
1.9502402e-129
3.4287836e-132
4.2276766e-127
1.6325906e-124
1.2733324e-121
6.299155e-119
1.9607215e-116
7.7445919e-114
2.2989507e-111
5.4725031e-109
1.0991e-106
1.9190424e-104
2.9720033e-102
4.1427467e-100
5.2575071e-98
6.1306251e-96
6.6189825e-94
6.6603008e-92
6.2825853e-90
5.5838193e-88
4.6980315e-86
3.758591e-84
2.8710925e-82
2.1022644e-80
1.4812172e-78
1.0080569e-76
6.6515272e-75
4.2712218e-73
2.6792252e-71
1.6470408e-69
1.0004462e-67
6.2730133e-66
3.7755745e-64
2.05596e-62
9.9685747e-61
4.2563476e-59
1.5790036e-57
5.0096729e-56
1.3336162e-54
2.910144e-53
5.0594403e-52
6.8037958e-51
7.0223547e-50
5.8693974e-49
4.2302446e-48
2.5539523e-47
1.2997945e-46
5.0673881e-46
1.2752781e-45
2.3362379e-45
5.3152961e-45
1.0860522e-44
1.0857988e-44
5.3118608e-45
2.3383944e-45
1.1390165e-45
4.3654313e-46
9.7471698e-47
1.1659408e-47
4.9367117e-49
3.3234141e-50
3.1293607e-51
2.1932398e-52
1.0831505e-53
3.3742101e-55
6.9430074e-57
1.1630421e-58
1.8106754e-60
2.7605838e-62
4.1894571e-64
6.3602279e-66
9.6676474e-68
1.4939975e-69
4.7854743e-70
1.1147758e-71
1.4770188e-73
2.3331816e-75
3.6312964e-77
5.5005554e-79
8.0775053e-81
1.1457201e-82
1.5637663e-84
2.0458734e-86
2.555609e-88
3.035532e-90
3.4132553e-92
3.6162033e-94
3.5914913e-96
3.3243578e-98
2.8490137e-100
2.2434471e-102
1.6083808e-104
1.0378565e-106
5.9401445e-109
2.9555104e-111
1.2403911e-113
4.1754193e-116
1.0076908e-118
2.8984612e-121
6.9245368e-124
8.8909954e-127
1.9414977e-129
1.6240252e-124
5.3083992e-122
4.1377055e-119
2.1014192e-116
7.2434612e-114
1.8009096e-111
5.4081907e-109
1.4027463e-106
2.963748e-104
5.3511363e-102
8.4833468e-100
1.2028372e-97
1.5458019e-95
1.8192612e-93
1.9772372e-91
1.9984571e-89
1.8900106e-87
1.6814136e-85
1.4139028e-83
1.1289716e-81
8.594891e-80
6.264041e-78
4.3873024e-76
2.9642645e-74
1.9393177e-72
1.2331932e-70
7.650849e-69
4.6456862e-67
2.7822518e-65
1.7129058e-63
1.0209428e-61
5.5145783e-60
2.6445526e-58
1.113404e-56
4.0603213e-55
1.2621397e-53
3.2800251e-52
6.9595332e-51
1.1711173e-49
1.5157907e-48
1.4965654e-47
1.1947215e-46
8.2841932e-46
4.8512742e-45
2.4048138e-44
9.2767444e-44
2.343346e-43
4.2892287e-43
9.4834315e-43
1.9906257e-42
1.9901613e-42
9.4776071e-43
4.2923256e-43
2.1268503e-43
8.1510635e-44
1.8551461e-44
2.3341533e-45
1.4532241e-46
1.1748516e-47
1.2900245e-48
5.8703799e-50
3.0482751e-51
1.0040124e-52
2.181314e-54
3.8176983e-56
6.1509153e-58
9.6413616e-60
1.4975975e-61
2.3181891e-63
3.5814953e-65
5.6864335e-67
1.6656549e-67
3.7540557e-69
5.0311696e-71
8.059141e-73
1.2672815e-74
1.9359553e-76
2.8636037e-78
4.086072e-80
5.6030777e-82
7.3553077e-84
9.2058641e-86
1.0940706e-87
1.2290199e-89
1.2987132e-91
1.2840704e-93
1.1806844e-95
1.0025414e-97
7.7957419e-100
5.4941477e-102
3.462872e-104
1.916453e-106
9.0616437e-109
3.4907266e-111
1.0051918e-113
3.9482414e-116
1.3211575e-118
2.6887655e-121
3.4474467e-124
8.8402412e-127
5.2805535e-122
1.5074922e-119
1.1748706e-116
5.9743011e-114
2.2495162e-111
5.8558253e-109
1.2430218e-106
2.8889719e-104
6.6540067e-102
1.2635494e-99
2.0709992e-97
3.0048948e-95
3.9256579e-93
4.6747629e-91
5.1227746e-89
5.2060631e-87
4.9385053e-85
4.3976087e-83
3.6946859e-81
2.9421689e-79
2.2301304e-77
1.6155612e-75
1.122905e-73
7.5170547e-72
4.8649882e-70
3.0555583e-68
1.8695035e-66
1.1178488e-64
6.5789367e-63
3.9561157e-61
2.3272626e-59
1.2439007e-57
5.8852352e-56
2.4373218e-54
8.7162365e-53
2.6483264e-51
6.7033068e-50
1.3798825e-48
2.2422888e-47
2.7865572e-46
2.6248274e-45
1.9951645e-44
1.327142e-43
7.5185671e-43
3.6202276e-42
1.376277e-41
3.4666689e-41
6.3045716e-41
1.3581581e-40
2.8993492e-40
2.8986572e-40
1.3573557e-40
6.3082493e-41
3.1844398e-41
1.2280725e-41
2.8533806e-42
3.7638356e-43
2.9804727e-44
3.0587008e-45
3.754479e-46
1.2393635e-47
6.771807e-49
2.3613219e-50
5.4350103e-52
9.9840447e-54
1.6725221e-55
2.7090032e-57
4.3275661e-59
6.8627832e-61
1.0827128e-62
1.7757302e-64
4.8293903e-65
1.0809235e-66
1.4849763e-68
2.4138086e-70
3.843958e-72
5.9353108e-74
8.860407e-76
1.2740041e-77
1.7575804e-79
2.3173208e-81
2.9082106e-83
3.4593021e-85
3.8822539e-87
4.0899102e-89
4.0218017e-91
3.6675156e-93
3.0775709e-95
2.3539664e-97
1.6210516e-99
9.8821703e-102
5.1983738e-104
2.2555642e-106
8.1032185e-109
3.808385e-111
1.5356101e-113
4.6765484e-116
9.2031504e-119
1.1802174e-121
3.4293558e-124
1.4995056e-119
3.8140035e-117
2.9729456e-114
1.5133143e-111
5.7147675e-109
1.6689675e-106
3.5380707e-104
6.5460116e-102
1.2269701e-99
2.5404373e-97
4.3785361e-95
6.5646535e-93
8.7720111e-91
1.0610935e-88
1.1754564e-86
1.2030529e-84
1.1458174e-82
1.0217689e-80
8.5761122e-79
6.8075584e-77
5.133231e-75
3.6920693e-73
2.5428916e-71
1.6836054e-69
1.0756377e-67
6.6567292e-66
4.0057361e-64
2.351746e-62
1.3556856e-60
7.9264065e-59
4.5879722e-57
2.421235e-55
1.1277805e-53
4.5847684e-52
1.6045172e-50
4.7550875e-49
1.1699696e-47
2.3315539e-46
3.650876e-45
4.3467517e-44
3.8964106e-43
2.8116712e-42
1.789421e-41
9.7850851e-41
4.5658933e-40
1.7052265e-39
4.2627984e-39
7.6733425e-39
1.6133042e-38
3.4802051e-38
3.4793562e-38
1.6123851e-38
7.6770902e-39
3.9525528e-39
1.5406435e-39
3.6589362e-40
5.0489814e-41
4.762373e-42
5.6431323e-43
7.5084378e-44
2.1528338e-45
1.2382269e-46
4.5751926e-48
1.1188389e-49
2.1659778e-51
3.7887775e-53
6.3680382e-55
1.0508346e-56
1.7147414e-58
2.7740706e-60
4.7276184e-62
1.2280641e-62
2.7592261e-64
3.8847614e-66
6.4253686e-68
1.0394494e-69
1.6244115e-71
2.4508268e-73
3.5561268e-75
4.9413046e-77
6.5490657e-79
8.2453449e-81
9.8173639e-83
1.1001967e-84
1.1543504e-86
1.1270698e-88
1.0166685e-90
8.3979665e-93
6.2793597e-95
4.1838457e-97
2.4245104e-99
1.1698768e-101
5.145641e-104
2.773596e-106
1.3088223e-108
5.2664575e-111
1.4432059e-113
2.8336019e-116
3.6346313e-119
1.1740739e-121
3.793656e-117
8.702115e-115
6.7879775e-112
3.4590151e-109
1.3084844e-106
3.9294898e-104
9.0084669e-102
1.6668261e-99
2.7315319e-97
4.3392775e-95
7.9838105e-93
1.2589229e-90
1.7375922e-88
2.1486534e-86
2.4158977e-84
2.4968282e-82
2.3917376e-80
2.1379105e-78
1.7936212e-76
1.4194324e-74
1.0644609e-72
7.5959609e-71
5.177728e-69
3.3847969e-67
2.1305291e-65
1.2962496e-63
7.6528987e-62
4.3990958e-60
2.4762073e-58
1.4013596e-56
7.9617645e-55
4.1412067e-53
1.8955777e-51
7.5508477e-50
2.5813176e-48
7.4482796e-47
1.7776451e-45
3.4229187e-44
5.1549656e-43
5.86805e-42
4.9933962e-41
3.4107872e-40
2.071711e-39
1.0913216e-38
4.9243472e-38
1.8022323e-37
4.4553665e-37
7.916477e-37
1.6262336e-36
3.5295664e-36
3.5287136e-36
1.6253435e-36
7.9197553e-37
4.1622276e-37
1.6451474e-37
3.9983664e-38
5.7663478e-39
6.2482616e-40
8.2443943e-41
1.1766652e-41
5.1973692e-43
1.916078e-44
7.5074206e-46
1.9552956e-47
4.003721e-49
7.3402681e-51
1.2848909e-52
2.1985001e-54
3.7057965e-56
6.1720388e-58
2.9987774e-59
2.8128904e-60
5.8584985e-62
9.1516473e-64
1.5489752e-65
2.5644245e-67
4.0448663e-69
6.1615138e-71
9.030146e-73
1.2647581e-74
1.685657e-76
2.1288119e-78
2.5358104e-80
2.8349471e-82
2.9573504e-84
2.8592436e-86
2.5407931e-88
2.0528614e-90
1.4857274e-92
9.4106011e-95
4.9981969e-97
2.6140059e-99
1.5907297e-101
8.6013066e-104
4.0500812e-106
1.5318021e-108
4.0554134e-111
7.9515437e-114
1.0191595e-116
3.6155547e-119
8.6554045e-115
1.798209e-112
1.404863e-109
7.1786242e-107
2.7226256e-104
8.2076235e-102
2.0283202e-99
3.839098e-97
6.2968939e-95
9.2519024e-93
1.2840341e-90
2.1027134e-88
3.0517522e-86
3.8962121e-84
4.474771e-82
4.6895342e-80
4.5307697e-78
4.0678543e-76
3.4161885e-74
2.6987294e-72
2.0146945e-70
1.4264927e-68
9.6108297e-67
6.1888231e-65
3.8276035e-63
2.2831024e-61
1.3191343e-59
7.4066294e-58
4.0591529e-56
2.2140923e-54
1.2321892e-52
6.3074685e-51
2.8328035e-49
1.1039333e-47
3.6806154e-46
1.0321977e-44
2.3854412e-43
4.4298082e-42
6.4041777e-41
6.9561743e-40
5.605752e-39
3.6139742e-38
2.0899334e-37
1.0586532e-36
4.6101569e-36
1.6500909e-35
4.0228524e-35
7.0411957e-35
1.4142938e-34
3.0788241e-34
3.0780832e-34
1.4135423e-34
7.0437075e-35
3.7814906e-35
1.5190616e-35
3.7946731e-36
5.7020004e-37
6.9809019e-38
1.005109e-38
1.5313639e-39
9.4753449e-41
2.5589181e-42
1.0636059e-43
2.9573628e-45
6.4263595e-47
1.2390699e-48
2.2662175e-50
4.0336218e-52
7.0470406e-54
1.2123222e-55
1.3901896e-56
6.0369076e-58
1.1973173e-59
1.9673907e-61
3.4798084e-63
6.0979367e-65
9.4836388e-67
1.4367087e-68
2.1242179e-70
2.9993499e-72
4.0179985e-74
5.0855372e-76
6.0526241e-78
6.7361518e-80
6.9658519e-82
6.6401638e-84
5.7751571e-86
4.5174363e-88
3.1081217e-90
1.8026533e-92
1.088791e-94
7.3908345e-97
4.5086385e-99
2.4327204e-101
1.1442139e-103
3.9767846e-106
1.0479687e-108
2.0499238e-111
2.6228139e-114
1.0137741e-116
1.7885325e-112
3.420297e-110
2.6792173e-107
1.3747049e-104
5.2352903e-102
1.5839659e-99
3.9695171e-97
8.0653992e-95
1.3242196e-92
1.9482573e-90
2.5904275e-88
3.2153895e-86
4.7538993e-84
6.3852487e-82
7.5712238e-80
8.1025052e-78
7.9361332e-76
7.1886239e-74
6.0734487e-72
4.8201174e-70
3.6055938e-68
2.5402973e-66
1.6846831e-64
1.0598009e-62
6.3850654e-61
3.7047356e-59
2.0866063e-57
1.1415783e-55
6.0769402e-54
3.1957483e-52
1.7231975e-50
8.6388091e-49
3.8025189e-47
1.448007e-45
4.7014541e-44
1.2793655e-42
2.858044e-41
5.1093021e-40
7.077617e-39
7.321454e-38
5.5742849e-37
3.3817586e-36
1.8574435e-35
9.0329521e-35
3.789416e-34
1.3240545e-33
3.1762203e-33
5.4674682e-33
1.0743203e-32
2.3404614e-32
2.3398925e-32
1.0737563e-32
5.4691824e-33
3.0013064e-33
1.2272588e-33
3.1727817e-34
4.9372769e-35
6.7819663e-36
1.0599287e-36
1.7059663e-37
1.3238434e-38
2.9919474e-40
1.3198309e-41
3.9261593e-43
9.0845009e-45
1.8481402e-46
3.5422762e-48
6.5774882e-50
1.1945796e-51
2.1291923e-53
3.4593195e-54
1.173289e-55
2.2097847e-57
3.9273225e-59
8.0001653e-61
1.7111988e-62
2.3884625e-64
3.3050672e-66
4.8744399e-68
6.9268179e-70
9.3021463e-72
1.1762644e-73
1.3938953e-75
1.5379228e-77
1.5678781e-79
1.4624143e-81
1.2307701e-83
9.144304e-86
5.7517208e-88
3.7995419e-90
2.8485668e-92
1.9377733e-94
1.1795311e-96
6.3550423e-99
2.8942454e-101
9.7582231e-104
2.5615736e-106
4.9907405e-109
6.3673513e-112
2.6089227e-114
3.4018911e-110
6.0503431e-108
4.7589209e-105
2.4543712e-102
9.4004543e-100
2.8594299e-97
7.2048073e-95
1.5295637e-92
2.5863302e-90
3.8092334e-88
5.0736317e-86
6.1491767e-84
6.9341556e-82
9.6016098e-80
1.2002609e-77
1.3296135e-75
1.3361656e-73
1.239275e-71
1.0772258e-69
8.8598561e-68
6.853311e-66
4.863523e-64
3.1125496e-62
1.8418164e-60
1.036355e-58
5.6159388e-57
3.0381587e-55
1.6146312e-53
8.3311057e-52
4.2159569e-50
2.1907844e-48
1.0728358e-46
4.6231709e-45
1.7179818e-43
5.4252379e-42
1.4304681e-40
3.0837509e-39
5.2972293e-38
7.0181164e-37
6.9009669e-36
4.952282e-35
2.8186115e-34
1.4667073e-33
6.8366615e-33
2.7586089e-32
9.3936036e-32
2.2131906e-31
3.7418727e-31
7.1948267e-31
1.5659204e-30
1.5655434e-30
7.1911181e-31
3.7429103e-31
2.1007607e-31
8.7592179e-32
2.3426477e-32
3.843013e-33
5.7597899e-34
9.7097214e-35
1.6573387e-35
1.5227396e-36
3.0955361e-38
1.4501555e-39
4.6249875e-41
1.1432425e-42
2.4623346e-44
4.959187e-46
9.6322498e-48
1.8234378e-49
3.4464785e-51
7.9879074e-52
2.2143834e-53
3.846749e-55
7.6029609e-57
2.434878e-58
8.0821579e-60
9.1985792e-62
9.2399555e-64
1.3008189e-65
1.8442612e-67
2.4606282e-69
3.0813076e-71
3.6035904e-73
3.9053629e-75
3.8829065e-77
3.4935931e-79
2.7836433e-81
1.8855157e-83
1.1606432e-85
9.4626028e-88
7.1177065e-90
4.8300155e-92
2.9347736e-94
1.5771887e-96
7.2462238e-99
2.4757591e-101
6.4978912e-104
1.261378e-106
1.6024136e-109
6.3338897e-112
6.0179958e-108
1.091652e-105
8.6382367e-103
4.4860208e-100
1.7287971e-97
5.281812e-95
1.3315471e-92
2.7975592e-90
4.7550523e-88
7.0192364e-86
9.3601169e-84
1.1359975e-81
1.2726565e-79
1.5208547e-77
2.1015942e-75
2.4883493e-73
2.656003e-71
2.6524945e-69
2.5489464e-67
2.3577317e-65
2.0048799e-63
1.4520045e-61
8.5881414e-60
4.4062294e-58
2.0333004e-56
8.5780867e-55
4.1345401e-53
2.1170753e-51
1.0567563e-49
5.1487647e-48
2.5512783e-46
1.2154669e-44
5.1251084e-43
1.8568636e-41
5.6960974e-40
1.4530065e-38
3.017289e-37
4.9707915e-36
6.2866349e-35
5.8650501e-34
3.957762e-33
2.1064464e-32
1.0357822e-31
4.6207116e-31
1.7904952e-30
5.9328809e-30
1.3707242e-29
2.27371e-29
4.2787427e-29
9.2912209e-29
9.2890088e-29
4.2765851e-29
2.2742727e-29
1.3062628e-29
5.5619768e-30
1.5384617e-30
2.7071653e-31
4.3233081e-32
7.8568948e-33
1.4844432e-33
1.4995231e-34
4.1687788e-36
1.4229254e-37
4.8752946e-39
1.2916568e-40
2.9549545e-42
6.2721767e-44
1.2773535e-45
2.52667e-47
5.1138753e-49
1.353853e-49
3.7191304e-51
6.3797544e-53
1.61838e-54
1.211866e-55
5.8898149e-57
6.1635023e-59
4.2369504e-61
5.4426672e-63
7.6126804e-65
1.0002725e-66
1.2282378e-68
1.4030281e-70
1.4753308e-72
1.4089218e-74
1.1956296e-76
8.6624011e-79
4.8495191e-81
3.0332277e-83
2.485848e-85
1.8676366e-87
1.2643634e-89
7.6569204e-92
4.0977307e-94
1.9080217e-96
7.5708325e-99
2.1592373e-101
4.2400135e-104
5.3732873e-107
1.5944148e-109
1.0859897e-105
2.6666041e-103
2.1215025e-100
1.0989324e-97
4.2118998e-95
1.2480893e-92
2.9077705e-90
5.4633654e-88
9.0626006e-86
1.3433614e-83
1.7965337e-81
2.1803914e-79
2.454323e-77
3.4249337e-75
5.7331896e-73
7.6438393e-71
9.0907094e-69
1.0272852e-66
1.131427e-64
1.1757489e-62
1.0661409e-60
7.6939307e-59
4.2436086e-57
1.9499568e-55
7.0754073e-54
1.6900156e-52
5.4135468e-51
2.5746055e-49
1.2402258e-47
5.8100431e-46
2.7310573e-44
1.2635479e-42
5.2101165e-41
1.8389469e-39
5.4736783e-38
1.3487242e-36
2.6926378e-35
4.245514e-34
5.1151957e-33
4.5190513e-32
2.8608152e-31
1.4190341e-30
6.5757492e-30
2.8036689e-29
1.0415284e-28
3.3536044e-28
7.5874264e-28
1.2336201e-27
2.2721061e-27
4.9174649e-27
4.9162876e-27
2.2709803e-27
1.2338972e-27
7.2564157e-28
3.1593511e-28
9.0414272e-29
1.7163492e-29
2.9404491e-30
6.0477358e-31
1.2546238e-31
1.2952277e-32
4.8172742e-34
1.2554056e-35
4.6296195e-37
1.318963e-38
3.2162782e-40
7.2152773e-42
1.5444015e-43
3.1982068e-45
1.8472e-46
2.0234038e-47
5.2537358e-49
1.0104331e-50
4.800088e-52
7.7751954e-53
4.6039618e-54
4.9244291e-56
2.8022021e-58
3.377652e-60
4.6898691e-62
6.0997813e-64
7.3594775e-66
8.1987849e-68
8.3180633e-70
7.5199599e-72
5.8250532e-74
3.5145282e-76
1.2529884e-78
1.0784398e-80
8.9109138e-83
6.6580113e-85
4.4877399e-87
2.7031659e-89
1.4376219e-91
6.6470789e-94
2.6180231e-96
8.5376022e-99
2.1166591e-101
2.8221016e-104
5.3497713e-107
2.6534517e-103
1.0826794e-100
8.605931e-98
4.2115086e-95
1.3475737e-92
3.4536661e-90
7.5348828e-88
1.4280149e-85
2.3871898e-83
3.5620998e-81
4.7897526e-79
5.8414887e-77
6.4922366e-75
8.2098976e-73
2.2407732e-70
3.5797143e-68
4.8018382e-66
5.9783991e-64
7.0623152e-62
7.5913111e-60
6.882946e-58
4.8458174e-56
2.5846361e-54
1.1718091e-52
3.8859414e-51
5.7760029e-50
7.7509402e-49
2.9315104e-47
1.3533797e-45
6.0860187e-44
2.7064746e-42
1.2120713e-40
4.8815262e-39
1.6774879e-37
4.8395697e-36
1.1499607e-34
2.2024348e-33
3.3154327e-32
3.7972227e-31
3.1707904e-30
1.8786422e-29
8.6533851e-29
3.7681096e-28
1.533498e-27
5.4518267e-27
1.7035424e-26
3.7696791e-26
6.0023852e-26
1.0820106e-25
2.3319554e-25
2.3313945e-25
1.0814866e-25
6.0036278e-26
3.6169568e-26
1.6121245e-26
4.7756325e-27
9.8132573e-28
1.8684467e-28
4.1329375e-29
9.3441328e-30
9.9967116e-31
4.4843415e-32
1.0014023e-33
3.9815744e-35
1.223716e-36
3.1922584e-38
7.5913227e-40
1.7118241e-41
3.7197444e-43
5.2318898e-44
2.8431216e-45
7.1653726e-47
1.621666e-48
2.0603784e-49
4.9283236e-50
3.261498e-51
3.6238131e-53
1.901283e-55
2.2276702e-57
3.0900195e-59
3.9913901e-61
4.7345724e-63
5.1223159e-65
4.9508123e-67
4.10801e-69
2.6673353e-71
8.7254722e-74
6.9027108e-76
6.2117587e-78
5.0923702e-80
3.7852914e-82
2.5355142e-84
1.5159868e-86
7.9950709e-89
3.662634e-91
1.428449e-93
4.6110522e-96
1.1820095e-98
1.7521425e-101
2.8083203e-104
1.077312e-100
5.3030049e-98
4.2997357e-95
1.8324655e-92
5.7477486e-90
1.4916116e-87
3.293255e-85
6.3115457e-83
1.0658579e-80
1.6047919e-78
2.1742518e-76
2.6710387e-74
2.9769226e-72
3.0869131e-70
6.8739216e-68
1.6513194e-65
2.5983433e-63
3.5331186e-61
4.3416982e-59
4.6819788e-57
4.1646375e-55
2.8470682e-53
1.488908e-51
6.8922773e-50
2.2603345e-48
2.736138e-47
1.6110784e-46
3.2325873e-45
1.3896085e-43
5.990157e-42
2.5277547e-40
1.081953e-38
4.2354563e-37
1.4164192e-35
3.9563295e-34
9.0484595e-33
1.6581949e-31
2.3766521e-30
2.5812409e-29
2.0332304e-28
1.1247582e-27
4.7927051e-27
1.9550013e-26
7.5844412e-26
2.576275e-25
7.8014147e-25
1.6866232e-24
2.6280143e-24
4.6359488e-24
9.9429215e-24
9.9405199e-24
4.6337472e-24
2.6285181e-24
1.6231719e-24
7.4140189e-25
2.276228e-25
5.0531892e-26
1.0582983e-26
2.5112872e-27
6.2598014e-28
7.5165136e-29
3.5685221e-30
7.2551026e-32
3.1145478e-33
1.0357841e-34
2.9013635e-36
7.3368915e-38
1.7472541e-39
4.0168911e-41
9.2455745e-42
3.8374079e-43
8.6481808e-45
3.1276954e-46
9.9654658e-47
2.7778698e-47
1.9832098e-48
2.2731201e-50
1.1480705e-52
1.3206919e-54
1.8253321e-56
2.3302968e-58
2.6935456e-60
2.7843279e-62
2.47671e-64
1.7312239e-66
6.2091099e-69
4.9451777e-71
4.8301791e-73
4.3196659e-75
3.5167738e-77
2.5959649e-79
1.724238e-81
1.0210185e-83
5.3274096e-86
2.4128551e-88
9.2971551e-91
2.9639197e-93
7.5029304e-96
9.8087446e-99
1.7434334e-101
5.2739439e-98
2.3513097e-95
1.9568457e-92
9.3723038e-90
2.9865621e-87
7.8696339e-85
1.7632666e-82
3.4265984e-80
5.8603896e-78
8.9241271e-76
1.2211284e-73
1.5125457e-71
1.7061569e-69
1.7487421e-67
1.733361e-65
5.7871165e-63
1.2236889e-60
1.857598e-58
2.3726264e-56
2.5553128e-54
2.2242957e-52
1.4752483e-50
7.5609204e-49
3.5886607e-47
1.1853773e-45
1.3023785e-44
5.1500955e-44
3.7617818e-43
1.3481751e-41
5.5529182e-40
2.2259606e-38
9.0198845e-37
3.4195673e-35
1.1124304e-33
3.0047883e-32
6.5997111e-31
1.153615e-29
1.5690379e-28
1.61143e-27
1.1949685e-26
6.1578801e-26
2.4174119e-25
9.2044061e-25
3.3978216e-24
1.102195e-23
3.228591e-23
6.8126318e-23
1.0380086e-22
1.7916079e-22
3.8217301e-22
3.8208046e-22
1.7907701e-22
1.0381972e-22
6.5749321e-23
3.080569e-23
9.8199369e-24
2.3488634e-24
5.377098e-25
1.3700358e-25
3.7653565e-26
5.0511421e-27
2.4970113e-28
4.7925299e-30
2.2238632e-31
8.0236411e-33
2.4219313e-34
6.5347395e-36
1.6476991e-37
4.1512067e-39
1.3795363e-39
5.0042627e-41
1.0616219e-42
8.4136943e-44
4.5459835e-44
1.3707181e-44
1.0307556e-45
1.2163203e-47
6.0200388e-50
6.7766401e-52
9.2677831e-54
1.1571771e-55
1.2811576e-57
1.2223578e-59
9.2083316e-62
3.6577649e-64
3.0631392e-66
3.240042e-68
3.1474132e-70
2.7910154e-72
2.2539236e-74
1.6475299e-76
1.0821186e-78
6.3279893e-81
3.2565984e-83
1.4535861e-85
5.5169111e-88
1.7314701e-90
3.7750533e-93
4.5401766e-96
9.7547544e-99
2.339128e-95
8.6251267e-93
7.3240681e-90
4.1137601e-87
1.4244403e-84
3.826065e-82
8.7302973e-80
1.7258812e-77
3.000144e-75
4.6367624e-73
6.4292629e-71
8.0545803e-69
9.170981e-67
9.5236683e-65
9.0733743e-63
1.1138124e-60
4.7703343e-58
8.474851e-56
1.1325693e-53
1.218387e-51
1.0372432e-49
6.6775155e-48
3.3466583e-46
1.6121435e-44
5.3947568e-43
5.5859719e-42
1.889509e-41
5.6446593e-41
1.2570295e-39
4.8845017e-38
1.8623385e-36
7.0665949e-35
2.5838889e-33
8.168426e-32
2.1307665e-30
4.482177e-29
7.4431673e-28
9.5665328e-27
9.26035e-26
6.4518002e-25
3.0904323e-24
1.1127838e-23
3.9398013e-23
1.3816507e-22
4.276551e-22
1.2096001e-21
2.4888518e-21
3.7057225e-21
6.2565016e-21
1.3268091e-20
1.3264867e-20
6.253606e-21
3.7063712e-21
2.4084967e-21
1.1585802e-21
3.8413121e-22
9.88458e-23
2.4606235e-23
6.7723769e-24
2.0450232e-24
3.0979601e-25
1.5610852e-26
3.0649191e-28
1.4538571e-29
5.7019897e-31
1.8601253e-32
5.3706486e-34
1.4371284e-35
1.5251194e-36
1.5550336e-37
5.1430682e-39
1.3351783e-40
2.7794863e-41
1.8491073e-41
5.8864713e-42
4.5865978e-43
5.5918257e-45
2.7280503e-47
2.9746997e-49
3.9826001e-51
4.7848854e-53
4.9120049e-55
3.9989328e-57
1.7811463e-59
1.5278577e-61
1.7454156e-63
1.8367373e-65
1.766708e-67
1.5520688e-69
1.2391414e-71
8.9379904e-74
5.783785e-76
3.3274418e-78
1.6832235e-80
7.3769314e-83
2.7464815e-85
8.0592426e-88
1.4370922e-90
1.6931679e-93
4.5160532e-96
8.5841665e-93
2.5264531e-90
2.194089e-87
1.2680189e-84
5.4420746e-82
1.5691527e-79
3.6618722e-77
7.397517e-75
1.3124404e-72
2.0675836e-70
2.9167689e-68
3.7106187e-66
4.2812056e-64
4.500328e-62
4.300083e-60
4.1076864e-58
1.4780649e-55
3.3248619e-53
4.6884408e-51
5.0477774e-49
4.2081794e-47
2.6328094e-45
1.2900515e-43
6.2364941e-42
2.0981483e-40
2.0930614e-39
6.5460796e-39
1.2277922e-38
1.1842122e-37
4.1382117e-36
1.5005124e-34
5.310756e-33
1.8459538e-31
5.6394706e-30
1.4184896e-28
2.8477042e-27
4.4693004e-26
5.3996121e-25
4.9074926e-24
3.2058373e-23
1.4245864e-22
4.6820497e-22
1.5351274e-21
5.1080262e-21
1.5065151e-20
4.1080047e-20
8.2343717e-20
1.1973098e-19
1.9768994e-19
4.16654e-19
4.1655321e-19
1.9759968e-19
1.1975112e-19
7.9891771e-20
3.9493375e-20
1.3640926e-20
3.7745229e-21
1.0173024e-21
3.0441367e-22
1.0064127e-22
1.7633649e-23
9.1742707e-25
2.9105577e-26
8.7285754e-28
3.7257694e-29
1.3160958e-30
4.0740399e-32
1.1588489e-33
2.5441848e-34
1.6388091e-35
5.0827992e-37
1.9630686e-38
9.2722872e-39
6.6089438e-39
2.1888355e-39
1.7530262e-40
2.2130272e-42
1.0622202e-44
1.1042159e-46
1.4221766e-48
1.5952951e-50
1.4101637e-52
7.1514893e-55
6.0523888e-57
7.4514423e-59
8.4821319e-61
8.8233323e-63
8.3953734e-65
7.2776637e-67
5.721182e-69
4.0556529e-71
2.5743648e-73
1.4509785e-75
7.1820762e-78
3.0773727e-80
1.0696363e-82
2.4942745e-85
4.3171431e-88
4.9732656e-91
1.6851242e-93
2.5145986e-90
5.788359e-88
5.1681056e-85
3.0832962e-82
1.3749889e-79
4.8658294e-77
1.2628092e-74
2.619828e-72
4.7674213e-70
7.6909878e-68
1.1092719e-65
1.4399744e-63
1.6911741e-61
1.8051961e-59
1.7496007e-57
1.6122795e-55
3.4469366e-53
1.1268941e-50
1.684751e-48
1.8160619e-46
1.483231e-44
9.0231891e-43
4.3288838e-41
2.0881104e-39
6.9752822e-38
6.7805776e-37
2.0164715e-36
3.2102639e-36
1.2630191e-35
3.4596592e-34
1.1909739e-32
3.8987621e-31
1.2590565e-29
3.6843974e-28
8.9177891e-27
1.7010826e-25
2.5063696e-24
2.8272839e-23
2.4012461e-22
1.4677758e-21
6.0412352e-21
1.8026786e-20
5.4493515e-20
1.718223e-19
4.8227092e-19
1.2656068e-18
2.4689404e-18
3.503781e-18
5.6575365e-18
1.1852671e-17
1.1849816e-17
5.6550158e-18
3.504354e-18
2.4014347e-18
1.2211125e-18
4.4016423e-19
1.3092975e-19
3.8096717e-20
1.24284e-20
4.5166756e-21
9.0249565e-22
5.1224603e-23
2.1596528e-24
4.8287374e-26
2.2443178e-27
8.5930189e-29
2.8536499e-30
1.4748722e-31
3.3459904e-32
1.8586514e-33
5.8018996e-35
3.8239142e-36
2.8266858e-36
2.0635992e-36
7.0122309e-37
5.7765923e-38
7.5809677e-40
3.5474565e-42
3.4294206e-44
4.1242827e-46
4.0497965e-48
2.3729588e-50
1.8931377e-52
2.5039024e-54
3.0815437e-56
3.4594814e-58
3.5535114e-60
3.329434e-62
2.8350008e-64
2.1838504e-66
1.5140106e-68
9.3836953e-71
5.1557278e-73
2.4847445e-75
9.4942037e-78
2.6813401e-80
6.0129306e-83
1.0080845e-85
1.1294653e-88
4.9499183e-91
5.7618033e-88
1.0137868e-85
9.3499616e-83
5.79884e-80
2.6917698e-77
9.940616e-75
3.0322921e-72
7.4505062e-70
1.4172741e-67
2.3553037e-65
3.4929997e-63
4.6522366e-61
5.5939653e-59
6.0966176e-57
6.0447938e-55
5.5546343e-53
7.3175882e-51
3.3183855e-48
5.2599572e-46
5.6645304e-44
4.530283e-42
2.6811001e-40
1.2610394e-38
6.0591394e-37
1.992243e-35
1.8899254e-34
5.4310492e-34
8.2183678e-34
1.7526038e-33
3.0215609e-32
9.8652076e-31
2.9340957e-29
8.3621903e-28
2.2954996e-26
5.329606e-25
9.6065102e-24
1.3175337e-22
1.375487e-21
1.0853093e-20
6.196261e-20
2.3598329e-19
6.3535325e-19
1.7624444e-18
5.2620234e-18
1.4043685e-17
3.5410839e-17
6.7519022e-17
9.3585074e-17
1.4729094e-16
3.0979362e-16
3.0971792e-16
1.4722608e-16
9.3599222e-17
6.5842309e-17
3.4286751e-17
1.2919973e-17
4.1293911e-18
1.293662e-18
4.6164466e-19
1.8539232e-19
4.1650531e-20
2.8536506e-21
1.3432012e-22
5.1241971e-24
1.2507574e-25
5.1892385e-27
1.8476077e-28
2.6174656e-29
4.6205924e-30
3.2708389e-31
6.9042603e-33
8.636323e-34
7.5970433e-34
5.5921228e-34
1.9307125e-34
1.6416316e-35
2.2465015e-37
1.0094303e-39
8.7213954e-42
9.2262634e-44
6.4483183e-46
4.6905368e-48
6.6271782e-50
8.8190439e-52
1.0672948e-53
1.1807958e-55
1.191371e-57
1.0931083e-59
9.0898805e-62
6.8236705e-64
4.6001263e-66
2.7673638e-68
1.4394891e-70
5.7925406e-73
1.8980562e-75
5.138757e-78
1.1069448e-80
1.7850668e-83
1.9358739e-86
1.124279e-88
1.0092906e-85
1.3233626e-83
1.2672594e-80
8.2254679e-78
4.0070801e-75
1.5547294e-72
4.9826172e-70
1.3534489e-67
3.1545804e-65
5.8534235e-63
8.9864967e-61
1.2363707e-58
1.5317977e-56
1.7153826e-54
1.7430993e-52
1.6302876e-50
1.9670668e-48
8.6136289e-46
1.4300216e-43
1.5314621e-41
1.1980512e-39
6.8930639e-38
3.1791694e-36
1.5216479e-34
4.8947721e-33
4.5202692e-32
1.2714811e-31
1.8934983e-31
3.0413921e-31
2.9621722e-30
9.1780419e-29
2.3852769e-27
5.5700085e-26
1.3774324e-24
3.047862e-23
5.1566517e-22
6.5145847e-21
6.2260924e-20
4.5306576e-19
2.4126583e-18
8.510685e-18
2.0605706e-17
5.2097426e-17
1.4766426e-16
3.7621289e-16
9.1727327e-16
1.7404425e-15
2.3777177e-15
3.618718e-15
6.9917224e-15
6.9901528e-15
3.6171239e-15
2.3779107e-15
1.7028308e-15
8.9161446e-16
3.4906852e-16
1.1933795e-16
4.0020601e-17
1.5722505e-17
6.9869835e-18
1.7506426e-18
1.3988158e-19
7.2290218e-21
4.1322841e-22
1.6861419e-23
5.3155357e-25
3.0582505e-26
3.6652193e-27
7.5231752e-28
5.7488157e-29
9.7951272e-31
1.9229581e-31
1.7826399e-31
1.3121355e-31
4.5783108e-32
4.0211478e-33
5.7356948e-35
2.4267155e-37
1.7479097e-39
1.3723411e-41
9.2259425e-44
1.3781675e-45
1.9837481e-47
2.5873143e-49
3.0789678e-51
3.3366618e-53
3.2860861e-55
2.9338394e-57
2.3673661e-59
1.7201378e-61
1.1145732e-63