/*--------------------------------*- C++ -*----------------------------------*\
  =========                 |
  \\      /  F ield         | OpenFOAM: The Open Source CFD Toolbox
   \\    /   O peration     | Website:  https://openfoam.org
    \\  /    A nd           | Version:  9
     \\/     M anipulation  |
\*---------------------------------------------------------------------------*/
FoamFile
{
    format      ascii;
    class       volScalarField;
    location    "0.05";
    object      p;
}
// * * * * * * * * * * * * * * * * * * * * * * * * * * * * * * * * * * * * * //

dimensions      [1 -1 -2 0 0 0 0];

internalField   nonuniform List<scalar> 
10000
(
0
0.022474185
0.0592602
0.11377275
0.18498479
0.27266405
0.37674668
0.49726856
0.6342862
0.78787378
0.95811801
1.1451024
1.3489052
1.5695844
1.8071629
2.0616114
2.3328448
2.6207164
2.9249981
3.2453587
3.5813651
3.9324867
4.2980877
4.6774187
5.0696018
5.4736088
5.8882485
6.3121613
6.7436856
7.1796185
7.617291
8.0588924
8.5014328
8.941907
9.3776018
9.8057746
10.223615
10.628262
11.016766
11.386144
11.733468
12.055855
12.350525
12.614839
12.846324
13.042794
13.202346
13.323389
13.404705
13.445433
13.445151
13.403842
13.321957
13.200364
13.040278
12.843268
12.611264
12.346415
12.051231
11.728361
11.380569
11.010755
10.621828
10.216732
9.7984329
9.3698019
8.9336774
8.4927468
8.0498075
7.6078457
7.1697909
6.7335085
6.3016327
5.8773679
5.4623878
5.0580076
4.6654353
4.2857017
3.9196703
3.5681307
3.2317087
2.9109074
2.6061174
2.3176621
2.045846
1.7908086
1.552604
1.3313033
1.1268421
0.93913344
0.76810758
0.61364177
0.47562616
0.35396285
0.24845303
0.15898996
0.085460119
0.027789669
-0.013833734
-0.044511003
-0.040753009
-0.013080904
0.025253843
0.080154423
0.15136801
0.23886658
0.3426933
0.462912
0.59960368
0.75286166
0.92278195
1.1094885
1.3130682
1.5336005
1.7711306
2.02565
2.2970878
2.5853374
2.8901831
3.2113038
3.5482886
3.9006511
4.2677721
4.6489204
5.0432248
5.4496522
5.8669843
6.2938013
6.72843
7.1688323
7.6126373
8.0593951
8.5068987
8.9525567
9.3937089
9.8275852
10.251287
10.661868
11.056317
11.431569
11.784598
12.112438
12.412205
12.681186
12.916813
13.116816
13.279246
13.402452
13.485181
13.526569
13.526281
13.484304
13.401007
13.277256
13.114299
12.913736
12.677586
12.408077
12.107793
11.779481
11.425991
11.050292
10.655407
10.244368
9.8202116
9.3858921
8.9443035
8.4982035
8.050294
7.6031778
7.159005
6.7182423
6.2832598
5.8560784
5.4384201
5.0316605
4.6369733
4.2554173
3.8878629
3.5350577
3.1976283
2.8760532
2.5707146
2.2818912
2.0098692
1.7547907
1.5166644
1.2955165
1.0912812
0.90385678
0.73316476
0.57905955
0.44139883
0.32007901
0.21490241
0.12574783
0.052478561
-0.0049682962
-0.0464114
-0.077041547
-0.089346369
-0.060042462
-0.02063339
0.03472645
0.10599346
0.19334831
0.2969035
0.4167643
0.55304979
0.70588739
0.87542006
1.0617771
1.2650922
1.4854572
1.7229302
1.9775373
2.2492598
2.53798
2.8435123
3.1655856
3.5038387
3.8577975
4.2268957
4.6104237
5.007517
5.4171379
5.8380717
6.268921
6.7080385
7.1534813
7.604015
8.0574518
8.5117674
8.964525
9.4130873
9.8546694
10.286312
10.704967
11.107542
11.490873
11.851821
12.187271
12.494199
12.769775
13.011346
13.216509
13.38319
13.509657
13.594599
13.63711
13.636808
13.593696
13.508179
13.381156
13.213947
13.008234
12.766137
12.490027
12.182586
11.846656
11.485241
11.101463
10.698441
10.279325
9.8472164
9.4052198
8.9562283
8.5030654
8.0483838
7.5945689
7.1436308
6.6978242
6.2583642
5.8271652
5.405895
4.9959582
4.5985038
4.2145563
3.8450248
3.4906158
3.1518876
2.8293283
2.5232921
2.2340278
1.9617544
1.7066119
1.4685724
1.2476181
1.0436809
0.85666429
0.68639391
0.53272642
0.39551444
0.27463145
0.16988299
0.081127222
0.0082263494
-0.048965331
-0.090223905
-0.12079215
-0.15248944
-0.12273728
-0.082912743
-0.027390882
0.043800593
0.13088438
0.23402807
0.35339027
0.48912863
0.64141509
0.81042939
0.99634026
1.1993052
1.4194509
1.6568736
1.9116404
2.1837576
2.4731477
2.7796679
3.1031029
3.4431448
3.7993757
4.1712567
4.5581003
4.959062
5.3731362
5.7991458
6.2357301
6.6813361
7.1342581
7.5927228
8.0548134
8.5183317
8.9807994
9.4395161
9.8916391
10.334146
10.763871
11.177586
11.571978
11.943733
12.28958
12.606318
12.890944
13.140641
13.352836
13.525318
13.656237
13.744197
13.788237
13.78794
13.743304
13.65476
13.523272
13.350238
13.137499
12.887277
12.602097
12.284831
11.938498
11.566269
11.17143
10.757277
10.32711
9.8841506
9.4315991
8.9724844
8.5096466
8.0457664
7.5832942
7.1244281
6.671124
6.2251456
5.78821
5.3618735
4.947488
4.5461888
4.158935
3.7866241
3.4299581
3.0894178
2.7654652
2.4584284
2.1685186
1.8958943
1.6406046
1.4026394
1.1819714
0.97844338
0.79191799
0.62220399
0.46912978
0.33255575
0.21228947
0.10811359
0.01988424
-0.052540618
-0.10933962
-0.15033028
-0.18073187
-0.23093207
-0.20114426
-0.161319
-0.10590135
-0.034991114
0.051642897
0.15420748
0.27289894
0.40792181
0.55949509
0.72783727
0.91315701
1.1156494
1.3354891
1.572824
1.827762
2.100352
2.3905742
2.6983479
3.0235235
3.3658542
3.7249707
4.1003694
4.4913999
4.897261
5.3169969
5.7494739
6.1933651
6.6471689
7.10923
7.577708
8.0506353
8.5257363
9.0004842
9.4721045
9.9376599
10.394031
10.83791
11.265879
11.674429
12.06003
12.419211
12.748557
13.044826
13.304987
13.526258
13.706241
13.842936
13.934817
13.980843
13.980558
13.933949
13.841477
13.704227
13.523685
13.301869
13.04117
12.744331
12.414432
12.05473
11.668644
11.25964
10.831251
10.386941
9.9301739
9.4642218
8.9922122
8.5170935
8.0416152
7.5682945
7.0994257
6.636991
6.1828016
5.7385419
5.3057132
4.8856224
4.4794136
4.0880034
3.7121774
3.3526344
3.009829
2.6841457
2.3758591
2.0851271
1.8120636
1.5566464
1.3188043
1.09849
0.89548214
0.70959362
0.5406184
0.38834438
0.25259302
0.13310322
0.029652382
-0.057892521
-0.12975732
-0.1860715
-0.22663638
-0.25682337
-0.32478479
-0.29517534
-0.25559589
-0.20052722
-0.1301254
-0.044151209
0.057623234
0.17543545
0.30953665
0.46018836
0.62765195
0.81218226
1.0140258
1.2334172
1.4705633
1.7256247
1.9987124
2.289882
2.5991264
2.9263663
3.2714138
3.6339521
4.0135333
4.4095695
4.8213204
5.2478816
5.688168
6.1408945
6.604583
7.0775898
7.5580964
8.0440877
8.533208
9.0228735
9.5102365
9.9922354
10.465608
10.92686
11.372353
11.798346
12.20105
12.576733
12.921709
13.232437
13.505606
13.738173
13.927505
14.071411
14.168197
14.216697
14.216413
14.167353
14.069993
13.925552
13.735657
13.502547
13.228829
12.917522
12.571988
12.195739
11.792498
11.366025
10.920124
10.458492
9.9847596
9.502392
9.0146645
8.5246297
8.0351262
7.5487265
7.0677962
6.5943786
6.1302831
5.6771726
5.2365165
4.8095847
4.3974694
4.0010653
3.6210922
3.2581438
2.9126453
2.5849331
2.2752075
1.9835526
1.710007
1.4545111
1.2168958
0.99703627
0.79470648
0.60968077
0.4416701
0.29039447
0.15565979
0.037195623
-0.065294245
-0.15202873
-0.22314944
-0.27888558
-0.31893241
-0.34879202
-0.43406336
-0.40474833
-0.36561659
-0.31112026
-0.24145866
-0.15638578
-0.055645021
0.061042031
0.19396763
0.34343628
0.50975756
0.69324169
0.89420217
1.112941
1.349731
1.6048059
1.8783581
2.1705297
2.4813933
2.810937
3.1590427
3.525466
3.909837
4.3116479
4.7302283
5.1647279
5.6141138
6.0771534
6.5523975
7.0381962
7.5327383
8.0340912
8.5397553
9.047074
9.5531193
10.054691
10.548347
11.030373
11.496875
11.943843
12.367181
12.762822
13.126737
13.455015
13.743992
13.990302
14.191012
14.343686
14.44644
14.49796
14.497678
14.445634
14.342337
14.189122
13.98782
13.740949
13.451435
13.12259
12.758104
12.361889
11.937971
11.490518
11.023578
10.541168
10.047177
9.5452685
9.0388637
8.5311635
8.0251029
7.5233364
7.0283629
6.5421278
6.0664662
5.6030417
5.1532658
4.7183745
4.2994299
3.8972626
3.5125317
3.1457251
2.7971825
2.4671944
2.1559092
1.8633156
1.5893074
1.3337942
1.0965899
0.87744827
0.67603127
0.49207025
0.32527865
0.17531712
0.041855149
-0.075399722
-0.17668581
-0.26232591
-0.33255596
-0.38755507
-0.42702787
-0.45649264
-0.55863535
-0.52974095
-0.49121732
-0.4375128
-0.36883957
-0.28493229
-0.18550155
-0.070232909
0.061207972
0.2091727
0.37402606
0.55614553
0.75592033
0.97372822
1.2099225
1.4648297
1.7387361
2.031873
2.3444004
2.6763882
3.0278053
3.3985053
3.7882116
4.1965015
4.6227823
5.0662706
5.5259893
6.0007662
6.4892026
6.9896544
7.5002498
8.0193547
8.5441606
9.0719548
9.599728
10.124134
10.641525
11.147953
11.639236
12.111031
12.55887
12.978263
13.364751
13.713988
14.02188
14.284671
14.499042
14.662239
14.772147
14.827296
14.827016
14.771344
14.660893
14.497147
14.282195
14.018827
13.710371
13.360598
12.973543
12.553595
12.105156
11.632823
11.141086
10.634257
10.116497
9.5917664
9.0636708
8.5355215
8.0103141
7.4907688
6.9797317
6.4788432
5.9899843
5.5147959
5.0546573
4.6107844
4.1841649
3.7755305
3.3854624
3.0143958
2.6626037
2.3302204
2.0172839
1.7237671
1.4494803
1.1941706
0.95756657
0.7393638
0.53919403
0.356681
0.19142818
0.043070444
-0.088787877
-0.2044989
-0.30440416
-0.38874643
-0.45786048
-0.51196192
-0.55075056
-0.57975331
-0.69830959
-0.66995065
-0.63221082
-0.57951788
-0.51209037
-0.429635
-0.33183181
-0.21832787
-0.08874311
0.057328457
0.22032035
0.400687
0.59889383
0.81540837
1.0506841
1.3051505
1.5791946
1.8731452
2.1872671
2.5217357
2.8766297
3.2519169
3.6474207
4.0628069
4.497571
4.9510163
5.422244
5.9101519
6.413406
6.9303716
7.4589434
7.9983601
8.5449156
9.0960722
9.6487379
10.199407
10.744217
11.278957
11.799115
12.299948
12.776536
13.223884
13.637003
14.01102
14.341322
14.623666
14.85428
15.030011
15.148434
15.207879
15.207596
15.14759
15.0286
14.8523
14.621139
14.338258
14.007368
13.632762
13.219062
12.771161
12.294047
11.792681
11.272019
10.736842
10.191655
9.6406466
9.0876388
8.5361167
7.9891771
7.4493478
6.9203642
6.4029601
5.8992648
5.4109475
4.9393066
4.4854628
4.0503492
3.6346323
3.238791
2.863144
2.5078885
2.17308
1.8586074
1.564291
1.2899051
1.0350953
0.79948416
0.58261216
0.3840586
0.20335858
0.040008817
-0.10638914
-0.23629568
-0.3501332
-0.4483071
-0.53114172
-0.59890782
-0.65189566
-0.68984604
-0.71830773
-0.85283327
-0.8251274
-0.78835574
-0.73690158
-0.67099256
-0.59030819
-0.49449619
-0.38316181
-0.25587188
-0.11215248
0.04850681
0.22664309
0.42281078
0.63757715
0.87150648
1.1251399
1.398978
1.6934678
2.0089972
2.3458773
2.7043139
3.0843908
3.4860423
3.9090354
4.3529672
4.8172486
5.3010857
5.8034729
6.3231816
6.858753
7.4086255
7.9694594
8.540163
9.1176093
9.6984673
10.279041
10.855233
11.422524
11.976017
12.510504
13.020534
13.500527
13.944863
14.348016
14.704716
15.010114
15.259894
15.450431
15.578945
15.643474
15.643178
15.57805
15.448974
15.257849
15.007497
14.701518
14.344252
13.94051
13.495618
13.01506
12.504477
11.969479
11.415514
10.847779
10.271174
9.6902085
9.1089875
8.5311826
7.9601203
7.3989144
6.8486435
6.3126433
5.7925031
5.2897056
4.8054697
4.3407724
3.896465
3.4731588
3.0712014
2.6908117
2.332033
1.9948101
1.6789861
1.3841824
1.1100472
0.85610077
0.62189329
0.40681974
0.21034714
0.031949337
-0.1290061
-0.27302672
-0.40057853
-0.5121885
-0.60825485
-0.68925073
-0.75544194
-0.80712545
-0.84405692
-0.87184243
-1.021886
-0.99497042
-0.95934022
-0.90936635
-0.84527794
-0.7667246
-0.67332077
-0.56462405
-0.44013499
-0.29930266
-0.14153518
0.033794946
0.22734638
0.43979653
0.6718248
0.92409602
1.1972485
1.4918722
1.8084996
2.1475966
2.5095088
2.8944436
3.3024592
3.7334467
4.1871251
4.6630289
5.1604844
5.6785905
6.216194
6.7718656
7.3438479
7.9296263
8.5274441
9.1343123
9.746843
10.361191
10.973013
11.577452
12.169179
12.742452
13.291184
13.809105
14.289845
14.727089
15.114754
15.447238
15.719569
15.927547
16.067972
16.138541
16.138234
16.067053
15.926046
15.717429
15.444517
15.111403
14.723153
14.285352
13.804075
13.285632
12.736338
12.162542
11.570327
10.965432
10.353201
9.7384554
9.1255402
8.5182884
7.9200866
7.3339513
6.7616198
6.205553
5.6675353
5.1490025
4.6511462
4.1748498
3.7207945
3.2894972
2.8811742
2.4959559
2.1337807
1.7943733
1.477477
1.1825636
0.90916326
0.65663322
0.42438026
0.21169269
0.017853533
-0.15772266
-0.31570652
-0.45676178
-0.58146283
-0.69043676
-0.78404324
-0.86286314
-0.92718119
-0.97733481
-1.0131048
-1.040086
-1.2050801
-1.1790871
-1.1447938
-1.0965583
-1.0346231
-0.95860786
-0.86808594
-0.76255655
-0.64144688
-0.50412369
-0.34990411
-0.17806021
0.012176368
0.22160185
0.45102954
0.70126591
0.97310505
1.2673115
1.5845858
1.9255479
2.2907039
2.6804068
3.0948572
3.5340955
3.997986
4.4861969
4.9981729
5.5331091
6.0899368
6.6672851
7.2634648
7.8763603
8.5040688
9.1435443
9.7913634
10.443557
11.095556
11.742141
12.377501
12.995292
13.588683
14.150545
14.673595
15.150575
15.57445
15.93871
16.23758
16.46612
16.620549
16.698224
16.697925
16.619628
16.464552
16.235324
15.93584
15.570975
15.14653
14.669002
14.145395
13.583
12.98906
12.370775
11.734943
11.08788
10.435447
9.7828666
9.134671
8.4947962
7.8666752
7.2533899
6.6568577
6.0791353
5.5219152
4.9865727
4.4742057
3.9856181
3.5213525
3.0818052
2.6670791
2.2771106
1.9117365
1.5705216
1.2530365
0.95859206
0.68652368
0.43603794
0.20639902
-0.003173837
-0.19356943
-0.36564251
-0.52007665
-0.65761604
-0.77889822
-0.88469135
-0.97542625
-1.0516403
-1.1137856
-1.1621582
-1.1965438
-1.2225918
-1.4019444
-1.3770197
-1.3442681
-1.2980608
-1.238651
-1.1656275
-1.0785146
-0.97674574
-0.85967132
-0.72657143
-0.5766634
-0.40910882
-0.2230236
-0.017482747
0.20848389
0.45585524
0.72559382
1.0186582
1.3359426
1.6782359
2.0462209
2.4404282
2.8612302
3.3088364
3.7832674
4.2843268
4.8115694
5.3643031
5.9415914
6.5421945
7.1645
7.8064932
8.4668715
9.1421503
9.8289675
10.523285
11.220332
11.91452
12.59948
13.268186
13.912955
14.525624
15.097786
15.621051
16.087266
16.488805
16.818857
17.071614
17.242544
17.328551
17.32824
17.241602
17.069983
16.816555
16.48586
16.083695
15.616908
15.093057
14.520331
13.907152
13.26187
12.59266
11.907228
11.212598
10.51512
9.8203994
9.1331904
8.4574963
7.7967058
7.1543098
6.5316054
5.9306055
5.3529311
4.7998225
4.2722189
3.7708048
3.2960211
2.8481012
2.4270504
2.0326179
1.664446
1.3219616
1.004502
0.71123803
0.44129576
0.19374228
-0.032389206
-0.23811212
-0.42429176
-0.59201383
-0.74209468
-0.87540296
-0.99269276
-1.0946394
-1.1820082
-1.2551914
-1.3147465
-1.3610695
-1.393896
-1.4188593
-1.6119233
-1.5882311
-1.5572477
-1.513389
-1.4569182
-1.3873856
-1.3042632
-1.2069175
-1.0946173
-0.96655078
-0.82183465
-0.65951572
-0.47857468
-0.27793383
-0.056458933
0.18702626
0.45369167
0.74468907
1.0611287
1.4040077
1.7742057
2.1724675
2.5993702
3.0553012
3.5404273
4.0546842
4.5977681
5.1691389
5.7680088
6.3932817
7.0434882
7.7164738
8.4122508
9.1263839
9.8559233
10.596822
11.344112
12.091838
12.833026
13.55983
14.263577
14.934914
15.5641
16.141352
16.657115
17.102404
17.469105
17.750349
17.940761
18.036637
18.036311
17.939815
17.748732
17.466797
17.099419
16.653478
16.137096
15.55925
14.929531
14.25769
13.55342
12.826088
12.084428
11.336287
10.588582
9.847291
9.1173696
8.4028088
7.7065885
7.033179
6.3825566
5.7568926
5.1576301
4.5858722
4.0424422
3.5278569
3.0424252
2.5862048
2.1590523
1.7605977
1.3902389
1.0472183
0.73064274
0.4395101
0.17265941
-0.070999644
-0.29257834
-0.49338724
-0.67445811
-0.83692535
-0.98178144
-1.1099514
-1.2224896
-1.3200018
-1.4033507
-1.4730872
-1.5296576
-1.5735792
-1.6046308
-1.628366
-1.8343765
-1.8120908
-1.7831374
-1.741979
-1.6888965
-1.6234027
-1.5449127
-1.4527238
-1.3460252
-1.223911
-1.0853966
-0.92940618
-0.75476812
-0.56022567
-0.34445874
-0.1060888
0.15629398
0.44407122
0.75857278
1.1010526
1.4726332
1.8742947
2.3068419
2.7708466
3.2666248
3.7942608
4.3535984
4.9442462
5.5656082
6.2168436
6.8968746
7.6046727
8.3361998
9.0917625
9.8676772
10.659729
11.462751
12.270439
13.075195
13.868225
14.639663
15.378775
16.074234
16.714539
17.288363
17.785031
18.194909
18.509758
18.723185
18.830724
18.830402
18.722218
18.508122
18.1926
17.782044
17.284722
16.71025
16.069334
15.373327
14.633691
13.861705
13.068146
12.262929
11.454821
10.65136
9.8589001
9.0825961
8.326613
7.5946532
6.8864313
6.2059899
5.5543733
4.9326403
4.3416137
3.7819328
3.2539749
2.7578989
2.2936471
1.8608858
1.4590447
1.0873093
0.7447238
0.43011424
0.14222938
-0.12030344
-0.35881631
-0.57469144
-0.76934027
-0.9440793
-1.1001799
-1.2388455
-1.3610898
-1.4679693
-1.5603652
-1.6390358
-1.7047205
-1.7578995
-1.7990779
-1.8280436
-1.8503731
-2.0685695
-2.04788
-2.0212311
-1.9831603
-1.9339596
-1.8731028
-1.799949
-1.7137248
-1.6135477
-1.4984255
-1.3672639
-1.2188503
-1.0518466
-0.86480418
-0.65618962
-0.42439582
-0.16775918
0.11536501
0.42656903
0.76740419
1.1392895
1.5434586
1.9809479
2.4525399
2.9587253
3.4997442
4.0755898
4.6859873
5.3304801
6.0084358
6.7189725
7.4609438
8.2323332
9.0325784
9.8585623
10.706408
11.570947
12.445566
13.322024
14.190488
15.039686
15.857204
16.62978
17.34382
17.985841
18.543007
19.00384
19.358435
19.599095
19.720408
19.720065
19.598083
19.356751
19.001479
18.539994
17.98218
17.339546
16.62489
15.851721
15.033659
14.183913
13.314906
12.437929
11.562819
10.697804
9.8495406
9.0231445
8.2224806
7.4506922
6.7083412
5.9974315
5.3190967
4.6742549
4.0635386
3.4873526
2.9460091
2.4395418
1.9677275
1.5300587
1.1257181
0.75367556
0.41275077
0.10147019
-0.1816994
-0.43842574
-0.67028802
-0.87900201
-1.066171
-1.2332919
-1.3818158
-1.5130758
-1.6283304
-1.7286463
-1.815071
-1.8884094
-1.9494079
-1.9987184
-2.0368528
-2.0634997
-2.0841994
-2.3136567
-2.2947629
-2.2707058
-2.236138
-2.1913566
-2.1357829
-2.0687285
-1.9893619
-1.896732
-1.7897678
-1.6672549
-1.5278358
-1.3699948
-1.1920708
-0.99229683
-0.76881716
-0.5196895
-0.24295873
0.063289823
0.40093393
0.77173649
1.1772265
1.6186931
2.097161
2.6133279
3.1675664
3.7599803
4.3903864
5.0583748
5.7634974
6.5052325
7.2828415
8.095104
8.9423956
9.8217003
10.729851
11.661908
12.611026
13.56826
14.522617
15.461198
16.369573
17.23212
18.032573
18.75484
19.383489
19.904635
20.306321
20.579257
20.716947
20.716586
20.578186
20.304576
19.902167
19.380382
18.751121
18.028267
17.227201
16.364074
15.455134
14.515987
13.561044
12.603214
11.653558
10.721012
9.8124159
8.9326699
8.0849607
7.272331
6.4943649
5.7522784
5.0468098
4.3785066
3.7478299
3.1551183
2.6005764
2.0841476
1.605449
1.163798
0.75818809
0.38727822
0.049573874
-0.25675268
-0.533498
-0.78266951
-1.0062085
-1.2060706
-1.38408
-1.5420095
-1.6815318
-1.8041601
-1.9112517
-2.0039903
-2.0835237
-2.1507867
-2.2064927
-2.2513529
-2.28599
-2.3100868
-2.328997
-2.5686609
-2.5517655
-2.5306137
-2.4999864
-2.4601877
-2.4105924
-2.3504672
-2.2789385
-2.1949969
-2.0974849
-1.9850672
-1.8562381
-1.7092954
-1.5423525
-1.3533861
-1.1402618
-0.90074356
-0.63250401
-0.33323242
-0.00068447692
0.36727635
0.77255285
1.2167536
1.7011751
2.2267252
2.7938647
3.4027146
4.0531151
4.7446857
5.4771144
6.2502996
7.0641805
7.9186713
8.8135766
9.7486836
10.721333
11.726992
12.758724
13.806827
14.859001
15.900494
16.914395
17.88217
18.784285
19.601327
20.314628
20.907323
21.364994
21.67631
21.833461
21.833092
21.675166
21.363128
20.904765
20.311427
19.597519
18.779891
17.87716
16.908832
15.894367
14.852281
13.799464
12.750716
11.718425
10.712256
9.7391347
8.803573
7.9082645
7.0534065
6.2391841
5.4656841
4.732939
4.0411097
3.3904748
2.7813876
2.2139996
1.6882045
1.2035831
0.75917684
0.3537714
-0.014275415
-0.34683602
-0.64615101
-0.91441914
-1.1539191
-1.3670415
-1.5561261
-1.7231844
-1.8702226
-1.9991644
-2.1116707
-2.2092895
-2.2933193
-2.3649649
-2.4252514
-2.4750027
-2.5148865
-2.545555
-2.5667561
-2.5836898
-2.8324656
-2.8177774
-2.7998637
-2.7736351
-2.7394094
-2.69653
-2.6442328
-2.5816107
-2.5076005
-2.4209617
-2.3202481
-2.2037906
-2.0696972
-1.9158574
-1.7399843
-1.5396233
-1.3121818
-1.0549353
-0.76511293
-0.44002218
-0.077086094
0.32606719
0.77145212
1.2606697
1.7948157
2.3744039
2.9994439
3.6696549
4.3846167
5.1440196
5.9480142
6.7973686
7.6934164
8.6363396
9.6290132
10.669845
11.755121
12.878045
14.028242
15.191919
16.352127
17.488941
18.580214
19.602411
20.531826
21.345739
22.023554
22.547847
22.904886
23.085215
23.084827
22.903705
22.5459
22.020897
21.342426
20.527919
19.597922
18.575122
17.483243
16.345822
15.185017
14.020709
12.869884
11.746358
10.660515
9.6192015
8.6260912
7.6827728
6.7863177
5.9365946
5.1323335
4.3726837
3.6575268
2.9871233
2.3618726
1.7821244
1.2477975
0.75840636
0.31279441
-0.090504123
-0.45352321
-0.77864793
-1.0684447
-1.3257011
-1.5531415
-1.7534798
-1.9294166
-2.0833621
-2.2175542
-2.3341552
-2.4349752
-2.5216674
-2.5957453
-2.6584672
-2.7108722
-2.7539028
-2.7882559
-2.8145505
-2.8325032
-2.8472076
-3.1038324
-3.0915631
-3.0772144
-3.0558525
-3.0278164
-2.9924315
-2.9489215
-2.8963514
-2.8336136
-2.7593949
-2.6721424
-2.5700294
-2.4509754
-2.3126526
-2.1524959
-1.9677114
-1.7552698
-1.5119999
-1.2346288
-0.91990144
-0.56466658
-0.16597762
0.27868029
0.77124978
1.3130231
1.9045177
2.5455221
3.2353793
3.973313
4.7588143
5.592128
6.4747226
7.409381
8.3992574
9.4498229
10.561386
11.731936
12.95512
14.219967
15.510887
16.80825
18.088699
19.325618
20.490299
21.553473
22.487276
23.26663
23.870425
24.282066
24.490078
24.489646
24.280792
23.868404
23.263927
22.483902
21.549482
20.485693
19.320379
18.082776
16.801682
15.503714
14.212231
12.946804
11.722974
10.551838
9.4397667
8.3887355
7.3984456
6.4633987
5.5804445
4.7468634
3.9611783
3.2231014
2.5331136
1.8919572
1.3003438
0.75842274
0.26570185
-0.17914779
-0.577989
-0.93327185
-1.2480127
-1.5253615
-1.7686176
-1.9810277
-2.1657833
-2.3260026
-2.4644145
-2.5835824
-2.6858313
-2.7732251
-2.8474901
-2.910271
-2.9629223
-3.0065234
-3.0420147
-3.0701752
-3.0916428
-3.1060545
-3.1183306
-3.3813877
-3.371742
-3.3612782
-3.345252
-3.3240375
-3.2969599
-3.2632394
-3.2219328
-3.1718987
-3.1117557
-3.0398582
-2.9542512
-2.8526866
-2.7326147
-2.5911746
-2.4252039
-2.2312174
-2.0054999
-1.7442072
-1.4433867
-1.0991419
-0.70782855
-0.2662962
0.22785728
0.77615595
1.3790679
2.0360049
2.7456098
3.5061458
4.3163571
5.1764364
6.0886498
7.0576807
8.0899666
9.1953904
10.378155
11.638922
12.971984
14.365424
15.801584
17.257783
18.706704
20.116253
21.450922
22.674167
23.751391
24.652024
25.350783
25.82769
26.068838
26.06842
25.8264
25.348688
24.649231
23.747902
22.670024
21.446141
20.110826
18.70055
17.250922
15.794067
14.357416
12.963472
11.629792
10.368429
9.1850805
8.0791354
7.0464355
6.0770574
5.1645346
4.3041858
3.4937945
2.7331556
2.0234906
1.3664759
0.76346074
0.21505195
-0.27920441
-0.72085568
-1.1122884
-1.4565941
-1.7573992
-2.0186538
-2.2443495
-2.4383242
-2.6042903
-2.7457798
-2.8659162
-2.9675877
-3.0533265
-3.125356
-3.1855856
-3.2356678
-3.2770345
-3.3108426
-3.338001
-3.3593129
-3.3754416
-3.3859819
-3.3956504
-3.6636153
-3.6567723
-3.6505121
-3.6402942
-3.6265421
-3.6085989
-3.5857015
-3.5569107
-3.5210659
-3.4767442
-3.4222371
-3.3555012
-3.27413
-3.17537
-3.0560497
-2.9126136
-2.7411211
-2.5372284
-2.2963705
-2.0137745
-1.6846204
-1.3043524
-0.86899771
-0.37547171
0.17812876
0.79221638
1.4655616
2.1955812
2.9789326
3.8126425
4.6958293
5.6312902
6.6265788
7.6941624
8.8458523
10.097273
11.452099
12.905196
14.442841
16.044766
17.685162
19.332478
20.948061
22.487156
23.903009
25.152162
26.197582
27.009763
27.564714
27.84555
27.845163
27.563505
27.007743
26.194778
25.148624
23.898762
22.482179
20.942472
19.326255
17.678203
16.03705
14.434566
12.896434
11.442796
10.087347
8.8352875
7.6830541
6.6150274
5.6193934
4.6836582
3.8002308
2.966344
2.1828847
1.4528348
0.77947057
0.16534957
-0.38828049
-0.88183684
-1.3172454
-1.6975763
-2.0267462
-2.3093439
-2.5502055
-2.7540978
-2.9255655
-3.0690161
-3.1883848
-3.2871954
-3.3686561
-3.4354959
-3.4900993
-3.5345329
-3.5704698
-3.5993386
-3.6223141
-3.6403359
-3.6541707
-3.6644656
-3.6707822
-3.6776567
-3.9488607
-3.9449694
-3.9432151
-3.9392668
-3.9336221
-3.9256361
-3.9145947
-3.8995836
-3.879447
-3.852764
-3.8178098
-3.7724851
-3.714258
-3.6401863
-3.5468183
-3.4301983
-3.2858865
-3.1088852
-2.8937209
-2.6346447
-2.3257274
-1.9612062
-1.5359396
-1.0458282
-0.48830117
0.13708745
0.82822093
1.5806293
2.3882849
3.2450024
4.1469917
5.0962074
6.1033269
7.1880152
8.3742597
9.6884177
11.139924
12.724298
14.424025
16.214897
18.068741
19.950614
21.814301
23.601797
25.250955
26.706282
27.923935
28.871278
29.519375
29.847606
29.847257
29.518271
28.869365
27.921207
26.702806
25.246739
23.596733
21.808522
19.944309
18.061845
16.207252
14.415632
12.715283
11.130382
9.6782393
8.3634494
7.1766565
6.0914624
5.0839428
4.1344247
3.2322191
2.3753862
1.5676478
0.81521883
0.12415721
-0.50114432
-1.0586344
-1.5487332
-1.973994
-2.3385464
-2.6474174
-2.9064734
-3.1216601
-3.2986822
-3.4429916
-3.5596348
-3.6530465
-3.7271662
-3.7854924
-3.8309
-3.8659252
-3.892712
-3.9129743
-3.9280877
-3.9391885
-3.9472415
-3.9529612
-3.9569755
-3.9587814
-3.9627136
-4.2353078
-4.234481
-4.2375299
-4.2402975
-4.24337
-4.2461455
-4.2479578
-4.247964
-4.2450638
-4.2378828
-4.2247286
-4.2034847
-4.1715677
-4.1258709
-4.0627303
-3.9778193
-3.8661101
-3.7219186
-3.5388208
-3.3098579
-3.0277116
-2.6850441
-2.2750312
-1.7919961
-1.2322349
-0.59495498
0.116792
0.89594929
1.7321468
2.6135337
3.5304353
4.4809978
5.4780475
6.5525845
7.748177
9.111034
10.66058
12.390436
14.27349
16.278772
18.378312
20.538002
22.704135
24.798216
26.732539
28.434314
29.85457
30.961732
31.720656
32.105285
32.104898
31.719559
30.959885
29.851903
28.430881
26.7284
24.793283
22.698367
20.531587
18.371352
16.271183
14.265127
12.38128
10.650744
9.1005522
7.7370987
6.5408914
5.4658143
4.4683132
3.517397
2.6003078
1.7188442
0.8826665
0.10357467
-0.60807203
-1.2452077
-1.804844
-2.2878179
-2.6977881
-3.0404011
-3.3224376
-3.5513459
-3.7344588
-3.8786961
-3.9904393
-4.0753929
-4.1385691
-4.1843225
-4.2163283
-4.2376715
-4.2509017
-4.2581833
-4.2612203
-4.2613282
-4.2595776
-4.2568554
-4.2538335
-4.2511151
-4.2481256
-4.2489972
-4.5209279
-4.5232654
-4.5314356
-4.5413578
-4.5537085
-4.5679747
-4.5835818
-4.5997753
-4.6155888
-4.6297634
-4.6406847
-4.6463034
-4.6440378
-4.6306981
-4.6024684
-4.5547213
-4.4818763
-4.3774445
-4.2340545
-4.0434067
-3.7964142
-3.483671
-3.0960137
-2.6252765
-2.0656948
-1.4154471
-0.67815573
0.13596684
1.0101859
1.9231765
2.8537746
3.7902918
4.7443268
5.7628232
6.9249046
8.3073152
9.9567554
11.855192
13.949437
16.194134
18.569976
21.057607
23.599384
26.081666
28.3696
30.362567
32.01465
33.308657
34.199316
34.650332
34.649968
34.198238
33.30682
32.011934
30.359004
28.365336
26.076828
23.593858
21.051275
18.562885
16.186349
13.940959
11.845979
9.9467673
8.2966052
6.9134725
5.7506253
4.731546
3.777076
2.8402406
1.909484
0.99650128
0.12239362
-0.69159351
-1.4287337
-2.078771
-2.6381651
-3.1087496
-3.4963027
-3.8089439
-4.0558262
-4.2464172
-4.3897856
-4.4942642
-4.5671965
-4.6149984
-4.6432627
-4.6566615
-4.6589899
-4.6534662
-4.6426448
-4.6285994
-4.6129275
-4.5968433
-4.5813133
-4.5671044
-4.5547827
-4.5448909
-4.5367772
-4.5344718
-4.8032781
-4.8091306
-4.8227955
-4.8402703
-4.8623995
-4.888785
-4.9189993
-4.9524501
-4.9883531
-5.0256444
-5.062878
-5.0981468
-5.1289757
-5.1522275
-5.1639864
-5.1593983
-5.1324904
-5.0759983
-4.9815005
-4.8392614
-4.6381694
-4.3661159
-4.0107436
-3.5601808
-3.0049699
-2.3406061
-1.5702766
-0.70744509
0.22294167
1.1852246
2.1375262
3.045068
3.9067344
4.7881217
5.8289126
7.186328
8.9464402
11.061094
13.408225
15.907975
18.575093
21.444234
24.467323
27.464488
30.203428
32.529264
34.431947
35.94409
36.994806
37.519261
37.518828
36.993579
35.942127
34.429133
32.525536
30.19906
27.45962
24.461834
21.437958
18.567968
15.899997
13.399519
11.051705
8.936312
7.1753966
5.8170868
4.7753899
3.8933025
3.0311362
2.1233752
1.1710157
0.20883346
-0.72134382
-1.5838923
-2.3539451
-3.0180231
-3.5729588
-4.0233271
-4.3785931
-4.6505492
-4.8515569
-4.9937283
-5.0881714
-5.144708
-5.1717384
-5.1764279
-5.1647379
-5.1415301
-5.1107484
-5.0755398
-5.0384169
-5.0012773
-4.9655178
-4.9321738
-4.9020528
-4.8757374
-4.853635
-4.8361844
-4.8225503
-4.8167091
-5.0798856
-5.0898993
-5.1094452
-5.1347954
-5.1670762
-5.2060595
-5.251524
-5.3031208
-5.3603219
-5.422327
-5.4879465
-5.5555407
-5.6229044
-5.6870862
-5.7442256
-5.7893611
-5.8162297
-5.8170714
-5.7824322
-5.7010593
-5.5595432
-5.3426558
-5.0337295
-4.6155442
-4.0725596
-3.39441
-2.5811039
-1.6483049
-0.63036509
0.41792549
1.4214065
2.2971677
2.9996971
3.6044592
4.3613571
5.6012046
7.5035221
9.9465855
12.625401
15.36706
18.289749
21.587175
25.260632
28.993415
32.327036
34.999621
37.13988
38.905355
40.149419
40.73686
40.736339
40.148001
38.903147
37.136888
34.99578
32.322718
28.988755
25.255225
21.580817
18.282442
15.358889
12.616609
9.9371744
7.4933022
5.589939
4.3490164
3.5911139
2.985506
2.2824047
1.4064542
0.40302733
-0.64497478
-1.6624755
-2.5948262
-3.4077075
-4.0854872
-4.6281708
-5.0461166
-5.3549123
-5.571707
-5.7131781
-5.7944731
-5.8290679
-5.8283066
-5.8015678
-5.7565571
-5.6995303
-5.6354246
-5.5681052
-5.5005469
-5.435027
-5.3731816
-5.316143
-5.26467
-5.2193005
-5.1803779
-5.1481228
-5.1227971
-5.1032507
-5.093239
-5.3490443
-5.3636079
-5.3892467
-5.4226479
-5.4652765
-5.5171284
-5.5782623
-5.6486415
-5.7280657
-5.8160817
-5.9118994
-6.0142882
-6.1214741
-6.2308875
-6.3389199
-6.4407389
-6.5300199
-6.5987325
-6.6366882
-6.6312287
-6.5666975
-6.4243545
-6.1822757
-5.8158208
-5.299919
-4.613212
-3.7464132
-2.7134337
-1.5582027
-0.35655165
0.77235578
1.6566365
2.1256393
2.2091714
2.3481987
3.2688662
5.405407
8.4703772
11.673792
14.556849
17.544083
21.256486
25.880882
30.762901
34.909639
37.843223
40.060777
42.117478
43.633174
44.23337
44.232943
43.631852
42.115177
40.057491
37.839179
34.905701
30.758983
25.87568
21.249882
17.536441
14.548401
11.665032
8.4613314
5.3954903
3.2574668
2.3352923
2.1949624
2.1104505
1.6408012
0.75628698
-0.37237684
-1.5734123
-2.7279569
-3.7602566
-4.6264319
-5.3126426
-5.828165
-6.1943564
-6.4362864
-6.5785575
-6.6430891
-6.6485328
-6.610611
-6.5419948
-6.4528411
-6.3511503
-6.2432518
-6.1339497
-6.0268045
-5.9244553
-5.8287257
-5.7408668
-5.6616285
-5.5914002
-5.5303589
-5.4785538
-5.435951
-5.402571
-5.3769118
-5.3623457
-5.609147
-5.6283787
-5.6601262
-5.7015047
-5.7544381
-5.8191843
-5.8961241
-5.9855888
-6.0877795
-6.202699
-6.3301194
-6.469408
-6.6193654
-6.7780278
-6.9423385
-7.1079461
-7.2688685
-7.4170507
-7.5419912
-7.6301279
-7.6641271
-7.6219504
-7.4757593
-7.191564