/*--------------------------------*- C++ -*----------------------------------*\
  =========                 |
  \\      /  F ield         | OpenFOAM: The Open Source CFD Toolbox
   \\    /   O peration     | Website:  https://openfoam.org
    \\  /    A nd           | Version:  9
     \\/     M anipulation  |
\*---------------------------------------------------------------------------*/
FoamFile
{
    format      ascii;
    class       surfaceScalarField;
    location    "0.05";
    object      phi;
}
// * * * * * * * * * * * * * * * * * * * * * * * * * * * * * * * * * * * * * //

dimensions      [0 3 -1 0 0 0 0];

internalField   nonuniform List<scalar> 
19800
(
-0.00010620315
0.00010686988
-0.00016336282
0.0001065866
-0.00022056601
0.00010661993
-0.00027776835
0.00010648819
-0.00033494227
0.00010633383
-0.00039209227
0.00010613214
-0.00044920609
0.00010586268
-0.0005062404
0.00010550692
-0.00056312787
0.0001050389
-0.00061980137
0.00010442203
-0.00067619324
0.00010361852
-0.00073217059
0.00010259352
-0.00078762261
0.00010130199
-0.00084239622
9.9707027e-05
-0.00089629424
9.7789067e-05
-0.00094908821
9.545582e-05
-0.0010005774
9.268627e-05
-0.0010504733
8.9433724e-05
-0.0010984624
8.5651789e-05
-0.0011442321
8.1297161e-05
-0.0011874596
7.631705e-05
-0.0012277451
7.0684906e-05
-0.0012646976
6.4365264e-05
-0.0012979119
5.7327218e-05
-0.0013269758
4.9554875e-05
-0.0013514437
4.1044893e-05
-0.0013708465
3.1809895e-05
-0.0013847009
2.183635e-05
-0.0013922462
1.1047344e-05
-0.0013947566
-7.4811896e-07
-0.0013911184
-1.305749e-05
-0.0013797974
-2.5335741e-05
-0.0013610765
-3.804688e-05
-0.0013348555
-5.1140608e-05
-0.0013009935
-6.4510516e-05
-0.0012593989
-7.8032133e-05
-0.0012100496
-9.1574163e-05
-0.0011529929
-0.00010497825
-0.0010883585
-0.00011810478
-0.0010163693
-0.00013080603
-0.00093735581
-0.00014293501
-0.00085170776
-0.00015433373
-0.00075988553
-0.00016485824
-0.00066243057
-0.00017437485
-0.00056000265
-0.00018276883
-0.00045334061
-0.000189953
-0.00034319125
-0.00019583081
-0.00023036093
-0.00020028042
-0.0001156857
-0.00020327187
-2.5556222e-08
-0.00020479384
0.00011563448
-0.00020479296
0.00023030763
-0.00020326942
0.00034313935
-0.00020027797
0.00045328681
-0.00019582918
0.0005599499
-0.00018995312
0.00066237925
-0.0001827646
0.00075983172
-0.00017437411
0.00085165202
-0.00016485579
0.00093729818
-0.00015433074
0.0010163062
-0.00014293209
0.0010882936
-0.00013080206
0.0011529248
-0.00011809913
0.0012099817
-0.00010497167
0.001259331
-9.1567398e-05
0.0013009217
-7.8029552e-05
0.0013347791
-6.4510321e-05
0.0013610031
-5.1140907e-05
0.0013797187
-3.8047694e-05
0.0013910388
-2.5334062e-05
0.0013946816
-1.3055594e-05
0.0013921716
-7.493408e-07
0.0013846283
1.1044205e-05
0.0013707749
2.1830418e-05
0.0013513721
3.1803557e-05
0.0013269057
4.1036655e-05
0.0012978422
4.9542936e-05
0.0012646326
5.7313989e-05
0.0012276872
6.4351768e-05
0.0011874091
7.0671578e-05
0.0011441877
7.6304192e-05
0.0010984223
8.1284105e-05
0.0010504404
8.5639504e-05
0.0010005546
8.9421569e-05
0.00094907298
9.2672808e-05
0.00089628477
9.543931e-05
0.0008423904
9.7765412e-05
0.00078762004
9.9689416e-05
0.00073217636
0.000101282
0.00067620855
0.00010256988
0.00061982695
0.00010358967
0.00056316462
0.0001043859
0.00050628821
0.00010499575
0.00044927145
0.00010545804
0.00039218722
0.0001058052
0.0003350634
0.00010605838
0.00027792488
0.00010623899
0.00022076313
0.00010636798
0.00016357625
0.00010646549
0.00010639081
0.00010651884
0.00010670346
-0.00010642702
0.00016410882
-0.00016364208
0.00016380351
-0.00022081441
0.00016379471
-0.00027796964
0.00016364369
-0.00033521698
0.00016357998
-0.00039246277
0.00016337593
-0.00044965756
0.00016305711
-0.00050678028
0.00016263136
-0.00056382735
0.00016208981
-0.00062075827
0.00016135768
-0.00067734379
0.0001602061
-0.00073365857
0.00015890777
-0.00078946511
0.00015710702
-0.0008445812
0.00015482098
-0.00089886141
0.00015206729
-0.00095220787
0.00014880032
-0.0010041755
0.00014465133
-0.0010545904
0.00013984676
-0.0011032069
0.00013426931
-0.0011497123
0.00012780569
-0.0011935738
0.00012018133
-0.0012345921
0.00011170363
-0.0012723269
0.00010209719
-0.0013063627
9.1358427e-05
-0.0013362154
7.9404262e-05
-0.0013614106
6.6238961e-05
-0.0013816212
5.2019692e-05
-0.0013963411
3.6554634e-05
-0.0014050942
1.9798806e-05
-0.0014078276
1.9834378e-06
-0.0014041645
-1.6721618e-05
-0.0013932697
-3.6226467e-05
-0.0013749359
-5.6373783e-05
-0.0013489782
-7.709664e-05
-0.0013152498
-9.8239778e-05
-0.0012736368
-0.00011964217
-0.0012241133
-0.0001410958
-0.0011667289
-0.00016236206
-0.0011016062
-0.00018322385
-0.0010290412
-0.00020336903
-0.00094922041
-0.00022275378
-0.00086258779
-0.0002409639
-0.00076964767
-0.00025779831
-0.00067106739
-0.00027295258
-0.00056742198
-0.00028641503
-0.00045933571
-0.00029804385
-0.00034769001
-0.00030747994
-0.00023332982
-0.00031464688
-0.00011713101
-0.00031947415
-2.5887848e-08
-0.00032190224
0.00011707939
-0.00032190115
0.00023327577
-0.00031947028
0.00034763837
-0.00031464072
0.00045928376
-0.00030747455
0.00056737239
-0.00029804061
0.00067102268
-0.00028641475
0.00076959608
-0.00027294753
0.00086253062
-0.00025779361
0.0009491599
-0.00024096003
0.0010289762
-0.0002227504
0.00110154
-0.00020336477
0.001166659
-0.00018321827
0.0012240427
-0.00016235473
0.001273566
-0.00014108949
0.0013151733
-0.00011963755
0.0013488991
-9.8236031e-05
0.0013748603
-7.709544e-05
0.0013931928
-5.6376162e-05
0.0014040847
-3.6230727e-05
0.0014077493
-1.6723184e-05
0.0014050175
1.9807065e-06
0.0013962648
1.9795761e-05
0.0013815454
3.6546569e-05
0.0013613332
5.2006421e-05
0.0013361379
6.6225084e-05
0.0013062891
7.9388321e-05
0.0012722586
9.1343663e-05
0.0012345296
0.00010208211
0.0011935169
0.00011168596
0.0011496581
0.00012016484
0.0011031537
0.00012778953
0.0010545415
0.00013425564
0.0010041367
0.00013982982
0.00095217364
0.0001446327
0.00089882635
0.00014878093
0.00084455261
0.00015203771
0.00078944353
0.00015480015
0.00073364646
0.00015708448
0.00067733899
0.00015887866
0.00062076021
0.00016016833
0.00056383214
0.00016131374
0.00050681458
0.00016201682
0.00044970099
0.00016257254
0.00039249958
0.00016300986
0.00033528129
0.00016327777
0.00027805203
0.00016347294
0.00022083772
0.00016357511
0.00016368096
0.00016361623
0.00010648026
0.00016371233
0.00016392378
-0.00010648941
0.0002212958
-0.00016369261
0.00022101122
-0.00022087841
0.00022098285
-0.00027813716
0.00022090295
-0.00033538178
0.00022082327
-0.0003926678
0.00022066099
-0.00044999755
0.00022038716
-0.0005073379
0.00021997393
-0.00056460513
0.00021936085
-0.00062172385
0.00021847861
-0.00067872167
0.00021720415
-0.00073535424
0.00021554015
-0.00079158611
0.00021333867
-0.00084728604
0.0002105211
-0.00090223546
0.00020701694
-0.0009561283
0.00020269228
-0.0010089127
0.00019743473
-0.0010602278
0.00019116293
-0.0011097448
0.00018378939
-0.0011571062
0.00017517004
-0.0012021111
0.00016518705
-0.001244222
0.00015381255
-0.0012830653
0.00014093698
-0.0013182043
0.00012649438
-0.0013492266
0.00011042522
-0.0013756912
9.2703385e-05
-0.0013970653
7.3392446e-05
-0.0014128954
5.2381701e-05
-0.0014229278
2.98295e-05
-0.0014266686
5.7248896e-06
-0.0014235788
-1.9811349e-05
-0.0014133543
-4.6450801e-05
-0.001395603
-7.4121814e-05
-0.0013700811
-0.0001026175
-0.0013366034
-0.00013172002
-0.0012950292
-0.00016121489
-0.0012453296
-0.00019079247
-0.0011875419
-0.00022015048
-0.0011217979
-0.00024896777
-0.00104826
-0.00027690684
-0.00096733545
-0.00030367699
-0.00087942917
-0.00032886685
-0.0007849983
-0.00035223066
-0.00068455309
-0.00037339928
-0.00057883455
-0.00039213542
-0.00046868419
-0.00040819808
-0.00035484372
-0.00042132037
-0.00023817179
-0.00043132008
-0.00011958341
-0.00043806304
-2.6863839e-08
-0.00044146072
0.00011953032
-0.00044146062
0.00023811601
-0.00043806207
0.00035478789
-0.00043131652
0.00046862651
-0.00042131472
0.00057877893
-0.00040819186
0.00068449466
-0.00039213141
0.0007849398
-0.0003733946
0.00087937044
-0.00035222703
0.00096727258
-0.000328862
0.001048193
-0.00030367223
0.0011217291
-0.00027690117
0.0011874703
-0.00024896147
0.0012452555
-0.00022014362
0.0012949564
-0.00019078389
0.0013365244
-0.00016120778
0.0013700001
-0.00013170926
0.0013955235
-0.00010262346
0.0014132725
-7.4127685e-05
0.001423499
-4.6455926e-05
0.0014265903
-1.9816517e-05
0.0014228473
5.7176005e-06
0.0014128135
2.9823874e-05
0.0013969864
5.2371154e-05
0.001375613
7.3377756e-05
0.0013491469
9.2686144e-05
0.0013181268
0.0001104071
0.0012829936
0.00012647626
0.0012441542
0.00014091869
0.0012020486
0.00015379306
0.001157048
0.00016516637
0.0011096912
0.00017514919
0.0010601814
0.00018376795
0.0010088676
0.00019114301
0.00095608675
0.0001974131
0.00090219368
0.00020267127
0.00084724745
0.00020698426
0.00079155464
0.00021049216
0.00073532981
0.00021330709
0.00067870287
0.00021550229
0.00062171416
0.00021715995
0.00056461204
0.00021842095
0.00050733915
0.00021929325
0.00045000719
0.00021990082
0.00039269669
0.000220321
0.00033540581
0.00022057164
0.00027816537
0.0002207185
0.00022095218
0.00022079644
0.00016373076
0.00022084266
0.00010655166
0.00022089155
0.00022110661
-0.00010660221
0.00027843578
-0.00016376238
0.00027817567
-0.0002209417
0.00027816422
-0.00027819216
0.00027815305
-0.00033551421
0.00027814442
-0.00039291033
0.00027805663
-0.00045037729
0.00027785507
-0.00050790413
0.00027750347
-0.00056544855
0.00027690703
-0.00062293441
0.00027596467
-0.00068033048
0.00027460049
-0.00073750569
0.00027271628
-0.00079435464
0.00027018938
-0.00085073498
0.00026690337
-0.00090645351
0.00026273604
-0.00096133628
0.00025757463
-0.0010151257
0.00025122489
-0.0010675557
0.00024359545
-0.0011183077
0.00023454388
-0.0011670385
0.00022390134
-0.0012134231
0.0002115695
-0.0012570376
0.00019742386
-0.001297456
0.00018135325
-0.0013342309
0.00016326841
-0.001366904
0.00014309752
-0.0013950053
0.00012080344
-0.0014180011
9.638682e-05
-0.0014354625
6.9841021e-05
-0.0014469461
4.1311606e-05
-0.0014520387
1.0818375e-05
-0.0014501502
-2.1699985e-05
-0.0014409297
-5.5674789e-05
-0.0014240291
-9.1023482e-05
-0.0013991413
-0.00012750331
-0.0013659989
-0.00016486366
-0.001324504
-0.00020271087
-0.0012745797
-0.00024071563
-0.0012162528
-0.00027847816
-0.0011496349
-0.00031558509
-0.0010749373
-0.0003516033
-0.00099251221
-0.00038610246
-0.00090269318
-0.00041868473
-0.00080606728
-0.00044885928
-0.0007032161
-0.00047625307
-0.00059484462
-0.00050050614
-0.00048176097
-0.00052128205
-0.00036480538
-0.00053827371
-0.00024488819
-0.00055123731
-0.00012296496
-0.00055998788
-2.8956879e-08
-0.00056440089
0.00012290839
-0.00056440061
0.00024483113
-0.00055998798
0.00036474815
-0.00055123649
0.00048170097
-0.00053827153
0.00059478456
-0.00052127742
0.00070315564
-0.00050050205
0.00080600715
-0.00047624847
0.00090263177
-0.00044885384
0.00099244648
-0.00041867829
0.0010748693
-0.00038609589
0.001149564
-0.00035159632
0.0012161789
-0.00031557594
0.0012745049
-0.00027847065
0.0013244281
-0.00024070584
0.0013659222
-0.00020270505
0.0013990775
-0.00016486683
0.0014239495
-0.00012749796
0.0014408461
-9.1026206e-05
0.0014500689
-5.5680714e-05
0.0014519609
-2.1708186e-05
0.0014468628
1.0812138e-05
0.0014353807
4.1299578e-05
0.0014179177
6.9828874e-05
0.0013949221
9.6371341e-05
0.0013668202
0.00012078482
0.0013341492
0.00014307863
0.0012973791
0.00016325006
0.0012569627
0.00018133412
0.001213353
0.00019740466
0.0011669729
0.00021154686
0.0011182444
0.00022387412
0.0010674969
0.00023451626
0.0010150722
0.00024356936
0.00096128857
0.00025119731
0.00090641743
0.00025754046
0.00085069338
0.00026270555
0.00079431435
0.00026686731
0.00073747057
0.00027015043
0.0006803014
0.00027267325
0.00062291582
0.00027455087
0.0005654337
0.0002759042
0.00050789549
0.0002768284
0.00045038295
0.00027741265
0.00039290633
0.00027779926
0.000335515
0.00027796173
0.00027821561
0.0002780171
0.00022097218
0.00027804471
0.00016379201
0.00027803423
0.00010664245
0.00027804083
0.00027824596
-0.00010669131
0.00033550252
-0.00016378581
0.00033527323
-0.0002209279
0.00033530664
-0.00027816481
0.00033538932
-0.00033550281
0.00033548165
-0.00039299831
0.00033555228
-0.00045066566
0.00033552412
-0.00050844967
0.00033528841
-0.00056633765
0.00033479448
-0.00062424969
0.00033387645
-0.00068216434
0.00033251604
-0.00073998045
0.00033053462
-0.00079758885
0.00032780047
-0.00085485409
0.00032416984
-0.00091160772
0.00031948912
-0.00096763191
0.0003135985
-0.0010227067
0.00030630065
-0.0010765578
0.00029744773
-0.0011288897
0.00028687525
-0.0011793173
0.00027432652
-0.0012275168
0.00025976588
-0.0012730544
0.00024295957
-0.0013154866
0.0002237854
-0.0013543459
0.00020212815
-0.0013891446
0.00017789484
-0.0014193738
0.00015103055
-0.0014445042
0.00012151673
-0.0014640501
8.9387231e-05
-0.0014774377
5.469744e-05
-0.0014843602
1.7738832e-05
-0.0014840402
-2.2021444e-05
-0.0014761979
-6.3521097e-05
-0.0014604177
-0.00010680685
-0.001436342
-0.00015157732
-0.0014037357
-0.00019746973
-0.0013623949
-0.00024405413
-0.0013122279
-0.00029088267
-0.0012532442
-0.00033746129
-0.0011855459
-0.00038328067
-0.0011093314
-0.00042781444
-0.0010249155
-0.00047051929
-0.00093275868
-0.0005108424
-0.0008333714
-0.00054824933
-0.00072738866
-0.00058223836
-0.00061555059
-0.00061234143
-0.00049869589
-0.00063813408
-0.00037772468
-0.00065924186
-0.00025360614
-0.00067535649
-0.00012735655
-0.00068624003
-3.0748602e-08
-0.00069173094
0.00012729613
-0.00069173069
0.00025354635
-0.00068624061
0.00037766539
-0.00067535696
0.00049863511
-0.0006592426
0.00061548665
-0.00063813204
0.00072732501
-0.00061233633
0.00083330829
-0.00058223159
0.00093269552
-0.00054824215
0.0010248477
-0.00051083599
0.00110926
-0.00047051037
0.0011854743
-0.00042780427
0.0012531644
-0.00038326932
0.0013121505
-0.00033745304
0.0013623105
-0.00029087414
0.0014036479
-0.00024404688
0.0014362501
-0.00019746526
0.0014603303
-0.00015157375
0.0014761127
-0.00010680537
0.0014839543
-6.352467e-05
0.0014842702
-2.2029554e-05
0.0014773468
1.7731517e-05
0.0014639628
5.4682254e-05
0.0014444151
8.9373927e-05
0.0014192844
0.00012150124
0.0013890558
0.00015101168
0.0013542586
0.00017787483
0.0013154021
0.00020210933
0.0012729728
0.00022376624
0.0012274364
0.00024293838
0.0011792395
0.00025974327
0.0011288182
0.0002742993
0.0010764918
0.0002868455
0.0010226434
0.00029741673
0.00096756956
0.00030626722
0.00091154603
0.00031355955
0.00085480008
0.00031945063
0.00079753911
0.00032412902
0.00073993512
0.00032775646
0.00068212399
0.00033048425
0.00062421499
0.0003324614
0.00056630062
0.00033382154
0.00050842367
0.00033470637
0.00045063986
0.00033520077
0.00039301023
0.00033543097
0.00033552615
0.00033544418
0.00027815451
0.0003353916
0.00022093668
0.00033526297
0.00016380289
0.000335172
0.00010671114
0.00033513996
0.00033530539
-0.00010669924
0.000392454
-0.00016371833
0.00039229279
-0.00022080876
0.00039239658
-0.0002780478
0.00039262755
-0.00033546451
0.0003928982
-0.00039306999
0.00039315893
-0.00045087498
0.00039332944
-0.00050890101
0.00039331317
-0.00056709934
0.0003929916
-0.0006255503
0.00039232746
-0.00068408969
0.0003910571
-0.00074265936
0.00038910687
-0.0008011635
0.00038630593
-0.00085948205
0.00038248739
-0.00091744762
0.00037745295
-0.00097485558
0.00037100554
-0.0010314995
0.00036294397
-0.00108708
0.00035302647
-0.0011412714
0.00034106374
-0.0011938277
0.00032687979
-0.0012442645
0.00031020144
-0.0012921694
0.00029086499
-0.0013370845
0.00026870134
-0.0013785183
0.000243562
-0.0014159484
0.00021532369
-0.0014488282
0.00018390889
-0.0014765947
0.00014928357
-0.0014986963
0.00011149019
-0.0015145824
7.0581499e-05
-0.0015236484
2.6800205e-05
-0.0015254447
-2.0227744e-05
-0.0015193955
-6.9572722e-05
-0.0015050845
-0.00012112136
-0.0014821159
-0.00017454608
-0.0014501975
-0.00022938712
-0.0014090993
-0.00028515338
-0.0013586778
-0.00034130318
-0.0012989575
-0.00039717942
-0.0012299529
-0.000452282
-0.0011518987
-0.00050586446
-0.0010651197
-0.00055729876
-0.00097005589
-0.00060590727
-0.00086725996
-0.00065104518
-0.00075740307
-0.00069209497
-0.00064126723
-0.00072847415
-0.00051974061
-0.00075966006
-0.00039378898
-0.00078519429
-0.0002644515
-0.0008046962
-0.00013282113
-0.000817871
-3.1699714e-08
-0.00082451916
0.00013275771
-0.00082451967
0.00026438872
-0.00081787317
0.00039372593
-0.00080469712
0.00051967895
-0.00078519226
0.00064120236
-0.00075965556
0.00075733645
-0.00072846776
0.00086719137
-0.00069208837
0.00096998655
-0.00065103606
0.00106505
-0.00060589586
0.0011518249
-0.00055728779
0.0012298767
-0.00050585176
0.0012988746
-0.00045227478
0.0013585949
-0.00039717486
0.0014090071
-0.0003412864
0.0014501034
-0.00028514308
0.0014820202
-0.00022937969
0.0015049902
-0.00017453969
0.001519303
-0.00012111735
0.0015253528
-6.9571857e-05
0.0015235577
-2.0228562e-05
0.0015144979
2.6793992e-05
0.0014986086
7.0569795e-05
0.0014765004
0.00011147523
0.0014487322
0.00014926634
0.0014158538
0.00018388971
0.0013784259
0.0002153028
0.0013369924
0.00024353846
0.0012920786
0.00026867578
0.0012441757
0.00029083951
0.0011937431
0.00031017547
0.0011411909
0.00032685389
0.0010870039
0.00034103313
0.0010314252
0.00035299153
0.00097478517
0.00036290795
0.00091737925
0.00037096896
0.00085941891
0.00037741291
0.00080110446
0.00038244117
0.00074260256
0.00038625411
0.00068404177
0.00038904313
0.00062551142
0.00039099236
0.00056709435
0.00039223858
0.0005088787
0.00039292166
0.0004508555
0.00039322305
0.00039305753
0.00039323122
0.00033545301
0.00039305065
0.0002780571
0.00039278569
0.00022082226
0.00039249987
0.00016373648
0.00039225768
0.00010673689
0.00039214169
0.00039226259
-0.00010669221
0.00044925956
-0.00016349711
0.00044909714
-0.00022053959
0.00044943836
-0.00027773966
0.00044982755
-0.00033516552
0.00045032515
-0.00039285944
0.00045085294
-0.00045084754
0.00045131578
-0.00050918389
0.00045164749
-0.00056783026
0.00045163695
-0.00062675143
0.00045124931
-0.00068595851
0.00045026622
-0.00074540011
0.00044854978
-0.00080492566
0.00044583052
-0.00086445917
0.00044201859
-0.00092383987
0.00043683146
-0.00098287861
0.00043004235
-0.0010413451
0.00042140809
-0.0010989869
0.00041066542
-0.0011554848
0.00039755914
-0.0012104629
0.00038185714
-0.0012635391
0.00036327894
-0.0013142636
0.00034159122
-0.0013621581
0.00031659625
-0.0014066888
0.00028809217
-0.0014472941
0.00025592889
-0.001483383
0.00021999778
-0.0015143468
0.00018024741
-0.0015395348
0.00013667869
-0.0015584783
8.9523828e-05
-0.0015703485
3.8665849e-05
-0.0015746708
-1.5908986e-05
-0.0015708546
-7.339035e-05
-0.0015583806
-0.00013359792
-0.0015368272
-0.00019610118
-0.0015058264
-0.00026038773
-0.0014651077
-0.00032587227
-0.0014145268
-0.00039188176
-0.0013538903
-0.00045781155
-0.0012833917
-0.00052277629
-0.0012031851
-0.00058606702
-0.0011135952
-0.00064688919
-0.0010150711
-0.00070443309
-0.0009081957
-0.000757919
-0.00079368227
-0.00080660532
-0.00067236727
-0.00084978536
-0.00054520314
-0.00088682446
-0.00041323289
-0.00091716696
-0.00027758132
-0.00094034977
-0.00013943728
-0.00095601576
-3.285951e-08
-0.00096392217
0.00013937062
-0.00096392098
0.00027751677
-0.0009560134
0.00041316875
-0.00094034654
0.00054513939
-0.00091716032
0.00067229989
-0.00088681597
0.00079361094
-0.00084977799
0.00090812276
-0.00080659882
0.0010149967
-0.00075791205
0.0011135186
-0.00070441935
0.0012031091
-0.00064687375
0.0012833053
-0.00058605108
0.0013537942
-0.00052276056
0.0014144131
-0.00045779348
0.001465003
-0.00039187882
0.0015057234
-0.00032586162
0.0015367239
-0.00026037697
0.0015582788
-0.00019609216
0.0015707552
-0.00013359151
0.0015745711
-7.3386618e-05
0.0015702506
-1.5907052e-05
0.0015583828
3.8663231e-05
0.0015394385
8.9515648e-05
0.0015142463
0.00013666677
0.001483282
0.00018023363
0.0014471944
0.00021998049
0.0014065886
0.00025590566
0.0013620576
0.00028806525
0.0013141644
0.00031656762
0.0012634429
0.00034156059
0.0012103682
0.00036325024
0.0011553929
0.00038182568
0.0010988988
0.00039752444
0.0010412592
0.00041063017
0.00098279693
0.00042137091
0.00092376229
0.00043000256
0.00086438574
0.00043678682
0.00080485608
0.0004419681
0.00074532831
0.00044578147
0.00068589754
0.00044847546
0.00062670091
0.00045018966
0.00056777105
0.00045116527
0.00050913763
0.00045155435
0.0004508225
0.00045153519
0.00039283799
0.00045121173
0.00033515099
0.00045073722
0.00027774116
0.00045020003
0.00022055346
0.00044968641
0.00016353075
0.00044928519
0.00010672642
0.00044894701
0.0004490578
-0.00010660964
0.00050582893
-0.00016329687
0.0005057839
-0.00022011487
0.00050625676
-0.00027719425
0.00050690834
-0.00033459384
0.00050772485
-0.00039235112
0.00050860826
-0.00045051374
0.00050947579
-0.00050909834
0.00051023008
-0.00056816819
0.00051070631
-0.00062768659
0.00051076889
-0.0006876362
0.00051021706
-0.00074795023
0.00050886344
-0.00080867478
0.00050655339
-0.0008695854
0.00050292732
-0.00093057055
0.00049781475
-0.00099145724
0.00049092698
-0.0010520275
0.00048197638
-0.0011120308
0.00047066762
-0.0011711312
0.00045665992
-0.0012289726
0.00043970032
-0.0012851577
0.00041946627
-0.0013391926
0.00039562765
-0.00139059
0.00036799363
-0.001438777
0.00033627865
-0.0014831474
0.00030030005
-0.0015230613
0.00025991276
-0.0015578512
0.00021503731
-0.0015868429
0.00016567
-0.0016092178
0.00011189819
-0.0016245686
5.4013176e-05
-0.0016320335
-8.4483286e-06
-0.0016309259
-7.4499428e-05
-0.001620749
-0.00014377595
-0.0016009682
-0.00021588406
-0.001571159
-0.00029019841
-0.0015309895
-0.00036604302
-0.0014801722
-0.00044269714
-0.0014186868
-0.00051929135
-0.0013465175
-0.00059494016
-0.0012638441
-0.00066873541
-0.0011709882
-0.00073974322
-0.001068419
-0.00080700327
-0.0009567521
-0.00086958675
-0.00083674892
-0.00092660867
-0.00070930929
-0.00097722261
-0.00057546364
-0.0010206672
-0.00043634905
-0.0010562795
-0.00029319506
-0.001083502
-0.00014730589
-0.0011019047
-3.2919407e-08
-0.0011111941
0.00014723851
-0.0011111931
0.00029312787
-0.0011019002
0.0004362835
-0.001083496
0.00057539571
-0.0010562715
0.00070923727
-0.0010206563
0.00083667207
-0.00097721637
0.00095667341
-0.00092659993
0.0010683443
-0.00086957405
0.0011709068
-0.00080698865
0.0012637639
-0.0007397241
0.0013464283
-0.00066871963
0.0014185896
-0.00059492553
0.0014800754
-0.00051927513
0.0015308817
-0.00044268352
0.0015710487
-0.00036603231
0.0016008568
-0.00029018492
0.0016206385
-0.00021587133
0.0016308168
-0.00014376564
0.0016319282
-7.4496087e-05
0.0016244569
-8.4373688e-06
0.0016091131
5.4007606e-05
0.0015867373
0.00011189476
0.0015577459
0.00016566223
0.001522955
0.00021502445
0.0014830398
0.00025989366
0.0014386694
0.00030027557
0.0013904826
0.00033625096
0.0013390885
0.00036796315
0.0012850567
0.00039559008
0.0012288682
0.00041943745
0.0011710315
0.0004396643
0.0011119352
0.00045662131
0.0010519338
0.00047063088
0.00099136659
0.00048193466
0.00093048409
0.0004908807
0.00086950472
0.00049776333
0.00080860457
0.00050286893
0.00074791005
0.00050647852
0.00068758115
0.00050880016
0.00062763044
0.00051013824
0.00056811365
0.0005106835
0.00050905747
0.00051061197
0.00045046983
0.00051012294
0.00039231925
0.00050936392
0.00033457234
0.00050848326
0.00027718925
0.00050758373
0.00022011358
0.00050676556
0.0001632975
0.00050609591
0.00010663062
0.00050561674
0.00050562366
-0.00010642042
0.0005620952
-0.00016282362
0.00056218809
-0.00021941552
0.00056285052
-0.00027630872
0.00056380176
-0.00033364826
0.00056506231
-0.00039139326
0.00056635017
-0.00044968975
0.00056776931
-0.00050856208
0.0005691006
-0.00056805371
0.00057019781
-0.00062817809
0.00057089378
-0.00068893482
0.00057097363
-0.00075031178
0.00057023969
-0.00081222194
0.00056846296
-0.00087463311
0.00056533797
-0.00093739621
0.00056057717
-0.0010003489
0.00055387919
-0.0010632804
0.0005449084
-0.0011259279
0.00053331693
-0.0011880261
0.00051876081
-0.0012491275
0.00050080421
-0.0013088527
0.00047919328
-0.0013667564
0.00045353241
-0.0014222251
0.00042346275
-0.0014746732
0.00038872663
-0.0015234474
0.00034907462
-0.001567847
0.00030431375
-0.001607136
0.00025432711
-0.001640551
0.00019908445
-0.0016673049
0.00013865098
-0.0016865956
7.3301055e-05
-0.0016979508
2.902916e-06
-0.0017001157
-7.2336647e-05
-0.0016927142
-0.00015117856
-0.0016751202
-0.00023347981
-0.0016468636
-0.00031845626
-0.0016074266
-0.00040548031
-0.0015565763
-0.00049354568
-0.001494148
-0.00058171556
-0.0014201272
-0.00066895726
-0.0013346681
-0.00075419097
-0.0012380785
-0.00083632907
-0.001130847
-0.00091423188
-0.0010136269
-0.00098680654
-0.00088723498
-0.0010530025
-0.00075264377
-0.0011118142
-0.00061098304
-0.0011623249
-0.0004634965
-0.0012037626
-0.00031153897
-0.0012354555
-0.0001565521
-0.0012568899
-3.3111514e-08
-0.0012677123
0.00015648649
-0.0012677125
0.00031146994
-0.0012568885
0.00046342876
-0.001235453
0.00061091084
-0.0012037577
0.00075256336
-0.0011623089
0.00088715774
-0.0011118059
0.0010135492
-0.0010529892
0.001130769
-0.00098678951
0.0012379959
-0.00091421765
0.0013345804
-0.00083631501
0.0014200343
-0.00075417236
0.00149405
-0.00066893713
0.0015564752
-0.00058169747
0.0016073184
-0.00049352963
0.0016467472
-0.00040546361
0.0016750034
-0.00031843866
0.0016925968
-0.0002334619
0.0016999953
-0.00015116323
0.0016978211
-7.2323333e-05
0.0016864785
2.8999818e-06
0.0016671843
7.3301218e-05
0.0016404354
0.0001386446
0.0016070216
0.00019907456
0.0015677325
0.00025431298
0.0015233323
0.00030429445
0.0014745589
0.00034905205
0.0014221098
0.00038870011
0.0013666385
0.00042343228
0.0013087247
0.00045350263
0.0012490114
0.00047915224
0.0011879188
0.00050075872
0.0011258151
0.00051872263
0.0010631745
0.0005332674
0.0010002469
0.00054485754
0.00093729981
0.00055382722
0.00087454295
0.00056052115
0.00081213915
0.00056527241
0.00075022542
0.00056839178
0.00068886289
0.00057016229
0.00062811763
0.00057088536
0.00056799045
0.00057081351
0.00050850849
0.00057009367
0.0004496446
0.00056898961
0.00039135682
0.00056764954
0.00033361649
0.00056622906
0.00027630059
0.00056489622
0.00021941148
0.00056366014
0.0001628234
0.0005626905
0.0001064302
0.00056201112
0.00056189152
-0.00010609905
0.00061797864
-0.0001621047
0.0006181959
-0.00021842692
0.00061917297
-0.00027511719
0.00062048989
-0.00033222922
0.00062217086
-0.00038996453
0.00062408162
-0.00044832978
0.0006261314
-0.0005074147
0.00062818374
-0.00056729853
0.00063008054
-0.00062801097
0.00063160498
-0.00068960556
0.00063256732
-0.00075204059
0.00063267484
-0.00081529912
0.00063172227
-0.00087932272
0.0006293624
-0.00094402781
0.00062528325
-0.001009257
0.00061911009
-0.0010748141
0.00061046807
-0.0011404578
0.00059896374
-0.0012058938
0.00058419978
-0.0012707098
0.00056562233
-0.0013345066
0.00054299121
-0.0013967493
0.00051577591
-0.001456877
0.00048359143
-0.0015142357
0.00044608577
-0.0015681123
0.00040295143
-0.001617736
0.0003539384
-0.0016622897
0.00029888155
-0.0017009297
0.00023772348
-0.0017327984
0.00017051803
-0.0017569091
9.7410199e-05
-0.0017725214
1.8513211e-05
-0.0017787838
-6.6076062e-05
-0.001774854
-0.00015511045
-0.0017600691
-0.00024826637
-0.0017336579
-0.00034486697
-0.0016952853
-0.0004438507
-0.0016445344
-0.00054429353
-0.0015811786
-0.00064506816
-0.001505156
-0.00074497718
-0.0014165982
-0.00084274783
-0.0013157911
-0.0009371365
-0.0012032446
-0.0010267761
-0.0010796591
-0.0011103882
-0.00094590802
-0.0011867506
-0.00080306179
-0.0012546587
-0.0006523264
-0.0013130572
-0.00049510532
-0.0013609829
-0.00033290568
-0.0013976572
-0.00016732502
-0.0014224724
-3.3843546e-08
-0.0014350071
0.0001672588
-0.0014350037
0.0003328361
-0.0014224697
0.00049503628
-0.0013976558
0.00065225611
-0.0013609784
0.0008030047
-0.0013130548
0.00094583406
-0.001254636
0.0010795842
-0.0011867296
0.0012031614
-0.0011103739
0.0013157035
-0.0010267579
0.0014165103
-0.00093711961
0.0015050611
-0.00084272904
0.0015810758
-0.0007449567
0.0016444292
-0.00064504572
0.0016951761
-0.00054427166
0.0017335439
-0.00044382984
0.0017599496
-0.00034484543
0.0017747324
-0.00024824479
0.0017786607
-0.00015509203
0.0017724007
-6.6059473e-05
0.0017567856
1.8519751e-05
0.0017326764
9.7409716e-05
0.0017008076
0.00017050965
0.0016621667
0.00023771287
0.001617613
0.00029886589
0.0015679907
0.0003539188
0.0015141133
0.00040292748
0.0014567535
0.00044605754
0.0013966267
0.00048355966
0.0013343889
0.00051574095
0.001270593
0.0005429503
0.0012057759
0.00056557769
0.0011403444
0.00058415398
0.001074701
0.00059891209
0.0010091466
0.00061041261
0.00094392166
0.00061905062
0.0008792226
0.00062521841
0.00081520387
0.00062929412
0.00075194975
0.00063164832
0.00068952139
0.00063259386
0.00062793442
0.00063247318
0.00056723658
0.00063150872
0.00050735721
0.00062996882
0.00044828114
0.00062806755
0.00038992602
0.00062600434
0.00033220509
0.00062394605
0.00027508624
0.00062202006
0.00021841149
0.00062033371
0.00016209986
0.00061900661
0.00010610097
0.00061801147
0.00061777511
-0.00010561366
0.00067335258
-0.00016119245
0.00067377466
-0.00021705955
0.00067503792
-0.00027337958
0.00067680642
-0.00033025993
0.00067904688
-0.00038785015
0.00068166777
-0.00044622205
0.00068450014
-0.00050548624
0.00068744501
-0.00056572257
0.00069031361
-0.00062699881
0.00069287853
-0.00068939846
0.00069496604
-0.00075293166
0.00069620877
-0.00081759651
0.00069638854
-0.0008833582
0.00069512565
-0.00095012784
0.00069205466
-0.0010178274
0.00068681194
-0.0010862573
0.00067890059
-0.0011551639
0.00066787292
-0.0012242412
0.00065327929
-0.0012932733
0.00063465589
-0.0013616373
0.00061135607
-0.0014288481
0.00058298744
-0.0014942923
0.00054903679
-0.0015572741
0.00050906901
-0.0016170205
0.00046269873
-0.0016726822
0.00040960042
-0.0017233466
0.00034954527
-0.0017681018
0.00028247715
-0.001805819
0.00020823404
-0.0018357772
0.00012736807
-0.0018567472
3.9483654e-05
-0.0018676983
-5.5123792e-05
-0.001867848
-0.00015496013
-0.0018563137
-0.00025980079
-0.0018324233
-0.00036875708
-0.0017954983
-0.00048077471
-0.001745076
-0.00059471339
-0.001680854
-0.0007092871
-0.001602716
-0.00082311067
-0.0015107342
-0.00093472542
-0.0014052245
-0.0010426479
-0.001286698
-0.0011453058
-0.001155838
-0.0012412479
-0.0010136475
-0.0013289361
-0.00086128545
-0.0014070161
-0.00070012039
-0.0014742191
-0.00053167738