/*--------------------------------*- C++ -*----------------------------------*\
  =========                 |
  \\      /  F ield         | OpenFOAM: The Open Source CFD Toolbox
   \\    /   O peration     | Website:  https://openfoam.org
    \\  /    A nd           | Version:  9
     \\/     M anipulation  |
\*---------------------------------------------------------------------------*/
FoamFile
{
    format      ascii;
    class       volVectorField;
    location    "0.05";
    object      U;
}
// * * * * * * * * * * * * * * * * * * * * * * * * * * * * * * * * * * * * * //

dimensions      [0 1 -1 0 0 0 0];

internalField   nonuniform List<vector> 
10000
(
(-0.0057755724 0.0058496578 0)
(-0.01392694 0.0058233381 0)
(-0.019206806 0.005822813 0)
(-0.024917629 0.0058108406 0)
(-0.030636689 0.0058004188 0)
(-0.036352966 0.0057850747 0)
(-0.042066484 0.0057641359 0)
(-0.047774276 0.0057387135 0)
(-0.053470718 0.0057085658 0)
(-0.05914921 0.0056695497 0)
(-0.064803106 0.0056175445 0)
(-0.07042209 0.005555626 0)
(-0.075994621 0.0054760653 0)
(-0.081509743 0.0053790028 0)
(-0.086943899 0.0052669616 0)
(-0.092276787 0.0051329054 0)
(-0.097492397 0.0049712714 0)
(-0.10256384 0.0047861147 0)
(-0.10745965 0.0045746467 0)
(-0.11214813 0.0043317222 0)
(-0.11659925 0.004052355 0)
(-0.12077637 0.0037417437 0)
(-0.12463946 0.003394622 0)
(-0.12814928 0.0030085189 0)
(-0.13126482 0.0025816954 0)
(-0.13394284 0.0021165419 0)
(-0.13613743 0.0016156337 0)
(-0.13779911 0.0010746077 0)
(-0.13887058 0.00048927411 0)
(-0.13937764 -0.00015458081 0)
(-0.13932088 -0.00080895208 0)
(-0.13857124 -0.0014607889 0)
(-0.13706891 -0.0021387602 0)
(-0.13482144 -0.0028365298 0)
(-0.13181645 -0.0035481073 0)
(-0.1280418 -0.0042667977 0)
(-0.12349301 -0.0049860594 0)
(-0.11817138 -0.0056965595 0)
(-0.11208462 -0.006390723 0)
(-0.10525108 -0.0070609998 0)
(-0.097698576 -0.0077026475 0)
(-0.08946306 -0.0083035822 0)
(-0.080587038 -0.0088546308 0)
(-0.07112076 -0.0093489858 0)
(-0.061124231 -0.0097851022 0)
(-0.050665728 -0.010161908 0)
(-0.039823771 -0.010468683 0)
(-0.028676057 -0.010697497 0)
(-0.017300484 -0.010848541 0)
(-0.005786564 -0.010922235 0)
(0.00578153 -0.010922203 0)
(0.017295353 -0.010848436 0)
(0.02867098 -0.010697346 0)
(0.039818931 -0.010468516 0)
(0.050660634 -0.010161825 0)
(0.061118922 -0.0097845348 0)
(0.071115475 -0.0093490764 0)
(0.080581569 -0.0088545385 0)
(0.089457374 -0.008303365 0)
(0.097692519 -0.007702405 0)
(0.10524463 -0.0070606577 0)
(0.11207789 -0.0063902536 0)
(0.11816453 -0.0056960365 0)
(0.12348653 -0.0049855529 0)
(0.12803523 -0.0042666792 0)
(0.13180909 -0.0035482206 0)
(0.13481392 -0.002836678 0)
(0.13706127 -0.0021389308 0)
(0.13856329 -0.0014607895 0)
(0.13931319 -0.00080885164 0)
(0.13937029 -0.00015459874 0)
(0.13886339 0.0004891516 0)
(0.13779203 0.0010742879 0)
(0.1361303 0.001615126 0)
(0.13393569 0.0021158231 0)
(0.13125768 0.0025807945 0)
(0.12814241 0.0030076617 0)
(0.12463327 0.0033938367 0)
(0.12077093 0.0037409587 0)
(0.11659453 0.0040515582 0)
(0.11214376 0.0043308709 0)
(0.10745594 0.0045736597 0)
(0.10256112 0.0047855093 0)
(0.09749039 0.0049705038 0)
(0.092275573 0.0051317611 0)
(0.086941931 0.0052651385 0)
(0.081507875 0.0053777959 0)
(0.075994684 0.0054746901 0)
(0.070423188 0.0055539545 0)
(0.06480521 0.0056155125 0)
(0.059152454 0.0056670003 0)
(0.053475042 0.0057050984 0)
(0.047779925 0.005735395 0)
(0.042074405 0.0057608317 0)
(0.036363671 0.0057800081 0)
(0.030650377 0.0057938408 0)
(0.024935401 0.0058025608 0)
(0.019213441 0.0058080035 0)
(0.013953462 0.0058124952 0)
(0.0058028171 0.0058238639 0)
(-0.0058042963 0.013981897 0)
(-0.013959487 0.013944984 0)
(-0.019221732 0.01394795 0)
(-0.024939749 0.013933245 0)
(-0.030660284 0.0139146 0)
(-0.036385495 0.013891433 0)
(-0.042107758 0.013860645 0)
(-0.047823686 0.013818319 0)
(-0.053532764 0.013760007 0)
(-0.059232331 0.013682542 0)
(-0.064908407 0.013582434 0)
(-0.070554388 0.01345176 0)
(-0.076161643 0.013288494 0)
(-0.081708938 0.013086657 0)
(-0.087179795 0.012840226 0)
(-0.092562059 0.012538903 0)
(-0.097828672 0.012183498 0)
(-0.10294997 0.011763115 0)
(-0.1079036 0.011271304 0)
(-0.11266016 0.010704666 0)
(-0.11717928 0.010058055 0)
(-0.12142464 0.009322726 0)
(-0.12536386 0.0084963598 0)
(-0.12895424 0.0075756784 0)
(-0.13214991 0.006559198 0)
(-0.13490319 0.0054448021 0)
(-0.13717483 0.0042305173 0)
(-0.13892199 0.0029178949 0)
(-0.14009695 0.0015036372 0)
(-0.14067254 -3.2885597e-05 0)
(-0.14062242 -0.0016302734 0)
(-0.13989486 -0.0032575906 0)
(-0.13843693 -0.0049408017 0)
(-0.13622163 -0.0066730295 0)
(-0.13323627 -0.0084406202 0)
(-0.12946812 -0.010227759 0)
(-0.1249102 -0.012017181 0)
(-0.11956279 -0.01378878 0)
(-0.11343546 -0.015524228 0)
(-0.10654905 -0.017204041 0)
(-0.098927166 -0.018806146 0)
(-0.090601665 -0.020312396 0)
(-0.08162013 -0.02170532 0)
(-0.072039968 -0.022967198 0)
(-0.061926518 -0.024079297 0)
(-0.0513398 -0.025026456 0)
(-0.040351803 -0.025800551 0)
(-0.029050395 -0.026387196 0)
(-0.017521703 -0.026780693 0)
(-0.0058590578 -0.026977514 0)
(0.0058539278 -0.02697743 0)
(0.017516441 -0.026780415 0)
(0.029045138 -0.026386809 0)
(0.040346666 -0.025800248 0)
(0.051334854 -0.025026431 0)
(0.061920771 -0.024079112 0)
(0.072033956 -0.022967083 0)
(0.081614656 -0.021705102 0)
(0.090595798 -0.020312163 0)
(0.098920867 -0.0188059 0)
(0.10654245 -0.017203661 0)
(0.11342858 -0.015523704 0)
(0.11955572 -0.013788145 0)
(0.12490309 -0.012016608 0)
(0.12946073 -0.010227588 0)
(0.13322847 -0.0084406286 0)
(0.13621392 -0.0066730872 0)
(0.13842932 -0.0049410122 0)
(0.13988706 -0.0032577893 0)
(0.14061458 -0.0016303455 0)
(0.14066487 -3.3083113e-05 0)
(0.1400894 0.0015031436 0)
(0.13891449 0.0029169481 0)
(0.13716721 0.0042293009 0)
(0.13489541 0.0054434784 0)
(0.13214228 0.0065577289 0)
(0.12894705 0.007574201 0)
(0.12535727 0.008494935 0)
(0.1214186 0.0093212369 0)
(0.11717371 0.010056533 0)
(0.11265468 0.010703183 0)
(0.10789909 0.011270141 0)
(0.10294633 0.011761647 0)
(0.097824917 0.01218181 0)
(0.092558515 0.012536922 0)
(0.087176433 0.012837658 0)
(0.081706162 0.013084719 0)
(0.076159906 0.013286232 0)
(0.070553542 0.013448851 0)
(0.064908354 0.013578702 0)
(0.059232803 0.013677931 0)
(0.053534785 0.013754933 0)
(0.047827671 0.013812105 0)
(0.042111788 0.01385299 0)
(0.036390367 0.013882212 0)
(0.030667707 0.013902563 0)
(0.024945486 0.013917251 0)
(0.019220415 0.013928848 0)
(0.013967292 0.013933542 0)
(0.0058135618 0.013953331 0)
(-0.005815265 0.019280898 0)
(-0.013968043 0.019256133 0)
(-0.019222347 0.019257825 0)
(-0.024951915 0.019249973 0)
(-0.030677052 0.019236686 0)
(-0.036403755 0.019219226 0)
(-0.042134948 0.019193668 0)
(-0.047868982 0.01915382 0)
(-0.053599568 0.019093027 0)
(-0.059319325 0.019007425 0)
(-0.06502603 0.018893612 0)
(-0.070707918 0.018738735 0)
(-0.076351869 0.018541169 0)
(-0.081950262 0.018291536 0)
(-0.087484043 0.017978214 0)
(-0.092926338 0.017590154 0)
(-0.098261561 0.017128334 0)
(-0.10346974 0.016574863 0)
(-0.10851223 0.015921348 0)
(-0.11335613 0.015161108 0)
(-0.1179765 0.014289103 0)
(-0.12233375 0.013290827 0)
(-0.12638269 0.012162964 0)
(-0.13008314 0.01090133 0)
(-0.13339289 0.0095032877 0)
(-0.13626894 0.0079639317 0)
(-0.13866164 0.006279761 0)
(-0.14052285 0.0044569868 0)
(-0.14181763 0.002496569 0)
(-0.14250685 0.00040046991 0)
(-0.14253954 -0.0018142997 0)
(-0.14187441 -0.0041224388 0)
(-0.1404758 -0.0065115432 0)
(-0.13831167 -0.008972846 0)
(-0.13536072 -0.011485452 0)
(-0.13160723 -0.014031206 0)
(-0.12704243 -0.016582783 0)
(-0.12166653 -0.01911451 0)
(-0.1154879 -0.021599465 0)
(-0.10852115 -0.024009352 0)
(-0.10079536 -0.026312058 0)
(-0.09235112 -0.028480377 0)
(-0.083231323 -0.030493416 0)
(-0.073484962 -0.032321628 0)
(-0.063174739 -0.03393731 0)
(-0.052379344 -0.035314533 0)
(-0.041178086 -0.036440911 0)
(-0.029650942 -0.037300811 0)
(-0.017886843 -0.037881949 0)
(-0.005981938 -0.038175935 0)
(0.0059766431 -0.038175891 0)
(0.0178814 -0.037881768 0)
(0.029645368 -0.037300473 0)
(0.041172427 -0.036440607 0)
(0.052373702 -0.035314422 0)
(0.063169062 -0.033937619 0)
(0.073479238 -0.03232141 0)
(0.083225485 -0.030493371 0)
(0.092344954 -0.028480382 0)
(0.10078891 -0.026312055 0)
(0.10851435 -0.024009225 0)
(0.11548082 -0.021599264 0)
(0.12165915 -0.019114207 0)
(0.127035 -0.016582448 0)
(0.13159969 -0.014030991 0)
(0.13535284 -0.011484977 0)
(0.1383037 -0.0089732003 0)
(0.14046777 -0.0065120391 0)
(0.14186636 -0.0041230129 0)
(0.14253161 -0.0018149238 0)
(0.14249891 0.00039988909 0)
(0.14180958 0.002495712 0)
(0.14051493 0.0044558819 0)
(0.13865391 0.0062784244 0)
(0.13626112 0.0079625777 0)
(0.133385 0.0095019494 0)
(0.13007555 0.010899941 0)
(0.12637558 0.012161513 0)
(0.12232717 0.01328919 0)
(0.11797045 0.014287334 0)
(0.11335053 0.015159391 0)
(0.10850683 0.015920004 0)
(0.10346465 0.016572954 0)
(0.098257076 0.017126344 0)
(0.092922175 0.017588338 0)
(0.087480054 0.017975845 0)
(0.081946683 0.018289372 0)
(0.076349017 0.018538802 0)
(0.070705753 0.018735722 0)
(0.065024659 0.018889787 0)
(0.059319324 0.019002951 0)
(0.053600198 0.019088093 0)
(0.047869569 0.0191473 0)
(0.042136783 0.019185886 0)
(0.036406395 0.019210361 0)
(0.030679618 0.019225594 0)
(0.024957082 0.019236761 0)
(0.019226439 0.019245993 0)
(0.013975798 0.019249485 0)
(0.005822338 0.019269397 0)
(-0.0058288366 0.024979208 0)
(-0.013982373 0.024952061 0)
(-0.019226487 0.024950037 0)
(-0.02495796 0.024945588 0)
(-0.030686652 0.024941305 0)
(-0.036422786 0.024928595 0)
(-0.042166212 0.024904531 0)
(-0.047916302 0.024866013 0)
(-0.053670257 0.024805702 0)
(-0.059422066 0.024713946 0)
(-0.065166833 0.024582786 0)
(-0.07089608 0.024405433 0)
(-0.076597821 0.024168664 0)
(-0.082260624 0.023863185 0)
(-0.087869822 0.023479929 0)
(-0.093400481 0.023005643 0)
(-0.098832525 0.022424481 0)
(-0.10414554 0.021729587 0)
(-0.10930612 0.020908829 0)
(-0.11428136 0.019945549 0)
(-0.11903877 0.018829457 0)
(-0.12354036 0.017553881 0)
(-0.12774348 0.016106862 0)
(-0.13160468 0.014480471 0)
(-0.13507884 0.012668085 0)
(-0.13811913 0.010667268 0)
(-0.14067507 0.0084785312 0)
(-0.14269914 0.0061014358 0)
(-0.14414776 0.003539039 0)
(-0.14497729 0.00080923972 0)
(-0.14513792 -0.0020771269 0)
(-0.14458341 -0.005106528 0)
(-0.14327747 -0.0082556139 0)
(-0.14118476 -0.01150387 0)
(-0.13828309 -0.014825386 0)
(-0.13455334 -0.018191346 0)
(-0.12998106 -0.021569055 0)
(-0.1245669 -0.02492366 0)
(-0.11831778 -0.02821824 0)
(-0.11124923 -0.031414939 0)
(-0.10338611 -0.034477618 0)
(-0.094771548 -0.037365862 0)
(-0.085450787 -0.040041167 0)
(-0.075474144 -0.042468269 0)
(-0.064910408 -0.044617544 0)
(-0.053835227 -0.046460001 0)
(-0.042331097 -0.047966178 0)
(-0.030485599 -0.049114889 0)
(-0.018392143 -0.049890352 0)
(-0.0061513507 -0.05028182 0)
(0.0061456852 -0.050281806 0)
(0.018386455 -0.049890324 0)
(0.030479874 -0.049114711 0)
(0.04232523 -0.047965859 0)
(0.053829235 -0.046459556 0)
(0.064904395 -0.044617249 0)
(0.075468123 -0.042467973 0)
(0.085444703 -0.040040936 0)
(0.094765229 -0.037365517 0)
(0.10337952 -0.03447727 0)
(0.11124232 -0.031414473 0)
(0.11831053 -0.028217573 0)
(0.12455937 -0.02492303 0)
(0.12997339 -0.021568265 0)
(0.13454569 -0.018190898 0)
(0.13827437 -0.01482528 0)
(0.1411758 -0.011504138 0)
(0.14326938 -0.0082561337 0)
(0.14457527 -0.0051070271 0)
(0.14512987 -0.0020778327 0)
(0.14496922 0.00080901787 0)
(0.14413953 0.0035384744 0)
(0.14269096 0.0061006001 0)
(0.1406669 0.0084773284 0)
(0.13811091 0.010665761 0)
(0.13507061 0.012666509 0)
(0.13159664 0.014478878 0)
(0.12773568 0.016105124 0)
(0.12353295 0.017551945 0)
(0.11903196 0.018827175 0)
(0.11427494 0.019942971 0)
(0.10929996 0.020906162 0)
(0.10413975 0.021727121 0)
(0.09882735 0.022421941 0)
(0.09339505 0.02300285 0)
(0.087864658 0.023476749 0)
(0.08225655 0.023859978 0)
(0.076594076 0.024165244 0)
(0.070892825 0.024401517 0)
(0.065164492 0.0245782 0)
(0.059420557 0.024708486 0)
(0.053669242 0.024798433 0)
(0.047916237 0.024857777 0)
(0.042166376 0.024898569 0)
(0.036422622 0.024919412 0)
(0.030687811 0.024929446 0)
(0.024960827 0.024935031 0)
(0.019229224 0.024936772 0)
(0.013987633 0.024939589 0)
(0.0058329018 0.024960718 0)
(-0.0058410663 0.03069187 0)
(-0.013993835 0.030670945 0)
(-0.01922545 0.030672276 0)
(-0.024956297 0.03067581 0)
(-0.030688601 0.030680012 0)
(-0.036434119 0.03067894 0)
(-0.042190115 0.030666939 0)
(-0.047959403 0.030637779 0)
(-0.053742384 0.030582769 0)
(-0.059532471 0.030489638 0)
(-0.065324229 0.030353247 0)
(-0.071111385 0.030159745 0)
(-0.076883331 0.029896336 0)
(-0.082628007 0.029549975 0)
(-0.08833044 0.02910725 0)
(-0.093970752 0.02855455 0)
(-0.099526637 0.027871374 0)
(-0.10497435 0.027047166 0)
(-0.11028538 0.026065196 0)
(-0.11542493 0.024906054 0)
(-0.12035775 0.023560087 0)
(-0.12504618 0.022012216 0)
(-0.12944633 0.020249736 0)
(-0.13351262 0.018262521 0)
(-0.13719734 0.016042342 0)
(-0.14045031 0.013584593 0)
(-0.14321984 0.010887946 0)
(-0.14545513 0.0079527012 0)
(-0.14710275 0.0047856059 0)
(-0.1481157 0.0013983834 0)
(-0.14844679 -0.0021881225 0)
(-0.14804305 -0.0059598164 0)
(-0.14686213 -0.0098906036 0)
(-0.14486944 -0.013951818 0)
(-0.14203542 -0.018112941 0)
(-0.13833751 -0.022332844 0)
(-0.13376096 -0.026573031 0)
(-0.12830179 -0.030788227 0)
(-0.12196533 -0.034932844 0)
(-0.11476688 -0.038958951 0)
(-0.106733 -0.042817649 0)
(-0.097902059 -0.04646218 0)
(-0.088321959 -0.049839675 0)
(-0.078050427 -0.052908043 0)
(-0.067156402 -0.055625306 0)
(-0.055718938 -0.057953454 0)
(-0.043825069 -0.059858533 0)
(-0.031568315 -0.061312889 0)
(-0.019048059 -0.062295335 0)
(-0.0063712867 -0.062791526 0)
(0.0063652886 -0.062791476 0)
(0.019042046 -0.062295287 0)
(0.031562341 -0.061312729 0)
(0.043819045 -0.059858265 0)
(0.055712708 -0.057952868 0)
(0.067150041 -0.055624537 0)
(0.078044107 -0.052907129 0)
(0.088315595 -0.049838702 0)
(0.097895485 -0.046461194 0)
(0.10672612 -0.042816528 0)
(0.11475986 -0.038957728 0)
(0.12195781 -0.034931381 0)
(0.12829386 -0.030786972 0)
(0.13375274 -0.026571687 0)
(0.13832878 -0.022331902 0)
(0.14202639 -0.018112725 0)
(0.1448605 -0.013951278 0)
(0.14685364 -0.0098904574 0)
(0.14803459 -0.0059599939 0)
(0.14843891 -0.002188556 0)
(0.14810766 0.0013975248 0)
(0.14709385 0.0047848424 0)
(0.14544627 0.0079518269 0)
(0.14321106 0.010886674 0)
(0.14044157 0.013582908 0)
(0.13718865 0.01604052 0)
(0.13350398 0.018260737 0)
(0.12943781 0.020247827 0)
(0.12503786 0.022010108 0)
(0.12034977 0.02355765 0)
(0.11541754 0.024903072 0)
(0.11027855 0.026062076 0)
(0.10496781 0.027044076 0)
(0.099520245 0.027868086 0)
(0.093964443 0.028550589 0)
(0.088324586 0.029103498 0)
(0.082622908 0.029545899 0)
(0.076878634 0.029891939 0)
(0.071107067 0.030154822 0)
(0.065320514 0.030347769 0)
(0.059529046 0.030483647 0)
(0.053739369 0.030574102 0)
(0.047960321 0.03062847 0)
(0.042189896 0.030656886 0)
(0.036429659 0.030668589 0)
(0.030688834 0.030669123 0)
(0.024959141 0.030664277 0)
(0.01922684 0.030659221 0)
(0.013996628 0.030657948 0)
(0.0058430121 0.03067639 0)
(-0.0058475391 0.036392154 0)
(-0.013996513 0.036376106 0)
(-0.019216322 0.036383041 0)
(-0.024944447 0.036399237 0)
(-0.030676992 0.03641731 0)
(-0.036428415 0.03643384 0)
(-0.042199012 0.036440544 0)
(-0.04799123 0.036428019 0)
(-0.053808404 0.0363866 0)
(-0.059640961 0.036306534 0)
(-0.065485689 0.036175488 0)
(-0.071341584 0.03597866 0)
(-0.077195876 0.03570154 0)
(-0.083037883 0.035328553 0)
(-0.08885334 0.034842193 0)
(-0.094624436 0.034224729 0)
(-0.10032801 0.033456175 0)
(-0.1059399 0.03251737 0)
(-0.11143559 0.031389854 0)
(-0.11677496 0.030053654 0)
(-0.1219213 0.02849009 0)
(-0.12683971 0.026682604 0)
(-0.1314825 0.024615387 0)
(-0.13580178 0.02227542 0)
(-0.13974696 0.019651843 0)
(-0.14326429 0.016737959 0)
(-0.14629826 0.013530875 0)
(-0.14879322 0.01003276 0)
(-0.15069401 0.0062521584 0)
(-0.15194278 0.0021934031 0)
(-0.1524868 -0.0021162716 0)
(-0.15227526 -0.0066552385 0)
(-0.15125763 -0.011395876 0)
(-0.14939426 -0.016303846 0)
(-0.14665052 -0.021338555 0)
(-0.14299927 -0.026454363 0)
(-0.13842194 -0.031600799 0)
(-0.13291211 -0.036721196 0)
(-0.12647404 -0.041765355 0)
(-0.11911987 -0.046669454 0)
(-0.11087567 -0.05137392 0)
(-0.10178059 -0.055818775 0)
(-0.091884383 -0.05994458 0)
(-0.081248363 -0.063695225 0)
(-0.069945345 -0.067018503 0)
(-0.058058945 -0.069867017 0)
(-0.045681979 -0.072199136 0)
(-0.032914774 -0.073980406 0)
(-0.019864048 -0.075184161 0)
(-0.0066449004 -0.0757923 0)
(0.0066386706 -0.07579227 0)
(0.019857752 -0.075184164 0)
(0.032908471 -0.073980244 0)
(0.045675709 -0.072198748 0)
(0.058052601 -0.069866277 0)
(0.069938804 -0.067017399 0)
(0.08124167 -0.063693924 0)
(0.091877422 -0.05994307 0)
(0.10177355 -0.055817211 0)
(0.11086847 -0.05137227 0)
(0.11911252 -0.046667616 0)
(0.12646599 -0.041763706 0)
(0.13290362 -0.036719813 0)
(0.13841312 -0.031598733 0)
(0.14298978 -0.026452652 0)
(0.14664086 -0.021337323 0)
(0.14938477 -0.016302918 0)
(0.15124845 -0.011395372 0)
(0.15226616 -0.0066552729 0)
(0.15247771 -0.0021166262 0)
(0.15193402 0.0021920459 0)
(0.15068535 0.006250762 0)
(0.14878408 0.010031308 0)
(0.14628879 0.013529114 0)
(0.14325491 0.016735872 0)
(0.13973778 0.019649604 0)
(0.13579262 0.022273164 0)
(0.13147321 0.024613088 0)
(0.12683051 0.026680263 0)
(0.12191224 0.028487659 0)
(0.11676642 0.030050967 0)
(0.11142783 0.03138679 0)
(0.10593242 0.032514001 0)
(0.10032041 0.033452574 0)
(0.09461708 0.034220742 0)
(0.088846697 0.034837987 0)
(0.083031886 0.035323883 0)
(0.077190216 0.035696438 0)
(0.071336331 0.035972689 0)
(0.065481499 0.036169351 0)
(0.059635675 0.036299746 0)
(0.053803484 0.03637857 0)
(0.047989148 0.036418999 0)
(0.042197515 0.03642825 0)
(0.036426871 0.036422978 0)
(0.030676766 0.036407479 0)
(0.024945393 0.036386786 0)
(0.019218321 0.03636993 0)
(0.014001208 0.03635994 0)
(0.0058506845 0.036376654 0)
(-0.0058544092 0.042083853 0)
(-0.01399622 0.042067351 0)
(-0.019195631 0.042089068 0)
(-0.024915093 0.042120451 0)
(-0.030646452 0.042159123 0)
(-0.03640258 0.042198472 0)
(-0.042186824 0.042229843 0)
(-0.048003422 0.042242886 0)
(-0.053853213 0.042228268 0)
(-0.059732277 0.042174619 0)
(-0.065640288 0.042062356 0)
(-0.07157308 0.041878578 0)
(-0.077520875 0.04160191 0)
(-0.083474594 0.041219884 0)
(-0.089421374 0.040708054 0)
(-0.095343825 0.040045494 0)
(-0.10122106 0.039209901 0)
(-0.10702783 0.038176133 0)
(-0.11273642 0.036922161 0)
(-0.1183121 0.035427513 0)
(-0.12371638 0.033663741 0)
(-0.12890873 0.031612163 0)
(-0.13384165 0.029253819 0)
(-0.13846463 0.026571492 0)
(-0.14272365 0.02355138 0)
(-0.14656064 0.020184165 0)
(-0.14991488 0.016465197 0)
(-0.15272417 0.01239457 0)
(-0.15493279 0.0079802964 0)
(-0.15647494 0.0032414818 0)
(-0.15728538 -0.0018123981 0)
(-0.15731129 -0.0071499747 0)
(-0.15649813 -0.012735898 0)
(-0.15479851 -0.018530083 0)
(-0.15217161 -0.0244841 0)
(-0.14858487 -0.030543831 0)
(-0.14401267 -0.036648925 0)
(-0.13845112 -0.042736638 0)
(-0.1318985 -0.048737086 0)
(-0.12436076 -0.054578227 0)
(-0.11586816 -0.060187973 0)
(-0.10645921 -0.065493277 0)
(-0.096185667 -0.070422611 0)
(-0.085112422 -0.074907599 0)
(-0.073317127 -0.078884409 0)
(-0.060889362 -0.082295083 0)
(-0.047929019 -0.085088859 0)
(-0.034544595 -0.087223579 0)
(-0.020851909 -0.088666629 0)
(-0.006976194 -0.089395838 0)
(0.0069696577 -0.089395781 0)
(0.020845386 -0.088666561 0)
(0.034538182 -0.087223376 0)
(0.04792258 -0.08508831 0)
(0.060882732 -0.082294313 0)
(0.073310216 -0.078883511 0)
(0.085105333 -0.074906673 0)
(0.096178321 -0.070421456 0)
(0.10645151 -0.065491649 0)
(0.11586038 -0.060186338 0)
(0.12435273 -0.054576496 0)
(0.13188957 -0.048735612 0)
(0.13844263 -0.042735053 0)
(0.14400376 -0.036647412 0)
(0.14857436 -0.030542184 0)
(0.15216098 -0.024482626 0)
(0.15478815 -0.018528952 0)
(0.15648799 -0.01273528 0)
(0.15730134 -0.0071498908 0)
(0.15727556 -0.0018125784 0)
(0.15646527 0.003240668 0)
(0.15492315 0.0079788524 0)
(0.15271425 0.012392675 0)
(0.14990475 0.016463052 0)
(0.1465507 0.020181749 0)
(0.14271387 0.023548641 0)
(0.13845477 0.026568576 0)
(0.13383173 0.029250911 0)
(0.12889887 0.031609362 0)
(0.12370662 0.033661095 0)
(0.11830262 0.035424791 0)
(0.11272746 0.036919056 0)
(0.10701932 0.038172789 0)
(0.10121263 0.039206368 0)
(0.095335534 0.040041758 0)
(0.089413671 0.040703839 0)
(0.083467578 0.041215039 0)
(0.077514016 0.041596978 0)
(0.071567076 0.041871821 0)
(0.065635266 0.042055315 0)
(0.059726603 0.042166585 0)
(0.053847784 0.042220869 0)
(0.047999917 0.042234658 0)
(0.042184636 0.042219981 0)
(0.036400807 0.042187627 0)
(0.030645607 0.042147591 0)
(0.024915576 0.04210738 0)
(0.019194915 0.042074596 0)
(0.013999193 0.042049799 0)
(0.0058587883 0.042064092 0)
(-0.0058613592 0.04775282 0)
(-0.01398371 0.047742095 0)
(-0.019155638 0.047782625 0)
(-0.024866449 0.047834035 0)
(-0.030590512 0.047900323 0)
(-0.03634857 0.047970732 0)
(-0.042144698 0.04803682 0)
(-0.047982226 0.048088226 0)
(-0.053865376 0.048113649 0)
(-0.059794947 0.048096764 0)
(-0.065769193 0.048019673 0)
(-0.071788987 0.047865878 0)
(-0.07784112 0.047613456 0)
(-0.083918068 0.047240788 0)
(-0.090013875 0.04672493 0)
(-0.09610863 0.046040129 0)
(-0.10218342 0.045160045 0)
(-0.10821379 0.044056571 0)
(-0.1141704 0.042699952 0)
(-0.12001966 0.0410664 0)
(-0.1257231 0.039124618 0)
(-0.13123628 0.036847759 0)
(-0.13651 0.034216005 0)
(-0.14149129 0.03120478 0)
(-0.14612165 0.027797561 0)
(-0.1503383 0.023981664 0)
(-0.15407615 0.01975021 0)
(-0.15726692 0.015101933 0)
(-0.1598364 0.010042839 0)
(-0.16172534 0.0045928378 0)
(-0.16286756 -0.0012273789 0)
(-0.16318673 -0.0073943993 0)
(-0.16262456 -0.013869091 0)
(-0.16112828 -0.020597102 0)
(-0.15864935 -0.027523667 0)
(-0.15514866 -0.034586494 0)
(-0.150599 -0.041716581 0)
(-0.14498455 -0.048839057 0)
(-0.13830004 -0.055865978 0)
(-0.1305555 -0.062716884 0)
(-0.12177599 -0.06930476 0)
(-0.11200116 -0.075542027 0)
(-0.10128537 -0.081343187 0)
(-0.089697547 -0.086626259 0)
(-0.077320922 -0.091314491 0)
(-0.064252193 -0.095337824 0)
(-0.050599889 -0.098635444 0)
(-0.036482429 -0.10115627 0)
(-0.022026678 -0.10286093 0)
(-0.0073701323 -0.10372255 0)
(0.0073635382 -0.10372248 0)
(0.022020005 -0.10286068 0)
(0.036475862 -0.10115594 0)
(0.050593189 -0.098634911 0)
(0.064245045 -0.095337132 0)
(0.077313438 -0.091314232 0)
(0.089689906 -0.086625882 0)
(0.10127786 -0.081342558 0)
(0.11199326 -0.075540948 0)
(0.12176764 -0.069303404 0)
(0.13054694 -0.062715766 0)
(0.13829093 -0.055864961 0)
(0.14497513 -0.048837737 0)
(0.15058919 -0.041715974 0)
(0.15513796 -0.034585555 0)
(0.15863804 -0.027522389 0)
(0.16111697 -0.020595921 0)
(0.16261345 -0.013868291 0)
(0.16317605 -0.0073943494 0)
(0.1628568 -0.0012269964 0)
(0.16171453 0.0045927394 0)
(0.15982587 0.010041715 0)
(0.15725632 0.015100237 0)
(0.15406548 0.019748125 0)
(0.15032762 0.023979088 0)
(0.14611111 0.02779445 0)
(0.1414808 0.031201417 0)
(0.1364995 0.034212588 0)
(0.13122591 0.036844042 0)
(0.12571267 0.039121648 0)
(0.12000926 0.041063102 0)
(0.1141606 0.042696298 0)
(0.10820446 0.044053122 0)
(0.10217414 0.045156372 0)
(0.096099459 0.046036134 0)
(0.090005223 0.046720422 0)
(0.083910674 0.047235625 0)
(0.077832998 0.047607595 0)
(0.071781244 0.047859348 0)
(0.065763604 0.048012188 0)
(0.059789335 0.048088738 0)
(0.053860461 0.048105294 0)
(0.047978132 0.048079283 0)
(0.04214109 0.048026547 0)
(0.036345985 0.047959071 0)
(0.030588958 0.047887202 0)
(0.024865758 0.047819653 0)
(0.019155057 0.047766528 0)
(0.013985829 0.047726147 0)
(0.0058638075 0.0477322 0)
(-0.0058623628 0.053394378 0)
(-0.013957907 0.053396585 0)
(-0.019095278 0.05345325 0)
(-0.024788644 0.053532725 0)
(-0.03050049 0.053631886 0)
(-0.03625619 0.053745295 0)
(-0.042058735 0.053859389 0)
(-0.047915333 0.053963077 0)
(-0.053832736 0.054041318 0)
(-0.059813651 0.054077486 0)
(-0.065857943 0.054054204 0)
(-0.071965578 0.053949544 0)
(-0.07813175 0.053744004 0)
(-0.084348556 0.053405689 0)
(-0.090607237 0.052910905 0)
(-0.096893777 0.052230492 0)
(-0.10318961 0.051333293 0)
(-0.1094729 0.05018719 0)
(-0.11571157 0.048758038 0)
(-0.12187249 0.047012304 0)
(-0.12792013 0.044917885 0)
(-0.13380253 0.042442184 0)
(-0.13946994 0.039556373 0)
(-0.14486856 0.036233369 0)
(-0.14993249 0.032451565 0)
(-0.15459414 0.028194077 0)
(-0.15878122 0.023450858 0)
(-0.16241884 0.018219802 0)
(-0.16542989 0.012505123 0)
(-0.16773391 0.0063163197 0)
(-0.16926131 -0.00030959794 0)
(-0.1699405 -0.0073439442 0)
(-0.16968709 -0.014748624 0)
(-0.16843845 -0.02246542 0)
(-0.16614557 -0.030425772 0)
(-0.16276189 -0.038565485 0)
(-0.15824905 -0.046796898 0)
(-0.15258431 -0.055030467 0)
(-0.14576017 -0.063170601 0)
(-0.13778371 -0.071117985 0)
(-0.128678 -0.078770762 0)
(-0.11848295 -0.086025303 0)
(-0.10725589 -0.092780078 0)
(-0.095070376 -0.098938147 0)
(-0.082015907 -0.10440747 0)
(-0.068198033 -0.10910408 0)
(-0.05373565 -0.11295634 0)
(-0.038758542 -0.11590269 0)
(-0.023406902 -0.11789592 0)
(-0.0078330695 -0.11890365 0)
(0.0078264589 -0.11890366 0)
(0.023400208 -0.11789575 0)
(0.038751812 -0.11590238 0)
(0.053728754 -0.11295585 0)
(0.068190153 -0.10910296 0)
(0.082007772 -0.10440724 0)
(0.095062775 -0.098937677 0)
(0.10724842 -0.092779181 0)
(0.11847497 -0.086024365 0)
(0.1286692 -0.078769625 0)
(0.13777442 -0.071116868 0)
(0.14575068 -0.063169593 0)
(0.15257465 -0.055029598 0)
(0.15823889 -0.046796212 0)
(0.16275098 -0.038564699 0)
(0.16613402 -0.030424591 0)
(0.16842652 -0.02246404 0)
(0.16967497 -0.014747355 0)
(0.16992942 -0.0073430563 0)
(0.16925067 -0.00030925055 0)
(0.16772205 0.0063163379 0)
(0.16541789 0.012504473 0)
(0.16240728 0.018218633 0)
(0.15876973 0.023449153 0)
(0.15458261 0.028191764 0)
(0.14992117 0.032448763 0)
(0.14485737 0.036230162 0)
(0.13945845 0.039552832 0)
(0.13379173 0.042438418 0)
(0.12790929 0.044914147 0)
(0.12186086 0.047008691 0)
(0.11570108 0.0487541 0)
(0.10946296 0.050182863 0)
(0.10317933 0.051328764 0)
(0.096883604 0.052225801 0)
(0.090597583 0.0529058 0)
(0.084339722 0.053399745 0)
(0.078123254 0.053736687 0)
(0.07195773 0.053942711 0)
(0.065851387 0.054046146 0)
(0.059807352 0.054068335 0)
(0.053826766 0.054031563 0)
(0.047910599 0.053952285 0)
(0.042054697 0.053847979 0)
(0.036252503 0.053733171 0)
(0.030497963 0.053619156 0)
(0.024787461 0.053518076 0)
(0.019095035 0.053437098 0)
(0.0139592 0.053379432 0)
(0.0058633464 0.053373677 0)
(-0.0058559016 0.059001529 0)
(-0.013915554 0.059017199 0)
(-0.019010195 0.059098859 0)
(-0.024678182 0.059211974 0)
(-0.030367895 0.059353649 0)
(-0.036110563 0.05951833 0)
(-0.041915708 0.059691882 0)
(-0.047788424 0.059860595 0)
(-0.053738391 0.060008564 0)
(-0.059768784 0.060119018 0)
(-0.065883335 0.060171271 0)
(-0.072084743 0.060139055 0)
(-0.078370054 0.060001273 0)
(-0.08473586 0.059726445 0)
(-0.091173402 0.059283028 0)
(-0.09767034 0.058638051 0)
(-0.10421066 0.057756051 0)
(-0.11077287 0.056600373 0)
(-0.11732899 0.05513258 0)
(-0.12384353 0.053305132 0)
(-0.1302769 0.051091259 0)
(-0.13658135 0.048446456 0)
(-0.14270242 0.04533269 0)
(-0.14857986 0.041719907 0)
(-0.15414493 0.03758013 0)
(-0.15932341 0.032891261 0)
(-0.16403532 0.027638989 0)
(-0.16819819 0.021817678 0)
(-0.17172625 0.015431113 0)
(-0.1745277 0.0084953782 0)
(-0.17651607 0.0010316449 0)
(-0.17761314 -0.006925096 0)
(-0.17773208 -0.015315579 0)
(-0.17679047 -0.024084442 0)
(-0.17473366 -0.033158865 0)
(-0.17150349 -0.042454008 0)
(-0.16704742 -0.051873972 0)
(-0.16134158 -0.06131578 0)
(-0.15437108 -0.070668084 0)
(-0.14613952 -0.079814345 0)
(-0.13666766 -0.088633914 0)
(-0.12599538 -0.097006368 0)
(-0.11418368 -0.10481156 0)
(-0.10131098 -0.1119359 0)
(-0.087473359 -0.1182693 0)
(-0.072787859 -0.12371329 0)
(-0.057385515 -0.12818089 0)
(-0.041409105 -0.13159973 0)
(-0.025014752 -0.13391373 0)
(-0.008372508 -0.13508401 0)
(0.0083657013 -0.13508383 0)
(0.025007986 -0.13391351 0)
(0.041402385 -0.13159945 0)
(0.057379 -0.12818024 0)
(0.072779742 -0.12371222 0)
(0.087464503 -0.11826755 0)
(0.1013034 -0.11193415 0)
(0.11417624 -0.10481004 0)
(0.12598716 -0.097004704 0)
(0.13665869 -0.088632205 0)
(0.14613 -0.07981235 0)
(0.15436107 -0.070666106 0)
(0.16133134 -0.061314069 0)
(0.16703696 -0.051872615 0)
(0.17149254 -0.042452734 0)
(0.17472203 -0.033157415 0)
(0.17677824 -0.024082768 0)
(0.17771965 -0.015313924 0)
(0.17760089 -0.0069234336 0)
(0.17650389 0.0010321154 0)
(0.17451538 0.0084953408 0)
(0.17171392 0.015430746 0)
(0.16818588 0.021817111 0)
(0.16402296 0.027637966 0)
(0.1593111 0.032889718 0)
(0.1541328 0.03757811 0)
(0.14856779 0.041717337 0)
(0.14269031 0.045329584 0)
(0.13656946 0.048443185 0)
(0.13026517 0.0510871 0)
(0.12383149 0.053301149 0)
(0.11731715 0.055128371 0)
(0.11076166 0.056595245 0)
(0.10419973 0.057750662 0)
(0.09765949 0.058632536 0)
(0.091162674 0.059277114 0)
(0.084725747 0.059719818 0)
(0.078360808 0.059993793 0)
(0.072076181 0.060131049 0)
(0.065875382 0.060161937 0)
(0.059761666 0.060108724 0)
(0.05373223 0.05999785 0)
(0.047783247 0.059848945 0)
(0.041911642 0.059679336 0)
(0.036107519 0.059505454 0)
(0.030364799 0.059340277 0)
(0.024675403 0.059197054 0)
(0.01900912 0.059082578 0)
(0.013915794 0.058999058 0)
(0.0058561709 0.058981025 0)
(-0.0058431812 0.064563994 0)
(-0.013850527 0.064596248 0)
(-0.018890416 0.064708173 0)
(-0.024523456 0.064862313 0)
(-0.030183349 0.065057819 0)
(-0.035906738 0.065282682 0)
(-0.041704633 0.065528059 0)
(-0.047586155 0.06577741 0)
(-0.053561147 0.06601358 0)
(-0.05963709 0.066218468 0)
(-0.065823428 0.066367547 0)
(-0.072120488 0.066436913 0)
(-0.078528762 0.066396742 0)
(-0.085050724 0.066214584 0)
(-0.091679115 0.065855783 0)
(-0.098403847 0.065283005 0)
(-0.10521012 0.064453823 0)
(-0.11207888 0.063325938 0)
(-0.11898912 0.061855946 0)
(-0.12589591 0.059994266 0)
(-0.13276078 0.057695924 0)
(-0.13954294 0.054915198 0)
(-0.14617833 0.05160716 0)
(-0.15260307 0.047732489 0)
(-0.15874329 0.043256639 0)
(-0.16451783 0.038150715 0)
(-0.16983781 0.032394774 0)
(-0.17461043 0.025979684 0)
(-0.17873682 0.018907849 0)
(-0.18211968 0.011184628 0)
(-0.18466974 0.0028473415 0)
(-0.18627497 -0.0060667235 0)
(-0.18683241 -0.015506153 0)