/*--------------------------------*- C++ -*----------------------------------*\
  =========                 |
  \\      /  F ield         | OpenFOAM: The Open Source CFD Toolbox
   \\    /   O peration     | Website:  https://openfoam.org
    \\  /    A nd           | Version:  9
     \\/     M anipulation  |
\*---------------------------------------------------------------------------*/
FoamFile
{
    format      ascii;
    class       surfaceScalarField;
    location    "0.78";
    object      alphaPhi0.phase1;
}
// * * * * * * * * * * * * * * * * * * * * * * * * * * * * * * * * * * * * * //

dimensions      [0 3 -1 0 0 0 0];

internalField   nonuniform List<scalar> 
19800
(
-1.2433628e-87
7.1162548e-88
-2.113836e-86
2.7258549e-87
-5.0231748e-85
1.2804806e-85
-7.9541692e-85
5.8184122e-85
-5.071867e-85
6.5441978e-85
-1.3525495e-85
2.3308013e-85
-1.582526e-85
7.9065118e-86
-1.8115575e-85
8.0164469e-86
-1.9739079e-84
3.8716699e-85
-2.7826078e-82
4.9614279e-83
-3.4632799e-80
5.7192807e-81
-3.8362829e-78
5.8846542e-79
-3.833851e-76
5.4758421e-77
-3.4779221e-74
4.6408619e-75
-2.8774981e-72
3.5945973e-73
-2.1828362e-70
2.5546843e-71
-1.525928e-68
1.6730717e-69
-9.8738819e-67
1.0135149e-67
-5.9374662e-65
5.6987787e-66
-3.3302921e-63
2.9832518e-64
-1.748252e-61
1.4582925e-62
-8.6026179e-60
6.676335e-61
-3.9619143e-58
2.8691954e-59
-1.7170402e-56
1.1619964e-57
-7.2287357e-55
4.4917889e-56
-3.0440727e-53
1.6867632e-54
-1.188635e-51
6.0447079e-53
-3.7047932e-50
1.9058171e-51
-9.4710555e-49
5.08397e-50
-2.5429375e-47
1.3105015e-48
-8.3443598e-46
3.9790657e-47
-3.1028824e-44
1.4327858e-45
-1.1937691e-42
5.5103272e-44
-4.6524552e-41
2.183781e-42
-1.8493422e-39
8.9809433e-41
-7.6347652e-38
3.8512553e-39
-3.3536797e-36
1.7350176e-37
-1.5952065e-34
8.2590629e-36
-8.1969899e-33
4.115764e-34
-4.4509414e-31
2.0834248e-32
-2.4788022e-29
1.020039e-30
-1.377434e-27
4.48849e-29
-7.5065301e-26
1.4889211e-27
-4.126948e-24
1.0514126e-27
-2.1550587e-22
-1.2114391e-23
-1.0154409e-20
-1.556978e-21
-4.3241152e-19
-1.3903655e-19
-1.1269236e-17
-6.8789436e-18
-1.9147512e-16
-5.5289293e-18
-6.5030354e-16
-2.6864055e-15
1.1569989e-14
-5.1735968e-14
1.1249151e-13
-3.9097537e-13
5.3813107e-13
-1.4337268e-12
1.5159689e-12
-4.3035019e-12
2.9774159e-12
-6.504913e-12
1.8899892e-12
-3.5229806e-12
5.5225469e-13
-1.2764105e-13
1.8079061e-13
0
6.7204133e-14
0
2.6984656e-14
0
8.8954763e-15
1.6921986e-15
1.7751638e-15
1.347681e-15
2.1961507e-16
1.5181098e-16
1.7278008e-17
1.5275236e-17
1.1105469e-18
1.5184559e-18
6.4838975e-20
1.2376694e-19
3.3682381e-21
8.5481812e-21
1.5288914e-22
5.0407478e-22
6.066383e-24
2.5474528e-23
2.1148661e-25
1.1099869e-24
6.5060623e-27
4.1951534e-26
1.7707885e-28
1.3818157e-27
4.2678555e-30
3.9802699e-29
9.1024738e-32
1.0051436e-30
1.7145411e-33
2.2292992e-32
2.8433863e-35
4.3464147e-34
4.1354725e-37
7.4480906e-36
5.2510282e-39
1.1202932e-37
5.7915816e-41
1.4754497e-39
5.5180946e-43
1.696205e-41
4.5153083e-45
1.6957672e-43
3.1540241e-47
1.4684018e-45
1.8688871e-49
1.097158e-47
9.3308649e-52
7.0487112e-50
3.8958719e-54
3.8823433e-52
1.3471176e-56
1.8296338e-54
3.8015831e-59
7.3661793e-57
8.5171685e-62
2.5287e-59
1.420727e-64
7.3762607e-62
1.426283e-67
1.8168649e-64
-3.1795289e-71
3.7421315e-67
-4.5684886e-73
6.415552e-70
-1.0774683e-75
9.471617e-73
-1.588488e-78
1.1179716e-75
-1.7019623e-81
1.0509617e-78
-1.690275e-84
7.89032e-82
-2.8271746e-85
6.7507603e-85
-2.4546688e-85
1.401327e-85
-1.974035e-85
9.3313366e-86
5.0811126e-86
-6.4420351e-88
9.3646982e-88
-1.7139163e-85
6.7421409e-86
-3.5693713e-84
2.4477917e-84
-7.4198204e-84
1.1181986e-83
-8.0529918e-84
1.4600217e-83
-5.640074e-84
1.1324918e-83
-2.5234175e-84
6.2209122e-84
-2.9826765e-84
3.1299843e-84
-5.9098413e-83
2.7832136e-83
-9.0585077e-81
3.9335148e-81
-1.2080285e-78
4.8316404e-79
-1.4279015e-76
5.2846013e-77
-1.5117787e-74
5.1941598e-75
-1.4460706e-72
4.6223096e-73
-1.2587896e-70
3.7481767e-71
-1.0034233e-68
2.7842136e-69
-7.3642377e-67
1.9035205e-67
-4.9996556e-65
1.2026989e-65
-3.1534929e-63
7.0493008e-64
-1.8552157e-61
3.8457268e-62
-1.0212988e-59
1.9592427e-60
-5.2696575e-58
9.3509529e-59
-2.5534749e-56
4.194491e-57
-1.1740072e-54
1.779034e-55
-5.2108857e-53
7.2108462e-54
-2.2123756e-51
2.8059271e-52
-8.5191977e-50
1.0288172e-50
-2.9198293e-48
3.4804922e-49
-9.6728582e-47
1.1273195e-47
-3.3853895e-45
3.8106031e-46
-1.2478796e-43
1.393899e-44
-4.6542629e-42
5.34137e-43
-1.7305784e-40
2.0875886e-41
-6.4465494e-39
8.3041475e-40
-2.4349802e-37
3.3845747e-38
-9.5348891e-36
1.4263202e-36
-4.0113647e-34
6.3266217e-35
-1.8717999e-32
3.0133276e-33
-9.6737732e-31
1.5399127e-31
-5.3453176e-29
8.150852e-30
-3.0263978e-27
4.2379127e-28
-1.6973065e-25
2.0387741e-26
-9.224774e-24
8.3324314e-25
-4.8244318e-22
2.247297e-23
-2.5111226e-20
-4.0661591e-22
-1.2246511e-18
-1.9603713e-19
-4.5355738e-17
-1.2213491e-17
-1.4373188e-15
-3.6921509e-17
-2.2833666e-14
0
-1.3591929e-13
0
1.7268809e-13
-6.1402937e-13
3.2102412e-12
-4.319225e-12
1.5061498e-11
-1.6340939e-11
3.7355976e-11
-3.0893074e-11
8.3498932e-11
-6.4302215e-11
6.8705633e-11
0
2.953417e-11
0
9.4252405e-12
0
3.2138774e-12
0
1.2218165e-12
0
3.1691128e-13
3.9367992e-13
6.5566745e-14
2.9483688e-13
1.6122292e-14
2.1511565e-14
1.4587545e-15
2.5172882e-15
7.7748932e-17
2.7923258e-16
3.7133563e-18
2.1216324e-17
1.6310838e-19
1.2616623e-18
6.3135228e-21
6.2741494e-20
2.1347716e-22
2.6596498e-21
6.3357532e-24
9.7227247e-23
1.6616675e-25
3.0911704e-24
3.8701924e-27
8.6037901e-26
8.0231235e-29
2.1075412e-27
1.4802676e-30
4.5599248e-29
2.425768e-32
8.7314548e-31
3.5186511e-34
1.4802611e-32
4.4982744e-36
2.2197139e-34
5.0441108e-38
2.9382064e-36
4.9361447e-40
3.4236228e-38
4.1929782e-42
3.5006007e-40
3.0745392e-44
3.1301758e-42
1.9346859e-46
2.4395889e-44
1.0378978e-48
1.6521941e-46
4.7086357e-51
9.6952736e-49
1.7861728e-53
4.9153267e-51
5.5640084e-56
2.1457009e-53
1.3780361e-58
8.0264373e-56
2.5266426e-61
2.5554071e-58
2.7024032e-64
6.8587508e-61
-1.1429893e-67
1.5348456e-63
-1.2544206e-69
2.8754879e-66
-3.2852782e-72
4.6655835e-69
-5.6815439e-75
6.0908129e-72
-7.6183471e-78
6.5497263e-75
-8.3105359e-81
5.9556703e-78
-7.4193093e-84
4.5150666e-81
-6.8340665e-84
5.8187125e-84
-1.2625245e-79
4.8019681e-83
-2.0230765e-76
4.339162e-80
-2.4789265e-76
-8.6407018e-85
1.5786667e-84
-2.0672217e-82
1.1448077e-82
-2.7559776e-81
2.9114328e-81
-4.7109103e-81
1.0103197e-80
-4.9714345e-81
1.178914e-80
-3.3112546e-81
8.443326e-81
-1.4168479e-81
4.3977652e-81
-1.6525368e-81
2.1727591e-81
-2.5949171e-80
1.4766027e-80
-4.1137232e-78
2.155098e-78
-5.6358304e-76
2.7100128e-76
-6.8172224e-74
3.0214648e-74
-7.3629389e-72
3.0171612e-72
-7.16471e-70
2.7196683e-70
-6.3284393e-68
2.2274441e-68
-5.1064063e-66
1.6668664e-66
-3.7840068e-64
1.1447308e-64
-2.5871657e-62
7.2445133e-63
-1.6387828e-60
4.239524e-61
-9.6543824e-59
2.3013087e-59
-5.3034024e-57
1.162127e-57
-2.7111858e-55
5.4716253e-56
-1.287307e-53
2.4079828e-54
-5.8291248e-52
1.0010481e-52
-2.6894744e-50
4.0406001e-51
-1.2493836e-48
1.6014487e-49
-4.6941962e-47
5.7124518e-48
-1.1924887e-45
1.5838683e-46
-2.447978e-44
3.4915551e-45
-5.849834e-43
7.9634351e-44
-1.8140086e-41
2.372254e-42
-6.2726112e-40
8.5281544e-41
-2.1900025e-38
3.2256725e-39
-7.6011749e-37
1.233986e-37
-2.626629e-35
4.7510813e-36
-9.1280176e-34
1.8471046e-34
-3.3526543e-32
7.4098123e-33
-1.4137048e-30
3.2388792e-31
-7.0448709e-29
1.6009517e-29
-3.9189473e-27
8.6260375e-28
-2.2593369e-25
4.6756216e-26
-1.2846454e-23
2.3854674e-24
-7.0012241e-22
1.0799846e-22
-3.6774508e-20
3.9076781e-21
-2.020643e-18
7.6575039e-20
-7.4423573e-17
-4.0483881e-18
-7.4363634e-16
-2.7480355e-17
-3.4756675e-14
-5.3416117e-15
-2.244136e-12
0
-1.2573699e-11
0
-2.1647523e-12
-2.4845421e-11
1.3080286e-10
-1.7397658e-10
6.6472248e-10
-6.6242665e-10
2.1879653e-09
-4.4673728e-09
6.8503556e-09
-2.5716236e-08
5.6840414e-09
-2.1870513e-08
1.6109413e-09
-4.1370245e-09
6.7625379e-10
-1.4660901e-09
2.5505779e-10
-7.6187193e-10
1.1549745e-11
1.3764026e-10
8.1250861e-12
7.7533629e-11
6.3290453e-12
1.2301777e-11
6.5142452e-14
6.7460397e-13
3.7425979e-15
5.7383693e-14
6.7177124e-16
2.0586346e-15
1.0545457e-16
2.016699e-16
6.5745392e-18
2.1247742e-17
1.8497066e-19
2.0496772e-18
5.071443e-21
8.4190641e-20
1.4224643e-22
2.8695553e-21
3.5985209e-24
8.6709217e-23
7.9505449e-26
2.2937658e-24
1.5473527e-27
5.3177324e-26
2.6677829e-29
1.0846862e-27
4.0726931e-31
1.9528271e-29
5.4929414e-33
3.1075157e-31
6.5260188e-35
4.3711513e-33
6.805883e-37
5.4306271e-35
6.2046844e-39
5.9501085e-37
4.9212612e-41
5.7378119e-39
3.3767414e-43
4.8578739e-41
1.9905189e-45
3.6004143e-43
9.9870801e-48
2.3280144e-45
4.2089075e-50
1.3076905e-47
1.4595935e-52
6.3472457e-50
4.0192198e-55
2.6440578e-52
8.1450445e-58
9.374613e-55
9.3986627e-61
2.8028729e-57
-6.0364632e-64
7.0228586e-60
-6.254424e-66
1.4917786e-62
-1.8820883e-68
2.7651678e-65
-3.909589e-71
4.2436636e-68
-6.5710716e-74
5.5450748e-71
-9.2915714e-77
6.3194793e-74
-8.2278779e-80
6.116476e-77
-3.0478005e-80
5.0283548e-80
-1.4560215e-79
4.4418216e-80
-6.0513663e-75
8.3300163e-78
-4.4908173e-72
-9.2502405e-74
-6.0883283e-72
-7.7671363e-82
9.9373629e-82
-1.4505767e-79
1.0294243e-79
-1.3535273e-78
1.9585713e-78
-2.0617854e-78
5.5063068e-78
-2.1546716e-78
6.0479183e-78
-1.4009988e-78
4.2431435e-78
-5.8588175e-79
2.1581133e-78
-6.7966425e-79
1.0473986e-78
-9.5157532e-78
6.2670214e-78
-1.5704045e-75
9.520789e-76
-2.22449e-73
1.2359757e-73
-2.7699058e-71
1.41579e-71
-3.069203e-69
1.4470543e-69
-3.055877e-67
1.3311218e-67
-2.7557806e-65
1.10984e-65
-2.2658243e-63
8.435613e-64
-1.7080181e-61
5.8725819e-62
-1.1860378e-59
3.7599353e-60
-7.6190669e-58
2.2219863e-58
-4.5470479e-56
1.2161163e-56
-2.5280331e-54
6.1827673e-55
-1.3044239e-52
2.9265908e-53
-6.2043463e-51
1.2929593e-51
-2.8156486e-49
5.4133251e-50
-1.3773086e-47
2.2484567e-48
-7.6135262e-46
9.6337263e-47
-3.3369161e-44
3.7540426e-45
-7.6074933e-43
9.849221e-44
-9.9188209e-42
1.5938982e-42
-1.2856881e-40
2.1636254e-41
-2.6785513e-39
4.1064014e-40
-8.0957899e-38
1.2556137e-38
-2.6742957e-36
4.5678421e-37
-8.9178491e-35
1.7076748e-35
-2.9436994e-33
6.3571308e-34
-9.18425e-32
2.2980085e-32
-2.7225635e-30
7.9530077e-31
-9.0243052e-29
2.8394333e-29
-3.9569663e-27
1.2194031e-27
-2.1665882e-25
6.4110238e-26
-1.274085e-23
3.5973789e-24
-7.3769855e-22
1.9338371e-22
-4.2348987e-20
9.4043418e-21
-2.7981501e-18
3.9514494e-19
-8.1356601e-17
1.2115159e-17
-5.9887235e-17
2.9837783e-16
-1.3814471e-14
-1.1863875e-15
-4.7800053e-12
0
-1.265624e-10
0
-4.79687e-10
-6.1032436e-10
1.1162773e-09
-1.7486913e-08
1.1695432e-08
-3.5245739e-08
5.5055282e-08
-1.2606585e-07
1.2453707e-07
-1.0776812e-07
1.2823012e-07
-8.7011767e-08
7.9237664e-08
-7.5011129e-08
9.654578e-09
-4.8295218e-08
2.838864e-10
-4.0922958e-09
1.3885498e-08
-2.7333511e-10
7.2333657e-09
1.6454239e-08
1.0751259e-09
8.7611007e-09
3.5683619e-11
1.0615137e-09
3.3823048e-12
3.3554215e-11
1.1488322e-13
3.3537784e-12
5.637248e-15
1.1090412e-13
1.7637579e-16
5.7668856e-15
1.1540617e-17
2.0184706e-16
6.3954054e-18
1.0563881e-17
3.5083114e-19
2.3505365e-18
3.9920845e-21
9.6570471e-20
6.3380987e-23
2.1559541e-21
1.2531364e-24
4.9003847e-23
2.2544482e-26
1.025135e-24
3.5249409e-28
1.8924314e-26
4.8631265e-30
3.0782446e-28
5.9476238e-32
4.4312358e-30
6.4352295e-34
5.6569867e-32
6.1431486e-36
6.409885e-34
5.1544055e-38
6.4476611e-36
3.7802338e-40
5.7532005e-38
2.404898e-42
4.5444012e-40
1.31276e-44
3.1662434e-42
6.0537577e-47
1.9348858e-44
2.3044594e-49
1.0289545e-46
6.9605422e-52
4.7183567e-49
1.5331536e-54
1.8497178e-51
1.7912974e-57
6.1621423e-54
-2.4723848e-60
1.7528752e-56
-2.1686185e-62
4.3520594e-59
-7.6374027e-65
9.6100794e-62
-1.9723207e-67
1.8216454e-64
-4.3065672e-70
3.0390433e-67
-8.3840271e-73
4.5750095e-70
-1.3998792e-75
6.1893181e-73
-2.6428835e-77
7.0448588e-76
-4.0828434e-77
1.5815437e-77
-1.5030335e-73
2.9003419e-75
-7.8748631e-71
-8.1751733e-72
-2.2139928e-68
-1.1777172e-69
-4.1048453e-68
-3.8424962e-79
4.4399019e-79
-6.331128e-77
5.3156269e-77
-4.9054466e-76
8.8237105e-76
-6.9497187e-76
2.2121489e-75
-7.2308711e-76
2.3385789e-75
-4.6388453e-76
1.6245364e-75
-1.9086375e-76
8.1419489e-76
-2.2069936e-76
3.9005265e-76
-2.8296422e-75
2.1097561e-75
-4.9141099e-73
3.3763322e-73
-7.25089e-71
4.5629626e-71
-9.3436303e-69
5.4025108e-69
-1.0664345e-66
5.6780954e-67
-1.0898355e-64
5.35034e-65
-1.005907e-62
4.5552361e-63
-8.4450939e-61
3.5259326e-61
-6.487371e-59
2.4939563e-59
-4.5824543e-57
1.6188369e-57
-2.9893671e-55
9.6776328e-56
-1.8088975e-53
5.3470879e-54
-1.0185564e-51
2.7392228e-52
-5.3186706e-50
1.3043444e-50
-2.5537725e-48
5.7902497e-49
-1.1622654e-46
2.4334799e-47
-5.7471865e-45
1.0197302e-45
-3.4544047e-43
4.5216737e-44
-1.7851221e-41
1.9057664e-42
-4.4714342e-40
5.2841091e-41
-5.0954843e-39
7.8547106e-40
-4.1658027e-38
7.8008993e-39
-4.7167373e-37
8.673371e-38
-9.9959063e-36
1.7668272e-36
-2.9235163e-34
5.6701395e-35
-9.4325649e-33
2.0781501e-33
-3.219484e-31
7.8669236e-32
-1.0293288e-29
2.8819387e-30
-2.5708697e-28
9.1250153e-29
-5.6415693e-27
2.4442617e-27
-1.6971838e-25
7.2515499e-26
-8.2309749e-24
3.2129395e-24
-4.8684721e-22
1.8077785e-22
-3.070002e-20
1.022656e-20
-2.3027064e-18
5.3680238e-19
-6.9842026e-17
2.2552845e-17
-9.5292084e-16
9.2133971e-16
-8.3073277e-14
6.3340602e-14
-1.873736e-12
1.0145037e-12
-2.231719e-11
-4.8641734e-12
-6.1246358e-09
-1.5019132e-08
5.4516592e-09
-1.1385629e-07
4.4249455e-08
-1.0525823e-07
6.8430335e-08
-8.2067916e-08
1.1295874e-07
-1.453509e-07
1.4711373e-07
-1.165694e-07
1.7981933e-07
-1.0264873e-07
1.8429801e-07
-7.4841038e-08
6.4698662e-08
-3.8194268e-08
3.1903471e-08
-1.2979788e-09
3.1741522e-08
-1.2468098e-10
3.5711275e-07
4.4081516e-08
2.4659224e-07
1.4995855e-07
5.761498e-08
1.0348633e-07
2.8997244e-09
4.8784916e-08
6.3349467e-11
2.8403182e-09
2.714526e-12
6.077489e-11
7.8082511e-14
2.6436476e-12
1.158514e-15
7.7257788e-14
4.8361181e-17
1.2911386e-15
4.0366313e-18
4.4387843e-17
4.5791089e-20
1.5100548e-18
7.6278223e-22
3.4868178e-20
1.3055366e-23
7.1139143e-22
2.0088036e-25
1.2903573e-23
2.7203331e-27
2.061298e-25
3.2526728e-29
2.8985237e-27
3.4571652e-31
3.6027344e-29
3.2783878e-33
3.978851e-31
2.7778259e-35
3.9193039e-33
2.1010732e-37
3.4477034e-35
1.4111326e-39
2.7002803e-37
8.3171412e-42
1.8661251e-39
4.2135345e-44
1.1228596e-41
1.7726067e-46
5.8631924e-44
5.8434123e-49
2.8474696e-46
1.3448357e-51
1.2891582e-48
1.2306844e-54
5.4258854e-51
-6.2044024e-57
2.009911e-53
-4.6298095e-59
6.4359458e-56
-1.9682397e-61
1.8216515e-58
-6.5945918e-64
4.5536136e-61
-1.879153e-66
1.0258585e-63
-4.6620158e-69
2.0701108e-66
-1.0112294e-71
3.6520258e-69
-1.3587819e-74
5.3494972e-72
-1.1643113e-74
8.9624738e-75
-1.4349582e-72
1.7180651e-73
-2.8012121e-69
-8.3161358e-71
-4.6134135e-67
-9.1178883e-68
-5.7075374e-65
-6.4490805e-66
-1.3057469e-64
-1.2947801e-76
1.5055243e-76
-2.008064e-74
1.9259154e-74
-1.4053951e-73
2.9825187e-73
-1.9007067e-73
7.0057305e-73
-1.9761782e-73
7.2303454e-73
-1.2604455e-73
4.9993001e-73
-5.0895933e-74
2.4842373e-73
-5.8664956e-74
1.1710131e-73
-6.8005105e-73
5.6295622e-73
-1.2634545e-70
9.6703385e-71
-1.96194e-68
1.3763487e-68
-2.6339567e-66
1.6969598e-66
-3.1108277e-64
1.8435165e-64
-3.2733222e-62
1.7858379e-62
-3.0986584e-60
1.5563773e-60
-2.6594399e-58
1.2287046e-58
-2.0826114e-56
8.836327e-57
-1.4958975e-54
5.8141898e-55
-9.9004935e-53
3.5133942e-53
-6.0641954e-51
1.9562224e-51
-3.4487989e-49
1.0067976e-49
-1.8160321e-47
4.7998779e-48
-8.7901719e-46
2.1254703e-46
-4.0124863e-44
8.8651072e-45
-1.9409219e-42
3.6480049e-43
-1.1176588e-40
1.5690433e-41
-5.9835206e-39
6.5500792e-40
-1.7468177e-37
1.9277224e-38
-2.3325472e-36
3.1276607e-37
-1.8359392e-35
3.1031098e-36
-1.3509748e-34
2.6772326e-35
-1.5069547e-33
3.1448455e-34
-3.0161474e-32
6.6882769e-33
-8.664152e-31
2.1880264e-31
-3.106933e-29
8.5377037e-30
-1.180665e-27
3.4524404e-28
-3.0907598e-26
1.1559262e-26
-4.6873276e-25
2.5599858e-25
-6.8607716e-24
4.3696677e-24
-2.0283234e-22
1.0959953e-22
-1.1588873e-20
5.245812e-21
-9.758729e-19
3.04288e-19
-3.2695001e-17
1.5377761e-17
-4.3093449e-16
6.385796e-16
-4.5054975e-14
3.589801e-14
-2.1457156e-12
1.716972e-12
-4.4370279e-11
2.6938516e-11
-1.1933863e-08
-2.1954203e-09
-9.6337979e-09
-1.1892669e-07
3.0749241e-08
-1.4968504e-07
5.5998412e-08
-1.2851794e-07
7.9107517e-08
-1.0221977e-07
7.2072069e-08
-2.4994044e-08
7.1538771e-08
-9.2488761e-09
6.681625e-08
-1.2667607e-08
4.1263407e-08
-9.419842e-09
8.2356791e-09
-2.8931e-09
7.7455694e-09
-1.007408e-09
7.6135373e-09
-1.4074385e-10
3.8744513e-07
2.0389819e-08
4.168875e-07
1.2348307e-07
3.150823e-07
2.1623259e-07
1.0109592e-07
2.0448184e-07
1.6089917e-09
6.7485532e-08
6.187824e-11
1.5545832e-09
2.1698786e-12
6.0849978e-11
6.1613139e-14
2.1238054e-12
1.6719899e-15
5.9080049e-14
4.2196897e-17
1.601031e-15
9.4468117e-19
4.1435322e-17
1.6329389e-20
9.2426592e-19
2.2656263e-22
1.6378558e-20
2.8040641e-24
2.4738891e-22
3.0317898e-26
3.2570692e-24
2.8180527e-28
3.7134813e-26
2.246003e-30
3.6593526e-28
1.5372128e-32
3.1174559e-30
9.0688503e-35
2.2959968e-32
4.6572936e-37
1.4632385e-34
2.1187765e-39
8.1108705e-37
8.6925033e-42
3.9641721e-39
3.2198735e-44
1.7515741e-41
1.0385205e-46
7.3175345e-44
2.4904486e-49
3.218935e-46
-8.7551492e-54
1.5269472e-48
-5.6032165e-54
7.6845468e-51
-4.8211453e-56
3.9330159e-53
-2.7269927e-58
1.7053353e-55
-1.1473124e-60
6.0958926e-58
-3.943017e-63
1.7687078e-60
-1.1847967e-65
4.3431589e-63
-3.1052912e-68
9.3611308e-66
-4.4453842e-71
1.6877041e-68
-1.6219725e-71
2.4555137e-71
-2.6985978e-71
7.7987436e-72
-3.4722111e-68
5.4659564e-70
-1.5924573e-65
-1.6836657e-66
-1.4125341e-63
-4.1589889e-64
-9.2899813e-62
-1.7831994e-62
-2.4434327e-61
-3.3374884e-74
4.1089115e-74
-5.0385362e-72
5.413189e-72
-3.3302177e-71
8.0869319e-71
-4.3734875e-71
1.8278978e-70
-4.5504182e-71
1.8577106e-70
-2.9080383e-71
1.2831482e-70
-1.1328835e-71
6.3529084e-71
-1.3017963e-71
2.901104e-71
-1.3096073e-70
1.1786858e-70
-2.6799743e-68
2.2482043e-68
-4.4539521e-66
3.4356205e-66
-6.2940244e-64
4.4620063e-64
-7.7438785e-62
5.0477397e-62
-8.4284777e-60
5.0524681e-60
-8.209843e-58
4.523817e-58
-7.2198559e-56
3.6522928e-56
-5.7729115e-54
2.6754839e-54
-4.2206015e-52
1.7865803e-52
-2.8350811e-50
1.0917481e-50
-1.7575638e-48
6.1247888e-49
-1.0086037e-46
3.1629541e-47
-5.3446599e-45
1.5061815e-45
-2.6035519e-43
6.6269714e-44
-1.1964925e-41
2.727611e-42
-5.6748494e-40
1.0909756e-40
-2.9673501e-38
4.4128075e-39
-1.4376009e-36
1.6947485e-37
-4.6186181e-35
4.9664488e-36
-8.4094113e-34
9.3228628e-35
-8.8651915e-33
1.1385423e-33
-6.0862281e-32
1.0279665e-32
-3.7184627e-31
8.4616737e-32
-3.5087387e-30
9.2155239e-31
-7.0831231e-29
2.0377125e-29
-2.4977508e-27
7.7958222e-28
-1.1491904e-25
3.5606799e-26
-3.6997027e-24
1.3812287e-24
-5.1512663e-23
2.9990198e-23
-3.9468413e-22
3.4975337e-22
-4.1429028e-21
3.5634626e-21
-1.547367e-19
8.1493636e-20
-7.6693253e-18
3.7057542e-18
-1.6543086e-16
1.3732141e-16
-6.6583537e-15
6.4143168e-15
-3.8524456e-13
3.7527081e-13
-1.568674e-11
1.5228302e-11
-1.7947152e-10
1.2936908e-10
-2.7033139e-08
-4.2993897e-08
1.0952221e-08
-1.5111427e-07
1.7295413e-08
-1.402546e-07
5.2972035e-09
-6.4033653e-09
1.2730961e-08
-1.9082901e-08
3.5283309e-09
-1.6441322e-08
3.3575679e-09
-1.1351116e-08
4.205931e-09
-1.4858937e-08
3.9964132e-09
-9.7071316e-09
3.8071137e-09
-2.9032118e-09
3.9408109e-09
-1.3132517e-09
3.798563e-09
-1.6811731e-10
2.2195545e-08
1.8234595e-09
2.6991076e-07
2.6568536e-08
3.8687751e-07
1.5033959e-07
2.7168599e-07
3.5005197e-07
1.8913099e-08
2.1248347e-07
2.7918499e-10
1.6950016e-08
8.8498939e-12
3.2067554e-10
2.5030298e-13
1.0411595e-11
5.8430368e-15
2.962688e-13
1.3611584e-16
7.1729679e-15
3.438282e-18
1.7369423e-16
6.2471938e-20
3.9797688e-18
8.2473201e-22
7.1485779e-20
9.7656738e-24
1.050507e-21
1.0500133e-25
1.36435e-23
1.0003014e-27
1.580376e-25
8.4123141e-30
1.6356581e-27
6.2732564e-32
1.5227673e-29
4.1414592e-34
1.2821896e-31
2.3984677e-36
9.7787392e-34
1.1953562e-38
6.7424996e-36
4.9232266e-41
4.1810301e-38
1.525516e-43
2.3134052e-40
2.4560832e-46
1.1357946e-42
-9.6190561e-49
5.105081e-45
-1.4043651e-50
2.1902837e-47
-9.8538801e-53
9.3425971e-50
-4.4967829e-55
3.4637644e-52
-1.7018724e-57
9.9932619e-55
-5.9854294e-60
2.5710283e-57
-1.8434672e-62
6.375808e-60
-4.9982569e-65
1.4146898e-62
-1.0820276e-67
2.6989422e-65
-1.298311e-69
4.491668e-68
-1.5472459e-69
8.2815529e-70
-3.4066069e-67
3.4876981e-68
-2.300697e-64
-1.0418411e-65
-4.3979993e-62
-8.7672884e-63
-2.6488574e-60
-9.8342786e-61
-1.0474271e-58
-3.0273227e-59
-3.0407829e-58
-6.9692904e-72
9.4085398e-72
-1.0466692e-69
1.2433157e-69
-6.7175476e-69
1.829613e-68
-8.6666343e-69
4.0498348e-68
-9.0430647e-69
4.0770173e-68
-5.9011049e-69
2.8236491e-68
-2.302728e-69
1.4053855e-68
-1.9687839e-69
5.7585331e-69
-1.9039992e-68
1.8034207e-68
-4.5458013e-66
4.0966661e-66
-8.3326583e-64
6.9723682e-64
-1.2599594e-61
9.7196341e-62
-1.6314014e-59
1.1579386e-59
-1.8493447e-57
1.2065719e-57
-1.8625241e-55
1.115716e-55
-1.6842831e-53
9.2473428e-54
-1.3786736e-51
6.9195709e-52
-1.0279698e-49
4.6994372e-50
-7.018571e-48
2.9087011e-48
-4.4086264e-46
1.6459527e-46
-2.5550211e-44
8.5353562e-45
-1.3631582e-42
4.0603961e-43
-6.6858487e-41
1.7743986e-41
-3.1007165e-39
7.2005172e-40
-1.45329e-37
2.7953837e-38
-6.9343444e-36
1.0576022e-36
-2.9329401e-34
3.656154e-35
-9.8935566e-33
1.0196643e-33
-2.5620345e-31
2.1784479e-32
-3.9829348e-30
3.4291776e-31
-2.9648033e-29
3.5525697e-30
-1.265716e-28
2.4911712e-29
-5.5970515e-28
1.6176155e-28
-5.7414848e-27
1.8710871e-27
-1.7969804e-25
6.2533203e-26
-9.9130327e-24
3.2795289e-24
-3.8886881e-22
1.5208746e-22
-5.4844615e-21
3.4423828e-21
-3.0866173e-20
3.278963e-20
-1.5208399e-19
1.8846466e-19
-2.1267778e-18
1.4570776e-18
-3.0449802e-17
2.5801021e-17
-6.1437439e-17
4.2452253e-16
-1.4513004e-14
1.9051625e-14
-9.1920688e-13
1.1467537e-12
-3.3939234e-11
4.1758318e-11
-1.1175298e-08
-8.8323515e-10
1.6063533e-08
-1.0459601e-07
1.1359443e-08
-1.407172e-07
4.7501131e-09
-7.0442959e-09
2.9567519e-10
-2.0665575e-09
2.4148644e-09
-2.248188e-08
6.1618815e-09
-5.8207577e-08
5.6258569e-09
-1.1445714e-08
9.9475495e-09
-2.1606757e-08
5.1799938e-09
-6.2389571e-09
3.3782397e-09
-1.5622302e-09
3.7476201e-09
-1.8724604e-09
3.6746077e-09
-2.4367689e-10
4.2460084e-09
1.0608495e-09
2.6803024e-08
3.9268301e-09
2.3785295e-07
9.1561072e-08
2.6844236e-07
3.4653635e-07
1.7186998e-07
3.3917696e-07
1.71069e-09
1.4091328e-07
4.4680765e-11
1.905865e-09
9.3062944e-13
5.1891049e-11
1.7059537e-14
1.1636931e-12
1.7796002e-16
2.3527469e-14
1.0621068e-17
4.9517173e-16
2.5483087e-19
1.5569967e-17
2.7027533e-21
2.9199242e-19
2.9274193e-23
3.9728488e-21
3.1583054e-25
5.0571294e-23
3.0707428e-27
6.0292569e-25
2.6548208e-29
6.5537213e-27
2.056982e-31
6.465099e-29
1.4086732e-33
5.8133229e-31
8.2553712e-36
4.7576237e-33
3.8959915e-38
3.521186e-35
1.2416739e-40
2.3392401e-37
-2.4235043e-44
1.4087586e-39
-3.6274817e-45
7.527205e-42
-2.8913135e-47
3.4036822e-44
-1.4552354e-49
1.2842635e-46
-5.65864e-52
4.0373925e-49
-1.9826268e-54
1.0852256e-51
-6.1259001e-57
2.7745166e-54
-1.7695489e-59
6.4623621e-57
-4.8739785e-62
1.3892958e-59
-1.1703509e-64
2.7950564e-62
-3.0449652e-67
4.7429832e-65
-2.4715249e-67
1.9611034e-67
-3.8052919e-66
9.3159525e-67
-2.3192872e-63
4.3006965e-65
-7.10355e-61
-8.7400284e-62
-7.3636393e-59
-2.1487352e-59
-3.3290634e-57
-1.4522393e-57
-8.6666423e-56
-3.4752759e-56
-2.7071838e-55
-1.2237955e-69
1.8702246e-69
-1.8559837e-67
2.4161544e-67
-1.1765844e-66
3.5532908e-66
-1.510398e-66
7.7923102e-66
-1.5789224e-66
7.8017942e-66
-1.0469359e-66
5.4286725e-66
-4.2966385e-67
2.715208e-66
-2.0414568e-67
1.0271972e-66
-2.0812838e-66
2.172206e-66
-5.8360262e-64
5.5037993e-64
-1.2338493e-61
1.097661e-61
-2.0452172e-59
1.6923434e-59
-2.8226582e-57
2.155192e-57
-3.3578127e-55
2.3581238e-55
-3.5137642e-53
2.264553e-53
-3.2783461e-51
1.9340745e-51
-2.7535731e-49
1.4822395e-49
-2.0972421e-47
1.0257329e-47
-1.4569848e-45
6.4385336e-46
-9.2789543e-44
3.6779112e-44
-5.4335918e-42
1.9161208e-42
-2.9211118e-40
9.1083578e-41
-1.4434582e-38
3.9526033e-39
-6.7381512e-37
1.5792917e-37
-3.1062221e-35
5.929141e-36
-1.374012e-33
2.0949861e-34
-5.3184886e-32
6.5690142e-33
-1.9493609e-30
1.7340091e-31
-7.0060466e-29
3.9678277e-30
-1.4473314e-27
7.0289651e-29
-1.1150216e-26
7.4515244e-28
-3.8376182e-26
4.8481659e-27
-1.0323869e-25
2.5270543e-26
-5.3038839e-25
1.8145971e-25
-1.520503e-23
5.2135882e-24
-1.1407063e-21
3.5842472e-22
-4.4598226e-20
1.9350856e-20
-4.7107987e-19
3.7630329e-19
-1.7971706e-18
2.5080419e-18
-5.1470224e-18
8.6154831e-18
-2.3953132e-17
2.8492902e-17
-1.2528324e-16
1.4596636e-16
-1.8054906e-16
6.9215875e-16
-3.1284409e-15
2.4574241e-14
-1.4123662e-13
1.3803097e-12
0
3.2965048e-11
6.6018102e-09
-1.3439075e-08
1.9012197e-08
-1.4937561e-07
5.708803e-09
-1.3593824e-08
2.3471735e-10
-1.8031537e-09
4.2817695e-10
-2.4353038e-09
7.0982597e-09
-3.1569203e-08
2.692045e-08
-5.770186e-08
1.580102e-08
0
4.2059046e-08
-2.2281944e-07
1.6748709e-08
-8.5806127e-08
4.3997078e-09
-2.9923268e-08
3.1661135e-09
-2.1854792e-09
2.9945714e-09
-2.5845411e-10
2.7279985e-09
1.1556112e-09
4.0887635e-09
2.4332269e-09
8.0212538e-08
1.5683067e-08
2.095746e-07
2.3159427e-07
1.7051922e-07
4.086445e-07
1.6932577e-09
2.5851621e-07
1.2822968e-11
3.0470276e-09
1.2939119e-13
6.3327855e-11
1.6145719e-16
1.2786035e-12
1.0541214e-16
2.0619722e-14
1.7309961e-17
5.6134809e-16
5.7595814e-19
2.6046912e-17
5.1292141e-21
5.9433181e-19
4.623496e-23
7.7086188e-21
5.3302605e-25
9.6800781e-23
5.8965606e-27
1.2354708e-24
5.4121239e-29
1.4757038e-26
3.9563011e-31
1.5685049e-28
2.2907197e-33
1.4464349e-30
9.4158416e-36
1.1577023e-32
1.2373861e-38
8.1827647e-35
-1.9584732e-40
5.0138122e-37
-2.3249856e-42
2.7096065e-39
-1.7069509e-44
1.2741467e-41
-9.3790897e-47
5.4775699e-44
-4.1451627e-49
2.0448121e-46
-1.5358047e-51
6.8231432e-49
-5.2280728e-54
2.0042686e-51
-1.6788132e-56
5.409426e-54
-4.8401392e-59
1.3797854e-56
-1.2358898e-61
3.0814545e-59
-2.1881635e-64
5.7665272e-62
-7.0501299e-65
1.0493867e-64
-9.6613076e-65
4.1701909e-65
-1.8381039e-62
2.0337068e-63
-7.4615846e-60
-3.0495048e-61
-1.2333315e-57
-2.4637549e-58
-8.3237663e-56
-3.1413448e-56
-2.958632e-54
-1.4757948e-54
-5.4669143e-53
-2.857612e-53
-1.810635e-52
-1.8513065e-67
3.3263012e-67
-2.8642605e-65
4.0650407e-65
-1.8205498e-64
6.0413101e-64
-2.3436608e-64
1.3249999e-63
-2.4562275e-64
1.3231038e-63
-1.632498e-64
9.2606171e-64
-6.7630913e-65
4.6296338e-64
-3.1286761e-65
1.7617768e-64
-1.1751743e-64
1.4632366e-64
-3.2412114e-62
3.3305385e-62
-7.6401944e-60
7.2350897e-60
-1.3981775e-57
1.2406215e-57
-2.0872109e-55
1.7095824e-55
-2.6416502e-53
1.9927295e-53
-2.9041356e-51
2.0104085e-51
-2.822905e-49
1.7871345e-49
-2.4560238e-47
1.416383e-47
-1.9296001e-45
1.0087165e-45
-1.3783694e-43
6.4910347e-44
-9.0013928e-42
3.7885279e-42
-5.399136e-40
2.011017e-40
-2.9873255e-38
9.7255562e-39
-1.530671e-36
4.2894988e-37
-7.2600907e-35
1.7261287e-35
-3.163716e-33
6.3409407e-34
-1.3038279e-31
2.1509053e-32
-6.1599116e-30
7.0927339e-31
-4.5104903e-28
2.4489046e-29
-3.2457345e-26
7.4539019e-28
-7.6966933e-25
8.5968969e-27
-4.7703215e-24
1.644944e-26
-1.1622938e-23
1.7792195e-25
-1.9970221e-23
2.0809656e-24
-5.5553002e-23
1.4383545e-23
-1.7351396e-21
4.3457693e-22
-1.4577742e-19
4.2942771e-20
-3.4751999e-18
2.0503955e-18
-1.9197613e-17
2.559235e-17
-4.7536208e-17
1.0454531e-16
-1.1449382e-16
1.2382996e-16
-2.0330276e-16
4.7372145e-16
-2.9855209e-16
6.3118616e-16
-2.0308521e-16
8.2602958e-16
-1.4788583e-14
4.2224344e-14
0
1.4404393e-12
-4.1890891e-10
8.0478597e-12
1.3574256e-08
-3.1618981e-08
1.3081944e-08
-7.0292655e-09
1.7485002e-10
-1.0409646e-09
3.3353756e-10
-1.9183614e-09
1.0765786e-09
-3.4112883e-09
1.5361076e-08
-1.3277042e-08
4.2883137e-08
-1.411036e-08
1.575007e-07
-2.5251373e-07
1.6610762e-07
-6.542387e-07
4.6577383e-08
-5.7979687e-07
0
-5.2930527e-08
1.9579737e-09
-5.7260111e-09
1.9475343e-09
-3.939394e-10
1.7170462e-09
1.2690086e-09
1.594466e-09
2.4807414e-09
1.2550506e-08
4.6976819e-09
9.198056e-08
1.3072859e-07
1.014641e-07
4.2999665e-07
1.332804e-08
2.318706e-07
0
5.0611473e-09
0
6.2994291e-11
0
9.495779e-13
1.3843838e-16
1.5674687e-14
1.0177217e-17
5.7928227e-16
3.7538733e-19
2.7650853e-17
4.6242831e-21
6.6991569e-19
3.8353578e-23
9.100444e-21
3.9044984e-25
1.1349243e-22
3.9554637e-27
1.4164209e-24
3.2663883e-29
1.6558861e-26
1.8959969e-31
1.7653354e-28
3.7739136e-34
1.6591099e-30
-6.4608007e-36
1.3433317e-32
-1.0488039e-37
9.6583778e-35
-9.6770589e-40
6.0811056e-37
-6.7181857e-42
3.3024361e-39
-3.8706575e-44
1.5576425e-41
-1.8857066e-46
7.0398473e-44
-8.6239921e-49
2.8298579e-46
-3.6464689e-51
1.0668548e-48
-1.387332e-53
3.7688581e-51
-4.7419252e-56
1.1759081e-53
-1.40417e-58
3.1817947e-56
-3.2334135e-61
6.8462973e-59
-1.1920889e-62
1.413436e-61
-1.2041186e-62
8.8189286e-63
-1.9010781e-61
4.4801415e-62
-5.8844353e-59
1.7525268e-60
-1.3583941e-56
-1.4818562e-57
-1.3769301e-54
-3.7690186e-55
-6.7398742e-53
-3.0670908e-53
-1.936379e-51
-1.0912379e-51
-2.696832e-50
-1.7549804e-50
-9.3926993e-50
-2.4585558e-65
5.4523942e-65
-3.9060365e-63
6.0269087e-63
-2.5262694e-62
9.1336629e-62
-3.2648877e-62
2.0181081e-61
-3.4385628e-62
2.0139067e-61
-2.3093677e-62
1.419575e-61
-9.5062427e-63
7.1382485e-62
-4.2241658e-63
2.6751161e-62
-1.7738012e-62
1.9208893e-62
-3.6492639e-60
4.4157264e-60
-8.9057348e-58
9.2067702e-58
-1.9360761e-55
1.8000474e-55
-3.3494848e-53
2.9138058e-53
-4.6620111e-51
3.7642793e-51
-5.472016e-49
4.0621324e-49
-5.5827635e-47
3.7890719e-47
-5.0397964e-45
3.1115003e-45
-4.073086e-43
2.2742271e-43
-2.9717838e-41
1.4898504e-41
-1.9701644e-39
8.7868194e-40
-1.1926274e-37
4.6773785e-38
-6.6139572e-36
2.2489759e-36
-3.3722145e-34
9.7594368e-35
-1.5894097e-32
3.8181521e-33
-6.9266333e-31
1.3440206e-31
-2.8256855e-29
4.2289882e-30
-1.2584141e-27
1.1809955e-28
-7.9820867e-26
2.6945092e-27
-5.1139425e-24
-4.8267282e-27
-1.1803518e-22
-3.4144217e-24
-7.8024976e-22
-1.1224193e-22
-1.7375664e-21
-1.110258e-21
-2.2986486e-21
-1.8835747e-21
-3.7851113e-21
-1.8453169e-22
-7.7663738e-20
1.1449783e-20
-4.4009594e-18
1.5460746e-18
-5.7311252e-17
6.4007245e-17
-2.4951188e-16
6.5706984e-16
-1.0130636e-15
2.6080156e-15
-1.4243898e-15