/*--------------------------------*- C++ -*----------------------------------*\
  =========                 |
  \\      /  F ield         | OpenFOAM: The Open Source CFD Toolbox
   \\    /   O peration     | Website:  https://openfoam.org
    \\  /    A nd           | Version:  9
     \\/     M anipulation  |
\*---------------------------------------------------------------------------*/
FoamFile
{
    format      ascii;
    class       volScalarField;
    location    "0.78";
    object      alpha.phase1;
}
// * * * * * * * * * * * * * * * * * * * * * * * * * * * * * * * * * * * * * //

dimensions      [0 0 0 0 0 0 0];

internalField   nonuniform List<scalar> 
10000
(
5.2956373e-84
1.9822696e-83
9.4653112e-82
4.2844026e-81
4.7961923e-81
1.6992773e-81
5.7447494e-82
5.7451324e-82
1.7962204e-81
2.3315723e-79
2.7472835e-77
2.8858572e-75
2.7472738e-73
2.3919028e-71
1.9102391e-69
1.4052244e-67
9.5655692e-66
6.0504121e-64
3.5690896e-62
1.9699485e-60
1.0204348e-58
4.9724336e-57
2.2806745e-55
9.8545472e-54
4.0603276e-52
1.6377443e-50
6.3870668e-49
2.1705407e-47
5.9947104e-46
1.521212e-44
4.4407765e-43
1.5428452e-41
5.6682587e-40
2.0897775e-38
7.7030014e-37
2.8566828e-35
1.0769056e-33
4.1850564e-32
1.69865e-30
7.2438333e-29
3.239125e-27
1.5088784e-25
7.2672379e-24
3.5956795e-22
1.7582641e-20
8.135234e-19
3.5762341e-17
1.1367424e-15
1.2202722e-14
1.7478227e-13
2.7257807e-12
2.0147282e-11
7.5072294e-11
2.193706e-10
4.6585235e-10
3.1766449e-10
1.0755933e-10
3.4452166e-11
1.5247246e-11
7.9165292e-12
3.3730598e-12
9.226602e-13
1.6468131e-13
1.8012924e-14
1.398368e-15
9.3750825e-17
5.6821056e-18
3.053671e-19
1.4415129e-20
5.99095e-22
2.2034278e-23
7.2033598e-25
2.099125e-26
5.4603813e-28
1.2681811e-29
2.6277233e-31
4.8503419e-33
7.9599381e-35
1.1588184e-36
1.492886e-38
1.6975246e-40
1.6990378e-42
1.4925952e-44
1.1472811e-46
7.6883752e-49
4.4732221e-51
2.2484271e-53
9.7063661e-56
3.5738152e-58
1.1131152e-60
2.9052366e-63
6.2903994e-66
1.1193831e-68
1.6271268e-71
1.9327792e-74
1.8952169e-77
2.2060194e-80
6.6747263e-81
6.6747409e-81
6.7139167e-81
5.3344559e-84
2.0523827e-82
7.6506464e-81
3.4864452e-80
4.4993092e-80
3.3809074e-80
1.8354081e-80
9.1801387e-81
4.8994891e-80
7.1983639e-78
9.1050401e-76
1.0258362e-73
1.0401995e-71
9.574368e-70
8.0555285e-68
6.2326551e-66
4.4575145e-64
2.9602028e-62
1.8327209e-60
1.0616983e-58
5.7733024e-57
2.9537294e-55
1.4238979e-53
6.4942198e-52
2.8344589e-50
1.1920658e-48
4.7038391e-47
1.6714715e-45
5.477871e-44
1.8185571e-42
6.4191182e-41
2.323561e-39
8.3495416e-38
2.9673347e-36
1.048547e-34
3.7085037e-33
1.3280716e-31
4.9246403e-30
1.9407047e-28
8.2108736e-27
3.6925204e-25
1.7371803e-23
8.4143946e-22
4.1460327e-20
2.0635863e-18
1.0499986e-16
4.4723267e-15
1.0616453e-13
1.5296974e-12
6.208743e-12
2.0596134e-11
7.6910627e-11
2.2373255e-10
4.6386873e-10
1.0044567e-09
1.5019978e-09
2.5142964e-09
1.2791516e-09
5.0542584e-10
3.6106829e-10
1.3479055e-10
2.8830621e-11
8.516522e-12
1.3360185e-12
1.0123932e-13
5.4245849e-15
2.6196659e-16
1.1538935e-17
4.5216571e-19
1.5668498e-20
4.8324617e-22
1.338543e-23
3.3510318e-25
7.605244e-27
1.5648853e-28
2.9132122e-30
4.8902589e-32
7.3748817e-34
9.9559922e-36
1.1987578e-37
1.2826786e-39
1.2150381e-41
1.0145439e-43
7.4309691e-46
4.7479438e-48
2.6289381e-50
1.2522783e-52
5.0903236e-55
1.7501208e-57
5.0414775e-60
1.205262e-62
2.3773626e-65
3.881624e-68
5.3487339e-71
6.4304185e-74
6.7991302e-77
1.2412268e-79
1.83948e-78
2.9296075e-75
2.6222919e-75
3.7598432e-81
2.7655207e-79
7.0862414e-78
2.4554277e-77
2.8609124e-77
2.0456425e-77
1.0645354e-77
5.1802387e-78
2.0647451e-77
3.173978e-75
4.1399519e-73
4.7850403e-71
4.9579022e-69
4.6477861e-67
3.9715596e-65
3.1127679e-63
2.2495959e-61
1.5057825e-59
9.3716236e-58
5.4421946e-56
2.9573797e-54
1.505404e-52
7.1679929e-51
3.2142731e-49
1.4060513e-47
6.1912577e-46
2.477236e-44
7.4081982e-43
1.6519872e-41
3.5717592e-40
9.834935e-39
3.2458371e-37
1.1014285e-35
3.6859925e-34
1.2151446e-32
3.9405036e-31
1.2605834e-29
4.1180116e-28
1.4687423e-26
5.9320625e-25
2.6412364e-23
1.2420429e-21
5.9877113e-20
2.9460455e-18
1.5572284e-16
6.9021234e-15
1.2073276e-13
2.3245763e-12
1.5176828e-10
7.073258e-10
1.1491623e-09
3.3600381e-09
8.4285775e-09
1.1251764e-07
1.2028422e-06
1.0314394e-06
3.6685059e-07
1.9450108e-07
8.69763e-08
3.5313802e-09
1.1679799e-09
1.5731212e-09
1.7269417e-10
6.1649799e-13
3.1656839e-13
9.015055e-14
1.0818424e-14
4.6121866e-16
1.206784e-17
3.49798e-19
1.0515503e-20
2.85294e-22
6.8731192e-24
1.4922082e-25
2.934285e-27
5.2208322e-29
8.3846068e-31
1.2116934e-32
1.5700859e-34
1.8168196e-36
1.869067e-38
1.7012864e-40
1.362495e-42
9.5409166e-45
5.8016019e-47
3.0397462e-49
1.3609147e-51
5.1633416e-54
1.6471552e-56
4.3903155e-59
9.7660353e-62
1.8351962e-64
3.0056284e-67
4.4585457e-70
5.9838012e-73
7.3759267e-76
8.8171789e-77
1.0039064e-73
8.3446506e-71
8.2536598e-71
2.0004529e-78
2.1318922e-76
4.0748353e-75
1.1440008e-74
1.2549834e-74
8.7954446e-75
4.4723927e-75
2.1436523e-75
7.1750112e-75
1.1626021e-72
1.5764658e-70
1.8819334e-68
2.004796e-66
1.9257771e-64
1.6817583e-62
1.3442093e-60
9.8892144e-59
6.7279529e-57
4.2502631e-55
2.5024548e-53
1.3776157e-51
7.0963572e-50
3.4090073e-48
1.5378773e-46
6.9004103e-45
3.3553427e-43
1.5346651e-41
4.475512e-40
7.473606e-39
9.6685956e-38
1.6252812e-36
4.3785489e-35
1.3931798e-33
4.4700463e-32
1.4139131e-30
4.309356e-29
1.2143903e-27
3.2111787e-26
9.134286e-25
3.2425453e-23
1.3953284e-21
6.5277212e-20
3.2179322e-18
1.8778085e-16
7.6913339e-15
7.4027261e-14
1.1118595e-12
2.821378e-10
9.8781931e-09
3.4006528e-08
7.9922847e-07
2.0358777e-06
6.7234285e-06
1.2324656e-05
2.0239134e-05
1.95795e-05
1.0414649e-05
8.8054832e-07
1.4932457e-06
8.8930137e-07
4.7286752e-08
4.6833536e-10
2.7694818e-11
1.5242117e-12
1.4742396e-13
1.2460245e-14
3.9288895e-15
3.2810322e-15
6.4653591e-16
1.9730655e-17
2.1333794e-19
3.9717462e-21
9.2565263e-23
1.9456082e-24
3.6410629e-26
6.1830619e-28
9.5199868e-30
1.3222664e-31
1.6481593e-33
1.8333207e-35
1.8093059e-37
1.574639e-39
1.2007237e-41
7.9692158e-44
4.5707854e-46
2.2501543e-48
9.4459226e-51
3.3667764e-53
1.0192148e-55
2.6405023e-58
5.9797448e-61
1.220718e-63
2.3359453e-66
4.2610903e-69
7.1366165e-72
7.4776553e-74
2.2827666e-72
1.5027947e-69
4.5737334e-67
6.3965837e-67
7.7652425e-76
9.6257376e-74
1.603022e-72
4.0125848e-72
4.2371946e-72
2.9402995e-72
1.4735272e-72
6.9806867e-73
1.9739907e-72
3.4365699e-70
4.9001049e-68
6.0870282e-66
6.7023008e-64
6.6227716e-62
5.9284737e-60
4.8440279e-58
3.6349561e-56
2.5178448e-54
1.6168616e-52
9.66316e-51
5.3940954e-49
2.8156298e-47
1.3692894e-45
6.2355107e-44
2.8248024e-42
1.4356446e-40
7.3593054e-39
2.3391543e-37
3.6615397e-36
3.5512155e-35
3.5250559e-34
6.0379346e-33
1.6261643e-31
4.9547165e-30
1.561506e-28
4.8505155e-27
1.2997647e-25
2.7507211e-24
5.3300799e-23
1.3572006e-21
5.1591763e-20
2.4318028e-18
1.4888273e-16
5.6225191e-15
4.0395871e-14
1.2850465e-12
5.0064303e-11
1.6898332e-09
9.727572e-07
1.1835833e-05
1.787127e-05
1.9773462e-05
2.1831106e-05
2.1834853e-05
2.1716255e-05
2.1423915e-05
1.7993305e-05
1.0120559e-06
2.7327918e-07
2.2275017e-05
3.1281139e-05
2.0440805e-05
1.131092e-07
2.632678e-11
1.5211139e-12
8.2046709e-14
1.0120818e-14
5.7107419e-15
2.7040895e-15
1.6394458e-16
1.992526e-18
3.3317727e-20
6.674332e-22
1.2852971e-23
2.2617666e-25
3.6544546e-27
5.4104998e-29
7.2733838e-31
8.7999261e-33
9.5097857e-35
9.1171094e-37
7.7010101e-39
5.6820527e-41
3.6171597e-43
1.9671866e-45
9.1486355e-48
3.6783119e-50
1.2999527e-52
4.1166203e-55
1.1954364e-57
3.2234979e-60
8.0700627e-63
1.8644124e-65
3.9372024e-68
9.1676241e-71
5.9715643e-71
4.9196299e-68
1.0211256e-65
1.311458e-63
2.2656698e-63
2.3326897e-73
3.0978977e-71
4.8090269e-70
1.1274881e-69
1.1617853e-69
8.0234045e-70
3.9854059e-70
1.8598191e-70
4.1986533e-70
8.150202e-68
1.2449953e-65
1.6270006e-63
1.8644056e-61
1.9036702e-59
1.7519567e-57
1.4659786e-55
1.123022e-53
7.920545e-52
5.1670773e-50
3.1307724e-48
1.7683748e-46
9.3239764e-45
4.5746582e-43
2.0983328e-41
9.4899907e-40
4.724449e-38
2.4353613e-36
8.4648621e-35
1.4855456e-33
1.4712043e-32
1.165634e-31
1.1486645e-30
1.9336288e-29
4.9742879e-28
1.5490313e-26
5.2353822e-25
1.5065351e-23
2.8033412e-22
3.6134662e-21
5.0256076e-20
1.3523968e-18
7.1739157e-17
2.9189972e-15
2.3044223e-14
7.3497505e-13
3.103997e-11
1.1391627e-09
5.6447159e-07
1.776742e-05
2.4845455e-05
2.4799009e-05
2.4219898e-05
2.0088269e-05
1.5132391e-05
1.2560614e-05
8.2244724e-06
4.7428963e-07
2.6443925e-07
2.6225078e-07
1.4161085e-05
3.2561678e-05
3.3499346e-05
2.8964922e-05
3.0159198e-06
4.1948034e-09
2.3223111e-10
1.0320179e-11
4.2307584e-13
1.6416037e-14
1.0457228e-15
3.433672e-17
4.308502e-19
4.5809963e-21
6.0411057e-23
8.1349217e-25
1.05454e-26
1.3217792e-28
1.5620456e-30
1.6826021e-32
1.614873e-34
1.3657113e-36
1.0164041e-38
6.751092e-41
4.1128959e-43
2.375252e-45
1.3011622e-47
6.6152979e-50
3.0961787e-52
1.2740304e-54
4.4191389e-57
1.3449184e-59
3.7597923e-62
9.5237004e-65
1.8688536e-67
1.7202664e-68
5.9608411e-67
3.2544233e-64
3.587152e-62
2.3839198e-60
4.5847809e-60
5.7233527e-71
7.8329853e-69
1.1720593e-67
2.6429187e-67
2.6804625e-67
1.8482293e-67
9.1413071e-68
4.1377518e-68
6.4473085e-68
1.5236952e-65
2.5881504e-63
3.626426e-61
4.3728869e-59
4.6463324e-57
4.4168633e-55
3.7972168e-53
2.976175e-51
2.1403569e-49
1.4195756e-47
8.7219428e-46
4.9829232e-44
2.6505417e-42
1.30954e-40
6.0486627e-39
2.7371911e-37
1.3111147e-35
6.267523e-34
2.2275944e-32
4.7123616e-31
5.9471892e-30
5.0380846e-29
3.5237788e-28
2.9522948e-27
4.733472e-26
1.3514488e-24
4.9732446e-23
1.641265e-21
2.999445e-20
2.8972348e-19
2.190526e-18
3.015755e-17
1.1891261e-15
2.2568594e-14
1.5079513e-13
6.5370325e-12
2.8208028e-10
9.6232279e-09
9.1645912e-06
2.4949919e-05
2.4823637e-05
1.0496988e-05
2.9109177e-06
4.3120643e-07
3.9105182e-07
3.210271e-07
2.7789788e-07
2.6443925e-07
2.6296172e-07
2.6355789e-07
2.6355789e-07
2.9805501e-06
3.3572643e-05
3.5146154e-05
1.7623728e-05
8.8945423e-08
2.5143648e-09
8.6801524e-11
2.5351118e-12
6.9907245e-14
5.9699369e-15
2.7843332e-16
5.488214e-18
8.0220112e-20
1.197924e-21
1.7240344e-23
2.2682717e-25
2.7050511e-27
2.9085035e-29
2.8007918e-31
2.4049208e-33
1.8333905e-35
1.2346468e-37
7.354322e-40
4.0418695e-42
2.0620712e-44
1.0313429e-46
4.6304045e-49
1.6253281e-51
5.1929713e-54
1.6332533e-56
4.6869801e-59
1.2236967e-61
2.6531961e-64
4.7317364e-66
9.9520168e-66
4.3715162e-63
1.0381261e-60
7.5146466e-59
3.0142781e-57
6.0831327e-57
1.1922303e-68
1.6353146e-66
2.4085684e-65
5.3142207e-65
5.3353961e-65
3.6857904e-65
1.8313585e-65
7.4374417e-66
5.0636791e-66
2.0384012e-63
4.2292687e-61
6.5952451e-59
8.5298901e-57
9.5381849e-55
9.434364e-53
8.3745972e-51
6.739514e-49
4.9547509e-47
3.3472958e-45
2.0883644e-43
1.2080495e-41
6.4876521e-40
3.2296047e-38
1.5037629e-36
6.8307514e-35
3.1655134e-33
1.3903732e-31
4.8751119e-30
1.2561493e-28
2.1937609e-27
2.2009548e-26
1.2945169e-25
6.2820817e-25
4.8859134e-24
1.1011874e-22
4.3976272e-21
1.6888461e-19
3.1290289e-18
2.4456177e-17
1.1675651e-16
7.3994235e-16
1.1401687e-14
7.9762705e-14
4.6286729e-13
2.099719e-11
9.3623176e-10
1.130297e-06
2.1631069e-05
2.4949919e-05
4.5531011e-06
2.0485436e-07
2.5579242e-07
9.9357782e-07
4.2977538e-07
3.8716863e-07
3.1675975e-07
2.7643635e-07
2.643214e-07
2.6227136e-07
2.6432577e-07
2.7007506e-07
1.4017647e-05
3.656549e-05
3.7302705e-05
8.0248383e-06
1.581846e-08
4.8804694e-10
1.2199671e-11
2.7354733e-13
2.3421843e-14
1.7686278e-15
3.7265397e-17
5.1111814e-19
7.7804974e-21
1.1322076e-22
1.4787725e-24
1.7552517e-26
1.9011097e-28
1.86918e-30
1.6615813e-32
1.3345552e-34
9.7541213e-37
6.4150247e-39
3.3080128e-41
1.4224353e-43
5.11547e-46
1.6017004e-48
4.8391073e-51
1.3500803e-53
3.6443505e-56
9.6477632e-59
2.2840486e-61
1.0604368e-63
8.0886317e-64
4.3249065e-62
1.5548978e-59
1.9751902e-57
1.0382652e-55
2.8024388e-54
5.729779e-54
2.177954e-66
2.9138722e-64
4.2855154e-63
9.3588836e-63
9.3367556e-63
6.4732797e-63
3.2292688e-63
1.2100508e-63
8.1592874e-65
1.4937264e-61
4.9411517e-59
9.3148779e-57
1.3337708e-54
1.5941934e-52
1.6551702e-50
1.5253036e-48
1.2648095e-46
9.5278424e-45
6.5664708e-43
4.1640523e-41
2.440372e-39
1.3239171e-37
6.6455663e-36
3.1187295e-34
1.4177888e-32
6.3739808e-31
2.6412444e-29
9.3948542e-28
2.9725993e-26
6.8912982e-25
7.7345753e-24
4.0511179e-23
1.4035111e-22
6.035045e-22
1.0011793e-20
4.9653041e-19
2.1151319e-17
3.1889925e-16
1.6880378e-15
4.8171892e-15
1.4045848e-14
7.2289651e-14
2.5845522e-13
7.423001e-13
2.8581695e-11
1.6392094e-09
3.5230665e-06
2.1385181e-05
1.1518692e-05
2.0058363e-07
2.02719e-07
2.2217235e-06
4.502052e-06
1.4066851e-06
5.1506823e-06
2.2718258e-06
1.6752345e-06
3.3782784e-07
2.6403371e-07
2.6721408e-07
2.67695e-07
2.7546994e-07
3.4903649e-05
3.7460388e-05
1.7864826e-05
2.8496842e-08
5.6718694e-10
1.1449974e-11
3.4366442e-13
7.1272787e-14
6.701148e-15
1.4439406e-16
1.7002976e-18
2.5259675e-20
3.9943239e-22
5.6236158e-24
6.7032876e-26
6.950736e-28
6.3813443e-30
5.1762858e-32
3.6763312e-34
2.2628578e-36
1.2081362e-38
5.9356189e-41
2.5214794e-43
9.3122285e-46
3.0330972e-48
9.4097434e-51
2.8340084e-53
7.8466126e-56
1.9647517e-58
4.6073108e-61
1.2638009e-61
5.6257665e-61
1.5036214e-58
3.063093e-56
2.4996584e-54
1.0074529e-52
1.9838168e-51
4.0325798e-51
3.5921826e-64
4.5289467e-62
6.7247844e-61
1.4671969e-60
1.4580427e-60
1.0155168e-60
5.0568458e-61
1.9123523e-61
9.8696062e-63
3.3272405e-60
2.0923014e-57
5.1853448e-55
8.5151284e-53
1.1192481e-50
1.2420206e-48
1.2038998e-46
1.0400506e-44
8.1122307e-43
5.7646795e-41
3.7580047e-39
2.259934e-37
1.2596898e-35
6.5362591e-34
3.167006e-32
1.4318791e-30
6.0750744e-29
2.6132097e-27
1.443974e-25
9.7749003e-24
3.2606308e-22
3.3867803e-21
1.3477847e-20
3.2095376e-20
8.2087402e-20
1.0827919e-18
7.0212633e-17
2.3351558e-15
2.0818621e-14
6.4486618e-14
1.1977057e-13
2.0838378e-13
2.8041711e-13
3.0510667e-13
2.7158318e-13
4.099634e-11
1.9731879e-08
7.3961963e-06
1.1436674e-05
1.4402237e-07
1.7656077e-07
2.0058363e-07
2.4901742e-06
3.8122442e-06
1.1264981e-05
4.6665951e-05
3.4627997e-05
3.513396e-06
3.2114439e-07
2.6756171e-07
2.6799134e-07
2.6823008e-07
2.6877553e-07
2.1912102e-05
3.7619588e-05
2.8407951e-05
4.5372615e-07
2.2950598e-09
9.2407916e-11
2.4240123e-12
1.4282551e-13
8.2973393e-15
2.1754151e-16
2.981624e-18
4.0644493e-20
5.9153487e-22
8.0567128e-24
9.8975332e-26
1.0564968e-27
9.7682637e-30
7.8288283e-32
5.4389158e-34
3.2727723e-36
1.7200206e-38
8.1183812e-41
3.4122317e-43
1.3959542e-45
5.4286755e-48
1.944788e-50
6.3818326e-53
1.8467986e-55
4.3767524e-58
3.0271906e-59
3.9872444e-59
1.1902021e-57
3.098514e-55
3.828744e-53
2.2386378e-51
7.1804686e-50
1.0951704e-48
2.1944012e-48
5.5055641e-62
6.244301e-60
9.4440263e-59
2.0731467e-58
2.0559057e-58
1.4399266e-58
7.1991236e-59
2.6782063e-59
3.7869884e-61
9.9707308e-59
5.7281426e-56
3.8282161e-53
1.026768e-50
1.6634187e-48
2.0612523e-46
2.1448929e-44
1.9478377e-42
1.5759821e-40
1.1507485e-38
7.6513347e-37
4.6636891e-35
2.6183849e-33
1.3588536e-31
6.5509741e-30
2.9546639e-28
1.256827e-26
5.3050234e-25
2.678148e-23
1.5616315e-21
4.8517723e-20
5.0201037e-19
1.9827153e-18
4.080515e-18
7.4679638e-18
5.9534281e-17
3.4498153e-15
8.1045753e-14
5.3126732e-13
1.5117976e-12
2.9590649e-12
2.943895e-12
1.2685049e-12
5.8297364e-13
1.6592902e-12
7.3565967e-11
6.8081145e-07
7.3271033e-06
1.144771e-07
1.315257e-07
1.4402237e-07
1.9074114e-07
3.471395e-07
4.8423769e-07
4.1136603e-05
4.868959e-05
4.8576902e-05
4.736884e-06
9.0618657e-07
5.6358222e-07
2.6820061e-07
2.6844554e-07
2.6841658e-07
4.4817593e-06
3.7619588e-05
2.4840069e-05
2.8518994e-07
5.2394729e-09
1.0463087e-10
2.2679634e-12
1.3123588e-13
7.5260633e-15
2.0326338e-16
3.0440484e-18
4.4337803e-20
6.4249022e-22
8.3250254e-24
9.6711459e-26
9.9967863e-28
9.0189488e-30
7.0816441e-32
4.8766548e-34
2.9955439e-36
1.6897784e-38
8.9569733e-41
4.9517062e-43
2.4827944e-45
1.0909212e-47
4.1700176e-50
1.3362633e-52
2.9665628e-55
4.9690958e-57
5.8015182e-57
1.7608181e-56
2.2472865e-54
3.9127738e-52
3.2959248e-50
1.4792905e-48
3.8999338e-47
4.8093162e-46
9.4573086e-46
8.0645306e-60
7.7350269e-58
1.2002888e-56
2.6674564e-56
2.6426565e-56
1.8600315e-56
9.681903e-57
3.2802975e-57
4.994977e-59
1.0804738e-56
2.1182446e-54
3.8171758e-51
5.3682108e-48
1.3629503e-45
2.0439475e-43
2.369607e-41
2.3197277e-39
1.9900403e-37
1.5268812e-35
1.0621552e-33
6.7635435e-32
3.9540185e-30
2.1214121e-28
1.0855167e-26
6.144311e-25
4.2444912e-23
2.2098394e-21
5.0005985e-20
4.8276751e-19
3.7046214e-18
3.1107752e-17
1.5178021e-16
3.6292849e-16
6.1711563e-16
1.7438814e-15
1.056654e-13
2.5424529e-12
8.6441252e-12
5.3518916e-12
1.9225287e-12
1.5690733e-12
1.2848767e-12
1.0572499e-12
8.5551568e-12
4.0124027e-08
2.3275194e-06
2.1276016e-06
1.0090211e-07
1.144771e-07
2.7998242e-07
5.6307401e-07
4.4591775e-07
2.1142843e-06
4.868959e-05
4.868959e-05
4.868959e-05
9.4715902e-07
9.8309217e-07
9.7854996e-07
4.1712544e-07
2.6844037e-07
2.7868211e-07
2.0684091e-05
3.7619588e-05
1.2740428e-05
1.4657356e-09
2.5498211e-09
4.5538997e-11
1.3526691e-12
9.2255686e-14
5.3541892e-15
1.5145488e-16
2.3445028e-18
3.3784799e-20
4.9838729e-22
6.5531065e-24
7.4454877e-26
7.5638116e-28
6.9457993e-30
5.7994424e-32
4.3663055e-34
2.966683e-36
1.8348304e-38
1.0286485e-40
5.2532262e-43
2.4236935e-45
9.8176054e-48
3.1407104e-50
8.2164781e-53
8.477637e-55
6.3864385e-55
1.698052e-54
1.6495458e-53
2.8963035e-51
3.3157517e-49
2.0621619e-47
7.4499855e-46
1.655847e-44
1.7058589e-43
3.2860164e-43
1.157035e-57
8.6943219e-56
1.3934258e-54
3.1522742e-54
3.113785e-54
2.2373034e-54
9.7408711e-55
3.5334274e-57
4.8454752e-56
1.0510781e-53
2.0347262e-51
1.4735666e-48
8.7308193e-44
4.2335337e-41
7.8842198e-39
1.0509574e-36
1.1577659e-34
1.1157614e-32
9.6600363e-31
7.5446461e-29
5.4617867e-27
4.8701591e-25
8.4404992e-23
6.2342929e-21
7.9043925e-20
2.8499739e-19
1.24852e-18
2.1158295e-17
8.8922917e-17
1.9521195e-16
4.5724247e-16
1.0723156e-15
2.7453967e-15
6.7694865e-15
4.9006136e-14
1.6812968e-13
9.8193658e-14
2.7308533e-11
8.5485921e-10
1.566074e-12
1.5342166e-12
1.3835015e-12
3.035538e-12
1.5146665e-10
1.2455469e-06
2.3225111e-06
5.5680828e-08
6.6774323e-08
2.1785432e-06
5.1278428e-05
1.4950353e-05
6.148658e-07
2.0698374e-06
3.9233461e-05
4.868959e-05
4.4748536e-05
3.8934392e-07
3.8212496e-07
3.8260491e-07
3.4167648e-07
2.7873355e-07
3.8439371e-06
3.8316309e-05
3.7880757e-05
3.3652758e-07
1.9484442e-10
6.734609e-10
1.2114695e-11
6.5074304e-13
5.7364239e-14
3.7584215e-15
1.1539821e-16
1.7448268e-18
2.4104629e-20
3.6299193e-22
5.0201217e-24
6.0181797e-26
6.3850779e-28
6.0489855e-30
5.1403199e-32
3.9474935e-34
2.692284e-36
1.6168178e-38
8.553221e-41
3.87946e-43
1.4666687e-45
3.7419122e-48
1.4743475e-50
4.4069231e-52
9.1457117e-53
1.9017533e-52
4.559205e-52
1.7165324e-50
2.4522169e-48
2.0067463e-46
9.7386009e-45
2.9328159e-43
5.6045667e-42
4.9513251e-41
9.3326932e-41
1.654574e-55
8.9553725e-54
1.488656e-52
3.4493017e-52
3.4119988e-52
2.4272871e-52
1.2254122e-52
4.9649941e-53
1.0505484e-51
2.5397982e-49
8.7000102e-47
2.9066004e-44
8.8601825e-42
2.8260369e-39
5.4103539e-37
7.7100259e-35
8.7320352e-33
8.3613242e-31
7.0443216e-29
5.3415666e-27
3.6928143e-25
2.3321528e-23
1.3754361e-21
8.9977328e-20
9.0743686e-18
6.8009137e-16
1.3962973e-14
8.0175024e-14
1.8063451e-13
2.4342071e-13
2.8830402e-13
4.5486959e-13
1.10044e-12
1.4174701e-12
3.6981927e-12
6.8752289e-11
2.2342047e-10
2.1168175e-10
2.1260487e-10
4.2515645e-08
3.5190859e-07
1.702421e-07
8.263102e-08
1.1510378e-06
2.2923659e-06
1.067748e-06
5.5217599e-08
4.0510394e-07
4.5654906e-05
0.00010743879
7.1828805e-05
6.3785647e-07
6.703792e-07
2.202132e-05
4.8601085e-05
4.6534477e-05
3.2538505e-06
3.8948267e-07
3.8181347e-07
3.8181347e-07
6.3500559e-07
2.8292645e-05
3.8316309e-05
3.5390248e-05
1.8354932e-10
9.9411116e-11
8.2957718e-11
6.7021241e-12
3.6689256e-13
3.9117031e-14
2.8817622e-15
9.1339087e-17
1.4151417e-18
2.024103e-20
3.0540561e-22
4.2114213e-24
5.0619068e-26
5.3292892e-28
4.9103058e-30
3.9449774e-32
2.7808796e-34
1.7018819e-36
8.8493145e-39
3.8647995e-41
1.2967558e-43
2.6573772e-46
2.2150167e-48
2.1843996e-49
3.776251e-50
1.6777595e-50
4.5744329e-50
1.6419485e-49
1.4113255e-47
1.4546157e-45
9.0586309e-44
3.5728888e-42
9.2022577e-41
1.5387539e-39
1.1888607e-38
2.1901431e-38
2.3721363e-53
8.534929e-52
1.4729387e-50
3.5163833e-50
3.4917888e-50
2.4784767e-50
1.3923546e-50
5.8215899e-51
5.8445147e-50
1.2946434e-47
3.3097803e-45
1.1261172e-42
3.3605995e-40
1.1187451e-37
2.4403823e-35
3.6482623e-33
4.1814139e-31
4.0182827e-29
3.3703206e-27
2.5270514e-25
1.7174952e-23
1.0607347e-21
6.0312067e-20
3.6283087e-18
3.2539993e-16
2.6285514e-14
6.140704e-13
3.6628504e-12
7.9443714e-12
9.8046197e-12
9.7176895e-12
9.6856731e-12
1.4285495e-11
1.5013312e-11
9.6032432e-12
1.9005414e-11
6.3021236e-10
7.1356563e-11
2.2289568e-09
3.4946415e-07
4.7643762e-07
2.2754431e-07
2.888414e-07
1.9628293e-06
2.0704107e-06
5.797405e-08
5.6516162e-08
7.9916929e-07
6.9254676e-05
0.00010743879
0.00010508147
6.6194919e-07
6.9995326e-07
2.1238543e-05
4.8578569e-05
4.901233e-05
2.3713772e-05
4.0794423e-07
4.0380055e-07
8.8373472e-07
2.559834e-05
3.7539754e-05
3.8316309e-05
7.5434175e-06
8.2401303e-11
1.0530178e-10
1.0388943e-10
3.9324272e-12
2.6002589e-13
2.8585257e-14
2.0183839e-15
6.1683093e-17
1.0466013e-18
1.5764223e-20
2.3419417e-22
3.0686004e-24
3.4552335e-26
3.3275851e-28
2.7285527e-30
1.8758753e-32
1.0618548e-34
5.0284321e-37
1.9310643e-39
5.7569091e-42
1.0921721e-44
3.0455502e-46
5.3260417e-47
1.5529319e-47
4.1931853e-48
3.5030103e-48
9.3974685e-48
8.1979299e-47
8.2402802e-45
6.3510473e-43
3.149575e-41
1.0409686e-39
2.3414242e-38
3.4709135e-37
2.3820517e-36
4.2863813e-36
3.3964979e-51
7.6040109e-50
1.3579478e-48
3.3586002e-48
3.3531607e-48
2.3880216e-48
1.3487067e-48
6.4834884e-49
1.6087592e-48
2.4131938e-46
5.3226259e-44
2.7252585e-41
1.599211e-38
4.2192882e-36
6.4435023e-34
7.6372579e-32
7.5827099e-30
6.531734e-28
4.9782277e-26
3.4015614e-24
2.0998652e-22
1.1701726e-20
5.9583909e-19
3.161918e-17
2.3690719e-15
1.5735759e-13
3.2156714e-12
1.7541423e-11
3.5681341e-11
4.1818584e-11
3.4645728e-11
2.1387217e-11
1.8206188e-11
1.6897763e-11
9.606731e-12
1.6642676e-10
2.1656358e-08
7.1193645e-11
1.8420894e-10
2.6548468e-10
6.5092561e-09
1.9161182e-08
2.5986609e-08
2.4336595e-07
1.0397725e-07
5.7932767e-08
5.9579073e-08
9.8594089e-08
2.69054e-06
0.00010743879
7.1845992e-05
6.1794883e-07
6.3137717e-07
1.4927357e-05
4.9085051e-05
4.9425194e-05
4.9213599e-05
1.0968556e-05
1.5690646e-05
4.0354056e-05
3.9594932e-05
3.8054814e-05
1.2981999e-05
3.2773924e-10
3.5666719e-11
1.052782e-10
1.2793311e-10
5.1795101e-12
1.8332722e-13
1.9979369e-14
1.1476552e-15
3.4571095e-17
5.1686184e-19
8.1563229e-21
1.2224435e-22
1.4531866e-24
1.4051899e-26
1.1119114e-28
7.1292235e-31
3.6663801e-33
1.4396393e-35
4.4698616e-38
1.0437066e-40
2.3406169e-43
2.4303547e-44
1.346751e-44
3.2953037e-45
1.2038238e-45
5.6309915e-46
6.7501697e-46
1.8224358e-45
3.975107e-44
3.5108588e-42
2.1179526e-40
8.6462676e-39
2.4515327e-37
4.8941272e-36
6.5038751e-35
4.0156499e-34
7.0544957e-34
4.8132838e-49
6.3952631e-48
1.1691485e-46
3.0179351e-46
3.0376563e-46
2.1960099e-46
1.1416042e-46
4.8757039e-47
5.6560135e-47
2.666179e-44
9.451408e-42
1.95765e-39
3.1379949e-37
4.1489347e-35
4.6227592e-33
4.4533756e-31
3.7671806e-29
2.8269735e-27
1.8957883e-25
1.1429408e-23
6.2164182e-22
3.0418336e-20
1.3516924e-18
6.1365903e-17
3.8139059e-15
2.2532445e-13
4.4040926e-12
2.3245411e-11
4.5592377e-11
5.1891196e-11
4.7577508e-11
2.8022081e-11
1.8129899e-11
1.7599329e-11
2.5062988e-11
5.8367296e-10
2.434857e-10
6.5715944e-06
7.4037279e-06
8.7978423e-06
2.9203172e-05
7.5357628e-05
5.7874274e-05
1.395183e-05
1.0941883e-07
2.8094767e-07
9.0563492e-08
7.7578089e-08
1.83255e-07
0.00010679482
2.9021655e-05
5.6878056e-07
5.2502353e-07
2.5078487e-06
3.9870688e-05
4.9551348e-05
4.9551348e-05
4.9551348e-05
4.9463937e-05
4.9082438e-05
2.9429692e-05
1.4322797e-06
1.2238661e-08
2.5166267e-11
2.1310571e-11
1.0486631e-10
1.2800403e-10
2.4099764e-12
1.1812177e-13
1.2105287e-14
1.0437539e-15
3.4375395e-17
4.2878021e-19
3.1141363e-21
3.1721527e-23
3.174048e-25
2.3887561e-27
1.3427078e-29
5.9027541e-32
2.3812099e-34
9.1712853e-37
2.9506642e-39
1.2828226e-41
1.5502343e-42
1.2030723e-42
5.4406248e-43
2.5803792e-43
1.2562478e-43
8.1904778e-44
1.1399824e-43
3.8822589e-43
1.6002171e-41
1.133316e-39
5.5458939e-38
1.9108001e-36
4.7346822e-35
8.4982332e-34
1.0218026e-32
5.7359299e-32
9.837294e-32
6.6832236e-47
5.1548787e-46
9.4333181e-45
2.5602474e-44
2.6059168e-44
1.8990365e-44
9.5876913e-45
3.9532714e-45
4.2006957e-45
1.3697002e-43
3.5116576e-41
6.3106358e-39
9.1598898e-37
1.0956139e-34
1.1386906e-32
1.0508247e-30
8.6159801e-29
6.3037508e-27
4.134915e-25
2.4419149e-23
1.2994176e-21
6.2009996e-20
2.710248e-18
1.2662808e-16
8.0686563e-15
3.8300359e-13
5.5183946e-12
2.3204874e-11
4.2116759e-11
4.8021013e-11
4.3541584e-11
4.0215532e-11
3.1298044e-11
1.9355289e-11
6.9559716e-11
2.244673e-09
2.4079906e-10
3.060496e-10
3.0498647e-05
8.2729033e-05
8.3812818e-05
8.3946024e-05
8.3945314e-05
8.3949567e-05
5.3255599e-05
1.0297324e-06
8.3525551e-08
7.7494611e-08
1.9719869e-07
2.7853719e-05
1.7718413e-05
5.1241983e-07
4.4256804e-07
3.8097378e-08
5.86601e-06
4.4119866e-05
4.9551348e-05
4.9463937e-05
2.1362497e-05
8.8274109e-07
7.2194163e-07
2.0048186e-10
5.7637032e-11
1.6960404e-11
2.0840056e-11
8.7547324e-11
8.6785602e-11
4.3995072e-13
1.4620845e-14
1.4941586e-15
1.4920869e-15
4.5901964e-17
2.1387104e-19
3.9211849e-21
8.1476297e-24
5.0293486e-26
4.0365519e-28
3.2019906e-30
3.2659432e-32
2.2421787e-34
1.3681217e-36
7.3133567e-39
1.2328211e-40
8.3991235e-41
6.2186114e-41
3.777908e-41
2.7282684e-41
1.609419e-41
1.1570945e-41
1.6642192e-41
9.2116072e-41
4.9834654e-39
2.8592218e-37
1.1647648e-35
3.4525584e-34
7.5883469e-33
1.2370278e-31
1.3563116e-30
6.9890673e-30
1.1701158e-29
9.01595e-45
4.0757679e-44
7.1467837e-43
2.0566597e-42
2.1272093e-42
1.5506262e-42
7.9534444e-43
2.7292448e-43
6.4569883e-44
1.0570584e-43
9.8006684e-42
2.22463e-39
5.4148698e-37
1.6039957e-34
3.2652743e-32
4.4497848e-30
4.7971346e-28
4.3457919e-26
3.3976939e-24
2.3219213e-22
1.3872431e-20
7.2476319e-19
3.5855338e-17
2.0919575e-15
1.1257414e-13
2.2889267e-12
1.4350462e-11
3.6831914e-11
5.2418659e-11
4.947667e-11
4.360825e-11
3.0039795e-10
2.2462714e-09
1.0583694e-10
1.8890282e-10
2.0160541e-09
3.060496e-10
3.7957514e-10
2.1841692e-09
5.4309904e-05
8.3866637e-05
8.3990922e-05
8.3980079e-05
8.3949567e-05
4.2390284e-05
4.409928e-07
9.4163085e-08
8.168783e-08
8.6696842e-08
1.6992019e-06
1.7134645e-05
4.5115575e-07
4.3235585e-07
3.512045e-08
3.2098916e-08
3.3031585e-08
4.3498941e-07
6.9190729e-07
1.1694012e-07
1.3205761e-07
2.0069084e-10
5.8427607e-11
1.6960434e-11
1.3663729e-11
1.82941e-11
3.5691011e-11
2.6842061e-11
5.810737e-12
6.706194e-12
3.4206949e-12
1.6965995e-18
6.0233309e-17
-2.2462935e-18
1.027154e-20
9.5297108e-24
6.1558496e-26
6.9744993e-28
8.107554e-30
1.16594e-31
1.4017804e-33
1.080879e-35
6.8454551e-38
5.0948999e-39
4.5291922e-39
4.0270992e-39
3.9594698e-39
3.8520928e-39
2.2024984e-39
1.5111869e-39
2.2299047e-39
2.1800298e-38
1.2178584e-36
5.7744194e-35
1.9960224e-33
5.1647538e-32
1.0187855e-30
1.5211576e-29
1.5306584e-28
7.302487e-28
1.1942903e-27
1.1750788e-42
3.2640246e-42
5.101563e-41
1.5675851e-40
1.6563345e-40
1.20437e-40
6.193095e-41
2.0609095e-41
5.6525178e-42
5.7239773e-42
2.9367369e-40
8.0427389e-38
1.4569244e-35
2.0428813e-33
2.4281234e-31
2.4580004e-29
2.1458057e-27
1.629423e-25
1.0807022e-23
6.2527111e-22
3.1268244e-20
1.3355386e-18
4.9826854e-17
1.7777475e-15
6.0004425e-14
1.2842138e-12
1.2032771e-11
5.3705497e-11
1.5718733e-10
3.5893655e-10
5.0908933e-10
6.1593167e-10
8.9285289e-09
7.0178513e-08
1.3098454e-07
2.3145634e-09
2.6467267e-09
2.1841793e-09
7.7550601e-07
1.142614e-06
6.919863e-06
4.7048757e-05
6.639901e-05
3.7541765e-05
5.3310776e-06
3.096319e-07
1.1164972e-07
9.4259346e-08
1.2494722e-07
5.6744189e-06
1.7300405e-05
5.0257775e-07
4.9809747e-07
5.1812152e-08
3.2115393e-08
3.186979e-08
3.4137099e-08
4.1904534e-08
7.9139113e-08
4.4910008e-08
1.6086396e-09
1.1070509e-10
8.6845337e-12
1.2684814e-11
1.256315e-11
1.2563414e-11
3.0845016e-11
9.3836059e-11
1.3507107e-10
1.1884509e-10
1.2309213e-34
3.5823548e-17
-8.5789155e-18
3.1934443e-20
1.4302042e-22
5.7755939e-24
8.2962556e-26
1.03532e-27
9.8763585e-30
6.7409342e-32
3.2531468e-34
2.1312992e-36
2.4932001e-37
2.8745639e-37
4.0626253e-37
5.0451118e-37
4.9851195e-37
2.4481665e-37
1.7251752e-37
2.8478275e-37
4.708839e-36
2.3875914e-34
9.5177493e-33
2.8295549e-31
6.4611027e-30
1.1546078e-28
1.5895734e-27
1.4768049e-26
6.5746746e-26
1.0514519e-25
1.4734023e-40
2.7423831e-40
3.448443e-39
1.1343868e-38
1.2321852e-38
8.9380961e-39
4.5855716e-39
1.5443736e-39
3.5236423e-40
1.4024727e-40
7.8846487e-39
2.6356539e-37
2.5721839e-35
3.6101737e-33
4.3029402e-31
4.3830008e-29
3.8630486e-27
2.9673523e-25
1.9980633e-23
1.2051942e-21
6.5228696e-20
2.9150368e-18
9.8706313e-17
2.8700685e-15
1.2356706e-13
5.6576278e-12
4.0677491e-11
5.6649254e-11
1.5663674e-10
1.3960493e-09
6.593102e-09
4.2125241e-09
7.4650862e-09
7.3331161e-07
1.3719931e-06
2.8897947e-07
1.017968e-06
1.9786838e-08
5.1438919e-06
2.6737199e-05
2.3661879e-05
1.6757046e-05
1.6480475e-05
1.021419e-05
2.6389405e-06
7.4448115e-07
7.0416107e-07
1.1168543e-07
1.3095643e-07
1.7390337e-05
1.7745358e-05
4.5681431e-06
3.4844962e-07
4.0794755e-08
3.2115393e-08
3.2946493e-08
4.9248184e-07
9.138344e-08
1.0301244e-07
8.7663409e-08
4.4539706e-08
1.9776347e-09
-3.277642e-13
1.3580426e-11
7.7170544e-11
1.2563413e-11
3.0745998e-11
7.0830533e-11
2.502911e-10
2.5033618e-10
-4.1848437e-18
9.3181793e-19
-1.4722564e-17
2.6221184e-19
2.7230512e-21
1.1620525e-22
1.3860555e-24
1.7204949e-26
1.6608589e-28
1.1657186e-30
6.7924602e-33
2.6615731e-35
1.5481015e-35
3.0841396e-35
5.1001746e-35
6.0906705e-35
5.2829588e-35
2.3102795e-35
1.7133532e-35
3.6195022e-35
8.6687176e-34
3.8317084e-32
1.3010167e-30
3.3572643e-29
6.8162563e-28
1.111143e-26
1.4181277e-25
1.2233826e-24
5.1223704e-24
8.0213375e-24
1.7753246e-38
2.4952404e-38
2.2157736e-37
7.7917647e-37
8.7670401e-37
6.3535082e-37
3.2480744e-37
1.0988522e-37
2.4025593e-38
1.3359479e-38
2.7749619e-37
3.6804394e-37