/*--------------------------------*- C++ -*----------------------------------*\
  =========                 |
  \\      /  F ield         | OpenFOAM: The Open Source CFD Toolbox
   \\    /   O peration     | Website:  https://openfoam.org
    \\  /    A nd           | Version:  9
     \\/     M anipulation  |
\*---------------------------------------------------------------------------*/
FoamFile
{
    format      ascii;
    class       volScalarField;
    location    "0.78";
    object      p;
}
// * * * * * * * * * * * * * * * * * * * * * * * * * * * * * * * * * * * * * //

dimensions      [1 -1 -2 0 0 0 0];

internalField   nonuniform List<scalar> 
10000
(
0
-0.019868393
-0.053696221
-0.099854921
-0.15942442
-0.23202812
-0.31749485
-0.41560683
-0.52605547
-0.64857042
-0.78273844
-0.92816441
-1.084347
-1.2507222
-1.4267321
-1.6117022
-1.8049207
-2.005664
-2.2131293
-2.4265193
-2.6450577
-2.8679331
-3.0943684
-3.3236548
-3.5550903
-3.7880157
-4.0218913
-4.2562523
-4.4906508
-4.7246794
-4.9579588
-5.1900368
-5.4202148
-5.6473101
-5.871347
-6.0921268
-6.3083151
-6.5180647
-6.7189906
-6.9080173
-7.0812164
-7.2335435
-7.3582874
-7.4553582
-7.5172799
-7.5383331
-7.5083387
-7.4264766
-7.3049103
-7.1678072
-7.0452308
-6.9894822
-7.0549556
-7.2540364
-7.5491449
-7.8786119
-8.1809051
-8.3989658
-8.5132287
-8.5265595
-8.4281049
-8.2046246
-7.8944361
-7.5363243
-7.1511796
-6.7525043
-6.3522626
-5.9575148
-5.570888
-5.1931379
-4.8240363
-4.4629087
-4.109096
-3.7621812
-3.4219963
-3.0886279
-2.7623455
-2.4435484
-2.132754
-1.8305565
-1.5375819
-1.254469
-0.9818308
-0.72032527
-0.4705946
-0.23325416
-0.0089719652
0.20151207
0.39755832
0.5787019
0.74463184
0.89516287
1.0301008
1.1494175
1.2530241
1.3407156
1.4123338
1.4673666
1.5061047
1.5300983
0.012354163
-0.0073175429
-0.04114097
-0.087326827
-0.14700164
-0.21972587
-0.30536379
-0.40362616
-0.51430002
-0.6370183
-0.77144782
-0.91715346
-1.0736155
-1.2403446
-1.4167304
-1.6021052
-1.7957947
-1.9970296
-2.2050222
-2.4190054
-2.6381562
-2.86166
-3.0887764
-3.3187627
-3.5508819
-3.7845121
-4.0191375
-4.2542786
-4.4895233
-4.7245614
-4.9591094
-5.1928268
-5.4252816
-5.655964
-5.8845504
-6.1104102
-6.3323059
-6.5484493
-6.7564307
-6.9531398
-7.1347221
-7.2966277
-7.4341388
-7.544459
-7.6115795
-7.6305073
-7.5956058
-7.5049922
-7.3681023
-7.2074854
-7.0585026
-6.9665185
-7.0330068
-7.2590903
-7.6104694
-8.0099321
-8.3723964
-8.6023879
-8.717426
-8.7511179
-8.6636054
-8.4342075
-8.101623
-7.7155174
-7.3047299
-6.8840909
-6.4658873
-6.055911
-5.655819
-5.2660572
-4.8862452
-4.5155659
-4.1532635
-3.7988384
-3.4520187
-3.1127599
-2.7812321
-2.4577566
-2.142773
-1.8368161
-1.5404649
-1.2543274
-0.97901695
-0.71514602
-0.46335092
-0.2242377
0.0015978503
0.2135733
0.41114317
0.59384826
0.76136915
0.91345751
1.0499219
1.1706184
1.2754108
1.3641143
1.4366865
1.492797
1.5323268
1.5580588
0.041492333
0.021670416
-0.012307864
-0.058680311
-0.1186178
-0.19169586
-0.2777055
-0.37646584
-0.48766731
-0.61102467
-0.74617784
-0.89266406
-1.0500452
-1.2177869
-1.3952751
-1.5818806
-1.7768807
-1.9795052
-2.1889925
-2.4045152
-2.6252202
-2.8503146
-3.0790096
-3.3104969
-3.544049
-3.7790577
-4.0149766
-4.251339
-4.4878159
-4.7241854
-4.9602618
-5.1958806
-5.4308776
-5.6650297
-5.8980221
-6.1292531
-6.3576568
-6.5815864
-6.798724
-7.0060368
-7.1997512
-7.3753469
-7.5276625
-7.6507702
-7.7355473
-7.7723521
-7.7471471
-7.6546775
-7.5064308
-7.3296652
-7.1547443
-7.0035439
-7.0900086
-7.343833
-7.7644869
-8.2818473
-8.7557846
-8.9756426
-9.0450354
-9.1122577
-9.0359814
-8.7460468
-8.3401834
-7.9027562
-7.4539639
-7.0019351
-6.5610856
-6.1343416
-5.721024
-5.3205385
-4.9316718
-4.5529931
-4.1834053
-3.8222444
-3.4691787
-3.1241281
-2.7872303
-2.458801
-2.1392741
-1.8291545
-1.5290167
-1.2394482
-0.96106218
-0.69444393
-0.44021184
-0.19895873
0.028826417
0.24261092
0.44189688
0.62628079
0.79542619
0.94903723
1.0869182
1.2089093
1.3148664
1.4047274
1.4784733
1.5361621
1.5763043
1.6012622
0.082756128
0.062742179
0.028474771
-0.018223981
-0.078612789
-0.15219058
-0.23885531
-0.33834218
-0.4504177
-0.57479027
-0.71105891
-0.85884188
-1.0176771
-1.1870113
-1.3662703
-1.5547892
-1.7518301
-1.956648
-2.1684261
-2.3862846
-2.6093772
-2.8368673
-3.0678762
-3.30156
-3.5371822
-3.7740814
-4.0116799
-4.2495568
-4.487462
-4.7252629
-4.9629314
-5.2005525
-5.438264
-5.6761511
-5.9141564
-6.1519358
-6.3886725
-6.6229255
-6.8525299
-7.0745651
-7.2853588
-7.4804318
-7.6544257
-7.8008687
-7.911826
-7.9754908
-7.9758806
-7.8943253
-7.7410222
-7.5752522
-7.3552986
-7.1398967
-7.4121335
-7.5614796
-7.5033719
-7.9360536
-9.1138823
-9.7072399
-9.7227347
-9.7098376
-9.667652
-9.2580497
-8.7188614
-8.1639648
-7.6417627
-7.1444339
-6.6721979
-6.2215261
-5.7901939
-5.3759113
-4.9759294
-4.5879076
-4.2101761
-3.8416953
-3.481907
-3.1305951
-2.7878189
-2.4538593
-2.1291334
-1.8141669
-1.5095105
-1.215746
-0.93350713
-0.66337933
-0.40597127
-0.16192213
0.068470587
0.28467345
0.48620116
0.67265589
0.84371217
0.99907265
1.1385354
1.2619261
1.369049
1.4598058
1.5339604
1.5912338
1.6329944
1.6593516
0.13725259
0.11705093
0.082452606
0.035301604
-0.025631354
-0.099925613
-0.18741389
-0.28790234
-0.40116343
-0.52686405
-0.6646794
-0.81422012
-0.97500393
-1.1465185
-1.3281648
-1.5192573
-1.7190857
-1.9268624
-2.1417054
-2.3627302
-2.5890533
-2.8197317
-3.0538124
-3.2904169
-3.5287357
-3.7680301
-4.0077139
-4.2474051
-4.4869061
-4.7261992
-4.9654778
-5.2051341
-5.4456634
-5.6875586
-5.9311988
-6.1766644
-6.4235146
-6.6706166
-6.9160329
-7.1569846
-7.3899246
-7.6105911
-7.8138843
-7.9941142
-8.1467504
-8.2656658
-8.3227288
-8.2673338
-8.0794421
-7.8679667
-7.5936476
-7.4367574
-7.1852769
-7.4894402
-8.1579305
-8.932473
-10.354232
-11.192377
-11.484466
-9.9218485
-8.5999225
-9.6492278
-9.0883424
-8.4173154
-7.8363533
-7.3100992
-6.8079508
-6.3291317
-5.8756272
-5.4441935
-5.0303323
-4.6305512
-4.2425299
-3.8647816
-3.4964564
-3.1371741
-2.7868955
-2.4458675
-2.1144801
-1.7932638
-1.4827812
-1.1836145
-0.89639869
-0.62168728
-0.3601095
-0.11260936
0.12124118
0.34058542
0.5449481
0.73397894
0.90736318
1.064835
1.2062123
1.3312937
1.4398947
1.5319225
1.6072462
1.6657169
1.707669
1.7345196
0.20533447
0.18492524
0.14991854
0.10227458
0.040627505
-0.034510105
-0.1230469
-0.22480375
-0.33951227
-0.46691339
-0.60669036
-0.75843452
-0.9217073
-1.0959876
-1.280656
-1.4750575
-1.6784575
-1.8900007
-2.1087913
-2.3339179
-2.5643894
-2.7991578
-3.0372047
-3.2775553
-3.5192746
-3.761545
-4.0037512
-4.2454936
-4.4866049
-4.7272108
-4.9677659
-5.2090187
-5.4519313
-5.6975674
-5.9469329
-6.2007277
-6.4590739
-6.7212918
-6.98573
-7.2497218
-7.5098137
-7.7621223
-8.0021122
-8.225058
-8.4358639
-8.6536308
-8.8313113
-8.8026996
-8.3184287
-7.5200199
-7.1730115
-7.4732396
-8.6179212
-9.5683874
-10.730536
-12.205005
-13.643958
-14.395871
-14.780159
-13.866121
-11.356461
-10.122934
-9.4806601
-8.8246962
-8.0568819
-7.4934835
-6.9585802
-6.4500053
-5.9721636
-5.5209858
-5.0910768
-4.677689
-4.2776281
-3.8889187
-3.5104228
-3.1415952
-2.782327
-2.4328086
-2.093429
-1.7647063
-1.4472227
-1.1415991
-0.8484873
-0.56826101
-0.30129231
-0.050550808
0.18781204
0.41091467
0.61858714
0.8105738
0.9866247
1.1464791
1.2899864
1.4169407
1.5272179
1.6206601
1.6971777
1.7566553
1.7991938
1.8264405
0.28709474
0.26641618
0.23099097
0.18272811
0.12028632
0.044129996
-0.045669104
-0.14889638
-0.265357
-0.39480971
-0.53692464
-0.69134193
-0.85762723
-1.0352448
-1.2236134
-1.4220725
-1.6298273
-1.8460074
-2.0697036
-2.2999079
-2.5355105
-2.7753773
-3.0183769
-3.2633703
-3.5092734
-3.7551617
-4.0003199
-4.2442709
-4.4868627
-4.7283681
-4.9695219
-5.2114953
-5.4558538
-5.70443
-5.9590848
-6.2214011
-6.4923198
-6.771792
-7.0584954
-7.3497634
-7.6420197
-7.9316091
-8.2143704
-8.4872014
-8.7723639
-9.1373706
-9.5168495
-9.5240829
-8.1421098
-8.4491577
-9.4921472
-9.8582517
-10.3
-11.458615
-13.123335
-15.187595
-17.20558
-18.647694
-19.123706
-18.374577
-16.286576
-13.414424
-10.478019
-9.5918055
-8.4769441
-7.7289145
-7.1239489
-6.5837316
-6.0789253
-5.6045462
-5.1560718
-4.7271801
-4.3134334
-3.9122646
-3.5221966
-3.1424718
-2.7729001
-2.4136375
-2.0650688
-1.7277236
-1.4021917
-1.0891285
-0.78941977
-0.50306441
-0.2308724
0.026261701
0.26878599
0.49591792
0.70729162
0.90260457
1.0816279
1.2441217
1.3899931
1.5190211
1.6310797
1.7260425
1.803862
1.8643952
1.9077127
1.9353399
0.3826464
0.36170833
0.32575882
0.27684228
0.21348178
0.13615105
0.04495194
-0.059977047
-0.1784659
-0.31026732
-0.45510589
-0.61263953
-0.78242745
-0.96398105
-1.1567356
-1.3599844
-1.5729224
-1.7946851
-2.0242896
-2.2606126
-2.5024531
-2.7485606
-2.9976181
-3.2482851
-3.4992981
-3.7495446
-3.9981166
-4.2444027
-4.4882224
-4.7299452
-4.9705863
-5.2118231
-5.455983
-5.7059085
-5.9646136
-6.2349205
-6.5189732
-6.8176591
-7.1300366
-7.4530994
-7.7824752
-8.1139152
-8.4431313
-8.7697697
-9.1290245
-9.6178995
-10.135794
-9.3627204
-8.8237155
-10.016949
-10.240813
-10.744084
-11.977547
-13.69078
-15.984526
-18.803449
-21.588551
-23.791043
-24.57221
-23.508495
-20.739119
-17.471963
-12.330494
-9.5084808
-9.026956
-8.0339992
-7.3301926
-6.7401881
-6.1993211
-5.6965423
-5.2261281
-4.7794821
-4.350285
-3.9350974
-3.5319863
-3.1399582
-2.7586966
-2.3883549
-2.0293527
-1.6821907
-1.3474917
-1.0257114
-0.71910726
-0.42541069
-0.14678613
0.11641548
0.3640733
0.59579865
0.81128229
1.0102654
1.1925616
1.3579885
1.5064214
1.6377137
1.751724
1.84837
1.9275973
1.9892618
2.0334281
2.0614673
0.49221648
0.47094205
0.43446714
0.38481215
0.32043035
0.24184791
0.14908368
0.042250033
-0.078483303
-0.21293116
-0.3608486
-0.52189753
-0.69569468
-0.88178739
-1.0795841
-1.2883811
-1.5074014
-1.7357378
-1.9723113
-2.2159189
-2.4652582
-2.7188973
-2.9752936
-3.2328789
-3.4901326
-3.7456419
-3.9982107
-4.2470078
-4.4917191
-4.7326885
-4.971231
-5.2095936
-5.4509785
-5.6995727
-5.9599313
-6.2366523
-6.5336931
-6.8533954
-7.1953151
-7.5554892
-7.9272277
-8.3040893
-8.6804718
-9.0573923
-9.4751107
-9.9946727
-10.502886
-9.0903759
-10.495382
-10.829588
-11.219153
-12.109507
-13.513077
-16.126557
-19.160229
-22.551515
-25.883509
-28.958836
-30.14146
-28.788698
-25.110949
-20.261822
-15.078203
-10.491223
-9.7562957
-8.4881355
-7.6022938
-6.9239602
-6.332854
-5.795627
-5.3003258
-4.833968
-4.3877429
-3.957087
-3.539499
-3.1337228
-2.739348
-2.3565183
-1.985807
-1.6275926
-1.2828578
-0.95183251
-0.6357478
-0.33451521
-0.048862545
0.22077355
0.47412646
0.71091506
0.93089907
1.1338963
1.3197118
1.488265
1.6394718
1.7731884
1.8893214
1.9877887
2.0685288
2.1314349
2.1765342
2.2051235
0.61596892
0.59438278
0.55731299
0.50686689
0.44143569
0.36149316
0.26703035
0.15815331
0.034962851
-0.10239407
-0.25368922
-0.41865432
-0.59696081
-0.78814929
-0.99164679
-1.2068031
-1.4328347
-1.6687692
-1.9134749
-2.1656805
-2.4239324
-2.6865821
-2.9518485
-3.2178782
-3.482783
-3.7447319
-4.002118
-4.2537456
-4.4990114
-4.7379272
-4.972221
-5.2047406
-5.4396701
-5.6829057
-5.9409476
-6.221115
-6.5299825
-6.872215
-7.2483492
-7.6529625
-8.0741396
-8.5009991
-8.9235297
-9.3308072
-9.7410993
-10.191556
-10.168117
-10.358177
-11.105758
-11.354586
-11.926433
-12.908037
-14.926249
-17.851944
-19.202905
-23.671293
-29.223545
-33.088602
-34.629122
-33.085835
-28.68943
-22.963644
-17.517671
-11.545877
-9.8924249
-8.9031964
-7.8632746
-7.1094162
-6.466963
-5.8952106
-5.3749483
-4.8882626
-4.4242134
-3.9770503
-3.5437733
-3.1229407
-2.7140054
-2.317206
-1.9337177
-1.5631815
-1.2069408
-0.86556856
-0.53978532
-0.22997519
0.06337673
0.33993738
0.59943449
0.84167501
1.0664671
1.2737326
1.4633247
1.6352043
1.7893482
1.92565
2.0440331
2.1444528
2.2268547
2.2910978
2.3372326
2.3665982
0.7541589
0.73222289
0.69453984
0.64332129
0.57677196
0.4953952
0.39916533
0.28811374
0.16229608
0.021832674
-0.13312931
-0.30239232
-0.48564135
-0.68245608
-0.892342
-1.1146774
-1.3486511
-1.5932752
-1.8473967
-2.1096455
-2.3783939
-2.6517849
-2.9277709
-3.204127
-3.4784903
-3.7484827
-4.0118959
-4.2669426
-4.5127004
-4.7478128
-4.9750618
-5.1977326
-5.4213999
-5.6532549
-5.9028862
-6.1810374
-6.4985211
-6.8644817
-7.281838
-7.7434888
-8.2261488
-8.7124924
-9.1885641
-9.621798
-9.9774733
-10.248947
-9.9214939
-10.678108
-11.217461
-11.394192
-12.063585
-13.261557
-15.595566
-18.117782
-20.81017
-24.904727
-31.148459
-35.593841
-37.245553
-35.533283
-30.721498
-24.51094
-18.103246
-12.116231
-10.443823
-9.2261078
-8.0927542
-7.2708162
-6.5859081
-5.9865931
-5.4448462
-4.9393366
-4.4578104
-3.9936751
-3.5437725
-3.1068552
-2.6818203
-2.2698495
-1.8716106
-1.4877107
-1.119039
-0.76630881
-0.43016501
-0.11105798
0.19059624
0.47454876
0.74055729
0.98855203
1.2184276
1.4301791
1.623684
1.7990555
1.9562417
2.0952523
2.216024
2.3185193
2.4027109
2.4684092
2.5157118
2.5461411
0.90699957
0.88473204
0.84646752
0.79444176
0.72674776
0.6439254
0.54586658
0.43255713
0.30401534
0.16026852
0.0013826274
-0.17247524
-0.36104894
-0.56402248
-0.78096469
-1.0112639
-1.2541342
-1.5086201
-1.7735354
-2.0474017
-2.3284469
-2.6146151
-2.9035452
-3.1925646
-3.4787421
-3.7589929
-4.0302362
-4.2896008
-4.5346678
-4.7657901
-4.9831108
-5.19077
-5.3958462
-5.60845
-5.8410875
-6.108443
-6.4290437
-6.8196963
-7.2873473
-7.824252
-8.3910385
-8.9578129
-9.5084561
-9.9835771
-10.29353
-10.389481
-10.576707
-10.747209
-11.450054
-11.132164
-11.868993
-13.003639
-15.556074
-18.016359
-21.624701
-26.062754
-31.876072
-36.248068
-37.64162
-35.769867
-30.86953
-24.617362
-18.602964
-12.501237
-11.160698
-9.3912115
-8.222472
-7.3742072
-6.6739433
-6.0612191
-5.5049298
-4.9844872
-4.4870481
-4.0060503
-3.5385751
-3.0837449
-2.6416125
-2.213036
-1.7989643
-1.4003655
-1.018183
-0.6531507
-0.30588953
0.023124566
0.3335597
0.62526476
0.89809256
1.1520442
1.3871464
1.6035134
1.8010666
1.9800011
2.1403253
2.2821439
2.4054026
2.5101045
2.5962192
2.6635069
2.7121154
2.7439264
1.074765
1.0522204
1.0133349
0.96051733
0.89171007
0.80743581
0.70754167
0.59196829
0.46063198
0.31347077
0.15050774
-0.028167529
-0.22242548
-0.43204312
-0.65663612
-0.89565937
-1.1484119
-1.4139735
-1.691129
-1.9783412
-2.273735
-2.5750476
-2.8795738
-3.184157
-3.4852074
-3.7787653
-4.0606278
-4.3266802
-4.5729345
-4.7980014
-5.0017871
-5.1881526
-5.3653943
-5.5466844
-5.7499513
-5.9954605
-6.3112651
-6.7248491
-7.247516
-7.8769718
-8.5912707
-9.265347
-9.920393
-10.495314
-10.844367
-10.84691
-10.774356
-11.216423
-11.981952
-8.9186945
-11.287868
-11.94206
-14.477493
-17.93617
-21.006556
-26.120124
-30.97493
-34.925125
-35.910184
-33.907159
-29.225486
-23.445894
-16.408667
-12.318829
-10.940954
-9.3332304
-8.2329005
-7.4142731
-6.7269355
-6.1171135
-5.5555163
-5.0238941
-4.5115957
-4.0134675
-3.5274794
-3.053534
-2.59253
-2.1457517
-1.7144655
-1.2999072
-0.90313143
-0.52493437
-0.16591567
0.17350628
0.49310754
0.79280688
1.0726294
1.3326649
1.5730913
1.7940694
1.9957155
2.1782343
2.3416821
2.4864482
2.6122753
2.7192811
2.8074472
2.8764578
2.9265294
2.9600674
1.257731
1.2348964
1.1954006
1.1418505
1.0719599
0.98629227
0.88463765
0.76682705
0.6326854
0.48209818
0.31499637
0.13132583
-0.068901159
-0.28554003
-0.5183101
-0.76679841
-1.0304025
-1.3082509
-1.5991619
-1.9016093
-2.2136435
-2.5328019
-2.8560545
-3.1797654
-3.4996304
-3.8106767
-4.1072598
-4.3832812
-4.6330815
-4.8523155
-5.0392416
-5.1970925
-5.3352064
-5.4694788
-5.6219857
-5.8273356
-6.1203732
-6.5592247
-7.16925
-7.9470299
-8.8329684
-9.661214
-10.436857
-11.17759
-11.540786
-11.807792
-11.322166
-11.506986
-9.6017389
-2.5945724
-6.5563742
-10.179458
-11.932011
-16.897986
-19.249297
-24.520909
-28.884755
-32.090397
-32.625085
-30.522484
-26.279572
-21.298985
-15.148544
-11.819599
-10.410497
-9.0765713
-8.1409774
-7.3991494
-6.7510845
-6.1581982
-5.5986579
-5.059074
-4.5324771
-4.0162731
-3.5101335
-3.0152457
-2.5334432
-2.066647
-1.6166088
-1.1848105
-0.77241677
-0.3802743
-0.008941814
0.34125517
0.67023322
0.97804676
1.2648803
1.5309707
1.7766553
2.0021902
2.2078649
2.3939882
2.5608581
2.7082733
2.8366583
2.9460397
3.0363858
3.107229
3.1589622
3.1945773
1.4561289
1.4330213
1.3929179
1.3386771
1.2678046
1.1808827
1.0775778
0.95762975
0.820805
0.66688327
0.49564067
0.30689243
0.10054804
-0.123383
-0.36479071
-0.62341209
-0.89876127
-1.1900864
-1.4963247
-1.816012
-2.1471666
-2.4871916
-2.8328005
-3.1799126
-3.5235249
-3.8576698
-4.1753342
-4.4665164
-4.7241931
-4.9396334
-5.1076511
-5.2299369
-5.3161904
-5.3852299
-5.4640752
-5.5982194
-5.8338449
-6.2864953
-6.9512024
-7.9214343
-9.164639
-10.173227
-11.008342
-11.910189
-12.693165
-12.859932
-12.063969
-11.345987
-7.9154983
-1.8990345
-2.7463208
-7.8925937
-9.5689324
-14.18658
-17.07773
-21.473207
-26.730969
-28.440304
-28.484734
-26.345136
-23.188491
-17.355247
-13.638479
-11.295115
-9.8447407
-8.7907636
-8.0201172
-7.3656785
-6.7662623
-6.1958603
-5.6408738
-5.093615
-4.5514895
-4.0150158
-3.4861822
-2.9678448
-2.462941
-1.9741063
-1.5036487
-1.0533047
-0.62433381
-0.21761494
0.16641288
0.52758773
0.86598773
1.1818575
1.4755318
1.7474903
1.9982178
2.2281218
2.4376221
2.627136
2.7970321
2.9473928
3.0784227
3.1902714
3.2829195
3.3557319
3.4093466
3.4473845
1.6703971
1.6468596
1.6060448
1.551228
1.4795491
1.3915501
1.2867914
1.1649465
1.025666
0.8685703
0.69329756
0.49954596
0.28706856
0.055676879
-0.1947067
-0.46398843
-0.75187093
-1.0578126
-1.3809348
-1.7198968
-2.072781
-2.4369767
-2.8090484
-3.1845584
-3.5578632
-3.9221717
-4.2704515
-4.5842782
-4.8582453
-5.0758045
-5.2253135
-5.3061189
-5.3284341
-5.3110065
-5.2905292
-5.2994088
-5.3526062
-5.6531571
-6.4568634
-7.6934522
-9.6491639
-10.840203
-11.58909
-12.517216
-13.52986
-13.535865
-12.310976
-10.758012
-8.9167627
-0.18201915
-3.9884794
-6.6453934
-7.9921654
-11.67156
-14.436593
-18.728118
-23.14288
-24.507964
-24.851968
-22.252776
-18.261831
-14.976442
-12.218998
-10.472636
-9.3416356
-8.5470877
-7.920157
-7.3475487
-6.7945791
-6.2443816
-5.6910495
-5.1326683
-4.5711543
-4.0104735
-3.4552239
-2.9100757
-2.3792141
-1.8660684
-1.3734348
-0.90328735
-0.45692475
-0.035132451
0.36179377
0.73388636
1.0814814
1.4050967
1.7052887
1.982719
2.2381065
2.472018
2.6850674
2.8777781
3.0505718
3.2036982
3.3373464
3.4517492
3.5468155
3.6217475
3.6775067
3.7183481
1.9021015
1.8765321
1.8348609
1.7796708
1.7074218
1.6186298
1.5127598
1.3893608
1.2479237
1.0879363
0.90891301
0.71038246
0.49188581
0.25302526
-0.0064805784
-0.28677547
-0.58783897
-0.90940564
-1.250847
-1.6110583
-1.9883378
-2.3802121
-2.7832427
-3.1927824
-3.6025522
-4.004178
-4.3862364
-4.7428131
-5.0484335
-5.2793922
-5.4137005
-5.4485359
-5.3988817
-5.2795184
-5.1291791
-4.9432969
-4.8467715
-4.4304922
-5.4987701
-7.299776
-9.9036684
-9.4607808
-11.003362
-12.840115
-13.799751
-13.379927
-11.82185
-9.7696511
-7.7751911
1.5944447
-5.2797468
-5.9334336
-7.1969036
-9.8807694
-12.598654
-16.170682
-19.387093
-20.324919
-19.103806
-16.884083
-16.068518
-12.977748
-10.996394
-9.7906265
-8.9868565
-8.3919637
-7.8786005
-7.3742934
-6.8575989
-6.3189381
-5.75919
-5.1821376
-4.5943684
-4.0033927
-3.4165129
-2.8402186
-2.2799447
-1.7399409
-1.2233053
-0.73216391
-0.26778381
0.16926956
0.5789584
0.96164388
1.3179717
1.6487226
1.954805
2.2370876
2.4965618
2.7339692
2.9501263
3.1457309
3.321186
3.476896
3.6130973
3.7301006
3.8276922
3.9048977
3.9631157
4.0071879
2.1455749
2.1208135
2.0791226
2.0240592
1.9516386
1.8624885
1.755941
1.6314017
1.4882378
1.3258153
1.1434765
0.94053603
0.71631937
0.47020874
0.20165752
-0.089795352
-0.40446515
-0.74242445
-1.1034046
-1.4866938
-1.8909821
-2.3141173
-2.7528855
-3.2027822
-3.6574145
-4.1081143
-4.5445829
-4.9549612
-5.3130002
-5.5777602
-5.7034372
-5.6894798
-5.5640439
-5.3408861
-5.0275984
-4.5726231
-4.212137
-4.0503934
-3.9710478
-1.675281
-5.6330911
-8.6933194
-10.075049
-10.357681
-12.574644
-13.708702
-11.393291
-8.5225283
-6.2267915
-4.4982541
-4.3690549
-5.332319
-6.8026809
-9.4046595
-12.831451
-15.600702
-18.02884
-18.901875
-20.179437
-18.032987
-14.712016
-11.965409
-10.342
-9.3938182
-8.807969
-8.3604051
-7.931381
-7.4756059
-6.9773445
-6.4350382
-5.8553454
-5.2478089
-4.6236531
-3.993925
-3.3685569
-2.7557836
-2.1621255
-1.5924453
-1.0500319
-0.53695778
-0.054238843
0.39793957
0.81989918
1.2124513
1.576643
1.913629
2.224659
2.5109461
2.7736863
3.0138964
3.232549
3.4305503
3.6083688
3.7664409
3.9051214
4.0247627
4.1249924
4.2046382
4.2656792
4.3134824
2.4047451
2.3804636
2.3389076
2.2845579
2.2124585
2.1234419
2.0167141
1.8915814
1.747293
1.5830472
1.3979801
1.1911982
0.96180581
0.70891281
0.43164128
0.12916589
-0.19921478
-0.55400909
-0.93545366
-1.3433931
-1.7770925
-2.234935
-2.7141834
-3.2108379
-3.7186507
-4.2291047
-4.7340849
-5.224528
-5.674173
-6.0150655
-6.1448554
-6.0865803
-5.8773476
-5.5716755
-5.0459498
-4.2087762
-3.4777296
-3.1592004
-4.3421994
-4.7924147
-6.427791
-10.113226
-11.77626
-12.238939
-15.374458
-14.556379
-11.189961
-7.1232334
-3.9819484
-2.4634639
-2.3203167
-4.3414588
-6.4923245
-9.6881228
-13.866675
-17.914217
-20.609663
-21.672736
-20.717942
-17.826584
-14.232232
-11.677894
-10.12332
-9.2941797
-8.8351798
-8.4852035
-8.1118391
-7.6782848
-7.1745823
-6.6070751
-5.9884839
-5.3342466
-4.6602175
-3.9808923
-3.3085792
-2.6530413
-2.0216339
-1.4194523
-0.84969727
-0.31409914
0.18684313
0.6534858
1.0867177
1.4879457
1.8587063
2.2006388
2.5153584
2.8044747
3.0694373
3.3115525
3.5319122
3.731737
3.9114401
4.071577
4.2126299
4.33496
4.4379464
4.5202229
4.5845162
4.6366358
2.6787851
2.6554139
2.6142536
2.5614122
2.4900612
2.4017076
2.2954274
2.1704143
2.0257498
1.8604431
1.6734394
1.4636341
1.2298665
0.97092307
0.68556395
0.37256447
0.030756095
-0.34093159
-0.74338585
-1.1771686
-1.6423421
-2.1381374
-2.6625525
-3.212244
-3.7809998
-4.3594842
-4.9435876
-5.5437392
-6.1466294
-6.6232096
-6.7562501
-6.6678708
-6.4150378
-6.0449986
-5.2081512
-4.0002123
-2.7049668
-1.7237401
-2.2777306
-3.443005
-7.4807476
-13.766537
-16.691655
-19.8964
-18.54083
-15.711755
-10.355501
-5.034406
-1.7559149
-0.82205786
-1.0301989
-3.6755941
-6.2668746
-10.388336
-16.044838
-21.028114
-23.463545
-23.490508
-22.668344
-19.29966
-14.363621
-11.411158
-10.022519
-9.392486
-9.0709956
-8.7965928
-8.4520855
-8.0081917
-7.4684507
-6.8475821
-6.1655801
-5.4439737
-4.7032338
-3.9611343
-3.2320105
-2.5267418
-1.8530175
-1.2157081
-0.61751428
-0.059397912
0.45897661
0.93877799
1.3817037
1.7898365
2.1653619
2.510457
2.8272384
3.1176542
3.3835223
3.6264419
3.8478576
4.0484638
4.2294417
4.3912947
4.5345684
4.659623
4.7655013
4.8506226
4.9186845
4.9758004
2.9670119
2.9448632
2.9060887
2.8548539
2.7844631
2.6974444
2.5924019
2.4683584
2.3242129
2.1588069
1.9708986
1.759136
1.5220565
1.2581083
0.96567015
0.64305826
0.28853824
-0.099640145
-0.52315813
-0.98347562
-1.4817058
-2.0183473
-2.5926103
-3.202213
-3.8396061
-4.4896828
-5.1630573
-5.9085013
-6.7180346
-7.28381
-7.5204615
-7.4646881
-7.2547161
-6.8329208
-5.6797571
-3.9285499
-2.0236355
-0.31111436
-2.1490545
-5.1385488
-10.863428
-16.534545
-21.87712
-25.09563
-25.629137
-21.133024
-11.774458
-4.3320441
-0.57571882
1.6342296
0.5094581
-2.8929972
-6.1357555
-11.715303
-20.474384
-28.383438
-29.550589
-26.966079
-27.377875
-23.608957
-14.923708
-11.093604
-10.145406
-9.7609102
-9.5782672
-9.3475754
-8.9865598
-8.4920337
-7.8765999
-7.1667647
-6.3908237
-5.5765408
-4.7489109
-3.9287182
-3.1318351
-2.3695736
-1.6492374
-0.9747947
-0.34784829
0.23192133
0.76607531
1.256893
1.7071296
2.1197094
2.4975822
2.843571
3.1603262
3.4501944
3.7153206
3.9575449
4.178527
4.3793712
4.5610446
4.7242032
4.8695272
4.9973366
5.1062473
5.1944645
5.2669452
5.3298447
3.2702534
3.2503848
3.2141559
3.1633672
3.0953114
3.0107292
2.9078687
2.7857915
2.6432482
2.4789237
2.2913673
2.0789608
1.8399385
1.5724015
1.2743053
0.94343746
0.57742054
0.17372532
-0.27030739
-0.75729115
-1.2897453
-1.8704383
-2.501025
-3.1804411
-3.9006662
-4.6394975
-5.4229302
-6.4626705
-7.8426596
-8.6648704
-8.7763704
-8.5797012
-8.5318994
-8.2702316
-6.9477826
-4.479908
-1.5706512
-0.55070645
-4.0622609
-9.4853814
-15.370317
-24.492825
-29.778097
-37.783354
-37.373047
-23.108519
-14.859443
-5.3090798
-0.58256803
1.5694781
0.64003514
-2.7560808
-6.1065135
-13.126647
-27.199548
-43.712238
-46.044404
-34.093849
-35.908831
-34.502627
-18.80735
-11.206435
-10.776781
-10.59268
-10.482312
-10.2183
-9.7704844
-9.1577373
-8.414286
-7.5715623
-6.6645742
-5.7273161
-4.7893507
-3.874023
-2.9979127
-2.1717147
-1.4013132
-0.688892
-0.034115834
0.56518974
1.1122708
1.6109041
2.0651319
2.4789425
2.856103
3.2001781
3.5143324
3.8014049
4.063847
4.3037395
4.5230343
4.7229426
4.9045332
5.0685306
5.2157098
5.3463042
5.4583819
5.5500006
5.6277108
5.6972979
3.5888366
3.571166
3.5371618
3.4882584
3.4227672
3.3416999
3.2419665
3.1230358
2.9833542
2.8214785
2.635753
2.4243035
2.1850587
1.9157442
1.6138471
1.2765837
0.9008869
0.48334979
0.020086557
-0.49299847
-1.0601448
-1.6882646
-2.3855802
-3.1563638
-3.9995331
-4.8605649
-5.7432231
-7.2576373
-9.6640135
-10.867017
-10.710326
-10.410131
-10.660263
-11.023029
-9.835671
-6.6659339
-3.5207362
-4.167451
-8.3734429
-15.037586
-24.840349
-33.759996
-46.504834
-45.716983
-51.117065
-39.38768
-19.55265
-6.6183178
-0.76826984
1.3974822
-0.22133671
-4.5882137
-8.9466796
-19.153719
-37.977648
-66.793027
-51.121204
-48.170818
-42.569305
-59.626445
-36.69548
-15.639376
-13.332813
-12.38953
-11.969234
-11.495344
-10.840049
-10.028474
-9.0919204
-8.0637914
-6.9817885
-5.8860612
-4.8113464
-3.7828041
-2.816268
-1.9203852
-1.0981631
-0.34876953
0.33105539
0.94609703
1.5018077
2.0038112
2.4576439
2.8685383
3.2412082
3.5799479
3.8885046
4.1701611
4.4276649
4.66333
4.8794197
5.0772044
5.2577897
5.4220318
5.5708305
5.7042271
5.8196134
5.9150187
5.9989114
6.0762518
3.9226163
3.9067745
3.8753171
3.8292093
3.7673301
3.6888746
3.5946134
3.4803364
3.3448738
3.1869887
3.0048382
2.7962745
2.5588936
2.2900199
1.9866619
1.6454578
1.2626157
0.8337482
0.35347017
-0.18409231
-0.78530349
-1.4667342
-2.2538668
-3.145074
-4.1582243
-5.3295944
-6.4268728
-8.1201239
-11.224273
-13.069149
-13.156074
-13.104385
-14.326141
-16.169289
-16.198301
-12.358488
-8.0464402
-7.0756742
-10.750663
-17.326862
-27.016651
-28.022015
-33.632751
-79.967725
-64.622275
-39.106844
-24.94672
-10.314095
-0.84313508
2.8923581
1.9372845
-10.679247
-12.198247
-14.169563
-41.686324
-80.441393
-103.01363
-66.405363
-32.352372
-58.539189
-58.398464
-23.737981
-18.425029
-15.542958
-14.096399
-13.18601
-12.200814
-11.097081
-9.9056461
-8.637701
-7.3301295
-6.0354499
-4.7950056
-3.6349656
-2.5684298
-1.5996268
-0.72663364
0.056018525
0.75568009
1.3805389
1.9387769
2.4382257
2.88611
3.2889793
3.6525989
3.9819858
4.2814698
4.5547157
4.8047862
5.0342191
5.2452765
5.4395098
5.6180604
5.7818943
5.9320326
6.0682304
6.187091
6.2867337
6.3779584
6.4643
4.2708461
4.2565787
4.2279842
4.1854001
4.1279162
4.0544413
3.9635011
3.8579807
3.7279062
3.5757752
3.3992577
3.1958499
2.9627933
2.6970177
2.3950785
2.0530545
1.6664127
1.2297354
0.73604789
0.17737911
-0.45602558
-1.1940485
-2.0875701
-3.1243204
-4.3162512
-5.8007794
-1.8146603
-1.8395221
-11.47231
-13.946804
-15.120741
-16.375605
-19.613901
-24.749083
-28.769299
-25.101491
-13.85368
-6.6400681
-5.6982347
-10.441333
-2.6975311
-3.0428536
-27.138087
-80.439445
-40.986165
-92.472398
457.40972
1274.3493
1848.1606
2068.3599
1821.4549
1623.0682
644.63197
-109.81594
-59.873705
-91.758383
-5.1265537
-18.900863
257.58
22.27924
-19.747973
-20.961868
-19.051894
-17.075464
-16.360652
-15.158604
-13.783936
-12.334092
-10.844918
-9.2822421
-7.6909014
-6.1483081
-4.7108302
-3.4029634
-2.2306774
-1.1900828
-0.27159212
0.53686758
1.2479975
1.8741693
2.4267791
2.916081
3.3511814
3.7399526
4.0891819
4.4046331
4.6911128
4.9526183
5.1924593
5.4134346
5.6174811
5.8066508
5.9820243
6.1446919
6.2958234
6.4348075
6.557317
6.6616867
6.761606
6.8583692
4.6322732
4.6194773
4.594128
4.5558645
4.5037957
4.436754
4.3532926
4.2523112
4.1319376
3.9879
3.8194534
3.623828
3.3979525
3.1384034
2.8413255
2.5022825
2.1160536
1.6763002
1.174749
0.60140355
-0.056392338
-0.83511859
-1.7935326
-2.8841466
-4.0244976
-4.980936
1.7172405
0.68125754
-9.954862
-13.336963
-15.778502
-19.092986
-25.012777
-33.551345
-43.519121
-41.111802
-20.189322
-4.1672037
3.2327496
3.628833
2.3443155
50.327933
367.11204
455.15114
1676.8637
3722.6534
5272.6955
5561.8351
5471.8617
5411.1787
5348.3726
5485.2538
5125.4485
4654.6792
3244.2599
-52.400438
-235.34025
10.81768
48.389421
63.580734
24.583872
2.4139008
-14.071741
-16.703946
-17.574626
-17.028545
-15.537305
-13.722751
-11.92755
-9.9986277
-8.0315414
-6.1825294
-4.5164963
-3.0501048
-1.773586
-0.66930894
0.28342231
1.1053816
1.8157978
2.4318271
2.9684036
3.4382885
3.8524525
4.2200657
4.5488491
4.8452206
5.1143795
5.3605587
5.5871664
5.7970317
5.9923014
6.1747744
6.345675
6.5063148
6.6580126
6.7997405
6.926012
7.0356157
7.145757
7.2546489
5.0051594
4.9939205
4.9723052
4.9393283
4.8938055
4.8344755
4.7596569
4.6676245
4.556216
4.4233005
4.2656833
4.0808299
3.8653939
3.6156548
3.3274055
2.9957746
2.6150101
2.1781379
1.6761509
1.0975758
0.42749742
-0.37345711
-1.3555505
-2.4534985
-3.5463079
-4.4937621
-0.0137242
1.3183682
-8.690342
-11.956668
-15.088117
-19.777514
-27.48272
-35.934708
-43.095931
-46.297178
-23.114622
-3.9992431
6.3169931
8.4467288
114.12077
954.39357
2233.0431
5481.8245
6203.4631
5649.6218
5561.7892
5515.3145
5420.1969
5363.1739
5344.0582
5379.7935
5369.1922
5508.7225
5362.0273
4083.6493
2016.4092
594.4483
76.54466
98.311605
22.961348
2.9773679
-10.588977
-21.455515
-23.205766
-19.925034
-17.582183
-15.13689
-13.175915
-10.778804
-8.2960824
-6.0678569
-4.1538928
-2.5298884
-1.1624668
-0.012873185
0.95502
1.7723462
2.4655472
3.0568678
3.5646802
4.0042133
4.3880526
4.7265508
5.0282195
5.2999404
5.5471986
5.7743173
5.984673
6.181018
6.3653799
6.5393977
6.7043827
6.8619317
7.0136546
7.1579821
7.2878937
7.4030715
7.5251646
7.6482503
5.3872732
5.3777776
5.3606176
5.3341101
5.2964884
5.2463939
5.1819846
5.1012367
5.001921
4.8816519
4.7379785
4.5672939
4.3659272
4.129973
3.8549612
3.5356789
3.1660598
2.7389563
2.2454496
1.6722728
1.0047165
0.20180609
-0.77117103
-1.8384633
-2.8801074
-3.9826703
-3.5987118
1.6141567
-6.9010169
-10.328616
-13.746656
-17.50425