/*--------------------------------*- C++ -*----------------------------------*\
  =========                 |
  \\      /  F ield         | OpenFOAM: The Open Source CFD Toolbox
   \\    /   O peration     | Website:  https://openfoam.org
    \\  /    A nd           | Version:  9
     \\/     M anipulation  |
\*---------------------------------------------------------------------------*/
FoamFile
{
    format      ascii;
    class       volVectorField;
    location    "0.78";
    object      U;
}
// * * * * * * * * * * * * * * * * * * * * * * * * * * * * * * * * * * * * * //

dimensions      [0 1 -1 0 0 0 0];

internalField   nonuniform List<vector> 
10000
(
(-0.0030696445 0.0093957083 0)
(-0.0084885769 0.0094235502 0)
(-0.010364692 0.0094989545 0)
(-0.014260169 0.0095686218 0)
(-0.017480384 0.0096490689 0)
(-0.02082127 0.0097327373 0)
(-0.024118283 0.0098147256 0)
(-0.027374577 0.0098923212 0)
(-0.030588865 0.0099607762 0)
(-0.033752264 0.010015252 0)
(-0.036855256 0.010051638 0)
(-0.039885478 0.010066957 0)
(-0.042826098 0.010054856 0)
(-0.045665892 0.010008563 0)
(-0.04839592 0.009925369 0)
(-0.051003474 0.0098018656 0)
(-0.053477915 0.0096359827 0)
(-0.055812962 0.0094271498 0)
(-0.057997034 0.0091773409 0)
(-0.06002205 0.0088876144 0)
(-0.061893078 0.0085613381 0)
(-0.063612258 0.0082084639 0)
(-0.06517978 0.0078384897 0)
(-0.066607955 0.0074592486 0)
(-0.067915496 0.0070819091 0)
(-0.069127775 0.0067177917 0)
(-0.070278956 0.0063773862 0)
(-0.071414831 0.0060658788 0)
(-0.072597787 0.0057872279 0)
(-0.073905031 0.005545521 0)
(-0.07542429 0.0053495672 0)
(-0.077255755 0.00520875 0)
(-0.079546088 0.0051310915 0)
(-0.082453978 0.0051487563 0)
(-0.08601425 0.005297064 0)
(-0.090190978 0.005537762 0)
(-0.094992643 0.0057957287 0)
(-0.10042812 0.0059796698 0)
(-0.10646403 0.0059751329 0)
(-0.11299424 0.0056504015 0)
(-0.11981723 0.0048451927 0)
(-0.12662423 0.0033576529 0)
(-0.13285409 0.00094409355 0)
(-0.13767804 -0.002783207 0)
(-0.14031211 -0.0084995799 0)
(-0.13925549 -0.016168143 0)
(-0.13187018 -0.026210829 0)
(-0.1150869 -0.039043474 0)
(-0.08623598 -0.054668369 0)
(-0.044410507 -0.072305203 0)
(0.013920573 -0.090950454 0)
(0.086186509 -0.10561327 0)
(0.16488611 -0.11393508 0)
(0.24369965 -0.11432656 0)
(0.31592277 -0.10927156 0)
(0.37995903 -0.10190092 0)
(0.43616489 -0.091861195 0)
(0.48309355 -0.077164592 0)
(0.51661964 -0.05541078 0)
(0.5310372 -0.029471805 0)
(0.52315881 -0.0058203076 0)
(0.49873767 0.013097942 0)
(0.46734706 0.02751292 0)
(0.43353789 0.039189532 0)
(0.39829902 0.049246414 0)
(0.36287729 0.057825834 0)
(0.32872372 0.064754393 0)
(0.29657064 0.069854868 0)
(0.26671923 0.073094882 0)
(0.23932746 0.074560635 0)
(0.21437906 0.074379598 0)
(0.19171127 0.072705922 0)
(0.17109054 0.069750944 0)
(0.15226617 0.065804751 0)
(0.13500983 0.061209071 0)
(0.11913641 0.056297825 0)
(0.1045061 0.051341921 0)
(0.09102014 0.046526314 0)
(0.0785994 0.041953893 0)
(0.067189167 0.037681939 0)
(0.056761796 0.033730838 0)
(0.047269476 0.030098214 0)
(0.038675318 0.026774136 0)
(0.030952783 0.023740755 0)
(0.024066901 0.020979987 0)
(0.017991744 0.018476229 0)
(0.012706636 0.016211743 0)
(0.0081883038 0.014159217 0)
(0.004401479 0.012292793 0)
(0.0012934292 0.010594452 0)
(-0.0011820852 0.0090561036 0)
(-0.0030571487 0.0076703837 0)
(-0.0043775259 0.0064093171 0)
(-0.0052008637 0.0052765489 0)
(-0.0055825185 0.0042708034 0)
(-0.0056629323 0.0033824054 0)
(-0.0050641645 0.0026169727 0)
(-0.0049206167 0.0019704061 0)
(-0.0033624251 0.0014862204 0)
(-0.0025894014 0.0010414927 0)
(-0.0030387512 0.016101675 0)
(-0.0084178837 0.016113053 0)
(-0.010262017 0.016182328 0)
(-0.014156646 0.016228751 0)
(-0.017365388 0.016290822 0)
(-0.02070681 0.016341403 0)
(-0.024010027 0.016384515 0)
(-0.027279026 0.016412128 0)
(-0.030513568 0.016416983 0)
(-0.033704149 0.016395485 0)
(-0.036839225 0.016340588 0)
(-0.039907804 0.016243809 0)
(-0.042895978 0.016102193 0)
(-0.045789883 0.01590663 0)
(-0.048577743 0.015653742 0)
(-0.051246608 0.015338971 0)
(-0.053784565 0.014963233 0)
(-0.056180888 0.014526521 0)
(-0.058422468 0.014032196 0)
(-0.060502467 0.013484828 0)
(-0.062419962 0.012893211 0)
(-0.064171725 0.012272969 0)
(-0.065759944 0.011641059 0)
(-0.067196113 0.011015482 0)
(-0.068496395 0.01041819 0)
(-0.069685065 0.0098717952 0)
(-0.070797327 0.0094003051 0)
(-0.071878739 0.0090267301 0)
(-0.072990393 0.0087750121 0)
(-0.074209346 0.0086682401 0)
(-0.075627803 0.0087269323 0)
(-0.077355372 0.0089621419 0)
(-0.079516478 0.009374289 0)
(-0.082231156 0.009987768 0)
(-0.085588086 0.010830872 0)
(-0.089650531 0.011848109 0)
(-0.094473404 0.012934748 0)
(-0.10009855 0.013951034 0)
(-0.10653012 0.014715748 0)
(-0.11370859 0.01500257 0)
(-0.12150641 0.014516501 0)
(-0.12970952 0.01288819 0)
(-0.13795359 0.0096115333 0)
(-0.14583568 0.0039053306 0)
(-0.15212349 -0.0052297711 0)
(-0.15504949 -0.018773496 0)
(-0.15225208 -0.038079688 0)
(-0.14013898 -0.064222889 0)
(-0.1163665 -0.09625803 0)
(-0.080712079 -0.13139225 0)
(-0.026030259 -0.16785009 0)
(0.055113777 -0.19753816 0)
(0.15219596 -0.21132678 0)
(0.24795863 -0.2036172 0)
(0.33193902 -0.18767354 0)
(0.40437495 -0.17064377 0)
(0.46724059 -0.15005321 0)
(0.5201829 -0.12342346 0)
(0.55656837 -0.081924748 0)
(0.56863718 -0.026328395 0)
(0.55599565 0.023248032 0)
(0.52588413 0.05511527 0)
(0.4888073 0.074818801 0)
(0.45019302 0.089863826 0)
(0.41073456 0.10107891 0)
(0.37132015 0.10821163 0)
(0.33342869 0.11220025 0)
(0.2979874 0.1136908 0)
(0.26549147 0.11305408 0)
(0.23614981 0.1106942 0)
(0.20988096 0.10698266 0)
(0.18640432 0.1022151 0)
(0.16534893 0.096646639 0)
(0.14633653 0.090530327 0)
(0.1290418 0.084121829 0)
(0.11321909 0.077654792 0)
(0.098697754 0.07131197 0)
(0.085365479 0.065214089 0)
(0.073138062 0.059424422 0)
(0.061955932 0.053978002 0)
(0.051777256 0.048878289 0)
(0.042548951 0.044115668 0)
(0.034228467 0.039681821 0)
(0.026779575 0.035560085 0)
(0.020165884 0.031731391 0)
(0.014361372 0.028183804 0)
(0.0093342585 0.024896498 0)
(0.0050505642 0.021846282 0)
(0.0014782213 0.019011652 0)
(-0.0014247689 0.016377182 0)
(-0.0036900282 0.013936796 0)
(-0.0053677128 0.011680581 0)
(-0.0065008637 0.0095982959 0)
(-0.0071241291 0.0076888564 0)
(-0.0073069668 0.0059612144 0)
(-0.0071813829 0.004414101 0)
(-0.0063772018 0.0030746057 0)
(-0.0059838005 0.0018948399 0)
(-0.004222678 0.00099876693 0)
(-0.0030409141 0.00015100846 0)
(-0.0030025944 0.018147358 0)
(-0.0083821574 0.018159469 0)
(-0.010223226 0.018218021 0)
(-0.0141183 0.018257569 0)
(-0.017324079 0.018300302 0)
(-0.020674013 0.018331284 0)
(-0.023987329 0.018346152 0)
(-0.027277336 0.018341552 0)
(-0.030536879 0.018307376 0)
(-0.033757727 0.01823455 0)
(-0.03693513 0.018118096 0)
(-0.040051181 0.017949104 0)
(-0.043092254 0.017720552 0)
(-0.046045857 0.017424785 0)
(-0.048898471 0.017057973 0)
(-0.051633482 0.016617135 0)
(-0.054235683 0.016101265 0)
(-0.056694533 0.01551192 0)
(-0.058994411 0.014856093 0)
(-0.061122467 0.014140014 0)
(-0.063071742 0.013378065 0)
(-0.06483664 0.012589913 0)
(-0.066415918 0.011795596 0)
(-0.067815604 0.011020866 0)
(-0.069048785 0.010297611 0)
(-0.070137613 0.009660023 0)
(-0.071114783 0.0091461528 0)
(-0.072025134 0.0087939818 0)
(-0.072930518 0.0086426687 0)
(-0.07390884 0.0087312021 0)
(-0.07505316 0.0090971137 0)
(-0.076477148 0.0097757103 0)
(-0.078313254 0.01079563 0)
(-0.080701343 0.012171844 0)
(-0.083774483 0.013886098 0)
(-0.087648269 0.015867006 0)
(-0.092426677 0.017988151 0)
(-0.098200403 0.020072939 0)
(-0.10502482 0.021899096 0)
(-0.11290958 0.023181449 0)
(-0.1217953 0.023559462 0)
(-0.13157962 0.022559913 0)
(-0.1421127 0.019546023 0)
(-0.15310475 0.013658164 0)
(-0.16400319 0.0038037541 0)
(-0.17338515 -0.01236605 0)
(-0.17839199 -0.038006605 0)
(-0.17629914 -0.073737822 0)
(-0.16620159 -0.11603479 0)
(-0.1376853 -0.16562967 0)
(-0.065477968 -0.23167026 0)
(0.056091129 -0.29140373 0)
(0.20149879 -0.31650333 0)
(0.33576044 -0.29211623 0)
(0.45003505 -0.25978014 0)
(0.54503064 -0.229892 0)
(0.61803281 -0.19464862 0)
(0.67075939 -0.15704076 0)
(0.69260596 -0.091013518 0)
(0.66505772 -0.017971341 0)
(0.60396487 0.046609495 0)
(0.54485233 0.090576649 0)
(0.50219215 0.11438483 0)
(0.46457427 0.12914054 0)
(0.4224414 0.13970163 0)
(0.37873144 0.14647023 0)
(0.33733746 0.14943577 0)
(0.29896678 0.14883985 0)
(0.26386375 0.14541874 0)
(0.23233838 0.14001913 0)
(0.20436643 0.13330699 0)
(0.17964962 0.12576222 0)
(0.15777137 0.11773052 0)
(0.13829499 0.10947156 0)
(0.12083069 0.10119383 0)
(0.10506843 0.093064696 0)
(0.090778658 0.085209352 0)
(0.077794963 0.077710486 0)
(0.06599006 0.070611949 0)
(0.055272951 0.063937315 0)
(0.045569157 0.057683873 0)
(0.036809332 0.051838957 0)
(0.028940982 0.04638784 0)
(0.021917675 0.041312242 0)
(0.015703495 0.036589669 0)
(0.010269677 0.032202274 0)
(0.0055798052 0.028124939 0)
(0.0016095789 0.024339048 0)
(-0.0016710258 0.020826402 0)
(-0.004300043 0.017569885 0)
(-0.0063155877 0.014559107 0)
(-0.0077617256 0.011777427 0)
(-0.008673889 0.0092357409 0)
(-0.0090889672 0.0069140058 0)
(-0.0090644404 0.0048239833 0)
(-0.0087110836 0.0029715064 0)
(-0.0077172136 0.0013885004 0)
(-0.0070980978 2.1772997e-05 0)
(-0.0051376152 -0.0010058966 0)
(-0.0035471156 -0.0020193446 0)
(-0.0029711564 0.021453631 0)
(-0.0083489051 0.02147512 0)
(-0.010168037 0.021540168 0)
(-0.014079995 0.021589951 0)
(-0.017293484 0.021631836 0)
(-0.020656858 0.021665361 0)
(-0.02399102 0.021675462 0)
(-0.027304633 0.021660095 0)
(-0.030601141 0.021607676 0)
(-0.033867634 0.021505289 0)
(-0.037093047 0.021347111 0)
(-0.040266089 0.02112848 0)
(-0.043373102 0.020835551 0)
(-0.046397181 0.020461684 0)
(-0.049322511 0.020003018 0)
(-0.052132766 0.019457165 0)
(-0.054810732 0.018820607 0)
(-0.057338167 0.018096005 0)
(-0.059698183 0.017291874 0)
(-0.061875666 0.016417058 0)
(-0.063856866 0.01548756 0)
(-0.065633736 0.014525092 0)
(-0.067201906 0.013555177 0)
(-0.068561164 0.012610251 0)
(-0.069720353 0.011728628 0)
(-0.070697198 0.010953631 0)
(-0.071521503 0.010332197 0)
(-0.072235895 0.0099137042 0)
(-0.07289995 0.0097532933 0)
(-0.073593816 0.0099084863 0)
(-0.074417289 0.010434615 0)
(-0.075494208 0.011381363 0)
(-0.07697108 0.012785453 0)
(-0.079007852 0.014664701 0)
(-0.081767553 0.017002625 0)
(-0.08541629 0.019730711 0)
(-0.090116679 0.022719024 0)
(-0.096008639 0.025779497 0)
(-0.1032084 0.028661218 0)
(-0.11180303 0.03104246 0)
(-0.12186219 0.032525272 0)
(-0.1334573 0.032583436 0)
(-0.1466366 0.030539807 0)
(-0.16145858 0.02541539 0)
(-0.17787451 0.015563062 0)
(-0.19596345 -0.0019096648 0)
(-0.21548334 -0.030400205 0)
(-0.23354713 -0.071794212 0)
(-0.22834186 -0.13241746 0)
(-0.15628779 -0.22951585 0)
(-0.018615245 -0.35289961 0)
(0.14724198 -0.45764342 0)
(0.32246607 -0.48571389 0)
(0.48123491 -0.44091703 0)
(0.62953796 -0.38625593 0)
(0.76761149 -0.33058682 0)
(0.88058475 -0.26160976 0)
(0.95337347 -0.20018395 0)
(0.96787541 -0.069069006 0)
(0.89510372 0.088762178 0)
(0.74705569 0.15380761 0)
(0.59870046 0.14274893 0)
(0.51011354 0.14225784 0)
(0.46570403 0.1654101 0)
(0.42732486 0.18352342 0)
(0.38338022 0.18998934 0)
(0.33818929 0.18952324 0)
(0.29601953 0.18513065 0)
(0.25839109 0.17789079 0)
(0.22528411 0.16871855 0)
(0.19627307 0.15847252 0)
(0.17089109 0.14777848 0)
(0.14865069 0.13703973 0)
(0.12907288 0.12650334 0)
(0.11172805 0.11632231 0)
(0.096258481 0.10659222 0)
(0.082382786 0.097370366 0)
(0.069882175 0.088684017 0)
(0.058588244 0.08053856 0)
(0.048381885 0.072923938 0)
(0.039167284 0.065814298 0)
(0.030865565 0.059179631 0)
(0.023423379 0.05299005 0)
(0.016794991 0.047214978 0)
(0.010944761 0.041827246 0)
(0.0058457762 0.03680038 0)
(0.0014647282 0.03210527 0)
(-0.0022204222 0.027722397 0)
(-0.0052407263 0.02363222 0)
(-0.0076282056 0.019814955 0)
(-0.0094113806 0.016260155 0)
(-0.010618787 0.012966512 0)
(-0.01129225 0.0099358547 0)
(-0.011469977 0.0071681275 0)
(-0.011190934 0.0046751249 0)
(-0.010556782 0.0024616738 0)
(-0.0092883609 0.00054951392 0)
(-0.0083481413 -0.0010967951 0)
(-0.0061764146 -0.0022878801 0)
(-0.0041435669 -0.0035433956 0)
(-0.0029251123 0.02496361 0)
(-0.0083098583 0.024998249 0)
(-0.010110532 0.025066768 0)
(-0.014037206 0.025114149 0)
(-0.017258816 0.025157501 0)
(-0.020638406 0.025186806 0)
(-0.023999265 0.02519079 0)
(-0.027349016 0.025159533 0)
(-0.030691959 0.025081665 0)
(-0.034014917 0.024946909 0)
(-0.037303664 0.024743819 0)
(-0.040548777 0.024463565 0)
(-0.043737849 0.02409487 0)
(-0.046849496 0.0236301 0)
(-0.049865768 0.023062141 0)
(-0.052769816 0.022386631 0)
(-0.055541128 0.021601845 0)
(-0.058157166 0.020710467 0)
(-0.060597055 0.019719266 0)
(-0.062840802 0.018640245 0)
(-0.064869514 0.017490635 0)
(-0.066668834 0.016294866 0)
(-0.068227112 0.015086039 0)
(-0.069538361 0.013904188 0)
(-0.070604884 0.012793561 0)
(-0.07143827 0.011807511 0)
(-0.072062408 0.011007086 0)
(-0.072511761 0.010459707 0)
(-0.07283961 0.010240447 0)
(-0.073124525 0.010431055 0)
(-0.073468358 0.011113901 0)
(-0.074004245 0.012367783 0)
(-0.074897889 0.014256028 0)
(-0.076344717 0.016816452 0)
(-0.078565474 0.020044041 0)
(-0.081788587 0.023867246 0)
(-0.086235103 0.02814775 0)
(-0.092112763 0.032674345 0)
(-0.099608766 0.037160856 0)
(-0.10888507 0.041261924 0)
(-0.12010245 0.044580204 0)
(-0.13347217 0.046665319 0)
(-0.1492886 0.046891761 0)
(-0.16785878 0.044199357 0)
(-0.19039437 0.037382578 0)
(-0.22215331 0.025423486 0)
(-0.26795656 0.0018953378 0)
(-0.2963703 -0.059588524 0)
(-0.22604191 -0.19530209 0)
(-0.056496292 -0.37757603 0)
(0.10994312 -0.52243369 0)
(0.26860177 -0.64732703 0)
(0.43242364 -0.66696503 0)
(0.60533195 -0.61803857 0)
(0.78750341 -0.56008956 0)
(0.97460635 -0.49916637 0)
(1.1562562 -0.39959664 0)
(1.2632842 -0.24234493 0)
(1.2636702 -0.046799469 0)
(1.2128399 0.19010337 0)
(1.0959491 0.3563481 0)
(0.88326857 0.35397374 0)
(0.65243093 0.2644615 0)
(0.50057393 0.22048676 0)
(0.42459512 0.22197449 0)
(0.37825952 0.23377325 0)
(0.33351866 0.23510363 0)
(0.28851652 0.22684338 0)
(0.24807218 0.21430435 0)
(0.21357168 0.20029789 0)
(0.18412606 0.18588929 0)
(0.15878352 0.17162959 0)
(0.13684692 0.15787731 0)
(0.11773468 0.14482847 0)
(0.10095319 0.13256323 0)
(0.086098895 0.12109752 0)
(0.072854713 0.11041372 0)
(0.060973888 0.1004724 0)
(0.050272063 0.091227562 0)
(0.04062077 0.082625419 0)
(0.031918001 0.074607719 0)
(0.024086394 0.067123086 0)
(0.017076913 0.060128322 0)
(0.010848221 0.053575961 0)
(0.0053717068 0.04743257 0)
(0.00061662061 0.0416784 0)
(-0.0034437388 0.036260695 0)
(-0.0068223209 0.031175309 0)
(-0.0095497391 0.02640851 0)
(-0.011652379 0.021941541 0)
(-0.013149391 0.017776429 0)
(-0.014074088 0.013912675 0)
(-0.014462423 0.010344372 0)
(-0.014343666 0.007085912 0)
(-0.013769466 0.0041406937 0)
(-0.012825578 0.0015136919 0)
(-0.011282331 -0.0007543098 0)
(-0.009938038 -0.0027876637 0)
(-0.0075047275 -0.0041927471 0)
(-0.0049372074 -0.0057853201 0)
(-0.0028681973 0.028275188 0)
(-0.008261689 0.028325242 0)
(-0.010043245 0.028405924 0)
(-0.013987919 0.028460708 0)
(-0.01721916 0.02851512 0)
(-0.020618761 0.028549331 0)
(-0.024012078 0.028555721 0)
(-0.027405367 0.028519836 0)
(-0.030800941 0.028430227 0)
(-0.034188579 0.028274127 0)
(-0.037555615 0.028038129 0)
(-0.040889085 0.027708724 0)
(-0.044174076 0.027275235 0)
(-0.047390816 0.026728281 0)
(-0.050519804 0.026056857 0)
(-0.053539193 0.025256292 0)
(-0.056424504 0.024324774 0)
(-0.059149569 0.023263231 0)
(-0.061688289 0.022078135 0)
(-0.064015749 0.020782925 0)
(-0.066106671 0.019397304 0)
(-0.067937488 0.017949553 0)
(-0.069488392 0.016476599 0)
(-0.070747871 0.01502329 0)
(-0.07171022 0.013643277 0)
(-0.072375104 0.012401025 0)
(-0.072756362 0.011370498 0)
(-0.072880741 0.010634243 0)
(-0.072793244 0.010286768 0)
(-0.07256768 0.010435173 0)
(-0.072306973 0.011192083 0)
(-0.072154044 0.012670832 0)
(-0.072297622 0.014971568 0)
(-0.072967767 0.018164632 0)
(-0.074437085 0.022276125 0)
(-0.077004976 0.02725243 0)
(-0.080976412 0.032946545 0)
(-0.0866423 0.039130022 0)
(-0.094255991 0.045493945 0)
(-0.10402933 0.051664485 0)
(-0.11617435 0.057281278 0)
(-0.13098009 0.062006011 0)
(-0.14867434 0.065235297 0)
(-0.16952491 0.066581639 0)
(-0.19868721 0.06923953 0)
(-0.25272095 0.075511668 0)
(-0.32179856 0.047939108 0)
(-0.30540697 -0.10459535 0)
(-0.12334461 -0.38529795 0)
(0.042441243 -0.56132073 0)
(0.18326927 -0.69435414 0)
(0.33911343 -0.80911987 0)
(0.50342291 -0.83160968 0)
(0.68188687 -0.79946768 0)
(0.88003973 -0.75220712 0)
(1.0788929 -0.68702394 0)
(1.2448068 -0.55189439 0)
(1.3635933 -0.30361359 0)
(1.4201542 -0.0444283 0)
(1.4055267 0.22412992 0)
(1.3338174 0.47019437 0)
(1.1749552 0.5799776 0)
(0.90701808 0.51525838 0)
(0.62991913 0.39749258 0)
(0.45659414 0.31165092 0)
(0.37388333 0.28365406 0)
(0.32183627 0.27988895 0)
(0.27493333 0.27074215 0)
(0.23252743 0.25304787 0)
(0.19698262 0.23295456 0)
(0.16764343 0.21354466 0)
(0.14301033 0.19532616 0)
(0.12201176 0.17836351 0)
(0.10390709 0.16269275 0)
(0.088123077 0.1482802 0)
(0.07421417 0.13504193 0)
(0.061843572 0.12287348 0)
(0.050758285 0.11166351 0)
(0.040779719 0.1013093 0)
(0.031782701 0.09171154 0)
(0.023669086 0.082779741 0)
(0.016373248 0.074444179 0)
(0.0098499548 0.066645585 0)
(0.0040628928 0.059322326 0)
(-0.0009938361 0.052439006 0)
(-0.0053700486 0.04595287 0)
(-0.009082643 0.039838569 0)
(-0.012112588 0.034080459 0)
(-0.014508246 0.028662166 0)
(-0.016285244 0.0235773 0)
(-0.017457857 0.018820264 0)
(-0.018064132 0.014394567 0)
(-0.018129532 0.010302361 0)
(-0.017682787 0.0065448212 0)
(-0.016771762 0.0031465679 0)
(-0.015447659 0.00010951758 0)
(-0.013605155 -0.002508269 0)
(-0.011791865 -0.0048737418 0)
(-0.0090768686 -0.0064889943 0)
(-0.0059155131 -0.0084143867 0)
(-0.0027973062 0.031556839 0)
(-0.0082021267 0.031627424 0)
(-0.0099604673 0.031725726 0)
(-0.013922247 0.031799097 0)
(-0.017164825 0.031875624 0)
(-0.020588858 0.031926952 0)
(-0.024018505 0.031947551 0)
(-0.027460668 0.03192203 0)
(-0.030918575 0.031835663 0)
(-0.034382628 0.031672068 0)
(-0.037839102 0.031415229 0)
(-0.041275135 0.031051197 0)
(-0.044674249 0.030566088 0)
(-0.048016059 0.029947029 0)
(-0.051277618 0.029181101 0)
(-0.054433121 0.028261236 0)
(-0.057456151 0.027183436 0)
(-0.060315487 0.025947746 0)
(-0.062978393 0.024559677 0)
(-0.065412833 0.023033322 0)
(-0.067584981 0.021389325 0)
(-0.069463491 0.019657911 0)
(-0.071020964 0.017879624 0)
(-0.072234935 0.016104789 0)
(-0.073087462 0.014395884 0)
(-0.073568436 0.01282801 0)
(-0.073681354 0.011485164 0)
(-0.073437971 0.010463576 0)
(-0.072866338 0.0098789068 0)
(-0.072027959 0.0098694985 0)
(-0.071018815 0.010589293 0)
(-0.069984959 0.012200429 0)
(-0.069139412 0.014859621 0)
(-0.068757447 0.018692329 0)
(-0.069181861 0.023766247 0)
(-0.070805339 0.030051717 0)
(-0.074022786 0.037402679 0)
(-0.079211133 0.045570738 0)
(-0.086713854 0.054201927 0)
(-0.096781332 0.062871705 0)
(-0.10954731 0.071197754 0)
(-0.125047 0.078773538 0)
(-0.14299171 0.085274436 0)
(-0.16434918 0.093992518 0)
(-0.2011864 0.11610626 0)
(-0.27264957 0.13957309 0)
(-0.3236211 0.058874315 0)
(-0.19865081 -0.25522634 0)
(0.021654668 -0.59704041 0)
(0.085592371 -0.67779298 0)
(0.18544508 -0.81768239 0)
(0.31082601 -0.95044099 0)
(0.47745896 -1.0018201 0)
(0.67021036 -1.0026223 0)
(0.87839281 -0.97095147 0)
(1.0787485 -0.88199045 0)
(1.2483494 -0.69867552 0)
(1.3770284 -0.40579545 0)
(1.4418503 -0.062916641 0)
(1.415519 0.27852862 0)
(1.3293531 0.57427419 0)
(1.2059235 0.76755743 0)
(0.99854452 0.77114777 0)
(0.74029621 0.63503861 0)
(0.5218572 0.48196324 0)
(0.38009725 0.37615382 0)
(0.30307174 0.33510039 0)
(0.25243196 0.31581239 0)
(0.20990441 0.29212651 0)
(0.17472096 0.26529429 0)
(0.14654759 0.24008746 0)
(0.12352544 0.21751895 0)
(0.10420182 0.19725044 0)
(0.087684224 0.17899162 0)
(0.073345173 0.16252368 0)
(0.060721756 0.14762907 0)
(0.04947984 0.13409658 0)
(0.039381379 0.12173561 0)
(0.03026931 0.11038185 0)
(0.022031921 0.099888035 0)
(0.014586787 0.09013444 0)
(0.0078871162 0.081034313 0)
(0.001892421 0.072514364 0)
(-0.0034150029 0.064485902 0)
(-0.0080458367 0.056921108 0)
(-0.012023411 0.049756587 0)
(-0.015345871 0.042994164 0)
(-0.01801836 0.036601937 0)
(-0.020067118 0.030562116 0)
(-0.021500176 0.024875419 0)
(-0.022331479 0.019531313 0)
(-0.022587219 0.01454535 0)
(-0.02230361 0.0099238016 0)
(-0.021490615 0.0056727455 0)
(-0.020194314 0.0018180755 0)
(-0.018457421 -0.0016316385 0)
(-0.016267266 -0.0046352717 0)
(-0.013910686 -0.0073148352 0)
(-0.010909694 -0.0091743103 0)
(-0.0070815913 -0.011421066 0)
(-0.0027094547 0.03484983 0)
(-0.0081247301 0.03494734 0)
(-0.0098548967 0.035071299 0)
(-0.013830644 0.035172785 0)
(-0.017085013 0.035279591 0)
(-0.020536759 0.035360588 0)
(-0.024005294 0.035408898 0)
(-0.027502165 0.035407397 0)
(-0.031030813 0.035336709 0)
(-0.034582607 0.035180033 0)
(-0.038142357 0.034917326 0)
(-0.041696509 0.034531465 0)
(-0.045228222 0.034005591 0)
(-0.048716111 0.033323404 0)
(-0.052135182 0.032470173 0)
(-0.055455598 0.031434215 0)
(-0.058645615 0.030208168 0)
(-0.061669154 0.028790657 0)
(-0.064486386 0.027185368 0)
(-0.067057842 0.025405556 0)
(-0.069342157 0.023471812 0)
(-0.071296968 0.02141625 0)
(-0.072883384 0.019283154 0)
(-0.074067765 0.017127467 0)
(-0.074819147 0.015017096 0)
(-0.075114628 0.013034486 0)
(-0.074943754 0.011274606 0)
(-0.074298915 0.0098474316 0)
(-0.073183073 0.0088883064 0)
(-0.071632874 0.0085686132 0)
(-0.069726715 0.009091973 0)
(-0.067604648 0.010681683 0)
(-0.065497533 0.013571528 0)
(-0.063732243 0.017966521 0)
(-0.062735161 0.024008931 0)
(-0.063007737 0.031722002 0)
(-0.065070193 0.040981266 0)
(-0.069439571 0.051506942 0)
(-0.076583092 0.062847077 0)
(-0.08675322 0.074404342 0)
(-0.099793481 0.085485294 0)
(-0.11507509 0.095405815 0)
(-0.13200205 0.10560483 0)
(-0.15379974 0.12624417 0)
(-0.19439462 0.16748838 0)
(-0.2530489 0.17566923 0)
(-0.23515632 -0.0022185541 0)
(0.0089263908 -0.46086924 0)
(0.082404355 -0.64399732 0)
(0.054756959 -0.71992914 0)
(0.12977052 -0.9205841 0)
(0.26753718 -1.1173203 0)
(0.45693312 -1.1963547 0)
(0.64054208 -1.2085897 0)
(0.81215837 -1.1791314 0)
(0.96929423 -1.0673446 0)
(1.1164306 -0.85668108 0)
(1.2460157 -0.51653015 0)
(1.3258418 -0.088753564 0)
(1.3147423 0.33813732 0)
(1.218284 0.68085268 0)
(1.1033393 0.91181674 0)
(0.94458513 0.98308556 0)
(0.72749193 0.85110894 0)
(0.52134517 0.67528918 0)
(0.36400557 0.50451977 0)
(0.2708623 0.40761064 0)
(0.21723142 0.36350396 0)
(0.17766126 0.32986979 0)
(0.14562105 0.29577945 0)
(0.12042323 0.2645525 0)
(0.10026825 0.2375649 0)
(0.083522939 0.21411044 0)
(0.069243472 0.19347113 0)
(0.056819435 0.17517487 0)
(0.045821238 0.15884243 0)
(0.035952142 0.14414601 0)
(0.02701645 0.13080721 0)
(0.018893103 0.11860157 0)
(0.011496164 0.1073359 0)
(0.0047761536 0.0968632 0)
(-0.0012838266 0.087096437 0)
(-0.0067312338 0.077910246 0)
(-0.011555962 0.069230534 0)
(-0.015743339 0.061015885 0)
(-0.019312609 0.053220953 0)
(-0.02224413 0.045823141 0)
(-0.024547139 0.038801062 0)
(-0.026237277 0.032144244 0)
(-0.027314629 0.025847706 0)
(-0.027783075 0.019914583 0)
(-0.027664458 0.014360568 0)
(-0.026992571 0.0091962335 0)
(-0.025780838 0.0044429339 0)
(-0.024067503 0.00011196643 0)
(-0.021882687 -0.0037691185 0)
(-0.019292029 -0.0071812572 0)
(-0.016326577 -0.010156403 0)
(-0.013019348 -0.012357685 0)
(-0.0084538245 -0.014883129 0)
(-0.0025984953 0.038119244 0)
(-0.0080209451 0.03825137 0)
(-0.0097158896 0.038410133 0)
(-0.013704053 0.038553998 0)
(-0.016968268 0.038699242 0)
(-0.020446513 0.038826714 0)
(-0.023956887 0.038918847 0)
(-0.027515449 0.038957029 0)
(-0.031123003 0.038918782 0)
(-0.034771833 0.038785311 0)
(-0.03844897 0.038534424 0)
(-0.042139541 0.038143125 0)
(-0.04582546 0.037591767 0)
(-0.049483658 0.036859637 0)
(-0.053087046 0.035928999 0)
(-0.056603044 0.034783978 0)
(-0.059994922 0.033412036 0)
(-0.063220221 0.031808234 0)
(-0.066231389 0.029973487 0)
(-0.068980473 0.02791745 0)
(-0.071415549 0.025661502 0)
(-0.073481972 0.023239992 0)
(-0.075129658 0.020698811 0)
(-0.076312873 0.018095942 0)
(-0.076986221 0.015505615 0)
(-0.077110803 0.013015443 0)
(-0.076658891 0.010726648 0)
(-0.075599775 0.0087590646 0)
(-0.073901001 0.0072624262 0)
(-0.071556406 0.006437339 0)
(-0.068608142 0.0065462919 0)
(-0.065170795 0.0078923724 0)
(-0.061481897 0.01082342 0)
(-0.057920872 0.015652782 0)
(-0.055014767 0.022666359 0)
(-0.053407976 0.031945034 0)
(-0.053789612 0.043369114 0)
(-0.056891033 0.056656578 0)
(-0.063402129 0.071241963 0)
(-0.073584067 0.086061378 0)
(-0.086774437 0.099611084 0)
(-0.10181662 0.11147076 0)
(-0.11935493 0.12708729 0)
(-0.14440547 0.16036595 0)
(-0.17975417 0.20072973 0)
(-0.18671826 0.15024528 0)
(-0.053365748 -0.13216837 0)
(0.15494731 -0.57515338 0)
(0.083559438 -0.61192763 0)
(0.062296164 -0.75093613 0)
(0.12921714 -1.0291186 0)
(0.24187652 -1.2900179 0)
(0.40634683 -1.371794 0)
(0.55133708 -1.3658551 0)
(0.66276851 -1.3138346 0)
(0.74776462 -1.1890943 0)
(0.85025737 -0.98821388 0)
(0.96807644 -0.61586626 0)
(1.0471134 -0.11869304 0)
(1.0556378 0.38768502 0)
(0.96983123 0.78497638 0)
(0.84445385 1.0374371 0)
(0.70939752 1.1531744 0)
(0.53995194 1.0255536 0)
(0.39676598 0.82824208 0)
(0.29061501 0.62529603 0)
(0.21185014 0.48331346 0)
(0.16612457 0.40987459 0)
(0.13458305 0.36318546 0)
(0.10912075 0.32190677 0)
(0.089254339 0.28531711 0)
(0.073453684 0.25442901 0)
(0.060258768 0.22826466 0)
(0.048874913 0.20568686 0)
(0.038814877 0.18594651 0)
(0.029750071 0.1684987 0)
(0.021460424 0.15291176 0)
(0.013825254 0.13880809 0)
(0.0067789525 0.12592841 0)
(0.00027232253 0.11403681 0)
(-0.0056773893 0.10296753 0)
(-0.011091348 0.09259381 0)
(-0.015997592 0.082802453 0)
(-0.020329611 0.07352843 0)
(-0.024073471 0.064706411 0)
(-0.027231367 0.05629659 0)
(-0.029773127 0.048284489 0)
(-0.031703205 0.040633062 0)
(-0.03302544 0.033353327 0)
(-0.033732839 0.026446304 0)
(-0.033818507 0.019919935 0)
(-0.033304028 0.013781121 0)
(-0.032216256 0.0080577639 0)
(-0.030570074 0.0027730835 0)
(-0.028398799 -0.0020506227 0)
(-0.025737456 -0.0063908244 0)
(-0.022654357 -0.010222307 0)
(-0.019087075 -0.013487956 0)
(-0.015428017 -0.016117077 0)
(-0.0099959797 -0.018853699 0)
(-0.0024599374 0.041354874 0)
(-0.0078842302 0.041529581 0)
(-0.0095304494 0.041734065 0)
(-0.013530416 0.041933764 0)
(-0.016800604 0.04213429 0)
(-0.02030107 0.042324723 0)
(-0.023857221 0.042478549 0)
(-0.027481861 0.042575807 0)
(-0.031176284 0.042592073 0)
(-0.034932779 0.042501931 0)
(-0.038741266 0.042282405 0)
(-0.042585833 0.041906437 0)
(-0.046447813 0.041349809 0)
(-0.050303257 0.040586381 0)
(-0.054121804 0.039592913 0)
(-0.057869054 0.038348663 0)
(-0.061503352 0.036836265 0)
(-0.064974799 0.035044486 0)
(-0.068228578 0.032969195 0)
(-0.071205647 0.030617123 0)
(-0.073840648 0.028008664 0)
(-0.076066832 0.025176668 0)
(-0.077821893 0.022168621 0)
(-0.079044481 0.019048806 0)
(-0.079674497 0.015894746 0)
(-0.079659798 0.012795662 0)
(-0.078953265 0.0098554766 0)
(-0.077496385 0.0071931967 0)
(-0.075212667 0.0049581803 0)
(-0.072028009 0.0033914086 0)
(-0.067917052 0.0028091492 0)
(-0.062930916 0.0036063901 0)
(-0.057293717 0.0062398496 0)
(-0.051407189 0.011217726 0)
(-0.045941559 0.019041798 0)
(-0.041799108 0.029857411 0)
(-0.03984353 0.04367638 0)
(-0.041032784 0.060413565 0)
(-0.046516667 0.079264973 0)
(-0.056808432 0.098083943 0)
(-0.070744943 0.11420654 0)
(-0.087933053 0.12933591 0)
(-0.112169 0.15358377 0)
(-0.14435124 0.19320624 0)
(-0.16576324 0.20312463 0)
(-0.12209255 0.065636402 0)
(0.056593635 -0.32120025 0)
(0.14926992 -0.57705588 0)
(0.12266103 -0.58311598 0)
(0.11516908 -0.77501186 0)
(0.13331194 -1.0933179 0)
(0.19123297 -1.4105144 0)
(0.30986228 -1.5023989 0)
(0.40669195 -1.471664 0)
(0.46020067 -1.3638838 0)
(0.48339379 -1.2463664 0)
(0.53770278 -1.0969046 0)
(0.61775149 -0.69270231 0)
(0.66440768 -0.13924361 0)
(0.67243915 0.42935191 0)
(0.6090576 0.87592882 0)
(0.51008737 1.1478606 0)
(0.41870717 1.2791579 0)
(0.3152169 1.1379065 0)
(0.24040199 0.92174422 0)
(0.17074386 0.7075802 0)
(0.12541159 0.53939823 0)
(0.10021308 0.44461683 0)
(0.081610274 0.38736086 0)
(0.066213936 0.34072319 0)
(0.053928299 0.30040943 0)
(0.043828281 0.26684224 0)
(0.035034633 0.23887627 0)
(0.027095772 0.21506501 0)
(0.019753999 0.19443825 0)
(0.012852246 0.17630685 0)
(0.0062771169 0.16020238 0)
(2.3768704e-05 0.1455863 0)
(-0.0058938936 0.13225932 0)
(-0.01148853 0.11989265 0)
(-0.016696783 0.10836042 0)
(-0.021480879 0.097473555 0)
(-0.025826811 0.087172121 0)
(-0.029679091 0.077351577 0)
(-0.032998453 0.067970989 0)
(-0.035751849 0.058972555 0)
(-0.037918472 0.050352431 0)
(-0.039488458 0.042086699 0)
(-0.04043126 0.034186757 0)
(-0.040752589 0.02666205 0)
(-0.040449082 0.019525375 0)
(-0.039523931 0.012783251 0)
(-0.03799314 0.0064809393 0)
(-0.035881896 0.00064104143 0)
(-0.033219244 -0.0047047506 0)
(-0.030038749 -0.0095312005 0)
(-0.026376067 -0.013797823 0)
(-0.022225813 -0.017412295 0)
(-0.018117684 -0.020459854 0)
(-0.011699381 -0.02340417 0)
(-0.0022878195 0.044548922 0)
(-0.0077043426 0.04477721 0)
(-0.0092882407 0.045041726 0)
(-0.01329277 0.045308965 0)
(-0.016563662 0.045588313 0)
(-0.020084468 0.045858847 0)
(-0.023686318 0.046095695 0)
(-0.027378691 0.046274206 0)
(-0.031167636 0.046367764 0)
(-0.035043873 0.046345396 0)
(-0.038997015 0.046181732 0)
(-0.043013315 0.045845601 0)
(-0.047074713 0.045306698 0)
(-0.051156712 0.044534208 0)
(-0.055226115 0.043498021 0)
(-0.059244867 0.042170441 0)
(-0.063167352 0.040527316 0)
(-0.066937804 0.038549326 0)
(-0.070491274 0.036226091 0)
(-0.073755758 0.033559849 0)
(-0.076653362 0.030566691 0)
(-0.079102618 0.027277932 0)
(-0.081022662 0.023743376 0)
(-0.082338201 0.020033135 0)
(-0.08297876 0.016227476 0)
(-0.082876797 0.012415967 0)
(-0.08196972 0.0086999549 0)
(-0.080178241 0.0051883226 0)
(-0.077351296 0.0020027695 0)
(-0.073321188 -0.00058947129 0)
(-0.067974859 -0.0022465322 0)
(-0.06127914 -0.0024449286 0)
(-0.053356746 -0.0005637108 0)
(-0.044560431 0.0042198504 0)
(-0.035804352 0.012603991 0)
(-0.028212776 0.025201737 0)
(-0.022671169 0.041977149 0)