/*--------------------------------*- C++ -*----------------------------------*\
  =========                 |
  \\      /  F ield         | OpenFOAM: The Open Source CFD Toolbox
   \\    /   O peration     | Website:  https://openfoam.org
    \\  /    A nd           | Version:  9
     \\/     M anipulation  |
\*---------------------------------------------------------------------------*/
FoamFile
{
    format      ascii;
    class       volScalarField;
    location    "8";
    object      p;
}
// * * * * * * * * * * * * * * * * * * * * * * * * * * * * * * * * * * * * * //

dimensions      [1 -1 -2 0 0 0 0];

internalField   nonuniform List<scalar> 
5250
(
1.00001
1.00003
1.00011
1.00025
1.0007
1.00158
1.00431
1.00966
1.02609
1.06052
1.15943
1.40466
2.12262
4.22422
9.93303
11.278
11.1328
11.0791
11.1654
11.3855
11.6042
11.7444
11.8527
11.9383
12.0044
1.00001
1.00003
1.00011
1.00025
1.00069
1.00157
1.00423
1.00955
1.02583
1.05969
1.15767
1.39959
2.10833
4.18141
9.84103
11.276
11.129
11.0702
11.1568
11.377
11.5953
11.7357
11.8456
11.9325
12
1.00001
1.00003
1.0001
1.00025
1.00067
1.00153
1.00414
1.00932
1.0252
1.05825
1.15366
1.38924
2.07777
4.09005
9.63495
11.2711
11.1167
11.0422
11.1264
11.3431
11.5582
11.6964
11.8055
11.8914
11.9587
1.00001
1.00003
1.00009
1.00026
1.00061
1.00156
1.00381
1.00932
1.02352
1.05725
1.1458
1.37578
2.02928
3.95264
9.31056
11.2711
11.0998
10.9952
11.0746
11.2835
11.4935
11.627
11.7325
11.8159
11.8834
1.00001
1.00003
1.00009
1.00024
1.00058
1.00149
1.00349
1.00922
1.02126
1.05613
1.13514
1.35745
1.96514
3.77008
8.8618
11.2786
11.0804
10.9313
11.0038
11.2012
11.4039
11.5302
11.6298
11.7094
11.7782
1.00001
1.00003
1.00008
1.00022
1.00055
1.00134
1.00343
1.00808
1.02098
1.04994
1.12869
1.32727
1.89208
3.53988
8.28045
11.3012
11.0608
10.8498
10.913
11.0945
11.2863
11.4015
11.4907
11.5624
11.6313
1
1.00003
1.00007
1.00021
1.00048
1.00129
1.00293
1.00788
1.01788
1.04789
1.11335
1.30041
1.79857
3.27418
7.56023
11.3396
11.0417
10.7509
10.8023
10.9623
11.1381
11.2353
11.3058
11.3601
11.4231
1
1.00002
1.00007
1.00018
1.00044
1.00112
1.00266
1.00694
1.0161
1.04235
1.10113
1.26492
1.70035
2.97741
6.72268
11.3673
11.0201
10.6385
10.6739
10.8028
10.9555
11.025
11.0635
11.0812
11.1181
1
1.00002
1.00006
1.00017
1.00037
1.00102
1.00228
1.00617
1.01394
1.03712
1.08758
1.22942
1.59715
2.66938
5.79575
11.3147
10.9687
10.5181
10.53
10.6156
10.7349
10.7625
10.749
10.6922
10.64
1
1.00002
1.00005
1.00014
1.00035
1.00083
1.00216
1.00496
1.01319
1.03034
1.07953
1.19436
1.51686
2.41933
5.07534
10.9954
10.8105
10.3986
10.3566
10.4021
10.4673
10.4459
10.3523
10.1343
9.81334
1
1.00002
1.00004
1.00013
1.00029
1.00078
1.00175
1.00474
1.01062
1.02859
1.06642
1.17445
1.44525
2.23215
4.52555
10.2418
10.4884
10.2964
10.1625
10.1694
10.1618
10.081
9.83808
9.27246
7.82958
1
1.00001
1.00004
1.0001
1.00027
1.00065
1.00158
1.004
1.00945
1.02448
1.0583
1.15049
1.38449
2.05484
3.99997
9.18495
10.2931
10.1746
9.97835
9.92977
9.85916
9.68844
9.30865
8.54748
7.07453
1
1.00001
1.00003
1.00009
1.00022
1.00056
1.00137
1.00332
1.00842
1.02008
1.05137
1.12588
1.32724
1.8811
3.4945
7.97464
10.1733
10.0669
9.82179
9.69087
9.56665
9.3173
8.84786
8.0846
6.93876
1
1.00001
1.00003
1.00008
1.00018
1.00048
1.00109
1.00291
1.00659
1.01767
1.04061
1.10718
1.26447
1.71674
2.99532
6.64948
10.0921
9.97897
9.68661
9.46308
9.28194
8.99266
8.51485
7.82124
6.92285
1
1.00001
1.00002
1.00006
1.00016
1.00035
1.00096
1.00215
1.00575
1.01318
1.03435
1.08203
1.21199
1.54884
2.50973
5.2109
9.8943
9.84503
9.58617
9.26194
9.0272
8.72281
8.26913
7.65155
6.9006
1
1.00001
1.00002
1.00005
1.00012
1.00031
1.0007
1.00188
1.00425
1.01132
1.02597
1.0679
1.16427
1.43318
2.16738
4.26598
9.24533
9.60984
9.43752
9.08438
8.80751
8.49771
8.07358
7.52051
6.86802
1
1
1.00002
1.00004
1.0001
1.00023
1.00061
1.00138
1.00369
1.00841
1.02211
1.05203
1.13421
1.33867
1.91897
3.56152
7.88599
9.33251
9.2287
8.95141
8.62567
8.3063
7.90953
7.41068
6.83329
1
1
1.00001
1.00003
1.00007
1.00019
1.00045
1.00118
1.00266
1.00712
1.01609
1.04299
1.10095
1.26563
1.69452
2.93045
6.32482
9.14469
9.0876
8.8605
8.48401
8.14551
7.76909
7.31613
6.79974
1
1
1.00001
1.00002
1.00006
1.00014
1.00035
1.00086
1.00205
1.00528
1.01221
1.03192
1.07509
1.19441
1.49671
2.34364
4.63986
8.79782
8.96577
8.78984
8.40202
8.01971
7.64996
7.23411
6.76817
1
1
1.00001
1.00002
1.00004
1.00011
1.00027
1.00063
1.00164
1.00373
1.0099
1.02248
1.05937
1.14115
1.37137
1.98167
3.7023
7.88594
8.76257
8.64211
8.32728
7.91586
7.54753
7.16172
6.73823
1
1
1
1.00001
1.00003
1.00008
1.00019
1.0005
1.00114
1.00299
1.00698
1.01768
1.04292
1.10738
1.27138
1.71934
2.9674
6.28442
8.49732
8.45577
8.25465
7.84338
7.46427
7.09829
6.71025
1
1
1
1.00001
1.00002
1.00006
1.00014
1.00037
1.00082
1.0022
1.00493
1.0131
1.03
1.07807
1.18885
1.49672
2.31737
4.51709
8.08039
8.32597
8.18074
7.82895
7.41346
7.04913
6.68704
1
1
1
1.00001
1.00002
1.00004
1.00011
1.00024
1.00064
1.00147
1.00377
1.00893
1.02218
1.05441
1.13497
1.34348
1.90722
3.4373
7.09984
8.13835
8.05209
7.79889
7.39115
7.0174
6.6697
1
1
1
1
1.00001
1.00003
1.00008
1.00017
1.00046
1.00103
1.00274
1.00616
1.01627
1.03759
1.09704
1.23815
1.62968
2.68506
5.45925
7.84732
7.87143
7.73667
7.40417
7.01312
6.66416
1
1
1
1
1.00001
1.00002
1.00005
1.00013
1.0003
1.00074
1.00181
1.00431
1.01091
1.02555
1.06526
1.15741
1.40604
2.05382
3.73596
7.23211
7.76971
7.67261
7.41012
7.02255
6.6681
1
1
1
1
1.00001
1.00001
1.00004
1.00009
1.0002
1.00053
1.0012
1.00314
1.00709
1.01874
1.04273
1.11195
1.27147
1.72145
2.90666
5.89575
7.551
7.53687
7.39496
7.06164
6.68395
1
1
1
1
1
1.00001
1.00002
1.00006
1.00015
1.00033
1.00087
1.00194
1.00518
1.01155
1.03062
1.07053
1.18282
1.4567
2.20181
4.0887
7.07343
7.44259
7.35022
7.10656
6.72238
1
1
1
1
1
1.00001
1.00002
1.00004
1.0001
1.00022
1.00058
1.0013
1.00345
1.00771
1.02038
1.04664
1.12069
1.29466
1.77469
3.01483
5.98152
7.24666
7.2339
7.10258
6.80278
1
1
1
1
1
1
1.00001
1.00003
1.00006
1.00016
1.00036
1.0009
1.00218
1.00523
1.01309
1.03083
1.07818
1.18989
1.49002
2.26925
4.24304
6.80683
7.14326
7.07088
6.87409
1
1
1
1
1
1
1.00001
1.00002
1.00004
1.0001
1.00023
1.00059
1.00139
1.00342
1.00837
1.01992
1.04986
1.12039
1.30443
1.77934
3.00337
5.81981
6.95899
6.9816
6.90013
1
1
1
1
1
1
1
1.00001
1.00003
1.00007
1.00015
1.00039
1.00086
1.00228
1.00506
1.01343
1.03013
1.07906
1.18644
1.48599
2.23785
4.12328
6.52672
6.9296
6.91559
1
1
1
1
1
1
1
1.00001
1.00002
1.00004
1.00009
1.00024
1.00056
1.00139
1.00335
1.00803
1.0199
1.04746
1.1181
1.29286
1.74779
2.90115
5.55022
6.77494
6.97753
1
1
1
1
1
1
1
1
1.00001
1.00003
1.00006
1.00015
1.00034
1.0009
1.00201
1.00521
1.0119
1.03027
1.07147
1.17977
1.44757
2.14309
3.83513
6.35764
7.08367
1
1
1
1
1
1
1
1
1.00001
1.00002
1.00004
1.00009
1.00023
1.00052
1.00137
1.00303
1.008
1.01795
1.04664
1.10881
1.27954
1.69958
2.79716
5.36606
7.07151
1
1
1
1
1
1
1
1
1
1.00001
1.00002
1.00006
1.00014
1.00035
1.00081
1.00207
1.00468
1.01217
1.02745
1.07124
1.16724
1.42995
2.08004
3.68107
6.93981
1
1
1
1
1
1
1
1
1
1.00001
1.00002
1.00004
1.0001
1.00023
1.00058
1.00139
1.00334
1.00834
1.01951
1.04972
1.11849
1.30402
1.78344
3.08516
6.38465
1
1
1
1
1
1
1
1
1
1
1.00001
1.00003
1.00008
1.00017
1.00045
1.00103
1.00268
1.00625
1.01581
1.03815
1.09525
1.23871
1.62733
2.7095
5.71283
1
1
1
1
1
1
1
1
1
1
1.00001
1.00003
1.00006
1.00015
1.00039
1.00089
1.00237
1.00538
1.0144
1.03299
1.08751
1.21315
1.57412
2.58849
5.59836
1
1
1
1
1
1
1
1
1
1
1.00001
1.00002
1.00006
1.00014
1.00035
1.00086
1.00215
1.00515
1.01329
1.03158
1.08203
1.20389
1.5463
2.52677
5.4905
1
1
1
1
1
1
1
1
1
1
1.00001
1.00002
1.00006
1.00013
1.00035
1.00079
1.00214
1.00484
1.0131
1.0302
1.08022
1.19681
1.53209
2.48545
5.39054
1
1
1
1
1
1
1
1
1
1
1.00001
1.00002
1.00006
1.00013
1.00034
1.00077
1.00207
1.00479
1.01264
1.03003
1.07762
1.19404
1.51969
2.45467
5.29835
1
1
1
1
1
1
1
1
1
1
1.00001
1.00002
1.00005
1.00012
1.00033
1.00076
1.00203
1.00472
1.01241
1.0296
1.07635
1.19113
1.51113
2.42934
5.21569
1
1
1
1
1
1
1
1
1
1
1.00001
1.00002
1.00005
1.00013
1.00031
1.0008
1.00188
1.005
1.01152
1.03077
1.07313
1.19207
1.50156
2.4108
5.14432
1
1
1
1
1
1
1
1
1
1
1.00001
1.00002
1.00005
1.00012
1.00033
1.00074
1.00201
1.00456
1.01237
1.02853
1.07593
1.18582
1.50124
2.39209
5.08573
1
1
1
1
1
1
1
1
1
1
1.00001
1.00002
1.00005
1.00013
1.0003
1.0008
1.00184
1.00497
1.0113
1.03053
1.0719
1.18963
1.49291
2.38217
5.03652
1
1
1
1
1
1
1
1
1
1
1.00001
1.00002
1.00005
1.00012
1.00032
1.00074
1.002
1.00453
1.01232
1.02826
1.07539
1.18399
1.49497
2.36943
4.99847
1
1
1
1
1
1
1
1
1
1
1.00001
1.00002
1.00005
1.00013
1.0003
1.00079
1.0019
1.00473
1.0119
1.02899
1.07381
1.18573
1.49055
2.36316
4.96862
1
1
1
1
1
1
1
1
1
1
1.00001
1.00002
1.00005
1.00012
1.00032
1.00074
1.00199
1.00454
1.01228
1.0282
1.07521
1.18302
1.49124
2.35556
4.94729
1
1
1
1
1
1
1
1
1
1
1.00001
1.00002
1.00005
1.00013
1.00031
1.00079
1.00186
1.00493
1.01132
1.03028
1.07144
1.18762
1.48547
2.35412
4.93261
1
1
1
1
1
1
1
1
1
1
1.00001
1.00002
1.00005
1.00012
1.00032
1.00074
1.00199
1.00455
1.01227
1.02819
1.07503
1.18275
1.48923
2.34943
4.92693
3.74677
3.12495
4.09815
4.21817
3.95143
3.85177
3.80477
3.73409
3.63596
3.5403
3.45865
3.3814
3.30121
3.217
3.1304
3.08175
3.06182
3.05682
3.06789
3.11641
3.2026
3.31891
3.4539
3.59578
3.73631
3.87155
3.99905
4.11718
4.22616
4.32678
4.41973
4.50572
4.58498
4.65808
4.72555
4.78555
4.83796
4.88363
4.9228
4.9551
4.98566
5.01017
5.02735
5.03805
5.0431
5.04331
5.04061
5.03301
5.01924
5.00194
4.98146
4.95822
4.93221
4.90368
4.87271
4.83963
4.80461
4.76789
4.7296
4.69
4.64913
4.60725
4.5644
4.52074
4.47635
4.43131
4.38571
4.33958
4.29302
4.24602
4.19866
4.15095
4.10294
4.05466
4.00616
3.95748
3.9087
3.85987
3.81106
3.76234
3.71379
3.66545
3.61738
3.56962
3.52222
3.47521
3.42863
3.38253
3.33694
3.29195
3.24757
3.204
3.16133
3.11973
3.07958
3.04137
3.00583
2.97412
2.94789
2.93073
4.63812
4.08594
4.2558
4.15469
3.92981
3.87113
3.85787
3.76288
3.6345
3.52376
3.44371
3.37321
3.29378
3.21426
3.13887
3.08277
3.05661
3.04877
3.05747
3.10518
3.19071
3.30723
3.44344
3.58642
3.72751
3.86284
3.99028
4.10864
4.2174
4.31741
4.40993
4.49539
4.57354
4.6473
4.71556
4.77612
4.82894
4.87503
4.91458
4.94834
4.97757
5.00189
5.01963
5.031
5.03645
5.03684
5.03487
5.02846
5.01487
4.99698
4.97665
4.95386
4.92828
4.9001
4.86943
4.83663
4.80185
4.76535
4.72728
4.68782
4.64713
4.60534
4.56261
4.519
4.47468
4.42967
4.38411
4.33801
4.29146
4.24447
4.19712
4.14942
4.10141
4.05314
4.00464
3.95597
3.9072
3.85838
3.80959
3.7609
3.71237
3.66407
3.61604
3.56832
3.52095
3.47399
3.42742
3.38135
3.33578
3.2908
3.24637
3.20281
3.16013
3.11858
3.07838
3.04004
3.00427
2.9722
2.94539
2.92764
5.45093
4.68552
4.43335
4.19086
3.97004
3.8777
3.81297
3.72528
3.6194
3.5203
3.45002
3.37929
3.28852
3.2029
3.12859
3.07216
3.04407
3.03504
3.04674
3.09157
3.17193
3.286
3.42315
3.56701
3.7081
3.84419
3.97317
4.09247
4.20188
4.30255
4.39579
4.48222
4.56218
4.63636
4.70432
4.76494
4.81824
4.86475
4.90488
4.9391
4.96828
4.99219
5.01012
5.02181
5.02775
5.02825
5.02682
5.02165
5.00976
4.99097
4.97043
4.94791
4.92284
4.89509
4.86487
4.83241
4.79797
4.76173
4.72392
4.68466
4.64415
4.60249
4.55987
4.51634
4.47206
4.42709
4.38152
4.33542
4.28884
4.24184
4.19446
4.14672
4.09868
4.05037
4.00185
3.95316
3.90438
3.85556
3.8068
3.75814
3.70966
3.6614
3.61342
3.56574
3.51845
3.47157
3.42506
3.37903
3.33355
3.28868
3.2445
3.20093
3.15822
3.11657
3.07626
3.03768
3.00152
2.96884
2.94115
2.92252
5.81712
5.00871
4.56175
4.26979
4.05046
3.9048
3.81493
3.7187
3.61352
3.51302
3.43572
3.35989
3.27548
3.19361
3.1237
3.07477
3.04579
3.02939
3.0344
3.07565
3.15941
3.27137
3.40436
3.54709
3.68818
3.82394
3.95255
4.07189
4.18187
4.28326
4.37717
4.46388
4.54421
4.61841
4.68643
4.74729
4.80114
4.84811
4.88875
4.92337
4.95256
4.97634
4.99445
5.00665
5.01313
5.01403
5.01299
5.00908
4.99958
4.98113
4.96024
4.93772
4.91311
4.88601
4.85645
4.82457
4.79065
4.75487
4.71745
4.67855
4.63834
4.59695
4.55452
4.51118
4.46702
4.42216
4.37666
4.33061
4.28407
4.23709
4.18971
4.14198
4.09393
4.04562
3.99709
3.9484
3.89964
3.85088
3.80218
3.75362
3.70523
3.65711
3.60926
3.56163
3.51447
3.46775
3.42146
3.37568
3.33029
3.28549
3.24129
3.19778
3.15507
3.11337
3.07289
3.03405
2.99741
2.96405
2.93528
2.91537
6.00333
5.24032
4.72612
4.38328
4.14204
3.96429
3.83882
3.73257
3.62429
3.52265
3.4403
3.36046
3.27853
3.20105
3.13628
3.09035
3.06209
3.05244
3.06089
3.09523
3.17088
3.27437
3.39452
3.52366
3.65825
3.79155
3.92007
4.04063
4.15228
4.25531
4.35059
4.4385
4.51969
4.59451
4.66285
4.72426
4.77873
4.82641
4.86762
4.90275
4.93221
4.95617
4.97461
4.98735
4.99451
4.99596
4.99521
4.99224
4.98475
4.96913
4.94796
4.92515
4.90079
4.8743
4.84547
4.81432
4.78105
4.74584
4.70892
4.67045
4.6306
4.58953
4.54736
4.50423
4.46024
4.4155
4.3701
4.32412
4.27761
4.23065
4.18327
4.13553
4.08746
4.03913
3.99059
3.94193
3.89322
3.84454
3.79596
3.74757
3.69927
3.65134
3.60368
3.55655
3.50957
3.46304
3.41686
3.37121
3.32595
3.28129
3.23716
3.19377
3.1511
3.1094
3.06882
3.02974
2.99267
2.95862
2.9288
2.90762
6.11729
5.42735
4.89954
4.52079
4.24744
4.04546
3.89225
3.76876
3.65515
3.55053
3.45929
3.37694
3.30115
3.23558
3.18535
3.15294
3.13889
3.14054
3.15057
3.17746
3.23307
3.30793
3.39585
3.4968
3.61214
3.73836
3.87005
3.99605
4.11273
4.21924
4.31665
4.40585
4.48786
4.5631
4.63181
4.69378
4.74907
4.79757
4.83956
4.87533
4.90529
4.92967
4.9486
4.96202
4.97
4.9723
4.97177
4.96956
4.96386
4.95161
4.93149
4.90887
4.88469
4.85866
4.83055
4.80022
4.76776
4.73329
4.69702
4.65912
4.61976
4.57911
4.5373
4.49447
4.45073
4.4062
4.36096
4.31511
4.26869
4.22179
4.17444
4.12671
4.07865
4.03033
3.98183
3.93321
3.88461
3.83608
3.78764
3.73948
3.69165
3.64409
3.59675
3.54979
3.50306
3.45673
3.41071
3.36521
3.32011
3.2756
3.23162
3.18832
3.14575
3.10407
3.06344
3.02418
2.98676
2.95209
2.92135
2.89899
6.19064
5.57366
5.05978
4.66286
4.36322
4.13685
3.96268
3.82429
3.70411
3.59621
3.50061
3.41935
3.35627
3.31201
3.28523
3.27572
3.27889
3.29074
3.31401
3.33285
3.3559
3.38489
3.42363
3.48429
3.55371
3.6552
3.78844
3.92446
4.05344
4.16939
4.27236
4.36453
4.44789
4.5238
4.59295
4.65567
4.71208
4.76178
4.80494
4.84179
4.87267
4.8979
4.91766
4.932
4.94104
4.94453
4.9442
4.94265
4.93847
4.92929
4.91156
4.88989
4.86604
4.8404
4.81289
4.78334
4.75172
4.71808
4.68257
4.64534
4.60656
4.56641
4.52503
4.48257
4.43914
4.39486
4.34983
4.30414
4.25784
4.21102
4.16372
4.11601
4.06796
4.01966
3.97121
3.92264
3.8742
3.82602
3.77809
3.73037
3.68286
3.6356
3.58853
3.54178
3.49528
3.44918
3.4034
3.35811
3.31325
3.26894
3.22517
3.18205
3.13965
3.09807
3.05749
3.01817
2.98052
2.9454
2.91394
2.89053
6.23764
5.68498
5.19748
4.7978
4.48179
4.23542
4.04233
3.88914
3.76079
3.6508
3.55892
3.48928
3.44744
3.43055
3.43336
3.44781
3.48529
3.53367
3.54989
3.54754
3.53745
3.51233
3.49131
3.49814
3.52598
3.58773
3.68186
3.81535
3.9586
4.09198
4.209
4.31025
4.39851
4.47691
4.54688
4.61041
4.66756
4.7185
4.76296
4.80112
4.83329
4.85982
4.88075
4.89629
4.90664
4.91168
4.9116
4.91065
4.90773
4.90092
4.88692
4.86674
4.84368
4.81863
4.79173
4.76291
4.73211
4.69932
4.66464
4.62817
4.59009
4.55053
4.50968
4.46766
4.42462
4.38067
4.33592
4.29043
4.24431
4.19759
4.15038
4.10272
4.05474
4.00652
3.95823
3.91013
3.86215
3.81437
3.76676
3.71935
3.67209
3.62509
3.57829
3.53181
3.48561
3.43979
3.39433
3.34932
3.30475
3.2607
3.21721
3.17433
3.13216
3.09077
3.05035
3.01108
2.97337
2.938
2.90605
2.8819
6.26778
5.76924
5.31246
4.92039
4.59752
4.33752
4.12986
3.9641
3.82846
3.71941
3.63654
3.58747
3.58078
3.58876
3.61801
3.68771
3.79333
3.83924
3.83514
3.81499
3.76425
3.66257
3.57703
3.53974
3.54497
3.56903
3.62598
3.71479
3.83905
3.98037
4.11379
4.23139
4.33226
4.4186
4.49317
4.55888
4.6172
4.66913
4.71467
4.75397
4.78763
4.81554
4.83776
4.85491
4.86666
4.87344
4.8745
4.8739
4.87183
4.86685
4.85642
4.8388
4.81743
4.79347
4.76736
4.73929
4.70929
4.67736
4.64355
4.60793
4.57063
4.53179
4.49156
4.4501
4.40753
4.36398
4.31955
4.27434
4.22841
4.18185
4.13471
4.08714
4.03926
3.99137
3.94356
3.89592
3.84836
3.80094
3.75362
3.70651
3.65954
3.61288
3.5664
3.5203
3.47444
3.42901
3.3839
3.33927
3.29505
3.25137
3.20821
3.16568
3.12382
3.08274
3.04258
3.00352
2.96593
2.93055
2.89838
2.87377
6.28717
5.83407
5.40812
5.02981
4.70751
4.44048
4.22306
4.04879
3.91055
3.80741
3.74342
3.73626
3.74718
3.78495
3.87333
4.04504
4.16474
4.17273
4.15725
4.10581
3.9907
3.82949
3.70008
3.61867
3.59143
3.59662
3.61832
3.67083
3.74909
3.8554
3.98449
4.11333
4.23185
4.33462
4.42133
4.49438
4.55668
4.61067
4.65778
4.69867
4.73402
4.76338
4.78771
4.80702
4.82076
4.82963
4.83296
4.83266
4.83135
4.82793
4.82057
4.80608
4.78698
4.76461
4.73965
4.71253
4.68338
4.65231
4.61937
4.58464
4.54818
4.51015
4.47064
4.42983
4.38783
4.34477
4.30075
4.25586
4.21017
4.16379
4.11675
4.06944
4.02204
3.97466
3.92731
3.88004
3.83281
3.78572
3.73871
3.69194
3.64532
3.59902
3.55293
3.50721
3.46177
3.41673
3.37205
3.32782
3.28403
3.24076
3.19803
3.15591
3.11448
3.0738
3.03404
2.99536
2.95809
2.92297
2.89089
2.86623
6.29999
5.88533
5.48849
5.12708
4.81087
4.54287
4.32154
4.14472
4.01146
3.92389
3.90558
3.91717
3.95857
4.05754
4.26001
4.47196
4.54357
4.53199
4.48774
4.38307
4.18823
4.00055
3.8495
3.74177
3.67712
3.65401
3.65737
3.67314
3.71331
3.77971
3.86288
3.97292
4.09642
4.21513
4.31994
4.40842
4.48179
4.54274
4.59394
4.63734
4.67435
4.70564
4.73176
4.75304
4.76899
4.7802
4.78638
4.78722
4.78658
4.78444
4.77937
4.76889
4.75214
4.73166
4.70827
4.68235
4.65421
4.62403
4.59197
4.55809
4.52252
4.48531
4.44662
4.40652
4.36517
4.32266
4.27911
4.23456
4.18915
4.14297
4.09641
4.0496
4.00271
3.95578
3.90882
3.86189
3.81502
3.76829
3.72167
3.6753
3.62911
3.58323
3.5376
3.49232
3.44735
3.40279
3.3586
3.31486
3.27157
3.22881
3.1866
3.145
3.1041
3.06397
3.02477
2.98667
2.94996
2.91541
2.88378
2.85954
6.31015
5.92794
5.55757
5.2144
4.90844
4.64526
4.42689
4.25702
4.13902
4.09668
4.10665
4.14666
4.24715
4.45898
4.74135
4.90545
4.90271
4.87235
4.78574
4.60496
4.37794
4.17979
4.02006
3.89726
3.80831
3.75132
3.72058
3.72101
3.72863
3.7529
3.8033
3.86663
3.95458
4.06833
4.18299
4.28824
4.37909
4.45451
4.51597
4.56588
4.60681
4.64074
4.66895
4.69235
4.71054
4.7243
4.7332
4.73716
4.73694
4.73577
4.73262
4.72576
4.71213
4.69411
4.67266
4.64832
4.62148
4.59242
4.56136
4.52844
4.49379
4.4575
4.41968
4.38042
4.33982
4.29796
4.25493
4.2108
4.16574
4.12009
4.07413
4.02791
3.98151
3.93502
3.88846
3.84194
3.79547
3.74917
3.70299
3.65707
3.61134
3.56593
3.52079
3.47601
3.43156
3.38752
3.34387
3.30069
3.25797
3.2158
3.17419
3.13323
3.09299
3.05356
3.0151
2.97781
2.94196
2.90836
2.87758
2.85431
6.31873
5.96437
5.61846
5.29457
5.00258
4.75069
4.54507
4.39378
4.31937
4.32571
4.35982
4.45431
4.66031
4.98951
5.22651
5.27314
5.25084
5.17752
5.01504
4.77976
4.55661
4.3652
4.20567
4.07446
3.96813
3.88558
3.82513
3.78762
3.77175
3.77453
3.78798
3.82006
3.8652
3.93549
4.03309
4.13974
4.24352
4.33629
4.41436
4.47749
4.52771
4.56773
4.59989
4.62598
4.6469
4.66303
4.67459
4.68174
4.68347
4.68296
4.68114
4.67678
4.66764
4.65234
4.63299
4.61042
4.58512
4.5574
4.52751
4.49565
4.462
4.42666
4.38975
4.35135
4.31155
4.27037
4.2279
4.18427
4.13984
4.09489
4.04955
4.0039
3.95801
3.912
3.8659
3.81986
3.77386
3.72803
3.68234
3.63692
3.59171
3.54683
3.50223
3.45801
3.41413
3.37068
3.32765
3.2851
3.24304
3.20155
3.16067
3.12046
3.08104
3.0425
3.00502
2.96883
2.9342
2.90205
2.87266
2.85112
6.32785
5.99677
5.67469
5.37178
5.09885
4.86595
4.68754
4.5746
4.5763
4.6035
4.68859
4.88161
5.23564
5.52307
5.621
5.60601
5.5477
5.41099
5.1747
4.94193
4.73578
4.55645
4.39998
4.26307
4.14379
4.04179
3.95738
3.89103
3.84411
3.81406
3.80897
3.8138
3.83031
3.86352
3.91312
3.99237
4.08876
4.18844
4.28111
4.36122
4.42703
4.47934
4.52017
4.55197
4.57679
4.5961
4.61026
4.62016
4.62538
4.62545
4.62473
4.62236
4.61686
4.6056
4.58866
4.56816
4.54471
4.5186
4.49012
4.4595
4.42697
4.39267
4.35675
4.31926
4.28029
4.23982
4.19798
4.15511
4.11151
4.06732
4.02264
3.97761
3.93231
3.88686
3.84132
3.79582
3.75036
3.70508
3.65995
3.61508
3.57045
3.52615
3.48216
3.43855
3.39532
3.35252
3.31018
3.26834
3.22704
3.18634
3.1463
3.10701
3.0686
3.03118
2.99498
2.96029
2.92737
2.89734
2.87009
2.85118
6.34105
6.02979
5.73077
5.45182
5.20474
5.00524
4.87149
4.84844
4.87271
4.95371
5.141
5.50059
5.81573
5.94939
5.94027
5.89412
5.77884
5.55302
5.31935
5.1075
4.91986
4.75115
4.59709
4.45553
4.32613
4.20943
4.10649
4.01826
3.94591
3.88929
3.85121
3.82886
3.82959
3.83664
3.85431
3.89071
3.94974
4.03397
4.1253
4.2153
4.29707
4.36637
4.422
4.46509
4.4978
4.52237
4.54053
4.55325
4.56132
4.5645
4.56424
4.56302
4.55983
4.55291
4.53938
4.52153
4.50026
4.47602
4.44917
4.41998
4.38873
4.35558
4.3207
4.28418
4.24604
4.20631
4.16532
4.12337
4.08064
4.03725
3.99331
3.94898
3.90434
3.85954
3.81462
3.76974
3.72489
3.68021
3.63569
3.59145
3.54745
3.5038
3.46048
3.41756
3.37504
3.33299
3.29142
3.2504
3.20997
3.17019
3.13117
3.09299
3.05583
3.01986
2.98534
2.95269
2.92219
2.89524
2.87081
2.85443
6.36173
6.06839
5.79363
5.54434
5.33648
5.18948
5.14873
5.17082
5.24946
5.43456
5.7974
6.12183
6.27236
6.26621
6.22445
6.11562
5.89875
5.67393
5.46806
5.28145
5.10946
4.94747
4.79352
4.64723
4.50954
4.38154
4.26456
4.15962
4.06777
3.98972
3.92634
3.87818
3.8466
3.83368
3.83561
3.84366
3.86481
3.90834
3.97423
4.05535
4.14166
4.2241
4.29662
4.35626
4.40272
4.43742
4.46248
4.48006
4.49143
4.49801
4.49947
4.49899
4.49728
4.4932
4.48463
4.46999
4.45125
4.42917
4.40421
4.3767
4.34692
4.31507
4.28135
4.24583
4.20853
4.16971
4.12974
4.0888
4.047
4.0045
3.9614
3.91787
3.87399
3.82993
3.78573
3.74155
3.69739
3.65341
3.60958
3.56604
3.52276
3.47984
3.43727
3.39512
3.35341
3.31219
3.27151
3.23142
3.192
3.15332
3.11553
3.07873
3.04317
3.00909
2.97685
2.94701
2.92
2.89667
2.87519
2.86339
6.39828
6.11922
5.87196
5.6638
5.51434
5.46742
5.48938
5.57037
5.76212
6.13226
6.45507
6.60503
6.59793
6.55239
6.43705
6.21949
6.00246
5.80512
5.62622
5.45897
5.29745
5.13918
4.98437
4.83414
4.69006
4.5536
4.42603
4.30844
4.20169
4.10655
4.0237
3.95391
3.89797
3.85731
3.83232
3.82736
3.82849
3.83701
3.86089
3.91082
3.98117
4.0616
4.14312
4.21836
4.28228
4.33271
4.37022
4.3967
4.41443
4.4251
4.43051
4.43067
4.43001
4.4279
4.423
4.4129
4.39712
4.37757
4.35486
4.32934
4.30131
4.27097
4.23855
4.20406
4.16779
4.1301
4.09125
4.05137
4.01059
3.96907
3.92691
3.88428
3.84127
3.79803
3.75464
3.71124
3.66787
3.62465
3.5816
3.53884
3.49636
3.45425
3.41253
3.37125
3.33046
3.29021
3.25055
3.21156
3.17335
3.136
3.09973
3.06468
3.03122
2.99968
2.97056
2.94477
2.92173
2.9026
2.88626
2.88128
6.45983
6.18976
5.97983
5.83466
5.79444
5.81932
5.90997
6.12229
6.50497
6.82335
6.9581
6.94591
6.88737
6.74945
6.52871
6.31232
6.12124
5.95045
5.79066
5.63478
5.47901
5.32276
5.16719
5.01416
4.86544
4.72269
4.58717
4.45993
4.34181
4.23344
4.1355
4.04851
3.9731
3.91045
3.86154
3.82695
3.81247
3.80359
3.80579
3.81735
3.84594
3.90387
3.97555
4.05471
4.13111
4.19853
4.25355
4.29516
4.32442
4.34348
4.35439
4.35881
4.35865
4.35764
4.35491
4.34895
4.33698
4.32046
4.30042
4.27728
4.25134
4.2228
4.19187
4.15867
4.12368
4.08724
4.04959
4.01087
3.97122
3.93078
3.88966
3.84804
3.806
3.7637
3.72122
3.67872
3.63622
3.59388
3.55172
3.50984
3.46827
3.42709
3.38633
3.34605
3.30632
3.26716
3.22872
3.19103
3.15428
3.11859
3.08425
3.05151
3.02086
2.9928
2.96822
2.94694
2.92862
2.91632
2.90883
2.9093
6.54559
6.29568
6.14038
6.118
6.14985
6.2599
6.51064
6.91611
7.22895
7.33943
7.31959
7.24023
7.06454
6.83251
6.61345
6.42438
6.25928
6.10677
5.95795
5.80728
5.65378
5.49811
5.34165
5.1865
5.03438
4.88699
4.74551
4.61095
4.48407
4.36551
4.2558
4.15538
4.06487
3.98484
3.9162
3.85995
3.81739
3.79227
3.7752
3.76799
3.77204
3.78787
3.82363
3.887
3.95851
4.03396
4.10469
4.16488
4.21183
4.24544
4.2672
4.27908
4.28332
4.283
4.28157
4.27804
4.2706
4.25746
4.24032
4.21985
4.19638
4.17004
4.14094
4.10938
4.07597
4.04098
4.00469
3.96725
3.92884
3.88959
3.84964
3.80912
3.76817
3.72692
3.68547
3.64397
3.60248
3.56112
3.51997
3.47908
3.43855
3.39841
3.35876
3.31961
3.28111
3.24326
3.20626
3.17016
3.13524
3.10168
3.06988
3.04027
3.01348
2.99054
2.97084
2.95516
2.94448
2.94299
2.94433
2.94926
6.69733
6.46948
6.43456
6.47623
6.61371
6.91986
7.36518
7.67552
7.75506
7.724
7.61741
7.39407
7.14109
6.91387
6.72259
6.55912
6.4111
6.268
6.12349
5.97457
5.82143
5.66529
5.50783
5.35098
5.19636
5.04556
4.89957
4.75952
4.62588
4.4994
4.38047
4.26951
4.16702
4.07338
3.9893
3.91549
3.85293
3.80302
3.76778
3.74452
3.72567
3.7257
3.73198
3.75138
3.79327
3.85788
3.93008
4.00204
4.06694
4.11993
4.15891
4.18446
4.19863
4.20339
4.20302
4.20135
4.19723
4.1886
4.17453
4.15676
4.13591
4.11201
4.08518
4.05579
4.02433
3.9911
3.95639
3.92041
3.88336
3.84541
3.80671
3.76743
3.72767
3.6876
3.64731
3.60694
3.56659
3.52636
3.48635
3.44661
3.40726
3.36832
3.32995
3.29213
3.25507
3.21879
3.18354
3.14945
3.11687
3.08613
3.05778
3.03246
3.01151
2.99367
2.98053
2.97399
2.975
2.97908
2.99021
3.01493
6.84699
6.77403
6.82106
6.98333
7.34561
7.84609
8.16186
8.20654
8.16138
8.02214
7.74136
7.46218
7.22115
7.0229
6.85708
6.70993
6.57005
6.42988
6.28567
6.1361
5.98211
5.82496
5.66645
5.50819
5.35175
5.19828
5.04894
4.90447
4.76562
4.63281
4.50651
4.38717
4.27519
4.17086
4.07462
3.98704
3.90872
3.84068
3.78393
3.74021
3.70974
3.68471
3.66908
3.67112
3.68126
3.70624
3.75703
3.82132
3.89232
3.96007
4.01819
4.06318
4.09411
4.11181
4.11908
4.11879
4.11706
4.11263
4.10334
4.08859
4.07013
4.04855
4.02418
3.99734
3.9683
3.93723
3.90443
3.87015
3.83463
3.79814
3.76083
3.72292
3.68448
3.64573
3.60673
3.56767
3.52859
3.48966
3.45093
3.41252
3.37452
3.33699
3.30009
3.26386
3.22853
3.19418
3.16114
3.12964
3.10019
3.0733
3.04972
3.03102
3.01558
3.00449
3.00313
3.00524
3.0124
3.02939
3.06234
3.12054
7.031
7.14713
7.39577
7.88273
8.38161
8.68886
8.69123
8.62742
8.44723
8.11406
7.80198
7.54257
7.33301
7.16043
7.01015
6.8698
6.73111
6.58942
6.44296
6.29137
6.1359
5.97763
5.8181
5.65873
5.50077
5.34531
5.19327
5.04533
4.9022
4.76429
4.63214
4.50604
4.38636
4.27343
4.1675
4.06904
3.97838
3.89627
3.82327
3.76071
3.70877
3.67179
3.63904
3.6147
3.60721
3.61106
3.6247
3.65543
3.712
3.77634
3.84403
3.90666
3.95822
3.9956
4.01879
4.02983
4.02981
4.02849
4.02445
4.0156
3.99986
3.98029
3.95818
3.93391
3.90752
3.87899
3.84847
3.81622
3.78253
3.74771
3.71197
3.67557
3.63861
3.60132
3.56377
3.52617
3.48855
3.4511
3.41384
3.37697
3.34051
3.30466
3.26949
3.2352
3.20198
3.1701
3.13993
3.11191
3.08677
3.06525
3.049
3.03627
3.02865
3.02953
3.03401
3.04597
3.07139
3.12141
3.17589
3.25531
7.39332
7.84019
8.44704
8.99995
9.26216
9.24317
9.132
8.87285
8.50678
8.16349
7.88225
7.65836
7.47596
7.31885
7.17426
7.03337
6.89109
6.74511
6.59481
6.44081
6.28326
6.12377
5.96325
5.80295
5.64368
5.48659
5.33223
5.18151
5.03482
4.89281
4.75578
4.62416
4.49821
4.37827
4.26454
4.15737
4.05696
3.96383
3.8783
3.80119
3.73321
3.67518
3.63008
3.59149
3.56062
3.5385
3.53916
3.54523
3.56259
3.59961
3.6573
3.72231
3.78711
3.84425
3.88879
3.91843
3.93415
3.93735
3.93633
3.93271
3.92446
3.90798
3.88829
3.86619
3.84212
3.81606
3.78804
3.75818
3.72673
3.69393
3.66006
3.62539
3.59012
3.55446
3.51856
3.48258
3.44661
3.41083
3.37528
3.34016
3.30555
3.27164
3.23861
3.2067
3.17622
3.14755
3.12126
3.09809
3.07904
3.06581
3.05516
3.05288
3.05513
3.06238
3.08054
3.11774
3.17409
3.24923
3.32104
3.40638
8.08851
9.03821
9.7016
9.92522
9.87777
9.69681
9.31914
8.91203
8.54515
8.24316
8.00295
7.80846
7.64209
7.48998
7.34314
7.19651
7.04763
6.89583
6.74102
6.58388
6.42435
6.26367
6.10218
5.94094
5.7805
5.62194
5.46566
5.31256
5.16295
5.01749
4.87642
4.74019
4.60906
4.48333
4.36322
4.24897
4.14082
4.03886
3.9436
3.85522
3.77448
3.70189
3.63857
3.58592
3.54262
3.50364
3.47516
3.46196
3.46404
3.473
3.49485
3.53936
3.59733
3.66165
3.72261
3.77335
3.81021
3.83203
3.84064
3.84006
3.83718
3.83
3.81528
3.7958
3.77344
3.7492
3.7234
3.69601
3.66708
3.63665
3.60503
3.5724
3.5391
3.5053
3.47126
3.4371
3.40301
3.36911
3.33554
3.30246
3.27004
3.23851
3.20815
3.17929
3.15241
3.12807
3.10728
3.091
3.08065
3.07356
3.07433
3.07868
3.09084
3.11688
3.16659
3.23333
3.31223
3.40094
3.47684
3.55156
9.41901
10.5307
10.7014
10.6077
10.3251
9.80978
9.34078
8.94535
8.623
8.36771
8.1607
7.98366
7.82197
7.66625
7.51168
7.35629
7.19952
7.04133
6.8818
6.72122
6.5596
6.39734
6.23478
6.07248
5.91101
5.75105
5.59321
5.43804
5.28605
5.13767
4.99319
4.85306
4.71761
4.5871
4.46166
4.34153
4.22684
4.11779
4.01459
3.91745
3.82678
3.74289
3.66657
3.59845
3.53961
3.49135
3.44621
3.41038
3.38465
3.38162
3.38497
3.39667
3.42298
3.47409
3.53289
3.59462
3.65067
3.69482
3.7237
3.73942
3.73988
3.73831
3.73321
3.72199
3.70255
3.68009
3.65598
3.63064
3.60403
3.57608
3.54693
3.5167
3.48568
3.45406
3.42215
3.39008
3.35811
3.32637
3.29508
3.26442
3.23467
3.20612
3.17919
3.15436
3.1324
3.11409
3.10156
3.09351
3.09166
3.09389
3.10182
3.12078
3.15936
3.21759
3.29236
3.37909
3.46808
3.55345
3.61726
3.67044
11.0135
11.6273
11.4603
11.0146
10.3615
9.80724
9.36678
9.01841
8.7507
8.53335
8.34564
8.17298
8.00629
7.84113
7.67611
7.51116
7.34645
7.18204
7.01779
6.85363
6.6896
6.52528
6.36135
6.19789
6.0353
5.87404
5.71461
5.55753
5.40324
5.25219
5.10487
4.96161
4.82245
4.68788
4.55791
4.43291
4.31284
4.19796
4.08834
3.98414
3.88561
3.79292
3.70659
3.62696
3.55493
3.49072
3.4367
3.38738
3.34431
3.31294
3.29603
3.29686
3.30246
3.31811
3.35141
3.40458
3.46472
3.52365
3.57366
3.61045
3.63213
3.63917
3.63835
3.63482
3.62617
3.60863
3.58718
3.56349
3.53855
3.51271
3.48598
3.45838
3.42997
3.40093
3.3715
3.34189
3.31237
3.28317
3.25457
3.22686
3.20043
3.17572
3.15334
3.13405
3.1188
3.11
3.10602
3.10704
3.11227
3.12595
3.15467
3.20505
3.27248
3.35481
3.44539
3.53635
3.61725
3.68343
3.72523
3.75523
12.0519
12.1203
11.774
11.0154
10.3314
9.81685
9.43163
9.14959
8.92417
8.72751
8.54347
8.36409
8.18624
8.00928
7.83368
7.65988
7.48799
7.31782
7.14893
6.98098
6.8138
6.64718
6.48142
6.31656
6.15273
5.99016
5.82934
5.6706
5.5144
5.36118
5.2112
5.06499
4.92259
4.78456
4.65071
4.52159
4.39696
4.2772
4.16224
4.05223
3.94734
3.84764
3.75347
3.66504
3.58288
3.50747
3.43945
3.38071
3.32689
3.27909
3.24063
3.21521
3.20674