/*--------------------------------*- C++ -*----------------------------------*\
  =========                 |
  \\      /  F ield         | OpenFOAM: The Open Source CFD Toolbox
   \\    /   O peration     | Website:  https://openfoam.org
    \\  /    A nd           | Version:  9
     \\/     M anipulation  |
\*---------------------------------------------------------------------------*/
FoamFile
{
    format      ascii;
    class       surfaceScalarField;
    location    "8";
    object      phi;
}
// * * * * * * * * * * * * * * * * * * * * * * * * * * * * * * * * * * * * * //

dimensions      [1 0 -1 0 0 0 0];

internalField   nonuniform List<scalar> 
10325
(
0.00840002
7.6683e-11
0.00840005
5.69492e-10
0.00839994
1.65961e-09
0.00840021
6.08484e-09
0.00839949
1.15755e-08
0.00840132
4.17203e-08
0.0083969
6.50979e-08
0.00840707
2.53872e-07
0.00838541
3.75603e-07
0.008421
1.45576e-06
0.00836673
2.91708e-06
0.00840993
9.59287e-06
0.00833694
2.96953e-05
0.00823423
0.000119911
0.00762989
0.000588508
0.00700948
0.000621352
0.00640004
0.000610258
0.00576565
0.000634161
0.00509873
0.000666557
0.00438742
0.000710691
0.00362109
0.00076561
0.00279847
0.000821857
0.0019236
0.000874089
0.000994411
0.000928801
0.000993948
0.00840002
1.47043e-10
0.00840004
9.68697e-10
0.00839997
3.36162e-09
0.00840011
9.51901e-09
0.00839969
2.53246e-08
0.00840078
6.28194e-08
0.00839761
1.61199e-07
0.0084054
3.8666e-07
0.00838724
1.00719e-06
0.00841769
2.4506e-06
0.00837086
6.70291e-06
0.00840465
1.8737e-05
0.0083366
6.15441e-05
0.00822924
0.000241138
0.00762192
0.00118101
0.00699567
0.0012488
0.0063943
0.00121244
0.00576638
0.00126185
0.00510259
0.00132998
0.0043849
0.00142777
0.00361022
0.00153958
0.00277938
0.00165194
0.00189307
0.00175961
0.000959413
0.00186205
0.00195288
0.00840002
3.12271e-10
0.00840004
1.14919e-09
0.00839997
6.34037e-09
0.00840011
1.14451e-08
0.00839967
4.48122e-08
0.00840083
8.63726e-08
0.00839754
2.57367e-07
0.00840539
5.94583e-07
0.00838754
1.5052e-06
0.00841685
3.86976e-06
0.00837162
9.91071e-06
0.00840344
2.85943e-05
0.008338
9.22951e-05
0.00823354
0.000358483
0.00763929
0.00176023
0.00701083
0.00187874
0.00641624
0.00180792
0.00579651
0.00188132
0.00513876
0.00198734
0.00442282
0.00214312
0.00364723
0.00231453
0.00281034
0.00248815
0.00191454
0.00265464
0.000967138
0.00280903
0.00291954
0.00840002
4.09982e-10
0.00840001
1.72288e-09
0.00840007
7.96561e-09
0.0083999
1.66657e-08
0.00840019
6.09381e-08
0.00839961
1.02876e-07
0.0084001
4.10802e-07
0.00839898
5.99594e-07
0.00839935
2.52551e-06
0.00839531
4.14145e-06
0.00839852
1.47546e-05
0.00837692
3.61373e-05
0.00835531
0.000123538
0.00823965
0.000465471
0.00768054
0.00230813
0.00705626
0.00250538
0.00646846
0.00239679
0.00585958
0.00248997
0.00521148
0.00263517
0.00450383
0.0028501
0.00372996
0.00308746
0.00289073
0.00332636
0.00198
0.0035645
0.00100767
0.00378094
0.00392669
0.00840002
2.96097e-10
0.00840002
2.94123e-09
0.00840002
6.95356e-09
0.00839999
2.87796e-08
0.00840008
5.13389e-08
0.00839953
1.95248e-07
0.008401
3.12579e-07
0.00839613
1.23226e-06
0.008406
1.97634e-06
0.00838609
7.29229e-06
0.00840789
1.50703e-05
0.0083733
4.84228e-05
0.00836597
0.000147816
0.00825433
0.000562713
0.00776032
0.00279052
0.00713197
0.00313623
0.00655205
0.00297807
0.00595533
0.00308643
0.00532054
0.00326943
0.00462757
0.00354272
0.00386269
0.00385212
0.00302019
0.00416876
0.00209272
0.00449145
0.00107572
0.00479778
0.00500197
0.00840002
6.08045e-10
0.00840002
2.39827e-09
0.00840003
1.20749e-08
0.00839999
2.36908e-08
0.00839996
8.88383e-08
0.00840009
1.57999e-07
0.00839916
5.56451e-07
0.00840095
9.91456e-07
0.00839603
3.36127e-06
0.00840129
6.67128e-06
0.00839218
2.05542e-05
0.00838585
5.305e-05
0.00836051
0.000173999
0.008283
0.000636061
0.00790614
0.00315242
0.00726605
0.00378017
0.00668381
0.00356175
0.00609709
0.00367294
0.00547838
0.00388787
0.00480191
0.00421872
0.00405026
0.00460296
0.00320715
0.00501075
0.00225689
0.00544074
0.00118406
0.00586982
0.00618544
0.00840003
4.96852e-10
0.00840001
3.22165e-09
0.00840006
1.07138e-08
0.00839992
3.17325e-08
0.00840027
8.0761e-08
0.00839923
2.08932e-07
0.00840188
5.27212e-07
0.00839516
1.2777e-06
0.00841003
3.33754e-06
0.00838031
8.05963e-06
0.00842081
2.16922e-05
0.0083674
5.94412e-05
0.00839031
0.000187191
0.00832507
0.000677619
0.00816419
0.00330159
0.00750665
0.00444191
0.0068934
0.00417682
0.00630518
0.00426101
0.00570162
0.00449117
0.00504306
0.00487683
0.00430674
0.00533867
0.00346986
0.00584704
0.00249952
0.00641064
0.00135341
0.00701606
0.00753861
0.00840003
4.57217e-10
0.00840002
3.21037e-09
0.00840002
1.06148e-08
0.00840003
3.14496e-08
0.00840003
8.00666e-08
0.00839982
2.15359e-07
0.00840052
5.07001e-07
0.00839781
1.38241e-06
0.00840402
3.14024e-06
0.00839117
8.79503e-06
0.00840896
2.1133e-05
0.00838891
6.12824e-05
0.00840325
0.000185527
0.00840509
0.000663426
0.00859514
0.00309773
0.00790793
0.00513335
0.00722035
0.00486657
0.00661653
0.00486513
0.0060204
0.00508729
0.00537694
0.00552025
0.00465786
0.00605786
0.00383003
0.00667445
0.0028538
0.00738604
0.00163273
0.00823643
0.009171
0.00840003
3.77813e-10
0.00840001
3.27564e-09
0.00840008
8.90616e-09
0.0083999
3.21869e-08
0.00840038
6.74702e-08
0.00839929
2.10338e-07
0.00840202
4.31038e-07
0.00839626
1.28956e-06
0.00840986
2.75585e-06
0.00838491
7.81412e-06
0.00842892
1.86087e-05
0.00838405
5.2571e-05
0.00846129
0.000154686
0.00856307
0.000532146
0.0093263
0.00232333
0.0085998
0.00586347
0.00771899
0.00574972
0.0070958
0.00548925
0.00645917
0.00572445
0.00583223
0.00614697
0.00512862
0.00676138
0.00435022
0.00745283
0.00341966
0.00831642
0.00212322
0.00953267
0.011294
0.00840002
5.09081e-10
0.00840003
2.24735e-09
0.00840002
1.02699e-08
0.00840004
2.22244e-08
0.00839996
7.45774e-08
0.00840027
1.50545e-07
0.00839925
4.64404e-07
0.00840232
9.38919e-07
0.00839552
2.79096e-06
0.00841046
5.98284e-06
0.00839216
1.68514e-05
0.00842454
4.19091e-05
0.00843416
0.000125785
0.00856402
0.000411689
0.00914202
0.00173185
0.00885254
0.00615018
0.00815082
0.00644999
0.00755395
0.006087
0.00695096
0.00632738
0.00636828
0.00672958
0.00574791
0.00738159
0.00507284
0.00812777
0.00420912
0.00917989
0.00297056
0.010771
0.014264
0.00840003
3.6193e-10
0.00840001
2.50578e-09
0.00840006
7.89549e-09
0.00839995
2.4477e-08
0.00840026
6.0259e-08
0.00839947
1.56428e-07
0.00840158
3.90889e-07
0.00839691
9.39789e-07
0.00840842
2.44235e-06
0.0083862
5.68866e-06
0.00842578
1.52579e-05
0.0083786
3.85116e-05
0.00843751
0.000112735
0.00845564
0.000364987
0.00872729
0.00146193
0.00870003
0.0061643
0.00843925
0.00670771
0.00786835
0.00665716
0.00739777
0.00679734
0.00691719
0.00720968
0.00647061
0.00782769
0.00596821
0.00862977
0.00550956
0.00963832
0.00543651
0.010844
0.011357
0.00834378
0.00840003
3.26208e-10
0.00840003
2.3597e-09
0.00840001
7.57903e-09
0.00840006
2.34637e-08
0.00839997
5.58097e-08
0.00840006
1.60616e-07
0.0084001
3.38739e-07
0.00839932
1.01455e-06
0.00840148
2.04134e-06
0.00839664
6.23606e-06
0.00840456
1.33337e-05
0.00839866
3.91105e-05
0.00840707
0.000104522
0.00842612
0.000343401
0.00858632
0.00129841
0.00871963
0.00601845
0.00840075
0.00702563
0.00802734
0.00702985
0.00769753
0.00712649
0.00734872
0.00755788
0.00702651
0.0081495
0.00675633
0.00889962
0.00664617
0.00974788
0.00701455
0.010475
0.0104628
0.00790747
0.00840003
3.96276e-10
0.00840002
2.0974e-09
0.00840005
8.21424e-09
0.00839999
2.05325e-08
0.00840009
6.1375e-08
0.00839993
1.35125e-07
0.00840003
3.94941e-07
0.00840013
8.30848e-07
0.00839905
2.43968e-06
0.00840104
5.19285e-06
0.00839853
1.49324e-05
0.00839993
3.55668e-05
0.00840616
0.000104339
0.00841979
0.000322076
0.00852848
0.00118778
0.00892198
0.00561064
0.00860576
0.00734203
0.00827372
0.00736214
0.00798619
0.00741356
0.00775251
0.00779083
0.00754547
0.00835599
0.00745417
0.00899045
0.00760454
0.00959767
0.00804663
0.0100323
0.00993536
0.0085736
0.00840003
2.87479e-10
0.00840002
2.26411e-09
0.00840003
6.65458e-09
0.00840001
2.22778e-08
0.00840008
5.03811e-08
0.00839983
1.47966e-07
0.00840059
3.24909e-07
0.00839854
9.03578e-07
0.008404
2.05357e-06
0.00839204
5.49852e-06
0.00841634
1.32368e-05
0.00838193
3.53449e-05
0.00842866
9.55438e-05
0.0084196
0.000296948
0.00857164
0.0010506
0.00946038
0.00470224
0.00907159
0.00773231
0.00863408
0.00780059
0.00834806
0.00769986
0.00816472
0.00797362
0.00807039
0.00844982
0.00809998
0.00896082
0.00829625
0.00940094
0.00867411
0.00965416
0.00950073
0.00910798
0.00840003
3.09264e-10
0.00840004
1.65764e-09
0.00840001
6.5886e-09
0.00840009
1.62963e-08
0.00839992
4.8539e-08
0.00840038
1.10303e-07
0.00839946
3.01017e-07
0.00840189
7.02304e-07
0.00839727
1.79959e-06
0.00840888
4.42758e-06
0.0083905
1.09621e-05
0.008431
2.8359e-05
0.00840566
7.49252e-05
0.00852331
0.000220991
0.00880622
0.000740394
0.0104371
0.003059
0.00980594
0.00836457
0.0093399
0.008268
0.00886964
0.0081709
0.00863505
0.00820825
0.00856165
0.00852291
0.00861875
0.00890348
0.00881729
0.00920272
0.0091381
0.00933282
0.00914716
0.00949081
0.00840003
2.07212e-10
0.00840002
1.58906e-09
0.00840004
4.74585e-09
0.0084
1.55918e-08
0.00840013
3.60168e-08
0.00839983
1.00994e-07
0.0084007
2.31228e-07
0.00839895
6.05559e-07
0.00840383
1.43816e-06
0.00839471
3.59397e-06
0.00841723
8.95276e-06
0.00838794
2.22398e-05
0.00845103
5.86268e-05
0.00845937
0.00016565
0.0086899
0.000534282
0.00964058
0.00209456
0.0101216
0.00787896
0.009788
0.00860049
0.00933118
0.00862713
0.00909202
0.00844759
0.00901925
0.0085954
0.00906782
0.00885492
0.0092317
0.00903891
0.00949449
0.00907053
0.00886544
0.00977589
0.00840003
2.22196e-10
0.00840003
1.16759e-09
0.00840002
4.66095e-09
0.00840006
1.15617e-08
0.00839996
3.43509e-08
0.00840025
7.76347e-08
0.00839966
2.13804e-07
0.00840123
4.85006e-07
0.00839816
1.28755e-06
0.00840621
3.0072e-06
0.00839178
7.76273e-06
0.00842277
1.90098e-05
0.00839001
4.99486e-05
0.00846434
0.000137835
0.00852228
0.000434328
0.00902347
0.00161054
0.0100443
0.00683714
0.00992449
0.0087182
0.00970668
0.00884394
0.00946979
0.00868418
0.00939643
0.00866868
0.00944642
0.00880495
0.00957945
0.00890618
0.00977976
0.00887052
0.00864647
0.00999904
0.00840003
1.63754e-10
0.00840003
1.11997e-09
0.00840003
3.63807e-09
0.00840003
1.09748e-08
0.00840005
2.73335e-08
0.00839998
7.23383e-08
0.00840024
1.74562e-07
0.00839958
4.43004e-07
0.00840174
1.07801e-06
0.00839697
2.69506e-06
0.00840986
6.68442e-06
0.00838883
1.67997e-05
0.00843037
4.33524e-05
0.00840939
0.000118373
0.00851438
0.000360686
0.00882648
0.00127695
0.0103403
0.00531098
0.010283
0.00877631
0.0100598
0.00906802
0.00981427
0.00893035
0.00973206
0.00875126
0.00976679
0.00877004
0.00987353
0.00879964
0.010023
0.00872125
0.00848612
0.0101833
0.00840003
1.23126e-10
0.00840003
8.78121e-10
0.00840003
2.83944e-09
0.00840004
8.63581e-09
0.00840002
2.11811e-08
0.00840008
5.78192e-08
0.00840006
1.31191e-07
0.00840009
3.5929e-07
0.00840073
7.87253e-07
0.00839953
2.18824e-06
0.00840573
4.79749e-06
0.00839921
1.32888e-05
0.0084276
3.09015e-05
0.00844058
8.60767e-05
0.00857412
0.000241731
0.00903438
0.000801766
0.0111962
0.00313409
0.0109201
0.00905167
0.0107104
0.00928013
0.0103507
0.0092914
0.0101369
0.00896553
0.0100945
0.00881271
0.0101503
0.00874385
0.0102508
0.00862095
0.00837705
0.0103603
0.00840003
1.1272e-10
0.00840003
6.39397e-10
0.00840003
2.42482e-09
0.00840003
6.29177e-09
0.00840004
1.79792e-08
0.00840005
4.17485e-08
0.00840002
1.11824e-07
0.00840031
2.56923e-07
0.00839965
6.72797e-07
0.00840252
1.56263e-06
0.00839739
4.0142e-06
0.00841398
9.60144e-06
0.00839689
2.456e-05
0.00845203
6.2577e-05
0.00848361
0.000175909
0.00876021
0.000551366
0.00979101
0.00208099
0.0110955
0.00773989
0.0109884
0.00938725
0.0107638
0.00951676
0.0105104
0.00921984
0.0104087
0.00891466
0.0104142
0.00873857
0.0104673
0.00856762
0.0083124
0.010532
0.00840003
8.4978e-11
0.00840003
5.26253e-10
0.00840004
1.83959e-09
0.00840002
5.18828e-09
0.00840006
1.37029e-08
0.00839999
3.43236e-08
0.00840021
8.69474e-08
0.00839984
2.09661e-07
0.00840092
5.31809e-07
0.00839921
1.26761e-06
0.00840391
3.24438e-06
0.00839791
7.74313e-06
0.00841597
2.00651e-05
0.00840589
5.0162e-05
0.0084716
0.000138667
0.0085759
0.000418838
0.00916956
0.00149733
0.011036
0.00585588
0.0111685
0.00925422
0.0110783
0.00960707
0.0108354
0.00946327
0.0107001
0.00905032
0.010662
0.00877635
0.0106774
0.00855217
0.00828324
0.010706
0.00840003
5.91872e-11
0.00840003
4.2249e-10
0.00840003
1.32723e-09
0.00840003
4.15377e-09
0.00840005
9.94294e-09
0.00840001
2.72023e-08
0.00840016
6.32658e-08
0.00839986
1.64166e-07
0.00840091
3.8989e-07
0.00839905
9.7588e-07
0.00840515
2.39003e-06
0.00839553
5.82603e-06
0.0084242
1.47829e-05
0.00839797
3.6494e-05
0.00849097
9.74246e-05
0.00857812
0.000278529
0.00918523
0.00091711
0.0115647
0.00345224
0.0116557
0.00916015
0.0115633
0.00970056
0.0113226
0.00970491
0.0110513
0.00932212
0.0109329
0.00889434
0.010897
0.00858695
0.00829079
0.010889
0.00840003
4.67986e-11
0.00840003
3.02432e-10
0.00840003
1.0396e-09
0.00840004
2.97627e-09
0.00840002
7.72545e-09
0.00840007
1.97261e-08
0.00839999
4.80091e-08
0.00840026
1.2109e-07
0.00839988
2.88237e-07
0.00840113
7.28493e-07
0.00839976
1.72443e-06
0.00840471
4.38991e-06
0.0084022
1.04429e-05
0.00842317
2.69158e-05
0.00843352
6.76679e-05
0.00854743
0.000189122
0.00885623
0.000584283
0.0101713
0.00214506
0.0117765
0.00753999
0.0118133
0.00966266
0.0116368
0.00988113
0.0113603
0.00959925
0.0112256
0.009028
0.0111369
0.0086747
0.00833862
0.011087
0.00840003
3.75384e-11
0.00840003
2.18292e-10
0.00840003
8.14595e-10
0.00840003
2.14065e-09
0.00840003
6.00422e-09
0.00840005
1.42931e-08
0.0084
3.72938e-08
0.0084002
8.87058e-08
0.00839983
2.22793e-07
0.00840113
5.42976e-07
0.00839896
1.32465e-06
0.00840621
3.32666e-06
0.00839537
7.9743e-06
0.00842717
2.05606e-05
0.00840317
5.08544e-05
0.00850334
0.000138857
0.00862799
0.000410848
0.00936256
0.00143371
0.011702
0.00518043
0.0119636
0.009397
0.0120059
0.00983778
0.0118327
0.00977144
0.0115226
0.00933724
0.0113922
0.00880368
0.00842167
0.0113083
0.00840003
2.5668e-11
0.00840003
1.62586e-10
0.00840003
5.56024e-10
0.00840003
1.5986e-09
0.00840004
4.15511e-09
0.00840003
1.03646e-08
0.00840007
2.62748e-08
0.00840003
6.20564e-08
0.00840021
1.59998e-07
0.00840023
3.66505e-07
0.00840055
9.6111e-07
0.00840215
2.17733e-06
0.00840208
5.76232e-06
0.00841395
1.32151e-05
0.00842203
3.50855e-05
0.00848164
8.68322e-05
0.00863587
0.000248724
0.00929352
0.000780939
0.0116663
0.00279549
0.0124396
0.00861716
0.0123667
0.0099085
0.0121505
0.00998563
0.0118314
0.00965452
0.011666
0.00896714
0.00854626
0.0115399
0.00840003
1.72589e-11
0.00840003
1.18711e-10
0.00840003
3.90511e-10
0.00840003
1.16446e-09
0.00840003
2.897e-09
0.00840004
7.72098e-09
0.00840004
1.7886e-08
0.00840005
4.7337e-08
0.00840015
1.07111e-07
0.0084
2.83008e-07
0.00840103
6.41867e-07
0.00839945
1.67704e-06
0.0084067
3.86666e-06
0.00839737
1.00076e-05
0.00843392
2.39047e-05
0.00841702
6.25547e-05
0.00854904
0.000165359
0.00877569
0.000506104
0.00980523
0.00178825
0.0122053
0.00619409
0.0124704
0.00963956
0.0125255
0.00992703
0.0123171
0.00986052
0.0119776
0.0093065
0.00873317
0.0117881
0.00840003
1.27687e-11
0.00840003
7.93503e-11
0.00840003
2.80245e-10
0.00840003
7.80066e-10
0.00840003
2.0813e-09
0.00840004
5.13171e-09
0.00840003
1.29684e-08
0.00840008
3.11758e-08
0.0084
7.76299e-08
0.00840041
1.86502e-07
0.00839976
4.61213e-07
0.00840247
1.11022e-06
0.00839863
2.74409e-06
0.00841369
6.66158e-06
0.00839706
1.65441e-05
0.00845955
4.131e-05
0.00845883
0.000107708
0.00871549
0.000304976
0.00947199
0.000991963
0.0121987
0.00345709
0.0128356
0.00899673
0.0128359
0.00992429
0.0126244
0.0100697
0.0123082
0.00962034
0.00896739
0.0120729
0.00840003
9.20504e-12
0.00840003
5.34061e-11
0.00840003
1.99133e-10
0.00840003
5.25851e-10
0.00840003
1.46926e-09
0.00840003
3.47476e-09
0.00840003
9.10359e-09
0.00840006
2.11773e-08
0.00840002
5.41103e-08
0.00840027
1.27212e-07
0.00839989
3.18493e-07
0.00840161
7.63551e-07
0.00839918
1.87106e-06
0.0084092
4.5936e-06
0.00839763
1.11364e-05
0.00844298
2.80783e-05
0.00842928
7.03451e-05
0.00860364
0.000191886
0.00895277
0.000582144
0.010402
0.00203612
0.0126953
0.00667991
0.0128882
0.00972818
0.0130123
0.00994291
0.0127348
0.00989643
0.00929033
0.0124096
0.00840003
5.92617e-12
0.00840003
3.76839e-11
0.00840003
1.3007e-10
0.00840003
3.70638e-10
0.00840003
9.62139e-10
0.00840003
2.43174e-09
0.00840004
6.01143e-09
0.00840003
1.46807e-08
0.00840009
3.61052e-08
0.00840003
8.70864e-08
0.00840031
2.15028e-07
0.00840029
5.15566e-07
0.00840099
1.27786e-06
0.00840271
3.06281e-06
0.00840429
7.63053e-06
0.00841727
1.8558e-05
0.00843508
4.70747e-05
0.00850766
0.000121755
0.00873625
0.000349665
0.00961988
0.00114983
0.0124077
0.00387292
0.013155
0.00897363
0.013192
0.00990273
0.0130349
0.0100508
0.00959397
0.0127289
0.00840003
3.89069e-12
0.00840003
2.57599e-11
0.00840003
8.56326e-11
0.00840003
2.53315e-10
0.00840003
6.36986e-10
0.00840003
1.64448e-09
0.00840004
3.99223e-09
0.00840003
9.83895e-09
0.00840008
2.41678e-08
0.00840003
5.77355e-08
0.00840027
1.44349e-07
0.00840011
3.38901e-07
0.00840101
8.59796e-07
0.00840141
1.99358e-06
0.00840409
5.12052e-06
0.00841019
1.1919e-05
0.0084277
3.0896e-05
0.00846698
7.58739e-05
0.00861633
0.000209138
0.00912772
0.00063091
0.0108286
0.0021627
0.0130585
0.00673187
0.0132196
0.00973669
0.0133516
0.00991248
0.00977321
0.0131653
0.00840003
2.59482e-12
0.00840003
1.65242e-11
0.00840003
5.78951e-11
0.00840003
1.62437e-10
0.00840003
4.28762e-10
0.00840003
1.07379e-09
0.00840003
2.6344e-09
0.00840003
6.5434e-09
0.00840005
1.55359e-08
0.00840004
3.91571e-08
0.00840018
9.13719e-08
0.00840001
2.31801e-07
0.00840113
5.38346e-07
0.00839964
1.36822e-06
0.00840698
3.18731e-06
0.00839849
8.11239e-06
0.00843685
1.92543e-05
0.00841469
4.954e-05
0.0085638
0.000126382
0.00875966
0.000363013
0.00977215
0.00118941
0.0126082
0.00386331
0.0134838
0.00885135
0.013362
0.0100252
0.00973625
0.0133868
0.00840003
1.7158e-12
0.00840003
1.08827e-11
0.00840003
3.74218e-11
0.00840003
1.06919e-10
0.00840003
2.76357e-10
0.00840003
6.97195e-10
0.00840003
1.71615e-09
0.00840003
4.18634e-09
0.00840005
1.02839e-08
0.00840003
2.46603e-08
0.00840014
6.08452e-08
0.00840007
1.44819e-07
0.00840051
3.59648e-07
0.0084006
8.50563e-07
0.008402
2.12328e-06
0.00840455
5.02399e-06
0.00841139
1.26167e-05
0.00842766
3.05267e-05
0.00848306
7.82832e-05
0.00862226
0.000208811
0.00918395
0.000634563
0.0109145
0.00212391
0.013317
0.0064267
0.0136147
0.0097109
0.0098553
0.0134775
0.00840003
1.02473e-12
0.00840003
7.00217e-12
0.00840003
2.31642e-11
0.00840003
6.89043e-11
0.00840003
1.70875e-10
0.00840003
4.52278e-10
0.00840003
1.04809e-09
0.00840003
2.73368e-09
0.00840004
6.21614e-09
0.00840003
1.60809e-08
0.00840011
3.67902e-08
0.00840002
9.37945e-08
0.0084005
2.17597e-07
0.00840004
5.44977e-07
0.00840266
1.29094e-06
0.00840058
3.17049e-06
0.00841388
7.68069e-06
0.00840827
1.87403e-05
0.00846948
4.70272e-05
0.00851053
0.000120423
0.00885172
0.000339936
0.00983853
0.00109796
0.012761
0.0034888
0.0138482
0.00860364
0.0097865
0.0138631
0.00840003
6.7883e-13
0.00840003
4.29754e-12
0.00840003
1.4783e-11
0.00840003
4.20356e-11
0.00840003
1.09713e-10
0.00840003
2.71389e-10
0.00840003
6.84269e-10
0.00840003
1.61088e-09
0.00840003
4.08024e-09
0.00840005
9.42737e-09
0.00840003
2.40083e-08
0.00840014
5.49981e-08
0.00840002
1.40581e-07
0.00840077
3.22431e-07
0.00839996
8.20594e-07
0.0084043
1.89575e-06
0.00840028
4.80278e-06
0.00842276
1.13209e-05
0.00841095
2.86195e-05
0.00850807
7.08661e-05
0.00858925
0.000191539
0.00917202
0.000572082
0.0106841
0.00192017
0.0135453
0.00571388
0.00917185
0.014104
0.00840003
3.921e-13
0.00840003
2.52305e-12
0.00840003
8.71493e-12
0.00840003
2.47894e-11
0.00840003
6.40717e-11
0.00840003
1.61707e-10
0.00840003
3.90112e-10
0.00840003
9.66688e-10
0.00840003
2.27877e-09
0.00840004
5.64749e-09
0.00840004
1.31838e-08
0.00840007
3.27584e-08
0.00840013
7.60658e-08
0.0084002
1.88984e-07
0.00840081
4.40483e-07
0.00840066
1.08349e-06
0.00840545
2.55657e-06
0.00840343
6.24426e-06
0.00843184
1.5005e-05
0.00843694
3.72012e-05
0.00856826
9.4589e-05
0.00883192
0.000264505
0.00991669
0.000845744
0.0128733
0.00270722
0.00753243
0.0144335
0.00840003
2.22566e-13
0.00840003
1.38143e-12
0.00840003
4.93188e-12
0.00840003
1.35217e-11
0.00840003
3.60259e-11
0.00840003
8.78952e-11
0.00840003
2.1732e-10
0.00840003
5.22502e-10
0.00840003
1.25065e-09
0.00840004
3.02481e-09
0.00840003
7.12731e-09
0.00840008
1.74027e-08
0.00840004
4.03774e-08
0.00840026
9.9512e-08
0.00840023
2.28714e-07
0.0084009
5.67661e-07
0.00840205
1.29531e-06
0.0084036
3.22664e-06
0.00841367
7.45327e-06
0.00842407
1.86225e-05
0.00847909
4.53361e-05
0.00860522
0.000122403
0.00907554
0.000365889
0.0104572
0.00127084
0.00403557
0.0137879
0.00840003
1.26625e-13
0.00840003
6.97802e-13
0.00840003
2.72252e-12
0.00840003
6.82846e-12
0.00840003
1.97183e-11
0.00840003
4.38939e-11
0.00840003
1.17805e-10
0.00840003
2.56728e-10
0.00840003
6.65346e-10
0.00840004
1.47262e-09
0.00840003
3.66026e-09
0.00840006
8.46898e-09
0.00840001
1.98448e-08
0.00840023
4.82629e-08
0.00839996
1.07025e-07
0.00840107
2.73926e-07
0.00839988
5.76656e-07
0.00840501
1.54188e-06
0.00840106
3.13615e-06
0.0084238
8.61271e-06
0.00842345
1.84866e-05
0.00851957
5.10256e-05
0.00869868
0.000138237
0.00948813
0.000457864
0.00170956
0.0116758
0.00840003
6.22218e-14
0.00840003
3.75676e-13
0.00840003
1.34473e-12
0.00840003
3.67261e-12
0.00840003
9.76199e-12
0.00840003
2.30377e-11
0.00840003
5.84821e-11
0.00840003
1.30247e-10
0.00840003
3.33158e-10
0.00840003
7.1869e-10
0.00840004
1.85563e-09
0.00840003
3.92546e-09
0.00840004
1.02328e-08
0.00840009
2.15322e-08
0.00839996
5.50565e-08
0.00840061
1.19813e-07
0.00839918
2.91798e-07
0.00840405
6.65077e-07
0.00839498
1.54786e-06
0.00841933
3.68835e-06
0.00839164
8.62166e-06
0.00845456
2.16767e-05
0.00848089
5.87776e-05
0.00874121
0.00017859
0.000691561
0.00961318
0.00840003
2.38635e-14
0.00840003
2.2511e-13
0.00840003
5.83783e-13
0.00840003
2.20264e-12
0.00840003
4.21063e-12
0.00840003
1.40458e-11
0.00840003
2.40106e-11
0.00840003
8.17266e-11
0.00840003
1.32527e-10
0.00840003
4.53607e-10
0.00840004
7.43902e-10
0.00840002
2.39412e-09
0.00840006
4.36674e-09
0.0084
1.22479e-08
0.0084001
2.62442e-08
0.00840003
6.13386e-08
0.00839985
1.5564e-07
0.00840081
3.09168e-07
0.00839778
9.15407e-07
0.00840411
1.65264e-06
0.00839644
5.10687e-06
0.0084044
1.08546e-05
0.00841144
3.24199e-05
0.00845662
9.75039e-05
0.000382962
0.00860436
0.00840003
1.51628e-14
0.00840003
1.30176e-13
0.00840003
3.46946e-13
0.00840003
1.24612e-12
0.00840003
2.59458e-12
0.00840003
7.61461e-12
0.00840003
1.6061e-11
0.00840003
4.18817e-11
0.00840003
9.41846e-11
0.00840003
2.23401e-10
0.00840003
5.47874e-10
0.00840004
1.18009e-09
0.00839999
3.10972e-09
0.00840012
6.24224e-09
0.00839977
1.75877e-08
0.00840068
3.24451e-08
0.00839842
1.00888e-07
0.00840389
1.66859e-07
0.00839132
5.76139e-07
0.00841593
9.85342e-07
0.00837193
3.21256e-06
0.0084208
6.92333e-06
0.00836508
2.16097e-05
0.00838136
6.78935e-05
0.00028892
0.00830089
0.00840003
1.32038e-14
0.00840003
7.75462e-14
0.00840003
2.74733e-13
0.00840003
7.54934e-13
0.00840003
1.96772e-12
0.00840003
4.81922e-12
0.00840003
1.17537e-11
0.00840003
2.77941e-11
0.00840003
6.67068e-11
0.00840003
1.55335e-10
0.00840002
3.71318e-10
0.00840005
8.61116e-10
0.00839999
2.06118e-09
0.00840013
4.73324e-09
0.00839979
1.14061e-08
0.00840054
2.61796e-08
0.00839873
6.27773e-08
0.00840267
1.4619e-07
0.0083931
3.52202e-07
0.0084101
8.19452e-07
0.0083772
2.11323e-06
0.00841093
5.24985e-06
0.00836072
1.56257e-05
0.00835592
5.17773e-05
0.000235137
0.00824446
0.00840003
1.04464e-14
0.00840003
5.71126e-14
0.00840003
2.03585e-13
0.00840003
5.67814e-13
0.00840003
1.46493e-12
0.00840003
3.35596e-12
0.00840003
9.9155e-12
0.00840003
1.65738e-11
0.00840003
6.37582e-11
0.00840003
8.53514e-11
0.00840002
3.87999e-10
0.00840004
4.5484e-10
0.00839999
2.37372e-09
0.00840012
1.96309e-09
0.00839978
1.41259e-08
0.00840053
6.73672e-09
0.00839874
7.63253e-08
0.00840253
3.88538e-08
0.00839316
3.98281e-07
0.00840955
3.64254e-07
0.00837692
1.92698e-06
0.00841045
3.51836e-06
0.00835955
1.19179e-05
0.00835037
3.94269e-05
0.000187665
0.00825132
0.00840003
1.2485e-14
0.00840003
3.62906e-14
0.00840003
2.42253e-13
0.00840003
3.47749e-13
0.00840003
1.59305e-12
0.00840003
2.69317e-12
0.00840003
7.97033e-12
0.00840003
1.91956e-11
0.00840003
3.74266e-11
0.00840003
1.24912e-10
0.00840003
1.86926e-10
0.00840003
8.03701e-10
0.00840002
6.75971e-10
0.00840001
5.10616e-09
0.00840003
1.64061e-09
0.00839976
3.09883e-08
0.00840041
-1.15694e-10
0.00839775
1.85807e-07
0.00840297
-2.78202e-08
0.00839011
9.53265e-07
0.00840507
2.42241e-07
0.00837985
3.94781e-06
0.00838369
7.20986e-06
0.0083428
2.95777e-05
0.000144325
0.0082727
0.00840003
3.64254e-15
0.00840003
6.11382e-14
0.00840003
9.15467e-14
0.00840003
5.76707e-13
0.00840003
7.69555e-13
0.00840003
2.95778e-12
0.00840003
5.95164e-12
0.00840003
1.31593e-11
0.00840003
3.8916e-11
0.00840003
6.23695e-11
0.00840003
2.51564e-10
0.00840004
1.9523e-10
0.00839999
1.56117e-09
0.00840011
3.20302e-10
0.00839976
9.46912e-09
0.00840062
-2.62473e-09
0.00839838
5.66502e-08
0.00840361
-3.63658e-08
0.00839101
3.25388e-07
0.00841563
-1.47168e-07
0.00836898
1.48228e-06
0.0084209
5.43828e-07
0.00835815
6.36279e-06
0.00835468
1.93612e-05
0.000104955
0.00829388
0.00840003
1.02942e-14
0.00840003
2.3451e-14
0.00840003
2.1019e-13
0.00840003
2.22393e-13
0.00840003
1.40611e-12
0.00840003
1.74977e-12
0.00840003
6.29714e-12
0.00840003
1.30646e-11
0.00840003
2.70625e-11
0.00840003
9.01438e-11
0.00840003
6.97562e-11
0.00840003
6.23975e-10
0.00840002
-1.5225e-10
0.0084
3.9921e-09
0.00840005
-3.39284e-09
0.00839969
2.48876e-08
0.0084006
-3.41198e-08
0.00839734
1.49288e-07
0.0084042
-2.2879e-07
0.00838843
7.4169e-07
0.00840908
-6.33949e-07
0.00837824
2.31837e-06
0.00839174
1.55534e-06
0.00834134
1.29553e-05
7.1713e-05
0.00831256
0.00840003
9.07258e-15
0.00840003
2.60052e-14
0.00840003
1.69148e-13
0.00840003
2.23157e-13
0.00840003
1.16261e-12
0.00840003
1.23275e-12
0.00840003
6.86946e-12
0.00840003
4.86763e-12
0.00840003
3.80454e-11
0.00840003
8.48267e-12
0.00840003
1.95651e-10
0.00840004
-5.01256e-11
0.0084
8.48751e-10
0.00840009
-6.42233e-10
0.00839979
3.89006e-09
0.00840053
-3.7081e-09
0.00839843
1.28812e-08
0.00840342
-1.17326e-08
0.00839149
4.12423e-08
0.00841453
2.90041e-09
0.00837229
1.69671e-07
0.00841922
2.21756e-07
0.00836675
1.73265e-06
0.00834427
7.62458e-06
4.62224e-05
0.00832124
0.00840003
2.89599e-15
0.00840003
2.79898e-14
0.00840003
6.04572e-14
0.00840003
2.46104e-13
0.00840003
3.66605e-13
0.00840003
1.48976e-12
0.00840003
1.81075e-12
0.00840003
7.61358e-12
0.00840003
3.07345e-12
0.00840003
3.87843e-11
0.00840004
-3.65222e-11
0.00840001
2.01359e-10
0.00840006
-4.28169e-10
0.00839995
1.08475e-09
0.00840015
-3.33429e-09
0.0083997
4.77571e-09
0.00840017
-1.38463e-08
0.00839915
1.27563e-08
0.00839944
-4.84388e-08
0.00839666
6.16017e-08
0.0084005
-1.6929e-07
0.00838474
3.46066e-07
0.00839594
5.07276e-07
0.00832808
4.93853e-06
2.86851e-05
0.00832863
0.00840003
-3.1601e-15
0.00840003
4.26734e-14
0.00840003
-5.0411e-14
0.00840003
4.10914e-13
0.00840003
-3.05082e-13
0.00840003
2.02939e-12
0.00840003
-1.30121e-12
0.00840003
8.12091e-12
0.00840003
-1.86079e-12
0.00840003
1.61278e-11
0.00840003
3.17839e-11
0.00840003
-1.43077e-10
0.00840001
5.45209e-10
0.00840006
-2.10942e-09
0.00839984
5.01409e-09
0.00840038
-1.77987e-08
0.00839871
3.68868e-08
0.00840261
-1.21984e-07
0.00839283
2.40364e-07
0.00841199
-6.19608e-07
0.00837727
9.5689e-07
0.00841588
-1.4119e-06
0.0083761
2.00595e-06
0.0083292
2.00321e-06
1.61861e-05
0.00833345
0.00840003
7.40204e-15
0.00840003
-1.5976e-14
0.00840003
1.32446e-13
0.00840003
-1.71376e-13
0.00840003
8.20278e-13
0.00840003
-7.37752e-13
0.00840003
3.60531e-12
0.00840003
-1.94074e-12
0.00840003
1.2826e-11
0.00840003
3.40709e-12
0.00840003
4.42535e-12
0.00840003
1.69046e-10
0.00840002
-4.7357e-10
0.00840001
1.96518e-09
0.00840003
-5.5489e-09
0.00839976
1.50026e-08
0.00840041
-4.16437e-08
0.00839789
1.00438e-07
0.00840326
-2.58611e-07
0.00839069
5.23766e-07
0.00840812
-9.74377e-07
0.00838539
1.26828e-06
0.00840053
-9.80927e-07
0.00831462
2.38693e-06
6.6392e-06
0.00833785
0.00840003
0.00840003
0.00840003
0.00840003
0.00840003
0.00840003
0.00840003
0.00840003
0.00840003
0.00840003
0.00840003
0.00840003
0.00840002
0.00840004
0.00839988
0.00840029
0.00839886
0.00840232
0.00839341
0.00841072
0.00838017
0.00841404
0.00838135
0.00832186
0.00833751
0.00399943
0.00434395
0.00166479
0.00233107
-0.000589117
0.00224933
-0.00163656
0.00104565
-0.00229708
0.000656938
-0.00267196
0.000370176
-0.00279724
0.000120257
-0.00292556
0.000123884
-0.00309984
0.000170384
-0.00326352
0.000159935
-0.00338934
0.000122398
-0.00349156
9.91431e-05
-0.00358489
9.03934e-05
-0.00365606
6.86513e-05
-0.00370197
4.34332e-05
-0.00375888
5.23539e-05
-0.0038116
4.7709e-05
-0.00384549
2.86817e-05
-0.00385629
2.44854e-06
-0.00384501
-2.28843e-05
-0.00380049
-5.79509e-05
-0.00371792
-9.72972e-05
-0.00359738
-0.000134958
-0.00344743
-0.000163631
-0.0032774
-0.000183352
-0.00309182
-0.000197164
-0.00289576
-0.000206913
-0.00269351
-0.000211889
-0.0024869
-0.00021447
-0.00227815
-0.000216076
-0.00206552
-0.00021916
-0.00184939
-0.000222404
-0.00162931
-0.000225755
-0.00140057
-0.000233644
-0.00116976
-0.00023522
-0.000938988
-0.000235349
-0.00070983
-0.000233836
-0.000480714
-0.00023363
-0.00025139
-0.000233852
-1.67334e-05
-0.000238957
0.000217158
-0.000239193
0.000441343
-0.000229467
0.00065529
-0.000219318
0.000861623
-0.000211792
0.00106078
-0.000204672
0.00125145
-0.0001964
0.00143519
-0.000189574
0.00161515
-0.000185906
0.00179178
-0.000182817
0.0019621
-0.000176505
0.00212562
-0.000169715
0.00228275
-0.000163185
0.00243363
-0.000156907
0.00257833
-0.00015063
0.0027173
-0.000144504
0.00285057
-0.000138473
0.00297834
-0.000132496
0.00310108
-0.000126628
0.00321858
-0.000120908
0.00333125
-0.000115179
0.00343936
-0.00010972
0.00354261
-0.000104245
0.00364166
-9.9029e-05
0.00373624
-9.38708e-05
0.00382689
-8.89538e-05
0.00391318
-8.41368e-05
0.00399594
-7.95245e-05