/*--------------------------------*- C++ -*----------------------------------*\
  =========                 |
  \\      /  F ield         | OpenFOAM: The Open Source CFD Toolbox
   \\    /   O peration     | Website:  https://openfoam.org
    \\  /    A nd           | Version:  9
     \\/     M anipulation  |
\*---------------------------------------------------------------------------*/
FoamFile
{
    format      ascii;
    class       volScalarField;
    location    "8";
    object      rho;
}
// * * * * * * * * * * * * * * * * * * * * * * * * * * * * * * * * * * * * * //

dimensions      [1 -3 0 0 0 0 0];

internalField   nonuniform List<scalar> 
5250
(
1.40001
1.40003
1.40008
1.40018
1.40051
1.40112
1.40302
1.40691
1.41792
1.44154
1.5012
1.62532
1.89431
2.5498
5.13892
5.7528
5.69162
5.66167
5.682
5.76097
5.84463
5.8978
5.93692
5.96942
5.99794
1.40001
1.40003
1.40008
1.40017
1.40051
1.40107
1.40308
1.40659
1.41822
1.4402
1.50124
1.62192
1.89046
2.5344
5.09799
5.75247
5.69079
5.65875
5.67933
5.75864
5.84233
5.89579
5.93579
5.96917
5.99871
1.40001
1.40002
1.40008
1.40017
1.4005
1.40105
1.403
1.40646
1.41773
1.43938
1.49875
1.61735
1.8804
2.50329
5.00637
5.75232
5.688
5.64921
5.66897
5.74765
5.8296
5.8834
5.92321
5.95761
5.98661
1.40001
1.40002
1.40007
1.40017
1.40047
1.40103
1.4029
1.40616
1.41724
1.43763
1.49552
1.60999
1.86526
2.45665
4.86153
5.75568
5.68507
5.63321
5.65155
5.72724
5.80808
5.85772
5.89702
5.92922
5.96038
1.40001
1.40003
1.40006
1.40018
1.40039
1.40112
1.40235
1.40676
1.41435
1.4392
1.48591
1.60531
1.84044
2.39814
4.65936
5.76406
5.68312
5.61161
5.62773
5.6979
5.77753
5.82584
5.86207
5.89463
5.92527
1.40001
1.40002
1.40007
1.40015
1.40042
1.40089
1.40258
1.40538
1.41534
1.43304
1.48527
1.58715
1.81867
2.32283
4.39576
5.78206
5.68395
5.58523
5.59806
5.66224
5.73662
5.78243
5.8141
5.84254
5.87591
1.40001
1.40002
1.40005
1.40016
1.40033
1.40094
1.40204
1.40561
1.41248
1.43292
1.47412
1.57676
1.78314
2.24165
4.06496
5.81217
5.68977
5.55416
5.56203
5.61701
5.68395
5.72252
5.75003
5.77254
5.80539
1.40001
1.40002
1.40005
1.40014
1.40029
1.40085
1.40177
1.40516
1.4108
1.43011
1.46543
1.56046
1.74612
2.15385
3.67593
5.84674
5.703
5.52428
5.52388
5.56637
5.62324
5.65006
5.66497
5.67576
5.70372
1.40001
1.40002
1.40004
1.40012
1.40027
1.40072
1.40164
1.40427
1.41008
1.42513
1.45944
1.53962
1.70946
2.0659
3.2398
5.85632
5.71378
5.49834
5.48597
5.50711
5.55079
5.55844
5.55376
5.53732
5.54347
1.40001
1.40002
1.40004
1.40009
1.40027
1.40056
1.40161
1.40338
1.40957
1.42058
1.45445
1.52006
1.67763
1.98973
2.90717
5.7313
5.67019
5.47301
5.43834
5.44086
5.46159
5.4498
5.41657
5.34513
5.28826
1.40001
1.40002
1.40003
1.4001
1.4002
1.40056
1.40125
1.40331
1.40764
1.41956
1.44558
1.50983
1.64434
1.93077
2.67896
5.39671
5.52936
5.44381
5.3745
5.36596
5.35503
5.32136
5.23017
5.01712
4.41716
1.40001
1.40001
1.40003
1.40008
1.40018
1.4005
1.40105
1.40302
1.40629
1.41788
1.43838
1.49845
1.61423
1.87559
2.48504
4.92053
5.44468
5.40122
5.30831
5.28332
5.25091
5.18238
5.03577
4.73957
4.10043
1.40001
1.40001
1.40003
1.40006
1.40017
1.40037
1.40105
1.4022
1.40631
1.41335
1.43644
1.48012
1.59147
1.81241
2.31739
4.36763
5.40034
5.36373
5.25485
5.19498
5.14562
5.04911
4.86072
4.55319
4.06525
1.40001
1.40001
1.40002
1.40006
1.40013
1.40036
1.40075
1.40213
1.40455
1.4126
1.42766
1.47142
1.55719
1.75599
2.1601
3.75235
5.39298
5.34875
5.21718
5.11786
5.04167
4.92811
4.73875
4.45349
4.07154
1.40001
1.40001
1.40002
1.40004
1.40012
1.40026
1.40067
1.40159
1.40391
1.40972
1.42303
1.45649
1.52992
1.69168
2.0194
3.05926
5.35345
5.32844
5.20783
5.0572
4.95632
4.8282
4.64514
4.39506
4.07536
1.40001
1.40001
1.40002
1.40004
1.40009
1.40023
1.40051
1.40131
1.40312
1.40772
1.41873
1.44525
1.50572
1.63982
1.91471
2.62379
5.08097
5.25411
5.17884
5.00857
4.8861
4.75575
4.57482
4.3474
4.07353
1.40001
1.40001
1.40002
1.40003
1.40008
1.40017
1.40043
1.40102
1.40251
1.40625
1.41484
1.43684
1.48567
1.59708
1.8289
2.3556
4.44378
5.1426
5.10322
4.97486
4.82547
4.69248
4.52302
4.31097
4.06604
1.40001
1.40001
1.40001
1.40003
1.40005
1.40015
1.40031
1.40087
1.40183
1.40517
1.41112
1.43002
1.46635
1.56044
1.74624
2.14603
3.69776
5.08831
5.06309
4.96249
4.78529
4.63804
4.47759
4.28357
4.05948
1.40001
1.40001
1.40001
1.40002
1.40004
1.40011
1.40024
1.40066
1.40137
1.40396
1.40824
1.42302
1.4496
1.52393
1.66792
1.97
2.85666
4.9756
5.04792
4.96962
4.78259
4.60624
4.44262
4.26228
4.05772
1.40001
1.40001
1.40001
1.40002
1.40004
1.40008
1.40021
1.40043
1.40122
1.40255
1.40723
1.41537
1.44137
1.49033
1.61422
1.85212
2.43301
4.55355
4.98358
4.93123
4.78351
4.58688
4.41735
4.24563
4.05671
1.40001
1.40001
1.40001
1.40001
1.40003
1.40006
1.40015
1.40034
1.40087
1.40199
1.40529
1.41176
1.43093
1.46928
1.56481
1.75677
2.16522
3.76738
4.88933
4.86875
4.77903
4.58233
4.40231
4.23516
4.05922
1.40001
1.40001
1.40001
1.40001
1.40002
1.40005
1.4001
1.40027
1.4006
1.40154
1.40362
1.40896
1.42161
1.45188
1.52018
1.66969
1.95877
2.86292
4.73312
4.84578
4.77893
4.6089
4.4068
4.23337
4.06484
1.40001
1.40001
1.40001
1.40001
1.40002
1.40003
1.40008
1.40019
1.40044
1.40112
1.40252
1.40674
1.41481
1.43884
1.48609
1.60216
1.8257
2.35493
4.26427
4.79018
4.74993
4.63006
4.42678
4.24468
4.07732
1.40001
1.40001
1.40001
1.40001
1.40001
1.40002
1.40006
1.40013
1.40033
1.40075
1.4019
1.40456
1.41107
1.42696
1.46367
1.54715
1.724
2.07676
3.42661
4.68607
4.68948
4.62789
4.4636
4.2693
4.09926
1.40001
1.40001
1.40001
1.40001
1.40001
1.40002
1.40004
1.40009
1.40023
1.4005
1.40138
1.4029
1.40816
1.41719
1.44604
1.49962
1.63322
1.87011
2.5137
4.42017
4.68439
4.6337
4.5032
4.30306
4.12557
1.40001
1.40001
1.40001
1.40001
1.40001
1.40002
1.40003
1.40007
1.40014
1.4004
1.40083
1.40231
1.40494
1.41341
1.42935
1.47491
1.56288
1.76276
2.16213
3.72616
4.61097
4.59554
4.52695
4.35747
4.16199
1.40001
1.40001
1.40001
1.40001
1.40001
1.40001
1.40002
1.40004
1.40011
1.40024
1.40063
1.4014
1.40365
1.40838
1.42106
1.44884
1.51564
1.65453
1.91998
2.74474
4.40132
4.58656
4.53854
4.41505
4.21219
1.40001
1.40001
1.40001
1.40001
1.40001
1.40001
1.40002
1.40003
1.40008
1.40016
1.40043
1.40094
1.40244
1.40562
1.41408
1.43299
1.47897
1.57739
1.77928
2.22038
3.83722
4.52263
4.50859
4.44389
4.28578
1.40001
1.40001
1.40001
1.40001
1.40001
1.40001
1.40001
1.40002
1.40005
1.40011
1.40028
1.40061
1.40166
1.40351
1.40979
1.42071
1.45478
1.51815
1.67145
1.9422
2.87842
4.32347
4.49564
4.45673
4.35604
1.40001
1.40001
1.40001
1.40001
1.40001
1.40001
1.40001
1.40002
1.40003
1.40008
1.40018
1.40041
1.40107
1.4023
1.40633
1.41337
1.43595
1.47772
1.58448
1.77763
2.23211
3.81044
4.43883
4.43778
4.39333
1.40001
1.40001
1.40001
1.40001
1.40001
1.40001
1.40001
1.40001
1.40002
1.40005
1.40011
1.40029
1.40061
1.40164
1.40365
1.40942
1.42153
1.45328
1.5193
1.66743
1.93455
2.85348
4.23074
4.4426
4.42195
1.40001
1.40001
1.40001
1.40001
1.40001
1.40001
1.40001
1.40001
1.40002
1.40003
1.40008
1.40017
1.40043
1.40094
1.40255
1.40542
1.41479
1.43182
1.48034
1.57454
1.76933
2.20071
3.7102
4.38679
4.47503
1.40001
1.40001
1.40001
1.40001
1.40001
1.40001
1.40001
1.40001
1.40001
1.40002
1.40005
1.40011
1.40026
1.40063
1.40152
1.40354
1.40897
1.42036
1.45071
1.51319
1.65328
1.90301
2.71063
4.16819
4.54073
1.40001
1.40001
1.40001
1.40001
1.40001
1.40001
1.40001
1.40001
1.40001
1.40002
1.40003
1.40007
1.40018
1.40038
1.40098
1.40222
1.4056
1.41313
1.43179
1.47405
1.56923
1.75305
2.16553
3.60163
4.50417
1.40001
1.40001
1.40001
1.40001
1.40001
1.40001
1.40001
1.40001
1.40001
1.40001
1.40002
1.40005
1.4001
1.40027
1.40056
1.40155
1.40325
1.40895
1.41901
1.44993
1.50738
1.64756
1.8879
2.58125
4.33317
1.40001
1.40001
1.40001
1.40001
1.40001
1.40001
1.40001
1.40001
1.40001
1.40001
1.40002
1.40003
1.40007
1.40018
1.4004
1.40107
1.40225
1.40633
1.41322
1.43597
1.47735
1.58669
1.79355
2.27482
3.82743
1.40001
1.40001
1.40001
1.40001
1.40001
1.40001
1.40001
1.40001
1.40001
1.40001
1.40001
1.40003
1.40006
1.40013
1.40032
1.40079
1.40181
1.40479
1.41061
1.42803
1.46258
1.55084
1.73066
2.11476
3.29459
1.40001
1.40001
1.40001
1.40001
1.40001
1.40001
1.40001
1.40001
1.40001
1.40001
1.40001
1.40002
1.40005
1.40011
1.4003
1.40062
1.40175
1.40375
1.41041
1.42281
1.45984
1.53231
1.70691
2.04664
3.13969
1.40001
1.40001
1.40001
1.40001
1.40001
1.40001
1.40001
1.40001
1.40001
1.40001
1.40001
1.40002
1.40005
1.4001
1.40027
1.40058
1.40164
1.40346
1.4099
1.42122
1.45707
1.52555
1.6934
2.01624
3.05514
1.40001
1.40001
1.40001
1.40001
1.40001
1.40001
1.40001
1.40001
1.40001
1.40001
1.40001
1.40002
1.40005
1.4001
1.40026
1.40057
1.4015
1.40355
1.40902
1.42168
1.45357
1.52416
1.68407
2.00461
3.00036
1.40001
1.40001
1.40001
1.40001
1.40001
1.40001
1.40001
1.40001
1.40001
1.40001
1.40001
1.40002
1.40004
1.4001
1.40024
1.40059
1.4014
1.40365
1.40845
1.42201
1.45116
1.52354
1.67736
1.99639
2.95734
1.40001
1.40001
1.40001
1.40001
1.40001
1.40001
1.40001
1.40001
1.40001
1.40001
1.40001
1.40002
1.40004
1.40009
1.40024
1.40058
1.40137
1.4036
1.40828
1.42177
1.45024
1.52208
1.67349
1.98658
2.92463
1.40001
1.40001
1.40001
1.40001
1.40001
1.40001
1.40001
1.40001
1.40001
1.40001
1.40001
1.40002
1.40004
1.4001
1.40021
1.40061
1.40127
1.40373
1.40786
1.42216
1.44869
1.5224
1.66924
1.97722
2.89958
1.40001
1.40001
1.40001
1.40001
1.40001
1.40001
1.40001
1.40001
1.40001
1.40001
1.40001
1.40002
1.40004
1.40009
1.40024
1.40054
1.40141
1.40337
1.40848
1.42063
1.45065
1.51823
1.67055
1.96556
2.8811
1.40001
1.40001
1.40001
1.40001
1.40001
1.40001
1.40001
1.40001
1.40001
1.40001
1.40001
1.40002
1.40004
1.4001
1.40021
1.40061
1.40126
1.40369
1.40777
1.42191
1.44802
1.52092
1.6658
1.9577
2.86513
1.40001
1.40001
1.40001
1.40001
1.40001
1.40001
1.40001
1.40001
1.40001
1.40001
1.40001
1.40002
1.40004
1.40009
1.40024
1.40053
1.40143
1.40328
1.40862
1.4201
1.45082
1.5165
1.66848
1.94691
2.85106
1.40001
1.40001
1.40001
1.40001
1.40001
1.40001
1.40001
1.40001
1.40001
1.40001
1.40001
1.40002
1.40004
1.40009
1.40024
1.40053
1.40147
1.40315
1.40897
1.41935
1.45173
1.51514
1.66819
1.93974
2.83753
1.40001
1.40001
1.40001
1.40001
1.40001
1.40001
1.40001
1.40001
1.40001
1.40001
1.40001
1.40002
1.40004
1.40009
1.40025
1.40052
1.40147
1.40318
1.40883
1.41959
1.45141
1.51481
1.66755
1.93771
2.82382
1.40001
1.40001
1.40001
1.40001
1.40001
1.40001
1.40001
1.40001
1.40001
1.40001
1.40001
1.40002
1.40004
1.4001
1.40021
1.40061
1.40125
1.40369
1.4077
1.42189
1.44735
1.5199
1.66179
1.94002
2.8127
1.40001
1.40001
1.40001
1.40001
1.40001
1.40001
1.40001
1.40001
1.40001
1.40001
1.40001
1.40002
1.40004
1.40009
1.40025
1.40051
1.40148
1.40315
1.4089
1.41941
1.45152
1.51429
1.66661
1.9371
2.80789
2.23744
1.76632
2.11179
1.99555
1.86266
1.84348
1.83115
1.80551
1.76972
1.73647
1.70856
1.68117
1.65201
1.62113
1.58926
1.57419
1.56902
1.56804
1.57244
1.59331
1.62794
1.67403
1.72684
1.78171
1.83686
1.88989
1.93962
1.98694
2.02989
2.07041
2.10903
2.14386
2.17753
2.20793
2.23776
2.26455
2.28878
2.31019
2.32944
2.34561
2.36176
2.37539
2.38768
2.39529
2.40279
2.40704
2.41091
2.41222
2.41168
2.40902
2.40598
2.40108
2.39587
2.38857
2.38095
2.37187
2.36225
2.35152
2.34074
2.32834
2.31648
2.30309
2.28988
2.27577
2.26151
2.24678
2.23144
2.21642
2.20024
2.18461
2.16814
2.15166
2.13494
2.11786
2.10063
2.08325
2.0655
2.04787
2.02984
2.01197
1.99385
1.97586
1.95768
1.9398
1.92145
1.90391
1.88536
1.86819
1.84962
1.83274
1.81447
1.79779
1.78021
1.76386
1.74726
1.73194
1.71704
1.70405
1.69244
1.6856
2.75458
2.33254
2.3187
2.08564
1.88067
1.82109
1.79255
1.74706
1.69644
1.65069
1.62144
1.59204
1.56134
1.52895
1.50054
1.47939
1.46981
1.46604
1.46557
1.48574
1.51872
1.56652
1.62248
1.68107
1.74247
1.80097
1.85851
1.91306
1.96397
2.01347
2.05987
2.10184
2.14205
2.18032
2.21833
2.25186
2.28477
2.31317
2.34079
2.36423
2.38766
2.40704
2.42571
2.43918
2.45165
2.45965
2.46844
2.47317
2.477
2.47717
2.4774
2.4751
2.4724
2.46676
2.46139
2.45336
2.44552
2.43594
2.42589
2.4148
2.40282
2.39055
2.37675
2.36368
2.34852
2.33453
2.31863
2.30354
2.28712
2.2711
2.25404
2.23739
2.21961
2.20247
2.18409
2.16647
2.14769
2.12962
2.1106
2.09218
2.07298
2.05444
2.035
2.01662
1.99691
1.97884
1.95899
1.94122
1.92151
1.90393
1.88464
1.86727
1.84885
1.83191
1.8146
1.7986
1.78295
1.76915
1.7567
1.74888
3.25229
2.76455
2.53126
2.34414
2.12553
1.99385
1.86299
1.7708
1.69456
1.63731
1.59863
1.5651
1.52082
1.4805
1.44677
1.42511
1.41415
1.40879
1.41095
1.42795
1.45825
1.5058
1.56689
1.6328
1.69944
1.7655
1.83016
1.89191
1.94989
2.00558
2.05698
2.10709
2.15416
2.20066
2.24392
2.28547
2.32346
2.35922
2.3913
2.42151
2.44784
2.47295
2.4932
2.51213
2.52599
2.53906
2.5488
2.55847
2.56359
2.56645
2.56695
2.56755
2.56506
2.56264
2.55723
2.55191
2.54398
2.53646
2.52629
2.51696
2.50499
2.49388
2.48063
2.46774
2.45357
2.43914
2.42406
2.40844
2.39241
2.37584
2.35888
2.3415
2.32372
2.30558
2.28712
2.26825
2.24926
2.22977
2.21036
2.19047
2.17067
2.15066
2.13049
2.11052
2.09007
2.07022
2.0497
2.02987
2.00966
1.98994
1.97038
1.95069
1.93178
1.91239
1.89445
1.87589
1.85947
1.843
1.8296
1.8191
3.50585
3.03083
2.72959
2.5136
2.34124
2.18464
2.08021
1.94231
1.8259
1.71234
1.64204
1.58844
1.53462
1.48337
1.4459
1.42101
1.40554
1.40132
1.40763
1.42043
1.45302
1.50692
1.57469
1.64783
1.72282
1.79669
1.86837
1.93735
2.00254
2.06556
2.12458
2.18252
2.23614
2.28893
2.337
2.3834
2.42453
2.46345
2.49766
2.52909
2.55694
2.58139
2.60315
2.6207
2.63632
2.64734
2.65808
2.6661
2.67257
2.67313
2.67354
2.67143
2.66902
2.66422
2.65832
2.6509
2.64202
2.63236
2.62114
2.60945
2.59645
2.58298
2.56862
2.55373
2.5382
2.5222
2.50556
2.48869
2.47109
2.45347
2.43512
2.41677
2.39781
2.37873
2.35929
2.33958
2.31977
2.29963
2.27954
2.25923
2.23888
2.21865
2.19809
2.17801
2.1574
2.13774
2.11732
2.09797
2.07781
2.0586
2.03884
2.01986
2.00062
1.98212
1.96362
1.94611
1.92887
1.91348
1.89893
1.88941
3.63583
3.22311
2.90915
2.67688
2.50615
2.35391
2.23653
2.12668
2.00987
1.90369
1.80076
1.7036
1.625
1.55251
1.50028
1.46676
1.44488
1.43817
1.4426
1.46292
1.50652
1.56749
1.64096
1.71847
1.80051
1.88192
1.9606
2.03629
2.10786
2.17592
2.24041
2.30134
2.35931
2.41327
2.46445
2.51076
2.554
2.59246
2.62747
2.65867
2.68575
2.71053
2.73043
2.74897
2.76222
2.77435
2.78223
2.7913
2.79511
2.79787
2.79422
2.79262
2.7863
2.78208
2.77299
2.7657
2.75411
2.744
2.73047
2.718
2.70292
2.68851
2.67212
2.65616
2.63861
2.62144
2.60288
2.58472
2.56532
2.54625
2.52613
2.50619
2.48545
2.46471
2.44341
2.42205
2.40021
2.3785
2.35615
2.33438
2.31151
2.28994
2.26687
2.24577
2.2226
2.20166
2.17855
2.15778
2.13496
2.1143
2.09202
2.07158
2.05006
2.03008
2.00958
1.99053
1.9716
1.95454
1.93854
1.92708
3.71732
3.35943
3.06522
2.83015
2.64847
2.50129
2.37449
2.26786
2.16276
2.06284
1.96963
1.88029
1.79456
1.7219
1.65658
1.60826
1.57909
1.5662
1.57274
1.59386
1.63766
1.69539
1.76525
1.83934
1.92031
2.00458
2.08835
2.16995
2.24489
2.31586
2.37958
2.43994
2.49361
2.54463
2.5898
2.63226
2.66948
2.70356
2.73326
2.75969
2.7828
2.80241
2.81954
2.83308
2.84452
2.85224
2.85858
2.86363
2.86688
2.86728
2.86318
2.85817
2.85142
2.84446
2.83542
2.82612
2.8147
2.80304
2.78955
2.77587
2.76064
2.74527
2.72857
2.71179
2.69387
2.67594
2.65703
2.63819
2.6185
2.59888
2.57859
2.55829
2.53747
2.51664
2.49532
2.4741
2.45234
2.43093
2.40878
2.38746
2.36515
2.34402
2.32139
2.30033
2.27752
2.25643
2.23368
2.21254
2.19011
2.1689
2.14693
2.12572
2.10435
2.08333
2.06278
2.04241
2.02315
2.00445
1.98777
1.97432
3.77251
3.4627
3.1896
2.96259
2.77752
2.62724
2.50081
2.39259
2.29207
2.19951
2.1102
2.03061
1.95772
1.89612
1.84675
1.80966
1.78869
1.77985
1.79421
1.81586
1.85138
1.89262
1.94336
1.99781
2.05655
2.12387
2.20349
2.28259
2.35745
2.42391
2.48406
2.53739
2.58576
2.62974
2.67002
2.70677
2.7404
2.77042
2.79765
2.82166
2.84216
2.86083
2.87568
2.88951
2.89904
2.90772
2.91197
2.91783
2.91991
2.92233
2.91806
2.91392
2.90644
2.89967
2.89026
2.88096
2.86947
2.85766
2.84413
2.83008
2.81472
2.79884
2.78189
2.76453
2.74624
2.72764
2.70826
2.6886
2.6683
2.64774
2.62666
2.60533
2.58366
2.56172
2.53962
2.51733
2.49494
2.47281
2.45032
2.42832
2.4055
2.38355
2.36047
2.33854
2.31538
2.29344
2.27039
2.24843
2.22565
2.20371
2.18135
2.15952
2.13774
2.11625
2.09525
2.07448
2.05471
2.03556
2.01818
2.00402
3.80627
3.53861
3.28775
3.07073
2.88832
2.73657
2.60931
2.50109
2.40383
2.31437
2.23506
2.16309
2.10769
2.06361
2.033
2.01021
2.00648
2.0195
2.03196
2.04446
2.05989
2.07407
2.08541
2.10803
2.13779
2.17849
2.23273
2.30495
2.38158
2.45342
2.51767
2.57368
2.62391
2.6688
2.71018
2.74841
2.78339
2.81596
2.84485
2.87117
2.89426
2.91486
2.93171
2.94635
2.95752
2.96666
2.97223
2.97778
2.98151
2.98403
2.98244
2.97802
2.97145
2.964
2.9553
2.94545
2.93471
2.92243
2.90957
2.89495
2.88003
2.86335
2.84662
2.82825
2.81005
2.79039
2.77101
2.75029
2.72992
2.70821
2.68694
2.66438
2.64229
2.61918
2.59653
2.57345
2.55064
2.52766
2.50459
2.48173
2.45848
2.43573
2.41239
2.38969
2.3664
2.3437
2.32061
2.29791
2.27514
2.25247
2.23014
2.2076
2.18579
2.16358
2.14245
2.12095
2.10088
2.08097
2.06307
2.04797
3.83227
3.59542
3.36736
3.16111
2.98348
2.83202
2.7046
2.59596
2.50058
2.419
2.34525
2.29041
2.25492
2.22735
2.21188
2.21457
2.25022
2.26773
2.27109
2.27404
2.27188
2.24279
2.2187
2.21433
2.2303
2.25486
2.29245
2.34365
2.41154
2.48902
2.56263
2.6282
2.6853
2.73507
2.77869
2.81763
2.85192
2.88323
2.9102
2.93459
2.9557
2.97383
2.98875
3.00186
3.01114
3.01941
3.0231
3.02733
3.02913
3.03111
3.02912
3.02467
3.01694
3.00887
2.99864
2.98815
2.97581
2.96304
2.94856
2.93361
2.91715
2.9003
2.88214
2.86369
2.84406
2.82425
2.80342
2.78249
2.76073
2.73894
2.71643
2.69402
2.671
2.64845
2.62531
2.60284
2.57944
2.557
2.53323
2.51079
2.48673
2.46427
2.44009
2.41763
2.39355
2.37111
2.34729
2.32487
2.30143
2.27905
2.2561
2.23387
2.21153
2.18965
2.16807
2.14687
2.12641
2.10666
2.08834
2.07314
3.85254
3.63973
3.43099
3.23759
3.0657
2.917
2.78964
2.68217
2.59037
2.51455
2.45491
2.42388
2.40346
2.3904
2.40273
2.46217
2.51137
2.5131
2.51269
2.50307
2.46659
2.40408
2.35407
2.32393
2.32068
2.33323
2.35192
2.38537
2.42914
2.48624
2.55468
2.62253
2.68569
2.74071
2.78816
2.82817
2.86304
2.8934
2.92007
2.94403
2.96438
2.98264
2.99822
3.01135
3.02138
3.02995
3.03457
3.0383
3.04038
3.04236
3.04171
3.03823
3.03169
3.02391
3.0143
3.00383
2.99197
2.97927
2.96534
2.95062
2.93471
2.9181
2.90033
2.88203
2.86268
2.84299
2.82236
2.80149
2.77975
2.75786
2.73512
2.71255
2.68943
2.66663
2.6432
2.62031
2.59663
2.57376
2.54993
2.52712
2.5033
2.48057
2.45688
2.43418
2.41071
2.388
2.36478
2.34206
2.31916
2.29647
2.27393
2.25138
2.22931
2.20708
2.18566
2.16407
2.14369
2.12351
2.10515
2.08938
3.87141
3.67664
3.48441
3.30263
3.1378
2.99293
2.86756
2.76262
2.67618
2.60977
2.57878
2.56001
2.55411
2.57095
2.64212
2.73113
2.76061
2.75678
2.74507
2.71131
2.63029
2.55161
2.48778
2.44337
2.41855
2.41437
2.42436
2.43818
2.4641
2.50228
2.54699
2.60529
2.67026
2.73382
2.79033
2.83866
2.87935
2.91349
2.94275
2.96796
2.99012
3.00919
3.02588
3.03998
3.05123
3.0606
3.06656
3.07034
3.07222
3.07412
3.07393
3.07174
3.06579
3.05817
3.04883
3.03821
3.0265
3.01347
2.99965
2.9844
2.96858
2.95132
2.93368
2.91467
2.89553
2.87505
2.85466
2.83296
2.81141
2.78871
2.76639
2.74332
2.72042
2.69715
2.67376
2.65033
2.6265
2.60299
2.57887
2.55536
2.53116
2.50772
2.48363
2.46031
2.43649
2.41332
2.38985
2.36687
2.34378
2.32101
2.29834
2.27587
2.2537
2.23165
2.21018
2.18885
2.16845
2.14858
2.13021
2.11478
3.89042
3.71034
3.53127
3.36114
3.20315
3.06398
2.9419
2.84343
2.76435
2.72386
2.71048
2.70665
2.72787
2.80119
2.92157
2.99683
2.99186
2.98215
2.953
2.88064
2.78044
2.69226
2.62099
2.56772
2.5298
2.50783
2.49725
2.50468
2.51343
2.52936
2.55901
2.59273
2.63802
2.69779
2.75783
2.81357
2.86175
2.90247
2.9357
2.96345
2.98612
3.0056
3.02206
3.03578
3.04736
3.05669
3.06341
3.06814
3.06968
3.07169
3.07185
3.07119
3.06636
3.05984
3.05107
3.04122
3.02973
3.01725
3.00338
2.98857
2.97257
2.95574
2.93789
2.91935
2.89993
2.87993
2.85914
2.83783
2.81582
2.79365
2.77097
2.74839
2.72522
2.70241
2.67886
2.65593
2.63212
2.60916
2.58521
2.56226
2.53832
2.5154
2.49159
2.46871
2.44513
2.42232
2.39904
2.37633
2.35341
2.33085
2.30836
2.28607
2.26412
2.2423
2.22111
2.20011
2.18006
2.16067
2.14267
2.1279
3.90997
3.74125
3.57299
3.4132
3.26383
3.13185
3.01777
2.92769
2.8726
2.85916
2.85692
2.87831
2.94645
3.08786
3.19669
3.21587
3.207
3.18037
3.11564
3.01182
2.91007
2.8236
2.75142
2.69329
2.64594
2.61064
2.58466
2.57076
2.56631
2.57318
2.58235
2.60243
2.6269
2.66319
2.71395
2.76971
2.8245
2.87394
2.9162
2.95086
2.97904
3.00187
3.02059
3.03627
3.04909
3.05981
3.06812
3.0744
3.07731
3.07939
3.08035
3.0805
3.07818
3.07284
3.06528
3.056
3.04527
3.03297
3.0196
3.00479
2.98923
2.9724
2.955
2.9365
2.91747
2.89745
2.87687
2.85544
2.83364
2.81133
2.78867
2.76576
2.74243
2.71913
2.69532
2.67186
2.64775
2.62428
2.60007
2.57667
2.55252
2.52921
2.5053
2.4821
2.45854
2.43547
2.41232
2.38944
2.3667
2.34408
2.3218
2.29958
2.27789
2.25627
2.23541
2.21477
2.1952
2.17641
2.15902
2.14522
3.93548
3.77426
3.61542
3.46419
3.32434
3.20084
3.10145
3.02603
3.01396
3.01137
3.02866
3.09151
3.24494
3.37454
3.41951
3.41248
3.39052
3.33668
3.23084
3.12613
3.03194
2.95059
2.8792
2.81751
2.76342
2.71766
2.67981
2.65039
2.63117
2.61816
2.62053
2.6259
2.63693
2.65611
2.68123
2.72201
2.7724
2.82485
2.87424
2.91724
2.95322
2.98194
3.00531
3.02331
3.03851
3.05007
3.05959
3.06684
3.0715
3.07357
3.07486
3.07572
3.07495
3.07153
3.06499
3.05654
3.04649
3.0348
3.02188
3.00749
2.99222
2.97568
2.95851
2.94017
2.9213
2.90131
2.8808
2.8595
2.83785
2.81572
2.79317
2.77044
2.74717
2.72408
2.70033
2.67707
2.65308
2.6298
2.6058
2.58256
2.55872
2.53555
2.512
2.48896
2.46574
2.44289
2.42003
2.39743
2.37495
2.35269
2.33068
2.30888
2.28752
2.26641
2.24602
2.22607
2.20721
2.18946
2.17304
2.1609
3.96227
3.80924
3.65846
3.51725
3.38776
3.28007
3.19784
3.17346
3.17019
3.18578
3.24785
3.40139
3.54314
3.60693
3.59992
3.58139
3.5362
3.43746
3.33157
3.23458
3.1491
3.07209
3.00219
2.93754
2.87859
2.82513
2.77817
2.73814
2.70584
2.6804
2.66554
2.65502
2.66044
2.66549
2.67671
2.69616
2.72647
2.77076
2.81912
2.8672
2.91133
2.94922
2.98018
3.00451
3.02326
3.03811
3.04931
3.0582
3.06455
3.06857
3.07027
3.0718
3.07209
3.07086
3.06603
3.05881
3.04973
3.03879
3.02657
3.01272
2.99799
2.98184
2.96503
2.94698
2.92828
2.90843
2.88804
2.86692
2.8453
2.82327
2.80066
2.77796
2.75462
2.7315
2.7077
2.68438
2.6604
2.63704
2.61309
2.58979
2.56605
2.54286
2.51942
2.4964
2.47331
2.4505
2.42778
2.40526
2.38296
2.36085
2.3391
2.31759
2.29665
2.27608
2.25642
2.23735
2.21968
2.20344
2.18858
2.17797
3.99665
3.84765
3.70818
3.57793
3.46521
3.37521
3.34132
3.3375
3.35255
3.41349
3.56684
3.7126
3.78337
3.77688
3.76006
3.7173
3.6229
3.52069
3.42739
3.34215
3.26479
3.1906
3.121
3.05379
2.9911
2.93218
2.87885
2.83061
2.78901
2.75285
2.72446
2.70201
2.68917
2.68399
2.68877
2.69423
2.70653
2.72942
2.76408
2.80718
2.85329
2.89791
2.93786
2.97095
2.99768
3.01774
3.03337
3.04438
3.0526
3.05823
3.06079
3.06237
3.06321
3.06298
3.06056
3.05485
3.04704
3.03717
3.02592
3.01286
2.99882
2.98318
2.96681
2.94901
2.93052
2.91088
2.89079
2.8699
2.84853
2.82668
2.80428
2.78171
2.75855
2.73552
2.71186
2.68861
2.66472
2.64143
2.61757
2.59436
2.57075
2.5477
2.52446
2.50162
2.47879
2.4562
2.43382
2.41157
2.38971
2.36793
2.34675
2.32569
2.30553
2.28565
2.26708
2.24924
2.23331
2.21896
2.20548
2.19778
4.04098
3.89446
3.76214
3.65041
3.55982
3.5213
3.51546
3.52891
3.59133
3.74772
3.89165
3.96169
3.95422
3.93548
3.88962
3.79293
3.69552
3.60526
3.52502
3.44917
3.37668
3.30469
3.23461
3.16588
3.09988
3.03743
2.97875
2.92491
2.87546
2.83122
2.79307
2.76025
2.73497
2.71594
2.70561
2.70578
2.70957
2.71542
2.72868
2.75515
2.7931
2.83655
2.88104
2.92239
2.95806
2.98686
3.00867
3.02505
3.03623
3.04416
3.04918
3.05111
3.05265
3.05341
3.05295
3.04971
3.04357
3.03487
3.02471
3.01239
2.99903
2.98379
2.96779
2.95013
2.93189
2.91249
2.89262
2.87196
2.85078
2.82913
2.8069
2.78452
2.76156
2.73868
2.71528
2.69212
2.66854
2.64529
2.62174
2.59852
2.57516
2.55208
2.52903
2.50619
2.48352
2.46104
2.43886
2.41685
2.39531
2.37396
2.35339
2.33298
2.31388
2.29504
2.27821
2.26231
2.2487
2.23645
2.22569
2.22256
4.10018
3.9544
3.83485
3.74352
3.70701
3.70002
3.71652
3.78532
3.94787
4.0872
4.14886
4.13978
4.11486
4.05716
3.95901
3.86047
3.77362
3.69591
3.62423
3.55425
3.4841
3.41371
3.34278
3.27319
3.205
3.13977
3.07753
3.01866
2.96408
2.91352
2.86825
2.82732
2.79251
2.76315
2.74072
2.72499
2.72034
2.71875
2.72203
2.72995
2.74513
2.77697
2.81558
2.85928
2.90172
2.93963
2.97118
2.99544
3.01338
3.02545
3.03364
3.03807
3.03993
3.04109
3.04158
3.04021
3.036
3.0286
3.01979
3.00844
2.99621
2.9816
2.96639
2.94911
2.93144
2.91236
2.89288
2.8725
2.85158
2.83023
2.80818
2.7861
2.7632
2.74061
2.71712
2.69424
2.67052
2.64752
2.62387
2.60088
2.57757
2.55469
2.53191
2.50924
2.48711
2.46476
2.44335
2.42147
2.40095
2.37985
2.36049
2.34081
2.32319
2.30588
2.29137
2.27789
2.26635
2.25789
2.25194
2.2527
4.17156
4.02771
3.92724
3.89525
3.88714
3.91141
3.99219
4.16397
4.30082
4.34817
4.33804
4.30416
4.22693
4.12259
4.02284
3.93623
3.86088
3.79221
3.72511
3.65797
3.58851
3.51884
3.44737
3.37742
3.30778
3.24089
3.17571
3.11403
3.05531
3.00024
2.94914
2.90172
2.85918
2.82122
2.78873
2.76265
2.7423
2.73303
2.72628
2.726
2.72972
2.73969
2.75873
2.79397
2.83353
2.87532
2.91506
2.94938
2.97672
2.99726
3.01113
3.01997
3.02446
3.02591
3.02704
3.02679
3.02488
3.01939
3.01171
3.00194
2.99048
2.97721
2.96239
2.94601
2.92874
2.91025
2.89123
2.87118
2.8507
2.82947
2.80781
2.78579
2.76326
2.74073
2.71765
2.69481
2.67153
2.64852
2.62537
2.60236
2.57958
2.55671
2.53442
2.51191
2.49021
2.46824
2.44726
2.42614
2.40604
2.38628
2.36751
2.34987
2.33349
2.31955
2.3069
2.29697
2.28866
2.28683
2.28579
2.28988
4.27851
4.13277
4.08968
4.07754
4.11009
4.21222
4.39949
4.53652
4.56774
4.55338
4.5093
4.409
4.29285
4.18782
4.09933
4.02382
3.95665
3.89244
3.82783
3.76129
3.69246
3.62198
3.55045
3.47917
3.40856
3.33983
3.27263
3.20865
3.14645
3.08808
3.03215
2.97989
2.93144
2.88671
2.84692
2.81168
2.78199
2.7589
2.74269
2.73446
2.72579
2.72965
2.73431
2.74565
2.76834
2.80423
2.84482
2.88557
2.92274
2.95394
2.97738
2.99364
3.00355
3.00795
3.00973
3.0099
3.00977
3.00611
3.0005
2.99133
2.98172
2.96899
2.9558
2.93998
2.92392
2.9059
2.88764
2.86797
2.84792
2.82706
2.80566
2.78398
2.76174
2.73948
2.71684
2.69413
2.67142
2.64838
2.62587
2.6027
2.58061
2.55765
2.53609
2.51366
2.49278
2.4712
2.45112
2.43088
2.41185
2.39355
2.37642
2.36096
2.34768
2.33635
2.3269
2.32154
2.32071
2.32054
2.32546
2.34177
4.37254
4.30474
4.28829
4.32135
4.44488
4.65424
4.79401
4.80529
4.78435
4.72689
4.60023
4.47131
4.35928
4.26662
4.18947
4.12153
4.05809
3.9948
3.9303
3.86289
3.79372
3.72238
3.65073
3.57861
3.5077
3.43744
3.36954
3.30274
3.23871
3.17655
3.11725
3.06088
3.00761
2.95773
2.91165
2.86973
2.83197
2.79977
2.77228
2.7522
2.7393
2.72875
2.72226
2.72569
2.73296
2.74674
2.77519
2.81101
2.85121
2.88984
2.92367
2.95032
2.96967
2.98161
2.98792
2.98891
2.98977
2.98835
2.98525
2.9778
2.9693
2.95774
2.94559
2.93102
2.91582
2.89896
2.88115
2.86243
2.84256
2.82248
2.80122
2.7802
2.75806
2.73643
2.71383
2.69183
2.66915
2.64694
2.6245
2.60224
2.58027
2.55815
2.53692
2.51523
2.49493
2.47412
2.45502
2.43566
2.41838
2.40148
2.38704
2.37483
2.36487
2.35621
2.35426
2.35366
2.35585
2.36191
2.37777
2.41685
4.4741
4.4876
4.55227
4.73717
4.93857
5.07201
5.0639
5.03513
4.96104
4.80947
4.66435
4.54165
4.44216
4.36014
4.28971
4.22455
4.16155
4.09761
4.03193
3.96364
3.89368
3.82212
3.75017
3.67781
3.60632
3.53504
3.46559
3.39688
3.33081
3.2659
3.20402
3.14403
3.08693
3.0331
2.98178
2.93474
2.89047
2.85096
2.81529
2.78503
2.75964
2.74285
2.72805
2.71613
2.71464
2.71775
2.72621
2.74252
2.77451
2.81117
2.85
2.88645
2.91702
2.93996
2.95462
2.96289
2.96405
2.96423
2.9633
2.95967
2.95211
2.94195
2.9304
2.91744
2.90323
2.8878
2.87102
2.85332
2.8344
2.81503
2.79456
2.7741
2.75254
2.73141
2.70915
2.68775
2.6652
2.64388
2.62137
2.60031
2.57822
2.55746
2.53619
2.51598
2.49589
2.47681
2.45844
2.44135
2.42576
2.41201
2.40158
2.39266
2.3865
2.3855
2.38635
2.38993
2.40183
2.42722
2.45483
2.50814
4.64838
4.80127
5.04469
5.26991
5.38074
5.35861
5.3098
5.19878
5.03125
4.87054
4.73686
4.62915
4.54264
4.46805
4.40091
4.33586
4.27075
4.20472
4.1363
4.06701
3.99512
3.92325
3.84957
3.77715
3.70341
3.63208
3.56009
3.49106
3.42212
3.3561
3.29109
3.22874
3.16845
3.11075
3.05571
3.00368
2.95441
2.90891
2.86625
2.82821
2.79384
2.76466
2.74259
2.72353
2.70871
2.69643
2.6992
2.70372
2.7135
2.73356
2.76592
2.80322
2.84046
2.87436
2.90097
2.91975
2.93024
2.93331
2.93381
2.93265
2.92959
2.92105
2.91083
2.89867
2.88564
2.87114
2.85566
2.83895
2.8212
2.8027
2.78329
2.76352
2.74298
2.72239
2.70114
2.68023
2.65866
2.63784
2.61639
2.59583
2.57494
2.55485
2.53486
2.51572
2.49702
2.47955
2.46301
2.44841
2.43572
2.42688
2.41868
2.41607
2.41568
2.41699
2.42533
2.44229
2.4722
2.51259
2.55104
2.60839
4.94445
5.344
5.63237
5.72426
5.69886
5.61899
5.44955
5.26513
5.09366
4.94733
4.83079
4.73567
4.65594
4.58298
4.51318
4.44489
4.37578
4.3069
4.23579
4.16526
4.09188
4.02002
3.94546
3.87328
3.79881
3.72731
3.65431
3.58406
3.5135
3.4453
3.37804
3.31298
3.2498
3.18889
3.13038
3.07423
3.02073
2.96956
2.92189
2.87657
2.83576
2.79776
2.76539
2.73766
2.71626
2.69587
2.68095
2.67415
2.67649
2.68198
2.69339
2.71823
2.7507
2.78783
2.82299
2.85315
2.87488
2.88904
2.8949
2.8953
2.89471
2.89141
2.88426
2.87343
2.86149
2.84752
2.83349
2.81761
2.80174
2.78397
2.76648
2.74723
2.72857
2.70836
2.68885
2.66828
2.64829
2.62792
2.608
2.58817
2.5688
2.54986
2.53153
2.514
2.49751
2.48229
2.46902
2.45809
2.45075
2.44493
2.444
2.44444
2.44925
2.45982
2.48629
2.52051
2.56339
2.61261
2.65463
2.7052
5.52252
6.04027
6.10458
6.06682
5.95209
5.71678
5.50152
5.31902
5.16628
5.04196
4.94006
4.85352
4.77621
4.70322
4.63171
4.56019
4.48772
4.41512
4.34163
4.26836
4.19443
4.12051
4.0464
3.97218
3.89815
3.82403
3.75064
3.67723
3.60524
3.53393
3.46434
3.39633
3.33008
3.26603
3.20361
3.14377
3.08593
3.03067
2.97803
2.92779
2.88106
2.83676
2.79699
2.76029
2.72921
2.70371
2.67948
2.65959
2.64437
2.6434
2.64557
2.6515
2.66446
2.69291
2.7258
2.76072
2.79349
2.81908
2.83735
2.84724
2.84818
2.84788
2.84574