/*--------------------------------*- C++ -*----------------------------------*\
  =========                 |
  \\      /  F ield         | OpenFOAM: The Open Source CFD Toolbox
   \\    /   O peration     | Website:  https://openfoam.org
    \\  /    A nd           | Version:  9
     \\/     M anipulation  |
\*---------------------------------------------------------------------------*/
FoamFile
{
    format      ascii;
    class       volScalarField;
    location    "8";
    object      T;
}
// * * * * * * * * * * * * * * * * * * * * * * * * * * * * * * * * * * * * * //

dimensions      [0 0 0 1 0 0 0];

internalField   nonuniform List<scalar> 
5250
(
1.00001
1.00002
1.00005
1.00013
1.00035
1.00078
1.00215
1.0047
1.01313
1.02996
1.08127
1.20993
1.56874
2.31937
2.70607
2.74463
2.73841
2.73961
2.75109
2.76686
2.77964
2.78785
2.79504
2.79988
2.80201
1.00001
1.00002
1.00005
1.00013
1.00033
1.00081
1.00203
1.00483
1.01265
1.03011
1.07961
1.20809
1.56135
2.30982
2.70254
2.74428
2.73787
2.73884
2.75026
2.76591
2.77859
2.78674
2.79388
2.79863
2.80062
1.00001
1.00002
1.00005
1.00013
1.00032
1.00078
1.00199
1.00469
1.01239
1.0293
1.07765
1.20255
1.54696
2.28743
2.69437
2.74318
2.73619
2.7365
2.74778
2.76294
2.77576
2.78326
2.79033
2.79442
2.79661
1.00001
1.00002
1.00004
1.00014
1.00028
1.00083
1.00174
1.0049
1.01107
1.02958
1.07262
1.19634
1.52312
2.25255
2.68122
2.74157
2.73342
2.73261
2.74341
2.75822
2.77043
2.77886
2.7854
2.78997
2.79124
1.00001
1.00002
1.00005
1.00011
1.00031
1.00069
1.00182
1.00437
1.0109
1.02737
1.06951
1.18385
1.49486
2.20093
2.66272
2.73941
2.7296
2.72718
2.73739
2.7522
2.76337
2.77082
2.77749
2.78103
2.78292
1
1.00002
1.00004
1.00012
1.00025
1.00071
1.00158
1.00423
1.00992
1.02574
1.0639
1.17077
1.45652
2.13354
2.63724
2.73636
2.72438
2.71964
2.7292
2.74316
2.75438
2.76046
2.76691
2.77061
2.7713
1
1.00001
1.00004
1.0001
1.00025
1.00062
1.00147
1.00386
1.00888
1.02382
1.05738
1.15463
1.41212
2.04486
2.6038
2.73142
2.71688
2.70993
2.71903
2.73229
2.7434
2.7487
2.75271
2.75514
2.75476
1
1.00001
1.00004
1.00008
1.00024
1.00052
1.0014
1.00324
1.00832
1.0204
1.05197
1.13485
1.36331
1.93532
2.56038
2.72192
2.70529
2.69609
2.70525
2.71703
2.72758
2.73185
2.73417
2.73332
2.72898
1
1.00001
1.00003
1.00008
1.00018
1.00051
1.0011
1.00311
1.00669
1.01883
1.04329
1.11793
1.30803
1.80897
2.5045
2.70489
2.68759
2.67815
2.68724
2.69868
2.70752
2.71075
2.70962
2.70332
2.68713
1
1.00001
1.00003
1.00007
1.00016
1.00043
1.00102
1.00254
1.00632
1.01541
1.03912
1.10002
1.26584
1.70228
2.44413
2.68589
2.66918
2.65997
2.66613
2.67659
2.68316
2.68345
2.67572
2.65438
2.59797
1
1.00001
1.00002
1.00006
1.00014
1.00038
1.00086
1.00237
1.00514
1.01442
1.03281
1.08902
1.2305
1.61854
2.36502
2.65691
2.6556
2.64796
2.64724
2.65324
2.65668
2.65223
2.63344
2.58744
2.48156
1
1.00001
1.00002
1.00005
1.00014
1.00029
1.00084
1.00184
1.00495
1.01157
1.03007
1.07491
1.20076
1.5338
2.25347
2.61333
2.6467
2.63728
2.63167
2.63125
2.62867
2.6173
2.58792
2.52481
2.41545
1
1.00001
1.00002
1.00005
1.0001
1.0003
1.00062
1.00175
1.0039
1.01044
1.0247
1.06493
1.16756
1.45306
2.11113
2.5562
2.63736
2.6276
2.61673
2.61161
2.60286
2.58348
2.5484
2.48584
2.38959
1
1.00001
1.00002
1.00004
1.00009
1.00022
1.00056
1.00139
1.00333
1.00859
1.02046
1.05345
1.13684
1.36871
1.94132
2.48093
2.61988
2.61194
2.59935
2.58865
2.57747
2.55468
2.51561
2.45869
2.38044
1
1
1.00001
1.00003
1.00008
1.00017
1.00048
1.00102
1.00295
1.0062
1.01762
1.04007
1.10907
1.28179
1.73994
2.38466
2.58751
2.5867
2.57702
2.56402
2.5499
2.5293
2.49224
2.43733
2.37056
1
1
1.00001
1.00002
1.00006
1.00015
1.00034
1.00095
1.00202
1.00578
1.01243
1.03447
1.08253
1.22359
1.58476
2.27625
2.54745
2.56063
2.55126
2.53929
2.5236
2.50157
2.47071
2.42185
2.36042
1
1
1.00001
1.00002
1.00005
1.00011
1.00031
1.00066
1.00189
1.00393
1.01139
1.02506
1.06881
1.17348
1.46895
2.11672
2.48447
2.54065
2.53178
2.51907
2.50255
2.47819
2.44823
2.40665
2.35281
1
1
1.00001
1.00001
1.00004
1.00009
1.00023
1.00056
1.00135
1.00342
1.00809
1.0211
1.05114
1.13551
1.35854
1.91173
2.39463
2.51609
2.51283
2.4997
2.48212
2.45874
2.42915
2.39114
2.34504
1
1
1.00001
1.00001
1.00003
1.00006
1.00018
1.0004
1.00107
1.00245
1.00629
1.01523
1.0383
1.09729
1.25629
1.66554
2.27392
2.47548
2.48659
2.47621
2.45952
2.43748
2.41074
2.37614
2.33517
1
1
1
1.00001
1.00002
1.00006
1.00012
1.00033
1.00077
1.00191
1.00472
1.01138
1.02897
1.07199
1.18938
1.49793
2.13038
2.42456
2.46161
2.45354
2.43717
2.41607
2.39206
2.36159
2.32542
1
1
1
1.00001
1.00002
1.00004
1.00009
1.00026
1.00052
1.00157
1.00319
1.00921
1.02039
1.05516
1.13748
1.37018
1.91868
2.33537
2.43311
2.43145
2.41818
2.39633
2.37376
2.34646
2.31433
1
1
1
1
1.00001
1.00003
1.00007
1.00018
1.0004
1.0011
1.00234
1.00666
1.01435
1.03955
1.09487
1.25497
1.65631
2.20891
2.39009
2.40547
2.39658
2.37814
2.3552
2.3312
2.30314
1
1
1
1
1.00001
1.00002
1.00005
1.00011
1.00033
1.00067
1.00197
1.0041
1.01149
1.02595
1.06922
1.17397
1.46252
2.04347
2.33095
2.37856
2.37329
2.35817
2.33751
2.31452
2.29013
1
1
1
1
1.00001
1.00001
1.00004
1.00009
1.00023
1.0005
1.00138
1.00291
1.0083
1.01799
1.04932
1.12039
1.32341
1.81008
2.23048
2.34446
2.34995
2.34045
2.32231
2.29977
2.27598
1
1
1
1
1
1.00001
1.00002
1.00007
1.00014
1.00039
1.00083
1.00224
1.00506
1.01311
1.03135
1.08053
1.20527
1.53754
2.08075
2.29064
2.3221
2.31817
2.30374
2.2848
2.26281
1
1
1
1
1
1.00001
1.00002
1.00004
1.00011
1.00025
1.00061
1.00149
1.00355
1.00908
1.02132
1.05548
1.13897
1.3672
1.8821
2.21517
2.29267
2.29606
2.28697
2.26883
2.24834
1
1
1
1
1
1
1.00001
1.00003
1.00007
1.00016
1.00042
1.00095
1.00257
1.00554
1.01535
1.03444
1.09258
1.23261
1.60551
2.08552
2.24997
2.27178
2.26733
2.25348
2.23432
1
1
1
1
1
1
1.00001
1.00002
1.00005
1.00011
1.00028
1.00063
1.00171
1.00369
1.01022
1.02255
1.06085
1.14907
1.39639
1.90092
2.18235
2.24324
2.24627
2.2376
2.22221
1
1
1
1
1
1
1
1.00001
1.00003
1.00008
1.00016
1.00047
1.00099
1.00271
1.00606
1.01581
1.03759
1.09729
1.24804
1.63576
2.06373
2.20416
2.22451
2.22119
2.20929
1
1
1
1
1
1
1
1.00001
1.00002
1.00005
1.00011
1.00031
1.00063
1.00178
1.00383
1.01028
1.02358
1.06147
1.15256
1.40136
1.88375
2.13828
2.19486
2.20251
2.19884
1
1
1
1
1
1
1
1
1.00001
1.00003
1.00008
1.00018
1.00043
1.00111
1.00245
1.00666
1.01453
1.03951
1.09329
1.24766
1.6195
2.02301
2.15977
2.18374
2.1895
1
1
1
1
1
1
1
1
1.00001
1.00002
1.00004
1.00013
1.00025
1.00072
1.00153
1.00414
1.00925
1.02418
1.05743
1.14955
1.38296
1.84559
2.09432
2.16216
2.18291
1
1
1
1
1
1
1
1
1.00001
1.00001
1.00003
1.00008
1.00016
1.00045
1.00093
1.00268
1.00546
1.0155
1.03402
1.09153
1.22581
1.57663
1.9808
2.13539
2.18405
1
1
1
1
1
1
1
1
1
1.00001
1.00002
1.00004
1.00011
1.00025
1.00067
1.00145
1.00399
1.00849
1.02341
1.05311
1.14155
1.3573
1.80834
2.08586
2.198
1
1
1
1
1
1
1
1
1
1
1.00001
1.00003
1.00007
1.00016
1.00041
1.00096
1.00235
1.00574
1.01368
1.03435
1.0841
1.21509
1.54249
1.99652
2.24218
1
1
1
1
1
1
1
1
1
1
1.00001
1.00002
1.00005
1.0001
1.0003
1.00063
1.00173
1.0038
1.00997
1.02343
1.05993
1.15059
1.39211
1.89872
2.33539
1
1
1
1
1
1
1
1
1
1
1.00001
1.00001
1.00004
1.00008
1.00023
1.00047
1.00139
1.00282
1.00818
1.01777
1.04839
1.11823
1.31642
1.79373
2.42761
1
1
1
1
1
1
1
1
1
1
1
1.00001
1.00003
1.00008
1.00018
1.00046
1.00112
1.0027
1.00691
1.01644
1.04294
1.10841
1.29109
1.77065
2.49634
1
1
1
1
1
1
1
1
1
1
1
1.00001
1.00003
1.00008
1.00016
1.00045
1.00098
1.00268
1.00618
1.01618
1.03965
1.10481
1.27839
1.7545
2.516
1
1
1
1
1
1
1
1
1
1
1
1.00001
1.00003
1.00006
1.00017
1.00038
1.00107
1.0023
1.00662
1.0145
1.04041
1.09932
1.27366
1.73582
2.5153
1
1
1
1
1
1
1
1
1
1
1
1.00001
1.00003
1.00006
1.00017
1.00036
1.00107
1.00219
1.00657
1.01409
1.03963
1.09723
1.2684
1.72139
2.50824
1
1
1
1
1
1
1
1
1
1
1
1.00001
1.00003
1.00006
1.00017
1.00035
1.00106
1.00214
1.00647
1.01384
1.03907
1.0956
1.26418
1.71203
2.49673
1
1
1
1
1
1
1
1
1
1
1
1.00001
1.00003
1.00006
1.00016
1.00037
1.00097
1.00233
1.00588
1.01471
1.03707
1.09624
1.25937
1.70701
2.48384
1
1
1
1
1
1
1
1
1
1
1
1.00001
1.00003
1.00006
1.00016
1.00036
1.00101
1.00215
1.00627
1.0136
1.03837
1.09347
1.25812
1.7038
2.4713
1
1
1
1
1
1
1
1
1
1
1
1.00001
1.00003
1.00006
1.00016
1.00037
1.00095
1.00233
1.00573
1.01465
1.03636
1.09505
1.2547
1.70355
2.46103
1
1
1
1
1
1
1
1
1
1
1
1.00001
1.00002
1.00006
1.00015
1.00036
1.00098
1.00218
1.00613
1.01371
1.03772
1.09304
1.25441
1.70384
2.45448
1
1
1
1
1
1
1
1
1
1
1
1.00001
1.00002
1.00007
1.00013
1.00041
1.00085
1.00248
1.00546
1.01496
1.03555
1.09562
1.25092
1.70561
2.45146
1
1
1
1
1
1
1
1
1
1
1
1.00001
1.00002
1.00006
1.00015
1.00037
1.00095
1.00227
1.00594
1.01402
1.03713
1.09336
1.25198
1.7019
2.45279
1
1
1
1
1
1
1
1
1
1
1
1.00001
1.00003
1.00006
1.00016
1.00036
1.00096
1.00229
1.0058
1.01443
1.03639
1.09394
1.25146
1.69884
2.45517
1
1
1
1
1
1
1
1
1
1
1
1.00001
1.00002
1.00006
1.00015
1.00038
1.00094
1.00229
1.00588
1.01413
1.03688
1.09348
1.251
1.69801
2.45656
2.34442
2.47688
2.71685
2.95931
2.96995
2.92518
2.90894
2.89543
2.87637
2.85431
2.83403
2.81588
2.79762
2.77819
2.75761
2.74076
2.732
2.72924
2.73147
2.73832
2.75418
2.77564
2.80019
2.82543
2.84771
2.86799
2.88649
2.90099
2.91476
2.92575
2.93389
2.94237
2.94784
2.95359
2.95643
2.95855
2.95929
2.95953
2.95863
2.95751
2.9554
2.95289
2.94777
2.94466
2.9384
2.93334
2.92706
2.92107
2.91372
2.90688
2.89864
2.89101
2.88209
2.87418
2.86516
2.85661
2.84748
2.83862
2.8288
2.82005
2.80978
2.80066
2.79062
2.78107
2.77111
2.76122
2.75159
2.74111
2.73164
2.72105
2.71115
2.70087
2.69054
2.68032
2.66998
2.65954
2.64934
2.63876
2.62854
2.61799
2.60768
2.59718
2.58691
2.57629
2.56635
2.55544
2.54599
2.53484
2.52578
2.51467
2.50574
2.49507
2.48616
2.47618
2.46753
2.45848
2.45083
2.44346
2.43852
2.43417
2.35731
2.45241
2.5696
2.78887
2.92542
2.97603
3.01305
3.01538
2.99941
2.98862
2.97341
2.96632
2.95343
2.94319
2.92857
2.91735
2.91144
2.91144
2.92068
2.926
2.9413
2.95568
2.97128
2.9868
2.9949
3.00282
3.00585
3.00676
3.00635
3.00198
2.99725
2.99432
2.98918
2.98408
2.97602
2.96937
2.95896
2.95053
2.93936
2.93021
2.9186
2.90924
2.8971
2.88762
2.87604
2.86692
2.85559
2.8465
2.83441
2.82411
2.81236
2.80208
2.79066
2.78105
2.76966
2.76001
2.74895
2.73879
2.72816
2.71781
2.70766
2.69708
2.68756
2.6766
2.66745
2.65645
2.64716
2.63648
2.62691
2.61648
2.60687
2.59642
2.58694
2.57638
2.56699
2.5564
2.54696
2.53649
2.52698
2.51665
2.50719
2.49689
2.48771
2.47725
2.46848
2.4578
2.44943
2.43863
2.43044
2.4198
2.41156
2.40134
2.39295
2.38331
2.37505
2.36633
2.359
2.35203
2.34734
2.34361
2.34645
2.37281
2.45203
2.50293
2.61491
2.72277
2.86537
2.94523
2.99026
3.01009
3.02136
3.02283
3.02728
3.02876
3.02746
3.01805
3.01363
3.01612
3.0231
3.03107
3.04524
3.05512
3.05855
3.05845
3.05474
3.04837
3.03932
3.02842
3.01692
3.00341
2.99182
2.9781
2.96499
2.94953
2.93507
2.91885
2.90324
2.88684
2.8716
2.85556
2.84153
2.82622
2.81332
2.79865
2.78658
2.77251
2.76113
2.74787
2.73589
2.72259
2.71085
2.69795
2.68688
2.67426
2.66337
2.65111
2.64042
2.62825
2.61788
2.60574
2.59556
2.58374
2.57347
2.56222
2.55176
2.54103
2.53052
2.52014
2.50977
2.49958
2.48943
2.47936
2.46939
2.45949
2.44963
2.43997
2.4302
2.4208
2.41117
2.40195
2.3926
2.38345
2.37449
2.36532
2.35679
2.34768
2.33942
2.33052
2.32228
2.31372
2.3053
2.29729
2.28883
2.28155
2.27337
2.26706
2.25986
2.25524
2.25056
2.24922
2.32297
2.31363
2.33971
2.37816
2.42208
2.50236
2.56749
2.68042
2.77066
2.87224
2.9293
2.96131
2.98817
3.01413
3.02455
3.02931
3.03379
3.02654
3.01797
3.03142
3.04412
3.03927
3.02671
3.01363
2.99711
2.97966
2.96172
2.9425
2.92362
2.90313
2.88436
2.86341
2.84504
2.82481
2.80745
2.78855
2.77234
2.75524
2.74027
2.72538
2.71168
2.6989
2.68607
2.6746
2.6622
2.65159
2.64033
2.63034
2.61899
2.60878
2.59744
2.58769
2.57712
2.56752
2.55766
2.54798
2.53856
2.52884
2.51969
2.5101
2.501
2.4916
2.48241
2.47311
2.4639
2.45462
2.4455
2.43618
2.42716
2.41778
2.40876
2.3994
2.39032
2.38105
2.37187
2.36273
2.35347
2.3444
2.33515
2.32606
2.31693
2.3077
2.2988
2.28939
2.28065
2.27103
2.26233
2.25264
2.24391
2.23438
2.22568
2.21644
2.20787
2.19902
2.19088
2.18266
2.17557
2.16865
2.16407
2.16021
2.31163
2.27621
2.27441
2.29245
2.31385
2.35779
2.40299
2.45718
2.52456
2.59061
2.67467
2.7616
2.82458
2.88661
2.92666
2.9497
2.96699
2.97144
2.97051
2.96211
2.9467
2.9245
2.89608
2.87065
2.84451
2.82062
2.79921
2.77804
2.75788
2.73791
2.71863
2.70014
2.68197
2.6654
2.64888
2.63426
2.61951
2.60641
2.59364
2.58169
2.57102
2.55989
2.55069
2.53997
2.53142
2.52109
2.51356
2.50391
2.49675
2.48646
2.47911
2.46909
2.46245
2.45286
2.44635
2.43702
2.43037
2.42135
2.41442
2.40569
2.39847
2.38993
2.3825
2.37408
2.36653
2.35814
2.35053
2.34214
2.33448
2.32614
2.31841
2.31018
2.30239
2.29431
2.2865
2.27854
2.27085
2.26293
2.25553
2.24754
2.24052
2.23233
2.22561
2.21714
2.21067
2.2021
2.19578
2.1873
2.181
2.17274
2.16635
2.15839
2.15192
2.14434
2.13794
2.13092
2.12505
2.11921
2.11517
2.11236
2.30387
2.26179
2.23781
2.23632
2.24524
2.26429
2.29488
2.32655
2.36607
2.40966
2.45885
2.51437
2.57535
2.63072
2.692
2.74467
2.78291
2.8073
2.80454
2.79099
2.7639
2.7316
2.69322
2.66157
2.63343
2.61088
2.59443
2.57816
2.56486
2.55066
2.53966
2.52801
2.51965
2.51053
2.50388
2.49646
2.49065
2.48436
2.47888
2.47328
2.46781
2.46273
2.45717
2.45205
2.44611
2.44062
2.43495
2.42958
2.42404
2.41772
2.41134
2.40449
2.39831
2.39136
2.38511
2.37794
2.37144
2.36409
2.35731
2.34982
2.34282
2.33521
2.32805
2.32034
2.31305
2.30524
2.29781
2.28989
2.28229
2.27426
2.26645
2.25831
2.25032
2.24207
2.23401
2.22567
2.21766
2.20925
2.20141
2.19283
2.1852
2.17649
2.16916
2.16045
2.15335
2.14473
2.13773
2.12936
2.12235
2.11437
2.10732
2.09984
2.09284
2.08594
2.07915
2.07298
2.06681
2.06188
2.05754
2.0557
2.29739
2.25349
2.22088
2.20349
2.19927
2.20445
2.21839
2.23775
2.26249
2.28901
2.32247
2.35747
2.40014
2.44543
2.49051
2.53419
2.56638
2.58845
2.58589
2.56959
2.53771
2.50386
2.46639
2.44169
2.4192
2.40942
2.40702
2.40703
2.40719
2.40816
2.40789
2.40813
2.40822
2.40836
2.40828
2.40802
2.4073
2.40632
2.40449
2.40232
2.4002
2.39688
2.39413
2.38961
2.38613
2.38069
2.37705
2.37153
2.36784
2.36148
2.35643
2.34937
2.34392
2.33702
2.3313
2.32447
2.31835
2.31145
2.30496
2.29799
2.29124
2.28416
2.27726
2.27005
2.26303
2.25573
2.24859
2.24124
2.23401
2.22659
2.21926
2.21179
2.2043
2.19678
2.18919
2.18156
2.17396
2.16614
2.15863
2.15068
2.14342
2.13541
2.12837
2.12034
2.11343
2.10551
2.09867
2.09096
2.08414
2.07674
2.06993
2.0629
2.05615
2.04953
2.04295
2.03687
2.03083
2.02577
2.02139
2.01932
2.2943
2.24919
2.21322
2.18741
2.17238
2.1668
2.16888
2.17698
2.19031
2.20844
2.22925
2.25835
2.28991
2.32737
2.36434
2.40122
2.43184
2.4497
2.44584
2.42928
2.40422
2.37083
2.34383
2.32321
2.30911
2.30565
2.30866
2.3174
2.32705
2.33503
2.34051
2.34465
2.34686
2.3485
2.34879
2.34849
2.34771
2.34589
2.34394
2.34106
2.33795
2.33417
2.33075
2.32655
2.32266
2.31788
2.3135
2.30874
2.30448
2.29935
2.294
2.28791
2.28211
2.27602
2.26998
2.26386
2.25745
2.25123
2.24449
2.23819
2.23127
2.22494
2.21792
2.21153
2.2044
2.19789
2.19064
2.184
2.17664
2.16994
2.16251
2.15579
2.14838
2.14157
2.13421
2.12718
2.11988
2.11268
2.10552
2.09817
2.09111
2.08363
2.07662
2.06912
2.06215
2.05475
2.04777
2.04058
2.03357
2.02666
2.01965
2.01308
2.00616
1.99997
1.99328
1.98757
1.98142
1.97659
1.97205
1.97008
2.28975
2.24646
2.2087
2.17917
2.15739
2.14425
2.13777
2.13785
2.14345
2.15262
2.17084
2.19283
2.22319
2.25573
2.29001
2.33129
2.36007
2.37019
2.36416
2.34868
2.31965
2.28627
2.25711
2.23799
2.22525
2.21595
2.2144
2.21907
2.22874
2.23884
2.24743
2.254
2.25867
2.26176
2.26382
2.26519
2.26658
2.26718
2.26807
2.26797
2.26772
2.26704
2.26613
2.26423
2.26271
2.25966
2.25739
2.25396
2.25167
2.24789
2.24455
2.2397
2.23551
2.23036
2.22579
2.22045
2.21554
2.21001
2.2048
2.19904
2.19355
2.18755
2.18179
2.17557
2.16963
2.16326
2.15715
2.15063
2.14429
2.13755
2.13096
2.12397
2.11718
2.10989
2.10299
2.09552
2.08872
2.08109
2.07446
2.06674
2.06029
2.05255
2.04623
2.03854
2.03223
2.02463
2.01828
2.01086
2.00445
1.99729
1.99083
1.98399
1.97753
1.97103
1.96471
1.95864
1.95274
1.94753
1.94305
1.94068
2.28475
2.24405
2.20677
2.175
2.14977
2.13119
2.11938
2.11334
2.11352
2.11982
2.13483
2.15802
2.18272
2.21677
2.25688
2.30004
2.3217
2.32456
2.31631
2.29644
2.26507
2.23009
2.2005
2.17999
2.16661
2.15807
2.15384
2.15446
2.16074
2.17098
2.18356
2.19585
2.20599
2.2142
2.22005
2.22481
2.22818
2.23093
2.23314
2.23441
2.23577
2.23586
2.2356
2.23483
2.23378
2.23156
2.2297
2.22682
2.22469
2.22167
2.21876
2.21462
2.21059
2.20591
2.20135
2.19638
2.19145
2.18619
2.18091
2.17531
2.16971
2.16381
2.158
2.15188
2.14588
2.13954
2.13335
2.12681
2.12043
2.11371
2.10721
2.10033
2.09371
2.08674
2.08015
2.07307
2.0665
2.05925
2.05269
2.0453
2.0387
2.03125
2.02457
2.01715
2.0104
2.00312
1.99633
1.98926
1.98247
1.97567
1.96895
1.96248
1.95589
1.94979
1.94343
1.93779
1.93188
1.92708
1.92255
1.92054
2.27824
2.24104
2.20522
2.1734
2.14648
2.12502
2.10987
2.10041
2.09854
2.10496
2.12032
2.1422
2.16984
2.20952
2.25729
2.29237
2.30421
2.30153
2.28878
2.26323
2.22924
2.19501
2.16632
2.14396
2.12854
2.11883
2.11204
2.10912
2.10976
2.11472
2.12331
2.13493
2.14774
2.15859
2.16746
2.1742
2.17914
2.1829
2.18555
2.18746
2.18858
2.18927
2.18927
2.18893
2.18817
2.1866
2.18517
2.18286
2.18124
2.17891
2.17674
2.17351
2.17009
2.16612
2.16201
2.15762
2.15295
2.14824
2.14318
2.13824
2.13286
2.12768
2.122
2.11659
2.11059
2.10492
2.0986
2.09266
2.08608
2.07988
2.0731
2.06664
2.05991
2.05332
2.04669
2.04
2.03352
2.02675
2.0204
2.01358
2.00729
2.00044
1.99412
1.98726
1.98085
1.97401
1.96751
1.96075
1.9542
1.94757
1.94107
1.93465
1.92828
1.92215
1.916
1.91029
1.90457
1.89967
1.89526
1.89304
2.27077
2.23676
2.20335
2.17193
2.14534
2.12253
2.10669
2.096
2.09621
2.10561
2.12115
2.14484
2.17973
2.22855
2.27204
2.29164
2.29416
2.28738
2.2689
2.23803
2.20438
2.17353
2.14732
2.12491
2.10754
2.09419
2.08582
2.07988
2.07688
2.07724
2.08074
2.08788
2.09871
2.11124
2.12349
2.13379
2.14231
2.14863
2.15362
2.15703
2.15984
2.16165
2.16295
2.16397
2.1641
2.1638
2.16312
2.16159
2.1604
2.15845
2.1569
2.15424
2.15141
2.14775
2.14409
2.13982
2.13553
2.13088
2.12625
2.12136
2.11647
2.11132
2.10613
2.10068
2.09514
2.08935
2.08347
2.07734
2.07118
2.06473
2.05841
2.05178
2.04539
2.03857
2.03216
2.02518
2.01878
2.0117
2.00533
1.9982
1.99183
1.98471
1.97831
1.97124
1.9648
1.95785
1.95138
1.94459
1.93812
1.93154
1.92513
1.91881
1.91253
1.90652
1.90047
1.89488
1.88929
1.88447
1.88019
1.87794
2.26248
2.23192
2.20148
2.17169
2.14583
2.12366
2.10855
2.10108
2.10511
2.11811
2.13649
2.16657
2.21435
2.2622
2.28897
2.29562
2.29224
2.27915
2.25349
2.22181
2.19214
2.16437
2.13997
2.11795
2.09959
2.08372
2.07191
2.06269
2.05761
2.05363
2.05363
2.05504
2.05995
2.06884
2.08049
2.09252
2.10336
2.11238
2.11924
2.1243
2.12781
2.13028
2.13199
2.13301
2.13365
2.13355
2.13305
2.13195
2.13072
2.12905
2.12756
2.12547
2.12292
2.11964
2.11602
2.11211
2.10792
2.10368
2.09913
2.09463
2.08978
2.08496
2.07975
2.07455
2.06898
2.06338
2.05747
2.05152
2.04536
2.0392
2.03301
2.02674
2.02056
2.01418
2.00803
2.00154
1.99543
1.98883
1.98276
1.97608
1.96998
1.96329
1.9571
1.95046
1.94416
1.9376
1.93122
1.92479
1.9184
1.91213
1.90583
1.89977
1.89363
1.88786
1.882
1.87666
1.8713
1.86678
1.86277
1.86068
2.25107
2.22441
2.19742
2.17093
2.14732
2.1283
2.11597
2.11646
2.12572
2.14019
2.16731
2.21066
2.25888
2.29137
2.30133
2.29992
2.29074
2.27035
2.24233
2.21319
2.18676
2.16196
2.13948
2.11829
2.09933
2.08213
2.06744
2.05534
2.04539
2.03949
2.03492
2.03333
2.0336
2.03642
2.04323
2.05339
2.06474
2.07581
2.08527
2.09298
2.09868
2.10302
2.10569
2.10788
2.10877
2.10965
2.10956
2.10909
2.10827
2.10688
2.10567
2.104
2.10203
2.09923
2.09598
2.09239
2.08851
2.08451
2.08023
2.07593
2.0713
2.06667
2.06167
2.05668
2.05129
2.04589
2.04013
2.03433
2.02834
2.02231
2.01625
2.01003
2.00397
1.9976
1.99156
1.98507
1.97903
1.97244
1.96636
1.95974
1.95357
1.94696
1.9407
1.93414
1.9278
1.92131
1.91497
1.90858
1.9023
1.89608
1.88994
1.88396
1.87804
1.87242
1.86685
1.86176
1.85679
1.85265
1.84909
1.84722
2.24051
2.21612
2.19303
2.17004
2.15088
2.13635
2.13273
2.13894
2.15186
2.17693
2.21606
2.26403
2.29798
2.30921
2.31017
2.30408
2.28788
2.26163
2.23532
2.21065
2.18724
2.16518
2.14375
2.12347
2.10402
2.086
2.06939
2.05452
2.04162
2.03142
2.02275
2.01897
2.01525
2.01513
2.01593
2.02029
2.02814
2.03828
2.04867
2.05826
2.06638
2.07273
2.07733
2.08059
2.08283
2.08397
2.08466
2.08441
2.08379
2.08251
2.08124
2.07964
2.07799
2.07567
2.07276
2.06949
2.06588
2.06216
2.05806
2.05396
2.04945
2.04499
2.04011
2.03526
2.03002
2.02476
2.01918
2.01357
2.00784
2.00199
1.99619
1.99016
1.98434
1.97817
1.97233
1.96606
1.96018
1.95383
1.94788
1.94149
1.93545
1.92906
1.92294
1.9166
1.91043
1.90418
1.89803
1.89192
1.88588
1.87995
1.87408
1.86841
1.86279
1.8575
1.85227
1.84763
1.8431
1.83955
1.83642
1.83483
2.22848
2.20804
2.18736
2.16944
2.15603
2.15254
2.1573
2.16904
2.19215
2.22893
2.27551
2.30852
2.32104
2.32275
2.31759
2.30326
2.27947
2.25624
2.23357
2.21237
2.19103
2.1709
2.15026
2.13052
2.11072
2.09202
2.07388
2.05733
2.0419
2.02903
2.01761
2.00942
2.00257
1.9997
1.99715
1.99729
1.99915
2.00471
2.01295
2.0225
2.03216
2.0407
2.04751
2.05281
2.05621
2.05863
2.05959
2.06023
2.05989
2.05911
2.05806
2.05678
2.05543
2.05372
2.05142
2.04855
2.04519
2.04166
2.0377
2.03375
2.02937
2.02506
2.02032
2.01565
2.01056
2.00544
2.00003
1.99461
1.98903
1.98336
1.97769
1.97182
1.96611
1.96011
1.9544
1.94829
1.94256
1.93637
1.93058
1.92435
1.91846
1.91223
1.90623
1.90005
1.89399
1.88791
1.88187
1.87596
1.87003
1.86436
1.85863
1.85332
1.84793
1.84313
1.83832
1.83432
1.83047
1.82759
1.82512
1.824
2.2167
2.19977
2.18513
2.17218
2.16868
2.17375
2.1861
2.2099
2.24624
2.29078
2.32218
2.33412
2.33602
2.33094
2.31691
2.29567
2.27396
2.25426
2.23452
2.21578
2.19637
2.17717
2.15734
2.13774
2.11818
2.09884
2.08022
2.06223
2.04572
2.03064
2.01685
2.00543
1.99534
1.98836
1.98301
1.98032
1.97814
1.97827
1.9809
1.98725
1.99551
2.00464
2.0133
2.02085
2.02674
2.03083
2.03357
2.03481
2.03549
2.0351
2.03423
2.03301
2.03169
2.03022
2.02828
2.02579
2.02262
2.0194
2.01567
2.01206
2.00793
2.00396
1.99946
1.99507
1.99016
1.9853
1.98013
1.97493
1.96959
1.96411
1.95864
1.95294
1.94738
1.94154
1.93591
1.92999
1.92429
1.91833
1.91257
1.90662
1.90082
1.89491
1.88909
1.88324
1.87744
1.87169
1.86595
1.86035
1.85475
1.8494
1.84399
1.8391
1.83403
1.82984
1.82547
1.82234
1.81903
1.81701
1.81552
1.81494
2.20571
2.19141
2.18308
2.18205
2.18835
2.2019
2.22627
2.26433
2.30681
2.33723
2.34796
2.34899
2.3433
2.32904
2.30871
2.28917
2.27097
2.25402
2.23688
2.21952
2.20161
2.18293
2.16409
2.14465
2.12532
2.10582
2.08676
2.06845
2.05074
2.03425
2.01856
2.00471
1.99188
1.98131
1.97254
1.96615
1.96206
1.95864
1.95741
1.95766
1.96142
1.96813
1.97679
1.98533
1.99315
1.99956
2.00425
2.00747
2.00911
2.00991
2.00952
2.00863
2.00732
2.0061
2.00451
2.00267
1.99994
1.99718
1.99372
1.99047
1.98648
1.98281
1.97838
1.97421
1.96939
1.96478
1.95979
1.95483
1.9497
1.9444
1.93917
1.93363
1.92835
1.92264
1.91737
1.91157
1.90627
1.90044
1.89508
1.88928
1.88379
1.87809
1.87245
1.86689
1.86114
1.85578
1.85001
1.84493
1.83928
1.83458
1.82927
1.82507
1.82044
1.81707
1.81355
1.8112
1.80911
1.80826
1.80839
1.80807
2.19675
2.18834
2.18896
2.19889
2.21495
2.2406
2.28319
2.32532
2.35317
2.36312
2.36224
2.35501
2.33985
2.32028
2.30157
2.28497
2.2697
2.25449
2.23917
2.22261
2.20574
2.18748
2.16929
2.1499
2.13078
2.11109
2.09205
2.07299
2.05469
2.03709
2.0203
2.00486
1.99037
1.97744
1.96602
1.95608
1.94886
1.94261
1.93865
1.93514
1.93458
1.93563
1.94042
1.9477
1.95584
1.96415
1.97134
1.97697
1.9809
1.98303
1.98401
1.98371
1.98273
1.98162
1.98022
1.97876
1.97656
1.97406
1.97113
1.968
1.96455
1.96092
1.95698
1.95286
1.94841
1.94395
1.93917
1.93446
1.92949
1.92455
1.91947
1.91428
1.90914
1.90377
1.89858
1.89311
1.88787
1.8824
1.87705
1.87166
1.86619
1.8609
1.85537
1.85018
1.84465
1.8396
1.83421
1.82934
1.82431
1.81973
1.81534
1.81133
1.80797
1.80499
1.80294
1.80117
1.80118
1.8017
1.80334
1.80314
2.19149
2.19158
2.20272
2.22358
2.25281
2.29994
2.34374
2.36873
2.37691
2.37486
2.36498
2.34787
2.32889
2.31133
2.29591
2.28211
2.26848
2.25443
2.23963
2.22382
2.20721
2.18981
2.17184
2.15322
2.13432
2.11502
2.096
2.07668
2.05827
2.03984
2.02255
2.00589
1.99009
1.97552
1.96178
1.94962
1.93894
1.92985
1.92326
1.91714
1.91355
1.91087
1.91083
1.91282
1.91833
1.92604
1.93408
1.94169
1.94808
1.95262
1.95558
1.9569
1.95705
1.9564
1.95508
1.95419
1.95235
1.95071
1.94779
1.94545
1.94193
1.93898
1.93493
1.93135
1.9269
1.92283
1.91817
1.91375
1.90902
1.90431
1.89952
1.89456
1.88966
1.88454
1.87948
1.87435
1.86913
1.86413
1.85877
1.85394
1.84847
1.84375
1.83825
1.83358
1.82813
1.82354
1.81834
1.81385
1.80925
1.8051
1.80141
1.79819
1.79587
1.79389
1.79327
1.79347
1.79472
1.79731
1.80021
1.80245
2.19228
2.20308
2.22688
2.26242
2.31365
2.36012
2.38352
2.39095
2.3882
2.37599
2.35596
2.33647
2.31911
2.30442
2.29145
2.27924
2.26661
2.2534
2.23901
2.22387
2.20759
2.1908
2.17301
2.15489
2.13601
2.11716
2.09778
2.07896
2.06005
2.04182
2.02394
2.00663
1.99005
1.97423
1.9592
1.94509
1.9323
1.9205
1.91089
1.90259
1.89598
1.89047
1.88694
1.88561
1.88579
1.88906
1.89532
1.90318
1.91121
1.91848
1.92412
1.92809
1.9301
1.93068
1.93002
1.92924
1.92788
1.92672
1.92436
1.92224
1.91904
1.91632
1.91265
1.90933
1.90534
1.90143
1.89724
1.89287
1.88861
1.88395
1.8796
1.87472
1.87026
1.86522
1.86063
1.85553
1.85079
1.84573
1.84086
1.83594
1.83095
1.82624
1.82116
1.8167
1.81165
1.80746
1.80268
1.7989
1.79471
1.79166
1.78867
1.78684
1.78523
1.7852
1.78587
1.78758
1.79017
1.79565
1.80307
1.80763
2.20009
2.2297
2.27449
2.32963
2.37605
2.39835
2.40285
2.39883
2.38381
2.36195
2.34177
2.32507
2.3111
2.29916
2.28786
2.27663
2.26444
2.25137
2.23718
2.22219
2.20622
2.18955
2.172
2.15407
2.13545
2.11694
2.09794
2.0794
2.06049
2.04233
2.02403
2.0065
1.98933
1.97251
1.95672
1.94112
1.92694
1.91332
1.90126
1.89047
1.88151
1.87415
1.86752
1.86316
1.86032
1.86018
1.86141
1.86603
1.87306
1.88068
1.8883
1.89484
1.89972
1.9027
1.90425
1.90415
1.90339
1.90265
1.90134
1.89949
1.89689
1.89413
1.89103
1.88779
1.8843
1.88053
1.87665
1.87246
1.86832
1.86386
1.85961
1.85494
1.85068
1.84589
1.84165
1.83673
1.8325
1.82745
1.82324
1.81816
1.81394
1.80904
1.80479
1.80021
1.79607
1.79188
1.78809
1.78454
1.7815
1.77916
1.77742
1.77659
1.77671
1.77798
1.77997
1.78431
1.79028
1.80041
1.81123
1.81707
2.22673
2.28612
2.34423
2.39093
2.40991
2.4149
2.40778
2.38941
2.36711
2.34654
2.32964
2.31614
2.30403
2.29327
2.28225
2.27101
2.25899
2.24586
2.23213
2.21715
2.20184
2.18526
2.16871
2.15087
2.13349
2.11484
2.0969
2.07792
2.05977
2.04105
2.02308
2.00507
1.98758
1.97045
1.95385
1.93774
1.92247
1.90772
1.89433
1.88164
1.87073
1.86108
1.85304
1.84617
1.84032
1.83721
1.83567
1.83575
1.83809
1.84356
1.85119
1.85902
1.86658
1.87241
1.87672
1.87887
1.87965
1.87921
1.87841
1.87742
1.87544
1.87302
1.87013
1.8673
1.86405
1.86076
1.85711
1.85332
1.84937
1.84519
1.84102
1.83663
1.83238
1.8279
1.82368
1.81911
1.81492
1.81026
1.80608
1.80144
1.79724
1.79279
1.78869
1.78454
1.78081
1.77717
1.77416
1.77149
1.76977
1.76858
1.76842
1.76901
1.7706
1.77384
1.77822
1.7872
1.79749
1.81045
1.82258
1.82831
2.29024
2.3678
2.41147
2.42745
2.42662
2.41602
2.39411
2.36972
2.34866
2.33267
2.31932
2.30841
2.29792
2.28803
2.27787
2.26668
2.25485
2.24157
2.22803
2.21294
2.19804
2.18138
2.16529
2.14736
2.13033
2.11164
2.09395
2.07519
2.05725
2.03887
2.021
2.00312
1.98557
1.9683
1.95137
1.93499
1.91913
1.90412
1.88955
1.87631
1.86345
1.85243
1.84206
1.83379
1.82592
1.81949
1.81475
1.81244
1.81195
1.81292
1.8166
1.82292
1.83091
1.83883
1.84615
1.85154
1.85549
1.85697
1.85738
1.85683
1.85582
1.85447
1.85192
1.84941
1.84618
1.84332
1.8397
1.83646
1.83241
1.82881
1.82436
1.82052
1.81588
1.81196
1.80738
1.8034
1.79899
1.79487
1.79056
1.78638
1.78219
1.77811
1.7742
1.77049
1.76712
1.76422
1.76191
1.76048
1.75984
1.75997
1.76108
1.76326
1.76674
1.77397
1.78308
1.79594
1.80899
1.82244
1.83363
1.83802
2.3878
2.44079
2.45422
2.44787
2.42858
2.40236
2.377
2.35448
2.33674
2.32347
2.31273
2.3029
2.29278
2.28201
2.27052
2.25842
2.24599
2.23276
2.21911
2.20453
2.18944
2.1736
2.15716
2.14026
2.12291
2.1055
2.08779
2.07039
2.05271
2.03534
2.01784
2.00049
1.98334
1.96629
1.94979
1.9334
1.9176
1.9022
1.88731
1.87324
1.85956
1.8472
1.83526
1.82511
1.81571
1.80785
1.80061
1.79522
1.79193
1.79098
1.79129
1.79345
1.79856
1.80613
1.81453
1.82289
1.82959
1.83491
1.83735
1.8387
1.83832
1.83773
1.83661
1.83433
1.83167
1.8286
1.82539
1.82205
1.81833
1.81477
1.81061
1.80689
1.8024
1.7985
1.79396
1.78992
1.78556
1.78151
1.77735
1.77339
1.76946
1.76572
1.76225
1.759
1.75642
1.75429
1.75323
1.75285
1.75333
1.75464
1.75722
1.76256
1.77019
1.78157
1.79413
1.80839
1.82145
1.83299
1.84138
1.84373
2.51047
2.51314
2.49206
2.45767
2.42066
2.39045
2.36548
2.34535
2.33021
2.31877
2.30916
2.29976
2.28943
2.27812
2.26592
2.25298
2.23981
2.22611
2.2123
2.19794
2.18317
2.16778
2.15188
2.13546
2.11871
2.10175
2.08477
2.06755
2.05048
2.03319
2.01613
1.999
1.98229
1.96543
1.9492
1.93291
1.9173
1.9019
1.88699
1.87272
1.85876
1.84583
1.83321
1.82193
1.8112
1.80214
1.79369
1.78584
1.7797
1.77522
1.7737
1.77404
1.77562
1.77948
1.78596
1.79459
1.80347
1.81167
1.8177
1.82223
1.824
1.82469
1.82424
1.82315
1.82156
1.8183
1.8155
1.81156
1.80842
1.80424
1.80067
1.79628
1.79232
1.78787
1.78375
1.77944
1.77525
1.77123
1.76707
1.76338
1.75953
1.7563
1.75317
1.75074
1.74898
1.74818
1.74807
1.74879
1.7505
1.75437
1.76016
1.77021
1.78135
1.79518
1.80867
1.82176
1.83222
1.84017
1.84499
1.84542
2.63908
2.60077
2.55078
2.48769
2.43941
2.40452
2.37783
2.35711
2.34073
2.32742
2.31562
2.30407
2.29176
2.27878
2.26527
2.25123
2.23723
2.22281
2.20843
2.19369
2.17864
2.16331
2.14755
2.13165
2.11525
2.09887
2.08214
2.06551
2.04886
2.0321
2.01589
1.99911
1.98341
1.96687
1.95169
1.93569
1.92082
1.90564
1.89104
1.87681
1.86273
1.84946
1.83634
1.8242
1.81258
1.80196
1.79251
1.78409
1.77672
1.77009
1.76577
1.76317
1.76261
1.76376
1.76647
1.7715
1.78011
1.78896
1.79851
1.80568
1.81188
1.81453
1.81617
1.81558
1.81465
1.81308
1.8102
1.80673
1.80284