/*--------------------------------*- C++ -*----------------------------------*\
  =========                 |
  \\      /  F ield         | OpenFOAM: The Open Source CFD Toolbox
   \\    /   O peration     | Website:  https://openfoam.org
    \\  /    A nd           | Version:  9
     \\/     M anipulation  |
\*---------------------------------------------------------------------------*/
FoamFile
{
    format      ascii;
    class       surfaceScalarField;
    location    "6";
    object      phi;
}
// * * * * * * * * * * * * * * * * * * * * * * * * * * * * * * * * * * * * * //

dimensions      [0 3 -1 0 0 0 0];

internalField   nonuniform List<scalar> 
1300
(
1.7582594
5.6264299
-7.7030441
1.7582594
-7.5388135
5.6264299
-6.6687571
6.6687571
-2.1158832
2.1158832
3.7247928
3.6598965
-6.3476652
6.3476652
-6.4407611
6.4407611
-4.0058997
4.0058997
-5.2374462
5.2374462
-5.0569709
5.0569709
4.8325546
-4.8325546
-6.1985142
6.1985142
-2.7827253
2.7827253
-7.0748472
7.0748472
1.6337441
-1.6337441
-6.4689727
6.4689727
-0.77827503
0.77827503
-0.56474216
5.1362165
1.1935172
1.1935172
-3.7118965
3.7118965
-4.8280807
4.8280807
6.2144473
-6.2144473
11.624899
-11.624899
-3.9218546
-3.9951701
1.5881755
-9.6425805
-5.9506381
-5.9506381
-8.4383724
8.4383724
-2.8119424
2.8144875
4.0597552
-4.0597552
-1.4010815
1.4010815
-6.4652772
-0.20347994
-6.4652772
6.945861
-0.2771039
6.945861
-2.3585168
0.24263353
-2.3585167
5.7020481
-5.7020481
1.8737001
0.24218312
1.8737001
2.9487324
-2.9487324
-3.7207672
7.44556
3.6639221
-3.0696203
8.2058367
-3.3773307
7.0372272
-5.7884152
5.7884152
-6.5245968
0.17693159
-6.5245968
6.2970017
0.050663454
6.2970017
-6.4115855
6.4115855
-6.415567
-0.025194148
-6.415567
6.4572443
-0.016483182
6.4572443
4.2821519
-4.2821519
-4.0686714
0.062771661
-4.0686714
3.9086347
0.097265084
3.9086347
0.35901948
5.2674105
-5.9854494
8.7999369
-5.2674105
0.029964285
5.199915
0.037531158
5.199915
-5.0939314
0.036960416
-5.0939314
5.0133388
0.043632093
5.0133388
4.956321
-0.12376642
4.956321
-4.9146895
0.082134931
-4.9146895
-3.9160363
-3.9818945
-6.2852572
0.086742977
-6.2852572
-2.8206798
0.03795459
-2.8206798
2.7614475
0.021277719
2.7614475
-4.6211974
4.6211974
-7.3490774
0.27423021
-7.3490774
2.1573216
-0.52357744
2.1573216
1.9802861
2.5911883
3.7385454
-3.7385454
2.1048013
-6.4613494
-0.0076233872
-6.4613494
-6.5006464
-5.1242524
6.5006464
-0.031673712
-1.2414569
0.46318172
-1.2414569
1.6349118
-0.44139468
1.6349118
3.8302912
0.078343486
-3.8302912
0.1183947
4.8270636
-4.8270636
2.8494477
0.86244884
2.8494477
-5.5909804
5.5909804
4.9454666
0.067872255
-4.9454665
0.11738568
6.1550968
0.059350441
6.1550968
-6.19248
-0.021967266
-6.19248
4.0091797
-8.0043498
-3.9047901
6.089705
0.10880923
-6.0897049
0.13906687
4.1417499
-0.081994676
4.1417499
-4.0216008
4.0216008
-3.8533692
-0.206386
-3.8533692
-1.8871653
0.48608381
-1.8871652
1.1311904
0.26989101
1.1311906
-6.1307003
-0.33457689
-6.1307003
-7.2410623
-0.10801511
7.2410623
-0.29520122
2.6132207
-2.6132207
-2.5432717
0.18475499
-2.5432717
-5.8209744
-0.30972587
5.8209744
-0.11892631
-5.6152588
-0.086789291
-5.6152588
-3.4846566
-0.36871264
3.4846566
-0.53592421
2.278614
-0.64370218
-2.278614
-0.67011841
-3.0806391
5.6718273
-3.3663119
7.030234
-5.5560114
-0.23240382
-5.5560113
6.0370654
-0.24865028
6.0370654
6.8428693
0.23197789
-6.8428693
0.31827256
6.3251107
-0.028109045
6.3251107
-6.3716965
-0.039888979
-6.3716965
6.4318444
-0.020258952
6.4318444
6.375378
-0.050267252
-6.375378
-0.040189021
6.4565838
0.00066047574
6.4565838
4.3370956
-0.054943703
4.3370957
-4.2375771
-0.044574774
-4.2375771
4.0661061
-4.0661061
4.0713703
-0.0052641204
-4.0713703
0.0026989295
-11.148944
11.126977
-0.035619123
-11.113325
5.1642959
5.1642959
4.1526872
0.80363376
4.1526873
-5.0862435
0.17155396
-5.0862434
3.9300444
-7.8348345
3.8843028
-7.8003391
4.0101585
-13.652739
3.9787754
-7.9606698
6.3845618
-6.3845618
6.3439989
0.040562967
-6.3439989
0.05874168
-2.817453
-0.003226832
-2.817453
-4.3595783
-0.26161913
-4.3595783
4.9440631
-0.32286566
4.9440631
-3.417198
3.417198
-2.8564237
-0.56077432
2.8564237
-0.69910215
6.4562635
0.00032024785
-6.4562635
-0.0050858379
1.5937262
0.27997392
-1.5937262
0.3522693
5.1073922
-0.28032862
5.1073922
-4.5657032
-0.26136038
-4.5657032
-2.8244188
0.0069657996
2.8244188
0.025028932
-5.8298181
0.23883762
-5.8298182
-11.213854
0.10052965
-11.176323
-6.0919504
-6.0919504
2.346422
11.146359
-4.1943319
-0.043245244
4.1943319
-0.05258196
3.8065428
-0.38934478
-3.8065428
-0.21505807
-4.0709392
0.0048331041
4.0709392
-0.049338358
-2.4582537
0.57108852
-2.4582537
-1.5695501
1.5695501
-1.1978444
-0.37170577
1.1978445
-0.066653943
3.1253103
-0.5120897
3.1253103
2.6764198
0.08502779
-2.6764198
0.13314803
-5.437806
-0.1774528
-5.437806
6.2364917
-0.19942623
6.2364917
-4.4144117
-0.15129144
4.4144117
-0.077316046
-0.035012623
11.161989
-5.1292833
0.035351906
5.1292833
-11.22134
11.256692
-3.1400649
0.68181119
3.1400648
1.0126225
5.3328052
0.25817517
-5.3328051
0.24656169
6.4157992
0.016045156
-6.4157992
0.031237397
-4.1222019
-0.23737632
-4.1222019
-5.2679791
-0.28803228
5.2679791
-0.32391596
-11.472391
-0.19017162
11.662563
-11.428759
6.0199898
0.13510705
-6.0199898
11.391799
-2.1002957
-0.51292501
2.1002957
-0.53074563
3.5420499
-0.41673963
3.5420499
5.3330622
-0.22567001
-5.3330623
-0.10474373
-6.3247894
-0.046907078
6.3247894
-0.088297746
-3.8737466
-0.24845527
3.8737466
-0.33169672
-5.4803833
5.0389886
2.7254535
-3.9905895
-4.0137603
-9.1148418
2.671045
3.0007823
4.7758463
-8.4034692
-5.2492699
-8.2644023
7.2825147
-7.0359531
-9.6379385
9.514172
10.011001
-10.09779
-7.5098066
6.8107045
7.7772224
-8.3131467
3.7055424
3.7400176
12.850037
-12.673105
-12.239571
12.007167
12.289078
-12.314272
12.700184
-12.740073
-14.688566
14.704611
-7.6457367
7.7085083
-8.8531397
8.8085649
-9.045521
8.968205
-3.9852302
-3.815109
10.738955
-10.652212
14.007371
-14.014995
-13.392617
13.666848
4.161946
0.87704252
3.5182438
-3.5755966
7.2811389
-3.4616306
6.1870841
3.872341
-7.8575712
3.9624935
-7.9762538
7.2177656
6.7896058
-7.1860918
-1.92875
-7.8806175
7.7986228
-7.8090095
7.7596711
11.713991
-11.917471
-3.5290955
7.2691131
-3.5011384
6.5019207
-3.4124889
-4.0973177
3.9360664
0.8397799
6.6155028
4.1234526
-6.724312
-1.5400904
-10.019631
9.7939608
-10.516182
10.254822
-0.49059899
5.7994788
-5.3088798
4.3374817
-1.4469613
7.24644
5.8355534
6.0071074
5.8653654
-5.6071904
1.1705876
-6.4794674
-6.3620819
-3.5265217
3.7112767
3.4689269
-3.2267438
7.825302
2.1856985
7.7063758
-7.2027574
-2.8950324
-7.3802102
4.9399559
1.8707485
4.3791816
5.3494282
2.4277942
4.9807156
5.6241309
-5.690099
0.06596809
-4.8233971
10.447528
1.5790141
-8.9207147
-8.0809348
8.3116872
4.5383494
8.3623507
-8.7444419
-3.9286631
-8.4261694
-7.3369717
-4.9025988
-7.6250039
7.8459629
4.1612038
7.5973126
-9.3754579
9.2871602
8.1511486
4.1379294
8.1346654
-8.2099618
-4.1043104
-8.2501509
12.377322
-3.2593231
-9.117999
-8.2234244
-6.4651413
8.2436834
4.4565009
8.9445402
5.7600706
8.9757776
4.2676607
8.1096614
-8.7241615
2.2590203
-5.1151184
-2.5306183
-5.1124194
4.9822815
2.7262269
5.0795466
-5.5526436
-3.3004961
-5.5958888
-5.6504785
-3.3950425
5.7054222
3.1031428
-5.7360034
-4.7801786
5.8872948
3.0809102
3.5877
-8.8369698
4.3729699
-8.1880788
-7.484588
-3.1676244
-7.4258463
4.7651252
3.2304675
-7.9955926
-3.092446
12.99745
-6.2078441
11.0687
-8.7258006
-5.2891941
-8.7308864
-10.134943
-3.2576747
-10.242958
-6.8677192
6.6303429
-6.9367347
6.6138691
12.498481
-6.5410656
-5.957415
-4.2540751
-4.0590715
4.9241936
-1.4059497
-6.9520448
7.0180129
0.32909412
6.5161782
7.3932207
5.987271
-4.9478806
-2.8611289
-5.1629387
5.1334265
2.6262446
5.1382596
9.5298546
2.1841367
9.2527507
-8.2928427
-3.6246286
-8.6274196
9.5729181
-9.0868344
3.9381735
-3.9312077
6.8580737
3.3967481
-6.5777451
-3.4418858
7.9292514
-3.9215243
-4.0077271
-12.102968
10.735087
1.3678812
-4.8565281
-0.51904645
0.25922864
-5.616582
-4.0213564
5.534447
0.47266043
11.207748
7.1863911
-5.5166304
5.755468
6.1459322
6.2138044
-0.14827749
6.2144692
-5.532658
6.9877126
-3.1066442
-3.8810684
6.8530446
-7.1627704
-1.774375
-6.9775914
5.2032164
0.54360534
2.4780158
-2.0148341
-2.8563016
-0.6702201
-2.7231536
2.0748246
1.3941023
2.3547985
1.3603992
2.3508776
-3.7952262
0.63323264
3.1619936
-2.434827
-2.5935111
-4.6825554
-1.3554821
6.0380375
7.1801678
2.613793
-7.0754241
-0.30478615
3.718382
-3.6971043
-1.0989561
-3.5835993
2.6192645
-3.7182205
-4.5110766
-2.5224664
7.033543
-4.0064048
-1.1565339
4.3957496
-0.016567923
-4.8807413
-2.9998762
5.0871273
-0.10641167
-4.0573678
8.2927841
-4.2354163
-6.9184967
4.6877362
5.7597917
6.5584847
-7.8207722
3.822974
3.9977982
-2.0609805
7.2110744
1.1512762
7.1829654
-11.101668
7.1730046
9.2357368
4.4311109
-9.4677147
1.0415453
-10.060122
11.432566
-9.9126918
-1.519874
5.9294384
5.5031275
6.0783374
6.4201433
-4.6336674
10.712005
-1.2408486
-8.6718432
11.300971
-6.86986
6.5268352
-13.396695
-12.946979
4.2751353
-8.1598862
10.049812
-1.8899259
-2.9075216
-6.4679363
11.067408
-0.92995006
-10.137458
6.6673625
-6.2732076
-6.3363315
12.609539
-9.5325308
10.440642
-3.0962192
-7.3444228
-7.915997
-4.8240763
7.9629041
1.3242561
-11.728222
13.987242
-3.6185602
7.069197
1.0654684
7.0698575
4.6051426
-7.1731496
2.568007
4.9273883
-8.0236075
3.0278088
-10.200958
-5.724113
11.211219
-5.4871061
-8.8917374
-7.9319137
-0.95982371
2.4205757
11.566666
-8.1806462
6.3414194
1.8392268
4.4531948
0.68506484
-4.4479307
-0.66448874
0.42493788
5.9325074
-6.3574453
5.5044845
5.582828
4.3986176
1.5338898
5.1413992
2.6572236
-5.0888173
-0.50707154
-5.3485287
1.9534862
-2.2453859
-4.5346365
6.4881227
-5.1705572
0.63592065
-3.4841088
-4.6175713
8.1016802
-6.0147271
4.1481498
4.1446343
6.7743945
-6.37463
1.7570587
-3.1318439
-3.2427861
3.4134984
-5.6588843
2.4539073
4.0342155
5.5348175
0.75463885
5.6446042
5.5666148
-8.8750716
0.68699277
9.6900674
-8.1499771
1.9658761
7.0099015
-8.3072955
0.37538179
-7.0504645
1.3788557
-7.5866998
-6.6167369
7.0893544
-10.347029
-6.3073409
9.1605555
0.092195218
-8.8653543
-1.3776035
-4.7814413
-2.0862779
-5.0298966
-2.1011993
-4.8355354
-6.7348667
-1.5331884
-5.2016783
5.0971545
-5.1599959
-2.465008
5.4839118
1.1299573
-6.3243288
5.8114038
-5.9672091
5.5504695
0.5276256
6.4903873
6.5148966
2.4558251
-4.4294068
6.8852318
-6.9127422
9.0968789
-10.083367
3.1706247
4.8147255
-8.439354
-5.2686413
5.2309998
4.3419182
5.5008907
8.1597861
-12.504786
4.3449994
-10.057432
10.186985
-0.12955216
-15.040194
4.982761
-6.8804073
3.6238736
0.31429987
3.6206468
0.85592027
3.1345862
-3.9905065
-3.0752874
-3.0502585
-2.8923081
-4.3779609
7.270269
1.4041528
-4.311127
2.9069742
-4.5176666
5.9218195
-0.034846091
-4.2762809
6.89355
-3.7589637
7.2078499
-4.5525127
2.6553372
4.1702877
7.168589
-2.9983013
5.5875715
-2.1908234
2.2322751
-5.2305764
-2.1456858
-3.9504962
6.6767231
-4.151184
4.7871047
-0.31927787
5.1063826
-5.2155384
1.2940142
-0.81692076
4.7659072
4.8843019
5.5506545
-4.0167646
3.6876489
-5.8784723
-1.5429275
-5.1238334
-1.0896179
-2.0394948
-4.5130426
6.5525373
6.4475202
-8.4870148
-6.0815585
10.388297
-4.3067389
8.3828348
-5.8530321
-2.5298027
-4.5790485
-4.5077857
4.0079601
2.2065091
10.589344
0.17017343
-6.0232056
-5.3624845
-4.3498621
4.0361672
2.9515455
-2.5562504
3.9241316
2.2970216
0.18099419
0.83230774
1.5224907
2.4724677
-1.6401599
0.14007416
2.3323935
-1.87476
2.7819671
0.9364149
-2.8669949
0.14384135
-1.8595579
4.4788223
1.3024358
-2.6965381
1.0563781
1.4418094
-4.5484536
6.2747755
-3.1994912
-3.0752842
7.716585
1.4044279
-4.6039191
5.5731635
-5.0295582
2.9078869
-4.2633691
-1.6960321
-6.7255903
-4.5398918
-3.134564
6.0415381
-4.135705
6.7494981
1.5304616
-6.444712
7.9751736
-4.5188928
1.9964264
-4.0197609
4.9561758
-1.4029267
-2.6168342
3.4692416
3.5643014
-3.7424176
0.15881828
-0.27317598
2.9084982
-3.1816742
-0.80972226
-3.2445493
-6.5285427
6.4221311
-2.7844833
6.6074573
4.1007485
-2.4646844
9.0721418
2.8703828
-5.3350672
-4.0481138
-5.2046477
-1.337269
5.2212157
-1.1672931
-7.0828578
-8.5117159
7.133125
0.049840338
-10.960315
12.306398
-1.3460829
-6.4219658
-0.75103882
6.6804772
-8.9284236
0.90481611
-5.9006149
6.4057832
7.5570595
7.6068998
-9.9662087
-0.1712491
-5.8050049
1.4246116
-7.2296165
6.9277391
-3.508569
7.7837043
-8.3333931
5.8683851
-7.2034358
6.2638303
-0.96578622
6.6329401
-4.064933
2.4850589
-7.3091352
-5.9848791
8.3329756
-4.1950462
9.3984439
-4.7959327
14.194377
-8.4144929
8.2328054
5.9615712
-1.6220365
-7.1088499
-8.1941332
6.5720967
0.038672184
7.1085297
6.4805187
-3.8232951
5.9734472
2.9859332
-6.1177771
-2.6729511
-8.5803196
2.4625425
-4.4356853
-2.474249
4.9367915
4.3001455
4.9852104
1.6940054
-4.3207216
7.7887176
-8.7485413
-2.3016115
-4.3151254
8.0827753
-1.5106786
4.7931187
-9.1082442
-2.7935811
6.5951141
-1.4453554
-5.1497587
-0.054048591
-6.2532923
3.4282077
-9.6815001
6.9188212
-8.2964248
2.0385315
-8.9189388
-4.2857972
-4.8165429
-1.984504
-3.9827052
-6.2993699
4.3148659
-1.3166088
4.4947949
-7.4056609
5.9603055
-2.7813237
7.0961897
-4.2509218
-0.77897481
4.5826185
0.96785092
8.0640406
0.37120587
-5.6398473
-2.8767672
5.0401515
-2.1633843
1.1593999
-4.1418364
0.89831499
3.242153
4.474432
-8.4453695
0.006015408
-5.6338319
-3.76122
8.1031381
6.6270775
13.074598
0.5698123
9.3038585
-1.2007202
9.8736708
4.3001705
4.2335166
-3.1746917
7.5196912
3.3778456
6.5484702
-1.1132386
3.7685757
2.5074082
2.5453628
1.1517415
2.9603741
1.9239278
4.2543883
0.26388179
-2.7863767
4.8891961
-9.2390581
-1.1340094
-8.4354246
1.0787476
6.032943
-4.9541953
4.2141065
-1.262561
2.0507223
0.10847024
-2.6902896
2.5818194
-3.7725983
-2.5092955
-0.17690207
-2.0124183
3.0687964
2.466404
-2.8918944
-0.88070388
0.33328685
-4.8731787
3.9300822
-3.7712639
-0.20696252
7.768211
-3.4517259
0.27005165
-1.4552995
-2.9744977
-3.6447178
3.5008764
8.4880438
0.584098
4.2526275
7.0062291
4.0063528
0.18305777
5.269912
-7.1598379
-4.9310464
-7.331087
-0.40334789
6.2771293
2.4003676
9.1662986
8.3619388
6.8512602
-2.256984
-11.005525
8.2204655
-0.7007741
8.0909134
-2.9411546
-6.7403454
7.1006552
1.9962237
-7.1928503
-1.1035745
-7.8439199
-8.5446939
-0.59982383
6.5601292
-7.4642168
6.685242
4.5989641
0.60271418
-3.9046267
-0.91191621
4.2763323
-0.042815701
9.8308551
-1.1276831
-7.4755856
8.6032687
-4.9052599
3.7712505
0.89916923
3.0249625
3.4809888
2.2184277
-5.257158
-10.211354
-2.4765382
-2.0719154
-5.5518224
0.48621522
-2.9526193
6.7287573
-2.9575068
4.1989546
5.6457618
7.696484
-2.74255
-5.7444649
7.0492889
-2.8503343
4.8461499
)
;

boundaryField
{
    wall-4
    {
        type            calculated;
        value           uniform 0;
    }
    velocity-inlet-5
    {
        type            calculated;
        value           nonuniform List<scalar> 8(-1.7582594 -1.7582594 -7.3846893 -4.5714743 -7.3846893 -6.446951 -4.5714743 -6.446951);
    }
    velocity-inlet-6
    {
        type            calculated;
        value           uniform -5.6264299;
    }
    pressure-outlet-7
    {
        type            calculated;
        value           nonuniform List<scalar> 8(7.7030441 7.5388135 7.9170247 8.0544051 7.8979308 7.9139697 7.8143472 7.9889339);
    }
    wall-8
    {
        type            calculated;
        value           uniform 0;
    }
    frontAndBackPlanes
    {
        type            empty;
        value           nonuniform List<scalar> 0();
    }
}


// ************************************************************************* //
