/*--------------------------------*- C++ -*----------------------------------*\
  =========                 |
  \\      /  F ield         | OpenFOAM: The Open Source CFD Toolbox
   \\    /   O peration     | Website:  https://openfoam.org
    \\  /    A nd           | Version:  9
     \\/     M anipulation  |
\*---------------------------------------------------------------------------*/
FoamFile
{
    format      ascii;
    class       volVectorField;
    location    "6";
    object      U;
}
// * * * * * * * * * * * * * * * * * * * * * * * * * * * * * * * * * * * * * //

dimensions      [0 1 -1 0 0 0 0];

internalField   nonuniform List<vector> 
918
(
(0.43098134 -0.016917123 0)
(0.0090388553 2.9576234 0)
(0.001696891 2.0482709 0)
(0.28696614 -0.0070313795 0)
(-0.0059375171 2.0089371 -1.3033475e-21)
(-0.011743528 2.9485434 -3.2515455e-18)
(1.1663648 1.8235034 9.1937069e-19)
(0.69489706 0.39702281 -2.4084757e-20)
(1.9885873 0.005712939 0)
(0.015542677 1.9038075 0)
(-0.0066017454 1.9456678 0)
(1.2089528 0.011142993 0)
(0.01285052 2.9161437 0)
(0.01354786 2.7910247 0)
(0.11003708 3.233248 5.1936734e-19)
(0.00089670245 1.9706888 -2.3591781e-20)
(0.87644449 0.20915314 1.5540681e-18)
(0.26894819 2.2415708 8.231256e-19)
(0.41304749 -0.03063315 0)
(-0.003290423 1.9583701 0)
(0.24121245 0.38938764 -1.3231158e-18)
(1.0292795 -0.019867645 0)
(0.49192342 -0.030360166 0)
(0.24866255 0.039596942 0)
(1.1219038 0.0087022554 0)
(0.02806761 2.6001415 0)
(-0.0097538834 2.9062922 1.1911831e-18)
(-0.0071487303 2.0590485 0)
(-0.0032066343 2.112233 0)
(-0.0041113915 2.0702271 0)
(-0.0044828381 2.1466199 0)
(-0.0060825862 2.0285091 1.0217817e-21)
(-0.0061530525 1.967808 0)
(-0.018139311 2.9813882 -1.2079195e-22)
(-0.018355525 3.0070686 2.5244534e-18)
(0.00087612784 3.0016426 0)
(1.2224502 0.014996974 0)
(0.2869141 0.59843302 2.6809605e-20)
(1.2250628 1.7551586 -1.0214197e-18)
(1.3165416 1.6232156 1.1389844e-18)
(1.0478218 1.9580637 -2.126488e-19)
(0.9751393 2.0385881 1.261013e-18)
(0.78526174 0.43422928 2.3390654e-20)
(0.75724867 0.37713355 0)
(1.6155493 0.90715753 0)
(0.7226522 0.44870592 1.0813778e-19)
(0.63986439 0.40643284 -1.1269909e-19)
(0.85802869 0.082186402 0)
(1.9852836 -0.00065506787 0)
(1.9877964 -0.0060122524 0)
(1.3802949 0.0029610463 0)
(1.8644304 0.0093409442 0)
(1.7349016 0.0052105263 0)
(0.01418459 1.8747372 -6.8201404e-19)
(0.034104278 2.0238068 0)
(0.044747465 1.9613694 0)
(0.0065080277 1.9976644 0)
(-0.00030865847 1.8827619 0)
(-0.0012528046 1.9648719 0)
(-0.0078546526 2.0156417 0)
(-0.006529918 1.9362577 0)
(-0.0068700394 2.0254878 0)
(-0.0024115238 1.9480557 0)
(1.2914008 0.0064139856 0)
(1.2683266 0.010953213 0)
(1.2282677 0.0038801919 0)
(1.2433973 0.018427669 0)
(1.1793466 0.013236855 0)
(0.016741759 3.0145238 1.2435231e-18)
(0.012364328 3.0107763 0)
(0.0078252547 3.0038336 0)
(0.013382182 3.0004099 1.323456e-23)
(0.010557827 2.9476211 -1.7759759e-18)
(0.016774378 2.9848266 0)
(0.013364428 2.8937008 0)
(0.017602452 2.9237323 2.8358448e-24)
(0.013683149 2.8186278 0)
(0.017773879 2.9098471 0)
(0.010908654 2.7535753 0)
(0.26529508 3.716736 0)
(0.18940792 3.6548925 0)
(0.14629584 3.3637805 -4.8649074e-19)
(0.057158775 3.0449025 0)
(-0.0073904273 2.1048444 0)
(0.00058749066 2.033145 2.3276206e-20)
(0.00027537226 1.970487 -3.4014169e-20)
(0.96295041 0.21189796 -5.3505474e-19)
(0.90597983 0.16366358 -5.1901876e-19)
(0.93910323 0.25515667 -1.6053234e-18)
(0.86369319 0.25528891 -1.0672847e-18)
(0.19316482 1.5884662 0)
(0.40094237 2.3370233 -9.0006207e-19)
(0.51607391 2.3210694 1.508438e-18)
(0.65994869 -0.10359901 0)
(0.57962782 -0.07705184 0)
(1.2165894 0.0014819105 0)
(0.73377435 -0.01768694 0)
(0.67044779 -0.01738969 -2.1282455e-18)
(0.63723187 -0.028291394 1.6824268e-18)
(-0.0015000937 2.0215592 0)
(-0.00086195988 1.9566465 0)
(-0.0098938447 2.0690642 0)
(-0.0065050477 2.0298269 0)
(-0.0040903735 1.9688836 0)
(0.38192066 0.45343185 4.0097818e-19)
(0.43630573 0.38875845 0)
(0.57313815 0.13957132 0)
(0.36294203 0.078930607 0)
(1.2093652 0.01490764 0)
(1.183315 0.010811068 0)
(1.1609329 0.0038394892 0)
(1.4437571 0.044870351 0)
(1.1389842 0.035886876 0)
(1.0351632 0.046177772 2.195431e-18)
(0.005129758 2.871711 9.9932934e-19)
(0.022983089 2.8976622 0)
(0.041116278 2.8678085 0)
(0.016681181 2.6977194 0)
(-0.0099866718 2.9856357 1.1482665e-18)
(-0.0086551217 2.8920526 0)
(-0.011548561 2.9905105 -3.5324576e-18)
(-0.0095193975 2.9160274 1.2093321e-18)
(0.0010769643 2.1366852 0)
(0.0098218967 2.111604 0)
(0.00099400944 2.0359935 -6.0813646e-22)
(-0.0035102239 2.0306879 0)
(-0.0015910177 1.9684204 0)
(1.2912245 0.013470112 0)
(1.2469879 0.0079287479 0)
(1.2112887 -0.015623457 0)
(1.2521118 0.033693132 0)
(1.1562521 0.032598791 0)
(0.42447546 1.002515 -2.8756761e-20)
(0.43721493 1.0064724 0)
(0.41830345 0.80661073 6.7781544e-22)
(0.20276108 0.30740377 0)
(1.340516 1.524894 -3.1925528e-19)
(1.4117232 1.3696272 6.3588206e-19)
(0.62741371 2.3059494 0)
(0.84466556 2.1636086 0)
(0.76106034 2.2287219 0)
(0.46584616 0.92251323 -4.4819342e-19)
(0.84346681 0.39789085 0)
(0.80375767 0.34258449 3.0344299e-19)
(1.4445738 1.2733177 0)
(1.5608804 1.033974 0)
(1.5070254 1.11815 -5.1684003e-19)
(1.6562577 0.83249279 0)
(1.6894882 0.71486931 1.0364713e-19)
(1.1660574 0.0569409 0)
(1.0411433 0.10055457 0)
(1.0336688 0.051915577 0)
(0.70651426 0.13931425 0)
(0.85947494 0.13364139 0)
(0.63014985 0.084207604 0)
(1.5158566 -0.0018426712 0)
(1.8670707 -0.012008222 0)
(1.7298358 -0.0055169844 0)
(0.019006239 1.9235344 3.6811329e-19)
(0.021921367 1.8388421 0)
(0.022085697 1.9617391 5.9867235e-19)
(0.016875114 1.9250976 -5.0723305e-19)
(0.18020203 2.216376 -6.7436078e-19)
(0.067586597 2.0862467 0)
(0.10527186 2.0902027 0)
(-0.0073772121 1.9953257 0)
(-0.0059145536 1.8950169 0)
(-0.0018363802 2.0256616 -1.5622488e-21)
(-0.0018820194 1.9624441 0)
(-0.0006460923 2.0298414 -8.1603747e-20)
(-0.0015739155 1.9677044 1.5355682e-19)
(-0.010390894 2.0047127 0)
(-0.0092552449 2.0115634 0)
(-0.0056074007 1.9158987 0)
(-0.001269655 2.0265862 0)
(-0.00041832282 1.9499002 0)
(1.35442 0.0099705758 0)
(1.3087744 0.0059560141 0)
(1.3366832 0.0078777216 0)
(1.2784984 0.0057462624 0)
(1.2232073 0.0016273753 0)
(1.2785936 0.00030704591 0)
(1.2797196 -0.00040487134 0)
(1.2275887 -0.00067575552 0)
(0.0038065783 3.07152 -1.0616968e-20)
(0.010804241 3.0622585 0)
(0.016080596 2.9687387 0)
(0.013172847 2.8678051 0)
(0.75010934 4.3330183 0)
(1.2505705 3.3739858 9.7554089e-19)
(0.081244734 3.1660888 0)
(0.034992589 2.9342602 0)
(0.011123228 2.0852806 0)
(0.0053280912 2.0772052 0)
(0.0032671795 2.0824721 0)
(-0.0060359861 2.1348167 4.0985338e-21)
(-0.0021254243 2.1257882 0)
(-0.0043949571 2.1291695 0)
(0.0011592642 1.9613316 5.9521819e-21)
(0.0021412147 2.0314966 4.7147828e-20)
(0.0019994322 2.0334485 3.4798582e-20)
(0.0013782198 1.9648844 0)
(0.99116188 0.15877603 8.021448e-19)
(0.9342459 0.1180768 -7.8233073e-19)
(0.24706694 1.6937985 0)
(0.26571002 1.5293024 -3.0794082e-19)
(0.17055263 1.7418982 -8.8662442e-19)
(0.11942182 1.6674364 8.8849701e-19)
(1.0134195 -0.053011881 0)
(1.0172793 -0.090723617 0)
(0.85032863 -0.13998313 0)
(0.81498891 -0.075124314 0)
(-0.0015219787 2.0237352 0)
(-0.0017713289 2.0221503 0)
(-0.0016326584 1.9525113 0)
(0.65448876 0.4621274 9.9514797e-19)
(0.55217751 0.46856439 -1.215812e-18)
(0.55961437 0.40706475 0)
(1.6040043 0.10901504 3.2515076e-20)
(1.593703 0.11721881 0)
(1.4781138 0.052256447 0)
(1.3724505 0.026249333 0)
(1.0160421 0.1196287 0)
(1.0627623 0.081515688 -3.5317069e-18)
(0.96897998 0.086121108 1.3431969e-18)
(0.0061687971 2.9898577 1.0181552e-18)
(-0.0013816833 2.8724548 5.0016508e-20)
(0.0038764598 3.0532305 -2.2257261e-20)
(0.012790483 3.0480854 8.0117088e-19)
(-0.0094270203 2.9948833 3.9348869e-20)
(-0.0085583256 2.9361134 -1.5796915e-22)
(-0.013206204 3.0201662 -7.4195003e-19)
(0.0014403037 3.0243927 5.3477648e-19)
(0.0068807675 3.0393743 -8.0174551e-19)
(1.3255913 0.0078014051 0)
(1.3123803 0.0091803904 0)
(1.2626169 0.0066058372 0)
(1.1496757 -0.060728293 0)
(1.2388926 -0.037402378 0)
(1.142156 -0.036220108 0)
(1.2814379 0.00072180459 0)
(1.2756543 -0.0096920829 0)
(1.2257274 -0.0022168613 0)
(0.62107849 1.341519 1.7027936e-19)
(0.71559495 1.4361764 0)
(0.29014675 0.40312652 7.9788743e-20)
(0.58960326 0.83601601 4.0826488e-19)
(0.50702588 0.75149382 -1.1769631e-19)
(0.21554076 0.24291993 1.8032974e-19)
(0.59851045 1.2832209 2.2068614e-18)
(0.47406566 1.1421718 4.8700853e-19)
(0.91791498 0.30858679 1.1422157e-18)
(0.88331859 0.35599784 2.8230962e-19)
(0.83472913 0.30237021 5.7552312e-19)
(1.6856528 0.61660862 2.2824174e-19)
(1.7123008 0.48095793 2.273828e-19)
(0.017695842 2.0074223 2.33203e-19)
(0.0054065499 1.9604509 0)
(1.4097878 0.031356003 0)
(1.3694702 0.013808333 0)
(1.3329949 0.015257788 0)
(0.010058475 3.0772777 0)
(0.016850025 2.9386228 1.5591964e-18)
(0.016428364 2.95362 0)
(0.013389391 2.8436628 -1.5564336e-18)
(0.0097602022 3.0915721 3.5651621e-19)
(0.0040977901 3.0882592 0)
(0.82546484 1.766445 -1.5449765e-19)
(1.1374449 2.4222885 2.1724323e-19)
(0.82373562 1.8947984 -1.0096532e-18)
(0.019244284 3.0084922 -9.1683431e-19)
(0.042561559 3.0573166 0)
(0.016356209 2.8901776 0)
(-0.0025129599 2.0275301 -9.3543297e-21)
(0.00012027477 2.0293209 -1.1073285e-19)
(-0.00036676995 1.9656198 -5.8888527e-21)
(0.31875432 1.6451642 9.748581e-19)
(0.32985176 1.4776542 -6.7445892e-19)
(0.034411889 1.8840183 5.9639735e-19)
(0.094965853 1.8156578 -7.2940686e-19)
(0.052646009 1.755879 9.0023595e-20)
(0.016248247 3.1119129 -2.3540422e-18)
(0.01806816 3.118636 2.6645692e-18)
(-0.0075989571 2.9806669 1.0921612e-18)
(-0.0032173025 2.979085 -1.0637596e-18)
(-0.0065827972 2.8794863 -1.1124784e-18)
(0.0056499371 3.1048046 -2.7719068e-18)
(0.010495434 3.1037724 2.7522403e-18)
(0.61811256 1.1197695 0)
(0.62592026 0.96784915 -1.5440029e-18)
(0.40579821 0.68211571 7.0911665e-19)
(0.54682175 1.4203966 1.3128176e-18)
(0.45353982 1.3027487 -2.0526538e-18)
(1.7054319 0.22292505 6.0661619e-20)
(1.7043467 0.39022407 0)
(1.7039338 0.26801331 4.7416841e-20)
(-0.0035392833 2.0267628 -1.9908337e-21)
(0.00086518124 2.0254562 0)
(-0.0018283245 1.9645702 0)
(0.39650731 1.6037924 -3.4957455e-19)
(0.48124083 1.5364669 -8.3539882e-19)
(0.39440441 1.4072832 1.5314906e-18)
(1.2346656 0.071359197 0)
(1.3157051 0.019432833 3.6946488e-19)
(-0.0044954501 2.1342789 0)
(-0.012341253 2.1483898 0)
(1.5234688 -0.005161847 -1.8676833e-20)
(1.1680104 -0.021869862 7.6371281e-19)
(-0.0016412948 2.1354199 -5.3586015e-21)
(-0.0023138673 2.1297647 0)
(0.075160868 3.1901142 7.0025274e-19)
(0.5800182 3.6044614 0)
(1.4736013 0.90100842 -6.124617e-20)
(1.2455486 -0.23938631 4.2615519e-20)
(1.2577688 0.20572819 0)
(1.9853893 -0.0029548663 -9.9656936e-22)
(0.066653797 2.2224951 0)
(0.061614429 2.033396 0)
(-0.0020764148 2.1563743 0)
(0.01106291 2.1210529 1.0235928e-19)
(-1.0560353e-05 2.1264251 5.4326019e-20)
(1.3341668 0.025925658 5.4402135e-21)
(1.3973138 0.020655213 0)
(1.4220467 0.032363353 0)
(0.016693732 2.0830525 0)
(0.0015413297 2.1227982 0)
(-0.0026018129 2.1373952 0)
(0.29849721 2.3155586 -3.3519755e-19)
(1.2223012 0.10291563 0)
(1.093513 0.18069803 0)
(1.9493216 0.00047087699 5.2601152e-19)
(1.6339136 0.038550157 -5.5339448e-19)
(1.9031555 0.022401472 0)
(0.015101594 2.0789853 0)
(-0.004725173 2.1240663 0)
(0.0097562875 2.0924519 0)
(-0.0045833818 2.1383218 0)
(-0.010184515 2.1356065 0)
(-0.0095741503 2.1409883 0)
(1.3661726 0.036162403 0)
(1.3548236 -0.017610752 -2.3670698e-21)
(0.95009582 1.7408334 5.0818496e-19)
(1.938967 -0.0084797819 -5.2482661e-19)
(1.7113946 -0.026588933 5.6492939e-19)
(1.8929904 -0.027905636 0)
(1.2749767 -0.21207637 6.4439589e-19)
(1.1727004 -0.11735606 -5.9064569e-19)
(0.99900413 -0.17591532 0)
(-7.3267554e-05 2.1267391 0)
(0.0030865989 2.1279043 2.3023599e-20)
(-0.00011408925 2.1239314 -1.6881304e-20)
(1.5393628 0.34532576 8.0627954e-19)
(1.47534 0.099959469 0)
(0.10378367 3.0542055 -1.3855687e-18)
(0.057508308 2.8301341 -1.0097108e-19)
(0.20415768 3.1924954 2.0350944e-18)
(0.18293628 3.2553704 -3.0584744e-19)
(0.17965524 3.3076881 0)
(0.037145212 3.1348311 3.8522474e-19)
(0.098324879 3.175454 1.3644774e-18)
(0.095476024 3.2067504 -7.1962796e-19)
(0.060815115 3.1060172 0)
(0.91727893 0.47111428 0)
(0.79674097 0.54049786 0)
(1.4280878 0.92381062 1.1706579e-19)
(1.4343952 1.1176246 -6.1432425e-20)
(1.4790885 0.76188408 0)
(1.5404881 0.74183049 0)
(1.238733 -0.23167829 -1.3939759e-18)
(1.2025128 -0.2015667 1.8747337e-18)
(1.2787595 0.19380995 0)
(1.273085 0.13999216 0)
(1.912921 -0.007864518 0)
(1.752633 -0.068019424 0)
(1.9097133 -0.038258385 0)
(1.642497 -0.12096217 0)
(1.6597344 -0.090039175 0)
(1.7922106 -0.040868761 0)
(0.055749133 2.2093282 0)
(0.019320544 2.2054981 0)
(0.099031531 2.2488225 0)
(0.090496039 2.2656724 0)
(0.067068916 2.0196894 0)
(0.060472592 2.0057608 -3.9224482e-19)
(0.064157275 2.0532544 0)
(0.05610875 2.0502018 2.0142781e-19)
(0.0080799955 2.0962944 -2.0987042e-19)
(-0.00035845746 2.1585116 0)
(-0.00069049355 2.1560852 0)
(-0.0018220256 2.163549 0)
(-0.0091711176 2.1824359 0)
(0.02044591 2.1102746 -6.5058543e-20)
(0.0016124207 2.1280603 7.5451705e-20)
(0.011175872 2.1252249 9.8521805e-20)
(0.0053940173 2.1303226 0)
(-0.0007998061 2.1304815 -1.242456e-19)
(-9.3732291e-05 2.1278232 -7.6837563e-20)
(0.017750154 2.1085249 4.9406537e-20)
(0.0044051783 2.1168308 -9.8093807e-20)
(0.012545003 2.1194347 -1.2320137e-19)
(1.3446447 0.016609451 1.5814902e-18)
(1.3473325 0.0026662672 -2.0071492e-18)
(1.340559 0.034460168 -1.601711e-18)
(1.3237235 0.032276591 2.0596475e-18)
(1.3912484 0.023387311 0)
(1.4008533 0.015173701 0)
(1.424597 0.03316454 0)
(1.3996086 0.024680378 0)
(1.4264821 0.021519893 0)
(1.4651393 0.093771338 0)
(1.4362824 0.047755051 0)
(1.4585129 0.04920792 0)
(0.0075035635 2.132002 -2.4305783e-21)
(0.023180744 2.0966595 0)
(0.0070603669 2.1183862 0)
(0.0012565814 2.1272408 2.2748701e-20)
(0.0045781316 2.1307157 -1.0154648e-21)
(0.012893634 2.0939146 2.3988714e-20)
(0.0072566038 2.0995722 -2.4112714e-20)
(-0.0032721667 2.1325265 0)
(-0.0068191686 2.1313618 0)
(-0.0067745017 2.126338 0)
(0.0003492108 2.139921 0)
(-0.00028007161 2.1351656 0)
(0.44044578 2.2836736 5.6902647e-19)
(0.4425183 2.3169946 2.7622936e-19)
(0.345465 1.9172442 -2.3172193e-19)
(0.18452148 1.9437041 5.7086904e-19)
(0.30553882 2.0117659 1.4521182e-19)
(1.2601128 0.21987658 0)
(1.217258 0.20448991 0)
(1.0953686 0.21473793 0)
(1.9045464 0.033083514 0)
(1.9145036 0.031160581 0)
(1.7047508 0.042453996 0)
(1.5679687 0.084480948 0)
(1.5419688 0.11797082 0)
(1.352432 -0.051435771 1.5656963e-18)
(1.3225915 -0.075933533 -1.9975214e-18)
(1.3589463 -0.005571169 -1.5549678e-18)
(1.3542293 0.0021290577 1.9840612e-18)
(0.88948171 1.7682102 0)
(0.80366585 2.0157554 4.748138e-19)
(1.0492574 1.578143 2.1144982e-19)
(1.1214896 1.5995876 -2.8173194e-19)
(1.138084 2.7721034 -2.5518239e-19)
(1.1099437 0.17360053 8.3432546e-19)
(1.4722812 0.13383396 0)
(1.5193964 0.22651774 -6.2172262e-19)
(1.5442291 0.20841449 -2.3331093e-20)
(1.2894302 0.1550198 0)
(0.26467858 2.9445575 8.0530209e-19)
(0.14195372 2.8278592 -1.9758138e-18)
(0.071750842 2.3403003 1.2971545e-18)
(0.14245046 0.25905908 -6.4418422e-19)
(0.40885647 3.5055572 -9.5717654e-20)
(0.26291535 3.3945243 0)
(0.26885885 3.4697354 1.3531604e-19)
(0.30365315 3.0932454 -2.0401915e-18)
(0.4484427 3.1886869 0)
(0.016085307 3.1155615 7.1275617e-20)
(0.021466048 3.1313618 -7.7399424e-19)
(0.037437949 3.1170588 1.2027948e-18)
(0.046014123 3.1478225 0)
(0.04403687 3.1573053 0)
(1.29398 2.8612599 0)
(0.73774203 1.0583472 -6.5601816e-19)
(1.3145375 1.3607017 -5.6509332e-20)
(1.2072084 1.3940484 0)
(1.0604805 1.257115 -9.3765099e-20)
(1.3665944 1.1602989 3.9093383e-20)
(0.51490058 0.62434109 -1.5019158e-18)
(0.96478091 0.45377265 -3.9912979e-20)
(0.96676797 0.41256441 6.0535504e-19)
(0.7943249 0.57867212 4.5953756e-20)
(0.71984396 0.56206477 -1.9184401e-18)
(0.91353719 0.51425124 0)
(0.89614494 0.57642636 1.0010748e-18)
(0.9167553 0.54541528 0)
(0.84081001 0.55603439 0)
(0.85505898 0.51370957 0)
(1.012001 0.77535641 5.4669626e-19)
(1.5174516 0.36163757 -6.7562244e-19)
(1.5320979 0.55070166 0)
(1.567689 0.51553066 0)
(1.0475959 0.30234222 9.1362219e-19)
(1.0169493 0.70148307 -5.5375641e-19)
(0.93845285 0.66097506 9.7470273e-19)
(1.1791491 0.52559292 -1.0155033e-18)
(1.3161555 -0.12125717 1.0624181e-18)
(1.2624572 -0.19124442 -1.0350021e-18)
(1.2564955 -0.13852478 0)
(1.358425 0.061781448 0)
(1.3176824 0.12179748 -9.932308e-19)
(1.3366317 0.075069803 9.8193222e-19)
(1.3844728 -0.013120943 0)
(1.3782188 -0.054558391 0)
(1.7056297 -0.1068771 0)
(1.5037914 -0.20632119 0)
(1.6227351 -0.040228515 0)
(1.7064138 -0.031768017 0)
(0.0075512668 2.1968368 0)
(-0.0062552582 2.1921097 0)
(0.1437976 2.214375 -1.7437867e-21)
(0.28335488 2.2993189 1.7022388e-19)
(0.143748 2.2980885 3.8068702e-19)
(0.15967454 2.3125483 -6.1205252e-19)
(0.17508031 2.2556394 0)
(0.14151807 2.1151598 -1.3186964e-19)
(0.13549496 2.1218309 0)
(0.26070769 2.006875 -2.0193843e-19)
(0.22435912 1.9594878 7.0933976e-19)
(0.16927692 2.1405066 1.1840741e-19)
(0.27563278 2.2423657 7.1952443e-20)
(0.21201705 2.2326524 -5.8773821e-20)
(0.29774101 2.1439737 -9.9599193e-20)
(0.21497104 2.0800575 0)
(0.23044838 2.0758474 1.0333222e-19)
(0.021804041 2.0931138 -5.9078101e-20)
(0.025553267 2.0915099 0)
(0.072674843 2.0853474 2.2731611e-19)
(0.042642299 2.0861806 0)
(0.057934251 2.0704748 -2.2377839e-19)
(0.040097416 2.0851131 0)
(0.0084923754 2.1019146 -4.7549815e-20)
(0.015163556 2.1075433 0)
(0.0026129043 2.1255284 0)
(0.0052066672 2.1115379 5.3846449e-20)
(0.010835833 2.1147227 4.8942837e-21)
(0.0032285689 2.1028576 2.5095079e-19)
(0.00082422854 2.1130595 1.6766704e-21)
(-0.0034183641 2.0980072 4.582324e-20)
(0.0011814119 2.0973662 2.8162764e-20)
(0.0011166693 2.1540259 0)
(0.0020465716 2.1511684 0)
(0.02744598 2.121374 1.4275606e-19)
(0.011852666 2.1088668 9.1361773e-20)
(0.015213248 2.1133686 -1.3073773e-19)
(0.033705981 2.1288552 0)
(-0.0056513779 2.0948194 -7.8444207e-20)
(-0.0043168714 2.1126334 3.5694408e-20)
(-0.0018907557 2.1139672 -1.0994001e-20)
(-0.0033821363 2.1005289 -5.4251515e-20)
(0.0028506698 2.120829 -1.8752371e-20)
(-0.002057927 2.1210581 8.6502458e-20)
(1.3574742 0.0037491067 -1.0594362e-18)
(1.3550538 -0.00093317048 1.0686081e-18)
(1.3538448 -0.002807404 0)
(1.3302169 0.080185596 1.5141836e-18)
(1.3212214 0.048766502 -1.6845098e-18)
(1.2836057 0.030665255 1.8797548e-18)
(1.331368 0.12374758 -2.049296e-19)
(1.373777 0.029385018 0)
(1.3848988 0.02039155 9.6731417e-19)
(1.3875979 0.018795746 -9.5971886e-19)
(1.3726951 0.042608595 -5.6850049e-20)
(1.3735312 0.03427868 4.9372151e-19)
(1.3415669 0.040226564 0)
(1.3290501 0.035053422 -1.7760321e-19)
(1.3432968 0.023920697 0)
(1.3409066 0.025352431 0)
(1.3741842 -0.0068302348 0)
(1.3658407 -0.0037764273 0)
(1.3457336 0.028676648 3.6237096e-19)
(1.3482267 0.030693013 -7.950437e-19)
(1.3458097 0.04157748 -3.8944492e-19)
(1.3369107 0.030076544 -4.2640981e-19)
(1.3327249 0.058624412 8.222982e-19)
(1.3886716 0.058117918 0)
(1.3942168 0.10717709 0)
(0.0018159717 2.0982056 -2.7995808e-20)
(0.026823153 2.0941471 -3.032322e-21)
(0.018355283 2.0913756 0)
(0.0034761463 2.1135052 2.8926478e-20)
(0.013939551 2.1205969 5.2286535e-21)
(0.010536479 2.1194939 -5.6849684e-21)
(0.0011189078 2.1308406 6.7307657e-20)
(0.0038206923 2.1243969 -4.0083409e-21)
(0.0038596722 2.1215691 1.9177831e-20)
(0.004398024 2.1306024 -3.4444025e-20)
(0.0035906882 2.1306533 4.1570057e-20)
(0.00032878366 2.1305366 6.1849769e-22)
(0.0063126043 2.109202 3.266044e-20)
(0.41123079 2.1532346 -2.4643733e-19)
(0.3470714 2.1141974 1.0441297e-19)
(0.76155216 2.0445082 -4.6167646e-19)
(0.60444907 2.2211357 -2.6639401e-19)
(0.6251208 2.2205191 0)
(0.41062365 1.9122208 2.369549e-19)
(0.44148915 1.8971467 3.5003421e-19)
(0.23629363 1.937079 5.5027512e-20)
(0.23958858 1.9283586 -8.144412e-19)
(0.30071492 1.9287975 6.6010354e-19)
(0.32034835 1.9384678 0)
(0.25172125 1.9412114 -5.0922995e-19)
(0.090340164 1.9843027 1.0051585e-18)
(0.16448498 1.9675998 -4.7911019e-20)
(0.10177009 1.9795208 -1.3696554e-18)
(0.92022473 1.8731604 1.1478175e-18)
(0.69449072 1.8236447 0)
(1.8365924 0.056583748 2.5829746e-20)
(1.528353 0.14564436 -2.2157783e-20)
(1.4985591 0.17323646 -4.2918739e-19)
(1.6649684 0.13176283 4.3247442e-19)
(1.806924 0.064491242 0)
(0.6781891 1.676388 0)
(0.61202115 1.4969659 0)
(0.91642398 1.4306816 0)
(0.74622117 1.3438432 0)
(1.1362408 2.7590996 5.8459104e-20)
(1.0968042 2.5176903 0)
(0.55741483 2.6836071 3.4573406e-21)
(0.57047956 2.2422354 0)
(0.71793873 2.3064559 -7.9704746e-19)
(0.71416306 2.4559063 5.4083659e-19)
(1.1257218 0.1911332 0)
(1.0844304 0.21247127 2.3286449e-19)
(1.1997107 0.16912696 1.294842e-18)
(1.1474297 0.16344746 -4.8409138e-19)
(1.1328656 0.13094707 -1.5156334e-18)
(1.3461457 0.25484565 -1.1855941e-18)
(1.2290569 0.37303223 -2.0332512e-20)
(1.1735314 0.34342558 1.2168292e-18)
(1.2625684 0.26509574 1.0082095e-18)
(1.2361218 0.18759641 -1.7126978e-18)
(1.2127311 0.20689649 2.1531042e-19)
(1.2400557 0.26724661 -4.6359008e-19)
(1.2216355 0.24581685 0)
(1.2859589 0.18400336 8.4363767e-19)
(1.3115355 0.19957526 0)
(1.3032848 0.23998737 0)
(1.3948122 0.14293346 3.9159747e-19)
(1.3417877 0.1929116 -1.8983676e-20)
(1.3530815 0.25166196 -2.1266787e-19)
(1.4127978 0.22222556 0)
(1.3400355 0.032251596 8.2225842e-19)
(1.3448802 0.040063081 1.0203234e-18)
(1.3443389 0.028128608 -7.9177118e-19)
(1.3487222 0.06748641 -6.9036172e-19)
(1.3391138 0.069251135 -1.0850606e-18)
(1.260566 0.14021526 0)
(1.2913756 0.11368738 0)
(1.2692968 0.057256108 -6.780526e-19)
(1.219297 0.059857367 2.6921783e-19)
(1.3418852 0.12541023 9.6638838e-19)
(1.3353646 0.15016137 -1.1232532e-18)
(1.3485539 0.16676957 1.0001545e-18)
(1.3425316 0.17031978 0)
(1.3469351 0.12863269 0)
(1.3302487 0.097672452 -4.6684174e-19)
(1.348022 0.11133928 -7.9749739e-19)
(0.47119422 1.637228 -5.4640011e-20)
(0.6716261 2.3154162 4.3944586e-20)
(1.0784945 3.1198956 9.2972602e-20)
(1.3066191 3.3466872 -3.7597227e-20)
(1.2346414 2.9051147 2.9682484e-19)
(1.3331558 2.9989912 -1.7244585e-19)
(1.1336645 2.5441335 3.7310161e-20)
(1.2868297 3.2762432 1.8218146e-19)
(1.2780079 3.2871125 -2.0700271e-19)
(1.3005687 3.489441 -1.9822394e-19)
(1.421158 3.2150684 2.0651515e-19)
(1.4451372 3.1034065 0)
(0.74905449 1.1101661 -4.4375686e-20)
(0.29624652 1.4034281 7.6870367e-19)
(0.60428937 0.82391664 9.8888441e-19)
(0.36736404 0.46231701 1.1727183e-18)
(0.70795633 0.59427703 1.0707505e-18)
(0.72740924 0.65164448 -1.760613e-18)
(0.69743717 0.6997558 1.4317434e-18)
(0.63692945 0.65565318 -5.7280555e-19)
(0.62245901 0.58097216 1.2915029e-18)
(1.0587603 0.33897082 -5.109628e-19)
(1.0055956 0.39794297 0)
(1.0063667 0.36624495 2.2679467e-20)
(0.89981442 0.66877528 5.3389983e-19)
(0.87337914 0.64672416 -1.9420868e-18)
(0.76661111 0.67142317 4.0847538e-20)
(0.8129217 0.62942708 0)
(0.83705463 0.98110293 5.0575506e-19)
(1.0442526 0.98216408 4.0669418e-19)
(0.97324303 1.1046012 -4.7553514e-19)
(1.0967373 0.98571942 -1.8674114e-19)
(1.2263388 1.0855663 -3.5839904e-20)
(1.1775072 1.0827464 3.6229266e-20)
(1.061748 0.80261368 -9.2121156e-19)
(1.1379406 0.89405847 1.7516827e-19)
(1.2579922 0.90486316 0)
(1.2722355 0.86312285 -2.5118947e-19)
(1.2541155 0.3946926 3.0550664e-19)
(1.4205662 0.36481745 3.9787853e-19)
(1.3301953 0.3264328 4.9362337e-19)
(1.2416873 0.46558315 -6.1456633e-19)
(1.3202966 0.51584777 0)
(1.3702818 0.5022456 0)
(1.1267477 0.46944661 1.3253043e-20)
(1.1026968 0.3687967 0)
(1.1301191 0.35435962 5.8904564e-19)
(1.1473113 0.35735392 -1.6795307e-20)
(1.1664169 0.56332886 2.6701543e-18)
(1.0902606 0.65464602 7.3192893e-19)
(1.088588 0.5908949 -8.2208404e-19)
(1.0221784 0.57429906 8.8654839e-19)
(0.98302175 0.57871941 5.3393736e-19)
(0.93576813 0.54042519 -5.2298569e-19)
(1.3759494 0.12771463 8.0388611e-19)
(1.5332599 0.04046984 0)
(1.574378 0.13268855 5.3332725e-19)
(1.4085035 0.15784774 -1.2042647e-18)
(1.4554691 -0.0017763528 6.0490926e-19)
(1.4589716 -0.080876889 -1.2689425e-18)
(1.4036022 -0.090502295 0)
(1.3830146 -0.1353292 -2.5716583e-19)
(1.5245082 -0.10853002 6.2433453e-19)
(1.4566518 -0.18575618 -3.1600825e-19)
(1.3891486 -0.16640806 2.4266276e-19)
(-0.010503999 2.1829504 0)
(-0.0027152959 2.139577 0)
(-0.013053093 2.1885425 0)
(-0.014254439 2.1888746 0)
(0.057744637 2.167967 1.921608e-20)
(0.071411624 2.1847364 5.6398479e-21)
(0.11898924 2.1434796 -4.8162753e-20)
(0.1169039 2.1755656 -7.4668583e-21)
(0.013177023 2.1284213 -8.5769179e-20)
(0.019478418 2.132337 6.4925999e-20)
(0.038486841 2.1640065 -1.9203277e-20)
(0.01376399 2.1724849 4.9757011e-21)
(-0.0019038853 2.1530404 -1.0732032e-21)
(-0.0037598603 2.140904 -8.5978362e-21)
(0.086104703 2.0898425 -2.4357739e-19)
(0.091552549 2.0770106 0)
(0.11278807 2.0775226 1.4158852e-19)
(0.12263696 2.1041843 9.5257399e-20)
(0.16741433 2.031034 -1.055082e-19)
(0.12446655 1.9643882 0)
(0.15291979 1.9524771 -7.1887e-19)
(0.18139277 1.9626783 5.1258189e-19)
(0.15527426 2.0526885 -2.8295164e-19)
(0.12098779 2.0437702 1.6306251e-19)
(0.089927287 1.9985824 0)
(0.024941798 2.104406 -1.8307442e-19)
(0.019891394 2.1031526 -2.1491624e-19)
(0.024922413 2.11136 0)
(0.015700015 2.0964941 -6.5785868e-21)
(0.020898488 2.0922775 9.1178638e-20)
(0.0035685524 2.1263453 7.9332456e-21)
(0.0061708359 2.1348246 -1.3410361e-19)
(0.0026237295 2.1172711 3.555625e-20)
(-0.0039812249 2.0881878 5.0978543e-20)
(0.0081851487 2.0999839 0)
(0.0030897011 2.128545 0)
(0.0023677436 2.1425358 3.6106551e-20)
(0.006009585 2.1367339 -1.1326776e-20)
(0.0064157706 2.1353479 0)
(0.0060201156 2.1492275 2.7851012e-20)
(0.001995591 2.142636 -5.5014706e-20)
(1.3478553 0.028003343 0)
(1.3538136 0.023939236 -8.947968e-20)
(1.3563265 0.026986083 -6.5238294e-19)
(1.3580114 0.0376171 0)
(1.3467536 0.034072874 0)
(1.3599339 0.013739976 -7.646249e-21)
(1.3707471 0.01072641 1.0237975e-18)
(1.3610184 0.008099743 1.2750649e-18)
(1.366546 -0.001563897 0)
(1.3649219 9.8932093e-05 0)
(1.3515379 0.022047664 6.5117127e-19)
(1.3525258 0.016468913 0)
(1.3643202 0.006844593 0)
(-0.0068974433 2.0842927 0)
(0.0020094664 2.0984476 2.3902061e-21)
(-0.0040133803 2.0814527 1.9108621e-20)
(0.0037549616 2.133627 0)
(-0.0038418273 2.1195863 2.1919147e-20)
(-0.0024558423 2.1342097 -1.1386988e-20)
(0.0016710358 2.1417006 0)
(0.38785983 2.055121 0)
(0.32312086 2.064375 -2.7188173e-19)
(0.3285808 2.0357108 0)
(0.4117892 2.0530316 1.5450979e-19)
(0.49467942 2.1044085 0)
(0.44958655 2.1059977 -4.3036933e-22)
(0.91110906 2.377585 -2.1756276e-20)
(0.94656011 1.9388347 -1.3328832e-18)
(1.0302515 1.8882797 1.2424798e-18)
(0.76393646 1.8605646 3.5818214e-19)
(0.74177951 2.0309218 0)
(0.80036786 2.0871547 0)
(0.87822421 1.8792454 0)
(0.81845827 1.7892669 -1.302518e-18)
(0.46815385 2.0772234 -6.9127312e-19)
(0.6586189 2.023224 -1.6825625e-19)
(0.58484453 2.1344622 1.341636e-19)
(0.52230721 1.886194 0)
(0.65677727 1.8730871 0)
(0.56795269 1.8613839 -4.1295861e-19)
(0.62489439 1.9626943 0)
(0.7484352 1.2569091 0)
(0.76632135 1.0717504 -1.464414e-19)
(0.77056467 1.1076835 -1.1719016e-20)
(0.63507975 1.1823903 0)
(0.69728356 1.2096596 1.9105671e-19)
(0.98263586 1.1521379 -1.0943523e-19)
(0.97317474 1.2719473 0)
(0.99017734 1.248251 1.607364e-19)
(0.83173046 1.2512097 0)
(0.84771367 1.1459547 0)
(1.0939082 2.9538992 -1.8780108e-20)
(1.0624982 3.1189207 -4.1482246e-20)
(0.78934188 2.8208249 -2.2450166e-20)
(0.69917004 2.7498143 -8.4449364e-20)
(1.1033603 2.7697111 0)
(0.97572431 2.7425144 1.0957836e-19)
(1.0961869 2.5051081 -5.0237587e-20)
(1.1001489 2.2802847 2.6102502e-21)
(0.31284117 2.1905022 0)
(0.35072525 1.6077171 4.8169613e-20)
(0.43408007 1.6403054 0)
(1.1509808 0.26114949 0)
(1.0952322 0.23846704 0)
(1.0465648 0.26143905 0)
(1.1442445 0.28722529 -9.1249699e-19)
(1.0771908 0.28582558 5.3944907e-19)
(1.2122762 0.070805971 -5.2920899e-19)
(1.2141885 0.1192327 0)
(1.1957349 0.13378473 2.3740464e-19)
(1.1747263 0.10420272 9.6439849e-19)
(1.1804258 0.07687588 -6.0892508e-19)
(1.36217 3.5743941 -4.5734113e-19)
(1.3345323 3.5386012 0)
(1.3870241 3.5085262 -9.4956589e-19)
(0.58311821 3.5782414 9.2710799e-19)
(0.85561933 3.1176431 -1.7093078e-19)
(0.7530255 1.1485329 6.568643e-19)
(0.7499343 1.043878 0)
(0.58232473 0.82232216 -2.2474916e-19)
(0.6381441 0.99242402 1.0852882e-18)
(0.59948534 0.81088724 -3.2743469e-19)
(0.6424546 0.77191421 3.5648161e-19)
(0.80078655 0.70929956 7.4037736e-19)
(0.86380671 0.71241268 0)
(0.77251017 0.85400775 0)
(0.71580584 0.80570694 0)
(1.2068034 0.76501304 9.402357e-20)
(1.1133026 0.70025898 -6.9816917e-19)
(1.1229237 0.74572235 5.2826426e-19)
(1.163525 0.67103369 -5.4334246e-19)
(1.3149344 0.64717181 0)
(1.3326576 0.71752172 -1.261343e-19)
(1.038603 0.51993418 -1.2203354e-18)
(1.0609335 0.5039716 -1.4666057e-18)
(0.99994029 0.50528157 9.507625e-19)
(0.99899081 0.47426108 -9.7761344e-19)
(1.0765094 0.41841245 -7.5764718e-19)
(1.0267378 0.423273 9.4039414e-19)
(1.4167286 0.012537977 -6.5167526e-19)
(1.4109267 0.0084115963 1.3218381e-18)
(1.3791588 0.08457639 7.8939744e-19)
(1.3620749 0.065728179 -9.421179e-19)
(1.3438668 0.037283193 0)
(1.384741 0.021288866 -1.6515879e-18)
(0.050820207 2.1190185 3.3494767e-20)
(0.041323888 2.1315097 0)
(0.087402503 2.1036546 3.1379334e-19)
(0.1043616 2.1160442 -2.8017664e-19)
(0.098357764 2.1370504 8.4935009e-20)
(0.075509953 2.1442594 0)
(-0.0072302121 2.090592 0)
(-0.005622299 2.1134951 -1.3436984e-20)
(-0.0031324081 2.1227773 1.2168638e-20)
(-0.0048331062 2.1182239 5.2841911e-21)
(-0.0069488102 2.0880997 -2.380753e-20)
(-0.0046073359 2.0932774 1.5079908e-20)
(0.35190592 2.136776 -5.0415534e-19)
(0.38363163 2.1172533 5.2659888e-19)
(0.40802328 2.021514 -1.2613307e-19)
(0.40496345 2.0791501 2.5020517e-20)
(0.60505686 1.7816435 0)
(0.52082743 1.9941687 2.0063701e-19)
(0.6070841 1.9354204 -1.9708021e-19)
(0.40473731 1.9741613 1.255282e-19)
(0.41130758 1.9078596 0)
(0.44416892 1.7793837 0)
(0.45536523 1.9895789 1.0286611e-18)
(0.50324677 1.911332 1.613951e-18)
(0.55243331 1.9518266 -1.1426797e-18)
(0.42957214 1.925234 -2.0479492e-19)
(0.37467715 1.9732743 3.5287474e-19)
(0.31475878 1.9252826 -8.8303249e-19)