/*--------------------------------*- C++ -*----------------------------------*\
  =========                 |
  \\      /  F ield         | OpenFOAM: The Open Source CFD Toolbox
   \\    /   O peration     | Website:  https://openfoam.org
    \\  /    A nd           | Version:  9
     \\/     M anipulation  |
\*---------------------------------------------------------------------------*/
FoamFile
{
    format      ascii;
    class       surfaceScalarField;
    location    "0.15";
    object      alphaPhi0.phase1;
}
// * * * * * * * * * * * * * * * * * * * * * * * * * * * * * * * * * * * * * //

dimensions      [0 3 -1 0 0 0 0];

internalField   nonuniform List<scalar> 
19800
(
-3.3765722e-118
1.7371462e-118
-7.5452397e-118
2.7372169e-118
-3.881176e-115
1.7909741e-115
-1.3027159e-112
6.0157592e-113
-3.4656753e-110
1.5957412e-110
-7.5905407e-108
3.4754096e-108
-1.4065571e-105
6.3965835e-106
-2.2503613e-103
1.0161268e-103
-3.1571811e-101
1.4157001e-101
-3.9320948e-99
1.7516194e-99
-4.3895853e-97
1.9440589e-97
-4.4269588e-95
1.9507747e-95
-4.0594825e-93
1.7814569e-93
-3.401897e-91
1.4886947e-91
-2.6159558e-89
1.1432507e-89
-1.8519305e-87
8.0947846e-88
-1.2097061e-85
5.300811e-86
-7.2986223e-84
3.2159722e-84
-4.0663664e-82
1.809323e-82
-2.0873102e-80
9.4372553e-81
-9.8115536e-79
4.5529724e-79
-4.1675061e-77
2.0190662e-77
-1.5522411e-75
8.1172504e-76
-4.675222e-74
2.866703e-74
-8.0459259e-73
8.1927629e-73
2.3417861e-71
1.3757457e-71
3.1944591e-69
-7.5487858e-70
2.3685872e-67
-1.427981e-67
1.5681987e-65
-1.0485449e-65
9.6057607e-64
-6.5929595e-64
5.5223226e-62
-3.8764996e-62
2.906803e-60
-2.085455e-60
1.3708956e-58
-1.0100498e-58
5.7192954e-57
-4.3415231e-57
2.1185777e-55
-1.6867209e-55
6.9132204e-54
-5.8445402e-54
1.9663687e-52
-1.7911072e-52
4.8216003e-51
-4.7964949e-51
1.0070689e-49
-1.1077596e-49
1.7705391e-48
-2.1871664e-48
2.5372738e-47
-3.5575912e-47
2.9108289e-46
-4.7176059e-46
2.6796898e-45
-5.0971874e-45
1.9500033e-44
-4.4150072e-44
1.0534256e-43
-2.8788316e-43
4.0178392e-43
-1.2992091e-42
1.1222877e-42
-4.1778667e-42
2.3076046e-42
-1.1183428e-41
2.9006674e-42
-2.6527963e-41
5.0368384e-43
-4.9524623e-41
-2.196137e-42
-4.9258825e-41
-1.9901248e-42
-2.6262395e-41
-9.9311901e-43
-1.0922402e-41
-3.4425473e-43
-3.9789114e-42
-8.0803436e-44
-1.1807228e-42
-1.06599e-44
-2.2888737e-43
-6.6270266e-46
-2.3420652e-44
-1.7139387e-47
-1.1587152e-45
-1.7707635e-49
-2.46577e-47
-9.9630578e-52
-2.2574248e-49
-1.2398308e-54
-9.6199309e-52
-9.5874754e-58
-9.8839374e-55
-9.7963609e-61
-5.5403021e-58
-1.3007121e-62
-6.3339311e-61
-9.0388888e-64
-7.66115e-63
-7.8419844e-66
-3.2614305e-64
-7.6133886e-67
-2.6427972e-66
-6.6336059e-67
-4.2253843e-67
-5.6632468e-67
-3.512694e-67
-3.5479209e-67
-2.9062618e-67
-5.2572853e-68
-1.5081042e-67
-1.1744045e-69
-3.0849883e-68
-9.0798775e-72
-2.0794075e-69
-9.2527049e-74
-5.9600839e-72
9.6460676e-77
2.173434e-74
5.8380625e-77
1.410587e-75
2.4844319e-78
5.3468813e-77
7.4244537e-80
1.6003341e-78
1.8761438e-81
4.1567878e-80
4.2085852e-83
9.7212578e-82
8.5456941e-85
2.0784905e-83
1.5862509e-86
4.091311e-85
2.7032936e-88
7.4366067e-87
4.2368809e-90
1.2495439e-88
6.1062184e-92
1.9400917e-90
8.0794679e-94
2.7798535e-92
9.786981e-96
3.665939e-94
1.0816325e-97
4.4360371e-96
1.0854253e-99
4.9055944e-98
9.8296494e-102
4.9317382e-100
7.9730219e-104
4.4787405e-102
5.7380172e-106
3.6460483e-104
3.6194698e-108
2.6344139e-106
1.9705751e-110
1.6688661e-108
9.0763249e-113
9.1232373e-111
3.4413848e-115
4.213919e-113
1.0342655e-117
1.5981583e-115
2.0339993e-120
4.786058e-118
9.1276002e-121
7.4302051e-121
4.7003228e-121
-3.7467462e-118
2.0395237e-118
-4.9309109e-116
4.3712533e-116
-3.1048278e-113
2.7442952e-113
-1.3044594e-110
1.1923756e-110
-3.9981353e-108
3.6875361e-108
-9.6725186e-106
8.9097424e-106
-1.9329469e-103
1.7690055e-103
-3.2871936e-101
2.980108e-101
-4.8583942e-99
4.3545129e-99
-6.3387478e-97
5.6084156e-97
-7.3867607e-95
6.4439226e-95
-7.7622165e-93
6.6677895e-93
-7.4108052e-91
6.260114e-91
-6.4669411e-89
5.3641786e-89
-5.18344e-87
4.2142759e-87
-3.8318546e-85
3.0463774e-85
-2.6203216e-83
2.0312112e-83
-1.6609677e-81
1.2505486e-81
-9.7707903e-80
7.1075548e-80
-5.3335486e-78
3.7193306e-78
-2.6959605e-76
1.779508e-76
-1.2560077e-74
7.6712951e-75
-5.3407083e-73
2.8795184e-73
-2.0221149e-71
8.536631e-72
-6.4885573e-70
1.1783276e-70
-1.5314533e-68
-8.2915287e-69
6.1501355e-68
-1.0817962e-66
3.6920141e-65
-8.0214624e-65
3.2882714e-63
-4.9112009e-63
2.2820103e-61
-2.8219531e-61
1.4031177e-59
-1.5506906e-59
7.7024315e-58
-7.9411489e-58
3.7305988e-56
-3.6901458e-56
1.5860562e-54
-1.5238759e-54
5.9258485e-53
-5.6673956e-53
1.9382779e-51
-1.8820854e-51
5.5077893e-50
-5.5294923e-50
1.346185e-48
-1.4217116e-48
2.7936102e-47
-3.158097e-47
4.8105151e-46
-5.9715587e-46
6.7616048e-45
-9.3936463e-45
7.6923054e-44
-1.2172057e-43
6.9067794e-43
-1.2723539e-42
4.7629926e-42
-1.0597141e-41
2.3173489e-41
-6.59061e-41
6.9055743e-41
-2.7223032e-40
1.2169469e-40
-7.1316472e-40
1.5082314e-40
-1.3738681e-39
1.4462479e-40
-2.5773828e-39
2.4862407e-41
-4.055808e-39
-1.0529549e-40
-4.0457868e-39
-1.306017e-40
-2.5619952e-39
-1.0982491e-40
-1.3626626e-39
-6.2791839e-41
-6.8926895e-40
-1.937539e-41
-2.5449642e-40
-2.7553343e-42
-5.4237677e-41
-1.816535e-43
-5.8037109e-42
-5.1483805e-45
-3.0846257e-43
-6.5411634e-47
-7.3752968e-45
-3.3415392e-49
-8.1916157e-47
-4.9657937e-52
-3.8295547e-49
-3.4843102e-55
-5.0557193e-52
-7.4710285e-58
-3.2497994e-55
-9.8260347e-60
-6.2769912e-58
-1.2176521e-61
-8.0869466e-60
-6.0989449e-64
-1.0084742e-61
-2.9232027e-66
-5.0901423e-64
-5.9155526e-67
-2.4775159e-66
-4.0188498e-66
-5.2856084e-67
-3.0301105e-65
-5.9520708e-65
-1.3550556e-65
-7.8968654e-65
-6.8708175e-67
-1.9222903e-65
-3.06023e-69
-7.2035694e-67
1.5164461e-71
-4.5850082e-69
6.8741826e-73
-1.8625659e-71
3.2680925e-74
2.2349331e-73
1.0448378e-75
1.8165272e-74
2.6343376e-77
6.4542394e-76
5.9185645e-79
1.7797097e-77
1.2186797e-80
4.251491e-79
2.3097567e-82
9.1231426e-81
4.0406126e-84
1.7846081e-82
6.5331868e-86
3.2047607e-84
9.7595759e-88
5.2998589e-86
1.3450104e-89
8.0762005e-88
1.7058273e-91
1.1331242e-89
1.9836693e-93
1.4606974e-91
2.10566e-95
1.7242379e-93
2.028506e-97
1.8554409e-95
1.760561e-99
1.8100208e-97
1.3638861e-101
1.588954e-99
9.322226e-104
1.2435373e-101
5.535134e-106
8.5744031e-104
2.7959511e-108
5.1261442e-106
1.1664185e-110
2.5997419e-108
3.8403102e-113
1.0833713e-110
9.2432818e-116
3.5271502e-113
1.5197898e-118
8.2167082e-116
1.0276955e-120
1.3815136e-118
5.6062054e-121
-1.0762957e-116
1.4770126e-116
-6.8586549e-114
6.0670138e-114
-4.0505965e-111
3.8705513e-111
-1.7321287e-108
1.6302589e-108
-5.8167908e-106
5.3772385e-106
-1.5165722e-103
1.4072342e-103
-3.1899144e-101
2.9414224e-101
-5.6396104e-99
5.1391125e-99
-8.6031161e-97
7.7177038e-97
-1.1534748e-94
1.0156227e-94
-1.3778202e-92
1.1873114e-92
-1.4817002e-90
1.2459047e-90
-1.4464016e-88
1.1829471e-88
-1.2900629e-86
1.0223584e-86
-1.0569464e-84
8.0784444e-85
-7.9881205e-83
5.8539947e-83
-5.5881288e-81
3.8978745e-81
-3.6272631e-79
2.3839546e-79
-2.1882431e-77
1.3359097e-77
-1.2276199e-75
6.8119974e-76
-6.4006406e-74
3.1135281e-74
-3.093462e-72
1.2320505e-72
-1.3741185e-70
3.8301251e-71
-5.5996074e-69
5.53414e-70
-1.987687e-67
-5.1652199e-68
-5.6517746e-66
-5.8725344e-66
-8.5091838e-65
-4.3059673e-64
4.2239203e-63
-2.6647104e-62
5.7787094e-61
-1.5137865e-60
4.4576965e-59
-8.2417982e-59
2.8640341e-57
-4.3289519e-57
1.6113978e-55
-2.1370172e-55
7.9090808e-54
-9.6286258e-54
3.4275708e-52
-3.9035324e-52
1.2824453e-50
-1.3893386e-50
4.1762267e-49
-4.4375946e-49
1.1758274e-47
-1.2522009e-47
2.8360044e-46
-3.0908002e-46
5.7852922e-45
-6.5940095e-45
9.8037959e-44
-1.1976098e-43
1.3547707e-42
-1.816545e-42
1.4914954e-41
-2.2660265e-41
1.3045744e-40
-2.3055993e-40
8.855055e-40
-1.8770976e-39
4.2639783e-39
-1.146691e-38
1.27914e-38
-4.7373097e-38
2.2949253e-38
-1.2587474e-37
2.8727586e-38
-2.45002e-37
2.7744546e-38
-4.5640047e-37
5.6864118e-39
-7.3943415e-37
-1.8986042e-38
-7.3684816e-37
-2.4199502e-38
-4.5237819e-37
-2.0404085e-38
-2.4177484e-37
-1.15441e-38
-1.2099115e-37
-3.5744746e-39
-4.4037353e-38
-5.2774263e-40
-9.4269256e-39
-3.7638357e-41
-1.0491781e-39
-1.2109923e-42
-6.0437516e-41
-1.8050712e-44
-1.6544367e-42
-1.1042612e-46
-2.1942496e-44
-2.3196319e-49
-1.1819597e-46
-2.5684252e-52
-2.5153936e-49
-7.2199063e-55
-2.5710472e-52
-1.0283311e-56
-6.9050639e-55
-1.3843038e-58
-1.0172542e-56
-7.3202922e-61
-1.5720641e-58
-3.0545083e-63
-7.7151536e-61
-3.6140566e-65
-3.2692357e-63
-2.52817e-62
-9.1886531e-65
-1.897243e-62
-8.950587e-62
-3.9636594e-63
-5.7950189e-62
-5.8586603e-65
-7.7158316e-63
-4.8402073e-68
-1.5288873e-64
5.7526606e-69
-1.1243332e-66
2.8401199e-70
-1.2207831e-68
1.0590882e-71
-1.1839837e-70
2.9309745e-73
1.0517208e-72
7.037861e-75
8.7550283e-74
1.5286777e-76
2.9935549e-75
3.0575806e-78
7.8958865e-77
5.6491425e-80
1.7889084e-78
9.6537201e-82
3.6129168e-80
1.52684e-83
6.6115594e-82
2.2330244e-85
1.1047088e-83
3.0146353e-87
1.6909518e-85
3.7455255e-89
2.3726881e-87
4.2665413e-91
3.0475849e-89
4.4336788e-93
3.5732288e-91
4.1773852e-95
3.8084118e-93
3.5398669e-97
3.6681898e-95
2.6704107e-99
3.1682917e-97
1.7694726e-101
2.429322e-99
1.0111441e-103
1.6310935e-101
4.8543592e-106
9.4097151e-104
1.8792792e-108
4.5351123e-106
5.7858519e-111
1.7449313e-108
1.4772191e-113
5.6274081e-111
2.6051722e-116
1.4012685e-113
4.0004362e-119
2.2930956e-116
5.2356072e-119
-1.6279051e-114
2.8165225e-114
-8.0993004e-112
6.8762922e-112
-5.262436e-109
4.9355918e-109
-2.1735635e-106
2.1173408e-106
-6.7042478e-104
6.624786e-104
-1.7859155e-101
1.6827985e-101
-4.0160544e-99
3.7219899e-99
-7.4981102e-97
6.8654232e-97
-1.1927333e-94
1.0720314e-94
-1.6554072e-92
1.4531942e-92
-2.038136e-90
1.7394881e-90
-2.2530557e-88
1.8606113e-88
-2.2569999e-86
1.7941135e-86
-2.063789e-84
1.5695691e-84
-1.7326596e-82
1.2513686e-82
-1.3419829e-80
9.1172973e-81
-9.6219243e-79
6.0738835e-79
-6.405211e-77
3.6937197e-77
-3.9664746e-75
2.0379477e-75
-2.2874477e-73
1.0063563e-73
-1.2285623e-71
4.3127623e-72
-6.1215288e-70
1.4721422e-70
-2.8303735e-68
2.6691114e-69
-1.2077027e-66
-1.4546469e-67
-4.7221104e-65
-2.1946372e-65
-1.5967827e-63
-1.7334713e-63
-4.1887752e-62
-1.1146819e-61
-3.4715157e-61
-6.4804891e-60
5.8456936e-59
-3.5229639e-58
6.1822436e-57
-1.8590285e-56
4.4236008e-55
-9.4719876e-55
2.6449591e-53
-4.5632762e-53
1.343986e-51
-2.0014037e-51
5.8493979e-50
-7.8642054e-50
2.1979879e-48
-2.7149822e-48
7.1480992e-47
-8.3755466e-47
1.9990017e-45
-2.2741196e-45
4.7670952e-44
-5.3897551e-44
9.578732e-43
-1.1032619e-42
1.5950844e-41
-1.9227743e-41
2.158947e-40
-2.8032824e-40
2.3315392e-39
-3.3665634e-39
1.98128e-38
-3.3015855e-38
1.2998087e-37
-2.6088757e-37
6.1751065e-37
-1.5706686e-36
1.8540232e-36
-6.4499835e-36
3.3506875e-36
-1.7200436e-35
4.2084326e-36
-3.3508602e-35
4.0987551e-36
-6.1695694e-35
9.9298805e-37
-1.0163092e-34
-2.5924493e-36
-1.0114349e-34
-3.4210576e-36
-6.0918492e-35
-2.921916e-36
-3.2854097e-35
-1.65685e-36
-1.6406252e-35
-5.1968996e-37
-5.9385593e-36
-8.0046354e-38
-1.2846815e-36
-6.1940449e-39
-1.4908682e-37
-2.2699335e-40
-9.3444545e-39
-3.9610116e-42
-2.9322038e-40
-2.8025652e-44
-4.6118502e-42
-8.8528455e-47
-3.0437568e-44
-1.6215954e-49
-9.3669557e-47
-6.9960177e-52
-1.9572366e-49
-1.079064e-53
-9.5066895e-52
-1.5642405e-55
-1.1375083e-53
-8.0818079e-58
-1.6666485e-55
-3.439969e-60
-1.0862662e-57
-2.5562426e-62
-4.5575056e-60
-9.9998885e-60
-7.5229584e-62
-6.4282005e-60
-1.1682659e-58
-7.136477e-61
-2.4989714e-59
-3.5593655e-63
-2.8498291e-60
9.7808975e-65
-4.4206587e-62
2.0529861e-66
-3.0531536e-64
8.2730157e-68
-3.9331703e-66
2.642748e-69
-5.4029124e-68
6.8114404e-71
-4.2829338e-70
1.5585361e-72
5.7811312e-72
3.2812831e-74
3.8185672e-73
6.3663684e-76
1.1898569e-74
1.1438317e-77
2.8971207e-76
1.9044334e-79
6.0697239e-78
2.9378995e-81
1.1318062e-79
4.1943775e-83
1.9067638e-81
5.5284257e-85
2.9230408e-83
6.7065079e-87
4.0865658e-85
7.4557019e-89
5.2097073e-87
7.5545981e-91
6.0419134e-89
6.9276945e-93
6.3473792e-91
5.6984446e-95
6.0038511e-93
4.1546031e-97
5.0691108e-95
2.6409372e-99
3.7757389e-97
1.4294687e-101
2.4396698e-99
6.4097595e-104
1.3338196e-101
2.5005306e-106
6.0591054e-104
9.0116063e-109
2.5714196e-106
2.2694711e-111
8.6891084e-109
3.6353033e-114
2.1007613e-111
6.8189381e-117
3.1339809e-114
1.1006834e-116
-2.213474e-112
4.5149475e-112
-7.7553012e-110
6.1966478e-110
-5.6666557e-107
5.3328598e-107
-2.4906134e-104
2.422949e-104
-7.9637122e-102
7.7956352e-102
-1.9796075e-99
1.9571853e-99
-4.1307537e-97
4.0450909e-97
-8.0035653e-95
7.3496853e-95
-1.3505766e-92
1.2162259e-92
-1.9614395e-90
1.7186009e-90
-2.5081739e-88
2.124492e-88
-2.866847e-86
2.3317268e-86
-2.9611386e-84
2.2959922e-84
-2.7869207e-82
2.0428502e-82
-2.4056388e-80
1.650114e-80
-1.9140918e-78
1.2127856e-78
-1.4094684e-76
8.1073096e-77
-9.6359364e-75
4.9108106e-75
-6.1308552e-73
2.66737e-73
-3.6345093e-71
1.2677271e-71
-2.0072167e-69
4.9673575e-70
-1.0311728e-67
1.2800169e-68
-4.9669288e-66
-1.7415636e-67
-2.2189826e-64
-5.7310374e-65
-9.0821345e-63
-5.2735527e-63
-3.3275369e-61
-3.6855454e-61
-1.0326068e-59
-2.2427248e-59
-2.1936883e-58
-1.258267e-57
2.2645045e-57
-6.6764538e-56
6.7814867e-55
-3.4334519e-54
5.7148628e-53
-1.7078453e-52
3.6393333e-51
-8.0382157e-51
1.9134364e-49
-3.4473611e-49
8.4541029e-48
-1.3156873e-47
3.2103575e-46
-4.4301258e-46
1.0429923e-44
-1.3181105e-44
2.8940053e-43
-3.4400669e-43
6.8124486e-42
-7.8134924e-42
1.345471e-40
-1.5299192e-40
2.1941347e-39
-2.5490886e-39
2.8965907e-38
-3.5555109e-38
3.0391771e-37
-4.0907708e-37
2.507564e-36
-3.8550306e-36
1.5984778e-35
-2.9443135e-35
7.3392657e-35
-1.7298669e-34
2.1695786e-34
-7.0655299e-34
3.9285935e-34
-1.8891739e-33
4.9126912e-34
-3.6639973e-33
4.8146091e-34
-6.6654953e-33
1.4165073e-34
-1.110123e-32
-2.6917429e-34
-1.1029318e-32
-3.7906039e-34
-6.5476518e-33
-3.3371807e-34
-3.5591487e-33
-1.9242887e-34
-1.7782198e-33
-6.1910617e-35
-6.4238013e-34
-1.0016481e-35
-1.4085788e-34
-8.4691238e-37
-1.7054815e-35
-3.5442879e-38
-1.1679826e-36
-7.1706011e-40
-4.2218724e-38
-6.2673356e-42
-7.8113878e-40
-2.5919888e-44
-6.6063107e-42
-8.5601868e-47
-2.658971e-44
-6.6445188e-49
-9.1430922e-47
-9.5915942e-51
-7.6305213e-49
-1.1764766e-52
-1.4480838e-50
-7.6084129e-55
-1.5553083e-52
-3.3786536e-57
-1.0673491e-54
-1.8898959e-59
-5.3430083e-57
-1.9445595e-57
-6.8400224e-59
-1.1755566e-57
-8.5384334e-56
-9.9647647e-59
-6.9238304e-57
3.1656248e-60
-8.8126049e-58
3.4523556e-62
-1.3037933e-59
5.0793309e-64
-7.7449438e-62
1.8878897e-65
-9.9684271e-64
5.6566084e-67
-1.5101736e-65
1.3675267e-68
-1.8071425e-67
2.9838794e-70
-8.336298e-70
6.0745174e-72
3.4177519e-71
1.1458953e-73
1.4997055e-72
2.0019573e-75
4.0479884e-74
3.24415e-77
8.8629193e-76
4.874368e-79
1.6845822e-77
6.7790413e-81
2.8570928e-79
8.7017828e-83
4.3740107e-81
1.0274405e-84
6.0730888e-83
1.1105197e-86
7.6533797e-85
1.0919794e-88
8.738508e-87
9.6904775e-91
9.0006591e-89
7.6777809e-93
8.3053112e-91
5.3508789e-95
6.7961388e-93
3.2071984e-97
4.8586671e-95
1.6713329e-99
2.9634964e-97
8.3752471e-102
1.6429805e-99
3.784961e-104
8.6456493e-102
1.2317715e-106
3.6647356e-104
2.8691856e-109
1.1766785e-106
4.2536587e-112
2.7069255e-109
1.0359693e-114
3.5589903e-112
1.9585348e-114
-2.7347623e-110
6.2350586e-110
-6.0108454e-108
4.1256895e-108
-5.2233969e-105
4.9010536e-105
-2.4310367e-102
2.4019999e-102
-8.0606134e-100
8.0049194e-100
-2.1086309e-97
2.0609636e-97
-4.4043187e-95
4.3224749e-95
-7.5961341e-93
7.5269528e-93
-1.2694761e-90
1.1572678e-90
-1.9477255e-88
1.7066419e-88
-2.6170241e-86
2.207007e-86
-3.1176442e-84
2.508696e-84
-3.340084e-82
2.5409605e-82
-3.2506141e-80
2.3134048e-80
-2.8951973e-78
1.9031754e-78
-2.3735811e-76
1.4178856e-76
-1.7993011e-74
9.5534679e-75
-1.2653146e-72
5.7834938e-73
-8.2756134e-71
3.0971153e-71
-5.0431751e-69
1.4128049e-69
-2.8570625e-67
4.9013762e-68
-1.5178398e-65
6.2759175e-67
-7.5491004e-64
-9.4859148e-65
-3.485972e-62
-1.1979946e-62
-1.4798892e-60
-9.5602952e-61
-5.7269838e-59
-6.3036317e-59
-1.9558044e-57
-3.733323e-57
-5.3272096e-56
-2.055446e-55
-6.4871905e-55
-1.0723656e-53
5.485007e-53
-5.4005107e-52
6.3041269e-51
-2.6283767e-50
4.3855014e-49
-1.2104206e-48
2.3971215e-47
-5.079914e-47
1.0815896e-45
-1.8904492e-45
4.1204908e-44
-6.1833026e-44
1.3340115e-42
-1.7761629e-42
3.6642618e-41
-4.4482738e-41
8.4922692e-40
-9.6509279e-40
1.6440089e-38
-1.7994705e-38
2.6165074e-37
-2.8499499e-37
3.3546608e-36
-3.7776334e-36
3.4010926e-35
-4.1362772e-35
2.7017716e-34
-3.7249048e-34
1.6600775e-33
-2.7407547e-33
7.4245515e-33
-1.5710652e-32
2.1434927e-32
-6.3429781e-32
3.7946927e-32
-1.6959196e-31
4.7214698e-32
-3.2915653e-31
4.6743251e-32
-5.9205988e-31
1.6811319e-32
-9.937128e-31
-2.1751844e-32
-9.8505331e-31
-3.378291e-32
-5.7762996e-31
-3.0896781e-32
-3.1585841e-31
-1.8479561e-32
-1.5715628e-31
-6.1789983e-33
-5.6669198e-32
-1.0577346e-33
-1.2599711e-32
-9.8398439e-35
-1.5913351e-33
-4.723487e-36
-1.1962342e-34
-1.0973461e-37
-5.0077455e-36
-1.1786535e-39
-1.0790851e-37
-6.2147862e-42
-1.1293859e-39
-2.8978064e-44
-5.9399381e-42
-3.448257e-46
-2.9051939e-44
-8.2978433e-48
-3.6982347e-46
-8.640893e-50
-1.0564551e-47
-5.0664352e-52
-1.1630664e-49
-2.8666849e-54
-7.7590112e-52
-1.5401652e-56
-5.3094418e-54
-2.1362749e-56
-7.1363258e-56
-1.3864297e-55
-1.8103132e-55
-4.0821716e-57
-1.3215582e-54
1.9116806e-57
-1.6729765e-55
8.0998791e-60
-2.1427938e-57
1.0677597e-61
-1.3566939e-59
3.729777e-63
-1.9221833e-61
1.0544725e-64
-3.1130494e-63
2.4383361e-66
-4.2621639e-65
5.1167436e-68
-3.8308308e-67
1.0032536e-69
1.2108701e-69
1.8416963e-71
1.6344879e-70
3.1252714e-73
5.1029227e-72
4.9222731e-75
1.1721187e-73
7.1871646e-77
2.2671309e-75
9.7073748e-79
3.854783e-77
1.2093509e-80
5.8636464e-79
1.3838853e-82
8.0406503e-81
1.4467317e-84
9.9593058e-83
1.3717231e-86
1.1122118e-84
1.1680729e-88
1.1144187e-86
8.8085137e-91
9.9347837e-89
5.791065e-93
7.7733051e-91
3.4776039e-95
5.2854529e-93
2.1343132e-97
3.4764733e-95
1.1627632e-99
2.1945091e-97
4.6443317e-102
1.1237559e-99
1.4191343e-104
4.5066602e-102
3.1977192e-107
1.3975099e-104
4.2221967e-110
3.0355959e-107
1.420711e-112
3.286988e-110
3.0300983e-112
-3.1215435e-108
7.5500007e-108
-3.8600731e-106
2.3186937e-106
-4.0986851e-103
3.7844196e-103
-2.0679237e-100
2.0669896e-100
-7.101119e-98
7.2116571e-98
-1.8955493e-95
1.9058114e-95
-4.1984731e-93
4.0998669e-93
-7.6798411e-91
7.4138901e-91
-1.1595627e-88
1.1292844e-88
-1.663377e-86
1.5123305e-86
-2.3215227e-84
1.9561283e-84
-2.9196643e-82
2.3371706e-82
-3.2723712e-80
2.4598689e-80
-3.3142004e-78
2.3105933e-78
-3.0610956e-76
1.9496123e-76
-2.5960421e-74
1.4816117e-74
-2.0318668e-72
1.0120585e-72
-1.473209e-70
6.1599057e-71
-9.9219848e-69
3.2699371e-69
-6.2149999e-67
1.432176e-67
-3.6175222e-65
4.2491764e-66
-1.9801486e-63
-3.1740531e-65
-1.0132017e-61
-1.8588242e-62
-4.8163214e-60
-1.8891737e-60
-2.1059098e-58
-1.4265223e-58
-8.4653901e-57
-9.1314141e-57
-3.064673e-55
-5.3343655e-55
-9.3974069e-54
-2.9066802e-53
-1.9395934e-52
-1.4989365e-51
2.2661322e-51
-7.4080861e-50
6.0212874e-49
-3.5358842e-48
4.7269776e-47
-1.5936825e-46
2.7013585e-45
-6.5485582e-45
1.2413635e-43
-2.3768869e-43
4.7478313e-42
-7.550178e-42
1.5276637e-40
-2.0893269e-40
4.140695e-39
-5.0060509e-39
9.4197111e-38
-1.0331238e-37
1.7814579e-36
-1.8228362e-36
2.7565347e-35
-2.721808e-35
3.4165347e-34
-3.3958333e-34
3.3263618e-33
-3.5036523e-33
2.5235609e-32
-2.9914667e-32
1.4795748e-31
-2.1124663e-31
6.3546721e-31
-1.1813563e-30
1.7811331e-30
-4.7273552e-30
3.0920406e-30
-1.2692663e-29
3.7829951e-30
-2.4739896e-29
3.7955006e-30
-4.4269401e-29
1.6880704e-30
-7.4720991e-29
-1.2998087e-30
-7.3824785e-29
-2.4271045e-30
-4.2759099e-29
-2.3883558e-30
-2.3331398e-29
-1.4874065e-30
-1.1518494e-29
-5.2096007e-31
-4.1152348e-30
-9.5680854e-32
-9.1831852e-31
-9.8726473e-33
-1.210143e-31
-5.4381108e-34
-9.9896683e-33
-1.4343967e-35
-4.8246731e-34
-1.8279068e-37
-1.2045631e-35
-1.2564169e-39
-1.5371085e-37
-7.9437969e-42
-1.0935816e-39
-1.3898952e-43
-7.5424372e-42
-3.9896579e-45
-1.54906e-43
-5.0294149e-47
-5.2790445e-45
-2.8606699e-49
-8.1961469e-47
-2.1421895e-51
-4.7729611e-49
-2.2985413e-53
-4.5315649e-51
-1.5318003e-55
-6.5625255e-53
-1.4833817e-53
-1.0546531e-54
7.4832387e-54
-3.1648354e-52
4.0508894e-55
-3.3130825e-53
1.0724282e-57
-2.7823742e-55
1.845881e-59
-1.9760479e-57
6.446179e-61
-3.1672417e-59
1.7137826e-62
-5.3524269e-61
3.81091e-64
-7.6500608e-63
7.807507e-66
-8.4275521e-65
1.4857508e-67
-3.0152988e-67
2.6500949e-69
1.537328e-68
4.3799026e-71
5.8911975e-70
6.7021977e-73
1.4247662e-71
9.4959485e-75
2.7939124e-73
1.2427799e-76
4.7384603e-75
1.497306e-78
7.1242079e-77
1.6528245e-80
9.5920935e-79
1.660717e-82
1.1597249e-80
1.5053222e-84
1.2565191e-82
1.2142845e-86
1.2122935e-84
8.7902935e-89
1.0285064e-86
6.1728866e-91
8.0033839e-89
4.3128923e-93
6.0571318e-91
2.6761837e-95
4.3427101e-93
1.2882412e-97
2.6117589e-95
4.8857281e-100
1.2628569e-97
1.4653051e-102
4.9137467e-100
3.1172888e-105
1.4681237e-102
3.4285389e-108
2.9450437e-105
1.7938645e-110
2.2468837e-108
4.171233e-110
-3.231182e-106
8.0652458e-106
-2.1649739e-104
1.5430885e-104
-2.6987754e-101
2.3883447e-101
-1.5245689e-98
1.5385885e-98
-5.5164472e-96
5.7085292e-96
-1.5132705e-93
1.5624585e-93
-3.4016824e-91
3.4395859e-91
-6.5683235e-89
6.3798313e-89
-1.0759755e-86
1.0174656e-86
-1.4627437e-84
1.3846943e-84
-1.8543208e-82
1.6516916e-82
-2.3567376e-80
1.8991717e-80
-2.7886433e-78
2.0879803e-78
-2.9673507e-76
2.0469012e-76
-2.862038e-74
1.7880344e-74
-2.5242042e-72
1.3974654e-72
-2.0482731e-70
9.7540704e-71
-1.5359333e-68
6.0181144e-69
-1.0674152e-66
3.1951358e-67
-6.8800041e-65
1.3569321e-65
-4.1284493e-63
3.3750227e-64
-2.3235555e-61
-1.2501531e-62
-1.2201101e-59
-2.6669961e-60
-5.9409413e-58
-2.5023791e-58
-2.6721133e-56
-1.8357785e-56
-1.1053898e-54
-1.1646067e-54
-4.1651329e-53
-6.7565235e-53
-1.3683751e-51
-3.6608396e-51
-3.4174971e-50
-1.8709151e-49
-2.0488484e-49
-9.1070961e-48
5.0756688e-47
-4.251007e-46
4.661414e-45
-1.8703051e-44
2.7882393e-43
-7.5056425e-43
1.2982467e-41
-2.6511757e-41
4.9848687e-40
-8.1930632e-40
1.5882888e-38
-2.1758235e-38
4.2331942e-37
-4.9694837e-37
9.416378e-36
-9.6974205e-36
1.733514e-34
-1.6056049e-34
2.5970033e-33
-2.2318149e-33
3.0962365e-32
-2.5829565e-32
2.875526e-31
-2.4729705e-31
2.0646498e-30
-1.9771051e-30
1.1419758e-29
-1.3341552e-29
4.6214583e-29
-7.2797531e-29
1.2473734e-28
-2.9369413e-28
2.1019254e-28
-7.9760528e-28
2.5120498e-28
-1.5697865e-27
2.576989e-28
-2.8156412e-27
1.4488296e-28
-4.770966e-27
-4.3841212e-29
-4.6935857e-27
-1.3322331e-28
-2.682625e-27
-1.4831743e-28
-1.4461929e-27
-1.0034108e-28
-6.978153e-28
-3.7735153e-29
-2.4319002e-28
-7.4574244e-30
-5.3992432e-29
-8.6261914e-31
-7.2906086e-30
-5.4223461e-32
-6.6464316e-31
-1.6112451e-33
-3.7205406e-32
-2.4272213e-35
-1.0873302e-33
-2.2471114e-37
-1.7122371e-35
-1.9396813e-39
-1.6803915e-37
-5.1748804e-41
-1.7061792e-39
-1.5463305e-42
-5.83031e-41
-2.6329529e-44
-1.97734e-42
-1.4601529e-46
-4.0080729e-44
-1.421609e-48
-2.5808875e-46
-1.5381529e-50
-3.3694372e-48
-5.8224498e-53
-5.1713494e-50
-1.3664124e-51
-6.6504498e-52
3.6562329e-51
-8.4577209e-50
6.9405747e-53
-5.8329237e-51
1.2613801e-55
-3.1699187e-53
2.9589194e-57
-2.8266935e-55
1.0163036e-58
-4.8456123e-57
2.5196069e-60
-8.1899478e-59
5.4542982e-62
-1.1964159e-60
1.0860539e-63
-1.3957561e-62
2.0117775e-65
-8.6476523e-65
3.4790423e-67
1.2971899e-66
5.5896683e-69
6.4554668e-68
8.2908839e-71
1.629273e-69
1.1359685e-72
3.2083331e-71
1.434366e-74
5.3808434e-73
1.6621447e-76
7.9296916e-75
1.7572216e-78
1.0392628e-76
1.680689e-80
1.21474e-78
1.4362613e-82
1.2618767e-80
1.1313438e-84
1.1539916e-82
9.1001618e-87
1.0130362e-84
7.1253068e-89
8.7039764e-87
4.9284457e-91
6.9811693e-89
2.7643154e-93
4.8146659e-91
1.2471388e-95
2.7221869e-93
4.6294209e-98
1.2684798e-95
1.3398333e-100
4.7831304e-98
2.6232108e-103
1.359784e-100
2.4173039e-106
2.4381925e-103
2.1234301e-108
1.477378e-106
5.1691437e-108
-2.948958e-104
7.5780165e-104
-9.0941983e-103
8.3498255e-103
-1.4587966e-99
1.0569032e-99
-9.7493479e-97
9.8918374e-97
-3.7761549e-94
3.9890883e-94
-1.0796944e-91
1.1426733e-91
-2.4881952e-89
2.5955849e-89
-4.871273e-87
4.9254917e-87
-8.3891026e-85
8.0661897e-85
-1.2471525e-82
1.1538172e-82
-1.5615677e-80
1.4231604e-80
-1.8132262e-78
1.5464941e-78
-2.1007724e-76
1.6105102e-76
-2.3441848e-74
1.6159384e-74
-2.3859043e-72
1.481035e-72
-2.2045904e-70
1.2033225e-70
-1.8649852e-68
8.6675374e-69
-1.4523773e-66
5.4773266e-67
-1.0449575e-64
2.9470741e-65
-6.9487565e-63
1.2374532e-63
-4.2998415e-61
2.6539509e-62
-2.4889059e-59
-1.8344602e-60
-1.3403757e-57
-3.1484465e-58
-6.6841468e-56
-2.8746915e-56
-3.0733256e-54
-2.093966e-54
-1.3022155e-52
-1.3270309e-52
-5.0610841e-51
-7.6841361e-51
-1.7353017e-49
-4.1618108e-49
-4.7938938e-48
-2.1090772e-47
-6.4724548e-47
-1.0144989e-45
3.7135059e-45
-4.6157782e-44
4.2762505e-43
-1.9820032e-42
2.6877275e-41
-7.7573382e-41
1.2695524e-39
-2.6642584e-39
4.823424e-38
-7.9506755e-38
1.5132343e-36
-2.0260584e-36
3.9474965e-35
-4.3937858e-35
8.5481317e-34
-8.0383688e-34
1.5249763e-32
-1.2331917e-32
2.195928e-31
-1.5608811e-31
2.4988393e-30
-1.6344873e-30
2.2047029e-29
-1.4244491e-29
1.4877548e-28
-1.0413136e-28
7.6285421e-28
-6.5969058e-28
2.9061843e-27
-3.6063557e-27
7.3160997e-27
-1.4737316e-26
1.1622469e-26
-4.1028743e-26
1.3485476e-26
-8.1750732e-26
1.4338038e-26
-1.471495e-25
1.0680197e-26
-2.5478487e-25
1.8477933e-27
-2.4934615e-25
-4.6055804e-27
-1.3784831e-25
-6.9966116e-27
-7.2667651e-26
-5.5189147e-27
-3.3786697e-26
-2.3182755e-27
-1.1133274e-26
-5.0899725e-28
-2.355578e-27
-6.6370445e-29
-3.1854082e-28
-4.752512e-30
-3.2476425e-29
-1.5855404e-31
-2.1868365e-30
-2.841699e-33
-7.8120739e-32
-3.6645792e-35
-1.5831788e-33
-4.3541621e-37
-2.3853383e-35
-1.6530429e-38
-3.5985651e-37
-4.746135e-40
-1.7154136e-38
-9.6068064e-42
-5.8592083e-40
-6.7915887e-44
-1.4364204e-41
-8.4332575e-46
-1.2625929e-43
-8.9889121e-48
-2.1861616e-45
-3.0014561e-50
-3.4950075e-47
1.464815e-51
-4.6186496e-49
9.5792094e-49
-3.2115948e-47
8.7622355e-51
-1.672874e-48
1.5579813e-53
-4.3714037e-51
4.5400735e-55
-3.8875731e-53
1.4545913e-56
-6.7286746e-55
3.4199596e-58
-1.1319036e-56
7.1826863e-60
-1.6532481e-58
1.3924128e-61
-1.9601463e-60
2.5008833e-63
-1.4042108e-62
4.185702e-65
1.0669308e-64
6.5140801e-67
6.8729903e-66
9.3280762e-69
1.7702483e-67
1.2303883e-70
3.4487567e-69
1.4900532e-72
5.6549158e-71
1.6479744e-74
8.0824539e-73
1.6508202e-76
1.0195846e-74
1.5024255e-78
1.1362326e-76
1.3114326e-80
1.1488272e-78
1.152663e-82
1.1202906e-80
9.7440518e-85
1.0565107e-82
7.4219523e-87
9.3090235e-85
4.7456024e-89
7.2295641e-87
2.4678366e-91
4.6716145e-89
1.081385e-93
2.5235056e-91
3.9096418e-96
1.1398249e-93
1.0717699e-98
4.1319749e-96
1.8651001e-101
1.0993881e-98
1.4551459e-104
1.6586626e-101
2.2989213e-106
1.0589864e-104
5.7641119e-106
-2.3218785e-102
6.3755849e-102
-2.2894777e-101
3.1985967e-101
-5.7632556e-98
3.0037995e-98
-5.2337152e-95
5.2703961e-95
-2.2206496e-92
2.3971559e-92
-6.6915746e-90
7.2865861e-90
-1.6020086e-87
1.7230891e-87
-3.2147054e-85
3.3722796e-85
-5.6178633e-83
5.6582042e-83
-8.7825043e-81
8.3358748e-81
-1.2091166e-78
1.0870923e-78
-1.4294294e-76
1.2384862e-76
-1.5449386e-74
1.2477081e-74
-1.64795e-72
1.1858853e-72
-1.7445856e-70
1.0905015e-70
-1.7081632e-68
9.3426112e-69
-1.5191734e-66
7.0353249e-67
-1.2365485e-64
4.6138046e-65
-9.2557152e-63
2.5570997e-63
-6.3764916e-61
1.0925558e-61
-4.0763635e-59
2.245644e-60
-2.4297245e-57
-1.9199118e-58
-1.343334e-55
-3.1741408e-56
-6.8600966e-54
-2.9101409e-54
-3.22254e-52
-2.134599e-52
-1.3943568e-50
-1.3610354e-50
-5.5435989e-49
-7.9086822e-49
-1.9743529e-47
-4.2768311e-47
-5.7725225e-46
-2.1628848e-45
-1.0274718e-44
-1.0264655e-43
2.3515326e-43
-4.5683374e-42
3.6962003e-41
-1.9103065e-40
2.4207284e-39
-7.2796378e-39
1.1476976e-37
-2.4299707e-37
4.3198736e-36
-6.9980682e-36
1.3288024e-34
-1.704658e-34
3.376087e-33
-3.4862275e-33
7.0524987e-32
-5.888329e-32
1.2049278e-30
-8.1656608e-31
1.6722296e-29
-9.2732401e-30
1.8234672e-28
-8.3945479e-29
1.5123729e-27
-6.1109135e-28
9.4995162e-27
-3.8552098e-27
4.4740239e-26
-2.2071013e-26
1.5330567e-25
-1.2411623e-25
3.4597626e-25
-5.5344598e-25
4.9247586e-25
-1.6726921e-24
5.3616764e-25
-3.4658472e-24
6.2306447e-25
-6.4405072e-24
6.813653e-25
-1.2073318e-23
4.9598003e-25
-1.1739536e-23
3.2652152e-26
-5.8993346e-24
-1.9481318e-25
-2.916002e-24
-2.3190229e-25
-1.2286061e-24
-1.1838419e-25
-3.3207041e-25
-2.9978977e-26
-5.3593201e-26
-4.4991407e-27
-6.049381e-27
-3.6937408e-28
-7.4911278e-28
-1.3801712e-29
-7.9086444e-29
-2.9915293e-31
-4.1591132e-30
-5.8623242e-33
-1.2050033e-31
-9.2265378e-35
-3.2079992e-33
-4.2299713e-36
-6.8268105e-35
-1.2330735e-37
-4.0506188e-36
-2.9342555e-39
-1.4537942e-37
-3.0406649e-41
-4.2475662e-39
-4.456117e-43
-5.9755576e-41
-4.6092868e-45
-1.2348598e-42
-1.3249357e-47
-2.0238784e-44
5.7959715e-48
-2.7512514e-46
1.3708799e-46
-8.1143728e-45
1.1503551e-48
-8.9532766e-46
1.9537123e-51
-7.2255436e-49
6.1104362e-53
-4.0559986e-51
1.8872629e-54
-7.7105199e-53
4.2609245e-56
-1.3445391e-54
8.6866383e-58
-1.9633758e-56
1.6363697e-59
-2.3197385e-58
2.8485173e-61
-1.704785e-60
4.6075111e-63
1.0059637e-62
6.9161234e-65
7.1997766e-64
9.5150654e-67
1.828846e-65
1.2003309e-68
3.4623652e-67
1.3822799e-70
5.4735678e-69
1.4410198e-72
7.4856631e-71
1.3837759e-74
8.9395001e-73
1.3220511e-76
9.9161973e-75
1.2596966e-78
1.0676853e-76
1.1362156e-80
1.0968332e-78
9.3572414e-83
1.0502546e-80
6.6353274e-85
9.0022629e-83
3.8789523e-87
6.506239e-85
1.9439944e-89
3.9778387e-87
8.3347904e-92
2.0792166e-89
2.8869934e-94
9.0626714e-92
7.3561186e-97
3.1212219e-94
1.0712157e-99
7.5928944e-97
6.3961514e-103
7.5441836e-100
2.2339047e-104
6.0515749e-103
5.77037e-104
-1.6777077e-100
4.7176236e-100
-9.8527878e-100
1.5170412e-99
-1.9980086e-96
1.2555188e-96
-2.2475677e-93
2.1658186e-93
-1.0951904e-90
1.2057241e-90
-3.531521e-88
3.9735421e-88
-8.862913e-86
9.8911946e-86
-1.8483486e-83
2.0142508e-83
-3.3222107e-81
3.4933815e-81
-5.2966613e-79
5.2923596e-79
-7.6510005e-77
7.1345784e-77
-9.8909384e-75
8.605787e-75
-1.1205244e-72
9.1841406e-73
-1.1608407e-70