/*--------------------------------*- C++ -*----------------------------------*\
  =========                 |
  \\      /  F ield         | OpenFOAM: The Open Source CFD Toolbox
   \\    /   O peration     | Website:  https://openfoam.org
    \\  /    A nd           | Version:  9
     \\/     M anipulation  |
\*---------------------------------------------------------------------------*/
FoamFile
{
    format      ascii;
    class       volScalarField;
    location    "0.15";
    object      alpha.phase1;
}
// * * * * * * * * * * * * * * * * * * * * * * * * * * * * * * * * * * * * * //

dimensions      [0 0 0 0 0 0 0];

internalField   nonuniform List<scalar> 
10000
(
2.5428251e-114
2.6082262e-114
2.1483748e-111
7.5502496e-109
2.0587764e-106
4.5729494e-104
8.5492404e-102
1.3772833e-99
1.9461724e-97
2.4457037e-95
2.7637285e-93
2.8339948e-91
2.6571426e-89
2.292762e-87
1.8309953e-85
1.360143e-83
9.4411309e-82
6.149259e-80
3.7730519e-78
2.1891501e-76
1.2055027e-74
6.3235239e-73
3.1714965e-71
1.5267098e-69
7.0818567e-68
3.1774165e-66
1.3878548e-64
5.9954487e-63
2.6106391e-61
1.1618858e-59
5.2155922e-58
2.2537692e-56
9.0402218e-55
3.3241304e-53
1.1134579e-51
3.368727e-50
9.1101465e-49
2.1771778e-47
4.5395083e-46
8.1088057e-45
1.211658e-43
1.4928053e-42
1.5253699e-41
1.2886591e-40
8.5916091e-40
4.3976445e-39
1.8099029e-38
6.0869363e-38
1.5843974e-37
3.1442472e-37
3.1262449e-37
1.5681792e-37
5.9027807e-38
1.7004186e-38
3.8170637e-39
6.4044656e-40
6.6892767e-41
3.4801408e-42
7.8075834e-44
6.9198404e-46
3.8776224e-48
4.2708342e-51
3.2600158e-54
1.0936835e-57
2.1387367e-59
4.8311322e-60
4.9725065e-62
1.0138425e-62
1.01376e-62
9.965154e-63
5.303468e-63
7.7272083e-64
2.1924675e-65
2.6254953e-67
5.1236447e-69
1.2335565e-70
2.8747753e-72
6.3075252e-74
1.3126677e-75
2.5943485e-77
4.8578512e-79
8.5936728e-81
1.4320995e-82
2.2411504e-84
3.2824093e-86
4.4824002e-88
5.6834227e-90
6.6594748e-92
7.1723924e-94
7.0561175e-96
6.2940397e-98
5.0453043e-100
3.5950252e-102
2.2461173e-104
1.2090443e-106
5.4772903e-109
2.021428e-111
5.7893896e-114
7.1944272e-117
6.9083771e-117
2.5428251e-114
2.051946e-112
1.5140128e-109
7.172121e-107
2.31263e-104
5.7372473e-102
1.1621541e-99
1.9926546e-97
2.9635255e-95
3.8912718e-93
4.5726421e-91
4.8603814e-89
4.7143542e-87
4.2032758e-85
3.4665958e-83
2.6592327e-81
1.9065948e-79
1.2832854e-77
8.1420184e-76
4.8882454e-74
2.7873109e-72
1.514922e-70
7.8766877e-69
3.9321732e-67
1.8916524e-65
8.8063661e-64
4.0009924e-62
1.7940033e-60
8.052475e-59
3.6616258e-57
1.6689747e-55
7.3144758e-54
2.9716598e-52
1.1042228e-50
3.7274597e-49
1.1336356e-47
3.0759412e-46
7.3591924e-45
1.5306725e-43
2.7207681e-42
4.0521427e-41
4.9692932e-40
4.9649698e-39
3.9694824e-38
2.3715527e-37
9.4058944e-37
2.3661848e-36
4.4077873e-36
8.1137127e-36
1.2456936e-35
1.2449793e-35
8.10892e-36
4.4112169e-36
2.3133093e-36
8.9145468e-37
1.9805655e-37
2.1999039e-38
1.2075478e-39
2.9601551e-41
3.3383744e-43
1.5452328e-45
1.9244368e-48
8.364507e-52
3.4575479e-55
1.3531349e-57
2.5464184e-59
1.8791699e-61
1.0353368e-62
1.0189852e-62
1.3091496e-62
7.008385e-61
3.1387091e-61
2.2052445e-62
2.3873175e-64
2.0890233e-66
3.9614647e-68
8.6457808e-70
1.8066121e-71
3.5810759e-73
6.767869e-75
1.2164942e-76
2.0713469e-78
3.3290613e-80
5.0323572e-82
7.1275487e-84
9.4195447e-86
1.1561898e-87
1.3111383e-89
1.365353e-91
1.296375e-93
1.1126242e-95
8.5414316e-98
5.7868434e-100
3.3995967e-102
1.690295e-104
6.8620196e-107
2.1433535e-109
4.5933072e-112
6.7367945e-115
6.9083771e-117
7.9064764e-113
2.7571136e-110
2.0938526e-107
9.4268831e-105
3.2545595e-102
8.8165714e-100
1.887635e-97
3.3664658e-95
5.1604311e-93
6.9452703e-91
8.3351424e-89
9.0260215e-87
8.9040261e-85
8.0640645e-83
6.7492828e-81
5.2503116e-79
3.8150862e-77
2.6011052e-75
1.6708429e-73
1.0151216e-71
5.8544758e-70
3.216466e-68
1.6893916e-66
8.5129433e-65
4.1304108e-63
1.9390236e-61
8.8910056e-60
4.0211945e-58
1.8142393e-56
8.258777e-55
3.7714022e-53
1.6642373e-51
6.7964382e-50
2.5289352e-48
8.5231121e-47
2.5804548e-45
6.9509419e-44
1.6470228e-42
3.3859939e-41
5.938113e-40
8.7119417e-39
1.0510379e-37
1.0323083e-36
8.1260731e-36
4.82096e-35
1.9312997e-34
4.9811203e-34
9.4686589e-34
1.7405837e-33
2.7811347e-33
2.7789844e-33
1.7390825e-33
9.4666447e-34
4.8715336e-34
1.8342838e-34
4.0633707e-35
4.6620049e-36
2.7578814e-37
7.6721186e-39
1.0198947e-40
5.7169784e-43
1.0387266e-45
8.169448e-49
5.5732244e-52
2.5075469e-54
7.2412796e-56
3.5335771e-58
2.5339257e-61
3.7295667e-61
4.9810023e-58
4.9324959e-58
9.5847198e-59
2.6086546e-60
2.4780322e-62
4.0154911e-64
8.8482841e-66
1.9573102e-67
4.0940593e-69
8.1125416e-71
1.5279463e-72
2.7301803e-74
4.6134409e-76
7.3490115e-78
1.0998598e-79
1.5407631e-81
2.0120734e-83
2.4379398e-85
2.7258749e-87
2.7947405e-89
2.6076535e-91
2.1936285e-93
1.644402e-95
1.0817055e-97
6.1131869e-100
2.8771421e-102
1.0697164e-104
3.3348274e-107
7.7971241e-110
1.0849325e-112
2.7783884e-115
1.6418923e-110
2.8494255e-108
2.6079309e-105
1.2126098e-102
3.9391249e-100
1.0238381e-97
2.3263204e-95
4.3950052e-93
7.0206664e-91
9.7569652e-89
1.2022621e-86
1.3317931e-84
1.3404609e-82
1.2363966e-80
1.052492e-78
8.3183963e-77
6.1357895e-75
4.2433113e-73
2.7628564e-71
1.700223e-69
9.9248372e-68
5.514813e-66
2.9269351e-64
1.4889386e-62
7.2856449e-61
3.4486756e-59
1.5945628e-57
7.267148e-56
3.2942162e-54
1.5002382e-52
6.8404491e-51
3.0199595e-49
1.23517e-47
4.5933778e-46
1.5423651e-44
4.6392964e-43
1.2384004e-41
2.9013503e-40
5.8857003e-39
1.0165641e-37
1.4658915e-36
1.7345405e-35
1.6686173e-34
1.2880156e-33
7.5444547e-33
3.0210298e-32
7.8590976e-32
1.4982322e-31
2.7208077e-31
4.4329759e-31
4.4294179e-31
2.71845e-31
1.4974134e-31
7.6919445e-32
2.8761848e-32
6.4191402e-33
7.644343e-34
4.8819675e-35
1.5428796e-36
2.4042589e-38
1.5461911e-40
4.4589216e-43
6.4666971e-46
1.315231e-48
1.4845095e-50
3.7785679e-52
1.3993215e-54
9.5828086e-58
1.4445734e-58
2.4657036e-55
1.7671111e-55
2.4058532e-56
4.6970052e-58
4.3378199e-60
7.7426862e-62
1.7300946e-63
3.7864692e-65
7.8352089e-67
1.5383104e-68
2.8693473e-70
5.0730863e-72
8.4754299e-74
1.3337734e-75
1.9704614e-77
2.7225854e-79
3.5033228e-81
4.1777942e-83
4.5909208e-85
4.6171801e-87
4.2146701e-89
3.4555081e-91
2.5100477e-93
1.585248e-95
8.4598216e-98
3.7400788e-100
1.5679385e-102
5.1080451e-105
1.1410423e-107
1.3828049e-110
6.3399889e-113
2.7688333e-108
2.1687769e-106
2.7098422e-103
1.3517038e-100
4.5490491e-98
1.1745103e-95
2.4722058e-93
4.5689268e-91
7.7588356e-89
1.1262775e-86
1.435838e-84
1.6360474e-82
1.687274e-80
1.5903163e-78
1.3805859e-76
1.1110275e-74
8.3338713e-73
5.8545215e-71
3.8682431e-69
2.4132074e-67
1.4265377e-65
8.0183744e-64
4.299924e-62
2.2073855e-60
1.0886807e-58
5.1896741e-57
2.4147416e-55
1.1064576e-53
5.0288097e-52
2.2864737e-50
1.0378855e-48
4.5678353e-47
1.8648614e-45
6.9104932e-44
2.3059858e-42
6.8755202e-41
1.8150213e-39
4.1964615e-38
8.3853452e-37
1.423766e-35
2.01355e-34
2.3305714e-33
2.1887156e-32
1.6505194e-31
9.5025725e-31
3.7796678e-30
9.838452e-30
1.8691008e-29
3.3465583e-29
5.5136685e-29
5.5090708e-29
3.3436992e-29
1.8675491e-29
9.6356887e-30
3.6062555e-30
8.1561234e-31
1.0098851e-31
6.9837423e-33
2.501619e-34
4.5006629e-36
3.5796651e-38
1.3676959e-40
4.1038327e-43
2.6151044e-45
2.1086446e-47
3.0056036e-49
2.4113147e-51
1.8201078e-54
2.9385991e-56
5.983406e-53
4.4492259e-53
5.8487495e-54
9.3692621e-56
7.4486519e-58
1.3247063e-59
2.9427616e-61
6.3430957e-63
1.2948547e-64
2.5141785e-66
4.6381675e-68
8.1040842e-70
1.3368428e-71
2.0754201e-73
3.0218637e-75
4.1104521e-77
5.2002366e-79
6.0873265e-81
6.5526122e-83
6.4374143e-85
5.7172746e-87
4.5335716e-89
3.1545385e-91
1.8746344e-93
1.020998e-95
5.3227349e-98
2.1947046e-100
6.7253715e-103
1.4203493e-105
1.4135975e-108
1.1871418e-110
3.9235835e-106
9.0784864e-105
2.375175e-101
1.301118e-98
4.5469095e-96
1.2057546e-93
2.5889923e-91
4.5867464e-89
7.1530785e-87
1.0838338e-84
1.4477518e-82
1.710809e-80
1.8186038e-78
1.7595205e-76
1.5633642e-74
1.284813e-72
9.8241492e-71
7.0242894e-69
4.7170416e-67
2.9867592e-65
1.7895303e-63
1.0180168e-61
5.5167748e-60
2.857244e-58
1.4195573e-56
6.8077874e-55
3.1833723e-53
1.4637644e-51
6.6561001e-50
3.0130425e-48
1.3564132e-46
5.9264363e-45
2.4083581e-43
8.8704304e-42
2.9338943e-40
8.6497061e-39
2.2529541e-37
5.1299441e-36
1.0077526e-34
1.6789014e-33
2.323622e-32
2.6234582e-31
2.397046e-30
1.7592839e-29
9.9147081e-29
3.8979583e-28
1.009413e-27
1.9025041e-27
3.3535844e-27
5.556807e-27
5.551977e-27
3.3507913e-27
1.9004405e-27
9.8922403e-28
3.7264988e-28
8.5777331e-29
1.1060752e-29
8.3032339e-31
3.3721571e-32
6.9081887e-34
6.7464155e-36
3.2858445e-38
1.4243619e-40
1.4957766e-42
3.354688e-44
2.8707966e-46
1.7529895e-48
1.9088756e-51
1.962724e-54
2.1134483e-51
8.1499448e-51
1.1104111e-51
1.5582561e-53
1.158931e-55
2.0559644e-57
4.5059611e-59
9.5576303e-61
1.9230999e-62
3.6847266e-64
6.7065e-66
1.1551759e-67
1.876804e-69
2.8667348e-71
4.1018387e-73
5.4753178e-75
6.7860101e-77
7.7649201e-79
8.146418e-81
7.7678101e-83
6.6543339e-85
5.0377759e-87
3.3296093e-89
2.1590637e-91
1.3503527e-93
6.7561509e-96
2.6215332e-98
7.7676229e-101
1.5338488e-103
1.0766472e-106
1.8912901e-108
4.7811683e-104
7.1569969e-104
1.7216428e-99
1.0842982e-96
3.9830585e-94
1.08293e-91
2.379906e-89
4.3928923e-87
6.8179869e-85
9.2828291e-83
1.2346994e-80
1.5348412e-78
1.6967942e-76
1.6960328e-74
1.549957e-72
1.305868e-70
1.0210492e-68
7.4493321e-67
5.0944417e-65
3.278923e-63
1.9933914e-61
1.1485036e-59
6.2916176e-58
3.2872659e-56
1.6444141e-54
7.9259543e-53
3.719683e-51
1.7135869e-49
7.7804389e-48
3.4982422e-46
1.5571825e-44
6.7310621e-43
2.7145931e-41
9.9106161e-40
3.2400454e-38
9.4208001e-37
2.4153982e-35
5.4048638e-34
1.0418589e-32
1.7000355e-31
2.2978469e-30
2.5237496e-29
2.2355686e-28
1.5905667e-27
8.7400168e-27
3.38285e-26
8.6779523e-26
1.6172969e-25
2.8036614e-25
4.6528721e-25
4.6486613e-25
2.8014074e-25
1.615182e-25
8.5092648e-26
3.2398537e-26
7.6158956e-27
1.0247156e-27
8.3650277e-29
3.8335719e-30
8.8014582e-32
1.0119714e-33
6.3945106e-36
3.7724747e-38
5.8808874e-40
1.6919986e-41
1.7771321e-43
9.3772645e-46
1.480009e-48
2.4653246e-51
2.338367e-51
1.2669193e-48
1.5310963e-49
1.6272339e-51
1.3691282e-53
2.6934878e-55
5.9728743e-57
1.2637164e-58
2.5309261e-60
4.812188e-62
8.6669717e-64
1.4737631e-65
2.3588775e-67
3.5423376e-69
4.9726104e-71
6.4973295e-73
7.8614872e-75
8.7522771e-77
8.8930082e-79
8.157234e-81
6.644493e-83
5.0208512e-85
3.7350957e-87
2.6443453e-89
1.5604401e-91
7.3605263e-94
2.7812484e-96
7.9326589e-99
1.4205965e-101
3.9235487e-105
2.6492809e-106
5.0769619e-102
6.0170102e-102
9.8480193e-98
7.7852713e-95
3.0596296e-92
8.6149709e-90
1.9318547e-87
3.6431482e-85
5.9239787e-83
8.2310717e-81
1.0024515e-78
1.189601e-76
1.3721203e-74
1.4313541e-72
1.3549239e-70
1.1765859e-68
9.4467742e-67
7.0560118e-65
4.9273635e-63
3.2305347e-61
1.9959328e-59
1.1659575e-57
6.4605995e-56
3.4059812e-54
1.7151064e-52
8.3028406e-51
3.9069064e-49
1.8011695e-47
8.1547179e-46
3.6349437e-44
1.5952221e-42
6.7945802e-41
2.7096601e-39
9.7764104e-38
3.1502303e-36
9.0088045e-35
2.2678718e-33
4.9763995e-32
9.3960816e-31
1.4992113e-29
1.9752814e-28
2.1047016e-27
1.80073e-26
1.2366162e-25
6.5985653e-25
2.5057177e-24
6.3454377e-24
1.1659503e-23
1.9853887e-23
3.2877245e-23
3.2846591e-23
1.9838713e-23
1.1641892e-23
6.2252552e-24
2.4036771e-24
5.7875406e-25
8.1473621e-26
7.2239912e-27
3.6908594e-28
9.3808354e-30
1.2606931e-31
1.0647831e-33
8.5842533e-36
2.1096302e-37
6.4718705e-39
1.048928e-40
4.1585318e-43
9.031129e-46
2.5679428e-48
3.4446535e-50
2.5356646e-46
2.3382151e-47
1.586158e-49
1.5549719e-51
3.317778e-53
7.3370709e-55
1.5385646e-56
3.0580934e-58
5.7568874e-60
1.023667e-61
1.7142762e-63
2.6957638e-65
3.9675307e-67
5.4440658e-69
6.9319015e-71
8.1422925e-73
8.7555412e-75
8.5283554e-77
7.4149839e-79
6.3008444e-81
5.3009295e-83
4.1824351e-85
2.8347302e-87
1.5709647e-89
7.1698613e-92
2.6326622e-94
7.1224006e-97
1.1052043e-99
4.4976617e-104
3.2921806e-104
4.7332483e-100
4.9455782e-100
3.8718191e-96
4.8008956e-93
2.0705264e-90
6.1034072e-88
1.4087327e-85
2.7064598e-83
4.4942201e-81
6.5530626e-79
8.2730111e-77
9.2288242e-75
9.9882819e-73
1.0618993e-70
1.0532274e-68
9.4985388e-67
7.8758346e-65
6.0489014e-63
4.3279313e-61
2.8980257e-59
1.8231651e-57
1.0813148e-55
6.0654921e-54
3.2275895e-52
1.6358206e-50
7.9486706e-49
3.7463005e-47
1.7263728e-45
7.7840184e-44
3.4340372e-42
1.4810818e-40
6.1841409e-39
2.4238947e-37
8.6098555e-36
2.7263827e-34
7.6449962e-33
1.8843822e-31
4.0453096e-30
7.4681921e-29
1.1634732e-27
1.4917466e-26
1.5379001e-25
1.2657355e-24
8.3475042e-24
4.3048302e-23
1.5974584e-22
3.975125e-22
7.164736e-22
1.1949189e-21
1.9712721e-21
1.9693874e-21
1.1941266e-21
7.1526237e-22
3.9015336e-22
1.5346675e-22
3.7981051e-23
5.6160063e-24
5.4173837e-25
3.0634496e-26
8.5550215e-28
1.3490307e-29
1.5660576e-31
1.7413725e-33
6.318861e-35
1.824515e-36
3.5719856e-38
1.547143e-40
4.8731603e-43
1.9698538e-45
9.0304192e-48
4.1731963e-44
2.841348e-45
1.4093001e-47
1.7435165e-49
3.8504994e-51
8.4106992e-53
1.7415843e-54
3.4197304e-56
6.3476136e-58
1.1103459e-59
1.8248315e-61
2.808868e-63
4.0347541e-65
5.385028e-67
6.6411584e-69
7.5129484e-71
7.7114444e-73
7.3381327e-75
6.8723874e-77
6.305871e-79
5.4461552e-81
4.1601823e-83
2.6421991e-85
1.405144e-87
6.2473362e-90
2.2082815e-92
5.5622655e-95
6.8087397e-98
4.2207399e-102
3.6552309e-102
3.9510688e-98
3.6597261e-98
5.5653484e-96
2.4259357e-91
1.2031872e-88
3.7637833e-86
9.0194073e-84
1.780001e-81
3.0111952e-79
4.490655e-77
5.9717223e-75
6.9879067e-73
7.2797577e-71
7.2561331e-69
7.159961e-67
6.7853249e-65
5.8611162e-63
4.6588042e-61
3.432475e-59
2.3567045e-57
1.5142922e-55
9.1398581e-54
5.1991084e-52
2.7958489e-50
1.427251e-48
6.963141e-47
3.2870473e-45
1.5140668e-43
6.7994398e-42
2.9686775e-40
1.2568356e-38
5.1249233e-37
1.9646409e-35
6.843722e-34
2.1216861e-32
5.8108101e-31
1.3973865e-29
2.9266586e-28
5.2729953e-27
8.0098503e-26
9.9776783e-25
9.9250615e-24
7.8219001e-23
4.9198945e-22
2.4339834e-21
8.7892304e-21
2.1403233e-20
3.7640507e-20
6.1364075e-20
1.0150953e-19
1.0140635e-19
6.1333767e-20
3.7568917e-20
2.1013518e-20
8.4552129e-21
2.1585528e-21
3.3771935e-22
3.5626631e-23
2.2203338e-24
6.7810141e-26
1.2771359e-27
2.223437e-29
3.2657344e-31
1.4394168e-32
4.1625901e-34
9.3620775e-36
5.1096948e-38
2.2691339e-40
1.1351842e-42
5.3613134e-45
4.4795242e-42
3.0644176e-43
1.3303747e-45
1.8027577e-47
4.0756312e-49
8.8554113e-51
1.813712e-52
3.5154383e-54
6.4240699e-56
1.1030134e-57
1.7736903e-59
2.6617331e-61
3.7125327e-63
4.7876869e-65
5.6679063e-67
6.0894444e-69
6.2727892e-71
6.4245886e-73
6.3726961e-75
5.9549335e-77
5.0160192e-79
3.5688916e-81
2.1558494e-83
1.1168378e-85
4.8107267e-88
1.6171428e-90
3.6880027e-93
2.7817442e-96
3.6387495e-100
3.6414791e-100
2.8977243e-96
2.6911728e-96
1.1339196e-94
9.1864305e-90
5.8348165e-87
1.9829704e-84
4.9857598e-82
1.0188632e-79
1.7716551e-77
2.6980602e-75
3.6778032e-73
4.5288174e-71
4.9840275e-69
4.9383324e-67
4.6511069e-65
4.3094978e-63
3.8623255e-61
3.2086719e-59
2.4512816e-57
1.7348802e-55
1.1433113e-53
7.0449204e-52
4.0735378e-50
2.2175917e-48
1.1416309e-46
5.5968732e-45
2.6488242e-43
1.2213049e-41
5.4755661e-40
2.3710888e-38
9.8658447e-37
3.9222514e-35
1.4636361e-33
4.9736333e-32
1.5019601e-30
3.9954728e-29
9.3260767e-28
1.8981085e-26
3.329085e-25
4.922307e-24
5.9469398e-23
5.6893668e-22
4.2696353e-21
2.5393179e-20
1.1945902e-19
4.2252195e-19
1.0306524e-18
1.8200575e-18
2.9535793e-18
4.8831901e-18
4.877274e-18
2.9512797e-18
1.8152854e-18
1.011997e-18
4.0693545e-19
1.0635718e-19
1.7782873e-20
2.0683512e-21
1.4169495e-22
4.7356764e-24
1.1008741e-25
2.9886699e-27
5.3708098e-29
2.700147e-30
8.0117605e-32
2.048864e-33
1.6984011e-35
9.1960506e-38
5.3567015e-40
2.7183455e-42
9.6159163e-41
8.5566603e-42
9.0396159e-44
1.6135482e-45
3.8611777e-47
8.4208341e-49
1.7131846e-50
3.2868002e-52
5.9181703e-54
9.9654244e-56
1.5639931e-57
2.2788837e-59
3.0676449e-61
3.7871672e-63
4.304517e-65
4.7468377e-67
5.1928706e-69
5.4911763e-71
5.5003952e-73
5.0332655e-75
3.9423242e-77
2.6511937e-79
1.5571043e-81
7.8322516e-84
3.2331255e-86
1.0174161e-88
1.9982627e-91
3.1610912e-96
2.8938498e-98
3.2262854e-98
1.8500028e-94
1.6627606e-94
1.949138e-93
1.9380312e-88
2.2620017e-85
8.7188515e-83
2.3363912e-80
4.987462e-78
8.9798846e-76
1.4085542e-73
1.9677737e-71
2.4918657e-69
2.8852487e-67
3.0324132e-65
2.8950829e-63
2.6062033e-61
2.293237e-59
1.9593023e-57
1.5683154e-55
1.1522006e-53
7.8291223e-52
4.945396e-50
2.9163182e-48
1.6115781e-46
8.386743e-45
4.1418337e-43
1.9718989e-41
9.1503462e-40
4.1231557e-38
1.783806e-36
7.3358626e-35
2.8443342e-33
1.0269697e-31
3.3727827e-30
9.8354653e-29
2.5193953e-27
5.660433e-26
1.1123759e-24
1.8929332e-23
2.7183813e-22
3.1763796e-21
2.9090427e-20
2.070383e-19
1.1682139e-18
5.2865166e-18
1.8894541e-17
5.0227325e-17
9.9448588e-17
1.671987e-16
2.4883893e-16
2.4845775e-16
1.6674961e-16
9.899786e-17
4.9331971e-17
1.8208797e-17
4.7291682e-18
8.3615051e-19
1.0686572e-19
8.0397102e-21
2.9754562e-22
8.9376312e-24
3.6477933e-25
7.6679218e-27
4.3068052e-28
1.328406e-29
4.0654418e-31
4.7491284e-33
3.2199687e-35
2.1370193e-37
1.192386e-39
1.0417695e-41
2.0517011e-42
2.0075475e-42
1.9989662e-43
3.8696787e-45
7.715403e-47
1.5434264e-48
2.9116449e-50
5.1285827e-52
8.4050386e-54
1.2767006e-55
1.7886387e-57
2.293493e-59
2.7448891e-61
3.2011531e-63
3.6773257e-65
4.0859703e-67
4.3363322e-69
4.2504671e-71
3.6081459e-73
2.6556495e-75
1.7306602e-77
9.8649885e-80
4.7659261e-82
1.8622783e-84
5.3467395e-87
8.0068374e-90
8.3164896e-95
2.2280222e-96
2.5237634e-96
1.0142618e-92
9.007493e-93
3.9411798e-92
1.5107072e-88
6.422732e-84
3.1234092e-81
9.1874746e-79
2.078024e-76
3.9082533e-74
6.3618784e-72
9.1900875e-70
1.1994993e-67
1.4356926e-65
1.5862021e-63
1.6054963e-61
1.4873667e-59
1.2992761e-57
1.102458e-55
9.0479444e-54
6.9649445e-52
4.9120615e-50
3.1963754e-48
1.9296778e-46
1.0859668e-44
5.7313593e-43
2.8628961e-41
1.3795464e-39
6.5100799e-38
2.9869891e-36
1.306711e-34
5.3554646e-33
2.0280177e-31
7.0327895e-30
2.2019656e-28
6.1146661e-27
1.4875325e-25
3.1729607e-24
5.9566146e-23
9.7776632e-22
1.3587523e-20
1.531868e-19
1.3430128e-18
9.1127584e-18
5.0335719e-17
2.2984886e-16
8.0617546e-16
2.2359623e-15
4.6490743e-15
7.5648873e-15
9.4635167e-15
9.4502865e-15
7.5370263e-15
4.6274356e-15
2.1995871e-15
7.771074e-16
2.083183e-16
3.7078508e-17
5.0347074e-18
4.149096e-19
1.7425431e-20
7.1521894e-22
4.0151358e-23
9.4521292e-25
5.9245354e-26
1.9298165e-27
6.9942051e-29
1.1290418e-30
1.0155219e-32
7.2389875e-35
4.4315367e-37
1.2850402e-39
1.0417695e-41
2.0517011e-42
8.2968738e-42
5.8748941e-43
7.434341e-45
1.2896631e-46
2.3945014e-48
4.1198982e-50
6.5397093e-52
9.5463017e-54
1.2713713e-55
1.587308e-57
1.9316473e-59
2.3021482e-61
2.6549914e-63
2.9479866e-65
3.0639512e-67
2.7875613e-69
2.2128115e-71
1.5712438e-73
9.918612e-76
5.4277353e-78
2.4898951e-80
9.0419923e-83
2.2534512e-85
1.6132418e-88
1.5504036e-93
1.4761815e-94
1.7284827e-94
4.8171544e-91
3.9611942e-91
1.2722036e-90
1.0101653e-87
6.5995008e-83
7.9256363e-80
2.7878042e-77
6.9036374e-75
1.382109e-72
2.3662633e-70
3.5782891e-68
4.878936e-66
6.0887002e-64
7.0362294e-62
7.5737598e-60
7.5342922e-58
6.8780229e-56
5.8880943e-54
4.8550593e-52
3.827005e-50
2.8159859e-48
1.900113e-46
1.1806154e-44
6.8012086e-43
3.6629508e-41
1.8682499e-39
9.2455033e-38
4.5301114e-36
2.1641611e-34
9.7440241e-33
4.0191099e-31
1.488132e-29
4.9145149e-28
1.4435567e-26
3.7448943e-25
8.4743736e-24
1.6798069e-22
2.9599172e-21
4.6425613e-20
6.23772e-19
6.8677216e-18
5.8645193e-17
3.7280172e-16
1.9144404e-15
8.1116885e-15
2.2774982e-14
4.8254631e-14
7.9176877e-14
1.1550245e-13
1.3893835e-13
1.3883983e-13
1.1528295e-13
7.8999236e-14
4.7471006e-14
2.1993893e-14
7.4329424e-15
1.459467e-15
2.2286437e-16
2.0903085e-17
1.0198535e-18
5.7839247e-20
3.9154282e-21
1.0033899e-22
7.0822226e-24
2.4969558e-25
1.0785162e-26
2.3498569e-28
2.8279839e-30
2.0778023e-32
1.3084647e-34
4.104344e-37
2.8684962e-39
1.613652e-41
8.3674498e-42
3.6326539e-41
1.0201327e-42
9.973372e-45
1.7714021e-46
2.9741486e-48
4.554808e-50
6.3486185e-52
8.275499e-54
1.0450604e-55
1.2843366e-57
1.5260011e-59
1.7555677e-61
1.9041136e-63
1.8263081e-65
1.5406774e-67
1.1730535e-69
8.0386447e-72
4.8564889e-74
2.5195161e-76
1.0789028e-78
3.5120193e-81
6.6372321e-84
1.0322627e-88
3.8097762e-92
8.7446776e-93
1.0347638e-92
1.9336764e-89
1.8904019e-89
4.6322062e-88
4.5472602e-85
7.9655669e-82
8.15221e-79
4.8547165e-76
1.5347118e-73
3.4919951e-71
6.5395192e-69
1.0661287e-66
1.5597428e-64
2.0866875e-62
2.5804776e-60
2.9704903e-58
3.1902473e-56
3.1695196e-54
2.888507e-52
2.4456339e-50
1.9616783e-48
1.4851157e-46
1.0438118e-44
6.7336674e-43
4.0095832e-41
2.2328024e-39
1.1865043e-37
6.2036268e-36
3.2624941e-34
1.6667044e-32
7.8292782e-31
3.2560073e-29
1.1727754e-27
3.6468088e-26
9.8714095e-25
2.3448665e-23
4.815677e-22
8.62353e-21
1.3939086e-19
2.0836263e-18
2.7656828e-17
3.0526351e-16
2.3509678e-15
1.2377461e-14
4.6174943e-14
1.3616518e-13
2.7796679e-13
3.7915295e-13
4.3136213e-13
5.5605638e-13
7.1426532e-13
7.1420504e-13
5.5639058e-13
4.3134771e-13
3.7195456e-13
2.6891041e-13
1.234646e-13
3.626543e-14
8.1726452e-15
1.0049396e-15
6.7787532e-17
4.7885883e-18
3.4341627e-19
9.2010999e-21
7.3844792e-22
2.9410022e-23
1.5305993e-24
4.3029451e-26
6.4811457e-28
5.0077257e-30
2.4855613e-32
1.1131468e-34
8.3177226e-37
4.4984637e-39
2.7191642e-41
1.82712e-39
8.8196336e-41
7.876734e-43
1.2639728e-44
2.0430982e-46
2.9895658e-48
4.0561845e-50
5.2569938e-52
6.5663266e-54
7.9090828e-56
9.2544384e-58
1.0318521e-59
1.0282794e-61
9.0502455e-64
7.2320719e-66
5.2589525e-68
3.4156556e-70
1.9374735e-72
9.2898268e-75
3.5507358e-77
9.1857468e-80
5.4433151e-83
7.8572251e-88
1.3220137e-90
4.1522508e-91
5.305564e-91
6.3350993e-88
7.5683001e-88
1.0789662e-85
7.1766242e-83
3.5697896e-80
1.8770828e-77
6.4289878e-75
1.7131371e-72
4.3993983e-70
9.2024764e-68
1.7412889e-65
3.151318e-63
5.0219857e-61
7.2195552e-59
9.4576579e-57
1.1344524e-54
1.2479712e-52
1.2528037e-50
1.143847e-48
9.5939644e-47
7.5023517e-45
5.4747545e-43
3.6993787e-41
2.3138613e-39
1.3624799e-37
7.799534e-36
4.4764686e-34
2.5931975e-32
1.4275681e-30
6.9542904e-29
2.8816565e-27
9.9716604e-26
2.8874085e-24
7.1191056e-23
1.5354392e-21
2.7998836e-20
4.3921845e-19
6.4702139e-18
9.4561023e-17
1.2028195e-15
1.0994002e-14
5.6345401e-14
2.4191504e-13
6.0194466e-13
1.0043952e-12
1.6784172e-12
1.5921482e-12
1.2587586e-12
1.3744971e-12
1.8427787e-12
1.8489475e-12
1.3772403e-12
1.2604249e-12
1.5516675e-12
1.6197157e-12
8.9794971e-13
4.8999502e-13
1.7775667e-13
2.6467236e-14
3.0849594e-15
3.1800094e-16
2.9989069e-17
7.5159924e-19
6.7844451e-20
3.2575469e-21
2.0163698e-22
6.8993564e-24
1.2282646e-25
1.0042491e-27
4.2666314e-30
2.5357814e-32
2.0398989e-34
1.2179733e-36
5.7603043e-39
1.8672418e-39
3.8481446e-39
7.5661501e-41
9.0897775e-43
1.3816604e-44
1.9436804e-46
2.5697999e-48
3.2285178e-50
3.8725884e-52
4.4917575e-54
5.0368755e-56
5.1148125e-58
4.5711047e-60
3.7064459e-62
2.7571401e-64
1.8478354e-66
1.0878887e-68
5.4430354e-71
2.162208e-73
5.5105673e-76
7.265381e-79
7.1614203e-82
4.6196559e-85
3.985724e-88
2.2265275e-89
2.3070353e-89
1.6613103e-86
2.3265641e-86
5.6783867e-84
3.5963417e-81
1.7326753e-78
6.4601566e-76
2.0586526e-73
5.632612e-71
1.2806055e-68
2.5165015e-66
4.3994923e-64
6.9809232e-62
1.020802e-59
1.4413609e-57
2.1518905e-55
3.2480205e-53
4.305248e-51
4.9579287e-49
5.0554016e-47
4.6175151e-45
3.8373866e-43
2.9463725e-41
2.1051685e-39
1.4086876e-37
9.0040311e-36
5.7200563e-34
3.6678662e-32
2.3186578e-30
1.3409688e-28
6.6044058e-27
2.6771135e-25
8.813414e-24
2.3690943e-22
5.3095617e-21
1.0467078e-19
1.7129461e-18
2.2995486e-17
3.0995973e-16
3.8487369e-15
3.3462459e-14
1.7632856e-13
7.4195954e-13
2.8836704e-12
5.9813032e-12
5.3764063e-12
1.1007704e-11
1.3961608e-11
1.1975784e-11
3.0212733e-11
2.7927817e-11
2.9644525e-11
3.0373124e-11
1.2132295e-11
1.3458353e-11
1.0543784e-11
4.8676521e-12
5.2461922e-12
2.3655443e-12
3.5856942e-13
3.3266775e-14
8.9078598e-15
1.3662731e-15
5.5099781e-17
5.8997177e-18
3.5608607e-19
2.4087187e-20
9.5870729e-22
1.9212462e-23
1.6532819e-25
5.4674122e-28
4.833856e-30
4.2221318e-32
2.8039125e-34
1.5002105e-36
1.1689081e-38
1.9673997e-37
8.409721e-39
7.1580115e-41
9.6629032e-43
1.2953856e-44
1.6245634e-46
1.9163835e-48
2.1522494e-50
2.3403799e-52
2.3233776e-54
2.0009815e-56
1.5299567e-58
1.0564245e-60
6.422733e-63
3.2674352e-65
1.6536046e-67
7.0473346e-70
2.870466e-72
1.0406146e-74
2.7676326e-77
5.3363468e-80
1.0584355e-82
1.6375751e-85
1.0209777e-87
8.4069719e-88
3.3898516e-85
6.497158e-85
2.7357989e-82
1.6621438e-79
7.6478436e-77
2.884974e-74
8.9586702e-72
2.3321203e-69
5.2236483e-67
1.045096e-64
1.8755833e-62
3.0449184e-60
4.5323038e-58
6.2750139e-56
8.2588735e-54
1.0779799e-51
1.4060745e-49
1.8474021e-47
2.229781e-45
2.3019082e-43
2.1045823e-41
1.7443222e-39
1.337133e-37
9.6595134e-36
6.756179e-34
4.7389152e-32
3.3089566e-30
2.1919904e-28
1.2824101e-26
6.2261887e-25
2.4379788e-23
7.6174095e-22
1.9085377e-20
3.9439824e-19
7.4537147e-18
1.1873047e-16
1.1699795e-15
1.0594799e-14
7.8418655e-14
4.5890395e-13
2.5911614e-12
1.3543618e-11
6.4624875e-11
1.4382144e-10
1.2567137e-10
2.0973241e-10
3.3706818e-10
3.6121745e-10
1.8337295e-09
1.7937363e-09
1.5981837e-09
1.8124239e-09
3.3122312e-10
3.1151096e-10
1.9463366e-10
1.2419133e-10
1.3149564e-10
5.5554927e-11
9.5065447e-12
1.591228e-12
2.4216719e-13
9.4536729e-15
2.0585387e-15
3.7475862e-16
3.8669507e-17
2.5880928e-18
1.1348487e-19
2.4613137e-21
2.2221613e-23
5.6321473e-26
7.6856592e-28
7.3614175e-30
5.4839997e-32
3.3476252e-34
1.7570421e-36
1.4598939e-35
8.4780314e-37
6.716624e-39
8.1180147e-41
1.0038019e-42
1.1410601e-44
1.1951957e-46
1.1685737e-48
1.020731e-50
7.2776124e-53
4.7926174e-55
3.2469124e-57
2.3353087e-59
1.59572e-61
9.9591043e-64
5.5923624e-66
2.7575467e-68
1.1611129e-70
4.2029781e-73
1.3460862e-75
3.529605e-78
7.0450367e-81
1.141962e-83
3.7699195e-86
2.4851888e-86
4.6752615e-84
1.8341393e-83
1.2590174e-80
8.0197763e-78
3.8567944e-75
1.4859401e-72
4.7494256e-70
1.2891664e-67
3.0233013e-65
6.2104994e-63
1.1318832e-60
1.8543512e-58
2.7724448e-56
3.8487517e-54
5.0507591e-52
6.3566899e-50
7.657056e-48
8.8468482e-46
1.0567863e-43
1.2645944e-41
1.2993365e-39
1.180425e-37
9.7684875e-36
7.5532113e-34
5.6250825e-32
4.1608315e-30
3.0154696e-28
2.0068617e-26
1.1517652e-24
5.4208681e-23
2.0377536e-21
6.0558823e-20
1.432836e-18
2.9062192e-17
5.3975581e-16
4.7887587e-15
2.9314884e-14
1.544698e-13
9.393008e-13
8.9302247e-12
1.1131796e-10
8.2484763e-10
2.4654349e-09
5.3439824e-09
3.1369165e-09
5.881261e-09
1.050175e-08
2.2567226e-08
2.1291036e-07
1.8854886e-07
1.6949629e-07
2.0058571e-07
2.0013189e-08
9.8721347e-09
5.4755175e-09
3.2519809e-09
5.5192171e-09
2.2180178e-09
2.710297e-10
7.3428073e-11
9.0908972e-12
3.8376565e-14
2.0955498e-14
5.6252023e-15
2.0447973e-15
2.4313932e-16
1.1618744e-17
2.5599309e-19
2.342018e-21
6.8696554e-24
1.0159966e-25
1.0792171e-27
9.1010431e-30
6.3794672e-32
3.8626634e-34
1.6509661e-33
9.8708018e-35
7.3854043e-37
8.2571352e-39
9.2609676e-41
9.2284899e-43
8.0331724e-45
5.6417981e-47
3.5134909e-49
2.810506e-51
2.4485788e-53
1.9731449e-55
1.4268983e-57
9.6737145e-60
6.0409432e-62
3.3903792e-64
1.6827556e-66
7.2853127e-69
2.7144262e-71
8.5601217e-74
2.2324793e-76
4.6483634e-79
7.2787925e-82
1.3267574e-84
5.4504131e-85
6.4138163e-83
5.922394e-82
5.3647109e-79
3.6090959e-76
1.831901e-73
7.4290726e-71
2.4880829e-68
7.0317642e-66
1.7025317e-63
3.5726493e-61
6.5680758e-59
1.0707455e-56
1.5739387e-54
2.1386641e-52
2.7748253e-50
3.5313777e-48
4.3918312e-46
5.3317812e-44
6.3585631e-42
7.3873144e-40
8.6221761e-38
8.6092522e-36
7.6254947e-34
6.176534e-32
4.7170964e-30
3.506102e-28
2.536851e-26
1.6534988e-24
9.1335125e-23
4.1236299e-21
1.4824166e-19
4.2260398e-18
1.0005372e-16
2.0434672e-15
1.7975809e-14
5.9253428e-14
2.0658177e-13
3.1443232e-12
1.757386e-11
1.065068e-10
2.5221091e-09
7.6191138e-08
9.1298513e-08
8.6648086e-08
4.3395935e-09
2.2644926e-07
8.4933553e-07
1.6316476e-06
1.7094253e-05
1.2372016e-05
1.1376429e-05
1.6157551e-05
1.5776198e-06
8.0544921e-07
2.3986222e-07
4.5702434e-09
4.7627402e-08
8.4570558e-08
5.0870232e-08
3.644237e-09
1.8926365e-10
3.8836375e-14
8.4094332e-13
1.1315923e-13
4.5286491e-14
1.0323873e-14
9.8209601e-16
2.1888833e-17
1.8600806e-19
6.8721364e-22
1.1130159e-23
1.3286209e-25
1.2792805e-27
1.0358124e-29
7.3222369e-32
3.6106294e-31
1.2792331e-32
8.3933104e-35
9.3063385e-37
9.4534963e-39
8.0215567e-41
5.0257159e-43
3.8281008e-45
3.0981087e-47
2.5468448e-49
2.0468395e-51
1.4762704e-53
9.6957852e-56
6.660205e-58
4.4116137e-60
2.5535612e-62
1.2727651e-64
5.4270687e-67
1.9631004e-69
5.947471e-72
1.4792557e-74
2.9240351e-77
4.332033e-80
5.0239827e-83
6.6054817e-84
1.8858754e-81
1.9127443e-80
1.8953772e-77
1.3616298e-74
7.3983437e-72
3.2059414e-69
1.141435e-66
3.4033216e-64
8.5967758e-62
1.8543188e-59
3.430409e-57
5.4650791e-55
7.552145e-53
9.5437325e-51
1.3391181e-48
1.8280795e-46
2.437278e-44
3.1292896e-42
3.9094452e-40
4.6614562e-38
5.4523285e-36
6.0726222e-34
5.7480106e-32
4.8191417e-30
3.6875537e-28
2.6704502e-26
1.8572326e-24
1.1603214e-22
6.1127039e-21
2.6278349e-19
9.0853222e-18
2.628698e-16
6.1149949e-15
5.632696e-14
1.8969904e-13
4.012773e-12
1.3697799e-11
1.0182152e-10
4.5676169e-10
1.2184431e-09
2.2531652e-08
2.8060304e-08
3.3751212e-06
4.2836235e-07
-2.7917734e-06
1.9376974e-07
6.6465575e-07
7.9324075e-06
0.00045377749
0.00041354484
0.00038808035
0.0004404815
8.283939e-06
6.3640559e-07
1.4939598e-07
-2.2103292e-06
6.7763343e-07
2.3519183e-06
1.7982766e-08
1.6945893e-08
3.275585e-10
8.5975501e-14
5.3892817e-11
1.0495757e-11
3.3451495e-12
1.394056e-13
3.2295225e-14
1.4837113e-15
1.1970804e-17
5.5952323e-20
1.008026e-21
1.3706389e-23
1.5207034e-25
1.4293113e-27
1.192234e-29
6.4534364e-29
1.3273792e-30
9.4200698e-33
1.0153806e-34
9.1311245e-37
6.4646194e-39
5.0166884e-41
4.0564733e-43
3.3170786e-45
2.4858893e-47
1.650699e-49
1.0583737e-51
6.5139436e-54
4.1156269e-56
2.6496456e-58
1.6885369e-60
8.6602696e-63
3.6400507e-65
1.2675372e-67
3.6448773e-70
8.5278656e-73
1.5787907e-75
2.193029e-78
2.1669481e-81
1.7428356e-82
5.9092643e-80
4.5645633e-79
5.5833033e-76
4.5677316e-73
2.6892685e-70