/*--------------------------------*- C++ -*----------------------------------*\
  =========                 |
  \\      /  F ield         | OpenFOAM: The Open Source CFD Toolbox
   \\    /   O peration     | Website:  https://openfoam.org
    \\  /    A nd           | Version:  9
     \\/     M anipulation  |
\*---------------------------------------------------------------------------*/
FoamFile
{
    format      ascii;
    class       volScalarField;
    location    "0.15";
    object      p;
}
// * * * * * * * * * * * * * * * * * * * * * * * * * * * * * * * * * * * * * //

dimensions      [1 -1 -2 0 0 0 0];

internalField   nonuniform List<scalar> 
10000
(
0
-0.028172488
-0.070919755
-0.12537964
-0.19342927
-0.27462824
-0.36883976
-0.47594986
-0.59575364
-0.72800604
-0.87245595
-1.0287408
-1.1964774
-1.3752122
-1.5643666
-1.7633136
-1.9713612
-2.187722
-2.4115276
-2.6417945
-2.8774105
-3.1171913
-3.3598959
-3.6041708
-3.8484093
-4.0906378
-4.3290283
-4.560611
-4.7856001
-5.0030362
-5.2114769
-5.4088524
-5.593474
-5.7641511
-5.9201665
-6.0610243
-6.1866818
-6.2975991
-6.3945229
-6.4783587
-6.5498454
-6.6101177
-6.6604872
-6.702103
-6.736051
-6.7633327
-6.7848359
-6.8012651
-6.8131175
-6.8207427
-6.8243099
-6.8238183
-6.8190722
-6.8096864
-6.7951338
-6.7747357
-6.7476101
-6.7127235
-6.6689232
-6.6150462
-6.5500491
-6.4728136
-6.3824031
-6.277969
-6.1588098
-6.0245221
-5.8752495
-5.7115076
-5.5338239
-5.3436754
-5.1426118
-4.9329135
-4.7159357
-4.4924675
-4.2626569
-4.0238585
-3.786908
-3.5496464
-3.3137101
-3.0804475
-2.8511567
-2.6269754
-2.4089542
-2.1980744
-1.9951717
-1.8010653
-1.6164218
-1.4418879
-1.2779681
-1.1251287
-0.98380692
-0.85435098
-0.73700611
-0.63205091
-0.53969563
-0.46003695
-0.39324284
-0.33977767
-0.2976981
-0.26990068
0.027281535
-0.00079293684
-0.04351327
-0.097959251
-0.16606978
-0.2473295
-0.34167212
-0.44894081
-0.5689327
-0.70146421
-0.8462347
-1.0029287
-1.1711889
-1.3505268
-1.5404019
-1.740215
-1.949268
-2.1667908
-2.3919104
-2.6236057
-2.8607478
-3.1021258
-3.3464277
-3.5922694
-3.8383671
-4.0817869
-4.3229336
-4.5620794
-4.7905743
-5.0114237
-5.2228371
-5.42302
-5.6103817
-5.7837203
-5.9422799
-6.085554
-6.2134777
-6.3263844
-6.4248911
-6.5098487
-6.5822012
-6.6431369
-6.6938402
-6.7355807
-6.7695472
-6.7967725
-6.8181636
-6.834468
-6.8462298
-6.8538298
-6.8574677
-6.8571333
-6.8525917
-6.8434406
-6.8291056
-6.8088502
-6.7817618
-6.7467676
-6.702641
-6.64822
-6.5823201
-6.5037832
-6.4116446
-6.3050743
-6.1835107
-6.0467184
-5.894819
-5.7282183
-5.5478048
-5.3547965
-5.1507354
-4.9373485
-4.7159812
-4.4866406
-4.2517542
-4.0143725
-3.775001
-3.5360485
-3.2985045
-3.0636768
-2.8328645
-2.6072794
-2.3880008
-2.1759871
-1.9721157
-1.7771513
-1.591793
-1.4166687
-1.2522597
-1.0990289
-0.95738451
-0.82766094
-0.71012438
-0.60500188
-0.51250014
-0.43277151
-0.3659253
-0.31244943
-0.27040818
-0.24257265
0.069845235
0.041803348
-0.00088389863
-0.055416505
-0.12364752
-0.20512767
-0.29975599
-0.40737482
-0.52785302
-0.66095486
-0.80642135
-0.96397393
-1.1332238
-1.313725
-1.504978
-1.7063864
-1.9172812
-2.1369128
-2.3643987
-2.5987372
-2.8388258
-3.0834311
-3.3311473
-3.5803962
-3.8309504
-4.0804747
-4.3266559
-4.5689658
-4.8039749
-5.0300765
-5.2461459
-5.4506177
-5.6418764
-5.8187191
-5.9803205
-6.1261854
-6.2561707
-6.3705245
-6.4698374
-6.55502
-6.627125
-6.6873865
-6.7372544
-6.7780369
-6.8109684
-6.8372509
-6.8578413
-6.8735424
-6.8849405
-6.8924128
-6.8961222
-6.8960599
-6.8920248
-6.8836168
-6.8702236
-6.8510293
-6.8250383
-6.7910922
-6.7478564
-6.694015
-6.628269
-6.5493381
-6.4562047
-6.3480429
-6.2242449
-6.0846876
-5.9295979
-5.7593963
-5.5749931
-5.3776682
-5.1689683
-4.9506116
-4.724324
-4.4874657
-4.2490462
-4.0064682
-3.7628269
-3.5207309
-3.2798811
-3.0418949
-2.8082144
-2.5800135
-2.3583997
-2.144321
-1.9386555
-1.7421341
-1.5554144
-1.3791159
-1.2137404
-1.0596933
-0.9173651
-0.78707774
-0.66907344
-0.56358705
-0.47077908
-0.39078645
-0.32374527
-0.27013805
-0.22807094
-0.2002425
0.12416907
0.096148721
0.053413441
-0.0012279306
-0.069690116
-0.15149156
-0.24652599
-0.35471008
-0.47587285
-0.60980992
-0.75630816
-0.91506862
-1.08574
-1.2679296
-1.4611513
-1.6648394
-1.87836
-2.1009736
-2.3318343
-2.5699982
-2.8144022
-3.0638599
-3.3171058
-3.5728089
-3.8280163
-4.0829666
-4.3352632
-4.582984
-4.8254765
-5.0585799
-5.2809043
-5.4910321
-5.6873539
-5.8684598
-6.0334297
-6.1817451
-6.3132378
-6.4281261
-6.527051
-6.611022
-6.6813071
-6.7393797
-6.7867879
-6.8250631
-6.8556695
-6.8798746
-6.8987695
-6.9132024
-6.9237678
-6.9308533
-6.9346404
-6.9351177
-6.9320675
-6.9250985
-6.9135817
-6.8965967
-6.8730417
-6.8416381
-6.8008691
-6.7491845
-6.6850971
-6.6071671
-6.514227
-6.4052874
-6.2797646
-6.1375601
-5.9788853
-5.8042765
-5.6147376
-5.4117087
-5.1967477
-4.9714942
-4.7369709
-4.4959663
-4.2510933
-4.0035134
-3.7557546
-3.5070292
-3.2606888
-3.0179491
-2.780025
-2.5480779
-2.3231135
-2.1061027
-1.8978369
-1.6990594
-1.5104129
-1.332451
-1.165639
-1.0104125
-0.86709566
-0.73595766
-0.61728146
-0.51123694
-0.41798944
-0.33766055
-0.27033288
-0.21652258
-0.17435664
-0.14651269
0.192208
0.16414757
0.12135661
0.066521471
-0.0022369
-0.084426581
-0.18001935
-0.28890207
-0.41092863
-0.54594679
-0.69373041
-0.85401171
-1.0265
-1.2108271
-1.4065408
-1.6131194
-1.8299524
-2.0563391
-2.2914901
-2.5344902
-2.7842727
-3.0396416
-3.2992988
-3.5617945
-3.8251569
-4.0880658
-4.3485675
-4.6046656
-4.8544531
-5.0975385
-5.3278204
-5.5452677
-5.7480381
-5.9344866
-6.1034926
-6.2545143
-6.3873563
-6.5022285
-6.5998754
-6.6814883
-6.7486257
-6.803054
-6.8466016
-6.8810465
-6.9080641
-6.9291613
-6.9455384
-6.9580903
-6.9674351
-6.9739523
-6.9778198
-6.9790501
-6.9774371
-6.9725615
-6.9637741
-6.9500857
-6.9302427
-6.9027474
-6.8658338
-6.8176919
-6.7565846
-6.6807327
-6.5887488
-6.4795073
-6.3523525
-6.2071801
-6.0441736
-5.8640552
-5.6680359
-5.4576498
-5.2346484
-5.0003173
-4.7573191
-4.5087164
-4.2558525
-4.000557
-3.744739
-3.4895745
-3.236995
-2.9885093
-2.7453612
-2.5086803
-2.2795107
-2.0587797
-1.8472309
-1.6456215
-1.4545018
-1.2743914
-1.1057769
-0.94902367
-0.80443119
-0.67224017
-0.55267807
-0.44591507
-0.35209816
-0.27133466
-0.20367457
-0.14964787
-0.10735059
-0.079473928
0.2739129
0.24582279
0.20290609
0.14783092
0.078735567
-0.003961737
-0.10020888
-0.2099174
-0.33299872
-0.46929387
-0.61860375
-0.78072329
-0.95539584
-1.1422923
-1.3410149
-1.5510807
-1.7719267
-2.0029194
-2.2433143
-2.4922091
-2.7485511
-3.011166
-3.2789154
-3.5500199
-3.8228596
-4.0956767
-4.3664857
-4.6331467
-4.8934735
-5.1462174
-5.3873698
-5.6140728
-5.8248669
-6.0178264
-6.1916217
-6.3455866
-6.4794816
-6.5935315
-6.6886627
-6.7663699
-6.8285892
-6.877488
-6.9153068
-6.9442175
-6.9662089
-6.9830008
-6.9959436
-7.006
-7.0137484
-7.0195291
-7.0234907
-7.025664
-7.0258847
-7.0237515
-7.0186478
-7.0095297
-6.9949195
-6.9730419
-6.9418464
-6.8991177
-6.8426788
-6.7703756
-6.6804594
-6.5715699
-6.4430235
-6.294562
-6.1264289
-5.9396403
-5.7355848
-5.5161201
-5.2833858
-5.0370833
-4.7847066
-4.5259856
-4.2631205
-3.9982056
-3.7331782
-3.4696551
-3.2092661
-2.9537496
-2.7041955
-2.4617587
-2.2274923
-2.0022339
-1.7867251
-1.5816331
-1.3875254
-1.2048658
-1.0340547
-0.87546368
-0.72934247
-0.59587604
-0.47524731
-0.36762923
-0.2731181
-0.19182835
-0.12379983
-0.069513948
-0.027060893
0.00086900503
0.36937114
0.34121053
0.29815184
0.24282022
0.17329949
0.090038291
-0.0069397622
-0.11760693
-0.24187369
-0.37960569
-0.53066598
-0.6948891
-0.87206234
-1.0619194
-1.2641141
-1.4782208
-1.7037543
-1.940143
-2.1866756
-2.4424887
-2.7065813
-2.9777926
-3.2550614
-3.5365515
-3.8206214
-4.1053806
-4.3887185
-4.6682732
-4.9415182
-5.2060507
-5.4607985
-5.698707
-5.9193209
-6.1202158
-6.2997109
-6.4569311
-6.5915215
-6.7037602
-6.7948569
-6.8667305
-6.9218327
-6.9629154
-6.9928079
-7.0141902
-7.029448
-7.0405938
-7.0491565
-7.0560995
-7.0619231
-7.0668463
-7.0709173
-7.0741522
-7.0765313
-7.0778355
-7.0774654
-7.0742944
-7.0666964
-7.0525421
-7.0293062
-6.9942075
-6.9445316
-6.8775765
-6.7911407
-6.6834464
-6.5536074
-6.4014586
-6.2273129
-6.03239
-5.8184394
-5.5876099
-5.3418027
-5.0840005
-4.8188239
-4.547539
-4.2725507
-3.9960669
-3.7201567
-3.4466226
-3.1770989
-2.9131012
-2.6559639
-2.4067742
-2.1665107
-1.9359433
-1.7158082
-1.5067019
-1.3091115
-1.1234869
-0.95017248
-0.78945862
-0.64156006
-0.5066288
-0.38480105
-0.2762241
-0.18096035
-0.099068447
-0.030603275
0.023980914
0.066579285
0.094564396
0.47865831
0.45043615
0.40724043
0.3515877
0.28162013
0.19775948
0.099967463
-0.011731081
-0.13727145
-0.27658021
-0.42956227
-0.59609912
-0.77604663
-0.96919928
-1.1752751
-1.3939351
-1.6247716
-1.8672643
-2.1207608
-2.3844861
-2.6575397
-2.9389132
-3.2270006
-3.5205448
-3.8177497
-4.1166274
-4.4148829
-4.7098973
-4.9987885
-5.2784966
-5.5484926
-5.8004778
-6.0332295
-6.243878
-6.430248
-6.5911188
-6.7259549
-6.8351453
-6.9202634
-6.983816
-7.028999
-7.0594015
-7.0786569
-7.0900765
-7.0965562
-7.1005781
-7.103796
-7.1071475
-7.1109048
-7.1149304
-7.1190428
-7.123322
-7.1280661
-7.1333775
-7.1388239
-7.1432384
-7.1447818
-7.1409131
-7.1284463
-7.1038062
-7.0635408
-7.004266
-6.9230064
-6.8175659
-6.6867091
-6.5302669
-6.3489168
-6.1441222
-5.918127
-5.6736487
-5.4116781
-5.1396464
-4.8592587
-4.5730212
-4.2835838
-3.993457
-3.7047967
-3.4195216
-3.1393543
-2.8656326
-2.599806
-2.34291
-2.0957854
-1.8592361
-1.6338748
-1.4202108
-1.2187399
-1.0298182
-0.85370744
-0.69064775
-0.54079907
-0.4042594
-0.28113686
-0.17151328
-0.075426048
0.0071112324
0.076040484
0.13093248
0.17368885
0.20173471
0.60190372
0.57363389
0.53025388
0.47428891
0.40387081
0.31936881
0.2207414
0.10798548
-0.018893889
-0.15986503
-0.31488141
-0.48389669
-0.66683285
-0.86355193
-1.0738634
-1.2975181
-1.5341766
-1.7833922
-2.0446158
-2.3171797
-2.6002521
-2.8928177
-3.1935001
-3.5009165
-3.8133158
-4.1286234
-4.4443831
-4.7577544
-5.0655537
-5.3643422
-5.6514299
-5.9211731
-6.1689804
-6.3917011
-6.586505
-6.7515587
-6.8860819
-6.9906141
-7.0671989
-7.1191789
-7.150824
-7.1668916
-7.1721104
-7.1705358
-7.1658351
-7.1610039
-7.1580215
-7.1576166
-7.159493
-7.1627757
-7.1668312
-7.1718541
-7.1787703
-7.1883892
-7.2007527
-7.2145652
-7.2278751
-7.2375176
-7.2394554
-7.2289498
-7.2016063
-7.1529284
-7.0790547
-6.9771633
-6.8455726
-6.6841579
-6.4939947
-6.2769672
-6.0361913
-5.7756683
-5.493303
-5.2041987
-4.9057887
-4.6018224
-4.2954616
-3.9894349
-3.6860802
-3.3873758
-3.0950073
-2.8103671
-2.5347925
-2.2692497
-2.0145275
-1.7713277
-1.5401896
-1.3215677
-1.1158593
-0.92333164
-0.74420344
-0.5786384
-0.42670625
-0.28846315
-0.16397672
-0.053246155
0.043699312
0.12686703
0.19625282
0.25146207
0.29438452
0.32251205
0.73921673
0.71086332
0.66733087
0.61107025
0.54019236
0.45507052
0.35563275
0.24181743
0.11358946
-0.029068766
-0.18618465
-0.35778015
-0.54384575
-0.74433619
-0.95915821
-1.1881429
-1.4310386
-1.6875187
-1.9571649
-2.2394171
-2.533527
-2.8385476
-3.1532869
-3.4763761
-3.806083
-4.1402693
-4.4763646
-4.8113254
-5.141592
-5.4631366
-5.7718278
-6.0633116
-6.3297075
-6.5674218
-6.7726767
-6.9427246
-7.0762811
-7.1740119
-7.2386188
-7.2747519
-7.2881345
-7.2849402
-7.2719664
-7.2535747
-7.2344722
-7.2190069
-7.209278
-7.2055253
-7.2064581
-7.2096922
-7.2135884
-7.2181932
-7.2263814
-7.2400314
-7.2603257
-7.2852424
-7.3135638
-7.3408573
-7.3624651
-7.3707822
-7.36082
-7.3267503
-7.2632747
-7.166571
-7.034559
-6.8670831
-6.6657542
-6.4333816
-6.1738428
-5.8914948
-5.5903494
-5.2782555
-4.9579615
-4.6331184
-4.3071578
-3.9829153
-3.662816
-3.3489291
-3.0429158
-2.746132
-2.4598054
-2.1847599
-1.9217283
-1.6713067
-1.4339612
-1.2100435
-0.99980944
-0.80347205
-0.62117979
-0.4529913
-0.29889653
-0.15891152
-0.033028859
0.078802061
0.17659545
0.26037221
0.33020675
0.38572791
0.42878898
0.45698762
0.89065176
0.86225024
0.81858866
0.76204373
0.6907605
0.60508209
0.50488128
0.3900602
0.2605344
0.116212
-0.043002707
-0.21719904
-0.40645961
-0.61084054
-0.83033604
-1.0648722
-1.3143272
-1.5785245
-1.857179
-2.1498456
-2.455907
-2.7745494
-3.1047818
-3.4453061
-3.7944499
-4.1501004
-4.5096359
-4.8698091
-5.2266374
-5.5753795
-5.9108228
-6.2295761
-6.5190847
-6.7757388
-6.9943153
-7.1705856
-7.3023659
-7.3903657
-7.4384942
-7.4530367
-7.4416118
-7.4119144
-7.375384
-7.3352812
-7.2978011
-7.269803
-7.2538054
-7.2483399
-7.2509531
-7.2559023
-7.2596527
-7.2616216
-7.2670694
-7.2836591
-7.3122654
-7.347296
-7.3931128
-7.445731
-7.4973947
-7.5303158
-7.544023
-7.5298189
-7.4807458
-7.3914393
-7.2592315
-7.0841862
-6.8686261
-6.6168267
-6.3340858
-6.0259561
-5.699419
-5.36085
-5.0148644
-4.665757
-4.3172091
-3.9722753
-3.6334306
-3.3026508
-2.9816092
-2.6715757
-2.3735057
-2.0882124
-1.8163142
-1.5582282
-1.3143088
-1.0848221
-0.86990128
-0.66964656
-0.48409831
-0.31323529
-0.15697463
-0.015261111
0.11199236
0.22485192
0.32342476
0.40779693
0.47806966
0.53385456
0.57704707
0.60529253
1.0563169
1.0278814
0.98410933
0.92735642
0.85575367
0.7695994
0.66873696
0.55302049
0.42229261
0.27639591
0.1151698
-0.061566168
-0.25399809
-0.46227428
-0.68648628
-0.92669215
-1.1829272
-1.4551649
-1.7432584
-2.0469165
-2.3657112
-2.6990232
-3.0460756
-3.4057053
-3.7764046
-4.1561974
-4.5424856
-4.9318743
-5.3200161
-5.7014335
-6.0692708
-6.4228731
-6.7413023
-7.0226645
-7.2587464
-7.4430636
-7.5720887
-7.6467458
-7.6721561
-7.6571301
-7.6125646
-7.542343
-7.4633803
-7.390311
-7.3356599
-7.3045347
-7.2855815
-7.2818673
-7.2941791
-7.303927
-7.3078128
-7.3018478
-7.2974829
-7.3095001
-7.3344199
-7.3911941
-7.4668033
-7.5519966
-7.6326121
-7.7064325
-7.7548674
-7.7678725
-7.738235
-7.6592236
-7.527082
-7.3421012
-7.108094
-6.831397
-6.519376
-6.1794614
-5.8212233
-5.4511467
-5.0750736
-4.6979683
-4.323772
-3.9556261
-3.5960042
-3.2467381
-2.9093627
-2.5850052
-2.2744149
-1.9783039
-1.6970648
-1.4309782
-1.1802687
-0.94505433
-0.72535865
-0.5211545
-0.33236066
-0.15887178
-0.0005185355
0.14284257
0.27136092
0.38517697
0.48445218
0.56932856
0.6399451
0.69594675
0.73926576
0.76755086
1.2362693
1.2078108
1.1640097
1.1071393
1.0353153
0.94881874
0.84744715
0.73098585
0.59921771
0.45192533
0.28885953
0.10973447
-0.085732153
-0.29778609
-0.52664657
-0.77252831
-1.0356251
-1.3160586
-1.6138472
-1.9289075
-2.2610438
-2.6098721
-2.9748838
-3.3551421
-3.7494333
-4.1560234
-4.572475
-4.9954369
-5.4204155
-5.841506
-6.2512605
-6.6429566
-7.0008598
-7.3154674
-7.5753917
-7.770959
-7.8966105
-7.9527909
-7.9464366
-7.8903148
-7.7936991
-7.6835655
-7.5646333
-7.4521732
-7.3596615
-7.2964114
-7.2898679
-7.3037757
-7.339173
-7.3657415
-7.3666634
-7.3413123
-7.3110153
-7.3006992
-7.3382463
-7.4246315
-7.538214
-7.6665149
-7.7942321
-7.9095674
-7.9999909
-8.0488908
-8.0457172
-7.9804042
-7.8480683
-7.6495643
-7.3908368
-7.0814468
-6.7320681
-6.3525277
-5.9552847
-5.5476883
-5.1366162
-4.7275162
-4.32446
-3.9306076
-3.5482453
-3.1790154
-2.8241722
-2.4846286
-2.1609306
-1.8535204
-1.5626159
-1.2883573
-1.0307636
-0.7897894
-0.56535163
-0.3572792
-0.16535585
0.010615203
0.17089996
0.31574448
0.44538178
0.56003971
0.6599086
0.74517126
0.81601039
0.87217069
0.91554626
0.94384251
1.4305379
1.4021175
1.3583638
1.3014755
1.2295797
1.1429185
1.0412251
0.92423336
0.7916744
0.64324821
0.47860057
0.29734505
0.099100965
-0.11649748
-0.34981841
-0.60123592
-0.87109841
-1.1596949
-1.4672508
-1.7939268
-2.1397857
-2.5047255
-2.8885505
-3.2907108
-3.710394
-4.1462558
-4.596244
-5.0573278
-5.5251066
-5.9933806
-6.4537886
-6.8957784
-7.3043015
-7.663586
-7.9569618
-8.169413
-8.2913543
-8.3218735
-8.270701
-8.1552584
-8.003914
-7.8343368
-7.6607592
-7.4960855
-7.357436
-7.25446
-7.2460901
-7.30451
-7.3939189
-7.4563681
-7.4531508
-7.3870597
-7.3043897
-7.2619507
-7.3025159
-7.4256875
-7.595834
-7.7827994
-7.9682594
-8.1398809
-8.2827183
-8.3823224
-8.4159353
-8.3693788
-8.2358916
-8.0178692
-7.7250859
-7.371945
-6.9741178
-6.5452859
-6.1002642
-5.6481137
-5.1965239
-4.7511982
-4.3161934
-3.8942898
-3.4874481
-3.0970144
-2.723805
-2.3684644
-2.0312327
-1.7122538
-1.4115645
-1.1290912
-0.86465558
-0.61806112
-0.38904816
-0.17728532
0.017547999
0.19576027
0.35776022
0.50386679
0.63440526
0.7496722
0.84993818
0.93544491
1.0064111
1.0626222
1.1059569
1.1342235
1.6391503
1.6108102
1.5671848
1.5104299
1.4386463
1.3520269
1.2502604
1.1330374
1.0000167
0.85079963
0.684929
0.50191724
0.30127018
0.082484967
-0.15496004
-0.41159462
-0.68793336
-0.98446326
-1.3016448
-1.6398953
-1.9995699
-2.3809661
-2.7840593
-3.2090023
-3.6554541
-4.1226869
-4.6093193
-5.112982
-5.6297907
-6.1537037
-6.6757372
-7.183011
-7.6578661
-8.0785327
-8.4204059
-8.6596152
-8.7786125
-8.7733978
-8.6593801
-8.4649071
-8.2321007
-7.990272
-7.7493455
-7.513724
-7.2932014
-7.1490479
-7.1398584
-7.2749842
-7.4757722
-7.6153232
-7.6044932
-7.4502631
-7.2568048
-7.1464076
-7.1913582
-7.3755691
-7.6368983
-7.9014599
-8.1571824
-8.3981876
-8.6145279
-8.7813542
-8.8672178
-8.8466864
-8.7096498
-8.4619401
-8.1206301
-7.7080785
-7.2467855
-6.7564385
-6.2531621
-5.7485166
-5.2506721
-4.7650113
-4.2951251
-3.8431711
-3.410509
-2.9979459
-2.6058627
-2.2342723
-1.8833113
-1.5527428
-1.2423451
-0.9518035
-0.68075653
-0.42880882
-0.19550625
0.019599404
0.21697739
0.39711383
0.56053108
0.7076004
0.83873759
0.95432992
1.0547466
1.1402713
1.2112002
1.2673194
1.3105327
1.3387255
1.8620489
1.8338315
1.7904629
1.7340133
1.6625507
1.5762373
1.4747251
1.3576445
1.2245671
1.0749952
0.90836835
0.72408994
0.52154095
0.30007521
0.05901632
-0.20232963
-0.48466171
-0.78868431
-1.1150945
-1.4645704
-1.8377808
-2.2353919
-2.6579813
-3.1060919
-3.5800971
-4.0801415
-4.6058713
-5.1560597
-5.7280503
-6.316807
-6.9135417
-7.5039971
-8.0669942
-8.573846
-8.9883835
-9.2718428
-9.3917759
-9.3354048
-9.1223821
-8.8115109
-8.4701615
-8.1457625
-7.8344203
-7.5108005
-7.1579813
-6.9129504
-6.8995613
-7.1794424
-7.6178755
-7.9307517
-7.9041811
-7.5530116
-7.1203339
-6.8723516
-6.9436505
-7.2555675
-7.6678979
-8.0308408
-8.3610285
-8.6814883
-8.9956461
-9.2631867
-9.4267789
-9.4425111
-9.2961928
-9.0015997
-8.5891445
-8.0943727
-7.5498821
-6.9816129
-6.4084409
-5.8429871
-5.2931899
-4.7635438
-4.2564513
-3.7730661
-3.3137771
-2.8785914
-2.4673173
-2.0796126
-1.7150455
-1.3731237
-1.0533422
-0.75510361
-0.47784263
-0.22097064
0.016158667
0.23415104
0.43364675
0.6152757
0.77962577
0.9272284
1.0586083
1.1742149
1.2744792
1.35975
1.4304087
1.4862707
1.5292631
1.5573321
2.0991137
2.0710928
2.028115
1.9721676
1.9012854
1.8156127
1.7147487
1.598254
1.4656106
1.3162186
1.1494129
0.96448281
0.76067763
0.53720195
0.29321739
0.027852455
-0.25979201
-0.57063429
-0.90560429
-1.2656587
-1.6518116
-2.0651308
-2.5067086
-2.9776657
-3.4791821
-4.0124726
-4.5785794
-5.1780972
-5.8105718
-6.4732448
-7.1591582
-7.854387
-8.5345853
-9.1641962
-9.6905758
-10.050861
-10.184135
-10.057093
-9.6940139
-9.1923889
-8.691917
-8.2887005
-7.9334395
-7.5301971
-6.9245522
-6.4435664
-6.3548915
-6.9240693
-7.8822757
-8.6051746
-8.5448875
-7.7374063
-6.7901382
-6.2686339
-6.4529103
-7.0462736
-7.7393657
-8.194755
-8.5747646
-8.9721976
-9.4261925
-9.8529946
-10.13762
-10.203606
-10.034522
-9.6623974
-9.1429344
-8.5328061
-7.8788033
-7.2132356
-6.5572485
-5.9229607
-5.3164734
-4.7402337
-4.1946428
-3.679259
-3.1932285
-2.7356028
-2.3054801
-1.901992
-1.5242834
-1.1715185
-0.84287089
-0.5375054
-0.25463217
0.0065448333
0.24687941
0.46717371
0.66821391
0.85074703
1.0154753
1.1631044
1.2942547
1.4094503
1.509185
1.5939044
1.6640559
1.7194583
1.7620768
1.7899585
2.3501858
2.3224264
2.2799826
2.2247811
2.154798
2.0701573
1.9704009
1.8550143
1.7233841
1.5748101
1.4085246
1.2236968
1.0194331
0.79478037
0.54873158
0.28022797
-0.011831405
-0.32857439
-0.6711686
-1.0408609
-1.4389932
-1.8670038
-2.3264733
-2.8191886
-3.3471281
-3.9127009
-4.5187099
-5.1682997
-5.8643548
-6.6082674
-7.39776
-8.2229923
-9.0564714
-9.8622839
-10.564242
-11.062391
-11.243112
-11.020889
-10.409025
-9.5759972
-8.8168897
-8.3805788
-8.0844037
-7.7507393
-6.6215838
-5.5961121
-5.1807617
-6.2520115
-8.3713788
-10.145511
-10.006867
-8.056126
-5.9089366
-4.9818443
-5.5693425
-6.787474
-8.0415538
-8.4386789
-8.7693127
-9.2087595
-9.8883859
-10.590103
-11.074057
-11.207111
-10.981686
-10.476029
-9.7919348
-9.0188212
-8.222647
-7.437789
-6.6862178
-5.976665
-5.3107306
-4.6871376
-4.1033317
-3.5566546
-3.0446972
-2.5654334
-2.1173022
-1.6988609
-1.3088164
-0.94596257
-0.60922429
-0.29754813
-0.0098601396
0.25485936
0.49762991
0.71945255
0.92127506
1.1039942
1.2684772
1.4155355
1.5458622
1.6601108
1.7588852
1.8427
1.9120424
1.9667388
2.0088258
2.0364349
2.615026
2.5875834
2.5458476
2.4916864
2.4229631
2.3398038
2.2416866
2.1280101
1.9980668
1.8510645
1.6861297
1.5022979
1.2985206
1.0736839
0.82660701
0.55604201
0.26068756
-0.060800224
-0.40983426
-0.78792736
-1.196698
-1.637911
-2.1135908
-2.6261339
-3.1782326
-3.7734489
-4.4165244
-5.1136949
-5.8723889
-6.7004379
-7.6040951
-8.5828487
-9.6178723
-10.671972
-11.651259
-12.402241
-12.716037
-12.38864
-11.363425
-9.9004719
-8.6240998
-8.275089
-8.3209067
-8.5926917
-6.5047216
-3.8864915
-2.3827627
-3.8637173
-9.1999219
-13.691121
-13.366101
-8.5651381
-3.2529668
-2.0797335
-3.8999518
-6.7666534
-8.9661658
-8.7828321
-8.8084404
-9.2116847
-10.341799
-11.561663
-12.377511
-12.581117
-12.220883
-11.478011
-10.537825
-9.5362201
-8.5583808
-7.6324879
-6.7761282
-5.9888176
-5.2643652
-4.5956008
-3.9759719
-3.4001387
-2.8641208
-2.3647155
-1.8998923
-1.4676676
-1.0663674
-0.69450628
-0.35074131
-0.033744782
0.2577802
0.52506289
0.76930243
0.99171787
1.193426
1.3755066
1.5389597
1.6846989
1.8135455
1.9262718
2.0235766
2.106039
2.1741889
2.2278781
2.2692926
2.2965631
2.8933303
2.8662521
2.8254058
2.7726264
2.7055739
2.6244096
2.5285307
2.41725
2.2897759
2.1452236
1.9825965
1.8007857
1.598589
1.3747292
1.1278456
0.85649845
0.55918057
0.23431761
-0.11973743
-0.50471589
-0.9224651
-1.3750159
-1.864687
-2.3942359
-2.9672322
-3.5877369
-4.2621025
-4.9999973
-5.8141746
-6.7212153
-7.7406362
-8.8903857
-10.174896
-11.570548
-12.984267
-14.201769
-14.855534
-14.482098
-12.789672
-10.086915
-7.5379017
-7.3102316
-9.114681
-11.727035
-8.8888016
-1.3342427
3.8749681
2.0761347
-10.731001
-21.678141
-20.898843
-9.5052656
3.1869107
4.2372059
-1.378947
-9.0796415
-12.038816
-9.5855393
-8.0213975
-8.5242282
-10.743121
-12.971923
-14.326942
-14.547121
-13.86638
-12.695181
-11.359051
-10.047707
-8.8433121
-7.7629778
-6.8014147
-5.9413867
-5.1648434
-4.456823
-3.8061917
-3.2048914
-2.6473272
-2.1302299
-1.6505255
-1.2060291
-0.79483692
-0.41526845
-0.06572328
0.2553843
0.54952687
0.81817231
1.0627503
1.2846849
1.4852397
1.6656883
1.8271743
1.9707396
2.0973613
2.2078988
2.3031332
2.3837192
2.450267
2.5026269
2.5431814
2.5700872
3.1847585
3.1580176
3.1182131
3.0672538
3.0023297
2.9237315
2.830764
2.7226656
2.5985571
2.4574466
2.2982032
2.1195759
1.9202121
1.6986682
1.4533927
1.1827409
0.88498537
0.55831789
0.20087758
-0.18925277
-0.61410931
-1.0758853
-1.576992
-2.1203166
-2.7097243
-3.3502254
-4.0468162
-4.8134663
-5.6677467
-6.6360171
-7.7553319
-9.0734949
-10.6401
-12.476202
-14.543996
-16.598804
-18.057547
-17.96756
-15.31114
-10.288882
-4.4622377
-3.045349
-9.4543691
-16.998132
-14.364905
1.5689006
17.48284
20.550025
-7.7289277
-39.782815
-37.885422
-4.9523954
22.453538
17.453705
1.2069382
-14.718023
-17.295082
-9.6037657
-4.3586906
-6.2209692
-11.256964
-15.346859
-17.494823
-17.450552
-16.037409
-14.108222
-12.179846
-10.472609
-9.0145486
-7.7833056
-6.7316842
-5.8152744
-5.0003623
-4.2633891
-3.5891456
-2.9671676
-2.3918045
-1.8593705
-1.366797
-0.91175336
-0.49222182
-0.10640876
0.24748178
0.57123879
0.86657336
1.1352138
1.3788142
1.5989734
1.7971693
1.9748507
2.1333187
2.2737646
2.3972881
2.5048367
2.5973168
2.6754656
2.7399782
2.7905941
2.8301036
2.8566647
3.488924
3.462336
3.4236325
3.3751389
3.3128047
3.2374052
3.1481192
3.0440975
2.9243556
2.7877735
2.6331159
2.4589918
2.2638814
2.0461763
1.8041196
1.5358362
1.2393615
0.91265653
0.55364657
0.16022736
-0.26977391
-0.73858174
-1.2484963
-1.8021874
-2.403414
-3.059301
-3.7653478
-4.5443157
-5.4144651
-6.4094018
-7.5847187
-9.0271015
-10.858387
-13.209748
-16.190965
-19.655015
-22.828433
-24.000994
-20.431677
-11.202427
2.4432654
11.572905
-7.778591
-30.842702
-38.925708
-10.376462
53.610119
82.203523
37.667636
-13.689039
-11.791755
45.869921
84.614964
51.319545
-14.405666
-40.040271
-30.693085
-8.8948565
6.2328354
-1.3958212
-12.243338
-19.870904
-22.867736
-21.753735
-18.797767
-15.59532
-12.839379
-10.670168
-8.9777475
-7.6376231
-6.5364154
-5.5948568
-4.7630299
-4.0111605
-3.3226555
-2.6846386
-2.0952705
-1.5501434
-1.0466757
-0.58280231
-0.15659208
0.23383462
0.59042603
0.91518153
1.2101124
1.4771736
1.7182463
1.9351425
2.1295938
2.3032168
2.4574777
2.5937318
2.7131691
2.8168625
2.9058224
2.9809002
3.0429331
3.0911431
3.1295423
3.1559237
3.8054082
3.7785671
3.740704
3.6957847
3.6364262
3.5649882
3.4802348
3.3812447
3.2669353
3.1360729
2.9873704
2.8192562
2.6299836
2.4178324
2.1808049
1.9167683
1.6235064
1.298733
0.94011668
0.54533379
0.11211078
-0.36172473
-0.87819152
-1.4391661
-2.0463035
-2.7002551
-3.41649
-4.1919266
-5.047122
-6.0167676
-7.1676279
-8.6219052
-10.593008
-13.42437
-17.556081
-23.376093
-30.318427
-35.950566
-32.488492
-19.408819
11.074611
48.148265
27.679362
-47.580258
-78.972984
-93.790691
-317.97199
-441.13029
2268.1387
7229.4393
7016.1735
1993.5406
-486.37124
-290.65633
-78.293605
-74.55464
-40.020475
32.35771
36.352062
2.8499258
-19.839364
-31.346925
-33.740504
-28.604436
-22.180081
-16.820399
-13.020067
-10.426532
-8.6184169
-7.2735832
-6.1959939
-5.2755466
-4.4537416
-3.7013444
-3.0038148
-2.3575817
-1.7572096
-1.201307
-0.68852423
-0.21738023
0.21385034
0.6071476
0.96464393
1.288585
1.5812762
1.8449281
2.0816846
2.2936609
2.482821
2.6508962
2.7995675
2.9304251
3.0447155
3.1436403
3.228262
3.2994961
3.3586512
3.4033667
3.440873
3.4674813
4.13363
4.1061883
4.0694187
4.0270717
3.9723802
3.9058278
3.8265795
3.7336928
3.6260179
3.5022489
3.3609151
3.2003403
3.0187348
2.8140978
2.5841314
2.3264391
2.03856
1.717904
1.3618004
0.96763646
0.53297425
0.055626975
-0.46618744
-1.0336379
-1.6472176
-2.3070361
-3.0158394
-3.7717728
-4.5812257
-5.4646644
-6.4775206
-7.7457744
-9.5437476
-12.465721
-17.589063
-26.749784
-39.951609
-56.836791
-66.212101
-40.153907
22.473788
104.94633
-31.096506
1077.5076
4500.6475
5793.3079
3521.3518
2476.4058
4870.2094
7999.3615
7859.3337
4642.1042
2454.5931
3750.0109
6053.9172
4530.0879
989.04407
-38.726052
54.095731
-1.2125807
-33.914615
-59.435721
-52.326149
-37.726301
-25.276515
-16.802613
-12.121244
-9.4756077
-7.8416771
-6.6727975
-5.7202989
-4.8735317
-4.0871172
-3.3457236
-2.6454188
-1.989628
-1.3783207
-0.81211631
-0.29088658
0.18626492
0.62095062
1.0153018
1.3717114
1.6927709
1.9811072
2.2392754
2.4697009
2.6748342
2.8568827
3.0178729
3.1595624
3.2836414
3.3915795
3.484656
3.563981
3.6304934
3.6850895
3.7273275
3.7635619
3.7907786
4.4715233
4.440646
4.4099982
4.3703678
4.3202935
4.2593175
4.1865078
4.1008346
4.0010778
3.8858436
3.7535503
3.6023893
3.430339
3.235148
3.0146943
2.7656861
2.4856267
2.1715302
1.8202502
1.42878
0.99433255
0.51450068
-0.012452263
-0.58717714
-1.2088557
-1.8747756
-2.5797081
-3.3156801
-4.0654289
-4.8164549
-5.5793135
-6.4151034
-7.4988759
-9.4383999
-14.276516
-23.953412
-32.013636
-61.125498
-119.09272
-162.01026
-45.572834
642.74629
1663.2199
4510.6899
6533.4755
6077.3711
4851.4788
4411.046
5197.4127
6222.3283
6176.3098
5125.7887
4410.9043
4938.3521
6166.8229
6524.8525
4418.9106
1700.8224
925.27174
4.595319
-115.23648
-107.99896
-58.573896
-32.363929
-22.811191
-13.631672
-9.3370245
-7.6377752
-6.6745944
-5.9028928
-5.1719124
-4.434982
-3.6934325
-2.9587934
-2.2527283
-1.5842167
-0.95954641
-0.38186928
0.1478206
0.63011795
1.066752
1.4601818
1.8132481
2.1290098
2.4105796
2.6609582
2.8825624
3.0789166
3.251966
3.4040104
3.5370636
3.6529387
3.7532285
3.8393236
3.912403
3.9735161
4.0235822
4.0630883
4.0934429
4.1237957
4.8122683
4.7877053
4.7596797
4.7238974
4.6791268
4.624569
4.5592026
4.4819245
4.3914573
4.2863318
4.1648471
4.0250631
3.8647848
3.6815702
3.4727228
3.235172
2.9657653
2.6610756
2.3171968
1.9306665
1.4980836
1.0164656
0.48365394
-0.10109928
-0.73631276
-1.4170717
-2.1328811
-2.8642648
-3.5862023
-4.2100932
-4.6865006
-4.9082935
-4.7107202
-4.3324604
-6.2753467
-12.313338
-15.637932
-36.680274
-81.736274
2.2464088
3740.6043
4237.8182
5234.0447
5459.0909
5789.2652
5623.1389
5181.9861
5001.4659
5253.003
5583.8296
5569.6554
5231.8454
5006.7987
5220.0859
5664.2521
5801.3886
5457.9589
5344.1336
4291.8549
3397.2659
-8.0262112
-100.62604
-44.55013
-17.961185
-10.972938
-5.9367628
-4.6804351
-5.1661019
-5.3862033
-5.1691539
-4.682375
-4.0386484
-3.3066046
-2.5633756
-1.8359712
-1.1449866
-0.50109266
0.090944893
0.62987344
1.1166294
1.5535576
1.9438054
2.2909169
2.5985362
2.8704843
3.1102426
3.321046
3.5060134
3.6678279
3.8089544
3.9315918
4.0377037
4.1289675
4.206887
4.2727295
4.3275912
4.3724635
4.408153
4.4358684
4.4598793
5.1590595
5.1403848
5.1169787
5.0862985
5.0477298
5.0005279
4.9436753
4.8760453
4.7963248
4.7029744
4.5941873
4.467897
4.3217585
4.1530895
3.9588725
3.7356887
3.479684
3.1881605
2.8546047
2.4756498
2.046866
1.5641814
1.0242725
0.42524687
-0.23230586
-0.94374528
-1.6974965
-2.4672772
-3.2012413
-3.8405726
-4.1535881
-3.8171416
-2.0736113
1.7185794
3.7197934
-2.2874262
13.029244
21.148433
48.439344
4424.3208
8136.5468
6705.7872
5717.135
5526.878
5562.3229
5457.7721
5261.3221
5160.6484
5221.9205
5323.6875
5319.7367
5217.2025
5166.8155
5280.3727
5478.8897
5574.3048
5534.9854
5740.0093
6672.895
8040.7357
4566.6128
41.491657
15.870516
14.107873
2.8072922
3.2140018
0.61014275
-2.9280792
-4.540404
-4.8073045
-4.4375859
-3.7562403
-2.9790842
-2.1789535
-1.4021605
-0.67271299
-0.00093175837
0.60948995
1.1586689
1.648974
2.0841033
2.4684285
2.8064831
3.102349
3.3617398
3.5879662
3.784854
3.9558759
4.1040811
4.2321528
4.3424681
4.4371301
4.5179353
4.5864295
4.6439666
4.6916363
4.7304126
4.7610289
4.7842236
4.802303
5.5144132
5.5000674
5.4813865
5.456494
5.4249298
5.3860139
5.3387721
5.2820913
5.2146317
5.1347957
5.040705