/*--------------------------------*- C++ -*----------------------------------*\
  =========                 |
  \\      /  F ield         | OpenFOAM: The Open Source CFD Toolbox
   \\    /   O peration     | Website:  https://openfoam.org
    \\  /    A nd           | Version:  9
     \\/     M anipulation  |
\*---------------------------------------------------------------------------*/
FoamFile
{
    format      ascii;
    class       surfaceScalarField;
    location    "0.15";
    object      phi;
}
// * * * * * * * * * * * * * * * * * * * * * * * * * * * * * * * * * * * * * //

dimensions      [0 3 -1 0 0 0 0];

internalField   nonuniform List<scalar> 
19800
(
-5.8343507e-05
6.4372005e-05
-5.8116515e-05
6.4256379e-05
-5.7835478e-05
6.4548076e-05
-5.7452246e-05
6.4532927e-05
-5.6961526e-05
6.4598587e-05
-5.6348258e-05
6.4599925e-05
-5.5576694e-05
6.453206e-05
-5.4619067e-05
6.435391e-05
-5.3432465e-05
6.4027464e-05
-5.1974228e-05
6.3518965e-05
-5.0204892e-05
6.2786348e-05
-4.8073311e-05
6.178559e-05
-4.5540786e-05
6.0479011e-05
-4.25628e-05
5.883079e-05
-3.9085256e-05
5.6797743e-05
-3.5067891e-05
5.4331138e-05
-3.0473096e-05
5.1421181e-05
-2.5257416e-05
4.8036958e-05
-1.9399309e-05
4.4158998e-05
-1.2892937e-05
3.9778293e-05
-5.7273646e-06
3.4895659e-05
2.0976529e-06
2.9507869e-05
1.0553372e-05
2.3612341e-05
1.954393e-05
1.7231609e-05
2.8747247e-05
1.0518335e-05
3.7424302e-05
3.7990946e-06
4.4723271e-05
-3.0889044e-06
5.1871803e-05
-9.6449527e-06
6.0576603e-05
-1.5535367e-05
6.9736606e-05
-2.1209483e-05
7.8518592e-05
-2.7090546e-05
8.6647242e-05
-3.3030035e-05
9.404113e-05
-3.9047002e-05
0.00010007301
-4.4713769e-05
0.00010473257
-5.0755228e-05
0.00010774892
-5.6912074e-05
0.00010886382
-6.314827e-05
0.00010800482
-6.9358971e-05
0.00010527701
-7.5491557e-05
0.00010121169
-8.210879e-05
9.5535367e-05
-8.7924082e-05
8.8197492e-05
-9.3147971e-05
7.9588953e-05
-9.832882e-05
6.9945583e-05
-0.00010313071
5.94935e-05
-0.00010744712
4.8435708e-05
-0.00011116976
3.6981474e-05
-0.00011422193
2.5328265e-05
-0.00011652952
1.3642218e-05
-0.00011807607
2.0300221e-06
-0.000118875
-9.6518532e-06
-0.00011877837
-2.154027e-05
-0.00011779508
-3.3511563e-05
-0.00011609088
-4.5393976e-05
-0.00011363505
-5.6980806e-05
-0.00011043564
-6.8009868e-05
-0.00010662954
-7.8251769e-05
-0.00010229033
-8.7462478e-05
-9.7503246e-05
-9.5415694e-05
-9.2301413e-05
-0.00010214852
-8.6416802e-05
-0.00010725625
-8.0630271e-05
-0.00011053488
-7.4734319e-05
-0.00011188898
-6.8691027e-05
-0.00011122388
-6.2544882e-05
-0.00010857033
-5.6392651e-05
-0.00010418479
-5.0335974e-05
-9.8308125e-05
-4.4446842e-05
-9.0784255e-05
-3.9134354e-05
-8.3028177e-05
-3.259639e-05
-7.4371889e-05
-2.6951941e-05
-6.5227152e-05
-2.1160067e-05
-5.6430024e-05
-1.5559376e-05
-4.9164256e-05
-9.8343696e-06
-4.1886432e-05
-3.0732814e-06
-3.2845867e-05
3.4243549e-06
-2.3605421e-05
1.0481917e-05
-1.4465135e-05
1.7087778e-05
-5.8326962e-06
2.342273e-05
2.1805835e-06
2.9292427e-05
9.5420232e-06
3.4665795e-05
1.6241863e-05
3.9538027e-05
2.2296677e-05
4.3913138e-05
2.7711475e-05
4.7785951e-05
3.2504519e-05
5.1163859e-05
3.6721926e-05
5.4071035e-05
4.0389184e-05
5.6533548e-05
4.3545899e-05
5.8567932e-05
4.624648e-05
6.0220469e-05
4.8542296e-05
6.1530535e-05
5.0479942e-05
6.2531056e-05
5.2106156e-05
6.3257968e-05
5.3463263e-05
6.3761663e-05
5.4589166e-05
6.4075884e-05
5.5521968e-05
6.4242967e-05
5.6293695e-05
6.4304545e-05
5.6937233e-05
6.4292372e-05
5.7469988e-05
6.4224899e-05
5.7873869e-05
6.422464e-05
5.823592e-05
6.399156e-05
6.4090498e-05
-5.8206985e-05
6.4101529e-05
-5.7895535e-05
6.3958327e-05
-5.7531217e-05
6.4176196e-05
-5.7127169e-05
6.4129066e-05
-5.6660238e-05
6.4121624e-05
-5.6101213e-05
6.4043034e-05
-5.5434757e-05
6.3860959e-05
-5.4631549e-05
6.3538948e-05
-5.365233e-05
6.3044707e-05
-5.2471501e-05
6.2329895e-05
-5.1031782e-05
6.1345394e-05
-4.9293026e-05
6.0054482e-05
-4.7220083e-05
5.8406753e-05
-4.4755645e-05
5.6364381e-05
-4.1842962e-05
5.3885121e-05
-3.8447824e-05
5.0933971e-05
-3.4518264e-05
4.7490049e-05
-3.0011437e-05
4.3529332e-05
-2.4904371e-05
3.904728e-05
-1.9182549e-05
3.4050841e-05
-1.2838209e-05
2.8549618e-05
-5.9055712e-06
2.2574533e-05
1.5488919e-06
1.615495e-05
9.4483335e-06
9.3301424e-06
1.7475339e-05
2.4933965e-06
2.5647182e-05
-4.3687035e-06
3.3935374e-05
-1.1375334e-05
4.2732084e-05
-1.8443098e-05
5.1444298e-05
-2.4248441e-05
6.0229493e-05
-2.9991249e-05
6.8672852e-05
-3.552773e-05
7.6464824e-05
-4.0818446e-05
8.3452179e-05
-4.6036826e-05
8.9290118e-05
-5.0557353e-05
9.3738945e-05
-5.5205431e-05
9.6654267e-05
-5.9822314e-05
9.7903798e-05
-6.439348e-05
9.7455828e-05
-6.8912381e-05
9.5359275e-05
-7.3397884e-05
9.121569e-05
-7.796584e-05
8.5569415e-05
-8.2279614e-05
7.9282725e-05
-8.6868139e-05
7.1758393e-05
-9.0814189e-05
6.3137833e-05
-9.4517433e-05
5.380606e-05
-9.8117724e-05
4.3959211e-05
-0.00010132385
3.3763281e-05
-0.00010402809
2.3355818e-05
-0.00010612239
1.2813406e-05
-0.00010753163
2.1412558e-06
-0.00010819972
-8.608616e-06
-0.00010802888
-1.9378304e-05
-0.00010703062
-3.0150422e-05
-0.00010531864
-4.0823927e-05
-0.00010295791
-5.1239535e-05
-0.00010002001
-6.1236843e-05
-9.6630879e-05
-7.0616693e-05
-9.2905e-05
-7.9177302e-05
-8.8944981e-05
-8.668233e-05
-8.4797484e-05
-9.2625317e-05
-8.0466112e-05
-9.7072461e-05
-7.6185766e-05
-9.9883518e-05
-7.1925725e-05
-0.00010093119
-6.7638844e-05
-0.00010017203
-6.3303153e-05
-9.7634826e-05
-5.8926438e-05
-9.3436527e-05
-5.4539184e-05
-8.7405462e-05
-5.0476601e-05
-8.1173728e-05
-4.5361266e-05
-7.3340154e-05
-4.0429559e-05
-6.4951174e-05
-3.5345523e-05
-5.617685e-05
-2.9940379e-05
-4.7485865e-05
-2.4249727e-05
-3.9017251e-05
-1.8301302e-05
-3.0164422e-05
-1.1924122e-05
-2.1913511e-05
-4.827004e-06
-1.3617598e-05
2.179252e-06
-5.4975382e-06
8.9595033e-06
2.1503151e-06
1.5770799e-05
9.2763373e-06
2.2165217e-05
1.5817939e-05
2.8122438e-05
2.174182e-05
3.3615479e-05
2.7052559e-05
3.8605618e-05
3.1760725e-05
4.3081238e-05
3.588842e-05
4.7039699e-05
3.9474567e-05
5.048546e-05
4.2569528e-05
5.3438091e-05
4.5215545e-05
5.5922434e-05
4.7462745e-05
5.7969972e-05
4.9367954e-05
5.9622798e-05
5.097637e-05
6.0922198e-05
5.232771e-05
6.1909235e-05
5.3467571e-05
6.2619837e-05
5.4429712e-05
6.3111444e-05
5.5248805e-05
6.3425555e-05
5.5951511e-05
6.3600177e-05
5.6563177e-05
6.3673394e-05
5.710259e-05
6.3673275e-05
5.7607606e-05
6.3705787e-05
5.8053395e-05
6.3529865e-05
6.3637618e-05
-5.8257892e-05
6.3780755e-05
-5.7955772e-05
6.3650572e-05
-5.7596966e-05
6.3819119e-05
-5.72333e-05
6.3756713e-05
-5.6822517e-05
6.3715883e-05
-5.6358496e-05
6.3580768e-05
-5.5824899e-05
6.3322811e-05
-5.5191615e-05
6.2908848e-05
-5.4429368e-05
6.2279566e-05
-5.3497509e-05
6.1397087e-05
-5.2352291e-05
6.0206864e-05
-5.095407e-05
5.8657611e-05
-4.9254487e-05
5.6705453e-05
-4.7197007e-05
5.4306936e-05
-4.4729475e-05
5.1414732e-05
-4.1788836e-05
4.7988727e-05
-3.8324711e-05
4.4021956e-05
-3.4287873e-05
3.9486522e-05
-2.9636143e-05
3.4389539e-05
-2.4334896e-05
2.8748069e-05
-1.8383756e-05
2.2599074e-05
-1.1808002e-05
1.5997392e-05
-4.6853106e-06
9.0305226e-06
3.0766695e-06
1.5689731e-06
1.170467e-05
-6.1323119e-06
2.0652037e-05
-1.331516e-05
2.9687793e-05
-2.0412804e-05
3.8558486e-05
-2.7316097e-05
4.7697955e-05
-3.3386194e-05
5.675886e-05
-3.9045167e-05
6.5357256e-05
-4.4119788e-05
7.3137745e-05
-4.8598385e-05
8.0031361e-05
-5.293264e-05
8.6561842e-05
-5.7087899e-05
9.120527e-05
-5.9846941e-05
9.4221242e-05
-6.2836884e-05
9.5509914e-05
-6.5682328e-05
9.5030643e-05
-6.843357e-05
9.2806699e-05
-7.1173439e-05
8.8830186e-05
-7.3989952e-05
8.3397418e-05
-7.6851137e-05
7.6384944e-05
-7.9861211e-05
6.8690352e-05
-8.3122345e-05
6.048234e-05
-8.6311102e-05
5.1423642e-05
-8.9062105e-05
4.1879367e-05
-9.1782285e-05
3.2071236e-05
-9.4219803e-05
2.2157325e-05
-9.6204998e-05
1.2225365e-05
-9.7598643e-05
2.3231327e-06
-9.8299642e-05
-7.6649805e-06
-9.8042121e-05
-1.7850148e-05
-9.684897e-05
-2.8169536e-05
-9.4999607e-05
-3.850818e-05
-9.2613877e-05
-4.8714351e-05
-8.981127e-05
-5.8603116e-05
-8.6744833e-05
-6.7949591e-05
-8.3556127e-05
-7.6517968e-05
-8.0373755e-05
-8.4031801e-05
-7.7284923e-05
-9.0157746e-05
-7.4340281e-05
-9.47462e-05
-7.1598642e-05
-9.7636742e-05
-6.9033911e-05
-9.8709436e-05
-6.656431e-05
-9.7919001e-05
-6.4098942e-05
-9.5291504e-05
-6.155434e-05
-9.0897415e-05
-5.8926604e-05
-8.5174376e-05
-5.6205781e-05
-7.8048242e-05
-5.2484615e-05
-7.0231915e-05
-4.8242581e-05
-6.1618389e-05
-4.3955632e-05
-5.249508e-05
-3.9061607e-05
-4.3213523e-05
-3.3538203e-05
-3.3838743e-05
-2.7683543e-05
-2.5039534e-05
-2.0725236e-05
-1.6103588e-05
-1.3760714e-05
-7.2956116e-06
-6.6196102e-06
7.1590651e-07
9.5311987e-07
8.0295286e-06
8.4515184e-06
1.4806889e-05
1.5390153e-05
2.0963136e-05
2.1974958e-05
2.6467685e-05
2.8113934e-05
3.1325644e-05
3.3753301e-05
3.5565644e-05
3.884572e-05
3.9228057e-05
4.3379754e-05
4.2363941e-05
4.7350454e-05
4.5016383e-05
5.0779175e-05
4.7254088e-05
5.3684632e-05
4.9127947e-05
5.6096617e-05
5.0693907e-05
5.8058192e-05
5.200056e-05
5.9615513e-05
5.3099183e-05
6.0811752e-05
5.4021914e-05
6.169471e-05
5.4810089e-05
6.2321524e-05
5.5494034e-05
6.274301e-05
5.6096487e-05
6.2993414e-05
5.6647888e-05
6.3121197e-05
5.7157494e-05
6.3164844e-05
5.7655464e-05
6.321322e-05
5.8106562e-05
6.3072141e-05
6.3143535e-05
-5.8224833e-05
6.3387942e-05
-5.7894661e-05
6.3324008e-05
-5.7552388e-05
6.3469159e-05
-5.7217668e-05
6.3426224e-05
-5.6885307e-05
6.3387028e-05
-5.653704e-05
6.3230559e-05
-5.6148668e-05
6.2940719e-05
-5.571202e-05
6.2473126e-05
-5.5194773e-05
6.1761558e-05
-5.454865e-05
6.0756179e-05
-5.3746303e-05
5.9405859e-05
-5.2737488e-05
5.7647267e-05
-5.1464612e-05
5.5433496e-05
-4.987114e-05
5.2711833e-05
-4.7896951e-05
4.943497e-05
-4.5485659e-05
4.5571072e-05
-4.255673e-05
4.1085509e-05
-3.9054511e-05
3.597746e-05
-3.4912607e-05
3.0245712e-05
-3.0080455e-05
2.3917043e-05
-2.4528641e-05
1.7046583e-05
-1.822854e-05
9.6955232e-06
-1.1153132e-05
1.9555537e-06
-3.5010962e-06
-6.0814655e-06
4.5501806e-06
-1.4184223e-05
1.33093e-05
-2.2077071e-05
2.2467181e-05
-2.9572309e-05
3.1897529e-05
-3.6744566e-05
4.174118e-05
-4.3224606e-05
5.1425628e-05
-4.8723104e-05
6.0735451e-05
-5.3425392e-05
6.9478e-05
-5.7340523e-05
7.7211467e-05
-6.0666657e-05
8.3582345e-05
-6.3458542e-05
8.8455635e-05
-6.4720954e-05
9.1711383e-05
-6.6093714e-05
9.3168381e-05
-6.7138373e-05
9.2765897e-05
-6.8029625e-05
9.0538451e-05
-6.8947052e-05
8.6585263e-05
-7.0039023e-05
8.1134299e-05
-7.1400597e-05
7.4396865e-05
-7.3123436e-05
6.6493786e-05
-7.5220961e-05
5.7823179e-05
-7.7644969e-05
4.9098096e-05
-8.0340244e-05
4.0009538e-05
-8.2691891e-05
3.0662839e-05
-8.4870574e-05
2.1290354e-05
-8.6831989e-05
1.1940592e-05
-8.8251305e-05
2.5864015e-06
-8.8949231e-05
-6.8622891e-06
-8.8592223e-05
-1.6505603e-05
-8.7204733e-05
-2.6350577e-05
-8.5155603e-05
-3.6315566e-05
-8.2647366e-05
-4.6286565e-05
-7.983698e-05
-5.6072574e-05
-7.6958753e-05
-6.5427391e-05
-7.4201991e-05
-7.40714e-05
-7.1730759e-05
-8.1689002e-05
-6.9665847e-05
-8.7977295e-05
-6.8053253e-05
-9.2685848e-05
-6.6895141e-05
-9.5606558e-05
-6.6108219e-05
-9.6616446e-05
-6.5554211e-05
-9.56641e-05
-6.5059158e-05
-9.276307e-05
-6.4455853e-05
-8.7757436e-05
-6.3929266e-05
-8.1905193e-05
-6.2048429e-05
-7.446183e-05
-5.9932433e-05
-6.577793e-05
-5.6934345e-05
-5.6456974e-05
-5.3282274e-05
-4.6702796e-05
-4.881807e-05
-3.6846073e-05
-4.3388155e-05
-2.7276702e-05
-3.7247692e-05
-1.7903507e-05
-3.010088e-05
-8.9695575e-06
-2.2693208e-05
-6.9003498e-07
-1.4902812e-05
7.1218014e-06
-6.8724821e-06
1.4420691e-05
1.1514333e-06
2.0934908e-05
8.872436e-06
2.6699254e-05
1.6210115e-05
3.1743726e-05
2.3074658e-05
3.6091492e-05
2.9403518e-05
3.9802411e-05
3.5141319e-05
4.2931256e-05
4.0254023e-05
4.5538263e-05
4.4746697e-05
4.769659e-05
4.8626177e-05
4.9467118e-05
5.1915729e-05
5.0913106e-05
5.4650279e-05
5.2092227e-05
5.6877743e-05
5.3060886e-05
5.8647163e-05
5.3864822e-05
6.000714e-05
5.4543763e-05
6.1018301e-05
5.5137544e-05
6.1728448e-05
5.565839e-05
6.2217842e-05
5.6151189e-05
6.2494856e-05
5.6631072e-05
6.2636053e-05
5.7097894e-05
6.2692335e-05
5.7587866e-05
6.2726075e-05
5.8065567e-05
6.2589694e-05
6.2601232e-05
-5.8169586e-05
6.2946311e-05
-5.7816156e-05
6.2963399e-05
-5.7477253e-05
6.3135701e-05
-5.7184012e-05
6.3135896e-05
-5.692179e-05
6.3123676e-05
-5.6698651e-05
6.3015214e-05
-5.650965e-05
6.2755417e-05
-5.631281e-05
6.2276641e-05
-5.6087033e-05
6.1540157e-05
-5.5785219e-05
6.0454831e-05
-5.5382649e-05
5.9000712e-05
-5.4824004e-05
5.7089697e-05
-5.4054263e-05
5.4664242e-05
-5.301156e-05
5.1665248e-05
-5.16276e-05
4.8045002e-05
-4.981997e-05
4.3756156e-05
-4.7507441e-05
3.8766314e-05
-4.4610286e-05
3.307817e-05
-4.105709e-05
2.6693492e-05
-3.676252e-05
1.962161e-05
-3.1677227e-05
1.1958776e-05
-2.575059e-05
3.7684685e-06
-1.8955102e-05
-4.8385251e-06
-1.1370966e-05
-1.3666209e-05
-3.0436401e-06
-2.251514e-05
6.0657985e-06
-3.1189059e-05
1.5840551e-05
-3.934454e-05
2.599521e-05
-4.6893308e-05
3.633695e-05
-5.3562124e-05
4.6948182e-05
-5.9332742e-05
5.7130819e-05
-6.3606252e-05
6.6616731e-05
-6.6824825e-05
7.5107092e-05
-6.9158336e-05
8.2029154e-05
-7.0384481e-05
8.7673517e-05
-7.0368114e-05
9.1379343e-05
-6.9798359e-05
9.3064399e-05
-6.8820181e-05
9.2695552e-05
-6.7660208e-05
9.0332751e-05
-6.6586489e-05
8.6136253e-05
-6.5842329e-05
8.0358856e-05
-6.5619575e-05
7.327407e-05
-6.6038739e-05
6.5189887e-05
-6.7142485e-05
5.6413088e-05
-6.8872715e-05
4.7146356e-05
-7.1072583e-05
3.8071621e-05
-7.3612624e-05
2.9247069e-05
-7.604535e-05
2.0361586e-05
-7.7948785e-05
1.1620983e-05
-7.9511695e-05
2.9582118e-06
-8.028906e-05
-5.8166877e-06
-7.9816615e-05
-1.490853e-05
-7.8110238e-05
-2.4399104e-05
-7.5664758e-05
-3.4159028e-05
-7.288941e-05
-4.4150192e-05
-6.9845665e-05
-5.4128858e-05
-6.6976295e-05
-6.3818461e-05
-6.4510924e-05
-7.2894149e-05
-6.2664118e-05
-8.0978835e-05
-6.158242e-05
-8.7698748e-05
-6.1322746e-05
-9.2759191e-05
-6.1840573e-05
-9.5878113e-05
-6.2992838e-05
-9.6883724e-05
-6.4546405e-05
-9.5727859e-05
-6.6222296e-05
-9.2483803e-05
-6.7701955e-05
-8.7408757e-05
-6.9010752e-05
-8.0356803e-05
-6.9100798e-05
-7.1923314e-05
-6.8362821e-05
-6.2445563e-05
-6.6414142e-05
-5.223346e-05
-6.3496077e-05
-4.1718766e-05
-5.9340249e-05
-3.097394e-05
-5.4142255e-05
-2.0713511e-05
-4.7511156e-05
-1.0754145e-05
-4.0063658e-05
-1.4487257e-06
-3.2007616e-05
7.095881e-06
-2.3448021e-05
1.4916006e-05
-1.4690254e-05
2.1928887e-05
-5.8626723e-06
2.807636e-05
2.7218421e-06
3.3377329e-05
1.0908886e-05
3.7887177e-05
1.8568337e-05
4.1650382e-05
2.5642727e-05
4.4752846e-05
3.2038949e-05
4.7264487e-05
3.774237e-05
4.9267677e-05
4.2746155e-05
5.0841156e-05
4.7051575e-05
5.2064021e-05
5.0689646e-05
5.301018e-05
5.3707423e-05
5.3740074e-05
5.6148615e-05
5.4307289e-05
5.8075937e-05
5.4763194e-05
5.954858e-05
5.5147416e-05
6.0634011e-05
5.5490214e-05
6.1381103e-05
5.5835471e-05
6.1866689e-05
5.6203125e-05
6.2127298e-05
5.6580496e-05
6.2254307e-05
5.7017833e-05
6.225192e-05
5.7493485e-05
6.2254293e-05
5.7994046e-05
6.2089669e-05
6.2015727e-05
-5.804431e-05
6.2456476e-05
-5.767643e-05
6.2599119e-05
-5.7366101e-05
6.2826628e-05
-5.7139954e-05
6.2905868e-05
-5.6992889e-05
6.2982608e-05
-5.6921377e-05
6.2946894e-05
-5.6913166e-05
6.274775e-05
-5.6958052e-05
6.2326131e-05
-5.7025591e-05
6.1608426e-05
-5.7129842e-05
6.0555948e-05
-5.7178375e-05
5.9050085e-05
-5.7127472e-05
5.7041169e-05
-5.6923222e-05
5.4459075e-05
-5.6497495e-05
5.1236108e-05
-5.5765143e-05
4.7307608e-05
-5.4637938e-05
4.2624002e-05
-5.302284e-05
3.7149944e-05
-5.0805689e-05
3.0862137e-05
-4.7887213e-05
2.377341e-05
-4.4194683e-05
1.5925068e-05
-3.9610334e-05
7.373004e-06
-3.4044699e-05
-1.7956517e-06
-2.7479408e-05
-1.1404151e-05
-1.9896151e-05
-2.1253173e-05
-1.1275153e-05
-3.1138951e-05
-1.7746658e-06
-4.0687619e-05
8.6317487e-06
-4.9745767e-05
1.9710818e-05
-5.7969019e-05
3.1215712e-05
-6.5068258e-05
4.2923896e-05
-7.104322e-05
5.4291136e-05
-7.4972448e-05
6.5002385e-05
-7.7534729e-05
7.4575905e-05
-7.8735321e-05
8.2621516e-05
-7.8435233e-05
8.8926843e-05
-7.6673795e-05
9.3170068e-05
-7.403791e-05
9.5115787e-05
-7.0764035e-05
9.471252e-05
-6.725799e-05
9.2065557e-05
-6.3939629e-05
8.7382538e-05
-6.1157502e-05
8.0974147e-05
-5.9210219e-05
7.3212992e-05
-5.828039e-05
6.4518407e-05
-5.8451904e-05
5.5321174e-05
-5.9675935e-05
4.5991159e-05
-6.1741312e-05
3.6706355e-05
-6.4325629e-05
2.777876e-05
-6.7117643e-05
1.9449408e-05
-6.962197e-05
1.1366748e-05
-7.1428117e-05
3.4472923e-06
-7.236869e-05
-4.607434e-06
-7.1761391e-05
-1.3095192e-05
-6.9624079e-05
-2.209938e-05
-6.6660857e-05
-3.1889701e-05
-6.3095891e-05
-4.2156084e-05
-5.9580786e-05
-5.2610642e-05
-5.6526499e-05
-6.2965026e-05
-5.4155284e-05
-7.2828125e-05
-5.2799521e-05
-8.1739735e-05
-5.2672782e-05
-8.9225174e-05
-5.383471e-05
-9.4882489e-05
-5.6191339e-05
-9.8355014e-05
-5.9521071e-05
-9.9430228e-05
-6.3477243e-05
-9.7989227e-05
-6.7655179e-05
-9.4081069e-05
-7.1615196e-05
-8.8297703e-05
-7.4797458e-05
-8.0275939e-05
-7.7125943e-05
-7.0687786e-05
-7.795668e-05
-5.9904975e-05
-7.7196362e-05
-4.8367435e-05
-7.5033853e-05
-3.6362048e-05
-7.1352712e-05
-2.4868557e-05
-6.5637717e-05
-1.3630315e-05
-5.8755624e-05
-3.0203067e-06
-5.067812e-05
6.7022884e-06
-4.1728939e-05
1.55178e-05
-3.2267e-05
2.3432994e-05
-2.2603335e-05
3.0214631e-05
-1.2631538e-05
3.6005634e-05
-3.062875e-06
4.0805424e-05
6.109675e-06
4.4716026e-05
1.4656207e-05
4.7852681e-05
2.2512228e-05
5.0280286e-05
2.961731e-05
5.2096159e-05
3.5925631e-05
5.3419798e-05
4.1423391e-05
5.4341532e-05
4.6131396e-05
5.49504e-05
5.0082949e-05
5.5328568e-05
5.3328302e-05
5.5552863e-05
5.5930852e-05
5.5669687e-05
5.7961385e-05
5.5734101e-05
5.9477862e-05
5.5809866e-05
6.0553418e-05
5.5906179e-05
6.1279748e-05
5.6054462e-05
6.1711858e-05
5.6264424e-05
6.1918434e-05
5.6553073e-05
6.1963685e-05
5.6917298e-05
6.1885331e-05
5.7366203e-05
6.1803481e-05
5.7877046e-05
6.1582358e-05
6.1398656e-05
-5.7853955e-05
6.1921884e-05
-5.7459466e-05
6.220192e-05
-5.716708e-05
6.2529299e-05
-5.6992446e-05
6.2734458e-05
-5.6947935e-05
6.2938448e-05
-5.7034128e-05
6.3032378e-05
-5.724308e-05
6.2961481e-05
-5.7584298e-05
6.2669287e-05
-5.8024081e-05
6.2045767e-05
-5.8520613e-05
6.1053274e-05
-5.9053825e-05
5.9586584e-05
-5.9580172e-05
5.7568899e-05
-6.0009084e-05
5.4887491e-05
-6.0278115e-05
5.1503133e-05
-6.0290683e-05
4.7317803e-05
-5.9941394e-05
4.2275223e-05
-5.9113657e-05
3.632453e-05
-5.7685771e-05
2.9432875e-05
-5.5526771e-05
2.1609073e-05
-5.2494842e-05
1.2890139e-05
-4.8466638e-05
3.3466146e-06
-4.3290415e-05
-6.9706261e-06
-3.6961288e-05
-1.7736849e-05
-2.9428867e-05
-2.8789932e-05
-2.0453447e-05
-4.0113339e-05
-1.0384745e-05
-5.0751538e-05
8.5821354e-07
-6.0987209e-05
1.3061102e-05
-7.0175653e-05
2.5919796e-05
-7.7931157e-05
3.8964405e-05
-8.4088414e-05
5.2098294e-05
-8.8104644e-05
6.451246e-05
-8.994924e-05
7.5628144e-05
-8.9854237e-05
8.5029757e-05
-8.7838606e-05
9.2439727e-05
-8.4081747e-05
9.7398696e-05
-7.8994415e-05
9.963191e-05
-7.2997351e-05
9.9115687e-05
-6.6742613e-05
9.5973148e-05
-6.0796597e-05
9.0484277e-05
-5.5669125e-05
8.3066428e-05
-5.1793837e-05
7.421269e-05
-4.9427162e-05
6.4479778e-05
-4.8719128e-05
5.4446253e-05
-4.9641639e-05
4.4581511e-05
-5.1876705e-05
3.5100179e-05
-5.4843417e-05
2.6348933e-05
-5.836512e-05
1.8414431e-05
-6.1689565e-05
1.1085804e-05
-6.409858e-05
4.0781879e-06
-6.5359837e-05
-3.1028437e-06
-6.4580002e-05
-1.0945326e-05
-6.1783408e-05
-1.9706323e-05
-5.7900579e-05
-2.9352054e-05
-5.3445008e-05
-3.9912337e-05
-4.9022341e-05
-5.1320525e-05
-4.5125464e-05
-6.276162e-05
-4.2714517e-05
-7.3875651e-05
-4.1683157e-05
-8.4074451e-05
-4.247367e-05
-9.2736863e-05
-4.516526e-05
-9.932921e-05
-4.960848e-05
-0.00010338532
-5.5464057e-05
-0.00010461461
-6.2256688e-05
-0.00010290325
-6.9367126e-05
-9.8329887e-05
-7.6186574e-05
-9.1347986e-05
-8.1779074e-05
-8.1850224e-05
-8.6618066e-05
-7.0641292e-05
-8.9164621e-05
-5.8126295e-05
-8.9714767e-05
-4.4935136e-05
-8.8227273e-05
-3.157177e-05
-8.4718758e-05
-1.8461252e-05
-7.875634e-05
-6.0115992e-06
-7.121257e-05
5.4816831e-06
-6.2170508e-05
1.5801785e-05
-5.2045083e-05
2.5095001e-05
-4.1553309e-05
3.2726787e-05
-3.0240186e-05
3.9490455e-05
-1.939696e-05
4.4835594e-05
-8.4023048e-06
4.9098457e-05
1.843451e-06
5.2362331e-05
1.1394738e-05
5.4747849e-05
2.0128139e-05
5.6390343e-05
2.7971819e-05
5.7423545e-05
3.4893489e-05
5.7969998e-05
4.0878088e-05
5.8145227e-05
4.5950226e-05
5.8057759e-05
5.0165674e-05
5.7802906e-05
5.3583457e-05
5.7451255e-05
5.6286123e-05
5.7078247e-05
5.8331288e-05
5.6730006e-05
5.9822963e-05
5.644278e-05
6.083993e-05
5.6252308e-05
6.1472093e-05
5.6181455e-05
6.1783726e-05
5.6231402e-05
6.1868e-05
5.6412871e-05
6.1781332e-05
5.6723463e-05
6.1577388e-05
5.7152389e-05
6.1375155e-05
5.7690557e-05
6.104185e-05
6.0725807e-05
-5.7563914e-05
6.1308733e-05
-5.7137123e-05
6.1767992e-05
-5.6835906e-05
6.2231575e-05
-5.6706342e-05
6.2602507e-05
-5.6766259e-05
6.2995896e-05
-5.7012752e-05
6.3283766e-05
-5.7455998e-05
6.3408325e-05
-5.8086653e-05
6.3299514e-05
-5.8906413e-05
6.2867312e-05
-5.9876113e-05
6.2026674e-05
-6.0956526e-05
6.0669156e-05
-6.2091782e-05
5.8705061e-05
-6.325131e-05
5.6046907e-05
-6.4309828e-05
5.2561176e-05
-6.5170828e-05
4.8180991e-05
-6.5713322e-05
4.282182e-05
-6.5804689e-05
3.6416051e-05
-6.5294413e-05
2.8917489e-05
-6.4002611e-05
2.0313402e-05
-6.1758067e-05
1.0647272e-05
-5.8381983e-05
-2.6597149e-08
-5.3753258e-05
-1.1601145e-05
-4.7686581e-05
-2.3808555e-05
-4.006076e-05
-3.641764e-05
-3.0923868e-05
-4.9247221e-05
-2.0121984e-05
-6.1551602e-05
-7.8296171e-06
-7.3284055e-05
5.776261e-06
-8.378793e-05
2.0343536e-05
-9.2499302e-05
3.5404189e-05
-9.9145189e-05
5.0763238e-05
-0.00010346111
6.5327014e-05
-0.00010451339
7.8475396e-05
-0.00010300329
8.9522908e-05
-9.8885764e-05
9.8588016e-05
-9.3146577e-05
0.00010448731
-8.4893485e-05
0.00010706806
-7.5577479e-05
0.00010628284
-6.5957739e-05
0.00010234789
-5.6862381e-05
9.5612057e-05
-4.8933035e-05
8.6678662e-05
-4.2858853e-05
7.6199796e-05
-3.8947286e-05
6.4905864e-05
-3.7427209e-05
5.3568777e-05
-3.8304402e-05
4.2575352e-05
-4.0881806e-05
3.2911192e-05
-4.5179182e-05
2.4374332e-05
-4.982583e-05
1.6970914e-05
-5.4284104e-05
1.0649819e-05
-5.7776633e-05
4.87127e-06
-5.9584865e-05
-1.1081886e-06
-5.8599191e-05
-8.0444949e-06
-5.4841947e-05
-1.6365215e-05
-4.9585401e-05
-2.6227598e-05
-4.3586569e-05
-3.7537109e-05
-3.77097e-05
-4.9843651e-05
-3.2817539e-05
-6.3051277e-05
-2.9506395e-05
-7.60175e-05
-2.8720568e-05
-8.8102415e-05
-3.0388178e-05
-9.8485275e-05
-3.4779631e-05
-0.00010644719
-4.163931e-05
-0.00011139284
-5.0520152e-05
-0.00011289909
-6.0752444e-05
-0.00011083587
-7.1429158e-05
-0.00010534504
-8.16782e-05
-9.6766413e-05
-9.0351013e-05
-8.5247798e-05
-9.8130487e-05
-7.190698e-05
-0.00010250597
-5.7163581e-05
-0.00010445652
-4.1783398e-05
-0.00010361575
-2.6292454e-05
-0.00010021908
-1.1394156e-05
-9.3652781e-05
2.5213472e-06
-8.5128023e-05
1.5115378e-05
-7.4768802e-05
2.623054e-05
-6.3163686e-05
3.5636005e-05
-5.0954679e-05
4.3567332e-05
-3.8174219e-05
4.9791517e-05
-2.5628114e-05
5.4740651e-05
-1.3349338e-05
5.8371235e-05
-1.7831025e-06
6.0856728e-05
8.9136211e-06
6.2377752e-05
1.860652e-05
6.3109889e-05
2.7243268e-05
6.3229286e-05
3.4776627e-05
6.2880329e-05
4.1220372e-05
6.2209044e-05
4.6620316e-05
6.1336136e-05
5.1039491e-05
6.0361651e-05
5.4559667e-05
5.9391018e-05
5.7259972e-05
5.8466879e-05
5.9254471e-05
5.7647466e-05
6.0640149e-05
5.6975513e-05
6.1506749e-05
5.6483962e-05
6.1961758e-05
5.6178178e-05
6.2088158e-05
5.6059085e-05
6.1979307e-05
5.6138895e-05
6.1704727e-05
5.6399313e-05
6.1323702e-05
5.6828345e-05
6.0947595e-05
5.7394859e-05
6.047709e-05
5.9983158e-05
-5.7139676e-05
6.0591301e-05
-5.6646189e-05
6.1277491e-05
-5.6326297e-05
6.1909015e-05
-5.6221077e-05
6.2494086e-05
-5.6378685e-05
6.3157897e-05
-5.6773927e-05
6.3683331e-05
-5.745465e-05
6.4090594e-05
-5.8410911e-05
6.4259258e-05
-5.9637107e-05
6.4097916e-05
-6.1112193e-05
6.3504083e-05
-6.2800414e-05
6.2358379e-05
-6.465393e-05
6.0558657e-05
-6.6591577e-05
5.7984217e-05
-6.8533892e-05
5.4505971e-05
-7.0361585e-05
5.0014047e-05
-7.1937083e-05
4.4399616e-05
-7.3098637e-05
3.7574014e-05
-7.3659389e-05
2.9474604e-05
-7.3414228e-05
2.0070254e-05
-7.2129691e-05
9.3671774e-06
-6.959063e-05
-2.5655678e-06
-6.5593655e-05
-1.5602523e-05
-5.9901328e-05
-2.9504107e-05
-5.2338382e-05
-4.3980196e-05
-4.2809894e-05
-5.877521e-05
-3.1247561e-05
-7.3116672e-05
-1.7787751e-05
-8.6748146e-05
-2.3496906e-06
-9.9227182e-05
1.4323988e-05
-0.00010916939
3.2199667e-05
-0.00011701576
5.0031965e-05
-0.00012128999
6.7525553e-05
-0.00012200524
8.3674959e-05
-0.00011915239
9.7423825e-05
-0.00011263569
0.0001080332
-0.00010375683
0.00011505237
-9.1911835e-05
0.00011798979
-7.8513698e-05
0.00011669067
-6.4659443e-05
0.00011147446
-5.1645805e-05
0.00010261083
-4.0065429e-05
9.1274125e-05
-3.1518756e-05
7.8772704e-05
-2.6445446e-05
6.5520765e-05
-2.4178025e-05
5.216154e-05
-2.4945465e-05
4.0320528e-05
-2.9038315e-05
2.9805404e-05
-3.4663229e-05
2.131763e-05
-4.1335499e-05
1.4822912e-05
-4.7787899e-05
9.8791006e-06
-5.2830004e-05
5.8761216e-06
-5.5581952e-05
1.625405e-06
-5.4349154e-05
-3.9896179e-06
-4.9223457e-05
-1.1694192e-05
-4.1883196e-05
-2.1805842e-05
-3.3479617e-05
-3.4259539e-05
-2.5254614e-05
-4.8436505e-05
-1.8641732e-05
-6.3763142e-05
-1.4172736e-05
-7.9239003e-05
-1.3247193e-05
-9.3978138e-05
-1.564671e-05
-0.00010676805
-2.1988112e-05
-0.00011670943
-3.1705566e-05
-0.00012296978
-4.4255781e-05
-0.0001248856
-5.8835807e-05
-0.0001223402
-7.396882e-05
-0.00011540044
-8.8612253e-05
-0.00010415843
-0.00010159553
-9.0781006e-05
-0.00011151016
-7.4555852e-05
-0.00011872843
-5.6696375e-05
-0.00012231492
-3.8124196e-05
-0.0001221901
-2.035291e-05
-0.0001179963
-3.4313364e-06
-0.00011058352
1.2264668e-05
-0.00010082738
2.6176348e-05
-8.8680832e-05
3.8040797e-05
-7.502395e-05
4.7873777e-05
-6.0783257e-05
5.5729145e-05
-4.6030008e-05
6.1676573e-05
-3.1574663e-05
6.5955596e-05
-1.7634881e-05
6.8763996e-05
-4.5936604e-06
7.0298057e-05
7.3842049e-06
7.0773985e-05
1.8130235e-05
7.0438841e-05
2.7575584e-05
6.9491054e-05
3.5717854e-05
6.8113105e-05
4.2590277e-05
6.6474855e-05
4.8256136e-05
6.4715629e-05
5.2797652e-05
6.2953377e-05
5.6323001e-05
6.1271978e-05
5.8942848e-05
5.9744145e-05
6.0783517e-05
5.8414667e-05
6.1969682e-05
5.7331235e-05
6.2590096e-05
5.651031e-05
6.2781424e-05
5.5965371e-05
6.2635581e-05
5.5692486e-05
6.2247152e-05
5.5670481e-05
6.1727185e-05
5.5901575e-05
6.109044e-05
5.6344934e-05
6.0499777e-05
5.6961663e-05
5.9862062e-05
5.9150598e-05
-5.6543811e-05
5.9745658e-05
-5.5964241e-05
6.0694504e-05
-5.5601869e-05
6.1544826e-05
-5.5517604e-05
6.2414235e-05
-5.5718964e-05
6.3362453e-05
-5.6281974e-05
6.4247931e-05
-5.7191739e-05
6.5004491e-05
-5.8468286e-05
6.5540558e-05
-6.0119429e-05
6.5751551e-05
-6.2127516e-05
6.551326e-05
-6.4475381e-05
6.4706055e-05
-6.7098656e-05
6.3180687e-05
-6.9930146e-05
6.0817019e-05
-7.2870561e-05
5.7451589e-05
-7.5804923e-05
5.295225e-05
-7.8575643e-05
4.7168791e-05
-8.098938e-05
3.9985055e-05
-8.2828832e-05
3.1316287e-05
-8.3845251e-05
2.1092369e-05
-8.3754352e-05
9.2788021e-06
-8.2274833e-05
-4.0478536e-06
-7.9101414e-05
-1.8779385e-05
-7.3941453e-05
-3.4664644e-05
-6.6530984e-05
-5.1390887e-05
-5.6667105e-05
-6.8641674e-05
-4.4231898e-05
-8.5553868e-05
-2.9225025e-05
-0.00010175281
-1.1985816e-05
-0.00011646179
7.5335558e-06
-0.00012868502
2.8400586e-05
-0.00013787958
5.0017275e-05
-0.00014290292
7.1226827e-05
-0.00014321265
9.1089167e-05
-0.00013901605
0.00010799935
-0.00012954695
0.00012119995
-0.00011695487
0.00012981921
-0.00010052807
0.00013318583
-8.1879787e-05
0.00013054663
-6.2020667e-05
0.00012255559
-4.3653314e-05
0.00011141195
-2.8919157e-05
9.7639791e-05
-1.7745328e-05
8.2100035e-05
-1.09029e-05
6.6224916e-05
-8.3020741e-06
5.0582634e-05
-9.3046472e-06
3.6562749e-05
-1.5014761e-05
2.4917931e-05
-2.3013622e-05
1.6504441e-05
-3.2920713e-05
1.1281722e-05
-4.256862e-05
8.4730466e-06
-5.0017715e-05
7.1312298e-06
-5.4236257e-05
5.4430079e-06
-5.2664394e-05
1.7189286e-06
-4.5498258e-05
-4.9032137e-06
-3.5255617e-05
-1.5315206e-05
-2.3068327e-05
-2.945531e-05
-1.1118527e-05
-4.6033532e-05
-2.0696161e-06
-6.4316358e-05
4.1087795e-06
-8.3340171e-05
5.7866182e-06
-0.00010164247
2.6527798e-06
-0.00011745617
-6.1639019e-06
-0.00013036641
-1.8799229e-05
-0.00013886868
-3.5762402e-05
-0.00014143758
-5.6262453e-05
-0.0001383592
-7.7047498e-05
-0.0001297646
-9.7211556e-05
-0.0001162754
-0.00011507959
-9.9036894e-05
-0.00012874206
-7.8970587e-05
-0.00013880134
-5.7311228e-05
-0.00014397772
-3.539989e-05
-0.00014411241
-1.3992538e-05
-0.00013940875
5.9654509e-06
-0.00013054265
2.3665219e-05
-0.00011852713
3.8981421e-05
-0.00010399133
5.180972e-05
-8.7851369e-05
6.2019209e-05
-7.0997457e-05
6.9750848e-05
-5.375813e-05
7.5205802e-05
-3.7028842e-05
7.8668671e-05
-2.1099603e-05
8.0426855e-05
-6.3456862e-06
8.0771883e-05
7.0395909e-06
7.9991219e-05
1.8905292e-05
7.8374556e-05
2.918636e-05
7.6177723e-05
3.7914482e-05
7.3610614e-05
4.5156048e-05
7.0865344e-05
5.0998215e-05
6.810627e-05
5.5558778e-05
6.5451222e-05
5.8982149e-05
6.2995131e-05
6.139991e-05
6.0802256e-05
6.2974793e-05
5.8941203e-05
6.3826942e-05
5.7428883e-05
6.4102697e-05
5.6283318e-05
6.3926677e-05
5.5501562e-05
6.3420966e-05
5.5068759e-05
6.2689141e-05
5.4981621e-05
6.1818692e-05
5.5184924e-05
6.0883128e-05
5.5668747e-05
6.001957e-05
5.6365049e-05
5.9162901e-05
5.8191515e-05
-5.5747254e-05
5.8718453e-05
-5.5037537e-05
5.9984182e-05
-5.4586912e-05
6.1099252e-05
-5.4469627e-05
6.2298619e-05
-5.4728435e-05
6.3620928e-05
-5.5413343e-05
6.4935319e-05
-5.6546193e-05
6.6140711e-05
-5.8153824e-05
6.7150245e-05
-6.0246666e-05
6.7846024e-05
-6.2820861e-05
6.8087813e-05
-6.5865929e-05
6.7749427e-05
-6.9332586e-05
6.6647226e-05
-7.3150855e-05
6.4639388e-05
-7.7221847e-05
6.152682e-05
-8.1412918e-05
5.7143174e-05
-8.5564523e-05
5.1318671e-05
-8.9448104e-05
4.3871009e-05
-9.2804305e-05
3.4678441e-05
-9.5340909e-05
2.363286e-05
-9.6743367e-05
1.0680743e-05
-9.6612108e-05
-4.1808597e-06
-9.4558456e-05
-2.0833316e-05
-9.018652e-05