/*--------------------------------*- C++ -*----------------------------------*\
  =========                 |
  \\      /  F ield         | OpenFOAM: The Open Source CFD Toolbox
   \\    /   O peration     | Website:  https://openfoam.org
    \\  /    A nd           | Version:  9
     \\/     M anipulation  |
\*---------------------------------------------------------------------------*/
FoamFile
{
    format      ascii;
    class       volVectorField;
    location    "0.15";
    object      U;
}
// * * * * * * * * * * * * * * * * * * * * * * * * * * * * * * * * * * * * * //

dimensions      [0 1 -1 0 0 0 0];

internalField   nonuniform List<vector> 
10000
(
(-0.0048429885 0.0053025584 0)
(-0.006892625 0.0052945418 0)
(-0.0053916893 0.0053237587 0)
(-0.0058087256 0.0053313847 0)
(-0.005719337 0.0053467249 0)
(-0.0056666757 0.0053585929 0)
(-0.0055978743 0.0053665731 0)
(-0.0055123019 0.005368378 0)
(-0.0054059784 0.0053609706 0)
(-0.0052751449 0.005340744 0)
(-0.005115393 0.0053050908 0)
(-0.004922066 0.0052500698 0)
(-0.00469257 0.0051720699 0)
(-0.0044218358 0.0050694717 0)
(-0.0041015455 0.0049384705 0)
(-0.0037299396 0.0047736969 0)
(-0.0033048376 0.0045748243 0)
(-0.0028198555 0.0043396162 0)
(-0.002271446 0.0040647826 0)
(-0.0016591153 0.0037484615 0)
(-0.00098208835 0.0033907664 0)
(-0.00023892412 0.0029899782 0)
(0.0005687522 0.0025429673 0)
(0.0014347775 0.0020455368 0)
(0.0023429471 0.0014951234 0)
(0.0032528775 0.00088600508 0)
(0.0040453072 0.00023764433 0)
(0.004734229 -0.00028957831 0)
(0.0055139238 -0.00076410469 0)
(0.0064157218 -0.0012374131 0)
(0.0073232167 -0.0017415287 0)
(0.0081692786 -0.0022705224 0)
(0.0089359334 -0.0028211664 0)
(0.0095977902 -0.0033827607 0)
(0.010133189 -0.003989966 0)
(0.01052269 -0.0046266649 0)
(0.010737866 -0.0052859217 0)
(0.01076707 -0.0059537438 0)
(0.010650177 -0.0066193862 0)
(0.01031132 -0.0073061003 0)
(0.0097737454 -0.0079414511 0)
(0.0091248876 -0.0085279368 0)
(0.0083339371 -0.0090891821 0)
(0.007430149 -0.0096022442 0)
(0.0064351369 -0.010056945 0)
(0.0053699672 -0.010443574 0)
(0.0042529872 -0.010752723 0)
(0.003104357 -0.010977414 0)
(0.0019434294 -0.01111835 0)
(0.00078266099 -0.011181809 0)
(-0.00038004189 -0.01117693 0)
(-0.001554281 -0.011104091 0)
(-0.0027434455 -0.010955085 0)
(-0.0039344412 -0.010722691 0)
(-0.005101353 -0.010405818 0)
(-0.00622219 -0.010014622 0)
(-0.0072798566 -0.0095590385 0)
(-0.0082556239 -0.0090471474 0)
(-0.0091468518 -0.0084846574 0)
(-0.0098758289 -0.0078630155 0)
(-0.010417024 -0.0072297839 0)
(-0.010811272 -0.0065807276 0)
(-0.011031901 -0.0059197746 0)
(-0.011059787 -0.0052548996 0)
(-0.010887911 -0.0045995355 0)
(-0.010531531 -0.003967933 0)
(-0.010020064 -0.0033685838 0)
(-0.0094074395 -0.002825916 0)
(-0.0086419822 -0.0022480571 0)
(-0.0077713391 -0.0017341578 0)
(-0.0068792449 -0.0012344705 0)
(-0.0059743656 -0.00076478639 0)
(-0.0051827442 -0.00029895062 0)
(-0.0044768788 0.00023627218 0)
(-0.0037042259 0.00086547434 0)
(-0.0027875514 0.0014924259 0)
(-0.0018349037 0.0020382814 0)
(-0.00095115316 0.0025337069 0)
(-0.00012477224 0.0029790275 0)
(0.00063711241 0.0033786106 0)
(0.0013331258 0.0037356377 0)
(0.0019652053 0.0040516542 0)
(0.00253399 0.0043264074 0)
(0.0030388847 0.0045614032 0)
(0.0034837982 0.0047599792 0)
(0.0038743419 0.0049240838 0)
(0.0042125449 0.0050547846 0)
(0.0045010492 0.0051573263 0)
(0.0047474736 0.0052353814 0)
(0.0049573618 0.0052905116 0)
(0.0051340978 0.0053260486 0)
(0.0052820817 0.0053458718 0)
(0.0054053047 0.0053523115 0)
(0.0055071487 0.0053496253 0)
(0.0055918308 0.0053406525 0)
(0.0056596285 0.0053272818 0)
(0.0057666262 0.005310914 0)
(0.0053554251 0.0053001333 0)
(0.0068776887 0.0052742093 0)
(0.0048546683 0.0052767433 0)
(-0.0048550557 0.0073932954 0)
(-0.0068714381 0.0073771759 0)
(-0.0053551107 0.0074072932 0)
(-0.0057824492 0.0074048272 0)
(-0.0056869245 0.0074095989 0)
(-0.005639266 0.0074077259 0)
(-0.0055779721 0.0073970312 0)
(-0.0055048537 0.0073731179 0)
(-0.0054171348 0.0073322467 0)
(-0.0053104394 0.007270083 0)
(-0.0051807267 0.0071814715 0)
(-0.0050245418 0.0070620874 0)
(-0.0048369134 0.0069072199 0)
(-0.0046129634 0.0067125363 0)
(-0.0043479503 0.006473381 0)
(-0.0040369401 0.0061851994 0)
(-0.0036750555 0.005845719 0)
(-0.0032587755 0.005451492 0)
(-0.0027843853 0.0050009282 0)
(-0.0022486255 0.0044931019 0)
(-0.0016510459 0.0039268422 0)
(-0.00099383585 0.0033017655 0)
(-0.0002816251 0.0026157767 0)
(0.00047934001 0.0018640985 0)
(0.0012708649 0.0010502354 0)
(0.0020744765 0.00020060522 0)
(0.0029375455 -0.00065438808 0)
(0.0037877642 -0.0014027373 0)
(0.0046098759 -0.0020615779 0)
(0.0054762178 -0.0027086936 0)
(0.0063357424 -0.0033768918 0)
(0.0071581684 -0.0040604868 0)
(0.0079204236 -0.0047566167 0)
(0.0085552075 -0.0054033396 0)
(0.0090458236 -0.0060818484 0)
(0.0094129912 -0.0067678751 0)
(0.0096241685 -0.0074566555 0)
(0.0096697875 -0.008138599 0)
(0.0095518912 -0.0088089175 0)
(0.0092548742 -0.009498974 0)
(0.0088210251 -0.010127521 0)
(0.0082421508 -0.010732824 0)
(0.0075135294 -0.011288977 0)
(0.0066987813 -0.011802508 0)
(0.0058064065 -0.012276518 0)
(0.0048554564 -0.012687527 0)
(0.0038623307 -0.013027199 0)
(0.002841035 -0.013286081 0)
(0.0018004332 -0.013459744 0)
(0.00074579667 -0.013545757 0)
(-0.0003212514 -0.013532307 0)
(-0.001391082 -0.013420397 0)
(-0.0024615615 -0.013223594 0)
(-0.0035256763 -0.012943902 0)
(-0.0045720928 -0.012585169 0)
(-0.0055856608 -0.01216104 0)
(-0.0065465346 -0.011680434 0)
(-0.0074334141 -0.011153192 0)
(-0.0082265533 -0.010584114 0)
(-0.008888814 -0.0099608487 0)
(-0.009398621 -0.0093353132 0)
(-0.0097538552 -0.0086964783 0)
(-0.0099411622 -0.0080410058 0)
(-0.0099517549 -0.0073717415 0)
(-0.0097859581 -0.0066969011 0)
(-0.0094560647 -0.0060272792 0)
(-0.0090035249 -0.0053862498 0)
(-0.00838319 -0.0047265415 0)
(-0.0076183365 -0.0040182185 0)
(-0.0068031006 -0.0033603759 0)
(-0.0059475446 -0.0027036578 0)
(-0.0050823083 -0.0020631474 0)
(-0.0042366093 -0.0014051514 0)
(-0.0033797674 -0.00068282514 0)
(-0.002526753 0.00016212918 0)
(-0.0017020039 0.0010317214 0)
(-0.00088582199 0.0018383967 0)
(-0.00010402457 0.0025870642 0)
(0.00062780807 0.0032704844 0)
(0.0013046661 0.0038938591 0)
(0.0019221318 0.0044590507 0)
(0.0024783922 0.0049661685 0)
(0.0029734644 0.0054160309 0)
(0.0034095042 0.0058097323 0)
(0.0037905734 0.0061490242 0)
(0.0041200476 0.0064369955 0)
(0.0044030655 0.0066765151 0)
(0.0046448857 0.0068717374 0)
(0.0048496856 0.0070271389 0)
(0.005022796 0.0071470357 0)
(0.0051696311 0.0072354166 0)
(0.0052928354 0.0072970089 0)
(0.0053965739 0.0073369207 0)
(0.0054851766 0.0073595853 0)
(0.0055609391 0.0073694702 0)
(0.0056230355 0.0073703579 0)
(0.005734047 0.0073647254 0)
(0.0053156442 0.0073654312 0)
(0.006851345 0.0073411234 0)
(0.0048566238 0.0073531753 0)
(-0.0048681002 0.0061910991 0)
(-0.0068761658 0.0061744988 0)
(-0.0053560288 0.0061888259 0)
(-0.0057938303 0.0061784329 0)
(-0.005699315 0.0061699309 0)
(-0.0056591435 0.0061531717 0)
(-0.005609538 0.0061247367 0)
(-0.0055519302 0.0060808318 0)
(-0.0054827261 0.006017086 0)
(-0.0053994494 0.0059295512 0)
(-0.0052973866 0.0058131997 0)
(-0.0051718364 0.0056632048 0)
(-0.0050199057 0.0054757215 0)
(-0.0048360341 0.0052462055 0)
(-0.0046129697 0.0049700074 0)
(-0.0043461746 0.0046446587 0)
(-0.0040317127 0.0042687635 0)
(-0.00366261 0.0038395004 0)
(-0.0032330581 0.0033578858 0)
(-0.0027415217 0.0028259819 0)
(-0.0021861059 0.0022464955 0)
(-0.0015664175 0.0016249506 0)
(-0.00088825303 0.00097015796 0)
(-0.00015133914 0.00029552356 0)
(0.00066001683 -0.000392083 0)
(0.0015329291 -0.0010793156 0)
(0.0024337142 -0.0017341827 0)
(0.0033282044 -0.0023895084 0)
(0.0042191206 -0.0029457581 0)
(0.0051191862 -0.0034535955 0)
(0.0059931261 -0.003917145 0)
(0.0068117004 -0.0043426689 0)
(0.0076147992 -0.0047330272 0)
(0.0082924371 -0.0050943605 0)
(0.0087860724 -0.0053925478 0)
(0.0091621653 -0.0056999129 0)
(0.0093778924 -0.0059977482 0)
(0.0094220143 -0.0062906864 0)
(0.0092938205 -0.0065857132 0)
(0.008994199 -0.0068920538 0)
(0.0085398088 -0.0071939618 0)
(0.0079630379 -0.0075258235 0)
(0.0072647848 -0.0078417175 0)
(0.0064450749 -0.0081479494 0)
(0.0055552753 -0.0084343635 0)
(0.0046282937 -0.0087077722 0)
(0.0036681907 -0.0089493805 0)
(0.0026909863 -0.0091449934 0)
(0.0017068522 -0.0092830522 0)
(0.00072380969 -0.0093532885 0)
(-0.00026307441 -0.0093319375 0)
(-0.0012631807 -0.0092207489 0)
(-0.0022800828 -0.0090449373 0)
(-0.0033034193 -0.0088162134 0)
(-0.0043211556 -0.0085452771 0)
(-0.0053166088 -0.008245806 0)
(-0.0062689858 -0.0079300536 0)
(-0.0071549578 -0.0076100462 0)
(-0.0079500507 -0.0072920742 0)
(-0.0086236706 -0.0069796078 0)
(-0.0091513383 -0.0066850015 0)
(-0.0095184114 -0.0064050308 0)
(-0.0097120769 -0.0061332678 0)
(-0.0097244662 -0.0058637611 0)
(-0.0095560701 -0.0055908261 0)
(-0.009236872 -0.0053130246 0)
(-0.0087380358 -0.0050471372 0)
(-0.0080602798 -0.0046766934 0)
(-0.0072971196 -0.0043062069 0)
(-0.0064778784 -0.0039002494 0)
(-0.005600437 -0.0034519957 0)
(-0.0046866044 -0.0029535641 0)
(-0.0038028929 -0.0024019732 0)
(-0.0029004335 -0.0017778445 0)
(-0.0019736155 -0.0011234917 0)
(-0.0010914266 -0.00043477169 0)
(-0.00025873747 0.00025177906 0)
(0.00050054268 0.00092212953 0)
(0.0011988151 0.0015740517 0)
(0.0018388265 0.0021939027 0)
(0.0024144417 0.0027725318 0)
(0.0029262872 0.0033041334 0)
(0.0033763794 0.0037851458 0)
(0.0037657326 0.004214201 0)
(0.0040998343 0.0045904106 0)
(0.0043855895 0.0049160054 0)
(0.0046268413 0.0051930571 0)
(0.0048284994 0.0054235466 0)
(0.0049975792 0.0056117552 0)
(0.0051396144 0.0057624474 0)
(0.0052581224 0.0058791577 0)
(0.0053579421 0.0059664308 0)
(0.0054428432 0.0060299609 0)
(0.0055155087 0.0060735382 0)
(0.0055795768 0.0061012936 0)
(0.0056335596 0.0061177038 0)
(0.0057431291 0.006126032 0)
(0.0053167566 0.0061357864 0)
(0.0068549424 0.0061253677 0)
(0.0048664081 0.0061382275 0)
(-0.0048727081 0.0062798231 0)
(-0.0068692158 0.0062716851 0)
(-0.005346074 0.0062879237 0)
(-0.0057927794 0.0062836503 0)
(-0.0057009527 0.0062802131 0)
(-0.0056704781 0.0062658147 0)
(-0.005633558 0.0062386963 0)
(-0.0055930238 0.0061950418 0)
(-0.0055459437 0.0061286634 0)
(-0.0054887261 0.0060346893 0)
(-0.005418162 0.0059087735 0)
(-0.0053293932 0.0057443495 0)
(-0.0052175317 0.0055371568 0)
(-0.0050782305 0.0052830362 0)
(-0.0049046016 0.0049771965 0)
(-0.0046885816 0.004615351 0)
(-0.0044259378 0.0041963909 0)
(-0.0041104091 0.0037193287 0)
(-0.0037337041 0.0031839281 0)
(-0.0032911622 0.002592167 0)
(-0.0027791078 0.0019497102 0)
(-0.0021938408 0.0012629476 0)
(-0.0015325089 0.0005428942 0)
(-0.00080375294 -0.00019427515 0)
(-2.6285431e-05 -0.00094072507 0)
(0.0008064544 -0.0017024307 0)
(0.0016958595 -0.0024591137 0)
(0.0026375056 -0.0031870594 0)
(0.0035987444 -0.0038472404 0)
(0.0045520647 -0.0044220595 0)
(0.0054939633 -0.0049411012 0)
(0.0063960138 -0.0053836062 0)
(0.0072327786 -0.0057497061 0)
(0.0079687317 -0.0061013239 0)
(0.0085223571 -0.0063079648 0)
(0.0088980988 -0.0065322744 0)
(0.009130818 -0.006732529 0)
(0.0091851939 -0.0069192461 0)
(0.009058575 -0.0071052211 0)
(0.0087577093 -0.007302469 0)
(0.0082990779 -0.0075141603 0)
(0.0077045992 -0.0077483 0)
(0.006997846 -0.0080139529 0)
(0.0062073927 -0.0082909158 0)
(0.0053413353 -0.0085562811 0)
(0.0044266806 -0.0088040918 0)
(0.0035011348 -0.009028958 0)
(0.0025728212 -0.0092201346 0)
(0.0016462403 -0.0093552829 0)
(0.00072202178 -0.0094217502 0)
(-0.00020881051 -0.0093910248 0)
(-0.0011528775 -0.00926552 0)
(-0.002116678 -0.0090761846 0)
(-0.0030957923 -0.0088377588 0)
(-0.0040814645 -0.0085634084 0)
(-0.0050587804 -0.0082720132 0)
(-0.006005882 -0.0079802463 0)
(-0.0068960476 -0.0077023665 0)
(-0.0077009624 -0.0074481752 0)
(-0.0083889796 -0.0072216976 0)
(-0.0089313533 -0.0070259919 0)
(-0.0093070828 -0.0068564191 0)
(-0.0095007508 -0.0067020566 0)
(-0.0095046407 -0.0065490732 0)
(-0.0093236969 -0.0063854208 0)
(-0.0089928226 -0.0062211789 0)
(-0.0084386891 -0.0059854679 0)
(-0.007705038 -0.0056901674 0)
(-0.0068947129 -0.0053458149 0)
(-0.0059953976 -0.0049263263 0)
(-0.005047405 -0.0044277263 0)
(-0.0040845616 -0.0038622938 0)
(-0.0031214934 -0.0032309131 0)
(-0.0021691577 -0.0025021271 0)
(-0.0012573012 -0.001760146 0)
(-0.00040416399 -0.0010031936 0)
(0.00039229601 -0.00025936267 0)
(0.0011401782 0.00047429361 0)
(0.0018237411 0.0011917446 0)
(0.002430532 0.0018769188 0)
(0.002963763 0.0025186555 0)
(0.0034270799 0.0031104374 0)
(0.0038244256 0.0036460228 0)
(0.0041604748 0.0041233135 0)
(0.0044425121 0.0045427458 0)
(0.0046772404 0.0049051461 0)
(0.0048693558 0.0052118772 0)
(0.0050264307 0.0054670012 0)
(0.0051554727 0.0056752375 0)
(0.0052611088 0.0058407475 0)
(0.0053480659 0.0059678625 0)
(0.0054212666 0.0060623464 0)
(0.0054840653 0.0061286069 0)
(0.005539152 0.0061739042 0)
(0.0055898142 0.006200213 0)
(0.0056345344 0.0062129819 0)
(0.0057410261 0.0062175492 0)
(0.0053068207 0.0062210196 0)
(0.0068467748 0.0062065242 0)
(0.0048682732 0.0062096725 0)
(-0.0048738592 0.0063244799 0)
(-0.0068594802 0.0063246481 0)
(-0.0053344279 0.0063409938 0)
(-0.0057888799 0.006339113 0)
(-0.0057020596 0.0063367824 0)
(-0.0056834204 0.0063231726 0)
(-0.0056608334 0.0062950051 0)
(-0.0056401725 0.0062473588 0)
(-0.0056192239 0.0061738625 0)
(-0.0055934817 0.0060682685 0)
(-0.0055597102 0.0059266951 0)
(-0.005513546 0.0057416012 0)
(-0.0054494011 0.0055074488 0)
(-0.0053619816 0.0052189531 0)
(-0.0052446831 0.0048718325 0)
(-0.0050891282 0.004461385 0)
(-0.004887752 0.0039843973 0)
(-0.0046330932 0.0034415205 0)
(-0.0043167166 0.0028320489 0)
(-0.0039307636 0.0021588296 0)
(-0.0034689639 0.0014285425 0)
(-0.0029260421 0.00064842966 0)
(-0.0022979989 -0.00016985886 0)
(-0.0015874252 -0.0010151401 0)
(-0.00080033617 -0.0018652934 0)
(6.3009203e-05 -0.0026882861 0)
(0.00099910582 -0.0034752136 0)
(0.0019920662 -0.0042018789 0)
(0.0030368187 -0.0048639031 0)
(0.0040788632 -0.0054192779 0)
(0.0050876377 -0.0058732139 0)
(0.006066143 -0.0062334801 0)
(0.0069716633 -0.0065033982 0)
(0.0078192508 -0.006695359 0)
(0.0084501885 -0.0067487957 0)
(0.0088423181 -0.006779344 0)
(0.0091042863 -0.0067720172 0)
(0.0091700904 -0.0067466284 0)
(0.0090372144 -0.0067262812 0)
(0.0087159295 -0.0067305503 0)
(0.0082264989 -0.0067742939 0)
(0.007595245 -0.0068682187 0)
(0.0068514271 -0.0070154079 0)
(0.0060269206 -0.0072113378 0)
(0.0051592229 -0.0074457004 0)
(0.004263894 -0.0076821018 0)
(0.0033503118 -0.0079065928 0)
(0.0024521207 -0.0080957916 0)
(0.0015799448 -0.0082440716 0)
(0.00072323158 -0.0083197644 0)
(-0.00013618089 -0.00827811 0)
(-0.0010170993 -0.0081211612 0)
(-0.0019341575 -0.0078970046 0)
(-0.0028833159 -0.0076364125 0)
(-0.0038581844 -0.0073497682 0)
(-0.0048451753 -0.0070708326 0)
(-0.0058181961 -0.0068202141 0)
(-0.0067469368 -0.0066163276 0)
(-0.0075963678 -0.0064721109 0)
(-0.0083294798 -0.0063916534 0)
(-0.0089128032 -0.0063725392 0)
(-0.0093178308 -0.006403735 0)
(-0.0095228563 -0.0064664776 0)
(-0.0095191062 -0.0065378685 0)
(-0.0093310107 -0.006592469 0)
(-0.0089302773 -0.0066408733 0)
(-0.0082905163 -0.0065592375 0)
(-0.00749362 -0.0064249317 0)
(-0.0065951458 -0.0061908194 0)
(-0.0056149587 -0.0058594575 0)
(-0.0045892557 -0.0054239487 0)
(-0.0035418489 -0.0049006818 0)
(-0.0024941043 -0.0042572236 0)
(-0.0014789923 -0.0035382596 0)
(-0.00052239243 -0.0027619102 0)
(0.00036215801 -0.0019472159 0)
(0.0011716994 -0.0011064909 0)
(0.0019047584 -0.00026181916 0)
(0.0025548552 0.00055518 0)
(0.0031198299 0.0013343811 0)
(0.0036031993 0.0020640628 0)
(0.0040102218 0.0027371905 0)
(0.0043472549 0.0033473356 0)
(0.0046221548 0.0038910274 0)
(0.0048432494 0.0043689031 0)
(0.0050179005 0.0047808826 0)
(0.0051537597 0.0051296551 0)
(0.0052591085 0.0054197321 0)
(0.0053407407 0.0056554099 0)
(0.0054038527 0.0058419841 0)
(0.0054537595 0.0059851189 0)
(0.0054948221 0.006091121 0)
(0.005532516 0.0061650132 0)
(0.0055674123 0.0062134001 0)
(0.0056007803 0.0062419626 0)
(0.0056350414 0.0062555776 0)
(0.0057374579 0.0062583491 0)
(0.0052947775 0.0062596963 0)
(0.0068349127 0.0062442165 0)
(0.0048665368 0.0062405286 0)
(-0.004867118 0.0062727095 0)
(-0.0068415233 0.0062831568 0)
(-0.0053192738 0.0063030276 0)
(-0.0057821267 0.0063067709 0)
(-0.0056998669 0.0063093466 0)
(-0.0056930444 0.0063013783 0)
(-0.0056878033 0.0062771808 0)
(-0.0056902273 0.0062307403 0)
(-0.005698881 0.0061559037 0)
(-0.0057075238 0.0060464533 0)
(-0.0057143725 0.0058962926 0)
(-0.0057160102 0.0056977324 0)
(-0.0057053677 0.0054443819 0)
(-0.0056767773 0.0051298499 0)
(-0.0056227274 0.0047488286 0)
(-0.0055342037 0.0042966622 0)
(-0.00540143 0.0037697289 0)
(-0.0052158133 0.003167316 0)
(-0.0049668929 0.0024899017 0)
(-0.0046426482 0.0017407389 0)
(-0.0042351778 0.000926934 0)
(-0.0037357848 5.8412482e-05 0)
(-0.0031377736 -0.00084935703 0)
(-0.0024393817 -0.001782069 0)
(-0.0016383794 -0.0027190424 0)
(-0.00074156149 -0.0036252434 0)
(0.00024493389 -0.0044850385 0)
(0.0013122215 -0.0052731268 0)
(0.0024443737 -0.0059637748 0)
(0.0036056645 -0.0065496992 0)
(0.0047450782 -0.0069716342 0)
(0.0058390819 -0.0072653076 0)
(0.0068560712 -0.0074222231 0)
(0.0078197681 -0.0074577285 0)
(0.0085457641 -0.0073599363 0)
(0.0089927658 -0.0071896884 0)
(0.0092908793 -0.0069649959 0)
(0.009366519 -0.0067189699 0)
(0.0092168236 -0.0064858968 0)
(0.0088564803 -0.0062950083 0)
(0.0083106047 -0.0061710608 0)
(0.0076128754 -0.0061301962 0)
(0.0068019937 -0.0061789553 0)
(0.0059197546 -0.0063121946 0)
(0.005006586 -0.0065120994 0)
(0.0040935368 -0.006757118 0)
(0.0032057399 -0.0070091959 0)
(0.0023435982 -0.0072227608 0)
(0.0015177088 -0.007387603 0)
(0.00073345948 -0.0074735096 0)
(-4.8942383e-05 -0.0074196691 0)
(-0.00086050489 -0.0072276654 0)
(-0.001734399 -0.0069607985 0)
(-0.002661773 -0.0066503996 0)
(-0.0036389172 -0.0063317984 0)
(-0.0046607725 -0.0060471373 0)
(-0.0056897217 -0.0058182804 0)
(-0.006690967 -0.0056724948 0)
(-0.007621509 -0.0056271135 0)
(-0.0084346588 -0.0056876792 0)
(-0.0090866238 -0.0058468114 0)
(-0.0095400976 -0.0060852671 0)
(-0.0097678502 -0.0063741343 0)
(-0.0097558575 -0.0066797594 0)
(-0.0095428295 -0.0069640793 0)
(-0.0090655753 -0.0071986875 0)
(-0.0083180239 -0.0073281475 0)
(-0.0074207473 -0.0073429606 0)
(-0.0064016692 -0.0072268985 0)
(-0.005293256 -0.0069681826 0)
(-0.0041509983 -0.0065659269 0)
(-0.0029803706 -0.0060210502 0)
(-0.0018220954 -0.0053434652 0)
(-0.00073593493 -0.0045684907 0)
(0.00027266792 -0.0037195887 0)
(0.0011910358 -0.00282183 0)
(0.0020182689 -0.0018879336 0)
(0.0027438748 -0.0009648956 0)
(0.0033639386 -5.6056064e-05 0)
(0.0038854782 0.00081074301 0)
(0.0043146878 0.0016238489 0)
(0.0046606498 0.0023733727 0)
(0.0049309235 0.0030521415 0)
(0.0051369958 0.003656423 0)
(0.005289688 0.0041855009 0)
(0.0053976235 0.004640135 0)
(0.0054702672 0.0050235423 0)
(0.0055166916 0.0053402343 0)
(0.0055446217 0.0055952615 0)
(0.0055602079 0.005795539 0)
(0.0055690375 0.005947239 0)
(0.0055752002 0.0060574022 0)
(0.0055826218 0.0061332035 0)
(0.0055946137 0.0061792381 0)
(0.0056124892 0.0062050893 0)
(0.0056338168 0.0062150738 0)
(0.0057305337 0.0062117959 0)
(0.0052808068 0.0062080859 0)
(0.0068181829 0.0061876577 0)
(0.0048599133 0.0061760988 0)
(-0.0048549972 0.0062191321 0)
(-0.0068157463 0.0062403999 0)
(-0.0052958551 0.0062675066 0)
(-0.0057656086 0.0062816122 0)
(-0.0056885576 0.0062950042 0)
(-0.0056944768 0.0062970957 0)
(-0.005708037 0.0062822898 0)
(-0.0057355952 0.0062438226 0)
(-0.0057751734 0.0061758859 0)
(-0.0058222368 0.0060710207 0)
(-0.0058751901 0.0059200093 0)
(-0.0059297048 0.0057153333 0)
(-0.0059789862 0.0054489705 0)
(-0.0060166466 0.0051151286 0)
(-0.0060342182 0.0047055524 0)
(-0.0060216889 0.0042153301 0)
(-0.0059676373 0.003639981 0)
(-0.0058605863 0.0029770893 0)
(-0.0056879333 0.0022280676 0)
(-0.0054352793 0.0013963551 0)
(-0.005090094 0.00048890975 0)
(-0.0046386572 -0.0004808663 0)
(-0.0040725414 -0.0014997319 0)
(-0.0033891244 -0.0025455884 0)
(-0.0025738496 -0.003591347 0)
(-0.0016316812 -0.0046135475 0)
(-0.00057580568 -0.0055733542 0)
(0.0005879784 -0.0064417893 0)
(0.0018351742 -0.0071861979 0)
(0.0031460436 -0.007788581 0)
(0.004449428 -0.0081934677 0)
(0.0057009894 -0.0084181831 0)
(0.0068773132 -0.0084617543 0)
(0.0079928567 -0.0083332995 0)
(0.0088418367 -0.008046775 0)
(0.0093726849 -0.0076490502 0)
(0.0097211724 -0.0071724527 0)
(0.0098049236 -0.0066695998 0)
(0.0096247582 -0.0061900305 0)
(0.0092000691 -0.005777342 0)
(0.0085640331 -0.0054678284 0)
(0.0077610065 -0.0052843301 0)
(0.0068415414 -0.0052389904 0)
(0.0058619872 -0.0053282812 0)
(0.0048764281 -0.0055266884 0)
(0.0039209799 -0.0057889901 0)
(0.0030294912 -0.0060925356 0)
(0.0022083908 -0.0063753683 0)
(0.0014497038 -0.0065807317 0)
(0.00074866376 -0.0066899054 0)
(5.9443374e-05 -0.0066210983 0)
(-0.00067114412 -0.0063762715 0)
(-0.0014846069 -0.0060398311 0)
(-0.0023928997 -0.0056481559 0)
(-0.0034033817 -0.0052637474 0)
(-0.0044884043 -0.0049307531 0)
(-0.0056068552 -0.0047083414 0)
(-0.0067233432 -0.0046064646 0)
(-0.0077809436 -0.0046578108 0)
(-0.0087177962 -0.0048687803 0)
(-0.0094757705 -0.0052268423 0)
(-0.010005205 -0.0057029759 0)
(-0.010270234 -0.0062562617 0)
(-0.010253041 -0.0068353135 0)
(-0.0099836716 -0.0073876054 0)
(-0.0094168316 -0.007838413 0)
(-0.008545314 -0.008207808 0)
(-0.0074898438 -0.0083892941 0)
(-0.0063055168 -0.0083898532 0)
(-0.0050314432 -0.0082026185 0)
(-0.0037170851 -0.0078367747 0)
(-0.0023940745 -0.00725654 0)
(-0.001116077 -0.0065334198 0)
(7.1934119e-05 -0.0056796927 0)
(0.0011532153 -0.0047305133 0)
(0.0021248185 -0.003714769 0)
(0.0029610599 -0.0026716259 0)
(0.0036707649 -0.0016294789 0)
(0.0042668764 -0.00061735088 0)
(0.0047385933 0.00035030049 0)
(0.0051072799 0.0012576972 0)
(0.0053828502 0.0020906392 0)
(0.0055774552 0.0028416533 0)
(0.0057054694 0.0035072075 0)
(0.0057796879 0.0040855751 0)
(0.0058116771 0.0045786794 0)
(0.0058125374 0.0049910411 0)
(0.0057924567 0.0053278007 0)
(0.0057605699 0.0055962298 0)
(0.0057231422 0.0058029628 0)
(0.0056855422 0.0059556949 0)
(0.0056532562 0.0060625642 0)
(0.0056291205 0.0061321666 0)
(0.0056161334 0.0061712579 0)
(0.0056159604 0.0061874998 0)
(0.0056234597 0.0061865142 0)
(0.0057145309 0.0061729251 0)
(0.0052575879 0.0061588927 0)
(0.0067923308 0.0061300666 0)
(0.0048484861 0.0061067549 0)
(-0.0048356567 0.0061637725 0)
(-0.0067780301 0.0062002777 0)
(-0.0052609039 0.0062395288 0)
(-0.0057353983 0.0062677064 0)
(-0.0056632642 0.0062971067 0)
(-0.0056824991 0.0063148698 0)
(-0.0057155395 0.0063158401 0)
(-0.0057687535 0.0062927946 0)
(-0.0058412599 0.0062389468 0)
(-0.0059304298 0.0061447661 0)
(-0.0060343183 0.0060006017 0)
(-0.0061485234 0.0057980051 0)
(-0.0062642818 0.0055268262 0)
(-0.0063761609 0.005179276 0)
(-0.0064754811 0.0047465674 0)
(-0.0065496508 0.0042219223 0)
(-0.0065864453 0.0035994791 0)
(-0.006571207 0.002875082 0)
(-0.0064876429 0.0020492916 0)
(-0.0063184409 0.0011261595 0)
(-0.0060457837 0.00011216334 0)
(-0.0056546527 -0.00097851908 0)
(-0.0051296806 -0.0021300356 0)
(-0.0044553064 -0.0033162145 0)
(-0.0036280523 -0.0045033357 0)
(-0.0026425025 -0.0056653677 0)
(-0.0014992227 -0.0067563497 0)
(-0.00021368166 -0.0077400274 0)
(0.0011858653 -0.0085662519 0)
(0.0026867536 -0.009204305 0)
(0.00420542 -0.0096155145 0)
(0.0056689876 -0.0097765866 0)
(0.0070536854 -0.0096930738 0)
(0.0083631582 -0.0093606056 0)
(0.0093718496 -0.0088735254 0)
(0.010022385 -0.0081940262 0)
(0.01043792 -0.0074140973 0)
(0.010527635 -0.0066031413 0)
(0.010297422 -0.005832575 0)
(0.0097743747 -0.0051602644 0)
(0.0090041185 -0.0046416801 0)
(0.0080444109 -0.0043051622 0)
(0.0069603696 -0.0041717628 0)
(0.0058314613 -0.0042408025 0)
(0.0047398283 -0.0044602946 0)
(0.0037138272 -0.0048052056 0)
(0.0027959119 -0.0051975306 0)
(0.0020213704 -0.0055743974 0)
(0.001353153 -0.0058618712 0)
(0.00076462032 -0.0060124515 0)
(0.00020093501 -0.0059247501 0)
(-0.00042047863 -0.0056010544 0)
(-0.0011632375 -0.0051529028 0)
(-0.0020535025 -0.0046433658 0)
(-0.0030992703 -0.0041449975 0)
(-0.0042911753 -0.0037244767 0)
(-0.00555737 -0.0034586248 0)
(-0.0068359931 -0.0033884707 0)
(-0.0080804364 -0.0035324526 0)
(-0.0091987157 -0.0039076157 0)
(-0.010111552 -0.0044934656 0)
(-0.010753464 -0.0052495724 0)
(-0.011075312 -0.006118589 0)
(-0.011052044 -0.0070245937 0)
(-0.010699231 -0.0078919571 0)
(-0.010026367 -0.0086178237 0)
(-0.0089966913 -0.0092622453 0)
(-0.0077151558 -0.00963469 0)
(-0.0063129727 -0.0097636384 0)
(-0.004830098 -0.0096324033 0)
(-0.0032933107 -0.0092902225 0)
(-0.0017652176 -0.0086657707 0)
(-0.0003321043 -0.0078588364 0)
(0.00098292992 -0.006893225 0)
(0.0021567637 -0.0058108353 0)
(0.0031722747 -0.0046550468 0)
(0.0040285329 -0.0034751538 0)
(0.0047255911 -0.0022861534 0)
(0.0052740641 -0.0011407809 0)
(0.0056941015 -5.0331037e-05 0)
(0.0059918117 0.00096506243 0)
(0.0061846466 0.0018902967 0)
(0.0062906388 0.002718801 0)
(0.0063273659 0.0034465286 0)
(0.0063108568 0.0040724592 0)
(0.0062559741 0.004600393 0)
(0.0061755894 0.0050364488 0)
(0.0060811771 0.0053875217 0)
(0.005982229 0.0056618661 0)
(0.0058853043 0.005867309 0)
(0.0057971298 0.0060141249 0)
(0.0057227166 0.0061109361 0)
(0.0056648281 0.0061669464 0)
(0.0056254426 0.0061912546 0)
(0.0056054183 0.0061915563 0)
(0.0055992903 0.0061745841 0)
(0.0056852582 0.0061456909 0)
(0.0052231818 0.0061173902 0)
(0.006754065 0.0060775498 0)
(0.0048282306 0.0060373854 0)
(-0.0048062632 0.0060981869 0)
(-0.0067232021 0.0061551413 0)
(-0.00520938 0.0062098507 0)
(-0.0056866302 0.0062566587 0)
(-0.0056181752 0.0063067813 0)
(-0.0056503925 0.0063482698 0)
(-0.0057023988 0.0063730753 0)
(-0.0057823958 0.0063737848 0)
(-0.0058906192 0.0063414381 0)
(-0.0060253239 0.0062660562 0)
(-0.0061838087 0.0061377193 0)
(-0.0063624617 0.0059460792 0)
(-0.0065535654 0.0056797418 0)
(-0.0067496394 0.0053265891 0)
(-0.0069410747 0.0048778394 0)
(-0.0071148774 0.0043238182 0)
(-0.0072570261 0.0036568038 0)
(-0.0073495569 0.0028714438 0)
(-0.0073716882 0.0019659087 0)
(-0.0073033155 0.0009428097 0)
(-0.0071217792 -0.00019104958 0)
(-0.006804014 -0.0014225686 0)
(-0.006329527 -0.0027297629 0)
(-0.0056779242 -0.0040856269 0)
(-0.0048348779 -0.0054554773 0)
(-0.0037928176 -0.0067925188 0)
(-0.0025542472 -0.0080506928 0)
(-0.001121471 -0.0091794492 0)
(0.00047422316 -0.010130959 0)
(0.0022011499 -0.010839177 0)
(0.003983365 -0.011282605 0)
(0.0057379705 -0.011383329 0)
(0.0074230296 -0.011165366 0)
(0.0089598609 -0.010605072 0)
(0.01017151 -0.0098607604 0)
(0.011010695 -0.0088428232 0)
(0.011505224 -0.0076911398 0)
(0.01159306 -0.0064984104 0)
(0.01128595 -0.0053731105 0)
(0.010618609 -0.0043750665 0)
(0.0096535687 -0.0036200792 0)
(0.0084693813 -0.0031466433 0)
(0.0071454447 -0.0029313227 0)
(0.0058110541 -0.0029894253 0)
(0.0045446494 -0.003298084 0)
(0.0034086684 -0.0037715115 0)
(0.002475363 -0.0043146863 0)
(0.0017482588 -0.0048424006 0)
(0.0011980472 -0.0052577837 0)
(0.00077484332 -0.0054794004 0)
(0.00039034332 -0.0053687733 0)
(-7.5704607e-05 -0.0049314968 0)
(-0.00072013263 -0.0043149167 0)
(-0.0015891433 -0.0036140754 0)
(-0.002698701 -0.0029331997 0)
(-0.0040241251 -0.0023830331 0)
(-0.0054985248 -0.0020189357 0)
(-0.007027521 -0.0019574813 0)
(-0.0085301869 -0.0021822871 0)
(-0.0099059885 -0.002741327 0)
(-0.011039158 -0.0035938566 0)
(-0.01184342 -0.0046871428 0)
(-0.012247534 -0.0059480613 0)
(-0.012215888 -0.0072571381 0)
(-0.01175263 -0.0085170414 0)
(-0.010948178 -0.0096122092 0)
(-0.0097084603 -0.010510176 0)
(-0.0081202745 -0.01111863 0)
(-0.0064170858 -0.011396382 0)
(-0.0046634003 -0.011337779 0)
(-0.0028537758 -0.010942192 0)
(-0.0010648137 -0.010259267 0)
(0.00055708003 -0.0093294433 0)
(0.0020243812 -0.0082136461 0)
(0.0033001448 -0.0069677212 0)
(0.0043732998 -0.0056394519 0)
(0.0052464731 -0.004274542 0)
(0.005925041 -0.0029226433 0)
(0.0064260846 -0.0016124116 0)
(0.0067716722 -0.00037924081 0)
(0.0069791462 0.00075741797 0)
(0.0070718059 0.0017838359 0)
(0.007072745 0.0026931276 0)
(0.0070017363 0.0034823909 0)
(0.006879963 0.0041535293 0)
(0.00672568 0.0047119237 0)
(0.0065531099 0.0051648854 0)
(0.0063746752 0.0055218909 0)
(0.0062005297 0.0057927126 0)
(0.0060388117 0.0059882948 0)
(0.0058958374 0.0061198674 0)
(0.0057755323 0.0061982468 0)
(0.0056813868 0.0062331522 0)
(0.0056148719 0.0062344163 0)
(0.0055754749 0.0062112032 0)
(0.0055560025 0.0061716108 0)
(0.0056378666 0.0061221919 0)
(0.0051729465 0.006074981 0)
(0.0066990766 0.0060200198 0)
(0.0047974311 0.0059597164 0)
(-0.0047636338 0.006020857 0)
(-0.0066483262 0.0061026564 0)
(-0.0051381529 0.0061762321 0)
(-0.0056149579 0.0062480856 0)
(-0.0055465567 0.0063252533 0)
(-0.005589068 0.0063968847 0)
(-0.0056603421 0.0064533774 0)
(-0.0057682637 0.0064862215 0)
(-0.0059142283 0.0064852414 0)
(-0.0060966193 0.0064401096 0)
(-0.0063138905 0.0063385256 0)
(-0.0065628924 0.0061676637 0)
(-0.0068369004 0.0059159555 0)
(-0.0071276496 0.00556833 0)
(-0.0074241908 0.0051126853 0)
(-0.0077128475 0.0045365659 0)
(-0.0079769266 0.0038299342 0)
(-0.0081958955 0.0029854017 0)
(-0.0083455942 0.0019972425 0)
(-0.0084002329 0.00086603496 0)
(-0.0083312929 -0.00040046642 0)
(-0.0081087049 -0.0017911972 0)
(-0.0077033021 -0.0032831541 0)
(-0.0070868801 -0.0048448213 0)
(-0.0062359828 -0.0064353489 0)
(-0.0051334297 -0.0080034767 0)
(-0.0037757707 -0.0094884626 0)
(-0.0021777337 -0.010822541 0)
(-0.00035295755 -0.011945999 0)
(0.0016584721 -0.012776388 0)
(0.0037865969 -0.013258274 0)
(0.0059182889 -0.013315017 0)
(0.0079809276 -0.012972239 0)
(0.0098378026 -0.01214357 0)
(0.011322713 -0.011054915 0)
(0.012398663 -0.0096275998 0)
(0.013006369 -0.0080087679 0)
(0.013085719 -0.006302323 0)
(0.012674933 -0.0047107733 0)
(0.011793734 -0.0033725335 0)
(0.010508375 -0.002363818 0)
(0.0090153438 -0.0017452861 0)
(0.007402739 -0.0014796088 0)
(0.0057491403 -0.0015389365 0)
(0.0042381186 -0.0019956033 0)
(0.0029705361 -0.0026448528 0)
(0.0019889652 -0.0034382221 0)
(0.0013319484 -0.0042162879 0)
(0.00095027821 -0.0048222475 0)
(0.0007656623 -0.0051601724 0)