/*--------------------------------*- C++ -*----------------------------------*\
  =========                 |
  \\      /  F ield         | OpenFOAM: The Open Source CFD Toolbox
   \\    /   O peration     | Website:  https://openfoam.org
    \\  /    A nd           | Version:  9
     \\/     M anipulation  |
\*---------------------------------------------------------------------------*/
FoamFile
{
    format      ascii;
    class       volScalarField;
    location    "0.59";
    object      alpha.phase1;
}
// * * * * * * * * * * * * * * * * * * * * * * * * * * * * * * * * * * * * * //

dimensions      [0 0 0 0 0 0 0];

internalField   nonuniform List<scalar> 
10000
(
4.662578e-84
4.662578e-84
7.9622032e-83
3.5435145e-81
5.7356139e-81
3.0004442e-81
8.8878245e-82
2.4832963e-82
2.1545331e-82
2.1545331e-82
5.5348174e-81
1.5077251e-78
7.9533343e-77
1.0537525e-75
6.1035225e-75
2.3074854e-74
6.7384535e-74
1.4997676e-73
1.9751455e-73
2.4033052e-72
2.4746764e-70
2.355774e-68
1.9060906e-66
1.3482306e-64
9.061646e-63
6.526417e-61
4.650114e-59
3.8333048e-57
6.5447277e-55
5.1805878e-53
2.9225415e-50
3.3437657e-46
4.2930395e-44
1.0062493e-43
3.4828388e-43
3.4055014e-43
1.6077812e-43
2.2751185e-44
2.6804854e-45
2.5646972e-45
6.3942431e-45
8.3759762e-44
1.0781828e-42
1.1931119e-41
1.0134069e-40
6.9014769e-40
4.3922231e-39
1.0724368e-37
7.9511942e-36
6.2430021e-34
4.3689797e-32
2.5956164e-30
1.2129897e-28
4.03928e-27
7.652514e-26
8.6710868e-26
1.6424776e-26
1.2557954e-27
4.0224426e-29
1.1160488e-30
3.3973278e-32
1.1543996e-33
1.4822354e-34
5.7850464e-36
3.7069603e-37
4.2392732e-38
3.0209913e-39
1.0555128e-40
1.862949e-42
2.1784792e-44
2.5005617e-46
2.7699566e-48
2.6450031e-50
2.1284151e-52
1.4259359e-54
7.338025e-57
2.8375246e-59
8.3501674e-62
1.9986716e-64
5.558476e-67
2.3975696e-69
1.2501423e-71
5.2290493e-73
2.0399298e-73
7.131106e-74
2.3292023e-74
6.4300175e-75
1.2922776e-75
1.2440949e-76
3.1456369e-78
1.3872162e-80
4.8170746e-83
4.8170746e-83
6.8680671e-83
2.7456294e-82
1.5255399e-81
5.9179969e-81
6.0240098e-81
5.5213155e-81
5.5213155e-81
5.1964153e-84
8.049225e-83
2.8325987e-81
4.1974167e-80
7.4217369e-80
6.5647993e-80
4.8283511e-80
2.3325916e-80
4.8654532e-81
3.7913055e-82
4.5689523e-81
9.6041542e-79
6.0274881e-77
8.3883289e-76
5.6403402e-75
2.1925614e-74
6.3125593e-74
1.3174539e-73
1.9050756e-73
3.0679008e-71
4.0868709e-69
3.4637057e-67
2.3620855e-65
1.4739878e-63
8.8872632e-62
7.1442662e-60
8.3085028e-58
9.667843e-56
8.5957976e-54
1.5627592e-51
3.9859964e-48
3.1536897e-44
1.8275739e-42
1.5124004e-42
4.0179753e-42
1.1588811e-40
1.2033116e-40
4.183668e-41
2.3699521e-42
1.492986e-43
1.0621975e-42
1.3806892e-41
1.6498817e-40
1.9834478e-39
1.3775829e-38
7.401606e-38
8.3765209e-37
3.1298416e-35
1.3837243e-33
4.4765031e-32
2.6387921e-30
1.2383267e-28
4.1370194e-27
7.7150944e-26
3.7207299e-25
1.8167042e-24
1.8164294e-24
4.0346237e-25
2.4834138e-26
5.8421969e-29
1.1160602e-30
3.3795771e-31
5.9974362e-32
2.4556157e-33
1.156651e-34
1.610241e-35
1.8636745e-36
1.050401e-37
2.3006859e-39
2.1271928e-41
1.7129334e-43
1.5663023e-45
1.2778338e-47
8.5858977e-50
5.0045307e-52
2.1183633e-54
4.9045012e-57
9.0994074e-60
4.3424903e-62
3.2959449e-64
1.9404976e-66
9.6522571e-69
4.6483433e-71
6.122424e-73
9.3831301e-74
2.6999567e-74
6.9152208e-75
1.2832237e-75
1.1743019e-76
3.1089879e-78
1.8272309e-80
4.1752352e-82
3.1413207e-81
1.3713802e-80
5.6615606e-80
1.2432209e-79
8.1329003e-80
4.1294149e-80
5.8695557e-81
5.9972346e-81
6.4359556e-81
1.2750141e-79
4.6698464e-78
4.1775061e-77
6.0041479e-77
5.0353626e-77
3.4731515e-77
1.6197986e-77
3.5288799e-78
3.3083255e-79
2.5671095e-80
7.9735261e-79
4.9547175e-77
3.5565054e-76
1.0701839e-75
4.0584241e-73
7.7413853e-73
2.1932757e-73
1.1664804e-72
5.3455355e-68
5.0345809e-66
4.2410879e-64
2.8527113e-62
1.7560804e-60
1.0606927e-58
8.8973813e-57
1.1285317e-54
1.275287e-52
9.8093357e-51
1.3746908e-48
3.1769851e-45
2.7334432e-41
1.5987494e-39
1.2792598e-39
3.7635146e-39
1.239467e-37
1.3473435e-37
5.0433735e-38
3.2787963e-39
5.6424478e-41
1.9724878e-40
2.35231e-39
3.1011576e-38
5.3395571e-37
2.9590788e-36
1.3994787e-35
2.5848744e-34
1.1233174e-32
5.5691353e-31
2.3449441e-29
6.9953254e-28
2.911693e-26
9.2061072e-25
1.6780892e-23
1.4798904e-22
3.2652572e-22
2.9466315e-22
7.5446134e-23
8.0305144e-24
1.2478267e-25
3.9546838e-28
1.2659236e-28
1.7478581e-29
7.9778306e-31
7.1438585e-32
1.061742e-32
1.0801002e-33
6.0550028e-35
1.4649646e-36
1.3511312e-38
8.9137729e-41
6.8334148e-43
4.6888852e-45
2.5224442e-47
1.1661594e-49
3.2819995e-52
1.0369634e-54
3.8931951e-57
3.41203e-59
2.7511651e-61
1.5251131e-63
7.5230603e-66
3.5502192e-68
3.0236808e-70
2.1432468e-71
4.1933374e-72
7.2097777e-73
8.2133857e-74
6.6258291e-75
4.0313731e-76
1.1610554e-77
8.3809154e-79
5.0256878e-78
1.8288553e-77
6.6819411e-77
1.326782e-76
1.0792057e-76
5.691255e-77
1.3368968e-77
9.1962769e-78
3.5222099e-78
1.1108671e-76
4.2141223e-75
2.4768993e-74
3.1671784e-74
2.6275163e-74
1.7697203e-74
8.0899046e-75
1.7571524e-75
2.4287809e-76
1.283096e-77
1.0344752e-78
5.0711748e-77
3.8278609e-76
1.7380493e-70
1.9237666e-69
9.7191153e-70
4.7536386e-71
1.5728093e-72
2.0257022e-65
3.8238157e-63
3.4106457e-61
2.3731545e-59
1.4935907e-57
9.1453275e-56
7.7631689e-54
9.9333744e-52
1.1838668e-49
8.4947902e-48
9.6351281e-46
1.9123395e-42
1.7296087e-38
1.0211613e-36
7.9895142e-37
2.7456334e-36
9.5052148e-35
1.1058986e-34
4.4973135e-35
3.4019153e-36
3.4906862e-38
3.3013543e-38
3.1670111e-37
6.0350146e-36
1.6567568e-34
5.9213454e-34
2.1260073e-33
5.5468414e-32
2.5353743e-30
1.1593249e-28
5.0699215e-27
1.8588936e-25
4.9684938e-24
1.2152981e-22
2.1668599e-21
2.3047883e-20
3.8186175e-20
3.3142546e-20
9.8426164e-21
1.5055734e-21
4.6021946e-23
8.8840308e-26
3.2696037e-26
4.465596e-27
2.9432329e-28
4.1931882e-29
5.6304166e-30
4.7315219e-31
2.5827151e-32
6.8941452e-34
6.4275726e-36
3.2487623e-38
1.75875e-40
7.1754731e-43
1.9600182e-45
1.4970344e-47
9.6117506e-50
3.5803951e-52
1.9551995e-54
2.6346232e-56
1.7062277e-58
9.0086693e-61
4.4262152e-63
2.0531915e-65
1.4621731e-67
9.6715647e-69
2.1087402e-69
4.1159959e-70
5.9130735e-71
5.5934548e-72
3.0930075e-73
8.2341242e-75
1.0593348e-75
5.5956409e-75
1.7615193e-74
5.7205746e-74
1.0280244e-73
9.0999074e-74
4.7792624e-74
1.2900639e-74
6.6074148e-75
1.4679626e-75
5.7268651e-74
2.2095864e-72
1.0787129e-71
1.2826998e-71
1.0599569e-71
7.0317545e-72
3.1730251e-72
6.8969103e-73
1.2490251e-73
3.8982855e-75
3.1475997e-76
1.3350177e-75
7.230744e-73
1.3673706e-67
1.0139776e-66
4.4034782e-67
1.3067639e-68
2.1678296e-70
1.0949355e-64
1.7076335e-60
1.9037221e-58
1.4144558e-56
9.2598196e-55
5.7449345e-53
4.7104101e-51
6.2197144e-49
7.7558679e-47
5.4898385e-45
5.3782382e-43
8.7909443e-40
8.5362607e-36
5.1469576e-34
3.9560792e-34
1.4610241e-33
5.4749113e-32
7.0738565e-32
3.1468783e-32
2.8397708e-33
3.1861337e-35
4.9749734e-36
3.7623166e-35
1.5545033e-33
5.3823857e-32
1.0378535e-31
2.5640049e-31
8.6481804e-30
3.9473536e-28
1.6754504e-26
6.769458e-25
2.4910449e-23
7.4000896e-22
1.5584224e-20
2.2789162e-19
2.3443783e-18
3.2985497e-18
2.7849258e-18
9.5095351e-19
1.905674e-19
1.165434e-20
8.7881481e-23
9.6456796e-24
1.0430978e-24
1.2542068e-25
2.163761e-26
2.5001177e-27
1.6539369e-28
8.4889662e-30
2.4670137e-31
2.3379299e-33
7.9518301e-36
1.0329333e-38
7.7376747e-41
7.1197542e-43
5.2986694e-45
2.5873775e-47
1.1203268e-49
1.8211538e-51
1.4331584e-53
8.1913029e-56
4.2832437e-58
2.0844937e-60
9.454653e-63
5.5319953e-65
3.2046274e-66
8.0798378e-67
1.7380748e-67
2.8248117e-68
2.894105e-69
1.5576966e-70
4.3348946e-72
1.0824807e-72
4.7507649e-72
1.3056424e-71
3.7677883e-71
6.2635831e-71
5.7116887e-71
2.9352509e-71
8.3120716e-72
3.5592924e-72
4.9539974e-73
2.1572239e-71
8.3815746e-70
3.7095904e-69
4.2114616e-69
3.4758428e-69
2.2854617e-69
1.0228372e-69
2.2390681e-70
4.8180382e-71
2.1473757e-71
8.4729137e-73
1.3005865e-72
1.9452736e-66
6.8135176e-65
3.697844e-64
1.1620067e-64
1.7908181e-66
2.5074993e-67
1.3384599e-64
9.0763227e-59
7.8414393e-56
9.9344418e-54
4.4265014e-52
2.8803461e-50
2.202463e-48
2.9698974e-46
3.7343042e-44
2.7684249e-42
2.3531875e-40
3.3393266e-37
3.4311222e-33
2.1251463e-31
1.6142045e-31
5.9194585e-31
2.4500735e-29
3.601095e-29
1.7537698e-29
1.9014929e-30
2.7471394e-32
6.4115456e-34
5.1326561e-33
4.7732313e-31
1.3107931e-29
1.4736455e-29
2.6040744e-29
1.0038489e-27
4.5097235e-26
1.8356194e-24
6.6722026e-23
2.2958546e-21
6.7786971e-20
1.5249967e-18
2.4060762e-17
1.8316613e-16
2.3361372e-16
1.851054e-16
7.1960595e-17
1.7951151e-17
1.6259634e-18
1.6803555e-20
2.1424161e-21
2.5542802e-22
4.8203079e-23
9.2423509e-24
9.5384301e-25
4.8705988e-26
2.2185891e-27
6.8549465e-29
6.6559804e-31
1.065856e-33
2.2422768e-36
2.3570021e-38
2.0037548e-40
1.0414687e-42
9.8037125e-45
9.840575e-47
9.1716112e-49
5.7323753e-51
3.1990299e-53
1.6591345e-55
7.9215069e-58
3.4700191e-60
1.7264746e-62
8.6292106e-64
2.4675176e-64
5.6508635e-65
1.0022845e-65
1.1065517e-66
5.8687308e-68
1.7545176e-69
9.3901396e-70
3.1976354e-69
7.7852051e-69
1.9991437e-68
3.0870016e-68
2.8285529e-68
1.4056899e-68
4.0209047e-69
1.5168938e-69
1.4119214e-70
6.4888672e-69
2.5252087e-67
1.0540646e-66
1.161928e-66
9.5896423e-67
6.2765015e-67
2.7990388e-67
6.1961708e-68
1.453147e-68
5.3305142e-68
1.5374863e-69
1.3244345e-69
1.7223375e-63
2.4992465e-62
1.0689801e-61
2.2021511e-62
2.0153608e-64
9.7498201e-64
5.3433844e-62
9.3557643e-59
6.329412e-54
1.6598021e-51
1.9311732e-49
1.162227e-47
7.9115989e-46
1.1041858e-43
1.4791174e-41
1.1041707e-39
8.3432018e-38
8.7128741e-35
1.1407978e-30
7.3842674e-29
5.4027957e-29
1.9176118e-28
8.805857e-27
1.4687219e-26
7.853006e-27
1.0216825e-27
1.9013888e-29
1.2264921e-31
9.9407844e-31
1.2626939e-28
2.4513058e-27
1.7824629e-27
2.359551e-27
8.9242751e-26
3.9284646e-24
1.5433073e-22
5.3475639e-21
1.6263721e-19
4.5435881e-18
1.0676776e-16
1.473762e-15
8.1960426e-15
1.028576e-14
9.3882669e-15
4.3991343e-15
1.3043928e-15
1.5561814e-16
3.9941597e-18
3.563203e-19
6.2218494e-20
1.5183675e-20
3.0528337e-21
2.9418301e-22
1.2017956e-23
4.6368037e-25
1.4939397e-26
1.4915336e-28
6.6441504e-32
5.624197e-34
5.5133631e-36
2.7666799e-38
3.0663118e-40
6.8681404e-42
4.5279808e-44
3.0706769e-46
1.8461716e-48
1.0243043e-50
5.2103746e-53
2.3981029e-55
9.8629181e-58
4.2040805e-60
1.9275925e-61
6.1387393e-62
1.4963721e-62
2.8842114e-63
3.3603868e-64
1.7204975e-65
6.0169421e-67
6.5257008e-67
1.7510757e-66
3.8214289e-66
8.7826743e-66
1.2593819e-65
1.1433701e-65
5.4568817e-66
1.5484247e-66
5.2915133e-67
3.5096685e-68
1.6340475e-66
6.3435836e-65
2.5528447e-64
2.7609339e-64
2.2825222e-64
1.4917349e-64
6.6506737e-65
1.495589e-65
3.5555464e-66
2.96079e-65
7.7353914e-67
2.476759e-63
6.1436415e-61
6.6617881e-60
2.4317554e-59
2.3596276e-59
1.4933401e-60
6.6186206e-60
1.3261402e-58
4.2079742e-57
7.2628861e-54
1.7048077e-51
2.6536779e-47
3.5359953e-45
3.4587672e-43
3.1221516e-41
4.7795325e-39
3.4066576e-37
3.316522e-35
1.3720019e-32
3.1936691e-28
2.2089072e-26
1.5313086e-26
5.2580294e-26
2.6259114e-24
4.8304085e-24
2.8217277e-24
4.3421767e-25
1.0205814e-26
5.5970264e-29
2.3624595e-28
3.1051759e-26
4.1180276e-25
1.8527641e-25
1.9005621e-25
6.1658152e-24
2.6342405e-22
1.010412e-20
3.3866955e-19
9.7527152e-18
2.4852154e-16
4.8513698e-15
3.6015761e-14
1.1349644e-13
1.3283794e-13
2.163908e-13
1.3952873e-13
6.2235978e-14
1.1123297e-14
5.5371281e-16
5.1848887e-17
1.3037059e-17
3.7558285e-18
7.6459933e-19
6.9038549e-20
2.3537648e-21
7.6133349e-23
2.5658083e-24
2.6766334e-26
1.3199588e-29
1.0804337e-31
5.7512576e-34
2.0186158e-36
2.3227114e-37
1.9371645e-39
1.2504119e-41
8.0833059e-44
4.8487769e-46
2.6422067e-48
1.2887727e-50
5.4876754e-53
1.9619486e-55
6.4447917e-58
3.5893712e-59
1.3004687e-59
3.3207961e-60
6.8640594e-61
8.2418355e-62
4.1703541e-63
1.9981514e-64
3.6579662e-64
7.9560517e-64
1.5689536e-63
3.2499352e-63
4.3316381e-63
3.8601701e-63
1.7620738e-63
4.9155199e-64
1.546513e-64
7.8183175e-66
3.552316e-64
1.3699468e-62
5.3887145e-62
5.7579833e-62
4.7758668e-62
3.1234919e-62
1.3953461e-62
3.1966987e-63
7.1984645e-64
5.993644e-63
6.0902755e-62
5.6262272e-60
1.774495e-58
1.472286e-57
4.6223043e-57
2.285996e-56
1.2195616e-54
4.4264046e-53
6.5907697e-54
5.2626608e-53
2.2411467e-51
3.5430303e-50
3.0041781e-47
2.6549348e-43
6.3541132e-41
8.8326307e-39
1.2027937e-36
8.3737087e-35
1.348803e-32
2.1390523e-30
7.5464101e-26
5.7346013e-24
3.5339263e-24
1.4203182e-23
6.8191327e-22
1.2890048e-21
8.0413752e-22
1.4304136e-22
4.2398693e-24
2.8115646e-26
6.5694095e-26
7.5297583e-24
6.3403186e-23
1.9085357e-23
1.4481352e-23
3.321382e-22
1.3794437e-20
5.1370684e-19
1.6898507e-17
4.8819866e-16
1.0720055e-14
8.3411577e-14
8.5175953e-13
3.0737693e-12
3.0408687e-12
2.5918186e-12
1.6041127e-12
1.3934745e-12
5.4599708e-13
4.8823218e-14
4.3548273e-15
1.3568713e-15
4.8877683e-16
1.2642928e-16
1.4666334e-17
5.1205382e-19
1.036873e-20
3.2037068e-22
3.5611609e-24
1.9967006e-27
8.8173669e-30
3.0930899e-32
1.3106397e-33
6.4544744e-35
3.919659e-37
2.6394084e-39
1.7188408e-41
1.0140574e-43
5.2841687e-46
2.3416183e-48
8.2581328e-51
1.6684743e-53
3.0610386e-56
5.483695e-57
2.4317789e-57
6.4212537e-58
1.435184e-58
1.7509515e-59
8.7299509e-61
6.7666212e-62
1.6733714e-61
3.040835e-61
5.4595501e-61
1.0264142e-60
1.2716677e-60
1.1073816e-60
4.8215348e-61
1.3165845e-61
3.8510655e-62
1.5994867e-63
6.8162517e-62
2.5983076e-60
1.0081836e-59
1.0698344e-59
8.9126222e-60
5.8424146e-60
2.6205329e-60
6.1013148e-61
1.346057e-61
9.2211303e-61
5.6904462e-59
2.5728164e-57
4.4193784e-56
2.8007817e-55
8.6635788e-55
8.8111356e-54
8.3146372e-52
7.2164859e-50
4.8964773e-48
2.7255852e-46
6.4941956e-47
6.1892761e-46
2.0828684e-44
5.560044e-43
1.2037597e-40
1.4957724e-36
2.5021009e-34
2.0697479e-32
3.5773918e-30
2.0515648e-28
1.4400996e-23
1.316129e-21
7.7606647e-22
3.0963356e-20
1.9216283e-19
2.852373e-19
1.8061363e-19
3.5496026e-20
1.2944655e-21
1.108526e-23
2.3456109e-23
1.8660326e-21
8.9850725e-21
2.3601015e-21
1.1322231e-21
1.3626117e-20
5.636854e-19
2.0443849e-17
6.8503442e-16
1.8511122e-14
2.0193518e-13
1.5352681e-12
2.069918e-11
7.5138513e-11
7.2665368e-11
4.9255882e-11
2.6420772e-11
4.0784277e-11
1.9712892e-11
1.8391974e-12
1.1168122e-13
7.6049724e-14
3.5154561e-14
8.180918e-15
1.0756659e-15
5.7925673e-17
1.2988594e-18
3.590906e-20
4.3932863e-22
1.4197431e-25
3.0929723e-28
1.1341089e-30
7.4461235e-31
9.9715185e-33
6.422199e-35
4.436961e-37
2.863511e-39
1.6125953e-41
7.4988454e-44
3.4911845e-46
1.7018613e-49
4.4274495e-52
2.4522357e-54
6.2142668e-55
4.5625554e-55
1.1041e-55
2.5836187e-56
3.1604439e-57
1.6052331e-58
2.3241206e-59
6.3420542e-59
9.917071e-59
1.6221971e-58
2.7965895e-58
3.2173306e-58
2.7323997e-58
1.1337075e-58
3.0231787e-59
8.2773685e-60
3.0732209e-61
1.1744549e-59
4.3972255e-58
1.6940406e-57
1.7918234e-57
1.5007266e-57
9.8719562e-58
4.4530881e-58
1.0469907e-58
2.5852048e-59
1.7175227e-58
1.9998615e-56
6.84409e-55
8.5026702e-54
4.6456075e-53
1.3630064e-52
1.9457875e-51
2.6588514e-49
2.8570894e-47
2.5210973e-45
1.976799e-43
1.4029429e-41
8.9268061e-40
4.6741142e-38
1.064595e-36
4.8736269e-37
3.9618952e-36
3.8380966e-32
3.0819142e-30
4.2485792e-29
2.5844419e-25
1.8380767e-21
2.845629e-19
1.4277538e-19
2.5980543e-18
3.1281973e-17
4.6662604e-17
3.0249071e-17
6.5882874e-18
2.984618e-19
3.5698796e-21
1.2191167e-20
4.8174724e-19
1.1617157e-18
2.782997e-19
8.7442888e-20
3.9233249e-19
1.7832733e-17
6.5386251e-16
2.0989015e-14
3.1137433e-13
2.3181867e-12
3.6986979e-11
4.4349221e-10
1.4669723e-09
1.3701643e-09
8.3402466e-10
4.6169607e-10
1.1209337e-09
6.1986293e-10
1.9691619e-11
2.2924835e-13
8.6056057e-14
1.0659844e-13
2.1743173e-13
1.0675139e-13
8.6812882e-15
1.0266025e-16
3.7071098e-18
7.6720795e-20
1.4397794e-23
3.0444187e-27
1.0804244e-28
1.0519231e-28
1.1058779e-30
8.0582529e-33
5.6711884e-35
3.4830454e-37
1.7302475e-39
9.4901394e-42
5.8400479e-46
5.9076227e-48
4.4404716e-50
2.1744961e-52
5.3645616e-53
8.2961475e-53
1.8066931e-53
4.1054448e-54
4.843448e-55
2.6906577e-56
7.7133827e-57
2.022658e-56
2.7938054e-56
4.1414676e-56
6.5691785e-56
7.182154e-56
5.7989314e-56
2.3173906e-56
6.0222245e-57
1.551813e-57
5.6525221e-59
1.8433209e-57
6.7215728e-56
2.5837668e-55
2.7317937e-55
2.3021637e-55
1.5205715e-55
6.9048614e-56
1.6345156e-56
4.9298922e-57
4.2875255e-56
5.0902711e-54
1.4042797e-52
1.3833654e-51
6.9549861e-51
1.5621986e-50
2.3252176e-49
4.9002725e-47
7.1483518e-45
7.4509093e-43
6.6105981e-41
5.4674351e-39
4.2866247e-37
3.1877227e-35
2.2110635e-33
1.2867553e-31
1.7563838e-30
8.567278e-31
1.9634958e-29
1.256111e-26
8.9143557e-19
1.3467436e-19
4.9504825e-17
2.5817557e-17
2.05932e-17
1.3489842e-15
4.0232668e-15
3.0591396e-15
8.5349834e-16
5.3582933e-17
9.9477909e-19
7.2742756e-18
1.2270268e-16
1.063053e-16
3.12394e-17
2.7100661e-18
8.2503771e-18
4.412699e-16
1.5681428e-14
2.7556846e-13
2.250823e-12
4.9123963e-11
1.3019052e-09
7.8120703e-09
2.2366534e-08
1.9543503e-08
1.4233035e-08
4.6915931e-08
4.6337429e-08
1.7727547e-08
1.6890093e-09
5.5177126e-10
3.2176599e-10
7.7621674e-11
3.0313743e-11
8.6622114e-12
5.7605627e-13
4.8011529e-15
3.030512e-16
1.1987516e-17
2.7322685e-20
2.0320642e-25
1.051277e-26
9.2103856e-27
9.4303143e-29
7.2285661e-31
4.918835e-33
5.7072484e-35
9.4139566e-38
1.1367424e-41
1.9143328e-44
4.7766422e-46
3.8428895e-48
2.4135236e-50
8.9831198e-51
1.2086176e-50
2.6283734e-51
5.7369717e-52
6.5077716e-53
4.1712895e-54
2.4529594e-54
5.4733011e-54
6.8475154e-54
9.156991e-54
1.3342518e-53
1.4278462e-53
1.0667379e-53
4.1539937e-54
1.0502951e-54
2.5588687e-55
1.0087375e-56
2.6688251e-55
9.3751643e-54
3.6089055e-53
3.8225296e-53
3.2432655e-53
2.1514445e-53
9.8385976e-54
2.3627707e-54
8.0148587e-55
1.4335894e-53
1.0454823e-51
2.2766645e-50
1.8832748e-49
8.8272321e-49
1.4649053e-48
2.2093082e-47
5.3742523e-45
1.1025665e-42
1.5306331e-40
1.5523208e-38
1.3793499e-36
1.1590162e-34
9.3124062e-33
7.2547288e-31
5.3540285e-29
3.3453278e-27
1.5033365e-25
2.569632e-23
1.1794806e-20
2.2393687e-16
1.4061562e-15
1.0774594e-14
5.3795737e-15
7.8219541e-16
1.0273784e-14
1.3757944e-14
1.6166341e-13
7.1347084e-14
4.9674704e-15
1.9005491e-16
2.2047292e-15
2.4355196e-14
2.8250968e-15
3.4211136e-15
2.2439544e-16
1.3716118e-16
7.9125566e-15
1.5914854e-13
1.4203832e-12
3.3992353e-11
1.0987117e-09
3.7506124e-08
1.1122314e-07
2.4820255e-07
1.4545117e-06
1.1920013e-06
1.0416877e-06
8.7595835e-07
2.6189305e-07
2.5549965e-09
3.3637206e-10
2.9108545e-11
6.7523029e-12
5.8124697e-12
4.8533984e-12
6.9967015e-13
7.7939164e-14
3.9830048e-14
2.7603291e-15
8.8975208e-18
4.2997808e-23
7.5914017e-25
6.4460617e-25
5.4792283e-27
1.0410239e-28
4.1052422e-31
6.8721949e-35
1.9102339e-37
4.1620715e-40
3.2074896e-42
5.5504966e-44
3.6236537e-46
2.5465776e-48
1.2864452e-48
1.4449169e-48
3.0847199e-49
6.7476187e-50
7.9100522e-51
5.8985994e-52
6.7244548e-52
1.2626384e-51
1.4695547e-51
1.7699533e-51
2.3832344e-51
2.4893905e-51
1.7335145e-51
6.5754484e-52
1.6153862e-52
3.7349759e-53
1.7571718e-54
3.60503e-53
1.2038145e-51
4.6505692e-51
4.942726e-51
4.2249474e-51
2.8139843e-51
1.29588e-51
3.1865646e-52
1.1150894e-52
3.5840189e-51
1.785752e-49
2.9840748e-48
2.1158887e-47
8.5348927e-47
1.8636492e-46
6.2781656e-45
6.0904039e-43
1.1103125e-40
2.0248562e-38
2.653231e-36
2.6406202e-34
2.3320427e-32
1.9622748e-30
1.5980639e-28
1.2151007e-26
8.1327745e-25
5.7023602e-23
9.4537112e-21
2.2004438e-18
5.1069727e-16
5.3325646e-12
4.0820873e-12
7.0966921e-13
8.0601832e-15
3.7263552e-13
1.2667653e-11
7.4046893e-12
7.1674388e-14
3.0792084e-13
1.907418e-14
1.7503805e-13
3.5788095e-12
3.842572e-13
3.3301723e-13
1.6217656e-14
1.7023179e-15
6.3714321e-14
6.0151474e-13
1.6516441e-11
4.1457686e-10
1.8782927e-08
6.1146158e-07
6.9652143e-06
9.3455971e-06
8.7611966e-06
2.5255977e-06
1.4546473e-06
1.1627265e-06
6.1379044e-07
2.8927846e-08
3.5512909e-09
3.178059e-08
2.8297389e-08
4.5168118e-10
6.5328784e-13
2.1414042e-13
1.4153105e-13
4.3941433e-13
1.5441941e-13
4.3415239e-15
2.7350668e-19
1.4773831e-21
2.5189486e-23
3.8768369e-25
1.2308333e-28
5.0933795e-31
7.322867e-34
7.4080438e-36
4.764274e-38
6.620658e-40
5.2313391e-42
2.7842628e-44
2.6110921e-46
1.4952866e-46
1.470332e-46
2.9842037e-47
6.7719441e-48
8.9716387e-49
8.3602124e-50
1.5604644e-49
2.5077397e-49
2.7629391e-49
3.0091703e-49
3.7747798e-49
3.8165183e-49
2.5034949e-49
9.2386498e-50
2.2036501e-50
4.8493145e-51
2.9840979e-52
4.5898956e-51
1.4353107e-49
5.5634039e-49
5.9407017e-49
5.119808e-49
3.420603e-49
1.5856772e-49
4.0277642e-50
1.3057922e-50
5.4022452e-49
2.4264507e-47
3.3200183e-46
2.1146277e-45
7.2273786e-45
2.5758144e-44
1.6483293e-42
1.4042571e-40
1.2848581e-38
1.9013216e-36
3.0707282e-34
3.7195559e-32
3.5450105e-30
3.0928187e-28
2.4914332e-26
1.776886e-24
1.3017243e-22
1.9935466e-20
1.9476638e-18
1.4761248e-16
1.4830563e-16
1.1356334e-10
7.5463344e-11
4.5309196e-12
8.98035e-15
5.8140489e-12
5.4341635e-10
3.2904087e-11
9.5638944e-11
4.358002e-12
9.4487661e-15
3.1549871e-13
2.6612242e-10
4.401504e-11
2.8808592e-11
2.262994e-13
1.9518077e-14
2.5862692e-13
4.8623266e-12
1.4647528e-10
3.6563578e-09
8.5581102e-08
1.3534544e-05
9.1946528e-05
9.3520333e-05
1.0123312e-05
5.0093455e-07
6.4000853e-07
6.5945503e-07
1.4479121e-06
5.8300976e-07
1.5556744e-08
9.6150878e-08
1.5542683e-08
-2.4988584e-12
3.9508059e-12
1.6384954e-13
1.2045194e-13
4.9993198e-13
2.2045618e-13
6.1174934e-15
9.5932598e-17
3.450643e-18
3.3139767e-21
6.897807e-25
3.3078935e-28
4.6096833e-30
6.145539e-32
4.4725811e-34
5.1300072e-36
6.3742484e-38
4.3304097e-40
1.970333e-42
2.0622696e-44
1.4648073e-44
1.2736904e-44
2.4812135e-45
6.1005757e-46
9.5682083e-47
1.4947488e-47
3.1118807e-47
4.3148493e-47
4.5519603e-47
4.5161537e-47
5.2984383e-47
5.1863989e-47
3.2246521e-47
1.1566586e-47
2.678417e-48
5.6227788e-49
4.908863e-50
5.5574292e-49
1.6009141e-47
6.2089609e-47
6.6736355e-47
5.8010439e-47
3.8823573e-47
1.8104833e-47
4.7635853e-48
1.3494466e-48
5.7963076e-47
2.564401e-45
3.1658004e-44
1.898494e-43
5.8772445e-43
2.476834e-42
2.163307e-40
2.1395803e-38
2.0585138e-36
1.997363e-34
2.553927e-32
3.4148312e-30
3.6211527e-28
3.1619012e-26
2.4033453e-24
1.7997051e-22
2.6292762e-20
5.334123e-18
2.2780143e-16
2.3861278e-15
1.3798357e-13
1.8453736e-10
9.6471511e-11
3.0203444e-12
1.5659448e-14
2.6856278e-14
3.9688288e-11
1.2997815e-10
1.7023739e-09
3.8347297e-12
-6.8515206e-12
3.7331416e-11
2.4733949e-09
2.1720209e-09
4.2619183e-11
7.1355308e-12
1.9434002e-13
4.7573707e-12
3.0255725e-11
9.5694429e-10
2.3675171e-08
3.8361029e-06
8.6611865e-05
0.00011232309
0.00011117268
4.2831789e-06
3.5379597e-07
5.0218994e-07
8.8414008e-07
2.7337669e-06
7.8339587e-07
6.2515813e-08
1.4014095e-07
6.9196673e-08
7.1575507e-13
5.6833158e-13
3.6573533e-14
5.4714484e-14
2.4389843e-13
1.1548926e-13
4.2520863e-15
2.0465812e-16
1.8832633e-17
2.4797948e-19
9.1170547e-24
1.1484803e-26
2.0766409e-28
2.3329688e-30
1.5708396e-32
3.2506255e-34
3.3708102e-36
1.5290428e-38
5.5291322e-41
1.320756e-42
1.2113658e-42
9.5257412e-43
1.8654592e-43
5.5471515e-44
1.0736617e-44
2.4709372e-45
5.3916902e-45
6.5393963e-45
6.5385894e-45
6.0136088e-45
6.6082262e-45
6.2771726e-45
3.7166948e-45
1.2956482e-45
2.9133145e-46
5.8420677e-47
7.7521415e-48
6.4447417e-47
1.6796949e-45
6.4876961e-45
7.0504708e-45
6.1692744e-45
4.1290671e-45
1.9359286e-45
5.2692913e-46
1.2838659e-46
4.9189606e-45
2.2661701e-43
2.6320483e-42
1.5145436e-41
4.8402181e-41
1.5445827e-40
1.2727294e-38
1.5175512e-36
1.6137147e-34
1.5593994e-32
1.5091733e-30
1.8008975e-28
2.0560994e-26
1.7679554e-24
1.4348573e-22
2.1734227e-20
4.6505733e-18
2.919144e-16
1.0041047e-14
4.3645667e-13
9.7859411e-12
3.7382675e-11
2.9357405e-11
3.1911461e-12
8.6577345e-06
1.1629572e-05
4.1559177e-11
4.681303e-08
1.5185132e-09
1.5396997e-11
2.1409839e-10
3.6405647e-06
8.7611216e-06
6.2197028e-06
8.2289585e-07
5.6192696e-10
6.8269635e-12
2.9911386e-11
1.0900372e-10
4.225454e-09
1.1162726e-07
3.5928692e-05
0.00011364485
0.00011378382
3.1055296e-05
3.2859176e-07
3.2623119e-07
2.0669374e-06
5.6008587e-06
5.7602436e-06
2.8747112e-06
2.6383346e-07
1.6916312e-07
4.4973792e-08
7.5406035e-14
2.0381479e-14
2.0381479e-14
2.0381479e-14
2.0756008e-14
5.4906884e-14
9.5616709e-16
1.455216e-16
1.7775814e-17
3.7474509e-19
4.9703155e-23
5.6959573e-25
9.8827627e-27
7.6347959e-29
1.5053097e-30
1.3017802e-32
8.2030801e-35
3.17637e-37
1.4651508e-39
1.4887841e-40
1.1356654e-40
4.3527309e-41
1.4327408e-41
5.8197473e-42
1.6559632e-42
3.1611044e-43
8.035952e-43
9.0922904e-43
8.1090178e-43
7.1539146e-43
7.358914e-43
6.7861314e-43
3.8443532e-43
1.3027386e-43
2.8457579e-44
5.4551848e-45
1.1644638e-45
7.1925472e-45
1.6644794e-43
6.3691339e-43
7.0357087e-43
6.1791173e-43
4.1284716e-43
1.9447781e-43
5.4583059e-44
1.1579206e-44
3.4804703e-43
1.7305758e-41
1.9360393e-40
1.0823079e-39
3.9847992e-39
8.4201117e-39
3.7067915e-37
5.9119133e-35
5.642177e-33
5.35897e-31
5.0292091e-29
5.5781017e-27
6.7387448e-25
6.9748827e-23
9.9270149e-21
2.3745737e-18
1.7427158e-16
3.0521523e-15
4.9664669e-14
9.3820724e-12
1.0403994e-10
4.1274614e-11
2.6092588e-11
4.0484752e-06
6.2410959e-05
7.7355987e-05
5.4161674e-06
1.9331084e-09
1.743011e-09
1.0154987e-09
9.8723696e-09
2.105936e-06
3.3738314e-05
9.2904609e-05
7.700964e-05
6.9730076e-06
4.0464113e-10
1.1026448e-10
4.1851468e-10
6.2157812e-09
5.745491e-07
6.7820168e-05
0.00011396453
9.258151e-05
3.3504009e-07
3.2630443e-07
3.347029e-07
3.9694297e-06
5.7766705e-06
5.7854122e-06
5.1973326e-06
1.9998231e-07
1.6841537e-07
2.9810542e-06
1.5434011e-05
6.3648911e-08
2.0381479e-14
2.8734882e-12
1.0249149e-08
2.479134e-08
2.1760601e-16
-1.975563e-16
-3.4338318e-16
3.4022201e-19
1.6697948e-21
2.8393561e-23
2.6375527e-25
3.0235152e-27
3.5500851e-29
2.266866e-31
1.2152466e-33
6.393448e-36
3.4845249e-38
1.0736427e-38
7.5132459e-39
2.6066965e-39
1.2719627e-39
7.4701742e-40
2.8013247e-40
3.2406643e-41
1.0338153e-40
1.1296432e-40
8.9956477e-41
7.5903072e-41
7.3634753e-41
6.5497543e-41
3.5783899e-41
1.1792529e-41
2.5027374e-42
4.5901178e-43
1.6499956e-43
7.7421199e-43
1.5627371e-41
5.8936718e-41
6.6505744e-41
5.8444472e-41
3.8917062e-41
1.8403854e-41
5.3075674e-42
1.0041647e-42
2.1779362e-41
1.1668453e-39
1.2737472e-38
6.9765018e-38
2.8429069e-37
4.7203548e-37
6.2046954e-36
1.1816807e-33
1.2550321e-31
1.2441611e-29
1.2399627e-27
1.4380474e-25
2.0582205e-23
4.8289771e-21
8.5861385e-19
5.8621648e-17
1.2854134e-15
1.5691412e-14
1.5700334e-14
3.513506e-11
4.0757106e-10
1.6629595e-10
2.59509e-11
1.158761e-05
7.7772752e-05
7.8002453e-05
7.6063941e-05
3.4232219e-06
1.9329148e-09
7.151421e-08
2.3000193e-07
5.5521136e-07
6.0941217e-06
9.4292955e-05
0.00012331169
0.00010416755
4.467206e-06
3.1716698e-10
6.1937561e-09
1.032157e-08
1.8432607e-06
8.1374978e-05
0.00011334761
6.4807136e-05
3.5236124e-07
3.3504009e-07
3.5154052e-07
1.8346342e-06
5.782951e-06
4.6949408e-06
4.1186664e-07
2.2962689e-07
2.655959e-07
1.8706839e-05
1.8938507e-05
1.1244862e-05
5.2486485e-12
9.2182044e-11
7.1040738e-09
1.8333556e-08
-1.6408284e-16
-4.9680073e-16
-5.5433025e-16
4.1589902e-19
1.1950304e-19
5.01844e-22
5.4294218e-24
4.4383795e-26
4.0603393e-28
5.1308175e-30
2.8809345e-32
1.1813438e-34
1.1998054e-36
6.3959589e-37
4.2616951e-37
1.8934332e-37
1.3708852e-37
1.1567277e-37
4.5059315e-38
3.7060971e-39
1.1710218e-38
1.2391495e-38
8.9348166e-39
7.2042506e-39
6.635882e-39
5.6655826e-39
3.0050445e-39
9.6364317e-40
1.9874152e-40
3.48874e-41
2.1897381e-41
8.0330179e-41
1.393698e-39
5.1567861e-39
5.959694e-39
5.2336555e-39
3.4669998e-39
1.6442315e-39
4.8583095e-40
8.3945249e-41
1.2785621e-39
7.0570452e-38
7.5456989e-37
4.0380443e-36
1.5603737e-35
3.0987719e-35
1.0275315e-34
1.0122033e-32
1.9300587e-30
2.52384e-28
3.0508771e-26
3.6397736e-24
5.1883379e-22
1.3462917e-19
1.6195674e-17
3.9839419e-16
3.3580161e-15
2.626088e-14
1.6312104e-14
1.6529557e-14
1.412356e-09
7.9438075e-10
5.1231913e-11
3.8321405e-11
6.7512426e-05
7.8267649e-05
7.8394621e-05
3.2535395e-05
3.9607332e-08
8.3870676e-08
2.416566e-06
6.0300698e-07
8.1085052e-08
8.388116e-08
0.00010149909
0.00012284016
7.3373494e-05
5.8907464e-07
1.032281e-08
9.9910281e-08
3.458554e-06
8.9182649e-05
0.00011180185
8.6209952e-05
3.5364161e-07
3.5202515e-07
3.4018832e-07
3.8419648e-07
1.4003084e-06
2.6845573e-06
8.4818834e-07
5.7496731e-06
1.8459425e-05
1.9048439e-05
1.9032573e-05
1.8938507e-05
6.878836e-06
1.9696547e-10
2.7567741e-10
3.633448e-10
-1.6580161e-16
-2.5566184e-16
-8.6969874e-17
2.3016375e-16
7.7358994e-18
2.3380332e-19
2.03906e-21
1.7157841e-23
1.1450415e-25
5.4174656e-28
1.8334261e-30
6.5295003e-33
6.6559519e-35
3.3426163e-35
2.2524918e-35
1.7630276e-35
1.9093385e-35
1.6669422e-35
6.3513822e-36
3.749039e-37
1.1729825e-36
1.201382e-36
7.9714206e-37
6.1167623e-37
5.3950241e-37
4.4083853e-37
2.2822125e-37
7.127119e-38
1.4287024e-38
2.400777e-39
2.705094e-39
8.0054165e-39
1.1822043e-37
4.2750515e-37
5.0653647e-37
4.4442358e-37
2.9245971e-37
1.3894697e-37
4.1979027e-38
6.7732139e-39
7.1871277e-38
3.864195e-36
4.0343768e-35
2.1045043e-34
7.547396e-34
2.0382363e-33
3.4038849e-33
5.3805348e-32
1.5594576e-29
2.4810728e-27
3.0894776e-25
3.4039518e-23
3.9263452e-21
6.4007349e-19
5.7168444e-17
1.3605327e-15
1.1338723e-14
6.8973291e-14
2.7372772e-14
2.2235794e-14
8.0691362e-09
8.6030846e-09
2.3055384e-09
3.8150613e-11
7.541267e-06
7.1915634e-05
7.871308e-05
7.8680749e-05
1.3232332e-05
2.1798424e-06
3.0973022e-06
8.1019861e-07
6.3132522e-08
7.7647112e-08
8.3871095e-08
0.00011933766
0.00010549606
6.7138779e-06
7.9925455e-08
2.3276102e-07
3.1020592e-06
9.0137388e-05
0.000112229
0.00010934423
2.851284e-06
3.4707911e-07
2.5555219e-07
2.8962953e-07
1.4396318e-06
1.3123616e-05
1.8380874e-05
1.9020267e-05
1.9126688e-05
1.9045775e-05
1.9088453e-05
1.8261407e-05
1.1809144e-05
3.7702463e-06
7.3085106e-07
6.2845631e-17
0
2.774979e-15
3.817831e-15
1.4111443e-15
6.316943e-17
1.6938373e-18
1.2428207e-20
1.0907269e-22
7.9003527e-25
4.2974959e-27
1.7240398e-29
3.5821434e-32
2.7505698e-33
1.9420673e-33
1.7484797e-33
2.2473384e-33
2.6151806e-33
2.1650652e-33
7.4775958e-34
3.5586074e-35
1.0402841e-34
1.030556e-34
6.4009709e-35
4.6635448e-35
3.9480158e-35
3.1031834e-35
1.5711981e-35
4.7824161e-36
9.3195337e-37
1.4992069e-37
3.0939005e-37
7.6221184e-37
9.5412254e-36
3.3614829e-35
4.0830813e-35
3.5804441e-35
2.3399704e-35
1.1129412e-35
3.4310647e-36
5.2820133e-37