/*--------------------------------*- C++ -*----------------------------------*\
  =========                 |
  \\      /  F ield         | OpenFOAM: The Open Source CFD Toolbox
   \\    /   O peration     | Website:  https://openfoam.org
    \\  /    A nd           | Version:  9
     \\/     M anipulation  |
\*---------------------------------------------------------------------------*/
FoamFile
{
    format      ascii;
    class       surfaceScalarField;
    location    "0.59";
    object      alphaPhi0.phase1;
}
// * * * * * * * * * * * * * * * * * * * * * * * * * * * * * * * * * * * * * //

dimensions      [0 3 -1 0 0 0 0];

internalField   nonuniform List<scalar> 
19800
(
3.7696856e-88
-2.8738119e-88
4.3130034e-88
-2.8926169e-88
1.5685369e-86
-2.0818289e-87
5.3821915e-85
-8.3504679e-86
6.7850949e-85
-1.2636107e-85
2.2772245e-85
-6.1369877e-86
5.2939553e-86
-1.726226e-86
3.0000913e-86
-4.4927415e-87
3.037032e-86
-5.1931321e-87
3.0746677e-86
-4.9407137e-87
1.5584612e-84
-3.6349085e-86
4.2680536e-82
-5.5921913e-84
2.1326127e-80
-1.4103766e-82
2.5563157e-79
8.7724233e-82
1.318881e-78
3.0434886e-80
4.4413576e-78
2.1079493e-79
1.1272345e-77
8.7258172e-79
1.9204586e-77
2.5175781e-78
2.2931597e-77
4.1042157e-78
3.6327036e-76
5.9829302e-77
3.0367828e-74
7.2061103e-75
1.9749045e-72
7.8815876e-73
7.6474966e-71
7.2287787e-71
-1.0902438e-69
5.7352009e-69
-5.3109469e-67
4.3344203e-67
-6.6251453e-65
3.5387037e-65
-9.1683299e-63
3.4862913e-63
-3.9202657e-60
8.2937135e-61
-1.9950572e-57
3.7186827e-58
-9.747633e-55
1.5087805e-55
-1.019782e-51
5.4480896e-53
-5.207736e-48
2.79496e-50
-1.7255591e-47
3.1650262e-48
-1.2479207e-46
7.3138105e-48
-1.3692509e-46
2.4506856e-47
-1.0150946e-46
2.2374632e-47
-1.8173971e-47
9.516707e-48
-1.3073327e-48
1.1439817e-48
-1.2140922e-48
1.0486889e-49
-3.2239721e-48
6.2674378e-50
-5.2765291e-48
3.7556651e-50
-6.6164999e-47
-2.6008373e-48
-1.0822742e-45
-1.06556e-46
-2.5038657e-44
-3.9371717e-45
-9.683026e-44
-9.3543437e-44
-3.7191049e-43
-6.9229535e-43
2.6256991e-42
-3.8280035e-41
2.0703686e-39
-6.8181774e-39
3.2779714e-37
-6.9876221e-37
3.5495542e-35
-6.3876003e-35
2.9083918e-33
-4.8154255e-33
1.7448194e-31
-2.8257287e-31
7.0799116e-30
-1.1835651e-29
1.4370254e-28
-2.9199947e-28
4.7661887e-28
-3.1129937e-27
4.2362176e-28
-2.9622215e-27
5.4816437e-29
-1.5715863e-28
6.7941776e-30
-6.4513277e-30
5.6049528e-31
-5.0973683e-31
2.5130725e-32
-1.2697299e-31
2.2772004e-34
-1.2554032e-33
4.7470963e-36
2.7725436e-36
1.698653e-37
1.4293849e-37
5.0346611e-39
6.8098169e-39
2.2420241e-40
3.0898316e-40
1.4734778e-41
1.9515183e-41
6.4988254e-43
1.2577508e-42
1.5302723e-44
5.2225338e-44
2.46113e-46
1.3549431e-45
3.5272509e-48
2.6701295e-47
4.615291e-50
4.5618583e-49
5.1346944e-52
6.6832265e-51
4.7134414e-54
8.2281481e-53
3.5064835e-56
8.4097003e-55
2.055047e-58
7.0211327e-57
9.1115431e-61
4.667381e-59
2.8942347e-63
2.3963417e-61
6.0166129e-66
9.0859547e-64
6.8944418e-69
2.3660529e-66
2.8142124e-72
3.7455884e-69
-2.6917768e-76
2.7308055e-72
-5.3516919e-77
1.6908928e-75
-3.2547317e-77
6.122842e-77
-1.5647879e-77
2.0345051e-77
-6.3347722e-78
5.9312164e-78
-2.078459e-78
1.5694543e-78
-4.8754469e-79
3.3413215e-79
-5.357027e-80
4.8063974e-80
-1.4630799e-81
2.9291628e-81
-6.6280658e-84
3.5326504e-83
-1.1490519e-86
9.5374472e-88
-1.190525e-86
-9.0071827e-87
-1.2865189e-86
-8.664608e-87
-2.764128e-86
-2.9961356e-87
-1.4905909e-85
-1.946477e-86
-1.1570216e-84
-1.057814e-85
-1.0566554e-84
-3.6233784e-85
-7.4891644e-85
-1.3942091e-83
-5.406354e-85
-3.2500443e-83
-3.244769e-83
6.5456451e-88
-8.9145601e-88
2.5920312e-86
-1.4141699e-86
9.8134008e-85
-4.7226989e-85
8.6711238e-84
-4.769855e-84
1.1082571e-83
-6.8924813e-84
8.9867443e-84
-5.2363986e-84
5.7797026e-84
-3.2366133e-84
1.9555959e-84
-1.2995777e-84
1.9735168e-85
-2.2544945e-85
6.1674324e-86
-1.2390531e-86
1.2837425e-84
-4.2442828e-86
2.7996426e-82
-3.8817292e-84
1.6776928e-80
-1.202109e-83
2.1366337e-79
3.1647561e-81
1.2779633e-78
5.1542665e-80
4.3753034e-78
3.4162623e-79
1.0816206e-77
1.3538368e-78
1.8185649e-77
3.5816847e-78
2.4611932e-77
6.3430499e-78
5.1249691e-75
2.3373725e-75
5.4280731e-73
3.6585335e-73
3.2518676e-71
3.5416872e-71
1.1904323e-69
2.7150951e-69
2.9509178e-69
1.885106e-67
-3.5846876e-66
1.2763405e-65
-7.8442927e-64
1.2722325e-63
-3.0485683e-61
2.9166197e-61
-1.9289955e-58
1.3659815e-58
-1.2830796e-55
7.289711e-56
-6.8674311e-53
3.3116781e-53
-1.428532e-49
1.247984e-50
-5.1163988e-46
7.117559e-48
-4.8673671e-46
4.1245316e-46
-5.6631488e-46
3.2935765e-46
-4.4295353e-44
8.2488321e-46
-5.1639587e-44
2.2816485e-44
-3.1107885e-44
2.064747e-44
-2.1316479e-45
5.8281514e-45
-7.3982025e-47
2.2856468e-46
-1.0114867e-46
6.6039734e-48
-9.0497575e-46
-2.1567483e-47
-1.3186059e-44
-1.6605768e-45
-4.9009455e-43
-7.4929669e-44
-1.9453963e-41
-4.1388887e-42
-5.3565975e-41
-8.886394e-41
-1.997285e-40
-4.6032311e-40
-1.5045965e-39
-2.616164e-38
5.8845346e-37
-1.9513685e-36
9.2079554e-35
-1.514126e-34
9.1839749e-33
-1.0972734e-32
6.9576576e-31
-7.9506681e-31
3.918735e-29
-4.347035e-29
1.5225322e-27
-1.6476355e-27
2.9659973e-26
-3.1198494e-26
7.8748675e-26
-6.5857277e-26
6.8374362e-26
-5.4181935e-26
1.604087e-26
-1.8152448e-26
1.6428815e-27
-2.7406516e-27
1.5919007e-28
-1.8703648e-28
7.5935482e-30
-8.9754787e-30
8.4663445e-32
-3.5097663e-31
2.0682879e-33
2.7729896e-33
7.1372158e-35
1.7448906e-34
2.0678319e-36
8.5664893e-36
8.6786603e-38
3.6823625e-37
7.2016412e-39
2.3519171e-38
5.2987166e-40
2.1372853e-39
1.7031166e-41
1.300255e-40
2.5413724e-43
3.9106383e-42
3.1035359e-45
7.2270824e-44
3.8071401e-47
1.1594952e-45
4.0731156e-49
1.6318984e-47
3.5808093e-51
1.932456e-49
2.5323405e-53
1.8921122e-51
1.397896e-55
1.5061375e-53
5.7387638e-58
9.4659962e-56
1.6416235e-60
4.5266319e-58
2.9392383e-63
1.5652962e-60
2.6139907e-66
3.6007499e-63
5.9640534e-70
4.6661921e-66
-6.2817467e-73
2.4987264e-69
-7.8645101e-75
3.6271099e-72
-1.4593416e-76
1.4939109e-74
-2.5451919e-77
1.3928219e-76
-8.3088605e-78
1.3111204e-77
-2.4726118e-78
2.7684954e-78
-5.2965318e-79
5.095314e-79
-5.4754163e-80
6.2556042e-80
-1.5521128e-81
3.5262614e-81
-9.2607744e-84
3.8414317e-83
-1.6813862e-85
-1.1159494e-85
-3.9612091e-85
-2.8466811e-86
-3.036048e-84
-5.096539e-85
-2.257344e-83
-4.4580682e-84
-1.1125095e-82
-3.1919029e-83
-2.9748162e-82
-1.2567837e-82
-2.5434394e-82
-2.6301333e-82
-1.4457072e-82
-2.7833196e-82
-3.3179945e-83
-1.6034099e-82
-7.147066e-83
6.987676e-85
-9.5404862e-85
3.4630785e-83
-2.3094584e-83
1.3303155e-81
-8.0487545e-82
7.5598143e-81
-5.1751152e-81
8.8580983e-81
-6.3945091e-81
6.7000479e-81
-4.7148895e-81
4.0516647e-81
-2.7846598e-81
1.3563315e-81
-1.0769349e-81
1.5533248e-82
-1.8710513e-82
8.6289119e-84
-1.4409302e-83
4.1357933e-84
-6.2660131e-85
2.36623e-82
-3.9436441e-84
1.3793985e-80
6.2214762e-83
8.3919183e-80
2.8031383e-81
2.5401278e-79
1.5710745e-80
8.1335224e-77
1.7483102e-77
9.8900657e-77
4.3778101e-77
2.5789e-77
1.1465952e-77
2.2261231e-76
6.7184796e-77
9.6625706e-72
5.7806743e-72
7.371616e-70
6.3371906e-70
4.5855363e-68
6.1174594e-68
1.851726e-66
4.6593083e-66
2.9415186e-65
3.2106887e-64
-3.0739394e-63
2.1788559e-62
-8.3649665e-61
2.1636009e-60
-2.9013446e-58
4.2557949e-58
-1.4958462e-55
1.5863072e-55
-1.008011e-52
8.1903721e-53
-5.6288985e-50
3.8227649e-50
-1.2115443e-46
1.472343e-47
-4.4631841e-43
8.5376853e-45
-4.1448403e-43
5.0295779e-43
-4.8751819e-43
3.9693195e-43
-4.6201262e-41
1.1153908e-42
-5.943784e-41
3.348607e-41
-3.818332e-41
3.154605e-41
-3.1327931e-42
9.3977765e-42
-2.9110952e-44
4.0827897e-43
-3.3051172e-44
2.6954187e-45
-1.7379402e-43
-9.2635932e-45
-3.6749983e-42
-5.8595381e-43
-2.6103693e-40
-4.208617e-41
-1.0989137e-38
-2.553986e-39
-2.2786442e-38
-4.4751765e-38
-7.1279254e-38
-1.6378047e-37
-1.2357283e-36
-8.6915813e-36
7.4872848e-35
-5.5732807e-34
1.4015865e-32
-3.736946e-32
1.3480475e-30
-2.2910481e-30
9.6228592e-29
-1.2240024e-28
5.1754937e-27
-6.1946238e-27
1.9617304e-25
-2.2555713e-25
3.843183e-24
-4.2623228e-24
1.0629743e-23
-1.2052757e-23
9.9609884e-24
-1.0334996e-23
2.545561e-24
-3.7036444e-24
3.1513846e-25
-6.2850831e-25
2.8402861e-26
-5.0594199e-26
1.4352222e-27
-2.0641312e-27
1.782835e-29
-4.9473511e-29
5.7527458e-31
7.836773e-31
1.9090298e-32
6.3062388e-32
6.8085482e-34
3.2777116e-33
4.3961568e-35
1.8088521e-34
4.505397e-36
1.6769499e-35
3.0593208e-37
1.6293773e-36
1.0175341e-38
1.0131311e-37
1.5991921e-40
3.225283e-39
1.8417859e-42
5.9041045e-41
2.1402961e-44
9.0910822e-43
2.1877233e-46
1.2341681e-44
1.8252996e-48
1.4039652e-46
1.2107133e-50
1.3106636e-48
6.1615618e-53
9.8482793e-51
2.7352965e-55
5.7604057e-53
7.8644686e-58
2.5188944e-55
8.0211615e-61
7.6891095e-58
4.6873609e-64
1.4752808e-60
-2.192826e-69
1.4414653e-63
-9.1103707e-70
8.3967578e-67
-7.9118971e-72
3.598877e-69
-9.0228679e-74
1.4527247e-71
-7.1803009e-75
1.0381277e-73
-1.5494788e-75
6.0241952e-75
-3.0288952e-76
9.3348765e-76
-3.8262428e-77
1.2082544e-76
-3.2837228e-78
9.5239504e-78
-2.0793584e-79
4.5095591e-79
-6.0842616e-81
9.8493183e-81
-3.6582145e-82
-2.190729e-82
-8.0954879e-82
-8.0623471e-83
-5.013626e-81
-1.1491786e-81
-3.1277937e-80
-8.3665428e-81
-1.330321e-79
-5.1788285e-80
-3.2017621e-79
-1.8288237e-79
-2.6992486e-79
-3.6013882e-79
-1.3892926e-79
-3.5274251e-79
-2.7585758e-80
-1.8045978e-79
-6.7823937e-80
3.852684e-82
-6.200368e-82
2.7971996e-80
-2.0380307e-80
1.0759888e-78
-7.2930743e-79
4.2302712e-78
-3.5770828e-78
4.7640628e-78
-4.0086054e-78
3.5492625e-78
-2.9276671e-78
2.0862843e-78
-1.6878308e-78
6.8820857e-79
-6.3973928e-79
8.7722048e-80
-1.0976899e-79
7.3391839e-81
-1.2009714e-80
2.7073871e-82
-2.288317e-82
1.6839094e-82
-6.6354921e-84
1.4722958e-80
1.2759904e-82
1.1012378e-79
4.3470627e-81
4.9659394e-74
6.6533475e-75
2.7598661e-73
1.0817042e-73
6.8103127e-74
7.274756e-74
4.8060861e-76
4.5147977e-75
1.8352034e-76
1.1809151e-76
4.0357842e-69
2.5048571e-69
6.3307673e-67
6.0637881e-67
4.3476305e-65
6.2063362e-65
2.0120689e-63
4.8952372e-63
5.5021064e-62
3.4557248e-61
-1.2157744e-60
2.3632999e-59
-5.5488491e-58
2.3204861e-57
-1.9471182e-55
4.0519115e-55
-8.2823907e-53
1.2518046e-52
-5.6176371e-50
6.1280765e-50
-3.3233588e-47
2.9643114e-47
-7.4724155e-44
1.1775519e-44
-2.8437655e-40
6.9807966e-42
-2.615559e-40
4.1659707e-40
-3.1464208e-40
3.2343538e-40
-3.4139964e-38
1.0717889e-39
-5.0836584e-38
3.3753811e-38
-3.5092971e-38
3.4232979e-38
-3.4537776e-39
1.1134052e-38
-1.9691083e-41
5.6598564e-40
-1.9064494e-41
2.3387398e-42
-3.231396e-41
-2.0773684e-42
-1.1597006e-39
-1.7454083e-40
-1.2085478e-37
-1.7980696e-38
-4.7463988e-36
-1.0616558e-36
-7.3428863e-36
-1.4719672e-35
-1.8034293e-35
-3.7144948e-35
-4.2650295e-34
-1.8164256e-33
6.7466848e-35
-1.0710537e-31
1.2439509e-30
-6.0052196e-30
1.2834712e-28
-3.2877351e-28
8.989546e-27
-1.6054743e-26
4.6752401e-25
-6.4665557e-25
1.7414813e-23
-2.1399828e-23
3.4458477e-22
-4.0485496e-22
9.9198445e-22
-1.4400092e-21
1.0084483e-21
-1.2872112e-21
2.8409222e-22
-4.9469454e-22
4.2695027e-23
-9.4678923e-23
3.3963695e-24
-8.9901243e-24
1.907837e-25
-2.9348674e-25
2.6481669e-27
-2.8609363e-27
1.2632635e-28
2.005545e-28
4.39295e-30
1.6899101e-29
2.3166104e-31
1.0317269e-30
2.3457036e-32
8.9117335e-32
2.2791918e-33
1.0460189e-32
1.2994462e-34
9.3726469e-34
4.4727259e-36
5.6790455e-35
7.5470495e-38
1.9006472e-36
8.181521e-40
3.4529632e-38
8.8605685e-42
5.0493572e-40
8.4924999e-44
6.5342197e-42
6.5817537e-46
7.0410143e-44
4.5699319e-48
6.1737028e-46
2.4444845e-50
4.2950229e-48
9.3261122e-53
2.2744746e-50
1.3200382e-55
8.6669038e-53
1.0928933e-58
2.1886727e-55
3.82937e-62
3.2087234e-58
-6.8907356e-65
2.4667566e-61
-8.5322152e-67
6.0180917e-64
-5.9794664e-69
2.5562262e-66
-5.2906541e-71
1.0093389e-68
-3.7224539e-72
5.9975634e-71
-8.6430509e-73
3.2284586e-72
-1.8779506e-73
5.5314445e-73
-2.9629899e-74
8.0395302e-74
-3.0025687e-75
7.8537878e-75
-1.7314603e-76
4.1740245e-76
-4.4639797e-78
6.497584e-78
-5.4621053e-79
-2.8139828e-79
-1.1564845e-78
-1.5667493e-79
-6.0144123e-78
-1.7641194e-78
-3.173872e-77
-1.0832586e-77
-1.1781244e-76
-5.7996989e-77
-2.5180509e-76
-1.8508441e-76
-2.0693013e-76
-3.3943278e-76
-9.7899758e-77
-3.0865442e-76
-1.7777002e-77
-1.4931728e-76
-5.2333893e-77
1.6432824e-79
-3.0337663e-79
1.4361101e-77
-1.1679742e-77
5.5202978e-76
-4.2359451e-76
1.8021773e-75
-1.809176e-75
1.9911496e-75
-1.9055881e-75
1.4758095e-75
-1.3858491e-75
8.5209364e-76
-7.8868254e-76
2.7826405e-76
-2.9396322e-76
3.9147191e-77
-5.0538909e-77
4.8067351e-78
-7.0879731e-78
1.4836729e-79
-3.6232261e-79
6.3107161e-80
-5.619471e-81
3.7737212e-79
8.5545453e-81
2.3498089e-76
1.8696625e-77
4.0452109e-71
6.3200278e-72
1.5496077e-70
6.8342109e-71
2.8416683e-71
3.9407421e-71
8.4158494e-74
1.5001139e-72
2.8604419e-74
3.1430535e-74
2.4350954e-68
1.0514192e-68
3.2422059e-64
3.2220912e-64
2.8985624e-62
4.1614149e-62
1.5568056e-60
3.5156604e-60
5.7970749e-59
2.586111e-58
5.3104938e-58
1.7869512e-56
-2.2214331e-55
1.6706382e-54
-9.1956095e-53
2.7716519e-52
-3.364012e-50
7.1783697e-50
-2.2856848e-47
3.2816165e-47
-1.4730646e-44
1.6764727e-44
-3.5209384e-41
6.9957127e-42
-1.4216388e-37
4.2830702e-39
-1.305775e-37
2.6275048e-37
-1.5986619e-37
2.0193643e-37
-1.8330442e-35
7.3214639e-37
-3.4066088e-35
2.491183e-35
-2.5394783e-35
2.8438819e-35
-3.0747126e-36
1.0288875e-35
-3.3966164e-38
6.4814613e-37
-4.3158346e-39
3.3363843e-39
-6.4685906e-39
-2.5069083e-40
-3.7404162e-37
-4.8973304e-38
-4.946613e-35
-5.9918329e-36
-1.7020015e-33
-3.2607562e-34
-1.8785272e-33
-3.5826458e-33
-3.2804738e-33
-6.0209309e-33
-9.1206208e-32
-2.6369759e-31
-1.6959118e-30
-1.4642039e-29
5.0039456e-29
-7.2107404e-28
8.2150374e-27
-3.4408751e-26
6.0169543e-25
-1.5322795e-24
3.111661e-23
-5.7630759e-23
1.1485202e-21
-1.6793036e-21
2.296035e-20
-3.001126e-20
6.8655057e-20
-1.2425105e-19
7.5680732e-20
-1.1551165e-19
2.3634732e-20
-4.7485302e-20
4.3220832e-21
-1.025048e-20
4.3337982e-22
-1.1496978e-21
2.1001529e-23
-4.3885107e-23
3.9671363e-25
-1.7804706e-25
1.8446083e-26
4.0970307e-26
1.016211e-27
3.81153e-27
9.467029e-29
3.3749655e-28
1.2318294e-29
4.7232836e-29
9.561761e-31
5.7526681e-30
4.298118e-32
4.3280461e-31
1.4977693e-33
2.4349768e-32
2.7188075e-35
8.4107395e-34
2.7691513e-37
1.5126467e-35
2.7392943e-39
2.0705151e-37
2.6840181e-41
2.5125372e-39
2.2052026e-43
2.565118e-41
1.3941714e-45
2.0822123e-43
6.1677589e-48
1.2995145e-45
1.4877983e-50
5.9455462e-48
1.1789507e-53
1.8501629e-50
6.7864201e-57
3.5736682e-53
-3.3495371e-60
3.9003944e-56
-7.3600346e-62
7.3263252e-59
-5.9126701e-64
3.3419409e-61
-3.5663312e-66
1.3999223e-63
-2.4452324e-68
5.3776713e-66
-1.4247799e-69
2.6133434e-68
-3.7079184e-70
1.2226866e-69
-8.7842305e-71
2.4001673e-70
-1.5549219e-71
3.7858505e-71
-1.7051033e-72
4.0759695e-72
-9.5208381e-74
2.1974566e-73
-2.2541181e-75
1.9919358e-75
-6.5702431e-76
-2.2668884e-76
-1.2828793e-75
-2.3822624e-76
-5.5718811e-75
-2.0105462e-75
-2.4911138e-74
-1.0490609e-74
-8.1722786e-74
-4.8631995e-74
-1.5439502e-73
-1.4073218e-73
-1.2298058e-73
-2.3956573e-73
-5.3916571e-74
-2.0273011e-73
-9.0020171e-75
-9.2787595e-74
-3.039953e-74
5.7477246e-77
-1.1915517e-76
5.5316476e-75
-4.9945382e-75
2.1197322e-73
-1.8201725e-73
6.2185844e-73
-7.1796657e-73
6.8080103e-73
-7.263525e-73
5.0444637e-73
-5.2807306e-73
2.8779746e-73
-2.9758412e-73
9.367444e-74
-1.1033108e-73
1.4272841e-74
-1.9093267e-74
5.4303628e-75
-3.1396641e-75
3.0474519e-75
-2.4390835e-75
1.8267618e-76
-2.4797679e-77
2.7187599e-76
9.1894173e-78
6.6291323e-70
5.7556038e-71
2.0728197e-68
3.6198134e-69
6.068207e-68
2.8640273e-68
5.8727061e-69
1.198679e-68
4.0900765e-71
2.4358062e-70
3.4785118e-71
4.0168904e-71
3.3422003e-68
1.4960251e-68
1.9907906e-62
1.033154e-62
1.4381402e-59
1.9809396e-59
1.4015114e-57
2.8703095e-57
4.1773803e-56
1.4440226e-55
1.2102276e-54
1.0496997e-53
-3.629156e-53
8.9793936e-52
-2.8505111e-50
1.4397758e-49
-1.0254793e-47
3.1381836e-47
-7.0214251e-45
1.3302287e-44
-5.1083868e-42
7.3222193e-42
-1.327115e-38
3.2588609e-39
-5.7946316e-35
2.0900828e-36
-5.3547006e-35
1.3240544e-34
-6.644899e-35
1.0161444e-34
-7.4976371e-33
3.7520319e-34
-1.828475e-32
1.4067988e-32
-1.4705659e-32
1.8563996e-32
-2.2133282e-33
7.5606901e-33
-3.5397887e-35
5.9792957e-34
-8.0027799e-37
4.5290165e-36
-1.3909847e-36
-1.0994454e-38
-1.1433039e-34
-1.2033572e-35
-1.7509468e-32
-1.6086512e-33
-4.4531862e-31
-7.8866216e-32
-3.3158845e-31
-6.9590623e-31
-4.5696806e-31
-7.5218568e-31
-1.2889952e-29
-2.8225537e-29
-3.4241953e-28
-1.4830819e-27
-3.4091457e-27
-6.8344526e-26
3.0492317e-25
-2.8183948e-24
2.8828054e-23
-1.1272982e-22
1.5551201e-21
-3.9426717e-21
5.8056726e-20
-1.0983608e-19
1.1826438e-18
-1.9707697e-18
3.6548716e-18
-8.4768507e-18
4.3535432e-18
-8.5324662e-18
1.5141443e-18
-3.5782667e-18
3.387157e-19
-8.6641469e-19
4.3036815e-20
-1.1241981e-19
1.8460468e-21
-4.8703042e-21
4.9039679e-23
6.7330407e-25
2.9422231e-24
7.0075813e-24
2.6069133e-25
8.0284257e-25
4.1076327e-26
1.2202385e-25
5.7954466e-27
2.3659689e-26
3.4644688e-28
2.7611963e-27
1.1891021e-29
1.6945542e-28
3.9459681e-31
8.3976652e-30
7.5900255e-33
2.9022254e-31
7.2694035e-35
5.1441961e-33
7.765098e-37
6.4647071e-35
7.3460111e-39
7.48964e-37
5.4013643e-41
7.0169083e-39
2.837869e-43
5.0729833e-41
5.4434252e-46
2.7074795e-43
7.4424073e-49
1.0118049e-45
6.0993398e-52
2.400035e-48
-8.0213521e-56
3.5204496e-51
-5.1486306e-57
6.6557258e-54
-4.7511229e-59
3.2667023e-56
-3.1060548e-61
1.4703953e-58
-1.6649723e-63
6.0172169e-61
-9.2954713e-66
2.2211474e-63
-4.4364083e-67
9.1208459e-66
-1.2761945e-67
3.6530896e-67
-3.1918999e-68
8.0446211e-68
-6.1059104e-69
1.3288998e-68
-7.1967461e-70
1.5092181e-69
-3.9398969e-71
7.9508355e-71
-8.0845539e-73
-2.6767005e-74
-5.239421e-73
-1.3068226e-73
-1.1390478e-72
-2.8082145e-73
-4.1307472e-72
-1.7812388e-72
-1.5759204e-71
-7.9523303e-72
-4.5920698e-71
-3.2077753e-71
-7.6758307e-71
-8.4242041e-71
-5.8953549e-71
-1.3308954e-70
-2.4112953e-71
-1.0498651e-70
-3.7063958e-72
-4.5569119e-71
-1.3967703e-71
1.7189894e-74
-3.9309923e-74
1.7248569e-72
-1.7101335e-72
6.5810656e-71
-6.2332461e-71
1.8075444e-70
-2.3409175e-70
1.9719995e-70
-2.3069352e-70
1.4626776e-70
-1.6780493e-70
8.3014367e-71
-9.4180422e-71
2.7039736e-71
-3.4875005e-71
4.3376421e-72
-6.1158183e-72
2.7994695e-72
-1.089719e-72
1.0656651e-71
-4.3508989e-72
2.5145918e-73
-5.1588064e-74
2.464989e-73
8.8203409e-75
6.1426385e-67
5.5452079e-68
7.8342951e-66
1.4709704e-66
1.8932202e-65
9.220625e-66
7.9820415e-67
2.5483667e-66
3.6286108e-68
3.249933e-68
2.6304219e-67
1.747158e-67
1.4942534e-65
1.1389277e-65
2.3717197e-62
1.202352e-62
1.3896572e-57
1.0281865e-57
2.9830967e-55
2.8013511e-55
2.5849967e-53
7.1600502e-53
9.5044186e-52
4.8424223e-51
1.7870748e-50
3.6692196e-49
-5.5469914e-48
5.8597602e-47
-2.3699943e-45
1.1257365e-44
-1.5570278e-42
4.0217729e-42
-1.3441298e-39
2.4481786e-39
-3.9774288e-36
1.1944358e-36
-1.9549872e-32
8.274712e-34
-1.7868765e-32
5.5326172e-32
-2.2528516e-32
4.1306597e-32
-2.4696508e-30
1.5212613e-31
-7.8831072e-30
6.3148072e-30
-6.8576717e-30
9.6507961e-30
-1.2830703e-30
4.4253415e-30
-2.754032e-32
4.4072615e-31
-1.9686787e-34
4.8793053e-33
-3.5852463e-34
1.1281292e-35
-3.2554119e-32
-2.4727772e-33
-4.6183305e-30
-3.655006e-31
-7.9668574e-29
-1.6072108e-29
-3.8396434e-29
-1.1401158e-28
-5.1342016e-29
-7.6471183e-29
-1.3162657e-27
-2.3026953e-27
-4.0724436e-26
-1.1469432e-25
-8.4264461e-25
-5.0433132e-24
-2.0867936e-24
-1.9429242e-22
8.8285054e-22
-6.6757219e-21
5.7617176e-20
-2.1429669e-19
2.2598498e-18
-5.9235273e-18
4.723325e-17
-9.2162219e-17
1.5067566e-16
-3.4651068e-16
1.9185109e-16
-3.4413765e-16
7.6444555e-17
-1.8288574e-16
2.0835095e-17
-5.5488601e-17
3.3544374e-18
-8.5046219e-18
1.8307373e-19
-4.1137928e-19
5.8363854e-21
2.3029819e-21
4.8126785e-22
1.1064129e-21
7.4061383e-23
1.8445154e-22
1.5361362e-23
4.3968806e-23
2.1044336e-24
9.7076426e-24
1.0377861e-25
1.0736206e-24
2.790855e-27
5.5399799e-26
8.3189562e-29
2.3532203e-27
1.6427709e-30
7.897094e-29
1.619245e-32
1.3664806e-30
1.741082e-34
1.5649401e-32
1.4653143e-36
1.6805792e-34
9.0363287e-39
1.3931884e-36
2.261807e-41
8.5072855e-39
2.9538472e-44
3.6598547e-41
4.2746202e-47
1.0769352e-43
-5.6646136e-54
1.9777842e-46
-3.0163578e-52
4.5251487e-49
-3.1011428e-54
2.4064216e-51
-2.1911237e-56
1.1669165e-53
-1.2437318e-58
5.1288482e-56
-5.9031631e-61
2.0130321e-58
-2.7271988e-63
6.9428877e-61
-1.141617e-64
2.4245138e-63
-3.5817056e-65
8.8349897e-65
-9.4649724e-66
2.1382312e-65
-1.9512263e-66
3.6831542e-66
-2.4230451e-67
4.3481672e-67
-1.2932231e-68
2.080542e-68
-2.699716e-70
-3.6620678e-70
-3.0330976e-70
-6.6474558e-71
-8.1731284e-70
-2.5757295e-70
-2.502393e-69
-1.2637001e-69
-8.2123647e-69
-4.8549812e-69
-2.1402783e-68
-1.7144355e-68
-3.1641268e-68
-4.09818e-68
-2.3408628e-68
-6.000567e-68
-8.9826872e-69
-4.4266865e-68
-1.2752646e-69
-1.825953e-68
-5.2419904e-69
4.5460952e-72
-1.1303105e-71
4.5481394e-70
-4.897632e-70
1.7254201e-68
-1.7782836e-68
4.5449958e-68
-6.473618e-68
4.9529793e-68
-6.2679439e-68
3.6874132e-68
-4.5696348e-68
2.0900667e-68
-2.5650033e-68
6.8351729e-69
-9.5051347e-69
1.1242781e-69
-1.7018967e-69
7.2634544e-70
-2.9224367e-70
6.0071944e-69
-1.7210552e-69
1.3240089e-69
-9.3306784e-70
9.8211967e-67
1.2417688e-68
2.3182124e-64
2.0718158e-65
2.1865285e-63
4.2125923e-64
4.6640416e-63
2.2823313e-63
4.2703292e-63
2.9947545e-63
2.6795245e-64
2.404295e-64
1.9687789e-63
1.3048775e-63
4.0684757e-62
3.1203119e-62
1.2139492e-60
1.1482342e-60
1.8965359e-57
1.3076481e-57
3.8234127e-55
3.2010759e-55
4.8018256e-51
6.1531554e-51
4.5991104e-49
1.6433983e-48
2.477139e-47
1.8052893e-46
1.414895e-46
1.8078934e-44
-3.24497e-43
3.4165689e-42
-2.3515986e-40
8.9253033e-40
-2.6114165e-37
6.2548941e-37
-9.5022247e-34
3.4938467e-34
-5.5789243e-30
2.7221125e-31
-4.9811285e-30
1.9633859e-29
-6.4198977e-30
1.4053659e-29
-6.911757e-28
5.1628585e-29
-2.7372132e-27
2.333881e-27
-2.5641935e-27
4.0209789e-27
-5.9082256e-28
2.0751345e-27
-1.6526276e-29
2.5493633e-28
-7.6712651e-32
3.9380604e-30
-1.1866654e-31
1.1561249e-32
-8.9478691e-30
-3.954241e-31
-1.0821012e-27
-7.435366e-29
-1.2700019e-26
-2.9059375e-27
-3.922719e-27
-1.6352335e-26
-4.8737407e-27
-6.7845443e-27
-1.0131217e-25
-1.4557067e-25
-3.3054719e-24
-6.8700241e-24
-8.6526428e-23
-2.8913057e-22
-1.4249309e-21
-1.0692395e-20
4.6621577e-21
-3.4152576e-19
1.4328275e-18
-9.89434e-18
6.5943932e-17
-2.1556119e-16
1.4003079e-15
-2.0894834e-15
4.5295138e-15
-6.1395745e-15
6.0535067e-15
-3.3073234e-15
2.7110372e-15
-2.6219978e-15
9.4496496e-16
-1.3769405e-15
2.0691149e-16
-3.2524862e-16
1.5555427e-17
-2.4481244e-17
6.6332429e-19
5.0188927e-19
8.1257785e-20
1.6513318e-19
1.9260025e-20
4.2911131e-20
4.4989338e-21
1.3532464e-20
5.6169883e-22
3.0720327e-21
2.3816791e-23
3.1764113e-22
5.2774492e-25
1.4278866e-23
1.3861966e-26
5.220128e-25
2.7283497e-28
1.6761455e-26
2.9998861e-30
2.8030179e-28
2.8563369e-32
2.9143082e-30
1.9935249e-34
2.7496585e-32
9.3272135e-37
1.9009367e-34
7.6080784e-40
9.0323935e-37
1.7459542e-42
3.1826427e-39
-1.0213843e-48
7.9199312e-42
-1.4776129e-47
2.3004466e-44
-1.6335592e-49
1.3196528e-46
-1.2329623e-51
6.9505654e-49
-7.4043678e-54
3.2947383e-51
-3.6410052e-56
1.3824688e-53
-1.4416071e-58
4.9920351e-56
-4.95629e-61
1.4840194e-58
-2.4101332e-62
3.9467697e-61
-8.5063739e-63
1.7420616e-62
-2.3560897e-63
4.7244311e-63
-5.169419e-64
8.2964065e-64
-6.603027e-65
9.8819293e-65
-3.4989626e-66
3.77347e-66
-1.1088869e-67
-2.0697526e-67
-1.6305854e-67
-3.4438667e-68
-4.8121064e-67
-1.8717765e-67
-1.2565443e-66
-7.333313e-67
-3.5762318e-66
-2.4347989e-66
-8.4055135e-66
-7.5756099e-66
-1.1010833e-65
-1.6546839e-65
-7.837296e-66
-2.2467397e-65
-2.8360171e-66
-1.5533912e-65
-3.7298522e-67
-6.1050875e-66
-1.6428321e-66
1.096404e-69
-2.9297999e-69
1.0440809e-67
-1.2087401e-67
3.927783e-66
-4.35457e-66
1.007649e-65
-1.5531346e-65
1.0985318e-65
-1.4876579e-65
8.2277654e-66
-1.0884479e-65
4.6652435e-66
-6.1184449e-66
1.5361322e-66
-2.276469e-66
2.530589e-67
-4.1727597e-67
1.5768521e-67
-6.5541895e-68
2.3384391e-66
-3.2436283e-67
2.6998164e-65
-3.351685e-66
2.3483072e-63
1.3109357e-65
7.0156244e-62
6.0148553e-63
5.0537858e-61
9.7749751e-62
1.522577e-60
4.6262968e-61
8.3218476e-60
3.1117086e-60
4.7140872e-58
2.1143772e-58
8.4010064e-57
9.4000353e-57
1.1887862e-57
1.6742557e-57
1.6498215e-56
1.576034e-56
6.644564e-55
7.7802365e-55
9.4568417e-54
1.383263e-53
7.063784e-51
7.6399267e-51
4.9739627e-47
1.0405109e-46
8.2924473e-45
2.7107307e-44
5.6687996e-43
5.6978937e-42
-1.1107551e-41
8.6962855e-40
-2.4428224e-38
1.4607004e-37
-3.7024509e-35
1.2382462e-34
-1.7896974e-31
8.2828803e-32
-1.339204e-27
7.4485169e-29
-1.1104108e-27
5.9827648e-27
-1.5022616e-27
3.8685183e-27
-1.7907566e-25
1.6874713e-26
-7.6662981e-25
7.458724e-25
-7.6362241e-25
1.3532427e-24
-2.1081243e-25
7.6852577e-25
-7.6868008e-27
1.1384358e-25
-3.5274315e-29
2.3888811e-27
-4.623743e-29
9.1573164e-30
-2.5325099e-27
-3.8809098e-29
-2.4296465e-25
-1.4203037e-26
-1.8552964e-24
-4.8532247e-25
-3.7043162e-25
-2.1323508e-24
-4.1871159e-25
-5.6279297e-25
-5.9880855e-24
-7.178517e-24
-1.9926519e-22
-3.2055529e-22
-5.6857466e-21
-1.2923166e-20
-1.267013e-19
-4.6187045e-19
-1.7970837e-18
-1.4765019e-17
1.1332214e-17
-3.4078926e-16
1.3136455e-15
-2.7536384e-15
3.2429377e-14
-5.7340649e-14
1.1401492e-13
-1.6860203e-13
1.6083263e-13
-1.3833123e-13
7.1132994e-14
-6.200781e-15
2.9370681e-14
-3.8360553e-15
9.2386544e-15
0
1.172633e-15
-3.5128419e-16
5.9875076e-17
7.0226477e-17
8.5344358e-18
1.7994515e-17
2.5939133e-18
5.8066648e-18
7.4998763e-19
2.2649701e-18
1.1701893e-19
6.3142442e-19
5.7929373e-21
7.979942e-20
1.0074679e-22
3.6084961e-21
1.8530221e-24
1.0207008e-22
3.2720992e-26
2.8181674e-24
4.1656595e-28
4.4475591e-26
3.24962e-30
4.061808e-28
1.6874438e-32
3.1460316e-30
1.295295e-35
1.6500445e-32
1.8983134e-38
5.6107845e-35
-8.272307e-42
2.3967776e-37
-5.8963491e-43
8.8810825e-40
-6.7541322e-45
5.3186e-42
-5.4270221e-47
3.050674e-44
-3.4490499e-49
1.5722576e-46
-1.7536953e-51
7.0907043e-49
-6.8271694e-54
2.6910234e-51
-1.4807058e-56
7.8378269e-54
-2.5994848e-59
1.3160154e-56
-3.9503241e-60
1.9631142e-59
-1.7457674e-60
2.7562644e-60
-5.0977475e-61
9.0022709e-61
-1.2009303e-61
1.5777696e-61
-1.5598538e-62
1.8604234e-62
-8.0681082e-64
3.903131e-64
-4.8176881e-65
-7.4636781e-65
-8.7578624e-65
-1.8556953e-65
-2.3515412e-64
-1.0950425e-64
-5.2945145e-64
-3.5328485e-64
-1.3167588e-63
-1.0180482e-63
-2.8153203e-63
-2.8105884e-63
-3.2760074e-63
-5.6277854e-63
-2.2414475e-63
-7.105987e-63
-7.6854079e-64
-4.6109948e-63
-9.3861952e-65
-1.7317569e-63
-4.3703132e-64
2.4824592e-67
-7.0764235e-67
2.1316055e-65
-2.6303079e-65
7.9149883e-64
-9.3464513e-64
2.0005588e-63
-3.2926159e-63
2.1830783e-63
-3.1336736e-63
1.6468084e-63
-2.3020836e-63
9.357094e-64
-1.2978769e-63
3.1046904e-64
-4.855202e-64
5.1852528e-65
-9.0598457e-65
3.1937971e-65
-1.4582773e-65
3.9914425e-64
-5.7149758e-65
2.6563438e-62
-2.4764621e-63
1.1343823e-60
-4.3678866e-63
1.8268746e-59
1.4573584e-60
1.0247567e-58
1.9097758e-59
3.1958418e-58
9.0692008e-59
3.7157403e-57
1.2623943e-57
3.5829679e-55
1.5223303e-55
3.0115219e-53
1.6260527e-53
1.9588399e-51
1.323757e-51
5.2655594e-50
8.6863129e-50
1.1762956e-50
2.4134032e-50
1.930623e-49
2.6581968e-49
5.9916212e-48
1.0248188e-47
1.3789471e-46
2.3686789e-46
2.4051455e-44
5.6081198e-44
2.035098e-40
8.6244437e-40
1.4848567e-38
1.978259e-37
-3.6924099e-36
2.104916e-35
-2.9391238e-33
1.5988217e-32
-2.2556711e-29
1.4136213e-29
-2.6999599e-25
1.6293767e-26
-2.4542607e-25
1.5959784e-24
-2.180985e-24
1.0804247e-24
-6.602667e-23
4.0987753e-23
-1.7615431e-22
2.5688038e-22
-1.8172083e-22
3.7569729e-22
-5.6710493e-23
2.235295e-22
-2.6282003e-24
3.8101139e-23
-1.4563729e-26
1.0435825e-24
-1.771805e-26
5.55347e-27
-8.0879924e-25
1.7296965e-27
-5.3778302e-23
-2.6844815e-24
-2.5309053e-22
-7.8474183e-23
-3.3994887e-23
-2.9251227e-22
-3.5126788e-23
-4.7039519e-23
-2.7173868e-22
-2.7152657e-22
-9.1094847e-21
-1.1587853e-20
-2.7207834e-19
-4.490974e-19
-7.2319563e-18
-1.6248454e-17
-1.1753181e-16
-4.5627776e-16
-8.5420181e-16
-3.7241659e-15
1.4117969e-14
-6.0130741e-14
5.5009308e-13
-1.1702227e-12
2.1626065e-12
-3.770163e-12
3.2149096e-12
-3.352043e-12
1.6140861e-12
0
8.5905365e-13
0
3.6173422e-13
0
5.2439378e-14
0
2.551018e-15
1.0655064e-14
4.6308034e-16
1.5045806e-15
2.1170386e-16
4.6236216e-16
6.2573998e-17
1.8186894e-16
7.6589124e-18
5.239757e-17
4.8939226e-19
7.3024282e-18
1.1651105e-20
4.3049873e-19
1.8006776e-22
1.2531723e-20
2.7965279e-24
3.2863671e-22
3.4934017e-26
4.947586e-24
1.9855575e-28
3.4581302e-26
6.229432e-31
1.9660922e-28
1.7586851e-34
6.2988835e-31
-6.8444294e-37
3.1374248e-33
-1.8811528e-38
2.7560548e-35
-2.1276822e-40
1.578475e-37
-1.8119722e-42
9.618143e-40
-1.2225228e-44
5.4368756e-42
-6.4526715e-47
2.661825e-44
-3.285781e-49
1.0666339e-46
-1.7143174e-52
2.9785609e-49
-4.6586415e-55
1.6780244e-52
-2.3277916e-57
3.6423023e-55
-4.2750142e-58
1.6308145e-57
-3.165195e-58
3.1670956e-58
-9.923896e-59
1.6767237e-58
-2.4041438e-59
2.5714021e-59
-3.141811e-60
2.7706477e-60
-1.5761978e-61
-3.160992e-62
-2.1147473e-62
-2.1123537e-62
-4.1459317e-62
-9.698837e-63
-9.6331305e-62
-5.2501576e-62
-1.8865178e-61
-1.4292197e-61
-4.133876e-61
-3.5863032e-61
-8.1237908e-61
-8.844519e-61
-8.4113587e-61
-1.6336465e-60
-5.5332522e-61
-1.9205419e-60
-1.8043272e-61
-1.1727431e-60
-2.0511494e-62
-4.2186245e-61
-9.9949722e-62
5.428384e-65
-1.6439594e-64
3.936149e-63
-5.1387403e-63
1.4332492e-61
-1.7866218e-61
3.5969657e-61
-6.2537885e-61
3.9291016e-61
-5.931098e-61
2.9894446e-61
-4.3793394e-61
1.7036631e-61
-2.4776038e-61
5.700981e-62
-9.3345144e-62
1.0079574e-62
-1.7550284e-62
6.6336156e-63
-3.4689137e-63
8.2649947e-62
-1.3172411e-62
9.9711377e-60
-9.9438287e-61
3.2093356e-58
-4.917853e-60
3.7083046e-57
2.6240274e-58
1.8069082e-56
3.1992291e-57
5.4486003e-56
1.4663207e-56
9.1011192e-55
2.8815425e-55
1.2624156e-52
5.0626647e-53
1.3258592e-50
6.7110718e-51
1.136579e-48
7.1237451e-49
8.6012325e-47
6.6036081e-47
5.8282072e-45
5.48637e-45
3.4858972e-43
4.0488017e-43
1.6638203e-41
2.4410682e-41
1.7500549e-40
6.366248e-40
6.8534689e-41
3.3203401e-40
8.2385275e-40
2.4782359e-39
5.6603078e-36
3.2507255e-35
1.7563039e-34
2.7487481e-33
-5.9623659e-32
5.1388128e-31
-1.1783563e-27
1.6618976e-27