/*--------------------------------*- C++ -*----------------------------------*\
  =========                 |
  \\      /  F ield         | OpenFOAM: The Open Source CFD Toolbox
   \\    /   O peration     | Website:  https://openfoam.org
    \\  /    A nd           | Version:  9
     \\/     M anipulation  |
\*---------------------------------------------------------------------------*/
FoamFile
{
    format      ascii;
    class       volScalarField;
    location    "0.59";
    object      p_rgh;
}
// * * * * * * * * * * * * * * * * * * * * * * * * * * * * * * * * * * * * * //

dimensions      [1 -1 -2 0 0 0 0];

internalField   nonuniform List<scalar> 
10000
(
0
0.010411892
0.029810084
0.05567117
0.088558521
0.12856777
0.1755832
0.22945845
0.29003476
0.35722905
0.43094318
0.5112363
0.59858962
0.6900327
0.78304809
0.88018635
0.98471363
1.0943734
1.2087434
1.3275157
1.4504569
1.5773944
1.7081174
1.8423557
1.9794019
2.1206267
2.26519
2.4128286
2.5633716
2.7165469
2.8719616
3.0291824
3.1876597
3.3466708
3.5053429
3.6625792
3.817057
3.966989
4.1094933
4.2418469
4.3633297
4.4793551
4.5856746
4.6901713
4.7693129
4.8222331
4.8472609
4.8431466
4.802894
4.725192
4.6080101
4.4500253
4.2509415
4.0118253
3.7354555
3.4265424
3.0917541
2.7394432
2.3790408
2.0200203
1.6709324
1.3387097
1.0261482
0.73482252
0.46494813
0.21548077
-0.015185376
-0.22877598
-0.42704486
-0.61142074
-0.78319491
-0.94341057
-1.0928834
-1.2322752
-1.3620347
-1.4825424
-1.5941678
-1.6972752
-1.7922242
-1.8791971
-1.9584599
-2.0302913
-2.0957975
-2.1549436
-2.2080285
-2.2552649
-2.2967343
-2.3325914
-2.3632615
-2.3895723
-2.412714
-2.4345433
-2.4525168
-2.4675465
-2.4799631
-2.4899408
-2.497639
-2.5033264
-2.5075319
-2.5076954
-0.01386846
-0.0035745046
0.015756252
0.041515842
0.074372339
0.11435808
0.16133009
0.21511864
0.27559447
0.34253236
0.41573207
0.49512293
0.58065785
0.67158362
0.7674123
0.86711489
0.9720936
1.0820208
1.196508
1.3152935
1.4382185
1.5651144
1.6957946
1.8302361
1.9665843
2.107981
2.2525469
2.4003026
2.5511136
2.7047213
2.8608253
3.0190841
3.1789999
3.3398838
3.5009156
3.6611278
3.8192078
3.9736387
4.1225124
4.2644269
4.4001243
4.5235054
4.6381976
4.7411457
4.8234764
4.881056
4.9104579
4.9094146
4.8728971
4.7977149
4.6816137
4.5229658
4.3211521
4.0768617
3.7925832
3.4730052
3.1251648
2.758144
2.3823613
2.0083769
1.6456083
1.3012445
0.97909115
0.68074547
0.40630632
0.15457077
-0.076406317
-0.28873774
-0.48453142
-0.66562853
-0.83360342
-0.98974659
-1.135062
-1.2703228
-1.3961207
-1.5129235
-1.6211359
-1.7211533
-1.8133239
-1.8978306
-1.9741885
-2.044375
-2.1081987
-2.1658244
-2.2175423
-2.2636075
-2.3042784
-2.3398783
-2.3708224
-2.3977127
-2.4212578
-2.4419385
-2.4596207
-2.4744778
-2.4867501
-2.4965981
-2.5041843
-2.509791
-2.5139499
-2.514042
-0.034593848
-0.02431149
-0.0050166201
0.020784624
0.053772299
0.093945623
0.14111245
0.19515996
0.25589677
0.32308038
0.39651796
0.47584492
0.56058742
0.65309446
0.74966847
0.85059908
0.95628869
1.0666783
1.1815014
1.3005863
1.42376
1.5508046
1.6815686
1.815913
1.9532669
2.0944758
2.2392397
2.3873784
2.5387476
2.6931721
2.8504489
3.0102897
3.1722617
3.3357643
3.5000815
3.6643041
3.8272827
3.9876258
4.1438746
4.2944066
4.4375709
4.5710586
4.693616
4.8018896
4.89045
4.9546658
4.9903482
4.994187
4.9631664
4.8906598
4.7752885
4.6149794
4.4085444
4.1562321
3.8601698
3.5250229
3.1583972
2.7705938
2.3736436
1.9797683
1.5998545
1.2431235
0.91230579
0.60890415
0.33249489
0.081183821
-0.1475992
-0.35661604
-0.548393
-0.72512764
-0.88863855
-1.040352
-1.1814176
-1.3126525
-1.4346557
-1.5479314
-1.6529057
-1.7499896
-1.8396477
-1.9224983
-1.9944782
-2.0635672
-2.1258003
-2.1818649
-2.2321892
-2.2770885
-2.3168743
-2.3518959
-2.382542
-2.4092768
-2.4327035
-2.4528098
-2.4700066
-2.484466
-2.4964249
-2.5060192
-2.5133985
-2.5188591
-2.5229259
-2.5228881
-0.062030891
-0.051849423
-0.032497285
-0.0065559176
0.026665065
0.067151425
0.11474553
0.1692536
0.23048056
0.29829728
0.37249855
0.45286095
0.53923676
0.63079822
0.72767661
0.82938833
0.93585683
1.0468537
1.1622138
1.2817681
1.4052883
1.5325968
1.6635933
1.7981394
1.9360098
2.0771938
2.2222206
2.3707551
2.5227394
2.6781339
2.8368326
2.9986167
3.1631592
3.3300089
3.4985318
3.667905
3.8371048
4.0048747
4.1697499
4.3301395
4.4840887
4.6292965
4.7631116
4.8818818
4.980872
5.0552772
5.1003069
5.1106499
5.0896608
5.0203046
4.906307
4.7441532
4.5317462
4.2684848
3.9558565
3.5983055
3.2040816
2.7853884
2.3571728
1.9347888
1.5315226
1.1569391
0.81473925
0.50565174
0.22811195
-0.021067393
-0.24555401
-0.44897505
-0.63451371
-0.8048158
-0.9619963
-1.1076413
-1.242978
-1.3688792
-1.4859652
-1.5947248
-1.6955443
-1.7887997
-1.8748191
-1.953714
-2.0250465
-2.09082
-2.1505795
-2.204546
-2.2530322
-2.2963232
-2.3347352
-2.3685997
-2.3982844
-2.4242248
-2.4468132
-2.4662421
-2.4827947
-2.4966983
-2.5081806
-2.51738
-2.5244534
-2.5296621
-2.5335697
-2.5333548
-0.096956521
-0.086846027
-0.067395057
-0.041241435
-0.0077333214
0.033189972
0.081327771
0.13643345
0.19838176
0.26699096
0.34201086
0.42322495
0.51032222
0.60283885
0.7006042
0.80331556
0.91070865
1.0225639
1.1386981
1.2588739
1.3828848
1.5106129
1.6419443
1.7767596
1.9150085
2.0562159
2.2014671
2.3503478
2.5029548
2.6594033
2.8196886
2.983706
3.1512821
3.3221164
3.4956915
3.6712904
3.8480076
4.0246702
4.1998876
4.3719103
4.5387503
4.6981395
4.8464946
4.9798107
5.0933012
5.1817451
5.2399947
5.2629362
5.2468674
5.184991
5.0735133
4.9093041
4.6893366
4.4118247
4.0771335
3.6890699
3.2565973
2.7946198
2.3224778
1.8603512
1.4249126
1.030588
0.67675596
0.36345667
0.087374541
-0.15650879
-0.37344426
-0.56816468
-0.74461597
-0.9059474
-1.0545473
-1.1921696
-1.3200908
-1.4392041
-1.5501095
-1.653241
-1.7489433
-1.83746
-1.919138
-1.9940205
-2.0624722
-2.1250223
-2.1818581
-2.2332166
-2.2793669
-2.3205907
-2.3572056
-2.3895256
-2.41787
-2.4425999
-2.4641217
-2.4826148
-2.4983201
-2.5114854
-2.5223371
-2.5310053
-2.5376296
-2.5425094
-2.5462054
-2.5457661
-0.13942073
-0.12936983
-0.10978153
-0.083347661
-0.049406787
-0.0079375678
0.040843806
0.096770954
0.15965684
0.2292605
0.30537064
0.38770432
0.47589786
0.56960305
0.66858545
0.77249395
0.88104389
0.99399596
1.1110808
1.2320437
1.3567198
1.4849766
1.6166666
1.7517134
1.89013
2.0318348
2.1768735
2.3258622
2.4790101
2.6364829
2.7983978
2.9648189
3.135756
3.3110781
3.4904162
3.6731993
3.8586274
4.0456557
4.2328801
4.4185183
4.6001074
4.7768903
4.9433771
5.0953787
5.2276267
5.3343226
5.409463
5.4472414
5.4419688
5.3878019
5.2798257
5.1132983
4.8842673
4.58922
4.2264337
3.7980592
3.3133238
2.7913981
2.2591893
1.7447178
1.2682642
0.85237409
0.48767049
0.17374293
-0.095863307
-0.3292149
-0.53367154
-0.71532493
-0.87893402
-1.0281364
-1.1655455
-1.2929835
-1.411694
-1.5225121
-1.6259871
-1.7224929
-1.8123195
-1.8951301
-1.9717542
-2.0423266
-2.1069071
-2.165818
-2.2193077
-2.2676187
-2.3110163
-2.3497903
-2.3842323
-2.4146287
-2.44127
-2.4643898
-2.484623
-2.5018983
-2.5165391
-2.5287704
-2.538815
-2.5468214
-2.5528934
-2.5573616
-2.5607895
-2.5600604
-0.18956024
-0.17956786
-0.15983522
-0.13301281
-0.098527334
-0.05640474
-0.0067693844
0.050172698
0.11417594
0.18503416
0.26248198
0.3461756
0.43581233
0.5310595
0.63155365
0.73694617
0.84694392
0.96122402
1.0794638
1.2014273
1.32693
1.4557744
1.5878272
1.7230843
1.8616163
2.0034832
2.1484985
2.2969417
2.4503982
2.6086855
2.7720862
2.9408709
3.1152912
3.2953989
3.4810324
3.6717783
3.8669546
4.0655592
4.2663707
4.4678718
4.6680975
4.8641267
5.0523782
5.2276056
5.3835341
5.5132473
5.6097567
5.6660209
5.6753003
5.6310125
5.5275726
5.3584047
5.1184061
4.8021111
4.4043168
3.9233857
3.3671359
2.7610588
2.1458485
1.5644437
1.051188
0.60130739
0.22911751
-0.077373068
-0.33151773
-0.545935
-0.73068444
-0.89326667
-1.0391542
-1.1723019
-1.2953879
-1.410156
-1.5176885
-1.6186472
-1.7133986
-1.8022565
-1.8858879
-1.9611668
-2.0326994
-2.0983152
-2.1583799
-2.2131339
-2.2628119
-2.307646
-2.3478795
-2.3837991
-2.4156901
-2.4438097
-2.4684495
-2.4899738
-2.5083142
-2.5240603
-2.5373815
-2.5484911
-2.5575825
-2.5647631
-2.5701708
-2.5741306
-2.5772265
-2.5761596
-0.2475719
-0.23763455
-0.21768689
-0.19043055
-0.15532473
-0.11234237
-0.061663014
-0.0035351795
0.061839775
0.13421436
0.21325937
0.29866857
0.39011857
0.48720583
0.58953464
0.69676165
0.80850363
0.9243665
1.0440253
1.1672146
1.2936663
1.4231529
1.5555758
1.6909678
1.8294338
1.9712223
2.1169074
2.2626922
2.4164726
2.5752742
2.7397704
2.9106374
3.0883732
3.2733576
3.4656556
3.6649825
3.8707409
4.0820465
4.2977439
4.5167503
4.7375145
4.9566641
5.171242
5.3751139
5.5606225
5.7193058
5.8425415
5.9217975
5.9490934
5.916983
5.8188047
5.6467854
5.3937181
5.0509952
4.6092242
4.059255
3.4039362
2.6778642
1.9449601
1.270708
0.70074369
0.23746339
-0.12544973
-0.40778346
-0.63138179
-0.81427894
-0.96921512
-1.1047672
-1.2267546
-1.3391053
-1.4442465
-1.5435972
-1.6378517
-1.7272957
-1.8119672
-1.8916796
-1.9679239
-2.0371549
-2.1019414
-2.1618095
-2.2167309
-2.2668128
-2.3122127
-2.3531144
-2.3897687
-2.4224502
-2.4513978
-2.4768482
-2.4990759
-2.518349
-2.5348541
-2.5489167
-2.5607362
-2.5705245
-2.5784806
-2.5847043
-2.5893356
-2.592723
-2.5954098
-2.5939813
-0.31372226
-0.30378846
-0.283586
-0.25585172
-0.21996048
-0.17596019
-0.12408241
-0.064523533
0.0024835118
0.076632353
0.15762068
0.24513053
0.33876209
0.4380208
0.54258794
0.65201583
0.76582877
0.88360817
1.0049938
1.1296234
1.257158
1.3873718
1.5201675
1.6555378
1.7935844
1.9345568
2.0787638
2.2260544
2.3771822
2.5355461
2.7003982
2.872708
3.0532647
3.2429163
3.4420159
3.6503782
3.8673736
4.0920873
4.3236463
4.5613441
4.8042032
5.0498324
5.2964972
5.535717
5.7582301
5.9534277
6.1101963
6.2178792
6.2667335
6.2482714
6.1549622
5.9788531
5.7090931
5.3315814
4.8315968
4.1883486
3.3884115
2.4861108
1.5879439
0.79406574
0.17243426
-0.28660016
-0.6110352
-0.84010609
-1.0092864
-1.1424078
-1.2537943
-1.3520716
-1.4426058
-1.5286261
-1.6117961
-1.692751
-1.7715425
-1.8478886
-1.9214056
-1.9916807
-2.0584771
-2.1207006
-2.178688
-2.2323666
-2.2816617
-2.3265784
-2.3672335
-2.4038016
-2.4364917
-2.4655304
-2.4911402
-2.5135653
-2.5330634
-2.5498664
-2.5642016
-2.5763197
-2.5864348
-2.5947345
-2.6013822
-2.6065233
-2.6102787
-2.6130171
-2.6152233
-2.6133843
-0.38826476
-0.37835042
-0.35784159
-0.32947
-0.29267796
-0.2475391
-0.19423701
-0.13299755
-0.064104787
0.012160146
0.095477937
0.18543276
0.28159027
0.3835216
0.49076849
0.60279459
0.71908847
0.83918701
0.96262495
1.0889401
1.217759
1.3488257
1.481974
1.617139
1.7544362
1.8941601
2.036727
2.1826503
2.3326471
2.4887779
2.6528249
2.8253973
3.0078724
3.2015966
3.4074276
3.6251786
3.8539022
4.0923816
4.3399965
4.5968976
4.8631331
5.1364548
5.4231838
5.70622
5.975505
6.2171972
6.4163647
6.5590708
6.6333677
6.6293845
6.5384262
6.3517435
6.0579601
5.6365351
5.0701326
4.3059481
3.2885976
2.108737
0.95768956
0.0037047771
-0.63944804
-1.0481794
-1.2776447
-1.4029081
-1.4806396
-1.5383889
-1.5882947
-1.6365232
-1.6866064
-1.740086
-1.7969837
-1.8565194
-1.9177221
-1.9795046
-2.0407455
-2.1004734
-2.1578018
-2.2119668
-2.2626634
-2.3096825
-2.352888
-2.3922104
-2.4277026
-2.459511
-2.4878096
-2.512804
-2.5347226
-2.5538083
-2.5702783
-2.5843372
-2.5962308
-2.6061783
-2.6143476
-2.6209511
-2.6261542
-2.6300903
-2.6328912
-2.6348882
-2.6365505
-2.634253
-0.47152236
-0.46163398
-0.44069291
-0.41159211
-0.3738016
-0.32732499
-0.27237612
-0.20921985
-0.13810807
-0.059341931
0.026666475
0.1194675
0.21860896
0.32372026
0.43411555
0.5492239
0.66849551
0.79136064
0.9172269
1.0455688
1.1759504
1.308013
1.4414896
1.576274
1.7124776
1.850407
1.9905748
2.1337994
2.2811942
2.4342504
2.5955477
2.7667979
2.9497066
3.1463991
3.3585965
3.5861073
3.8270665
4.079186
4.3417496
4.6167574
4.9080471
5.2199345
5.5452967
5.8815085
6.2111732
6.5135136
6.767195
6.9534883
7.0574217
7.0668877
6.9716413
6.7618676
6.4249098
5.9402843
5.3005202
4.3512027
3.012456
1.3940494
-0.15173235
-1.3723316
-1.9266563
-2.1684114
-2.1914394
-2.1296334
-2.0617843
-2.0093947
-1.9748544
-1.9576787
-1.9571954
-1.9715565
-1.9978655
-2.0331664
-2.0749868
-2.1210059
-2.1690886
-2.2175558
-2.2650442
-2.310595
-2.3535468
-2.3934718
-2.4301438
-2.4634472
-2.4933577
-2.5199815
-2.5434982
-2.5640994
-2.5819847
-2.5973816
-2.6105032
-2.6215665
-2.6307447
-2.6382744
-2.6443144
-2.6490679
-2.6526811
-2.6552806
-2.657009
-2.6581793
-2.6592345
-2.6563948
-0.56383103
-0.55388776
-0.53250034
-0.50259457
-0.46362655
-0.41562353
-0.35882095
-0.29343895
-0.21974596
-0.13812828
-0.049022682
0.047137733
0.14986412
0.25859471
0.3726661
0.49144715
0.61426532
0.74041387
0.86920697
1.0000288
1.132314
1.2655523
1.3993833
1.5336319
1.6683385
1.8037802
1.9405582
2.0797107
2.2226694
2.371367
2.5268739
2.6947234
2.8757736
3.0734803
3.291468
3.5295327
3.783685
4.048711
4.3227487
4.610612
4.9219773
5.266367
5.6450956
6.051716
6.4630949
6.8476678
7.1734909
7.414967
7.5528312
7.571712
7.4588978
7.2006256
6.7699269
6.1119185
5.2358965
3.8345217
1.7922947
-0.56574624
-2.4908073
-3.5354947
-4.0260291
-3.8518556
-3.4423109
-3.0569101
-2.7667965
-2.5593148
-2.4124403
-2.3123074
-2.2506811
-2.2195533
-2.2114757
-2.2203801
-2.2415365
-2.2709587
-2.3053707
-2.3421794
-2.379552
-2.4161276
-2.4509639
-2.4834494
-2.5131925
-2.5400331
-2.5639419
-2.5849958
-2.6033538
-2.6191901
-2.6327058
-2.6441137
-2.6535876
-2.6613471
-2.6675765
-2.6724669
-2.6762008
-2.6789479
-2.6808221
-2.6819704
-2.6824869
-2.6827377
-2.683148
-2.6796597
-0.66552745
-0.65552793
-0.63367531
-0.60281782
-0.56252449
-0.51282171
-0.45388863
-0.38595516
-0.30936226
-0.22450807
-0.13181126
-0.031757114
0.075071445
0.18804248
0.3064644
0.42959088
0.55660849
0.68670013
0.81906695
0.9529316
1.0875457
1.2222501
1.3565528
1.4901347
1.6229073
1.7550905
1.8873282
2.020742
2.1569421
2.2981972
2.4466236
2.6075147
2.7826427
2.9772104
3.200182
3.4511602
3.7210302
3.997356
4.2756412
4.5650328
4.8861358
5.2607749
5.7007628
6.2013874
6.7288791
7.2300245
7.6540109
7.9658187
8.1413529
8.1619253
8.0095583
7.6518602
7.0221652
6.0102795
4.2015751
1.564399
-2.2572247
-6.0608649
-8.4063859
-8.9636258
-8.1314666
-6.6042615
-5.1901617
-4.2139424
-3.5949533
-3.1833426
-2.8932315
-2.6915863
-2.559808
-2.4785256
-2.4337435
-2.4151291
-2.4151225
-2.4277722
-2.4484457
-2.4735559
-2.5007257
-2.5281456
-2.5545875
-2.5792908
-2.601754
-2.6217506
-2.6392469
-2.654324
-2.6671357
-2.6778483
-2.6866481
-2.6937583
-2.6992918
-2.7034811
-2.7065307
-2.7085848
-2.7098308
-2.7103986
-2.7104049
-2.7099868
-2.7091762
-2.7084135
-2.7081328
-2.7038763
-0.77708934
-0.76700963
-0.74459601
-0.71269519
-0.67094329
-0.61930021
-0.55795738
-0.48719644
-0.40735247
-0.31879508
-0.22198939
-0.11750237
-0.0059544328
0.11197958
0.23551227
0.36375387
0.49577768
0.63064209
0.76736989
0.90497281
1.0425087
1.1791386
1.3141554
1.4470162
1.5774646
1.7056053
1.8319963
1.9577204
2.0844863
2.2150865
2.3524399
2.5041219
2.6667852
2.8482545
3.0760349
3.3450621
3.638415
3.924727
4.1940047
4.4607656
4.7685885
5.1629206
5.6724089
6.3030718
7.00661
7.68063
8.2401664
8.640623
8.8573466
8.8676183
8.6422477
8.145355
7.2234793
5.5098103
1.8563192
-2.9423304
-10.019407
-15.748611
-18.566618
-18.183263
-15.180846
-11.107037
-7.728851
-5.6555739
-4.5246649
-3.8595842
-3.4005052
-3.0812968
-2.8748785
-2.7415688
-2.6594085
-2.61366
-2.5931701
-2.5896925
-2.5971078
-2.6109228
-2.6280595
-2.6462966
-2.6641573
-2.6807548
-2.695565
-2.7083397
-2.7190291
-2.7277205
-2.7345853
-2.7398049
-2.7435456
-2.7459872
-2.7473431
-2.7477551
-2.7474123
-2.7464579
-2.7450437
-2.743281
-2.7412954
-2.7391845
-2.7369176
-2.7350407
-2.7340084
-2.7288783
-0.89898537
-0.88877287
-0.86574659
-0.83271622
-0.78931291
-0.73550633
-0.67152975
-0.5976318
-0.51411352
-0.42138199
-0.31995806
-0.2104261
-0.093427271
0.030272839
0.15976151
0.29403745
0.43205268
0.57267968
0.71472455
0.85697283
0.99825057
1.1374598
1.2736061
1.4058779
1.5337533
1.6571111
1.7762671
1.8921328
2.0063521
2.1221456
2.2428635
2.3792048
2.5274422
2.6749987
2.9076485
3.2104988
3.5430564
3.8285257
4.0656968
4.2630348
4.5073077
4.8960236
5.4835438
6.2941803
7.2868158
8.233722
8.9810966
9.4900215
9.7487898
9.7248493
9.3967231
8.8810509
8.0505353
8.6600855
4.7474613
-9.7489145
-19.147409
-26.494368
-29.978532
-29.071686
-24.171455
-17.125186
-11.05022
-7.368827
-5.5177789
-4.5561568
-3.9045615
-3.4608166
-3.1806613
-2.9987329
-2.8822367
-2.8118669
-2.7730356
-2.7550562
-2.7503692
-2.7536507
-2.761119
-2.7702385
-2.7794088
-2.7876499
-2.7944428
-2.7995677
-2.8030146
-2.804916
-2.805447
-2.8047955
-2.8031614
-2.8006546
-2.7975438
-2.7939521
-2.7900256
-2.7858992
-2.7816782
-2.777459
-2.7733531
-2.7694043
-2.7655517
-2.7624819
-2.7606359
-2.7545056
-1.0316755
-1.0213753
-0.99764214
-0.96333904
-0.91813779
-0.86200572
-0.79513818
-0.71773973
-0.63013793
-0.53278072
-0.42617303
-0.31089076
-0.18764349
-0.057303644
0.079124127
0.22052723
0.36568543
0.51325126
0.66179655
0.8098586
0.95596405
1.0986643
1.2366148
1.3686746
1.4939637
1.6119594
1.7225862
1.8263692
1.9245774
2.0204828
2.1168914
2.2315356
2.3561712
2.4440332
2.6650186
3.0190514
3.4422311
3.7062474
3.8713028
3.9009498
3.9671035
4.2795811
4.9631169
6.0203636
7.5263404
8.9533857
9.9518112
10.574133
10.857091
10.749034
10.218368
9.5653098
9.7202515
9.3334008
1.7747149
-15.063797
-26.326498
-34.811947
-38.933351
-37.876961
-32.044658
-22.842876
-14.379868
-9.0877319
-6.4830769
-5.1751152
-4.3337346
-3.7950165
-3.4594483
-3.2391867
-3.0955467
-3.0058274
-2.9524281
-2.9225875
-2.9075858
-2.9013661
-2.8996827
-2.8998326
-2.9002084
-2.8998147
-2.8981822
-2.8951942
-2.890927
-2.8855856
-2.8793638
-2.8724608
-2.8650749
-2.8573976
-2.8496122
-2.8418344
-2.8341726
-2.8267158
-2.8195599
-2.8127455
-2.8063901
-2.8004808
-2.7949462
-2.7906234
-2.7879001
-2.7806177
-1.1757282
-1.1653578
-1.1407762
-1.1051187
-1.0580338
-0.99938286
-0.92933345
-0.84811594
-0.75606373
-0.65358308
-0.54114715
-0.41936715
-0.28902685
-0.15106207
-0.0065649492
0.1432178
0.29685736
0.45277919
0.60930178
0.76464722
0.91696971
1.0644106
1.20521
1.3377937
1.4608061
1.5731745
1.6742634
1.7639765
1.8428544
1.9131922
1.9776028
2.058581
2.1379975
2.1150946
2.5296062
3.0390119
3.3135699
3.5152038
3.5805224
3.227405
2.815749
3.2440062
4.3306882
5.3315796
7.799274
10.017207
11.245855
11.936449
12.214726
11.931676
10.996841
9.6122738
13.088194
7.5277957
-4.5725185
-18.404401
-30.297343
-39.574292
-43.756606
-42.735131
-36.483591
-26.260742
-16.492208
-10.326533
-7.120611
-5.5736932
-4.6407774
-4.0569806
-3.6961523
-3.4545953
-3.2948695
-3.1931866
-3.1301575
-3.0917984
-3.0686514
-3.0541585
-3.0439235
-3.0352269
-3.0265613
-3.0171044
-3.0065523
-2.9949249
-2.9824214
-2.9693486
-2.9559596
-2.9424495
-2.9289989
-2.9159046
-2.903262
-2.8911429
-2.8796167
-2.8687197
-2.8585052
-2.8489853
-2.8402733
-2.8323086
-2.8250092
-2.819365
-2.8156652
-2.8071025
-1.3317021
-1.3212319
-1.2957713
-1.2587199
-1.2096273
-1.1482581
-1.0748082
-0.9895065
-0.89260993
-0.78446102
-0.66554048
-0.53649879
-0.39814366
-0.25146455
-0.097606038
0.061977276
0.2256694
0.39166524
0.55796966
0.7224102
0.88271598
1.0365816
1.1817458
1.3160461
1.4375221
1.5444595
1.6354912
1.7096289
1.7666198
1.8050189
1.8349455
1.8794445
1.9199274
1.9829874
5.5646282
6.8122235
3.5865447
3.4372669
3.2010478
2.0404167
0.54599789
0.85250915
3.7031883
12.098903
10.142273
11.718368
12.856246
13.527773
13.747493
13.329774
12.327145
11.534806
14.291115
5.2105241
-5.33596
-18.882854
-30.89466
-40.244533
-44.602797
-43.27678
-36.705
-26.708949
-16.963696
-10.589816
-6.4974414
-5.6893174
-4.7702281
-4.2176176
-3.8793783
-3.6369635
-3.4781763
-3.3733083
-3.3065143
-3.2633781
-3.2343634
-3.2127437
-3.1943429
-3.1767219
-3.1586152
-3.1394892
-3.119327
-3.0983853
-3.0770569
-3.0557677
-3.0348385
-3.0143986
-2.9945251
-2.9757929
-2.9581582
-2.9416049
-2.9261049
-2.9116846
-2.8983254
-2.886052
-2.8749238
-2.8648191
-2.855674
-2.8486384
-2.8438506
-2.8338714
-1.5001604
-1.4896553
-1.4633271
-1.424801
-1.3735943
-1.3094036
-1.2323999
-1.142735
-1.040581
-0.92624863
-0.80020863
-0.66309361
-0.51571989
-0.35906764
-0.19446125
-0.023458216
0.15213278
0.3302337
0.50847593
0.68425049
0.85479583
1.0172873
1.1688601
1.3066281
1.427868
1.5300274
1.6108587
1.6682447
1.701126
1.6991952
1.6902119
1.7066478
1.7583528
1.9059601
5.3828932
5.5510691
4.7466996
3.359227
2.5881048
0.38847057
-2.8463428
-3.0701524
-0.08578829
8.7311856
15.95919
14.580552
14.540861
15.129217
15.257229
14.809657
14.002048
13.920614
15.179637
5.2869687
-4.8544935
-17.021074
-27.975364
-36.795696
-40.823571
-39.572617
-33.031561
-23.925745
-15.169177
-9.0167323
-5.8715778
-5.2641057
-4.672342
-4.2720971
-4.0154189
-3.7963471
-3.6465831
-3.5479077
-3.4836436
-3.4394214
-3.4065192
-3.3785281
-3.351934
-3.3248575
-3.2965188
-3.2668452
-3.2361903
-3.2051121
-3.1742663
-3.1442635
-3.1154964
-3.087384
-3.0611227
-3.0366513
-3.0139432
-2.9929028
-2.9734182
-2.9554457
-2.9389187
-2.9238484
-2.9102615
-2.8979632
-2.8869088
-2.8784038
-2.8724108
-2.8608489
-1.6817825
-1.6713226
-1.6441019
-1.6040675
-1.5507523
-1.4837038
-1.4029984
-1.3087108
-1.200949
-1.0799702
-0.94617062
-0.80012958
-0.64264774
-0.47471383
-0.29780243
-0.11353093
0.076089469
0.2686631
0.46142059
0.65127735
0.83490512
1.0088309
1.1695023
1.313138
1.4361315
1.534829
1.6057267
1.6460493
1.6511956
1.6048409
1.5437368
1.5152818
1.5487654
1.4473433
3.4445983
4.8365452
4.9581036
2.5022507
1.3500502
-1.2568754
-5.5009442
-6.6855601
-2.568037
3.6740251
10.50771
18.155055
15.318
15.910652
16.223203
15.811585
14.785493
14.540804
14.520463
5.8944956
-2.9580331
-13.169685
-22.108745
-29.285212
-32.806375
-31.649987
-26.428598
-19.421485
-12.351673
-7.6249451
-5.3892112
-4.5580587
-4.515964
-4.2839373
-4.1325582
-3.9400783
-3.8071799
-3.7238522
-3.6668941
-3.6240738
-3.5881321
-3.5535841
-3.5180061
-3.4803091
-3.4404294
-3.3989224
-3.356622
-3.3144324
-3.2732788
-3.2340271
-3.1978399
-3.1612557
-3.1282385
-3.0979953
-3.0702431
-3.0447561
-3.0213536
-2.9998682
-2.980216
-2.9623601
-2.9463011
-2.9317618
-2.9187147
-2.908684
-2.9013486
-2.8880172
-1.8772163
-1.8668523
-1.8387934
-1.7973366
-1.7419843
-1.6720659
-1.5875675
-1.4885021
-1.37487
-1.2468034
-1.1046105
-0.94880726
-0.78017819
-0.59953885
-0.40857809
-0.20896872
-0.0029083258
0.20688983
0.41725475
0.62456633
0.82476652
1.0135806
1.1868522
1.3395254
1.4670738
1.564212
1.6261716
1.6497624
1.6241003
1.5308959
1.4058068
1.3448928
1.3665002
1.3385465
1.9217008
3.6263446
4.9399934
5.4913419
0.21078628
-2.1606175
-5.4238341
-6.4528928
-3.5681119
2.0738724
8.9007185
17.325773
18.250297
16.078262
16.320197
15.866026
14.148041
13.439578
13.33525
7.152979
-0.46533802
-8.6487278
-15.235934
-20.27965
-22.7885
-21.534668
-17.819237
-13.120853
-9.0559941
-6.374149
-4.9722548
-4.3824362
-4.5640338
-4.3989818
-4.3003595
-4.1088692
-3.9831146
-3.9151895
-3.8657386
-3.8238527
-3.783553
-3.7406482
-3.69405
-3.6436591
-3.5903038
-3.5352338
-3.4798231
-3.4253716
-3.3729688
-3.3231727
-3.2755768
-3.2339914
-3.1950296
-3.1593002
-3.1266984
-3.096943
-3.0697656
-3.0449112
-3.0222309
-3.0016454
-2.9831239
-2.9662918
-2.9511474
-2.939501
-2.9306851
-2.9154193
-2.0869775
-2.0768952
-2.0481809
-2.0054442
-1.9481707
-1.8754708
-1.7872248
-1.6833317
-1.563633
-1.4281147
-1.2769686
-1.1105662
-0.92942576
-0.73489801
-0.52810962
-0.31092302
-0.085726849
0.14449908
0.37618289
0.60506598
0.82611069
1.0338983
1.2249315
1.3914616
1.5262376
1.6238495
1.6778501
1.6836981
1.6247875
1.4746615
1.2560086
1.0733703
0.96103408
0.96942231
1.2130606
1.2811847
0.92233411
2.464553
1.0762337
-1.8766742
-3.9413248
-4.4427938
-2.3393552
2.3309871
8.8798968
13.382534
20.132945
15.099155
15.319356
14.742809
12.692635
10.8527
11.426107
7.0618172
0.5911617
-4.8937191
-9.2971033
-12.565181
-14.240653
-12.935181
-11.127126
-8.8994236
-6.9446147
-5.3442721
-4.4558282
-4.6470578
-4.2588301
-4.0833638
-4.5439115
-4.3255237
-4.2023266
-4.1408792
-4.0926463
-4.0468199
-3.9978231
-3.9427008
-3.881544
-3.8153077
-3.7457717
-3.6749103
-3.6046266
-3.5366505
-3.4723173
-3.4123111
-3.3566583
-3.3066015
-3.2612118
-3.2201575
-3.1830112
-3.1493169
-3.1186509
-3.0906401
-3.0650609
-3.0418372
-3.0208543
-3.0016567
-2.9843471
-2.9709774
-2.9605027
-2.9431085
-2.3116363
-2.3021569
-2.2730306
-2.2292233
-2.1702763
-2.0950397
-2.0032189
-1.8945494
-1.7686989
-1.625504
-1.4650155
-1.2874533
-1.0929086
-0.88276475
-0.65821863
-0.42106664
-0.17373914
0.080623442
0.33800683
0.59343288
0.84061545
1.071543
1.2875844
1.4723046
1.6189244
1.7194663
1.7653755
1.7498336
1.653977
1.4420885
1.1100362
0.75490082
0.45411106
0.23895589
0.18037485
0.14676336
-0.077840357
-0.40832078
-0.77409321
-1.369456
-2.6364842
-2.6409601
-0.86090485
3.2324283
9.7256387
14.407022
21.230496
13.415462
13.541634
12.884615
10.95251
8.1887583
7.6506568
6.0032902
0.76020544
-2.3367542
-4.9749424
-7.1211455
-8.4503019
-8.6143016
-7.9920605
-6.8232462
-5.8281954
-5.0594917
-4.9961456
-4.6337694
-4.5853686
-4.9297001
-4.8305717
-4.5996062
-4.4796273
-4.4148578
-4.358472
-4.3004627
-4.2356608
-4.1623541
-4.0815071
-3.9951137
-3.9058467
-3.8163863
-3.7292035
-3.6463957
-3.5693608
-3.4987923
-3.4345386
-3.3771078
-3.3258304
-3.2800137
-3.2389086
-3.2018011
-3.1680746
-3.1372279
-3.1089511
-3.0831673
-3.0597159
-3.0381015
-3.0185355
-3.0033338
-2.9909761
-2.9712169
-2.5518187
-2.5433106
-2.5141154
-2.4696004
-2.4093945
-2.3319993
-2.236899
-2.1236645
-1.9917636
-1.8408192
-1.6707044
-1.4817851
-1.2724821
-1.045419
-0.80127829
-0.54166719
-0.26893794
0.01366316
0.30177131
0.58980816
0.87097944
1.1361586
1.3799755
1.5886819
1.7521249
1.8582855
1.8941517
1.849895
1.7021649
1.4078696
0.93108345
0.35568281
-0.2250753
-0.70743147
-1.0158273
-1.1345886
-1.247359
-1.4554222
-1.8388028
-2.3104463
-2.5587109
-2.0875852
-0.34374156
3.4918409
9.4850792
12.664425
22.888346
12.760975
11.903317
11.087899
9.2062691
5.6747655
3.6798245
3.4663354
2.3925575
-1.125372
-1.9316199
-3.6679024
-5.0882191
-5.8100126
-5.8974883
-5.6258045
-5.4147124
-5.3753065
-5.3397247
-5.6429634
-5.631339
-5.4382399
-5.160229
-4.9533271
-4.834512
-4.7512811
-4.6727662
-4.5909075
-4.5007722
-4.4013369
-4.2941214
-4.1820595
-4.0686651
-3.9572999
-3.8509512
-3.7519301
-3.6615702
-3.5803116
-3.5079797
-3.4441757
-3.3880197
-3.3384367
-3.2942654
-3.254506
-3.2182974
-3.1850132
-3.154298
-3.1260446
-3.1001084
-3.0759871
-3.0540309
-3.0368366
-3.0223329
-2.9999451
-2.8081194
-2.8010562
-2.7722997
-2.7275901
-2.666672
-2.5876562
-2.4897781
-2.3724186
-2.2347877
-2.0761769
-1.8959775
-1.6934327
-1.4705053
-1.2257604
-0.96037067
-0.67582437
-0.37434803
-0.059178137
0.26515563
0.59268424
0.91624987
1.2281067
1.5050603
1.7457842
1.9337168
2.0497416
2.072303
1.9869368
1.7533358
1.309764
0.56025465
-0.33592529
-1.2580364
-1.9768989
-2.4040444
-2.5958468
-2.7014394
-2.7686498
-3.0544337
-3.4316518
-3.6372468
-3.0988347
-0.61459349
3.0410773
7.3939356
12.234868
16.568961
11.184498
10.781708
10.304403
8.6567817
5.1918814
1.0901888
-1.1262815
2.8951905
0.48937208
0.66636158
-1.2337405
-3.2397934
-4.5444552
-5.2042304
-5.488854
-5.6544662
-5.9155572
-6.2353062
-6.3137815
-6.1808328
-5.9343891
-5.6625607
-5.4454731
-5.2896793
-5.1622884
-5.0430715
-4.9229397
-4.7958437
-4.6604085
-4.5185294
-4.3740179
-4.2312846
-4.0942935
-3.9663474
-3.8498224
-3.7459635
-3.6548721
-3.575261
-3.506468
-3.4469896
-3.3951261
-3.3491952
-3.3077993
-3.2698484
-3.2346298
-3.2017374
-3.1710847
-3.1426113
-3.1158062
-3.0912762
-3.0718834
-3.0549351
-3.0295348
-3.0811115
-3.076155
-3.0484869
-3.0042159
-2.9433103
-2.8634554
-2.7635717
-2.6427975
-2.5000452
-2.3342934
-2.1446757
-1.9301948
-1.6913818
-1.4276833
-1.1394362
-0.82764035
-0.49415465
-0.14197506
0.22440753
0.59848093
0.97155654
1.3324899
1.6627737
1.9485927
2.1737374
2.3079234
2.3149499
2.1754637
1.8261797
1.1481082
-0.01557488
-1.3899772
-2.8426127
-3.8296284
-4.4532894
-4.8297474
-4.6822625
-4.3696321
-4.4312235
-4.8480809
-4.8420795
-3.1809355
0.92673281
7.2401741
19.224602
21.478993
8.0349438
9.4678183
10.627281
10.894877
9.7842645
7.1890134
3.4052485
0.47770971
0.062595546
5.8784084
3.5804622
1.2391064
-2.0247867
-4.1207877
-5.1877052
-5.6764416
-6.0856415
-6.5480536
-6.9250141
-7.0759531
-6.9808724
-6.7124596
-6.3898553
-6.0979763
-5.855039
-5.653386
-5.473342
-5.299511
-5.1222663
-4.9391714
-4.7527261
-4.5677721
-4.3895992
-4.2227395
-4.0706751
-3.9356353
-3.818713
-3.7196185
-3.6342556
-3.5626136
-3.5021519
-3.4501633
-3.4042486
-3.3625378
-3.3237551
-3.2871112
-3.2522198
-3.2191546
-3.1879659
-3.1582314
-3.1308094
-3.1089136
-3.0891419
-3.0602506
-3.3713351
-3.3693077
-3.3435346
-3.3005419
-3.2406437
-3.1610189
-3.0601786
-2.9369831
-2.7900125
-2.6179044
-2.4196734
-2.1930085
-1.9386114
-1.6554625
-1.3432604
-1.0023341
-0.6338626
-0.24024781
0.17433599
0.60312901
1.0363523
1.4615749
1.8605419
2.2096553
2.4851206
2.6452714
2.6411949
2.4258157
1.9726783
0.89989764
-0.77223089
-2.3838064
-4.7071093
-5.9778258
-6.5790632
-6.6674028
-6.2688954
-5.6732348
-5.7576994
-6.1367696
-4.8692648
-0.93009844
5.5428069
12.194956
21.66355
5.6062742
6.9013587
9.7199146
11.974254
12.740372
12.187687
10.533753
7.8787746
5.449592
5.0032725
7.1809752
10.150251
4.2839421
-0.59971156
-4.0756922
-5.7354849
-6.2611966
-6.7217239
-7.4086044
-8.0488738
-8.359079
-8.2554511
-7.8573971
-7.3653356
-6.9155743
-6.5294239
-6.225048
-5.9656851
-5.7223914
-5.4801759
-5.2360317
-4.99353
-4.7588131
-4.5380481
-4.336549
-4.1578355
-4.0037675
-3.8749162
-3.7721293
-3.6824476
-3.6114259
-3.5534128
-3.5042661
-3.4606633
-3.4202346
-3.3815822
-3.3439327
-3.3071012
-3.2714376
-3.237179
-3.2040928
-3.1732945
-3.1484264
-3.1253195
-3.0923541
-3.6792429
-3.6811542
-3.6583451
-3.6177558
-3.5601521
-3.482127
-3.3817053
-3.2574393
-3.1074975
-2.9299176
-2.7226722
-2.4857423
-2.2165619
-1.9141532
-1.5776129
-1.2063891
-0.80059544
-0.36155118
0.10742511
0.59980141
1.1037984
1.611091
2.0982316
2.5270983
2.8813668
3.0834314
3.0780218
2.8263391
2.1937224
0.72856339
-0.63932084
-0.51067369
-5.6777116
-8.3079079
-9.0939116
-8.4117553
-7.4736389
-7.0764231
-7.3877593
-6.8734876
-3.3701006
1.8456334
2.4520972
27.577398
9.1586284
7.6789773
10.031067
12.731298