/*--------------------------------*- C++ -*----------------------------------*\
  =========                 |
  \\      /  F ield         | OpenFOAM: The Open Source CFD Toolbox
   \\    /   O peration     | Website:  https://openfoam.org
    \\  /    A nd           | Version:  9
     \\/     M anipulation  |
\*---------------------------------------------------------------------------*/
FoamFile
{
    format      ascii;
    class       volScalarField;
    location    "0.38";
    object      p;
}
// * * * * * * * * * * * * * * * * * * * * * * * * * * * * * * * * * * * * * //

dimensions      [1 -1 -2 0 0 0 0];

internalField   nonuniform List<scalar> 
10000
(
0
0.018414072
0.031173558
0.046683705
0.063400534
0.080879928
0.098915988
0.11725155
0.13567832
0.15392333
0.1717293
0.18883192
0.20491148
0.21965426
0.23270114
0.24366642
0.25219026
0.2578884
0.26036734
0.25926373
0.25417943
0.24472852
0.23060076
0.21150327
0.18715937
0.15737934
0.12200732
0.080614433
0.033506946
-0.019074
-0.076244407
-0.14064718
-0.21116908
-0.28725047
-0.36846897
-0.45435613
-0.5444718
-0.63833492
-0.73536716
-0.83503933
-0.93682632
-1.0401966
-1.1445993
-1.2494662
-1.3543269
-1.4587526
-1.5624258
-1.6652095
-1.7669003
-1.86761
-1.9685801
-2.0638764
-2.1531338
-2.236301
-2.3187603
-2.3981031
-2.474174
-2.5467742
-2.6157218
-2.6810013
-2.7426898
-2.800955
-2.8559936
-2.9082332
-2.9582553
-3.0041322
-3.046768
-3.0847291
-3.120206
-3.1541762
-3.1866975
-3.2183056
-3.2491247
-3.2793403
-3.3091757
-3.3388027
-3.368332
-3.3978078
-3.4272683
-3.4567
-3.4860467
-3.5152351
-3.5441682
-3.5727266
-3.600793
-3.6282598
-3.6550068
-3.6809179
-3.7058939
-3.7298303
-3.7526535
-3.7742993
-3.7947031
-3.813838
-3.8316812
-3.8482226
-3.8634678
-3.8769659
-3.8890597
-3.9074447
-0.014370979
0.0056981251
0.019079364
0.034930102
0.051794305
0.069386923
0.087485089
0.1059449
0.12450603
0.14294113
0.16101888
0.17844155
0.19493836
0.21018465
0.22380696
0.2354658
0.24479626
0.25140446
0.25492059
0.25494888
0.25108965
0.24295684
0.23021496
0.21253337
0.18962847
0.1612956
0.12733271
0.087546564
0.041983096
-0.0091315566
-0.066260164
-0.12984937
-0.19949367
-0.27479689
-0.35541879
-0.44090049
-0.53071178
-0.62430606
-0.72120178
-0.82086059
-0.92263011
-1.0259418
-1.1302675
-1.2350463
-1.3398085
-1.4441417
-1.5476857
-1.6502247
-1.7515484
-1.8515139
-1.9498136
-2.0444809
-2.1349232
-2.2212989
-2.3049857
-2.385504
-2.4626306
-2.5362133
-2.6060931
-2.6722278
-2.7346525
-2.7935176
-2.8490464
-2.9014538
-2.950929
-2.9971805
-3.0397514
-3.0801853
-3.1180216
-3.1535556
-3.1875229
-3.2203102
-3.2522415
-3.2835403
-3.3144181
-3.3450166
-3.3754541
-3.4057847
-3.4360249
-3.4661503
-3.4961165
-3.5258444
-3.5552403
-3.5841835
-3.6125681
-3.6402755
-3.6672012
-3.6932433
-3.7183096
-3.7423172
-3.7651722
-3.786826
-3.8072395
-3.826375
-3.844216
-3.860763
-3.8760296
-3.8895937
-3.9016237
-3.9197691
-0.024965084
-0.0030094977
0.01144053
0.027883626
0.045196007
0.063092572
0.081503225
0.10025933
0.11919177
0.13808705
0.15666273
0.17468059
0.19185714
0.20785779
0.22236209
0.23501516
0.24541437
0.25318471
0.25794421
0.25927651
0.25675287
0.24999865
0.2386198
0.22226544
0.20065167
0.17351932
0.14061618
0.10174449
0.056830059
0.0058575746
-0.051820622
-0.11557986
-0.18542425
-0.26113169
-0.34233894
-0.42859352
-0.51934535
-0.61401297
-0.71205691
-0.81292864
-0.91598035
-1.0205689
-1.1261172
-1.2320524
-1.3378674
-1.4431524
-1.5475708
-1.6508523
-1.7526677
-1.8527161
-1.9505594
-2.0453808
-2.1366974
-2.2244245
-2.3088489
-2.3898799
-2.4673151
-2.5409798
-2.6108098
-2.676818
-2.7390046
-2.7975189
-2.8525345
-2.9042468
-2.952796
-2.9981832
-3.0404024
-3.0800094
-3.1177021
-3.1535164
-3.1878397
-3.2210315
-3.2533937
-3.2851715
-3.3165471
-3.3476569
-3.3786135
-3.4094858
-3.4402755
-3.4709457
-3.5014295
-3.531651
-3.5614791
-3.5908193
-3.6195215
-3.6475024
-3.6746506
-3.7008395
-3.7259793
-3.7499997
-3.7728174
-3.7943829
-3.8146378
-3.8335825
-3.8511926
-3.8674469
-3.8824343
-3.8956552
-3.9075723
-3.925201
-0.037386707
-0.014172399
0.0011907067
0.018291693
0.036101177
0.054487795
0.073366806
0.092623638
0.11213864
0.13166881
0.15099802
0.16988333
0.1880266
0.20511931
0.22084716
0.23483742
0.24671308
0.25608236
0.26251337
0.2655756
0.26484183
0.25987305
0.25024978
0.23562427
0.21566626
0.19003705
0.15843036
0.12061394
0.076407208
0.025639732
-0.03146575
-0.095183442
-0.16532766
-0.24164046
-0.32376073
-0.41117863
-0.50331157
-0.59956877
-0.69931697
-0.80191053
-0.9066901
-1.0129782
-1.1201416
-1.2275728
-1.3347628
-1.4413216
-1.5468764
-1.6510938
-1.7536622
-1.8542351
-1.9524346
-2.0477859
-2.1399401
-2.228685
-2.313968
-2.3956616
-2.473588
-2.5475584
-2.6175009
-2.6834601
-2.7454333
-2.8035557
-2.8580259
-2.9090703
-2.9568897
-3.0016484
-3.0436124
-3.0832025
-3.120572
-3.156247
-3.1906017
-3.2239772
-3.2566226
-3.2887634
-3.3205673
-3.3521609
-3.3836569
-3.4151179
-3.4465263
-3.4778159
-3.5089097
-3.5397167
-3.5701044
-3.5999366
-3.6290904
-3.657445
-3.6848746
-3.7112853
-3.7365785
-3.7606722
-3.7834942
-3.8049916
-3.8251248
-3.8439042
-3.8613202
-3.8773313
-3.892008
-3.9048649
-3.9167375
-3.9335836
-0.049211582
-0.026149055
-0.010283122
0.0073231125
0.025676318
0.04459696
0.064052454
0.083983294
0.10422746
0.1246139
0.14493816
0.16493327
0.1843374
0.20287367
0.22019277
0.23592504
0.24969555
0.26108401
0.26964487
0.27492458
0.27644601
0.27373199
0.26634998
0.2539071
0.23599563
0.21222005
0.18224394
0.14578095
0.10259494
0.052510712
-0.0044541943
-0.068423239
-0.13921692
-0.21660183
-0.30022302
-0.38949489
-0.48377868
-0.58243015
-0.68470998
-0.78987591
-0.89718912
-1.0059033
-1.1153483
-1.224901
-1.3340267
-1.442332
-1.5494204
-1.6549355
-1.7586041
-1.8601114
-1.9591441
-2.0553547
-2.1484447
-2.2381685
-2.3243323
-2.4067155
-2.485118
-2.5593397
-2.6292623
-2.6949389
-2.7563874
-2.813759
-2.8673113
-2.917316
-2.9640573
-3.0078184
-3.0489546
-3.0878609
-3.1248322
-3.1602524
-3.1944908
-3.2278739
-3.2606636
-3.2930782
-3.3252732
-3.3573707
-3.3894579
-3.4215721
-3.4536801
-3.4856974
-3.5175252
-3.5490365
-3.5800894
-3.6105393
-3.6402384
-3.6690425
-3.696855
-3.7235596
-3.749044
-3.7732288
-3.7960584
-3.8174935
-3.8375078
-3.8560971
-3.8732563
-3.8889999
-3.9033988
-3.9159098
-3.9277366
-3.9436536
-0.061956129
-0.038866833
-0.022646764
-0.0045474969
0.014332318
0.033820495
0.053953107
0.074649929
0.095794106
0.11723486
0.1387537
0.16012613
0.181115
0.20142317
0.22070414
0.23859813
0.2546912
0.26854285
0.27970293
0.2876743
0.29192906
0.29196301
0.28730499
0.27748019
0.26200963
0.24045011
0.21240735
0.17751967
0.13548533
0.086103605
0.029200524
-0.035234927
-0.10703955
-0.1860011
-0.27175443
-0.36361056
-0.46085542
-0.56274928
-0.66842046
-0.77700304
-0.8876696
-0.99959208
-1.112029
-1.2243294
-1.3359309
-1.4464259
-1.5554214
-1.6625707
-1.7676353
-1.8703822
-1.9705672
-2.0679075
-2.1621265
-2.2529549
-2.3401145
-2.4232864
-2.5022038
-2.5766502
-2.6464583
-2.7116645
-2.7723238
-2.828611
-2.8808855
-2.929492
-2.9747861
-3.0171627
-3.0570458
-3.0948251
-3.1309057
-3.1656622
-3.1994632
-3.232602
-3.2653272
-3.2978664
-3.3303723
-3.3629378
-3.3956296
-3.4284504
-3.4613412
-3.4942017
-3.526892
-3.5592416
-3.5910861
-3.622266
-3.6526203
-3.6819958
-3.7102667
-3.7373153
-3.7630316
-3.7873458
-3.8101998
-3.831575
-3.8514508
-3.869817
-3.8866969
-3.9021193
-3.916148
-3.9281672
-3.9401984
-3.9550424
-0.076121916
-0.052574688
-0.03594936
-0.017410201
0.0019695033
0.022058014
0.042891194
0.064436586
0.086611904
0.10924765
0.13216745
0.15518278
0.1780404
0.20044138
0.22205948
0.24250616
0.26134912
0.27813599
0.29237843
0.30352825
0.3110283
0.31434218
0.31291518
0.30618376
0.29361793
0.27469746
0.24895252
0.21593054
0.17524854
0.1266121
0.069817629
0.004784893
-0.068392206
-0.14947999
-0.23800568
-0.33324324
-0.43437127
-0.54046639
-0.6505116
-0.76349494
-0.87845199
-0.99443407
-1.1106012
-1.2262773
-1.340897
-1.4540176
-1.5652652
-1.6743436
-1.7810814
-1.8853455
-1.9869466
-2.08566
-2.1812308
-2.2733561
-2.3616833
-2.4458119
-2.5253522
-2.6000442
-2.6696435
-2.734123
-2.7936653
-2.8484992
-2.8990016
-2.945705
-2.9890616
-3.0295925
-3.0677687
-3.1040392
-3.1388248
-3.1725618
-3.205598
-3.2382333
-3.2707216
-3.3032604
-3.3359875
-3.368998
-3.4023093
-3.4358867
-3.4696508
-3.503472
-3.537149
-3.5704815
-3.6032729
-3.6353312
-3.6664603
-3.6965048
-3.7253127
-3.7527629
-3.7787509
-3.8032065
-3.8260858
-3.8473783
-3.8670903
-3.8852163
-3.9017964
-3.9168614
-3.9304884
-3.9419866
-3.9538664
-3.967805
-0.091874195
-0.067198583
-0.050224304
-0.031340053
-0.011512212
0.0091216702
0.03066279
0.053112828
0.076388738
0.10035993
0.12488574
0.14977183
0.17477074
0.19960391
0.22392551
0.24732634
0.2693709
0.28957962
0.30740876
0.32228159
0.33361001
0.34077598
0.34314228
0.34007439
0.3309569
0.31519037
0.29218386
0.26139911
0.22236227
0.17464712
0.11794336
0.052145523
-0.022757982
-0.10653142
-0.19857569
-0.29812075
-0.40419286
-0.5156211
-0.63117702
-0.74965357
-0.869905
-0.99084263
-1.1115258
-1.2312475
-1.3494263
-1.4655818
-1.579377
-1.6906185
-1.7992579
-1.9052359
-2.008448
-2.1087645
-2.2059568
-2.299658
-2.3894155
-2.4747567
-2.555129
-2.6301261
-2.6994586
-2.7630033
-2.8209938
-2.8738535
-2.9220074
-2.9661867
-3.0070521
-3.0451662
-3.0810953
-3.1153711
-3.1484763
-3.1808453
-3.2128084
-3.2446884
-3.2767468
-3.3091642
-3.3420614
-3.3755027
-3.4094834
-3.4439325
-3.4787066
-3.5136205
-3.5484457
-3.5829359
-3.6168424
-3.6499279
-3.6819734
-3.7127957
-3.7422268
-3.7701263
-3.7964092
-3.8210109
-3.8438984
-3.8650637
-3.8845501
-3.9023913
-3.9186483
-3.9333602
-3.9465999
-3.957148
-3.9688699
-3.9818917
-0.10892002
-0.082353481
-0.065297069
-0.046311891
-0.026216305
-0.0051233875
0.017106977
0.040463638
0.06490318
0.090347013
0.11664255
0.14360873
0.17103184
0.198621
0.22601078
0.2527902
0.27850594
0.30263716
0.32460015
0.34378722
0.35955463
0.37118995
0.37797476
0.37920391
0.37415808
0.36211784
0.34238495
0.31430422
0.27727672
0.23070513
0.17414778
0.10743035
0.030463117
-0.056544757
-0.15299859
-0.25799156
-0.37027694
-0.48837174
-0.61073423
-0.73588063
-0.86247557
-0.98933334
-1.115413
-1.2398918
-1.3621592
-1.4817244
-1.5983062
-1.7118533
-1.8224782
-1.9302469
-2.0352001
-2.1373321
-2.2364472
-2.3321446
-2.4238118
-2.5107625
-2.5922687
-2.6676979
-2.7366867
-2.7990719
-2.8550422
-2.9052382
-2.9503905
-2.9913017
-3.0289218
-3.0640038
-3.0971408
-3.1288816
-3.1598509
-3.19047
-3.2210267
-3.2518651
-3.2832763
-3.3154323
-3.3484469
-3.3823518
-3.4170802
-3.4525109
-3.4884638
-3.5246789
-3.560863
-3.5967112
-3.6319192
-3.6662069
-3.6993129
-3.7310162
-3.7611478
-3.789555
-3.8161464
-3.8408702
-3.8637165
-3.8847043
-3.9038934
-3.9213695
-3.9372262
-3.9516109
-3.9649323
-3.9732129
-3.9851286
-3.9972679
-0.12644786
-0.097096498
-0.080942077
-0.062454972
-0.042330595
-0.020883723
0.0019603508
0.026220374
0.05188913
0.078889117
0.10709394
0.13635295
0.16645849
0.19711044
0.2279446
0.25854024
0.28839945
0.31697875
0.34367924
0.36782697
0.38868185
0.40546263
0.41736763
0.42359032
0.42330224
0.41566147
0.39984482
0.37504166
0.34046328
0.29536557
0.23914476
0.17144444
0.092063753
0.0011355352
-0.10078327
-0.21256948
-0.33258306
-0.45891312
-0.58958018
-0.72274059
-0.85687208
-0.99070747
-1.1230812
-1.2530232
-1.3798774
-1.503167
-1.6226782
-1.7385276
-1.8510441
-1.960568
-2.0673486
-2.1715045
-2.2729255
-2.3711516
-2.4653588
-2.5545253
-2.637671
-2.713854
-2.7824659
-2.8433389
-2.896761
-2.9434714
-2.9846656
-3.0214769
-3.0550103
-3.086261
-3.1159656
-3.1446981
-3.1730187
-3.2013775
-3.2301315
-3.259634
-3.2901827
-3.3219534
-3.3550418
-3.3894368
-3.425017
-3.4615951
-3.4989329
-3.536693
-3.5744945
-3.6119554
-3.6486977
-3.684384
-3.7187113
-3.7514277
-3.7823393
-3.8112864
-3.8381704
-3.8629734
-3.8857085
-3.9064268
-3.9252136
-3.9421858
-3.9574674
-3.9712066
-3.9835247
-3.992118
-4.0029982
-4.014028
-0.14115392
-0.11440764
-0.098228328
-0.080213512
-0.060140821
-0.038457058
-0.015060977
0.010096261
0.037006175
0.065617996
0.095860648
0.12759424
0.16060882
0.19462687
0.22928013
0.26411815
0.29862446
0.33223372
0.36430362
0.39408105
0.42073635
0.44341735
0.46122542
0.47322444
0.47847082
0.47600035
0.46483505
0.44397106
0.41242625
0.36929943
0.31371672
0.24507069
0.16296812
0.067346518
-0.0412534
-0.1614563
-0.29110976
-0.42759559
-0.56830796
-0.71103474
-0.85405898
-0.99598899
-1.1355559
-1.2716807
-1.4035771
-1.5307791
-1.6531971
-1.7711787
-1.8853216
-1.996361
-2.1049489
-2.2113548
-2.3155592
-2.4169907
-2.514602
-2.6069209
-2.6924545
-2.7699123
-2.838296
-2.8972713
-2.9473271
-2.989578
-3.02561
-3.0571415
-3.0856295
-3.1122447
-3.1377968
-3.1628641
-3.1879805
-3.2135893
-3.2401149
-3.2679526
-3.2974193
-3.3286656
-3.3617608
-3.396667
-3.4332326
-3.4711806
-3.5101711
-3.5497716
-3.5894991
-3.6288649
-3.6674118
-3.7047317
-3.7404729
-3.7743298
-3.8060768
-3.8355686
-3.862722
-3.8875315
-3.9100522
-3.9303725
-3.9486112
-3.9649189
-3.9794641
-3.9924061
-4.0038006
-4.012249
-4.0222904
-4.0320989
-0.15618093
-0.13366077
-0.11742984
-0.099882954
-0.079975588
-0.058143786
-0.034255227
-0.0082613374
0.019867005
0.050132508
0.082495456
0.11683768
0.15297553
0.19064764
0.22947384
0.26898707
0.30867551
0.34793458
0.38603859
0.42215947
0.45539357
0.48479564
0.50935781
0.52801479
0.53968172
0.54324963
0.5375597
0.52142716
0.49367435
0.45313786
0.39864695
0.32932534
0.24431303
0.14321467
0.026472679
-0.10427191
-0.24602081
-0.39504316
-0.54788068
-0.70187781
-0.855168
-1.006341
-1.1540738
-1.2971095
-1.4344528
-1.5656381
-1.6907378
-1.8104104
-1.9257113
-2.0377803
-2.147899
-2.2566701
-2.36425
-2.4698938
-2.5721587
-2.6690212
-2.7581604
-2.8376333
-2.9060134
-2.9627491
-3.0084243
-3.0447331
-3.0740592
-3.09889
-3.1211808
-3.1422777
-3.1629126
-3.1835831
-3.2048674
-3.2272134
-3.2510475
-3.2768132
-3.3048554
-3.335366
-3.3684054
-3.4038939
-3.4416216
-3.4812165
-3.5222017
-3.5640189
-3.6060468
-3.6476788
-3.6883634
-3.7275861
-3.7649359
-3.8000621
-3.8327165
-3.8627526
-3.890109
-3.9148177
-3.9369752
-3.9567101
-3.9742011
-3.9896307
-4.0032353
-4.015218
-4.0256652
-4.0336267
-4.042831
-4.0514197
-0.17362866
-0.15472837
-0.13845003
-0.1217473
-0.10212256
-0.080236974
-0.055977229
-0.029245811
5.6320838e-05
0.031963041
0.066472882
0.10352484
0.14296917
0.18454681
0.22788359
0.27253025
0.31795654
0.36349036
0.40833336
0.45159017
0.49225744
0.52926828
0.5615038
0.58777313
0.60682687
0.61738007
0.61809808
0.60763804
0.58461592
0.54753873
0.4948263
0.42527519
0.33740215
0.23013409
0.10346356
-0.040607542
-0.19769189
-0.3623358
-0.52973106
-0.69670329
-0.86158241
-1.0231687
-1.1800752
-1.3307669
-1.4739752
-1.6091103
-1.7363794
-1.8568563
-1.9723253
-2.0846565
-2.1958122
-2.3069862
-2.4186473
-2.5299204
-2.6387159
-2.7420786
-2.8366236
-2.9193449
-2.9881257
-3.042114
-3.0820878
-3.1104652
-3.130978
-3.1474153
-3.1622818
-3.1768739
-3.1918291
-3.2073818
-3.2241376
-3.2425317
-3.2630346
-3.2861533
-3.3123237
-3.3418418
-3.374761
-3.4109456
-3.4500865
-3.4916892
-3.5351
-3.5795938
-3.6243872
-3.6687228
-3.7119222
-3.7533624
-3.7925529
-3.8290864
-3.862682
-3.8932329
-3.9206871
-3.9451361
-3.9667139
-3.9856374
-4.0021307
-4.016342
-4.0287893
-4.0396385
-4.048963
-4.0562047
-4.0644885
-4.0718674
-0.19393396
-0.17761653
-0.16171446
-0.14623686
-0.12688411
-0.10507298
-0.080598259
-0.053260986
-0.022897777
0.010563596
0.047199997
0.08702015
0.12989115
0.17558566
0.22377194
0.27401286
0.32573377
0.37819993
0.43054377
0.48178087
0.53080151
0.57639552
0.61730897
0.65220446
0.67965838
0.69821202
0.70638045
0.7026583
0.68543259
0.65291238
0.60312396
0.53405999
0.4436974
0.32978039
0.19113853
0.030054372
-0.14694285
-0.331307
-0.51589284
-0.69734715
-0.87498986
-1.0481337
-1.2153125
-1.3745504
-1.5240666
-1.6629016
-1.7914243
-1.9113238
-2.0253933
-2.136381
-2.2477252
-2.3613392
-2.4780722
-2.5969028
-2.714869
-2.8276053
-2.9301724
-3.0180441
-3.0879755
-3.1386073
-3.17095
-3.188575
-3.1975282
-3.2035808
-3.2097427
-3.2170039
-3.2256475
-3.2351931
-3.2465452
-3.2600457
-3.2763197
-3.2960314
-3.3197719
-3.3479606
-3.3806514
-3.4176407
-3.4584976
-3.5025447
-3.5489197
-3.5966674
-3.6448028
-3.6923873
-3.738576
-3.7826075
-3.8238839
-3.8619492
-3.8965195
-3.92749
-3.9548711
-3.9788472
-3.9995443
-4.017314
-4.0323914
-4.0452384
-4.0562091
-4.0656109
-4.0736001
-4.0798251
-4.0870808
-4.0932574
-0.21695168
-0.20280735
-0.18768595
-0.17337703
-0.15448646
-0.1329567
-0.10847069
-0.080742297
-0.049529417
-0.014655614
0.024015006
0.06656373
0.11292623
0.16291796
0.21626753
0.27253901
0.33111722
0.39121476
0.4518827
0.51200698
0.57035621
0.6255886
0.67626889
0.7208601
0.75777406
0.78540637
0.80212623
0.80625234
0.79598015
0.76922933
0.72350886
0.65621457
0.56450044
0.44419604
0.29151013
0.10800963
-0.095825394
-0.3053758
-0.50970167
-0.70634579
-0.89741705
-1.0831701
-1.261915
-1.4308086
-1.5870647
-1.7290324
-1.8573427
-1.9746246
-2.0849753
-2.1924012
-2.3022831
-2.4180658
-2.5411308
-2.670198
-2.8011177
-2.9274654
-3.0419257
-3.1377364
-3.2100036
-3.2565479
-3.27861
-3.2814079
-3.2751011
-3.2685102
-3.2648742
-3.2642129
-3.2657683
-3.2685679
-3.2733613
-3.2806469
-3.2913813
-3.3065841
-3.3270991
-3.3534484
-3.3857372
-3.4236734
-3.4666296
-3.513685
-3.5637253
-3.6154929
-3.6677395
-3.7192615
-3.7689866
-3.816009
-3.8596455
-3.899367
-3.9348937
-3.9661669
-3.9931795
-4.0163645
-4.0356552
-4.0519104
-4.0653162
-4.076339
-4.0854554
-4.093068
-4.0994016
-4.1043337
-4.1103706
-4.1153226
-0.24275562
-0.23068948
-0.21675848
-0.20299575
-0.18505526
-0.164143
-0.13997787
-0.11216591
-0.080392155
-0.044351806
-0.0038490767
0.041288992
0.091129116
0.1455613
0.20432931
0.26703262
0.33304719
0.40151143
0.47136879
0.54137183
0.61013268
0.67613005
0.73771824
0.79313186
0.84060986
0.87840719
0.90473229
0.91774622
0.91555495
0.89585229
0.85564568
0.79155014
0.70051326
0.57520226
0.40637779
0.19319853
-0.047064049
-0.2896886
-0.51605875
-0.72640008
-0.9306146
-1.1300757
-1.322237
-1.5023638
-1.6659004
-1.8100645
-1.9359101
-2.0474884
-2.1505325
-2.2517268
-2.3577028
-2.4747281
-2.6055317
-2.7485971
-2.8978804
-3.0439196
-3.1758731
-3.2837063
-3.3600722
-3.4015588
-3.4096586
-3.3919245
-3.3663301
-3.3452844
-3.3308105
-3.3217333
-3.315329
-3.3103641
-3.3068086
-3.3058131
-3.3090173
-3.318062
-3.3341436
-3.3579218
-3.3895381
-3.4285834
-3.4741565
-3.5250259
-3.5796745
-3.6364461
-3.69374
-3.7500386
-3.8039573
-3.8544493
-3.9007302
-3.9421902
-3.9785918
-4.0100409
-4.0360015
-4.0579745
-4.07571
-4.0898822
-4.101009
-4.1096678
-4.1164464
-4.1218486
-4.1261589
-4.1294506
-4.134063
-4.1377506
-0.27135907
-0.26121702
-0.24859173
-0.23565006
-0.21888122
-0.19888551
-0.1754961
-0.14801232
-0.11608795
-0.079286115
-0.037286119
0.010220475
0.06343286
0.12232915
0.18670887
0.25622383
0.33025477
0.40786029
0.48783504
0.56880279
0.64917798
0.72716708
0.80086594
0.86828662
0.92742912
0.97636574
1.0131568
1.03582
1.0424008
1.0306509
0.9971896
0.93739744
0.84969667
0.72301716
0.5406241
0.28758677
-0.0086677116
-0.29428716
-0.53939588
-0.75855211
-0.97543842
-1.1908361
-1.3995448
-1.5931092
-1.7646409
-1.9096792
-2.0298331
-2.1314027
-2.2222767
-2.3126344
-2.410929
-2.5275331
-2.6677022
-2.8298752
-3.0052787
-3.1798156
-3.3373335
-3.4630788
-3.5462808
-3.5815131
-3.5698126
-3.5204947
-3.4723065
-3.438147
-3.4144155
-3.3973806
-3.3821853
-3.3662882
-3.3506641
-3.3377269
-3.3303044
-3.330705
-3.3405633
-3.3607669
-3.3913965
-3.4318273
-3.4807977
-3.5365512
-3.5970114
-3.6600323
-3.7235455
-3.7856152
-3.844552
-3.8990785
-3.948305
-3.9915413
-4.0284375
-4.0594217
-4.0845964
-4.104641
-4.1200142
-4.1314303
-4.1396084
-4.1452595
-4.1491057
-4.1517426
-4.1535906
-4.1548911
-4.1577716
-4.1601555
-0.30262649
-0.29427747
-0.28311406
-0.27139259
-0.25615202
-0.23757778
-0.21533072
-0.18878486
-0.15730733
-0.12028545
-0.077284743
-0.027762181
0.028566624
0.091822095
0.16193219
0.23860258
0.32122258
0.40877699
0.49988913
0.59301848
0.68631312
0.77766037
0.86480517
0.94546078
1.0173238
1.0781932
1.1259882
1.1586367
1.1742865
1.1709979
1.1451912
1.0920499
1.0056525
0.88397007
0.6958413
0.38029164
-0.0052036082
-0.33811586
-0.58667114
-0.80529603
-1.0329676
-1.2680873
-1.498077
-1.7077131
-1.88867
-2.0328438
-2.1424029
-2.2279815
-2.3006283
-2.373931
-2.4583174
-2.5709936
-2.7225411
-2.9110866
-3.1237117
-3.3394621
-3.5340509
-3.6859761
-3.7798978
-3.8088817
-3.7702399
-3.6729596
-3.6023821
-3.5565347
-3.5251765
-3.5054595
-3.477697
-3.4436808
-3.4093062
-3.3788773
-3.3562933
-3.3445119
-3.3457417
-3.3610711
-3.3903853
-3.4326526
-3.4860401
-3.5480942
-3.6160178
-3.6869599
-3.7581862
-3.827266
-3.8921871
-3.95138
-4.0038567
-4.0483922
-4.0858635
-4.116077
-4.1394967
-4.156878
-4.1690166
-4.1768327
-4.1812208
-4.1830778
-4.1832564
-4.182506
-4.1813579
-4.1802533
-4.1810989
-4.1819825
-0.33627401
-0.32964465
-0.3202049
-0.31018078
-0.29696143
-0.28039149
-0.26000165
-0.2350297
-0.20470781
-0.16823143
-0.12497012
-0.073981285
-0.015000716
0.052418953
0.12826551
0.21235703
0.30411319
0.40246138
0.5058513
0.61246796
0.72012725
0.82636702
0.92846745
1.0236693
1.1092732
1.1826813
1.2415338
1.2835489
1.3067273
1.3093024
1.2878157
1.2360607
1.1447135
1.0213418
0.84391692
0.45446134
-0.032053177
-0.45622872
-0.68251346
-0.86956703
-1.1004558
-1.3634236
-1.6258449
-1.8556761
-2.0461027
-2.1850099
-2.2753314
-2.3374965
-2.3860464
-2.4350956
-2.4966089
-2.599618
-2.7652765
-2.9900683
-3.2553219
-3.530489
-3.7787328
-3.9678696
-4.0763805
-4.1015529
-4.0235398
-3.8904259
-3.8137698
-3.7671993
-3.7093176
-3.6741233
-3.6233975
-3.5578922
-3.4915973
-3.433174
-3.38802
-3.3589919
-3.3484327
-3.3572859
-3.384987
-3.4298542
-3.4891846
-3.5595549
-3.6371875
-3.7182225
-3.7990984
-3.8767806
-3.9487722
-4.013173
-4.0687108
-4.1151224
-4.1524517
-4.1810886
-4.2017517
-4.2154416
-4.2232545
-4.2263777
-4.2259291
-4.2230182
-4.218672
-4.2137964
-4.2090384
-4.2050077
-4.2034823
-4.2026121
-0.37186427
-0.36699739
-0.35965791
-0.35187812
-0.34130063
-0.3274911
-0.30983942
-0.28741928
-0.25920034
-0.22418819
-0.18142222
-0.1299029
-0.068983018
0.0022047736
0.083577547
0.17527635
0.27668013
0.38670583
0.50364083
0.6252758
0.74899751
0.87188379
0.99068086
1.1019543
1.202388
1.2888073
1.3583989
1.4084926
1.437019
1.4431723
1.4195746
1.3459859
1.2114337
1.0552324
1.2281794
2.0223394
1.6302093
-0.34328037
-0.82331693
-0.9266077
-1.1647398
-1.4883372
-1.8105344
-2.0614989
-2.2487618
-2.3754863
-2.434526
-2.4653753
-2.4859664
-2.502752
-2.5289748
-2.6043256
-2.7839754
-3.0585962
-3.4002469
-3.7639471
-4.0912472
-4.3338893
-4.4662626
-4.5048533
-4.3412342
-3.9141679
-3.3269794
-3.6336609
-3.9631298
-4.0183403
-3.8662158
-3.7207596
-3.5990373
-3.5005427
-3.4246379
-3.3722748
-3.3461397
-3.3468041
-3.3729423
-3.4218074
-3.4894291
-3.5709942
-3.6613081
-3.7552806
-3.848318
-3.9364933
-4.0166729
-4.0868602
-4.1459095
-4.1935089
-4.2299302
-4.2559067
-4.2725384
-4.2811813
-4.2832791
-4.280338
-4.2737865
-4.2649427
-4.2550582
-4.2451817
-4.2360794
-4.2285242
-4.2242149
-4.2213341
-0.40875922
-0.40597223
-0.40114393
-0.39623819
-0.38907808
-0.3789912
-0.36515168
-0.34642072
-0.32156463
-0.28930264
-0.24830041
-0.19729623
-0.13516347
-0.060989895
0.025164626
0.12458602
0.23619249
0.35884412
0.49068685
0.62909618
0.77097602
0.91271952
1.0503145
1.1795066
1.2960975
1.3960528
1.4756812
1.531253
1.560105
1.5588051
1.5074315
1.3866115
1.2163887
1.1987187
3.6616387
3.353042
3.1066064
2.8595805
-0.90901351
-0.92278083
-1.2029946
-1.635
-2.077264
-2.3590192
-2.5280203
-2.6417296
-2.6546243
-2.6351638
-2.6333566
-2.6245632
-2.5784782
-2.5857825
-2.7716928
-3.1109733
-3.5615611
-4.0616794
-4.5071668
-4.8241633
-5.0068071
-5.1415782
-4.8758482
-4.2087074
-3.7666867
-3.4617775
-3.2416793
-4.3701343
-4.2342147
-3.9682341
-3.7431343
-3.5813605
-3.4634709
-3.3803923
-3.3345851
-3.3256818
-3.3509786
-3.4062437
-3.4856977
-3.5825148
-3.6896112
-3.80028
-3.9086509
-4.0093331
-4.0992358
-4.1758996
-4.238267
-4.2862525
-4.3205279
-4.3422986
-4.3531902
-4.3550002
-4.3496352
-4.3389616
-4.3247612
-4.3086036
-4.2919677
-4.2760741
-4.2617771
-4.2500381
-4.2424241
-4.2373008
-0.4462958
-0.44596237
-0.44415712
-0.44289789
-0.4401111
-0.43486242
-0.4261286
-0.41256856
-0.39264966
-0.364752
-0.32718339
-0.27825405
-0.21641876
-0.14039549
-0.049334251
0.057021165
0.17921489
0.31549846
0.4637811
0.62107998
0.78365738
0.94704457
1.1062485
1.255889
1.3905402
1.5050611
1.5945056
1.6532399
1.6772569
1.6619656
1.572871
1.379072
1.202394
2.0034572
4.1388203
3.1070207
2.6510016
2.0628121
-0.95973172
-0.803471
-1.1912004
-1.7060616
-2.4510912
-2.8431213
-3.0251141
-3.0699847
-2.9841066
-2.8596552
-2.8772086
-2.9236534
-2.711502
-2.6222238
-2.7999005
-3.2142246
-3.8103454
-4.4992634
-5.1067166
-5.5054801
-5.7449595
-6.0321213
-5.557322
-5.0002796
-4.8427949
-4.5467486
-4.027794
-4.6965714
-4.7096659
-4.2742204
-3.9054166
-3.6646765
-3.4957484
-3.3754622
-3.3068192
-3.2879617
-3.3143889
-3.3800279
-3.4765709
-3.5944336
-3.7239684
-3.8562938
-3.9837208
-4.0999262
-4.200927
-4.2844096
-4.3495187
-4.3965896
-4.4269057
-4.4423473
-4.4451917
-4.4378865
-4.4228513
-4.4024038
-4.3786958
-4.3536195
-4.3288389
-4.305733
-4.2852954
-4.2685872
-4.2570414
-4.2492291
-0.48366916
-0.48614712
-0.48804455
-0.49133495
-0.49401983
-0.4949311
-0.49289329
-0.48630546
-0.47329848
-0.45185564
-0.41983155
-0.37505922
-0.31544674
-0.23911947
-0.14462331
-0.031139285
0.10143725
0.25232685
0.41888794
0.59769051
0.78409815
0.97267194
1.1571901
1.3308961
1.4867898
1.6182175
1.7187918
1.7809175
1.7986843
1.7667279
1.6407107
1.3860785
1.0721948
0.8907121
1.811059
2.1313571
0.32850997
-1.4155288
-0.93044096
-1.2247247
-1.2652899
-1.2591824
-2.1355118
-3.8412222
-3.9117887
-3.7307879
-3.3379343
-3.0245898
-3.2405527
-3.5943904
-3.2021876
-2.8071259
-2.8762696
-3.3657759
-4.2015504
-5.237774
-6.0426999
-6.4669699
-6.6621239
-6.9669714
-6.2958912
-5.5630938
-6.0209226
-5.9028358
-6.2315588
-5.968428
-5.3027526
-4.6138155
-4.0786445
-3.7432994
-3.5098333
-3.3459588
-3.2526304
-3.2250207
-3.256696
-3.3391545
-3.4605742
-3.6077421
-3.7674929
-3.9279571
-4.0792591
-4.2139905
-4.3275616
-4.4178084
-4.4844121
-4.5284684
-4.5521739
-4.5583713
-4.5501566
-4.5307832
-4.5033309
-4.470636
-4.4352535
-4.3993789
-4.3648845
-4.333271
-4.30563
-4.2830673
-4.2668146
-4.2553262
-0.51970166
-0.52552833
-0.53195904
-0.54078502
-0.55022391
-0.55889241
-0.5654266
-0.56795842
-0.56426672
-0.55189633
-0.52818727
-0.49035779
-0.43556685
-0.36118602
-0.2650048
-0.14557686
-0.0023755708
0.16383617
0.35057744
0.55401351
0.76836515
0.98684469
1.2017059
1.4045629
1.5866316
1.7393559
1.8548569
1.9245872
1.9417051
1.9044956
1.7837472
1.5674419
1.3498884
1.0282436
0.45625548
-0.6095242
-1.1841141
-1.6531219
-2.6861413
-2.4741837
-0.80609806
0.70830428
-2.4472182
-6.6738704
-6.4130585
-4.861986
-3.4960716
-2.7006447
-3.6597209
-4.7835101
-4.5087261
-3.01876
-2.6899357
-3.3032111
-4.5346355
-6.3435525
-7.5119009
-7.8118554
-7.8128174
-7.8992364
-6.2297804
-6.1825205
-6.4260273
-6.8771711
-7.1754863
-6.9419614
-5.9542713
-4.9408417
-4.2253804
-3.7865539
-3.4829874
-3.2739886
-3.1571506
-3.1249642
-3.1693527
-3.2786579
-3.4365064
-3.6247207
-3.8252134
-4.0220996
-4.2031417
-4.3596997
-4.4869071
-4.5830579
-4.6488539
-4.6866479
-4.6999678
-4.6928949
-4.669715
-4.634544
-4.5913199
-4.5434283
-4.4938419
-4.4450283
-4.3990546
-4.3575447
-4.3216439
-4.2923431
-4.2707515
-4.2549893
-0.55289717
-0.56298625
-0.57478826
-0.59033088
-0.607984
-0.62621481
-0.64346781
-0.65763219
-0.66616134
-0.66614729
-0.65431872
-0.62705732
-0.58062192
-0.51144357
-0.41628207
-0.29273321
-0.13956597
0.042829822
0.25202148
0.48364901
0.73107471
0.98564721
1.2377173
1.4768484
1.6921531
1.8729266
2.0096945
2.0936411
2.1179322
2.0854329
1.9856612
1.8052143
1.6153995
1.3515371
0.79311169
-0.1176676
-1.3332676
-3.5871529
-3.6364609
-3.5272773
-4.859543
-5.6739336
-8.6724948
-11.489092
-10.41608
-5.9119925
-3.1725828
-1.8374436
-3.2281228
-6.5741049
-6.2748428
-3.160203
-1.9009679
-2.9315507
-5.2616003
-8.262041
-9.9584559
-9.6453786
-8.8769268
-8.3947418
-6.9164342
-6.6407713
-6.9568982
-6.9691876
-7.0136462
-6.7110088
-5.8151409
-4.8837316
-4.1901665
-3.7206479
-3.3740708
-3.1325539
-3.0000408
-2.972207
-3.0414301
-3.1928609
-3.4041537
-3.6499978
-3.9049705
-4.1490022
-4.3666867
-4.5482773
-4.6892132
-4.7890198
-4.8501334
-4.876816
-4.8744225
-4.8487041
-4.8054444
-4.7498847
-4.6867662
-4.6201716
-4.553473
-4.489343
-4.4300857
-4.3772105
-4.3320448
-4.2955151
-4.2681503
-4.2480391
-0.58226813
-0.59724071
-0.61531422
-0.63879106
-0.66626559
-0.69604654
-0.72646622
-0.75522819
-0.77948546
-0.79584476
-0.80028482
-0.78827813
-0.75505268
-0.69568356
-0.60553862
-0.48084359
-0.31923939
-0.12032
0.11372739
0.37801623
0.66480684
0.96340238
1.2617902
1.5468979
1.8050852
2.0232038
2.1898452
2.295685
2.3340119
2.3101971
2.231261
2.0838401
1.8864866
1.6085201
1.1153554
0.32419696
-1.1445206
-3.2778887
-3.427556
-6.830002
-6.4696535
-5.612776
-10.051178
-15.374344
-14.377389
-6.5381309
-0.71864739
0.90263882
-2.8800134
-9.344746
-8.324626
-2.5482322
0.56698737
-1.6225656
-7.2971529
-12.322684
-13.76467
-11.956483
-9.9397301
-9.0128376
-8.6598009
-7.7731711
-6.9243592
-6.3211104
-5.9844946
-5.582619
-5.0692356
-4.4679791
-3.9482284
-3.5163982
-3.1567389
-2.8974648
-2.7596244
-2.7488933
-2.860817
-3.0766794
-3.3650835
-3.6920725
-4.0197377
-4.3240981
-4.5859295
-4.7949229
-4.9479426
-5.0469466
-5.0971605
-5.1056135
-5.0801414
-5.0286742
-4.9587543
-4.8770145
-4.7891095
-4.6998038
-4.6127041
-4.530689
-4.45662
-4.3914678
-4.3357949
-4.2908108
-4.2570431
-4.2318772
-0.60631726
-0.62672542
-0.65198111
-0.68466184
-0.72359171
-0.76709287
-0.81346848
-0.86027517
-0.90437382
-0.94188454
-0.96807265
-0.97748707
-0.96394034
-0.92076869
-0.8415239
-0.72047275
-0.55335781
-0.33843111
-0.077255824
0.22490926
0.55883333
0.91170493
1.2684432
1.6124351
1.9264712
2.1942058
2.4015469
2.5376789
2.5955793
2.5810475
2.5161064
2.407442
2.2472034
2.0250501
1.7260221
1.2368388
0.29745154
-1.420675
-6.287352
-10.382829
-9.9169431
-8.1285784
-10.778758
-14.294794
-16.931628
-5.9748763
4.8244276
6.8182958
0.027376277
-9.5827187
-7.7950929
2.8823028
8.2800001