/*--------------------------------*- C++ -*----------------------------------*\
  =========                 |
  \\      /  F ield         | OpenFOAM: The Open Source CFD Toolbox
   \\    /   O peration     | Website:  https://openfoam.org
    \\  /    A nd           | Version:  9
     \\/     M anipulation  |
\*---------------------------------------------------------------------------*/
FoamFile
{
    format      ascii;
    class       surfaceScalarField;
    location    "0.38";
    object      phi;
}
// * * * * * * * * * * * * * * * * * * * * * * * * * * * * * * * * * * * * * //

dimensions      [0 3 -1 0 0 0 0];

internalField   nonuniform List<scalar> 
19800
(
-4.0931063e-05
5.5201364e-05
-7.9153592e-05
5.701671e-05
-0.00011802033
5.847653e-05
-0.00015789884
6.0600054e-05
-0.00019870187
6.2583603e-05
-0.00024051953
6.4944678e-05
-0.00028338551
6.7419557e-05
-0.00032730157
6.9990812e-05
-0.00037228424
7.2622749e-05
-0.00041829518
7.5241176e-05
-0.0004652478
7.7796861e-05
-0.00051297304
8.0166191e-05
-0.00056135849
8.2369117e-05
-0.00061016393
8.4191739e-05
-0.00065917559
8.562098e-05
-0.00070811744
8.6530073e-05
-0.00075663488
8.6809517e-05
-0.0008043188
8.6363265e-05
-0.00085074565
8.5090743e-05
-0.00089549644
8.2926023e-05
-0.00093802206
7.9738252e-05
-0.00097782968
7.5540803e-05
-0.0010143983
7.0389245e-05
-0.001047132
6.4003428e-05
-0.0010754023
5.6606599e-05
-0.0010984672
4.8184973e-05
-0.001115294
3.8862646e-05
-0.0011257015
2.8351135e-05
-0.001129856
1.6357387e-05
-0.0011280269
3.3001747e-06
-0.0011210547
-9.5825477e-06
-0.0011064635
-2.2666029e-05
-0.0010844756
-3.5383724e-05
-0.0010552098
-4.7589187e-05
-0.0010189734
-5.9094189e-05
-0.00097607906
-6.9827787e-05
-0.00092673208
-7.9711016e-05
-0.00087128412
-8.8148896e-05
-0.00081016779
-9.473661e-05
-0.00074372271
-0.00010049514
-0.0006722904
-0.00010496963
-0.00059595582
-0.00010795095
-0.00051520798
-0.00010955498
-0.00043058204
-0.00010972549
-0.00034250726
-0.00010912086
-0.00025159171
-0.00010783014
-0.00015848117
-0.00010629512
-6.3621702e-05
-0.00010469517
3.2178669e-05
-0.00010289597
0.0001281376
-0.00010100477
0.00022302173
-9.9384433e-05
0.00031665161
-9.7557353e-05
0.00040792703
-9.5687458e-05
0.00049641126
-9.3378674e-05
0.00058102271
-9.1141734e-05
0.0006611641
-8.8298396e-05
0.00073628114
-8.5138659e-05
0.00080558759
-8.0870461e-05
0.00086883499
-7.5693769e-05
0.00092563602
-6.9684691e-05
0.00097566631
-6.1912624e-05
0.001018728
-5.3593095e-05
0.0010543488
-4.3596698e-05
0.0010824636
-3.3036648e-05
0.0011024559
-2.079997e-05
0.0011164143
-7.0323061e-06
0.001125717
6.0014124e-06
0.0011295252
1.8198257e-05
0.0011258673
3.0657414e-05
0.0011148305
4.1707305e-05
0.0010969548
5.1304219e-05
0.0010722349
5.9270012e-05
0.001041919
6.6496916e-05
0.0010070505
7.2817698e-05
0.0009683533
7.8221595e-05
0.00092646057
8.2631839e-05
0.000881992
8.5968335e-05
0.00083555211
8.8233586e-05
0.00078766493
8.9452826e-05
0.00073888017
8.967332e-05
0.00068968153
8.8997434e-05
0.00064046908
8.7476663e-05
0.00059158361
8.5261272e-05
0.00054343056
8.2445099e-05
0.00049622851
7.9209936e-05
0.00045023648
7.5557913e-05
0.00040567706
7.1636141e-05
0.00036261327
6.7519871e-05
0.00032116188
6.3356616e-05
0.00028138903
5.9182202e-05
0.00024327277
5.5171727e-05
0.00020680542
5.126559e-05
0.0001719259
4.7623171e-05
0.00013856483
4.4187753e-05
0.00010660425
4.1068102e-05
7.5940372e-05
3.8261312e-05
4.6496127e-05
3.5814879e-05
1.8107263e-05
3.3559103e-05
-9.4389045e-06
3.1908649e-05
2.9304612e-05
-3.9489331e-05
9.1854366e-05
-7.7215546e-05
9.4753807e-05
-0.00011576232
9.7023731e-05
-0.00015526574
0.00010011259
-0.00019582088
0.000103144
-0.00023744528
0.00010657142
-0.0002801609
0.00011013854
-0.00032402909
0.00011385875
-0.00036897621
0.00011757825
-0.00041498816
0.00012125672
-0.0004620068
0.00012482065
-0.00050992046
0.00012808596
-0.00055861508
0.00013106371
-0.00060786769
0.00013344683
-0.00065741177
0.00013516549
-0.00070695304
0.00013606625
-0.0007561814
0.00013603558
-0.00080473848
0.0001349175
-0.00085220259
0.00013254846
-0.00089799737
0.00012871825
-0.00094170099
0.00012344191
-0.00098272009
0.00011655701
-0.0010204019
0.000108069
-0.0010541756
9.7776646e-05
-0.0010833983
8.5825016e-05
-0.0011074634
7.2244418e-05
-0.0011256337
5.7032754e-05
-0.0011375156
4.0235107e-05
-0.0011430303
2.1870516e-05
-0.0011422556
2.5231079e-06
-0.0011342932
-1.7543934e-05
-0.0011190159
-3.7942663e-05
-0.0010962597
-5.8142633e-05
-0.0010661433
-7.7706544e-05
-0.0010287523
-9.6482016e-05
-0.00098443156
-0.00011415017
-0.00093359903
-0.00013055334
-0.0008766248
-0.0001451279
-0.00081360114
-0.00015775731
-0.00074541212
-0.00016868486
-0.00067277873
-0.00017760427
-0.00059563014
-0.00018509938
-0.00051428695
-0.0001909009
-0.00042907766
-0.0001949323
-0.00034058491
-0.00019761133
-0.00024927362
-0.00019914348
-0.00015586232
-0.00019970332
-6.1057006e-05
-0.00019949873
3.4478672e-05
-0.00019843214
0.00013020036
-0.00019673087
0.00022518743
-0.0001943783
0.00031870602
-0.00019107646
0.00041007492
-0.00018705467
0.00049853028
-0.00018183264
0.00058331839
-0.00017593403
0.00066383597
-0.00016881924
0.00073940925
-0.00016071092
0.00080939327
-0.00015085409
0.00087360792
-0.00013990843
0.00093140347
-0.00012748386
0.00098287398
-0.00011338498
0.0010272285
-9.7949933e-05
0.0010643655
-8.0734654e-05
0.0010938845
-6.2556201e-05
0.0011160908
-4.3003637e-05
0.0011317283
-2.2671329e-05
0.0011399103
-2.1834646e-06
0.0011406793
1.7429853e-05
0.0011348112
3.6523138e-05
0.0011222344
5.4286163e-05
0.0011032298
7.0311044e-05
0.0010777932
8.4708899e-05
0.0010469248
9.7365248e-05
0.0010112408
0.0001085003
0.00097155002
0.00011791198
0.00092857168
0.00012561215
0.00088300013
0.00013154101
0.00083545932
0.00013577208
0.00078659851
0.00013831127
0.00073685397
0.00013941851
0.00068678765
0.00013906363
0.00063681932
0.00013744443
0.00058738836
0.00013469405
0.00053871301
0.00013112185
0.00049121303
0.00012671222
0.00044505587
0.00012171918
0.00040036313
0.00011633126
0.00035724847
0.0001106373
0.00031583391
0.00010477317
0.00027618408
9.8830469e-05
0.00023831503
9.303989e-05
0.00020213079
8.744805e-05
0.00016762154
8.2130167e-05
0.00013464978
7.7157438e-05
0.00010312346
7.2593003e-05
7.2911753e-05
6.8471968e-05
4.3911016e-05
6.481569e-05
1.5888193e-05
6.1580827e-05
-1.1186241e-05
5.8981357e-05
5.541841e-05
-3.7341328e-05
0.0001280279
-7.4673297e-05
0.00013208744
-0.00011296251
0.00013530715
-0.00015219445
0.00013934354
-0.00019259382
0.00014354254
-0.00023401569
0.00014799607
-0.0002766979
0.0001528162
-0.00032047234
0.00015763383
-0.00036542855
0.000162531
-0.00041174151
0.00016756873
-0.00045910982
0.0001721919
-0.00050755825
0.00017653268
-0.00055667903
0.00018018496
-0.00060651776
0.00018328594
-0.00065685852
0.0001855025
-0.00070748514
0.00018669258
-0.00075792517
0.00018647651
-0.00080779846
0.0001847874
-0.00085653142
0.00018127934
-0.00090396473
0.00017615174
-0.00094922436
0.00016869906
-0.00099190098
0.00015923156
-0.0010312968
0.00014746572
-0.0010668914
0.00013336942
-0.0010979126
0.00011684127
-0.001123682
9.8012345e-05
-0.0011435419
7.6894354e-05
-0.0011570679
5.3760571e-05
-0.001163972
2.8772751e-05
-0.001163536
2.0876834e-06
-0.0011555249
-2.5554231e-05
-0.0011399354
-5.3533495e-05
-0.0011167158
-8.1363136e-05
-0.0010855925
-0.00010882852
-0.0010468681
-0.00013520422
-0.0010009607
-0.00016005947
-0.00094818848
-0.00018333346
-0.00088897392
-0.00020434605
-0.00082372686
-0.0002229991
-0.00075321817
-0.00023919264
-0.00067776405
-0.00025306052
-0.00059809487
-0.00026476481
-0.00051471944
-0.00027427565
-0.00042800676
-0.00028164578
-0.00033845301
-0.00028716517
-0.00024665941
-0.0002909398
-0.00015286082
-0.00029349989
-5.8134044e-05
-0.00029422624
3.7326723e-05
-0.00029389705
0.00013286055
-0.00029226767
0.0002276264
-0.00028914659
0.00032111207
-0.00028456052
0.00041268237
-0.00027862358
0.00050145643
-0.00027060506
0.0005868114
-0.00026129111
0.00066847878
-0.00025049015
0.00074529322
-0.00023752693
0.00081733536
-0.00022289836
0.00088349128
-0.0002060651
0.00094348818
-0.00018748167
0.00099686647
-0.00016676151
0.0010431716
-0.00014425652
0.0010821624
-0.00011972288
0.0011133245
-9.3717153e-05
0.0011367194
-6.6398726e-05
0.0011525565
-3.8504926e-05
0.0011611202
-1.0745093e-05
0.0011612605
1.7290281e-05
0.0011540812
4.3703153e-05
0.0011398757
6.8494042e-05
0.0011190131
9.1166175e-05
0.0010918982
0.0001118229
0.0010591742
0.00013009402
0.0010216831
0.00014599394
0.00098019478
0.00015940202
0.00093537739
0.0001704282
0.00088799902
0.0001789172
0.00083884683
0.00018492352
0.00078830928
0.0001888464
0.00073716124
0.00019056509
0.00068583748
0.0001903893
0.00063485673
0.00018842496
0.00058431376
0.0001852371
0.00053500134
0.00018043394
0.00048676638
0.00017494901
0.00044000755
0.00016848021
0.00039508839
0.00016125322
0.00035183087
0.00015389518
0.00031041399
0.00014619118
0.00027082481
0.00013841821
0.00023307924
0.00013078559
0.00019709523
0.00012343154
0.00016288772
0.00011633727
0.00013029133
0.0001097524
9.9138173e-05
0.00010374499
6.9272292e-05
9.8338453e-05
4.0778304e-05
9.3307139e-05
1.3171621e-05
8.9189927e-05
-1.3496257e-05
8.5651504e-05
8.1345641e-05
-3.4286683e-05
0.00016397957
-7.1248604e-05
0.00016906082
-0.00010919767
0.0001732561
-0.00014811678
0.00017826432
-0.00018813474
0.0001835652
-0.00022941962
0.00018928219
-0.00027189078
0.00019529314
-0.00031555532
0.00020129918
-0.00036080167
0.00020777821
-0.00040719893
0.00021397061
-0.00045486086
0.00021985426
-0.00050357836
0.00022525132
-0.00055357798
0.0002301854
-0.00060447939
0.00023418306
-0.00065598797
0.000237009
-0.00070771651
0.00023842191
-0.00075951312
0.00023827065
-0.00081105455
0.00023632668
-0.00086183701
0.00023206245
-0.00091112194
0.00022543552
-0.00095860546
0.00021618109
-0.0010035586
0.00020418654
-0.0010452398
0.00018914757
-0.0010830894
0.00017121554
-0.0011162432
0.000149993
-0.0011441564
0.00012592666
-0.0011660525
9.8789999e-05
-0.0011813267
6.90327e-05
-0.0011893626
3.6809461e-05
-0.0011899192
2.6461997e-06
-0.0011826691
-3.2806143e-05
-0.0011673049
-6.8899992e-05
-0.001143458
-0.00010520692
-0.0011115378
-0.00014074508
-0.0010715968
-0.00017514665
-0.0010239088
-0.0002077503
-0.00096935284
-0.00023789202
-0.00090824293
-0.00026545691
-0.00084117136
-0.00029006544
-0.0007684369
-0.00031192417
-0.00069106708
-0.00033043302
-0.00060951186
-0.00034631804
-0.00052406255
-0.00035972439
-0.00043551594
-0.00037019453
-0.00034422887
-0.00037845188
-0.00025058155
-0.00038458979
-0.00015513678
-0.00038894493
-5.8307794e-05
-0.00039105726
3.8912244e-05
-0.00039112194
0.00013597102
-0.00038932714
0.00023239176
-0.00038556553
0.00032753195
-0.00037969739
0.00042101814
-0.00037211013
0.00051195733
-0.00036154612
0.00059944587
-0.00034878378
0.00068294429
-0.00033399244
0.00076187382
-0.00031645709
0.00083570131
-0.00029672577
0.0009038257
-0.00027418995
0.00096569149
-0.00024934987
0.0010206627
-0.00022172804
0.0010683991
-0.00019199135
0.0011085515
-0.00015987329
0.0011405926
-0.0001257556
0.0011645158
-9.0322674e-05
0.0011800692
-5.4057757e-05
0.001187079
-1.7751012e-05
0.0011865481
1.7820737e-05
0.0011781357
5.2111327e-05
0.0011621804
8.4448621e-05
0.0011391237
0.00011422922
0.0011096939
0.0001412548
0.0010745815
0.00016520799
0.0010346733
0.00018590485
0.00099079208
0.00020327908
0.0009435547
0.0002176645
0.00089393957
0.00022853602
0.00084244542
0.00023641683
0.00079000501
0.00024128529
0.00073698198
0.00024358816
0.00068394919
0.00024342063
0.00063127633
0.00024109392
0.00057983174
0.00023667991
0.00052921588
0.000231048
0.00048024295
0.00022391973
0.00043315054
0.00021557224
0.00038759273
0.00020681087
0.00034406278
0.00019742276
0.00030254739
0.00018770583
0.00026303841
0.00017792638
0.0002256274
0.00016819566
0.00019013948
0.00015891887
0.00015635732
0.00015011979
0.00012422541
0.00014188429
9.3784764e-05
0.00013418338
6.4770955e-05
0.00012735083
3.6718231e-05
0.0001213596
9.7858918e-06
0.00011612272
-1.6230998e-05
0.00011167089
0.00010665203
-3.0148008e-05
0.00019982762
-6.6827368e-05
0.00020574797
-0.00010429706
0.00021072596
-0.00014283438
0.00021680654
-0.00018248518
0.00022321338
-0.00022339431
0.00023019442
-0.00026563709
0.00023753539
-0.00030945604
0.00024511751
-0.00035457946
0.00025290536
-0.00040119117
0.0002605828
-0.00044930587
0.00026797004
-0.00049887341
0.00027482079
-0.00054969035
0.00028099971
-0.00060155888
0.00028605025
-0.00065442549
0.00028987785
-0.00070790465
0.00029190066
-0.0007617204
0.000292085
-0.00081530146
0.00028990875
-0.00086831553
0.00028507611
-0.00092034825
0.00027746669
-0.00097054368
0.00026637838
-0.0010183355
0.00025198074
-0.0010631234
0.00023393383
-0.0011039582
0.00021204828
-0.0011403085
0.00018634425
-0.0011710765
0.00015669477
-0.0011956275
0.00012333862
-0.0012132114
8.6616287e-05
-0.0012232133
4.6814029e-05
-0.0012251244
4.5577034e-06
-0.0012184953
-3.9438641e-05
-0.0012030346
-8.4361352e-05
-0.0011785188
-0.00012971685
-0.0011451598
-0.00017410012
-0.001103342
-0.00021696856
-0.0010534079
-0.0002576871
-0.00099615848
-0.00029513816
-0.00093219184
-0.00032942211
-0.00086218143
-0.00036007482
-0.0007869604
-0.00038714359
-0.00070684553
-0.00041054989
-0.00062264145
-0.00043052119
-0.00053506312
-0.00044730251
-0.00044429599
-0.000460965
-0.00035086497
-0.000471882
-0.00025523241
-0.00048022309
-0.00015796566
-0.00048621133
-5.941077e-05
-0.00048961188
3.9916438e-05
-0.0004904527
0.00013954596
-0.00048895829
0.00023881273
-0.00048483162
0.0003364665
-0.00047734958
0.00043180568
-0.00046745216
0.00052490754
-0.00045465163
0.00061494258
-0.00043882112
0.00070061155
-0.00041966131
0.0007818768
-0.00039772173
0.00085804682
-0.00037289744
0.00092853997
-0.00034468316
0.00099261083
-0.00031342106
0.001050047
-0.00027916217
0.0010998907
-0.0002418356
0.0011418807
-0.00020186357
0.0011752408
-0.00015911476
0.0011999732
-0.00011505295
0.0012157114
-6.9792012e-05
0.0012224019
-2.4443673e-05
0.0012204518
1.9771899e-05
0.0012100549
6.2512807e-05
0.0011916649
0.00010283989
0.0011658449
0.00014005024
0.0011333641
0.00017373488
0.0010951217
0.00020344975
0.0010519122
0.00022911379
0.001004541
0.00025064919
0.00095434483
0.00026786117
0.00090159386
0.00028128772
0.00084737071
0.00029064147
0.00079213288
0.00029652608
0.00073669399
0.00029902742
0.00068154891
0.00029856492
0.00062717231
0.00029547282
0.00057383173
0.00029002124
0.00052215744
0.00028272279
0.00047221761
0.00027386005
0.00042409125
0.00026370126
0.00037817362
0.00025272987
0.00033445678
0.00024114098
0.00029297232
0.00022919313
0.00025368115
0.0002172187
0.00021648138
0.00020539539
0.00018136878
0.00019403373
0.00014814932
0.00018334039
0.00011680091
0.00017323243
8.7002367e-05
0.00016398208
5.8669031e-05
0.00015568587
3.1498123e-05
0.00014853302
5.4543196e-06
0.00014216929
-1.9800146e-05
0.00013692646
0.000131233
-2.5446388e-05
0.00023499833
-6.1486491e-05
0.0002417922
-9.8368765e-05
0.00024761154
-0.00013628577
0.00025472468
-0.00017552269
0.00026245312
-0.00021606179
0.00027073205
-0.00025808044
0.00027955188
-0.00030168441
0.00028872391
-0.00034692497
0.00029814612
-0.00039387076
0.00030752928
-0.0004424845
0.00031658572
-0.0004928478
0.00032518174
-0.00054466643
0.0003328167
-0.00059802347
0.00033941008
-0.00065243265
0.00034428845
-0.0007079318
0.00034739992
-0.00076392028
0.00034807578
-0.00082014356
0.00034613304
-0.00087613961
0.00034107063
-0.00093119147
0.00033251943
-0.00098488156
0.00032007117
-0.0010363807
0.0003034796
-0.0010848998
0.0002824514
-0.0011296858
0.00025683515
-0.0011696635
0.00022632257
-0.0012041878
0.00019121694
-0.0012321484
0.00015129845
-0.0012527645
0.00010723508
-0.0012652292
5.9280192e-05
-0.0012688532
8.1795206e-06
-0.0012630286
-4.5265009e-05
-0.0012474473
-9.9940946e-05
-0.0012222587
-0.00015490167
-0.0011873638
-0.00020899357
-0.001142831
-0.00026150441
-0.0010902143
-0.00031030425
-0.0010296181
-0.00035572918
-0.00096208196
-0.00039695809
-0.00088846305
-0.00043369822
-0.00080962934
-0.00046597716
-0.00072623446
-0.00049394334
-0.00063893354
-0.00051781999
-0.00054825736
-0.00053797865
-0.00045472768
-0.0005544985
-0.00035874323
-0.00056786358
-0.00026055057
-0.00057841287
-0.00016107763
-0.00058568532
-6.0075484e-05
-0.0005906155
4.1861945e-05
-0.00059239174
0.0001440131
-0.00059110878
0.0002455166
-0.00058633544
0.00034607339
-0.00057790874
0.00044464113
-0.00056602372
0.00054065759
-0.000550668
0.00063325644
-0.00053141855
0.00072206992
-0.00050847641
0.00080626614
-0.00048192013
0.00088549675
-0.00045212911
0.00095894001
-0.00041812593
0.0010259346
-0.00038041184
0.0010864445
-0.00033967049
0.0011390994
-0.00029449484
0.0011833452
-0.00024610845
0.001218549
-0.00019431362
0.0012442682
-0.00014077278
0.0012602303
-8.574722e-05
0.001266493
-3.0707949e-05
0.0012628485
2.3417898e-05
0.001250025
7.5333948e-05
0.0012285832
0.00012428446
0.0011992429
0.00016939555
0.0011629187
0.00021005641
0.0011205694
0.00024579829
0.0010732287
0.00027645477
0.0010219708
0.00030190504
0.0009675473
0.00032228446
0.00091107926
0.00033775685
0.00085313709
0.00034858256
0.00079469748
0.00035496329
0.00073621847
0.00035750516
0.00067845662
0.00035632508
0.00062167254
0.00035225428
0.00056655154
0.00034513976
0.00051325227
0.00033602098
0.00046207425
0.0003250368
0.00041314493
0.0003126298
0.00036664536
0.0002992295
0.00032268618
0.00028509916
0.00028108213
0.00027079613
0.00024197524
0.00025632397
0.00020510582
0.00024226442
0.00017050536
0.00022863328
0.00013806886
0.00021577471
0.00010754511
0.00020375462
7.8716354e-05
0.00019281144
5.1339829e-05
0.00018306353
2.5327875e-05
0.00017454469
2.5023449e-07
0.00016724752
-2.3838146e-05
0.00016101771
0.00015475685
-2.0046595e-05
0.00026922841
-5.5238908e-05
0.00027698877
-9.1347397e-05
0.00028371551
-0.00012862918
0.00029201169
-0.00016722831
0.00030105094
-0.00020731021
0.00031081133
-0.00024895414
0.00032119721
-0.00029238654
0.00033215576
-0.00033757149
0.00034333174
-0.00038480114
0.0003547618
-0.00043402557
0.00036580902
-0.00048509597
0.00037625067
-0.00053817677
0.00038590012
-0.00059291438
0.0003941495
-0.0006493543
0.00040072877
-0.00070706726
0.00040511571
-0.0007658443
0.00040685505
-0.00082520074
0.00040548839
-0.00088461491
0.00040048468
-0.00094362953
0.00039153606
-0.0010014071
0.00037784872
-0.0010572761
0.00035934737
-0.0011104279
0.00033560448
-0.0011597374
0.00030614631
-0.0012045215
0.00027110491
-0.001243459
0.00023015277
-0.0012758288
0.00018367108
-0.001300269
0.00013167865
-0.0013158949
7.4904317e-05
-0.0013217909
1.4072159e-05
-0.0013175075
-4.9547392e-05
-0.0013020978
-0.00011534881
-0.0012758489
-0.00018115236
-0.0012387866
-0.00024605722
-0.0011915898
-0.00030870064
-0.0011349965
-0.00036689677
-0.0010701438
-0.00042058076
-0.00099817615
-0.00046892726
-0.00092013707
-0.00051173989
-0.00083700542
-0.00054910603
-0.00074955599
-0.000581391
-0.00065850295
-0.00060887453
-0.00056447061
-0.00063201127
-0.00046760659
-0.00065136222
-0.00036867935
-0.00066678445
-0.00026781486
-0.00067927242
-0.00016514636
-0.00068835729
-6.138049e-05
-0.00069438573
4.3505725e-05
-0.00069727885
0.00014866073
-0.00069626167
0.00025348186
-0.00069115579
0.00035742238
-0.00068185006
0.00045962145
-0.00066822397
0.00055937929
-0.00065042566
0.00065543556
-0.0006274738
0.00074804536
-0.00060108769
0.00083600344
-0.00056987992
0.00091869637
-0.00053482037
0.00099593829
-0.00049536912
0.0010669581
-0.00045142993
0.0011306879
-0.0004033927
0.0011866696
-0.00035047641
0.0012335535
-0.0002929923
0.0012712667
-0.00023202696
0.0012981887
-0.00016769295
0.001314527
-0.00010208035
0.0013197159
-3.589627e-05
0.0013141811
2.8953086e-05
0.00129841
9.1105305e-05
0.0012731536
0.00014954052
0.001239406
0.00020314175
0.0011983032
0.00025115998
0.0011509389
0.00029316229
0.0010985796
0.00032881172
0.0010422123
0.00035827373
0.00098293037
0.00038156718
0.00092170092
0.00039898466
0.00085954023
0.00041074428
0.00079705161
0.00041745475
0.00073512223
0.00041943429
0.00067416937
0.00041727843
0.00061493854
0.00041148397
0.0005574421
0.00040263441
0.0005022706
0.00039119227
0.00044967501
0.00037763445
0.00039978359
0.0003625219
0.00035269389
0.00034632148
0.00030829527
0.00032949981
0.00026677058
0.00031232174
0.00022778805
0.00029530799
0.00019149748
0.0002785559
0.00015765993
0.00026247078
0.00012605929
0.00024737694
9.659612e-05
0.00023321867
6.8989271e-05
0.00022041985
4.2893074e-05
0.00020916123
1.8180717e-05
0.0001992562
-5.5548785e-06
0.00019098459
-2.8381391e-05
0.00018384803
0.00017703463
-1.3775726e-05
0.00030228361
-4.7971751e-05
0.00031118494
-8.3246003e-05
0.00031899002
-0.00011965237
0.00032841777
-0.00015747815
0.00033887489
-0.00019685766
0.00035019258
-0.00023799273
0.00036233163
-0.00028111519
0.00037527841
-0.00032645198
0.00038867148
-0.00037375921
0.00040206876
-0.00042347431
0.00041552321
-0.00047556428
0.0004283433
-0.00052984513
0.00044018266
-0.00058640176
0.00045070593
-0.0006449484
0.00045927772
-0.00070533974
0.00046550972
-0.00076724641
0.000468761
-0.00083015329
0.00046839442
-0.00089368949
0.0004640221
-0.00095705614
0.00045490258
-0.0010198125
0.00044060361
-0.0010810522
0.00042058827
-0.0011395974
0.00039415235
-0.0011948286
0.00036137693
-0.0012452692
0.00032154346
-0.001289912
0.00027479717
-0.0013274324
0.00022119535
-0.0013565946
0.0001608412
-0.0013761517
9.4457688e-05
-0.0013850176
2.2935586e-05
-0.0013822223
-5.2341753e-05
-0.0013672713
-0.00013030065
-0.0013397142
-0.00020871434
-0.0012997741
-0.00028599921
-0.0012489461
-0.00035952628
-0.0011876418
-0.00042820202
-0.0011175623
-0.00049066363
-0.0010401083
-0.00054638122
-0.00095654282
-0.00059530139
-0.00086821708
-0.00063742647
-0.00077622523
-0.00067338395
-0.00068103092
-0.00070407412
-0.00058300785
-0.00073003335
-0.00048295252
-0.00075141409
-0.00038074429
-0.00076898915
-0.0002766994
-0.00078331386
-0.00017094421
-0.00079411171
-6.375821e-05
-0.00080157148
4.4462121e-05
-0.00080549956
0.0001535333
-0.00080533316
0.00026261052
-0.00080023166
0.00037082927
-0.00079006808
0.00047753559
-0.00077493127
0.00058121134
-0.0007541041
0.00068200092
-0.00072826265
0.00077858129
-0.00069766415
0.00087060925
-0.00066190465
0.00095742532
-0.00062163383
0.0010391122
-0.0005770538
0.0011144361
-0.00052675804
0.0011824718
-0.00047142718
0.001243039
-0.00041104599
0.0012940241
-0.00034397205
0.0013344127
-0.00027241624
0.0013633282
-0.00019660667
0.0013798328
-0.00011858262
0.001383692
-3.9751838e-05
0.0013756884
3.6953935e-05
0.0013561686
0.00011062188
0.0013261557
0.00017955177
0.0012869333
0.00024236312
0.0012398954
0.000298197
0.0011863864
0.00034666928
0.0011277525
0.00038744466
0.0010652842
0.00042074109
0.001000165
0.00044668411
0.00093348271
0.00046566681
0.00086618163
0.00047804575
0.00079898127
0.00048465425
0.0007328991
0.00048551569
0.00066836371
0.00048181486
0.00060589089
0.00047395772
0.00054592223
0.00046260342
0.00048876642
0.00044834802
0.00043460003
0.00043180161
0.0003835618
0.00041355946
0.00033570457
0.00039417827
0.00029107619
0.00037413045
0.00024955058
0.00035384722
0.00021109488
0.00033376247
0.00017546055
0.00031418846
0.00014250535
0.00029542654
0.00011205692
0.00027782628
8.380968e-05
0.00026146847
5.7520033e-05
0.00024671128
3.297866e-05
0.00023370444
9.9350678e-06
0.00022229975
-1.226346e-05
0.00021318385
-3.3501101e-05
0.00020508744
0.0001977874
-6.0298864e-06
0.00033349256
-3.9624664e-05
0.00034478796
-7.3942361e-05
0.00035330313
-0.00010941636
0.00036389092
-0.00014615905
0.00037561998
-0.00018465612
0.00038868947
-0.00022516099
0.00040283741
-0.00026772906
0.00041784967
-0.0003127804
0.00043372279
-0.00036037186
0.00044965953
-0.00041065064
0.00046580464
-0.00046362561
0.00048131967
-0.00051937327
0.00049592911
-0.00057776821
0.00050910195
-0.00063879719
0.00052030909
-0.00070214394
0.00052885606
-0.00076750415
0.00053412018
-0.00083452236
0.00053541347
-0.00090278454
0.00053228411
-0.00097144623
0.00052356259
-0.0010398499
0.00050900833
-0.0011070933
0.00048783488
-0.001172346
0.00045940533
-0.0012342162
0.00042324462
-0.0012917252
0.00037905269
-0.0013431721
0.00032624712
-0.0013872531
0.00026527692
-0.0014223431
0.0001959284
-0.0014469475
0.00011905982
-0.0014595234
3.5510348e-05
-0.0014590661
-5.2801213e-05
-0.0014445596
-0.0001448111
-0.0014155053
-0.00023777242
-0.0013726887
-0.00032881683
-0.0013165589
-0.00041565495
-0.0012489211
-0.0004958414
-0.0011715864
-0.00056800059
-0.0010871527
-0.00063081344
-0.00099727618
-0.0006851746
-0.00090312932
-0.00073157063
-0.00080574657
-0.0007707669
-0.00070602238
-0.00080379997
-0.0006038023
-0.0008322512
-0.00049994023
-0.00085527373
-0.00039437236
-0.00087455774
-0.00028713364
-0.00089055157
-0.00017814373
-0.00090309859
-6.7355658e-05
-0.00091235594
4.4954785e-05
-0.00091780732
0.0001585234
-0.00091890221
0.00027260302
-0.00091431169
0.00038582459
-0.00090329202
0.00049722245
-0.00088632894
0.00060637562
-0.00086325466
0.00071210168
-0.00083398676
0.00081320489
-0.00079876751
0.00091020113
-0.00075889653
0.0010018724
-0.00071330662
0.0010878389
-0.00066301798
0.0011687716
-0.00060768976
0.0012425374
-0.00054519618
0.0013077605
-0.00047627367
0.0013643291
-0.00040054178
0.0014085662
-0.00031664986
0.0014398716
-0.00022791424
0.0014566691
-0.00013537914
0.0014595667
-4.2651238e-05
0.0014483889
4.8128938e-05
0.0014240807
0.0001349316
0.0013881453
0.00021548288
0.0013421949
0.00028831035
0.0012879002
0.00035249084
0.0012269385
0.00040762601
0.0011608101
0.00045356946
0.0010910494
0.00049049957
0.0010189883
0.00051874426
0.00094581742
0.00053883693
0.00087250383
0.00055135739
0.00080011212
0.00055704231
0.00072916892
0.00055645809
0.00066047769
0.00055050549
0.00059451222
0.00053992241
0.00053165824
0.00052545913
0.00047221643
0.00050779085
0.00041632526
0.00048769302
0.000364114
0.00046577376
0.00031560643
0.0004426887
0.00027076163
0.00041897646
0.00022942088
0.00039518826
0.00019144252
0.00037174178
0.00015666015
0.00034897107
0.00012490388
0.00032718321
9.5795414e-05
0.00030693567
6.9089147e-05
0.00028817464
4.449861e-05
0.00027130197
2.1871609e-05
0.00025633262
9.8182257e-07
0.00024319131
-1.9703775e-05
0.00023387156
-3.9253524e-05
0.00022464021
0.00021676487
1.5574936e-06
0.00036392558
-3.0604916e-05
0.00037695251
-6.3544002e-05
0.00038623895
-9.7504509e-05
0.00039785392
-0.00013307297
0.00041118807
-0.00017047237
0.00042608996
-0.00021005219
0.00044242081
-0.00025218758
0.00045998518
-0.00029682574
0.00047836033
-0.00034455095
0.00049738745
-0.00039512403
0.00051637908
-0.00044900641
0.00053520021
-0.0005061746
0.00055309721
-0.00056657423
0.00056950323
-0.00063019586
0.00058393033
-0.00069693433
0.00059559372
-0.00076619731
0.00060338435
-0.00083787212
0.0006070886
-0.00091126876
0.00060567905
-0.00098590937
0.00059820374
-0.0010609342
0.00058403665
-0.001135412
0.00056231397
-0.0012083297
0.00053232034
-0.0012783469
0.00049326012
-0.0013439687
0.00044467598
-0.0014037886
0.00038606711
-0.0014558911
0.00031737601
-0.0014984569
0.00023849153
-0.0015295713
0.00015017499
-0.0015472392
5.3177829e-05
-0.0015496636
-5.0381511e-05
-0.001536002
-0.00015847717
-0.0015051639
-0.0002686122
-0.0014578842
-0.00037609747
-0.0013950371
-0.00047850375
-0.0013192747
-0.00057160454
-0.0012339194
-0.00065335397
-0.0011412388
-0.00072349193
-0.0010435664
-0.00078284768
-0.0009422939
-0.000832844
-0.00083841159
-0.00087464881
-0.00073279486
-0.0009094166
-0.00062636291
-0.00093868221
-0.00051850281
-0.00096312983
-0.00040952908
-0.00098352883
-0.00029910449
-0.0010009769
-0.00018677574
-0.0010154294
-7.2076404e-05
-0.001027055
4.4637458e-05
-0.001034517
0.00016329075
-0.0010375563
0.00028269718
-0.0010337191
0.00040205787
-0.0010226522
0.00052016751
-0.0010044368
0.00063520516
-0.00097828966
0.00074630133
-0.00094507958
0.00085297109
-0.00090544093
0.00095437239
-0.00086029636
0.0010513372
-0.00081026961
0.001143144
-0.00075483068
0.0012292108
-0.00069375628
0.0013101978
-0.00062618425
0.0013831197
-0.00054919561
0.0014453488
-0.00046277288
0.00149581
-0.00036710902
0.0015303045
-0.00026241126
0.0015482641
-0.00015333741
0.0015492363
-4.3623975e-05
0.0015338301
6.3535851e-05
0.0015034204
0.00016534131
0.0014600235
0.00025887751
0.0014056801
0.0003426555
0.0013425171
0.00041565492
0.0012725068
0.00047763461
0.0011974549
0.00052862333
0.0011191092
0.00056884487
0.0010389205
0.00059893159
0.00095820515
0.00061955158
0.00087805234
0.00063151049
0.000799454
0.00063564082
0.0007231839
0.00063272982
0.00064987455
0.00062381569
0.00058001745
0.00060977989
0.00051399451
0.00059148349
0.00045206327
0.00056972317
0.00039439433
0.00054536432
0.00034098862
0.00051918346
0.0002918599
0.0004918184
0.00024691268
0.00046392179
0.00020598992
0.00043610933
0.0001688393
0.00040889094
0.00013514462
0.00038266931
0.00010462919
0.00035770071
7.705773e-05
0.00033450873
5.2168675e-05
0.00031306466
2.9513592e-05
0.00029395922
8.7765608e-06
0.00027706935
-1.0692766e-05
0.00026265986
-2.8440326e-05
0.00025161913
-4.555738e-05
0.00024175938
0.00023351991
8.7118217e-06
0.00039395367
-2.0976251e-05
0.00040664234
-5.2006834e-05
0.00041726922
-8.4300143e-05
0.00043014595
-0.00011821046
0.00044509974
-0.00015412279
0.00046200543
-0.00019248857
0.0004807863
-0.00023349232
0.00050098821
-0.00027774632
0.00052261704
-0.00032521493
0.0005448576
-0.00037630421
0.00056746662
-0.00043109486
0.00058999036
-0.00048974577
0.00061174925
-0.00055234698
0.00063210388
-0.00061872501
0.00065030771
-0.00068887049
0.00066574094
-0.00076254174
0.00067705677
-0.00083927294
0.00068381848
-0.00091860265
0.00068500891
-0.00099997185
0.00067957633
-0.0010825305
0.00066659721
-0.0011652616
0.0006450428
-0.0012471714
0.00061422753
-0.0013266544
0.00057274293
-0.0014021912
0.00052021194
-0.0014720329
0.00045590511
-0.0015340119
0.00037935143
-0.0015858906
0.00029036996
-0.0016251587
0.00018944439
-0.0016495095
7.7527219e-05
-0.0016562818
-4.3612714e-05
-0.0016436173
-0.00017114355
-0.001610786
-0.00030144355
-0.0015573014
-0.00042958314
-0.0014861493
-0.00054965956
-0.0013999153
-0.00065784213
-0.001303087
-0.00075018051
-0.0011997177
-0.00082685645
-0.0010925936
-0.00088996987
-0.00098316584