/*--------------------------------*- C++ -*----------------------------------*\
  =========                 |
  \\      /  F ield         | OpenFOAM: The Open Source CFD Toolbox
   \\    /   O peration     | Website:  https://openfoam.org
    \\  /    A nd           | Version:  9
     \\/     M anipulation  |
\*---------------------------------------------------------------------------*/
FoamFile
{
    format      ascii;
    class       volScalarField;
    location    "0.75";
    object      p_rgh;
}
// * * * * * * * * * * * * * * * * * * * * * * * * * * * * * * * * * * * * * //

dimensions      [1 -1 -2 0 0 0 0];

internalField   nonuniform List<scalar> 
10000
(
0
-0.011671561
-0.037345636
-0.074684733
-0.12466991
-0.18739681
-0.2628972
-0.35152136
-0.45333637
-0.56866769
-0.69776578
-0.84083913
-0.99827207
-1.1703533
-1.3573743
-1.5597265
-1.7777738
-2.011818
-2.2621373
-2.5289486
-2.8123697
-3.1124125
-3.4289906
-3.7618813
-4.110664
-4.4747312
-4.853295
-5.2453169
-5.6494752
-6.0642181
-6.4877571
-6.9179782
-7.3523737
-7.7878473
-8.2203535
-8.645508
-9.0587095
-9.4550355
-9.8292558
-10.175615
-10.490949
-10.768167
-11.000691
-11.182733
-11.30992
-11.380353
-11.395951
-11.363684
-11.297687
-11.219129
-11.154143
-11.143786
-11.195599
-11.310572
-11.472996
-11.67185
-11.883286
-12.054316
-12.138114
-12.106215
-11.960962
-11.733701
-11.444971
-11.117044
-10.768215
-10.414617
-10.068285
-9.7371886
-9.426025
-9.137222
-8.8714598
-8.6284648
-8.4074231
-8.2072289
-8.0265611
-7.8640457
-7.7182547
-7.5877683
-7.4711825
-7.3671797
-7.2744987
-7.1919176
-7.1183822
-7.052922
-6.9946378
-6.9427517
-6.8966012
-6.8555057
-6.8189948
-6.7866033
-6.7579527
-6.7327397
-6.710739
-6.6918082
-6.6757721
-6.6624809
-6.6517128
-6.6438972
-6.6374316
-6.633742
0.0076852548
-0.003881242
-0.029628313
-0.066736479
-0.11660603
-0.17899623
-0.25430495
-0.342544
-0.44401569
-0.55897686
-0.68758855
-0.83023081
-0.98720222
-1.1587657
-1.3452902
-1.547129
-1.7646025
-1.9980387
-2.2477404
-2.5139326
-2.7967498
-3.096263
-3.4124537
-3.7451352
-4.0939524
-4.4584142
-4.8378163
-5.2311609
-5.6372065
-6.0544979
-6.481262
-6.9153164
-7.3540562
-7.7943696
-8.2325048
-8.6642018
-9.0848372
-9.489551
-9.8734321
-10.232155
-10.555225
-10.838364
-11.076064
-11.262475
-11.392496
-11.462855
-11.473379
-11.429792
-11.346785
-11.249836
-11.160876
-11.145414
-11.206186
-11.346974
-11.524305
-11.755054
-12.01992
-12.232555
-12.339869
-12.30828
-12.158017
-11.909845
-11.609103
-11.269076
-10.905041
-10.534785
-10.172475
-9.8268749
-9.5026725
-9.2022094
-8.9262229
-8.6743847
-8.4457851
-8.2392119
-8.0531899
-7.8862
-7.7366702
-7.6030423
-7.4838211
-7.3775834
-7.2830033
-7.1988
-7.1238559
-7.0571883
-6.9978683
-6.9450761
-6.8981245
-6.8563507
-6.819239
-6.7863573
-6.7572927
-6.7317333
-6.7094475
-6.6901983
-6.6738485
-6.6602294
-6.649102
-6.6411405
-6.6344526
-6.6303281
0.030622688
0.019250559
-0.0061495159
-0.043028479
-0.092426814
-0.15446666
-0.22919976
-0.31687158
-0.41774186
-0.53195051
-0.65983821
-0.80171316
-0.9578263
-1.1285248
-1.3141713
-1.5150961
-1.731649
-1.9641971
-2.2130646
-2.4784948
-2.7606891
-3.0598017
-3.3758579
-3.7087387
-4.0582219
-4.42393
-4.8052169
-5.2011801
-5.6107194
-6.0324648
-6.4646549
-6.9051227
-7.3512982
-7.8001051
-8.2478718
-8.6904007
-9.1231041
-9.5410325
-9.9389032
-10.311019
-10.65043
-10.948515
-11.200487
-11.399506
-11.539157
-11.614198
-11.622031
-11.566146
-11.460638
-11.330935
-11.210666
-11.186321
-11.272552
-11.48353
-11.688541
-11.946088
-12.300857
-12.578595
-12.722292
-12.628544
-12.396462
-12.124635
-11.807439
-11.434037
-11.033924
-10.632924
-10.246171
-9.8813246
-9.5420071
-9.2297281
-8.9445513
-8.6855812
-8.4514519
-8.2406377
-8.0514279
-7.8820796
-7.7308668
-7.5960843
-7.4761285
-7.3694696
-7.2746871
-7.1904704
-7.1156311
-7.0491451
-6.9900435
-6.9375114
-6.8907946
-6.8492831
-6.8123956
-6.7797008
-6.7508047
-6.7253444
-6.7031559
-6.683945
-6.6675762
-6.653896
-6.6425996
-6.6347907
-6.6279614
-6.6237935
0.063727878
0.052687053
0.02755536
-0.0087821325
-0.057763892
-0.11915905
-0.19320454
-0.28014021
-0.38009476
-0.49336607
-0.62025691
-0.76101123
-0.91595278
-1.0854439
-1.2698293
-1.4694732
-1.6847758
-1.916132
-2.1638824
-2.4283361
-2.7097875
-3.0084516
-3.324424
-3.6577226
-4.0082709
-4.3757782
-4.7597063
-5.1593235
-5.5736807
-6.001492
-6.4410809
-6.8903967
-7.3469592
-7.8077396
-8.2691225
-8.7269819
-9.176709
-9.6131347
-10.030491
-10.422337
-10.781234
-11.102275
-11.375954
-11.594864
-11.751151
-11.837014
-11.845673
-11.776201
-11.643286
-11.471569
-11.291931
-11.24333
-11.378293
-11.726346
-12.023607
-12.284268
-12.777608
-13.128035
-13.398632
-13.14078
-12.768718
-12.446852
-12.085531
-11.651992
-11.197858
-10.751296
-10.328356
-9.9354914
-9.574697
-9.246335
-8.9493753
-8.6819958
-8.4420849
-8.227469
-8.0359388
-7.8653552
-7.713676
-7.5789761
-7.4594719
-7.353505
-7.2595443
-7.1762067
-7.1022738
-7.0366567
-6.9783638
-6.9265701
-6.8805236
-6.8395798
-6.8031961
-6.7709011
-6.7423366
-6.7171723
-6.6951543
-6.6760442
-6.6597391
-6.646045
-6.6343965
-6.6269985
-6.6201967
-6.6157441
0.10810514
0.097213471
0.072568495
0.036694366
-0.011589683
-0.072200168
-0.1453914
-0.2312622
-0.33007649
-0.44212538
-0.56763681
-0.70690884
-0.86029927
-1.0281577
-1.2108502
-1.4087943
-1.6224293
-1.8521659
-2.0984015
-2.3615487
-2.6419805
-2.9399797
-3.2557796
-3.5895751
-3.9414174
-4.3111406
-4.6984012
-5.102676
-5.5231645
-5.9587173
-6.4078375
-6.8686462
-7.338761
-7.8152203
-8.2945029
-8.7725344
-9.2446178
-9.705373
-10.148761
-10.568158
-10.956506
-11.307055
-11.610164
-11.85802
-12.041182
-12.148825
-12.167793
-12.090656
-11.933917
-11.729734
-11.491028
-11.358495
-11.593219
-12.061041
-12.766709
-13.148482
-13.674781
-12.797643
-10.844939
-13.131186
-13.054146
-12.915792
-12.514474
-11.957572
-11.412006
-10.898756
-10.42612
-9.996252
-9.608187
-9.2598903
-8.9485633
-8.6711394
-8.4245106
-8.2056813
-8.0117912
-7.8401927
-7.6884399
-7.5543094
-7.4358017
-7.3310704
-7.2384827
-7.1565447
-7.0839814
-7.0196449
-6.9625627
-6.9118295
-6.8667407
-6.8266238
-6.7909452
-6.7592505
-6.731137
-6.706335
-6.6845907
-6.6656615
-6.6494193
-6.6357825
-6.6245335
-6.6162222
-6.6097508
-6.605118
0.16379458
0.15325349
0.12893734
0.09375372
0.046265636
-0.013439522
-0.085482902
-0.17008416
-0.26751127
-0.37798096
-0.50176458
-0.63919961
-0.79063552
-0.95643726
-1.1370191
-1.3328375
-1.5443463
-1.7720012
-2.0163013
-2.2777508
-2.5567918
-2.853835
-3.169302
-3.5035504
-3.8567758
-4.2290176
-4.6201804
-5.029949
-5.4577031
-5.9025173
-6.3631384
-6.8378771
-7.3244922
-7.8201611
-8.3214929
-8.8244424
-9.3242068
-9.8152243
-10.29125
-10.745442
-11.170429
-11.558264
-11.901728
-12.190088
-12.413995
-12.561276
-12.614065
-12.544491
-12.354592
-12.148549
-12.077599
-11.735469
-11.527001
-11.787673
-13.62471
-14.963987
-14.337056
-13.509633
-14.165042
-14.01532
-13.896299
-13.562767
-13.063803
-12.280835
-11.635222
-11.055388
-10.527913
-10.054358
-9.633834
-9.2622864
-8.9347635
-8.646475
-8.3929902
-8.1702703
-7.9746415
-7.8028211
-7.6519008
-7.5192949
-7.4027358
-7.3001631
-7.2097853
-7.1300407
-7.0595929
-6.9971995
-6.9418752
-6.8927421
-6.8490221
-6.8100828
-6.7754197
-6.7445505
-6.7171193
-6.6928448
-6.6714381
-6.6527681
-6.6367231
-6.6231816
-6.6120363
-6.603428
-6.5969652
-6.5922533
0.23068074
0.220353
0.19657346
0.16212545
0.11550617
0.056956968
-0.013765902
-0.096890791
-0.19261146
-0.301177
-0.42290211
-0.55812115
-0.70718969
-0.8705134
-1.0485446
-1.2417475
-1.4506053
-1.6756673
-1.9175277
-2.1767556
-2.453906
-2.7495795
-3.0643822
-3.398829
-3.7533254
-4.1281881
-4.5235839
-4.9394252
-5.3753535
-5.8307537
-6.3046552
-6.7955908
-7.3015452
-7.8199303
-8.3475176
-8.8803051
-9.4133967
-9.9410375
-10.45673
-10.953365
-11.423355
-11.8588
-12.251565
-12.593094
-12.874863
-13.091933
-13.222042
-13.170161
-12.861552
-12.1531
-11.774726
-11.823276
-12.402928
-13.947938
-15.980363
-17.683591
-19.510953
-20.480056
-20.139741
-19.939133
-16.567648
-14.586392
-13.91271
-12.780718
-11.903
-11.229988
-10.635668
-10.10822
-9.6481697
-9.2492161
-8.9036419
-8.6040954
-8.3442041
-8.118527
-7.922366
-7.751676
-7.6029648
-7.473224
-7.3598573
-7.2605887
-7.1734794
-7.0968624
-7.0293266
-6.9696229
-6.9166619
-6.8696201
-6.8277121
-6.7903162
-6.7569405
-6.7271138
-6.7005044
-6.6768583
-6.6559394
-6.6376096
-6.6217691
-6.6082922
-6.5972133
-6.5884884
-6.5819446
-6.5772571
0.30836037
0.29844424
0.27519243
0.24152779
0.195999
0.1387413
0.069508199
-0.011856092
-0.10557361
-0.21193575
-0.33125355
-0.46386228
-0.61014892
-0.77055227
-0.94552806
-1.1355529
-1.3411866
-1.5630708
-1.8018561
-2.0582016
-2.332839
-2.6265605
-2.9401379
-3.2742964
-3.6297298
-4.0070534
-4.4067082
-4.8289112
-5.273664
-5.7407112
-6.2293952
-6.7385588
-7.2665268
-7.8110352
-8.3690678
-8.9366856
-9.508937
-10.079881
-10.642636
-11.189602
-11.712922
-12.20479
-12.657335
-13.063003
-13.421785
-13.750868
-14.013434
-13.992661
-13.476698
-13.028367
-13.349067
-14.474702
-15.630625
-16.790482
-19.140806
-21.719921
-24.165138
-25.665566
-25.708136
-24.549848
-22.500895
-17.501332
-14.973929
-13.521428
-12.336091
-11.455333
-10.750883
-10.155966
-9.647993
-9.217135
-8.8521667
-8.5416621
-8.2764767
-8.0493736
-7.8543891
-7.6865522
-7.5417104
-7.416358
-7.307569
-7.2128533
-7.1301147
-7.0575887
-6.9937818
-6.9374231
-6.8874345
-6.8429628
-6.8032371
-6.7677031
-6.7358443
-6.7072483
-6.6816194
-6.65869
-6.6382953
-6.6203095
-6.6046709
-6.5913033
-6.5802042
-6.5713803
-6.564707
-6.5600222
0.39676848
0.38723278
0.36454367
0.33185714
0.28751059
0.2316774
0.16417779
0.084828162
-0.0066289376
-0.11047874
-0.22702994
-0.35664094
-0.49972494
-0.65671503
-0.82806486
-1.0143115
-1.2160969
-1.4341067
-1.6690532
-1.9217437
-2.1930935
-2.4840565
-2.7956026
-3.1287451
-3.4844994
-3.8637865
-4.2673848
-4.6959221
-5.1498263
-5.6292267
-6.1338557
-6.662999
-7.215434
-7.789297
-8.381874
-8.9894129
-9.6069941
-10.228418
-10.84613
-11.451656
-12.036608
-12.592894
-13.112407
-13.589112
-14.039081
-14.513984
-14.943434
-14.906007
-13.535105
-14.441191
-14.73651
-15.661921
-17.119072
-19.316605
-22.609849
-26.485978
-29.924212
-31.97154
-31.935167
-30.010731
-26.401763
-22.041782
-16.532619
-14.723361
-13.005945
-11.759684
-10.877554
-10.188156
-9.6235884
-9.1585141
-8.774578
-8.4549124
-8.1867856
-7.9607431
-7.7693566
-7.6066159
-7.4676732
-7.3485551
-7.2459488
-7.1571843
-7.0800062
-7.0125637
-6.9533604
-6.9010606
-6.8546296
-6.8131846
-6.7760285
-6.7426205
-6.7124758
-6.6852702
-6.6607119
-6.6385572
-6.618705
-6.6010843
-6.5855997
-6.5722892
-6.5611253
-6.5521427
-6.545334
-6.5405269
0.49556062
0.48643926
0.46447115
0.43280649
0.38974152
0.33553975
0.26998375
0.19286025
0.10392373
0.0029000573
-0.11053692
-0.23676579
-0.37618715
-0.5292176
-0.6963506
-0.87819248
-1.075415
-1.2887345
-1.5189757
-1.767106
-2.0341837
-2.3213338
-2.6297925
-2.9608976
-3.3159893
-3.6963476
-4.1031979
-4.5376603
-5.0006203
-5.4926451
-6.0139694
-6.5644558
-7.1434624
-7.7496421
-8.3807886
-9.033573
-9.7031076
-10.382711
-11.06396
-11.736994
-12.392026
-13.019925
-13.610375
-14.154774
-14.679332
-15.243068
-15.826282
-13.75175
-14.623175
-15.501227
-16.106448
-17.24653
-19.173575
-21.922963
-26.342857
-31.26182
-35.640983
-38.300044
-38.334415
-35.695427
-31.008361
-25.784019
-17.934176
-15.438867
-13.510809
-11.983939
-10.943471
-10.169915
-9.5553245
-9.060954
-8.6625768
-8.3381231
-8.0711682
-7.8499314
-7.6654766
-7.51079
-7.3802955
-7.2695987
-7.1750647
-7.0938442
-7.0235687
-6.9623235
-6.9086143
-6.8610795
-6.8188213
-6.7808566
-6.7466053
-6.7155739
-6.6873212
-6.6615912
-6.6381508
-6.6167951
-6.5974688
-6.5801493
-6.564773
-6.5514139
-6.5401027
-6.5308927
-6.5238451
-6.5187636
0.60445589
0.59585902
0.57459349
0.54403147
0.5024175
0.4500114
0.38656758
0.31188866
0.2257413
0.12784195
0.017853482
-0.10458313
-0.23984081
-0.38836109
-0.55068925
-0.72744163
-0.91929072
-1.127025
-1.3515934
-1.5940748
-1.8556594
-2.1376977
-2.4417248
-2.7693984
-3.1224225
-3.5025374
-3.9115087
-4.3509979
-4.8223954
-5.3267977
-5.8650545
-6.4377284
-7.044912
-7.6859865
-8.3594879
-9.0626792
-9.790846
-10.537359
-11.293336
-12.045175
-12.77939
-13.486744
-14.151561
-14.753926
-15.312182
-15.839551
-15.94846
-15.658344
-16.636957
-16.884301
-17.621887
-18.68282
-20.762139
-24.257786
-29.085927
-34.555482
-39.482213
-42.662663
-42.906949
-39.954026
-34.665684
-28.401811
-19.185005
-16.219944
-13.789677
-12.050208
-10.89922
-10.070871
-9.4229356
-8.9112486
-8.507443
-8.1853837
-7.9257362
-7.714463
-7.5412675
-7.3982772
-7.2793383
-7.1796346
-7.0953352
-7.0234321
-6.9614759
-6.9075626
-6.8603328
-6.8182417
-6.7807696
-6.7466583
-6.7156031
-6.6871514
-6.6609197
-6.6367246
-6.6143889
-6.593784
-6.574899
-6.5577603
-6.5423991
-6.5288725
-6.5172657
-6.5077362
-6.5003432
-6.4948759
0.72317485
0.71505517
0.69454691
0.66523234
0.62518951
0.57470659
0.5135537
0.4415447
0.35843846
0.26394411
0.1577528
0.039542346
-0.091069598
-0.23456035
-0.39146842
-0.56238123
-0.7480015
-0.94920025
-1.1669957
-1.402543
-1.6571962
-1.932561
-2.2304592
-2.552881
-2.9019799
-3.2800549
-3.6894719
-4.1325028
-4.6111573
-5.1271614
-5.6820246
-6.2770691
-6.9133439
-7.5913575
-8.3107795
-9.0699426
-9.8649193
-10.688859
-11.530862
-12.372426
-13.197909
-14.00101
-14.753979
-15.415671
-15.966482
-16.465074
-16.18029
-17.319812
-17.647885
-17.836815
-18.718004
-19.716954
-21.86909
-25.366266
-30.227248
-35.522491
-40.457471
-43.885128
-44.17084
-41.491518
-36.194544
-29.555338
-19.888876
-16.031542
-14.009456
-11.99785
-10.750008
-9.8774621
-9.2121485
-8.698485
-8.3013373
-7.9912756
-7.747199
-7.5524088
-7.3957528
-7.2687772
-7.1649855
-7.0792795
-7.0075619
-6.9468198
-6.8946747
-6.8491821
-6.8096361
-6.7736859
-6.7411877
-6.7113773
-6.6837688
-6.6580412
-6.6338898
-6.6112045
-6.5899066
-6.5699476
-6.5513968
-6.5342908
-6.5187406
-6.5048725
-6.4928146
-6.4827859
-6.474887
-6.468572
0.85126213
0.84366662
0.82401719
0.79603055
0.75765432
0.70924017
0.65056348
0.58142819
0.50158989
0.41078717
0.30875356
0.19516754
0.069626721
-0.068320528
-0.21915966
-0.38347344
-0.56200437
-0.75564404
-0.96542595
-1.1925938
-1.4386788
-1.7055063
-1.9951714
-2.3100611
-2.6528678
-3.026511
-3.4340287
-3.8784347
-4.3624951
-4.8886101
-5.4589285
-6.0755924
-6.740963
-7.4572902
-8.2258375
-9.0460376
-9.9146114
-10.825198
-11.772334
-12.735386
-13.67087
-14.57803
-15.444578
-16.181696
-16.70272
-17.074548
-17.405097
-17.816191
-18.330389
-18.470708
-19.231209
-20.515441
-22.44043
-25.727421
-30.045666
-34.492832
-38.97643
-42.233577
-42.854074
-40.38771
-35.468982
-29.060815
-19.668177
-15.561585
-13.818694
-11.754084
-10.45177
-9.5619865
-8.9082873
-8.4130057
-8.0374538
-7.7508973
-7.5334465
-7.3626458
-7.2285941
-7.1225984
-7.0378869
-6.9695011
-6.9128781
-6.8653102
-6.8245073
-6.7888324
-6.7571439
-6.7281767
-6.7013232
-6.676078
-6.6520555
-6.629061
-6.6069569
-6.5856864
-6.5653106
-6.5458321
-6.5273704
-6.5100763
-6.4941115
-6.479644
-6.4668889
-6.4561533
-6.4475048
-6.4400468
0.98837071
0.98136945
0.96260233
0.93601519
0.89942303
0.85322588
0.79718516
0.73110038
0.65475662
0.56793141
0.4703647
0.36172848
0.2416598
0.10977809
-0.034370109
-0.19137072
-0.36194152
-0.5469267
-0.74736674
-0.96459296
-1.2002611
-1.4563593
-1.7352692
-2.0398432
-2.3733751
-2.7394769
-3.1420115
-3.5849488
-4.0719534
-4.606114
-5.1900867
-5.8266026
-6.5193443
-7.273281
-8.0932065
-8.9797035
-9.9313721
-10.944447
-12.016381
-13.132415
-14.179259
-15.173654
-16.247061
-17.181837
-17.646711
-18.133069
-18.372371
-18.788402
-19.447531
-18.815973
-19.565998
-20.564549
-22.402332
-25.232009
-28.377334
-29.514851
-34.988274
-38.304101
-38.979709
-37.004376
-32.713301
-27.053152
-18.457041
-15.7062
-13.079686
-11.180787
-9.9576153
-9.1124649
-8.4987309
-8.0456909
-7.7101284
-7.4587896
-7.2853046
-7.1452382
-7.0403224
-6.96069
-6.8992107
-6.8520809
-6.8128051
-6.7803321
-6.7523945
-6.7275599
-6.7048019
-6.6832211
-6.6623294
-6.6417922
-6.6214141
-6.6011228
-6.5809409
-6.5609381
-6.541233
-6.5219688
-6.5033092
-6.485522
-6.4688367
-6.4534736
-6.4396925
-6.4279987
-6.4183654
-6.4094193
1.1341272
1.1277301
1.1098886
1.0847959
1.0501016
1.0062394
0.95296531
0.89010368
0.81747273
0.73485155
0.64197933
0.53858123
0.42437554
0.29902864
0.16210849
0.01308964
-0.14864638
-0.32387771
-0.51363729
-0.71926712
-0.94245423
-1.185315
-1.4505299
-1.7414308
-2.0619475
-2.4165164
-2.8100969
-3.24789
-3.734505
-4.2735986
-4.8683432
-5.5220861
-6.2404562
-7.0323118
-7.9084932
-8.8674146
-9.8991217
-11.012472
-12.213726
-13.633473
-14.797125
-15.84543
-17.126286
-18.443818
-19.28689
-19.878894
-19.587331
-20.244947
-18.5663
-14.597733
-19.191658
-20.325666
-21.682452
-24.357294
-26.906234
-27.358625
-30.412486
-33.740327
-34.00671
-32.227433
-28.686511
-24.041527
-16.300123
-14.461019
-11.960897
-10.291506
-9.252812
-8.5141696
-7.9819837
-7.5979351
-7.3233568
-7.1286869
-6.9945697
-6.8990006
-6.832048
-6.7850483
-6.751846
-6.7278577
-6.7092149
-6.693935
-6.6803396
-6.6673186
-6.6541569
-6.6403218
-6.6255727
-6.609788
-6.5929882
-6.5752854
-6.5568033
-6.5377758
-6.5183992
-6.4989801
-6.4797642
-6.4611048
-6.443303
-6.4266815
-6.4115283
-6.3985499
-6.3876169
-6.3768227
1.2880633
1.2823175
1.2654747
1.2419655
1.209248
1.1678134
1.117433
1.0579521
0.98918448
0.91091235
0.82292788
0.72503907
0.61701634
0.49855891
0.36931539
0.22889141
0.076788656
-0.087684331
-0.26546638
-0.45778779
-0.66627998
-0.89313661
-1.1412789
-1.4144832
-1.7173729
-2.0553945
-2.4349643
-2.8629855
-3.3452404
-3.8858163
-4.4878996
-5.1538001
-5.8903165
-6.7109672
-7.6486342
-8.706608
-9.8506234
-11.116427
-12.485151
-14.570244
-16.14289
-16.684114
-17.998545
-20.193315
-21.416212
-21.631372
-20.817755
-20.940831
-13.492739
-11.102237
-18.162798
-19.741692
-21.056387
-23.221721
-25.2778
-25.936672
-27.816551
-29.29452
-29.521367
-26.896001
-24.839844
-19.054143
-14.022895
-12.463169
-10.583936
-9.2392837
-8.3950499
-7.7916169
-7.3679778
-7.0746872
-6.8782261
-6.7517821
-6.6748047
-6.6306053
-6.6081068
-6.599211
-6.598287
-6.60128
-6.6053529
-6.60886
-6.610725
-6.6102673
-6.6071509
-6.6012613
-6.5926573
-6.5815185
-6.5680845
-6.5526364
-6.535511
-6.5170596
-6.497609
-6.4775785
-6.4573411
-6.4373335
-6.4179608
-6.3995734
-6.3826572
-6.368018
-6.3554098
-6.3423567
1.4497304
1.4447031
1.4289299
1.4070496
1.3763779
1.3374675
1.2900915
1.2340834
1.1692564
1.0954484
1.0125259
0.92033888
0.81869051
0.70736451
0.58614975
0.45479578
0.31293848
0.16005848
-0.0045549922
-0.18190624
-0.37347177
-0.58138234
-0.80863405
-1.0593769
-1.3390148
-1.6541653
-2.0131035
-2.425437
-2.8988252
-3.4369548
-4.0408945
-4.7145015
-5.4619642
-6.2931792
-7.2705403
-8.405819
-9.7592999
-9.6092275
-9.2979876
-13.463036
-16.019988
-16.900742
-18.260789
-20.731281
-22.460134
-22.769932
-21.878097
-21.489666
-20.23354
-9.5356681
-17.452212
-19.316469
-20.796367
-22.591437
-24.084617
-24.879842
-25.264247
-25.140928
-24.053173
-21.829243
-18.223681
-14.590427
-12.067826
-10.700646
-9.1312164
-8.1012085
-7.4332125
-6.9749656
-6.6734405
-6.4863237
-6.3826046
-6.3368789
-6.3293039
-6.3450249
-6.3736484
-6.4079441
-6.4431034
-6.4759958
-6.5047344
-6.5283089
-6.5463876
-6.558881
-6.5659579
-6.567959
-6.5653146
-6.5585234
-6.5480782
-6.5344401
-6.5181937
-6.4997839
-6.4797268
-6.4585279
-6.4367298
-6.414831
-6.3933573
-6.372675
-6.3534382
-6.3366814
-6.3219138
-6.3061465
1.6185756
1.6143807
1.5997549
1.5795614
1.5510141
1.5147067
1.4703828
1.4178799
1.3570593
1.2878184
1.2100494
1.123624
1.0284205
0.92435352
0.8113493
0.68929858
0.55804071
0.41734808
0.2668493
0.10588066
-0.066694928
-0.25267935
-0.4548691
-0.67762816
-0.92716245
-1.2113423
-1.5407342
-1.9295465
-2.3892449
-2.9220036
-3.5257683
-4.1991642
-4.9488282
-5.7739501
-6.7653554
-7.9059333
-9.2221114
-9.6435815
-8.7045951
-11.53805
-13.300175
-13.660237
-15.675477
-20.575731
-22.44675
-23.169381
-22.370079
-21.292114
-20.649118
-11.654733
-17.431144
-19.918482
-21.600628
-23.185406
-23.991753
-24.008388
-23.599316
-21.990155
-19.875337
-16.733331
-14.291087
-12.413161
-10.507885
-8.9285587
-7.684548
-6.9012253
-6.3956766
-6.0837641
-5.9130681
-5.8445588
-5.8465207
-5.8933069
-5.9655318
-6.0493357
-6.1352829
-6.2173259
-6.2917833
-6.3567544
-6.4114823
-6.4558985
-6.4905143
-6.5159623
-6.533059
-6.5425993
-6.5454522
-6.5424972
-6.534463
-6.5220449
-6.5060407
-6.4870404
-6.4657445
-6.4427399
-6.4187117
-6.3942756
-6.3700072
-6.3464004
-6.3242458
-6.3048476
-6.2873677
-6.2683183
1.7937306
1.7907818
1.7774847
1.7590401
1.7326754
1.6989909
1.6577265
1.6087658
1.55201
1.4873625
1.4147181
1.334006
1.2452087
1.1483514
1.0434799
0.93066983
0.81005025
0.6817624
0.54585754
0.40218026
0.25022064
0.088878097
-0.084016752
-0.27260382
-0.48359663
-0.72597877
-1.0129108
-1.3674267
-1.8112928
-2.3463158
-2.9547272
-3.6245157
-4.3697049
-5.1744488
-6.2238152
-7.3814007
-8.6677849
-10.005156
-9.2519951
-11.607763
-14.475783
-15.127184
-16.148068
-19.736017
-21.915979
-23.548298
-23.148565
-21.699204
-21.021082
-20.24403
-19.745921
-22.448868
-24.363067
-25.744565
-25.863554
-24.402188
-22.484271
-20.416141
-18.195912
-16.05737
-13.050272
-10.625624
-8.6877545
-7.3045372
-6.2783887
-5.6550521
-5.2963299
-5.1295371
-5.0988473
-5.1613841
-5.2816634
-5.4323361
-5.5938223
-5.7529596
-5.9014656
-6.0347981
-6.1508259
-6.2491711
-6.3304525
-6.3958119
-6.446701
-6.4846336
-6.5111304
-6.5275427
-6.5351764
-6.5352869
-6.5288844
-6.516937
-6.5003927
-6.4800537
-6.4567331
-6.431182
-6.4041618
-6.3764293
-6.3486072
-6.3213026
-6.2955527
-6.2728913
-6.2520475
-6.2290405
1.975793
1.9737133
1.9617394
1.9450319
1.9208456
1.8897798
1.851602
1.8062219
1.7535196
1.6933884
1.6257599
1.5506307
1.46805
1.3781187
1.2810221
1.1770705
1.0667066
0.95046113
0.82890419
0.70260321
0.57201111
0.43718968
0.29721
0.14900932
-0.013755426
-0.20087766
-0.42589911
-0.72665983
-1.1459952
-1.6972037
-2.3271878
-3.0027755
-3.6983848
-4.488403
-5.6278241
-6.8399835
-8.1429165
-9.4708432
-10.869563
-13.408737
-16.214
-17.563267
-18.121905
-18.498868
-21.32013
-25.033607
-25.799958
-23.506794
-21.088711
-20.38655
-22.021354
-26.995229
-29.172839
-30.195522
-28.888895
-25.482766
-21.725799
-18.625993
-15.912485
-13.397832
-10.739911
-8.5435832
-6.8882451
-5.6831457
-4.8333739
-4.3396642
-4.1290443
-4.1167875
-4.2407508
-4.4494884
-4.7018888
-4.9679073
-5.2273202
-5.4677657
-5.6826588
-5.8694112
-6.02798
-6.159823
-6.2672045
-6.3527133
-6.4189216
-6.4683116
-6.5031225
-6.5253147
-6.5366949
-6.5388526
-6.5330933
-6.5206715
-6.5026648
-6.4801052
-6.4538674
-6.4249066
-6.3940648
-6.362108
-6.3298934
-6.2980283
-6.2679038
-6.2412695
-6.2162562
-6.188507
2.1636659
2.1629608
2.152061
2.1370147
2.1150111
2.0865967
2.0515335
2.0097106
1.9609785
1.9052421
1.842473
1.7726863
1.6959524
1.6124489
1.5225142
1.4266687
1.3256202
1.2202859
1.1118431
1.0017558
0.89175322
0.78360103
0.67841063
0.57596678
0.47321472
0.36037969
0.22492087
0.010932173
-0.36957172
-0.95985909
-1.6294163
-2.3307687
-2.8441306
-3.7074032
-4.8653031
-6.2561001
-7.779943
-9.1985554
-10.395983
-12.080806
-14.334064
-16.344491
-17.249684
-16.871689
-20.988845
-29.903619
-32.432325
-27.047712
-23.278634
-16.596245
-26.754606
-31.811029
-34.809476
-36.384718
-34.462703
-27.551486
-20.975486
-16.706277
-13.738015
-11.123117
-8.6033707
-6.6340309
-5.1129696
-4.0057311
-3.2845602
-2.9118757
-2.8813478
-3.0481807
-3.3497742
-3.7246816
-4.1250207
-4.5177936
-4.8825473
-5.2084889
-5.4915807
-5.7319618
-5.9322102
-6.0961134
-6.2278928
-6.3317091
-6.4114455
-6.4705629
-6.5120828
-6.5385643
-6.5523054
-6.5552263
-6.5489231
-6.5348875
-6.5143779
-6.4885736
-6.4584574
-6.4251131
-6.3896148
-6.3523926
-6.3147763
-6.2773746
-6.2419695
-6.2105506
-6.1804174
-6.1469729
2.3575159
2.3578043
2.3477262
2.3344783
2.3147091
2.2889767
2.2570066
2.2186693
2.1738176
2.1223496
2.0642184
1.9994174
1.9280324
1.8503047
1.7666634
1.6777409
1.5844322
1.4880047
1.3902141
1.2934089
1.200763
1.1161485
1.0430445
0.9855918
0.94952845
0.93357065
0.91664889
0.80382937
0.46206246
-0.17292176
-0.9601252
-1.5246091
-1.8063551
-2.6609722
-3.5375194
-5.6069988
-7.7473949
-10.168807
-12.704461
-15.653948
-16.327734
-16.494661
-17.40996
-13.269957
-20.649596
-42.602518
-41.632869
-36.122696
-25.754569
-20.461288
-27.527027
-39.647915
-44.846058
-50.45414
-44.245064
-33.561864
-19.803372
-13.512177
-11.194685
-8.9322788
-6.5821386
-4.7926165
-3.3094242
-2.2295981
-1.611997
-1.44108
-1.561908
-1.9334406
-2.4438845
-3.0100452
-3.575453
-4.1054298
-4.58046
-4.9931268
-5.3432794
-5.6348232
-5.8736238
-6.0662529
-6.2191476
-6.3382303
-6.4287276
-6.4951113
-6.5411826
-6.570049
-6.5844179
-6.5865401
-6.5783157
-6.5613822
-6.5371879
-6.5069892
-6.4719275
-6.4330485
-6.3912884
-6.3482791
-6.3042925
-6.2603096
-6.218615
-6.1814567
-6.1450635
-6.1048084
2.5566484
2.556959
2.5490662
2.5370541
2.519473
2.4963875
2.4674687
2.432575
2.391533
2.3441827
2.2904189
2.230208
2.1636271
2.0909018
2.012432
1.9288478
1.8411202
1.7507202
1.659741
1.5710866
1.4892042
1.4201745
1.3690763
1.3436216
1.364963
1.4450647
1.5290121
1.5439338
1.2267168
0.31410256
-0.61806216
-0.68174304
-0.50963234
-1.0149166
-2.2625886
-4.5070746
-5.9386777
-9.3760125
-14.358907
-19.116618
-20.222825
-17.888039
-18.975358
-1.4801173
-15.891358
-63.254018
-69.295324
-45.75382
-23.707263
-9.6796776
-21.307604
-48.416281
-64.561695
-65.988806
-56.431596
-40.276908
-16.426003
-7.374782
-6.5722057
-7.3190429
-5.2117883
-3.1084055
-1.4114538
-0.2496462
0.28698485
0.27256326
-0.13223869
-0.78592517
-1.5534487
-2.3410327
-3.0874307
-3.7616818
-4.3473766
-4.8434159
-5.255355
-5.5920043
-5.8632885
-6.0789649
-6.2478983
-6.3778494
-6.4753405
-6.5457784
-6.5936286
-6.6225294
-6.6355113
-6.635047
-6.6232989
-6.6020577
-6.5728751
-6.5370658
-6.495908
-6.4505257
-6.4019028
-6.3514549
-6.2998132
-6.2480468
-6.1989362
-6.1549153
-6.1108952
-6.0625118
2.7605251
2.7607852
2.7545991
2.7440681
2.7286889
2.7082361
2.6823875
2.65094
2.6136409
2.570258
2.5206283
2.4646594
2.402335
2.3337517
2.2591739
2.1791088
2.0944062
2.0064283
1.9171255
1.8291866
1.7476358
1.6804488
1.6281543
1.5877343
1.6157189
1.7882505
1.982463
2.2214881
1.9721321
0.50053468
-1.2137792
-0.26407983
1.2557424
1.3127472
0.16094296
-2.0964543
-3.4515382
-9.9227109
-18.714128
-26.612225
-27.759178
-14.349269
-24.727654
35.058745
65.176214
-45.71289
362.6811
1480.7628
2334.3085
2764.6073
3368.8544
3332.5366
1842.0128
318.11586
-31.214719
3.6134256
-5.3439457
10.519245
20.48346
-7.7344154
-4.5622155
-1.4104871
0.66977531
2.067828
2.4910782
2.1723778
1.3810191
0.35080137
-0.73155728
-1.7731663
-2.7086746
-3.5246294
-4.2146758
-4.784831
-5.2478246
-5.618822
-5.9129099
-6.143264
-6.3212121
-6.4561598
-6.5557899
-6.6263083
-6.6726473
-6.6988062
-6.7080801
-6.7030762
-6.6860554
-6.6589326
-6.6233317
-6.5806426
-6.5321774
-6.4793353
-6.4223559
-6.3633833
-6.3028795
-6.2420528
-6.1842932
-6.1321441
-6.078876
-6.0207676
2.9685244
2.9685186
2.9637672
2.9548746
2.9417124
2.9239511
2.9012323
2.8732591
2.839677
2.800204
2.7545884
2.7025911
2.6440148
2.5787481
2.5068284
2.4284793
2.34415
2.2546649
2.1611642
2.0650543
1.9708383
1.8843632
1.7856434
1.6552589
1.6272874
1.8210102
1.8216896
1.809435
1.9590544
0.24924897
-1.1878171
0.50206331
3.3144893
4.2588375
3.4697812
1.4962521
-1.9675354
-10.735723
-24.320146
-41.961785
-27.999905
-17.97292
-127.55343
149.20428
-212.99292
2212.756
6001.3231
7485.0406
6629.2928
6056.7985
6563.8088
7616.2634
7936.2058
5342.3994
2159.8932
885.72441
383.15063
26.227089
-16.208703
-11.138267
-1.6708219
0.77201114
3.2215677
5.1566991
5.2295577
4.3031812
2.92735
1.3645814
-0.068443105
-1.3748592
-2.5017463
-3.4475391
-4.2232992
-4.8477683
-5.342884
-5.7312875
-6.0342977
-6.2680129
-6.4458197
-6.5784239
-6.6743397
-6.7402477
-6.7813321
-6.8017074
-6.8047032
-6.7929941
-6.768843
-6.7341787
-6.6906448
-6.6396882
-6.5824785
-6.519948
-6.4544147
-6.3859511
-6.3153687
-6.2441467
-6.1764022
-6.1147053
-6.0503036
-5.9805688
3.1797473
3.1793828
3.1758649
3.1687153
3.1578514
3.1429524
3.1234368
3.0990018
3.0692476
3.0337816
2.9921864
2.9440103
2.8888342
2.826287
2.756068
2.6779267
2.5916415
2.4970869
2.3939755
2.2815746
2.1616876
2.0323224
1.8496884
1.576477
1.3811108
1.3034194
0.97897002
3.3541413
6.0673965
1.5974477
0.57189005
2.7905523
6.1119187
7.6624427
6.7315235
3.1168606
-1.3297439
-7.0503684
-21.599111
-45.825798
-60.739551
14.083147
762.11759
3573.2051
5386.1455
5698.3363
6222.3418
6550.5322
6394.0253
6263.8456
6475.6836
6839.2927
6897.9173
6458.5467
6295.537
5961.0824
3122.2079
1077.8828
-23.757778
-3.0052017
6.2516362
3.5257013
7.6059517
10.102203
8.6007666
6.4160802
4.2106106
2.130311
0.29189119
-1.2698174
-2.5559963
-3.594752
-4.4192552
-5.0647409
-5.5639805
-5.9449061
-6.238556
-6.4612755
-6.6277215
-6.7493168
-6.8348232
-6.8909133
-6.9226312
-6.9339684
-6.9280091
-6.9073352
-6.8740942
-6.8301607
-6.777163
-6.716554
-6.6495257
-6.5771049
-6.50091
-6.4216081
-6.3396233
-6.256598
-6.1774361
-6.1046416
-6.0269381
-5.9433642
3.3932492
3.3922849
3.3899277
3.3847196
3.3762983
3.3644152
3.3483768
3.3276786
3.3020141
3.2708137
3.2334081
3.18914
3.13734
3.0773091
3.008296
2.9294374
2.8396729
2.7376743
2.6214484
2.4879653
2.3349458
2.1510167
1.8824378
1.5073257
1.2441257
1.2102518
1.20318
6.8745986
14.926064
9.5599955
3.7540549
5.5659422
9.4847786
11.42895
10.188849
2.4098187
-9.3360607
-16.308366
-12.077171
-15.370863
-111.51934
2354.8664
4459.1258
5730.3988
5784.771
5834.7157
5985.8161
6118.9483
6125.6768
6130.3265
6233.5518
6372.0309
6399.7215
6289.423
6244.7029
6392.7015
6604.3757
5382.0473
1306.5253
0.1589201
23.085919
7.0904288
13.919333
15.736836
11.267703
7.8789186
4.8525759
2.2368825
0.097390509
-1.6244633
-2.98623
-4.0418568
-4.8523873
-5.4684226
-5.9333931
-6.2731223
-6.5351918
-6.729711
-6.8717878
-6.9726223
-7.0404306
-7.0811924
-7.0993127
-7.0982726
-7.0806803
-7.0487679
-7.0044447
-6.9494585
-6.8854019
-6.8137426
-6.7357873
-6.6519171
-6.5641503
-6.4729773
-6.3783893
-6.2821545
-6.1900928
-6.1045985
-6.0112276
-5.9112998
3.60765
3.6059262
3.6047471
3.6017615
3.5960189
3.5874106
3.575218
3.5588074
3.5376436
3.5111186
3.4783697
3.4384742
3.3904566