/*--------------------------------*- C++ -*----------------------------------*\
  =========                 |
  \\      /  F ield         | OpenFOAM: The Open Source CFD Toolbox
   \\    /   O peration     | Website:  https://openfoam.org
    \\  /    A nd           | Version:  9
     \\/     M anipulation  |
\*---------------------------------------------------------------------------*/
FoamFile
{
    format      ascii;
    class       volVectorField;
    location    "0.75";
    object      U;
}
// * * * * * * * * * * * * * * * * * * * * * * * * * * * * * * * * * * * * * //

dimensions      [0 1 -1 0 0 0 0];

internalField   nonuniform List<vector> 
10000
(
(-0.0047408893 0.010262729 0)
(-0.013314146 0.010290565 0)
(-0.017506788 0.010363225 0)
(-0.023644389 0.01043544 0)
(-0.02921874 0.010514593 0)
(-0.034876837 0.010597878 0)
(-0.04048168 0.010679842 0)
(-0.046027825 0.01075786 0)
(-0.051513531 0.01082809 0)
(-0.056927373 0.010886177 0)
(-0.062257707 0.010928486 0)
(-0.067489628 0.010953974 0)
(-0.072601951 0.010957911 0)
(-0.077579339 0.010934238 0)
(-0.082409103 0.010881854 0)
(-0.087073459 0.010798204 0)
(-0.091555611 0.010681344 0)
(-0.095846535 0.010529551 0)
(-0.099933219 0.010343915 0)
(-0.10380416 0.010123871 0)
(-0.10746507 0.0098687903 0)
(-0.11092089 0.0095853988 0)
(-0.1141705 0.0092803581 0)
(-0.11722607 0.0089556819 0)
(-0.12010639 0.008616048 0)
(-0.12283427 0.008265324 0)
(-0.12543692 0.0079073552 0)
(-0.12794643 0.0075382071 0)
(-0.13040443 0.0071509754 0)
(-0.13285738 0.0067360675 0)
(-0.13535195 0.006287661 0)
(-0.13793084 0.0058034223 0)
(-0.14063866 0.0052826953 0)
(-0.14350441 0.0047363075 0)
(-0.14648314 0.0041736424 0)
(-0.14947233 0.0035613063 0)
(-0.15235323 0.0028472116 0)
(-0.15497203 0.0019658523 0)
(-0.15708971 0.00081783795 0)
(-0.15855722 -0.00077765885 0)
(-0.15915676 -0.0028949592 0)
(-0.15844513 -0.0055553563 0)
(-0.15589396 -0.0088685092 0)
(-0.15079336 -0.013001098 0)
(-0.14225313 -0.018166969 0)
(-0.1292482 -0.024625341 0)
(-0.11050156 -0.032584782 0)
(-0.084457263 -0.042096108 0)
(-0.049820265 -0.053028966 0)
(-0.0051344043 -0.064621202 0)
(0.050618766 -0.076965315 0)
(0.11443479 -0.086722665 0)
(0.18273267 -0.094182387 0)
(0.25354976 -0.098386128 0)
(0.32506136 -0.099225424 0)
(0.39445916 -0.094185632 0)
(0.45667977 -0.082874647 0)
(0.50676153 -0.066792882 0)
(0.54078007 -0.047407306 0)
(0.55602974 -0.026947107 0)
(0.55387269 -0.0076774798 0)
(0.5393797 0.0080862461 0)
(0.51691465 0.021247525 0)
(0.48923864 0.032805007 0)
(0.45835858 0.042897277 0)
(0.42606902 0.051286116 0)
(0.39372726 0.057861436 0)
(0.36228183 0.062654864 0)
(0.33237707 0.065741493 0)
(0.30435884 0.067213645 0)
(0.27832807 0.067181329 0)
(0.2542282 0.065796559 0)
(0.23191649 0.063280587 0)
(0.21122097 0.059918231 0)
(0.19198293 0.056014063 0)
(0.17407096 0.051845189 0)
(0.15738117 0.04762616 0)
(0.14183605 0.043501712 0)
(0.12736169 0.03955391 0)
(0.11390939 0.035838522 0)
(0.10145157 0.032375505 0)
(0.089928264 0.029167215 0)
(0.079299341 0.02621007 0)
(0.069530201 0.023492111 0)
(0.06057811 0.02100104 0)
(0.052410654 0.018726606 0)
(0.044996031 0.016656442 0)
(0.038301959 0.014770586 0)
(0.032290795 0.013051728 0)
(0.026912245 0.011489632 0)
(0.022129205 0.010084286 0)
(0.017924165 0.008833367 0)
(0.014270921 0.007710461 0)
(0.011136773 0.0067202164 0)
(0.0084573876 0.0058463339 0)
(0.0061749974 0.0050695221 0)
(0.0043768189 0.0043966343 0)
(0.0022686215 0.0038610524 0)
(0.00183005 0.00342457 0)
(-0.00054703401 0.0030414724 0)
(-0.0047064665 0.019769869 0)
(-0.0132404 0.019783007 0)
(-0.017398119 0.019849423 0)
(-0.023533645 0.019898418 0)
(-0.029099016 0.019955934 0)
(-0.034756371 0.020001254 0)
(-0.04036678 0.020037415 0)
(-0.04592449 0.020056867 0)
(-0.051428119 0.020052487 0)
(-0.056866283 0.020021965 0)
(-0.06222366 0.019960171 0)
(-0.067485838 0.019859144 0)
(-0.072635772 0.019719611 0)
(-0.077654996 0.019533574 0)
(-0.082527983 0.019300295 0)
(-0.087237916 0.019016123 0)
(-0.091768731 0.01868317 0)
(-0.09610815 0.018300617 0)
(-0.10024158 0.017870235 0)
(-0.10416122 0.017394148 0)
(-0.10786857 0.016876629 0)
(-0.11136249 0.016328565 0)
(-0.11464635 0.015761052 0)
(-0.11773482 0.015182018 0)
(-0.12064632 0.014601705 0)
(-0.12340377 0.014027815 0)
(-0.12603842 0.013467075 0)
(-0.12858622 0.012919958 0)
(-0.13109021 0.012384046 0)
(-0.13359814 0.011852995 0)
(-0.13615799 0.011316161 0)
(-0.13881704 0.01075612 0)
(-0.1416107 0.010145754 0)
(-0.1445499 0.009461959 0)
(-0.14761767 0.008681008 0)
(-0.15076085 0.0077410619 0)
(-0.15388742 0.0065578959 0)
(-0.15688433 0.0050234874 0)
(-0.15962279 0.0029877007 0)
(-0.16192722 0.00022525585 0)
(-0.16342157 -0.0034112908 0)
(-0.16370539 -0.0080851503 0)
(-0.16240694 -0.014052951 0)
(-0.15892982 -0.021705705 0)
(-0.15247023 -0.031556599 0)
(-0.14199307 -0.044189502 0)
(-0.12602347 -0.060127133 0)
(-0.10256936 -0.079696971 0)
(-0.069523418 -0.10270155 0)
(-0.025549552 -0.12763495 0)
(0.031456439 -0.15339067 0)
(0.09696422 -0.17056838 0)
(0.16598022 -0.18203877 0)
(0.23873988 -0.18716417 0)
(0.31659126 -0.1883536 0)
(0.39701935 -0.17802365 0)
(0.47030383 -0.15375876 0)
(0.52971982 -0.11941315 0)
(0.57078822 -0.076115003 0)
(0.58954133 -0.030983916 0)
(0.58559672 0.0068784627 0)
(0.56587476 0.035845871 0)
(0.53884185 0.058199629 0)
(0.50731419 0.075691966 0)
(0.47247407 0.08899623 0)
(0.43608926 0.098302735 0)
(0.39992559 0.10401028 0)
(0.36517905 0.1067245 0)
(0.33257312 0.10705047 0)
(0.30247179 0.10551199 0)
(0.27493625 0.10253794 0)
(0.24981865 0.098472477 0)
(0.22686523 0.093607478 0)
(0.20580058 0.08821026 0)
(0.18638384 0.082524876 0)
(0.16842678 0.076758031 0)
(0.15178958 0.071065607 0)
(0.13637017 0.065552061 0)
(0.12207988 0.060276095 0)
(0.10885629 0.055280428 0)
(0.096648098 0.050571392 0)
(0.085389265 0.046147945 0)
(0.075031051 0.042009098 0)
(0.065528384 0.03814274 0)
(0.056838862 0.034534351 0)
(0.048931503 0.031177692 0)
(0.041766238 0.028056566 0)
(0.035304166 0.025157265 0)
(0.029512875 0.022468491 0)
(0.024354333 0.0199848 0)
(0.019804748 0.017708487 0)
(0.01582192 0.015634172 0)
(0.012379084 0.013750467 0)
(0.0094510049 0.012050659 0)
(0.006949537 0.010523515 0)
(0.0048402969 0.0091633894 0)
(0.0032546592 0.0079698703 0)
(0.0013541945 0.0070091468 0)
(0.0010727385 0.00619812 0)
(-0.00093758717 0.0054653578 0)
(-0.0046683058 0.024169997 0)
(-0.013207556 0.024182512 0)
(-0.01736566 0.024232502 0)
(-0.023504856 0.024265708 0)
(-0.029072464 0.024292031 0)
(-0.034741244 0.024303357 0)
(-0.040364472 0.024293254 0)
(-0.045945685 0.024260135 0)
(-0.05147635 0.024194372 0)
(-0.056943995 0.024086638 0)
(-0.062342739 0.02393406 0)
(-0.067650015 0.023729153 0)
(-0.072847596 0.023466529 0)
(-0.077919749 0.023139963 0)
(-0.08284961 0.022747487 0)
(-0.087616792 0.022288012 0)
(-0.092202049 0.021761737 0)
(-0.096594903 0.021169569 0)
(-0.10077966 0.020519596 0)
(-0.10474319 0.019816336 0)
(-0.10848149 0.019071426 0)
(-0.11199271 0.018301987 0)
(-0.11528004 0.017521713 0)
(-0.11835523 0.016746757 0)
(-0.12123639 0.015997522 0)
(-0.12394859 0.015291955 0)
(-0.12652522 0.014646851 0)
(-0.12900624 0.014072426 0)
(-0.13143975 0.013573972 0)
(-0.13387891 0.013150336 0)
(-0.13637552 0.012791703 0)
(-0.13898121 0.012481894 0)
(-0.14174252 0.012196217 0)
(-0.14469104 0.01189311 0)
(-0.14783785 0.011502897 0)
(-0.15115962 0.010928005 0)
(-0.15459591 0.0100369 0)
(-0.15806499 0.0086667801 0)
(-0.1614471 0.0066443266 0)
(-0.16459185 0.0037835988 0)
(-0.16721594 -0.00011386435 0)
(-0.16897766 -0.0054216197 0)
(-0.16956917 -0.012576877 0)
(-0.16853918 -0.022108377 0)
(-0.16522258 -0.034753032 0)
(-0.1586198 -0.051454496 0)
(-0.1470235 -0.073341462 0)
(-0.12780065 -0.10147733 0)
(-0.098572387 -0.13562608 0)
(-0.058927334 -0.17315406 0)
(-0.0043886238 -0.20992513 0)
(0.065472877 -0.23029514 0)
(0.14608195 -0.24621861 0)
(0.23521238 -0.25528469 0)
(0.33794284 -0.26655752 0)
(0.44283294 -0.25204094 0)
(0.52824602 -0.2156919 0)
(0.58865191 -0.16706057 0)
(0.62293361 -0.10339597 0)
(0.62979517 -0.03326289 0)
(0.61621644 0.022886897 0)
(0.59144616 0.060591888 0)
(0.56016698 0.087424684 0)
(0.52413928 0.108587 0)
(0.48495183 0.12436417 0)
(0.44459133 0.1344258 0)
(0.40490587 0.13954098 0)
(0.3671207 0.14072308 0)
(0.33195499 0.13890497 0)
(0.29975571 0.13491568 0)
(0.27056138 0.12943203 0)
(0.24419885 0.12296636 0)
(0.22038445 0.11589884 0)
(0.19880187 0.10851731 0)
(0.1791573 0.10104681 0)
(0.16120179 0.093658561 0)
(0.14473605 0.086477627 0)
(0.12960095 0.07958769 0)
(0.11566633 0.073036429 0)
(0.10283902 0.066854534 0)
(0.091034685 0.061042996 0)
(0.080176199 0.055595081 0)
(0.070205352 0.050500174 0)
(0.061068132 0.045743922 0)
(0.05272468 0.041307553 0)
(0.045141175 0.037177405 0)
(0.038275185 0.033334177 0)
(0.032100718 0.029765998 0)
(0.026586545 0.026460953 0)
(0.021695961 0.023408641 0)
(0.01739444 0.020601647 0)
(0.013643516 0.018025345 0)
(0.010417795 0.015689194 0)
(0.00768625 0.013568184 0)
(0.0053847441 0.011664743 0)
(0.0034742595 0.0099858204 0)
(0.0021022025 0.0085035234 0)
(0.00040013626 0.0073305828 0)
(0.0002591976 0.0063390543 0)
(-0.0013834649 0.0054125799 0)
(-0.0046374336 0.029778235 0)
(-0.013181783 0.029798101 0)
(-0.017320055 0.029849144 0)
(-0.023482171 0.029886079 0)
(-0.02906653 0.029901268 0)
(-0.034755097 0.029902009 0)
(-0.040405855 0.029871093 0)
(-0.046015484 0.029807332 0)
(-0.051588231 0.029699937 0)
(-0.057107258 0.029535628 0)
(-0.062556733 0.029308909 0)
(-0.067922037 0.02901885 0)
(-0.073186076 0.028651648 0)
(-0.078327364 0.028202271 0)
(-0.083325902 0.027669394 0)
(-0.088162257 0.027053451 0)
(-0.092817564 0.026352344 0)
(-0.097271827 0.025569836 0)
(-0.10150806 0.024716939 0)
(-0.10551397 0.023802757 0)
(-0.10927881 0.022842633 0)
(-0.11280037 0.021856795 0)
(-0.11608258 0.020865601 0)
(-0.11913321 0.019893842 0)
(-0.12197015 0.018968177 0)
(-0.12461996 0.018114499 0)
(-0.12712038 0.017354875 0)
(-0.12951689 0.016704389 0)
(-0.13186288 0.016174409 0)
(-0.13422214 0.015767768 0)
(-0.13666112 0.015473363 0)
(-0.13924781 0.015266171 0)
(-0.14204733 0.015101808 0)
(-0.14511165 0.014914899 0)
(-0.14846658 0.014614241 0)
(-0.15211109 0.014078712 0)
(-0.1560193 0.013153688 0)
(-0.16012137 0.011658941 0)
(-0.16431235 0.0093967224 0)
(-0.16844779 0.0061349225 0)
(-0.17235265 0.0016286896 0)
(-0.17587602 -0.0045340241 0)
(-0.17880582 -0.012829703 0)
(-0.18086605 -0.023913853 0)
(-0.18169236 -0.038774967 0)
(-0.18045839 -0.058973108 0)
(-0.1753927 -0.086712915 0)
(-0.16451535 -0.12331059 0)
(-0.14781441 -0.16677495 0)
(-0.11946467 -0.21586751 0)
(-0.049138758 -0.27454956 0)
(0.065832266 -0.31334314 0)
(0.20274288 -0.34685065 0)
(0.34097396 -0.36000598 0)
(0.49405587 -0.39603435 0)
(0.63401154 -0.35238493 0)
(0.73017087 -0.27678848 0)
(0.77990901 -0.1993625 0)
(0.78247556 -0.10202056 0)
(0.73584739 -0.026148202 0)
(0.67119383 0.037473771 0)
(0.61957226 0.091631077 0)
(0.58171242 0.12646729 0)
(0.54333292 0.14970217 0)
(0.49869353 0.16601476 0)
(0.4518145 0.17544271 0)
(0.40694303 0.17865617 0)
(0.36549567 0.17703277 0)
(0.32779632 0.17199179 0)
(0.29387405 0.16472335 0)
(0.26353382 0.15612577 0)
(0.23644619 0.14683258 0)
(0.21223392 0.13727475 0)
(0.19051953 0.12774102 0)
(0.17095451 0.11842552 0)
(0.15323583 0.10945374 0)
(0.13711409 0.10090379 0)
(0.12238259 0.092815887 0)
(0.1088786 0.085206503 0)
(0.096485641 0.078072989 0)
(0.085100299 0.071395798 0)
(0.07463747 0.065150571 0)
(0.065039203 0.059312742 0)
(0.056251937 0.053856037 0)
(0.048234514 0.048758412 0)
(0.040956534 0.043993964 0)
(0.034378906 0.039544095 0)
(0.028474466 0.035391276 0)
(0.023210627 0.031519885 0)
(0.018555802 0.027914715 0)
(0.014484179 0.024567568 0)
(0.010970644 0.021478409 0)
(0.0079815712 0.018648665 0)
(0.0054798671 0.016073626 0)
(0.0034147686 0.013759183 0)
(0.0017268133 0.011709705 0)
(0.0006324353 0.0098816938 0)
(-0.00079057028 0.0083873497 0)
(-0.00076426256 0.0072242291 0)
(-0.001948981 0.0060209347 0)
(-0.0045896345 0.03562697 0)
(-0.013151665 0.035660888 0)
(-0.017278466 0.03571152 0)
(-0.023462206 0.035739074 0)
(-0.029066106 0.03574738 0)
(-0.034778734 0.035732177 0)
(-0.040465218 0.035681048 0)
(-0.046120422 0.035583578 0)
(-0.051747993 0.035428457 0)
(-0.057331622 0.035206317 0)
(-0.062851525 0.034906071 0)
(-0.068293941 0.03452017 0)
(-0.07364387 0.034039019 0)
(-0.078874276 0.033457523 0)
(-0.083962465 0.032771035 0)
(-0.088889144 0.031977914 0)
(-0.09363157 0.031079575 0)
(-0.098165815 0.030082201 0)
(-0.10247187 0.028995074 0)
(-0.10653272 0.027833166 0)
(-0.11033397 0.026615452 0)
(-0.11386966 0.025365822 0)
(-0.11713875 0.024115065 0)
(-0.1201474 0.022898516 0)
(-0.12291315 0.021748793 0)
(-0.12546425 0.020699699 0)
(-0.12784234 0.019784695 0)
(-0.13009542 0.019032302 0)
(-0.13228273 0.018463415 0)
(-0.1344805 0.018089891 0)
(-0.13676909 0.01790734 0)
(-0.13923366 0.017894756 0)
(-0.14196142 0.018005238 0)
(-0.14503308 0.018163374 0)
(-0.14851825 0.018262663 0)
(-0.15245766 0.018149366 0)
(-0.15684899 0.017634052 0)
(-0.16165132 0.016498193 0)
(-0.1667934 0.014490263 0)
(-0.17217449 0.011340615 0)
(-0.17770032 0.0067378702 0)
(-0.18326745 0.00032428776 0)
(-0.18883303 -0.0083177149 0)
(-0.19446259 -0.019896147 0)
(-0.20015122 -0.035672169 0)
(-0.20569623 -0.057817699 0)
(-0.21138489 -0.088451978 0)
(-0.21862691 -0.12788493 0)
(-0.21886753 -0.18015787 0)
(-0.16739461 -0.26618826 0)
(-0.012336541 -0.40012572 0)
(0.18386668 -0.47348303 0)
(0.38881038 -0.52438373 0)
(0.57735122 -0.52279314 0)
(0.76429601 -0.57479777 0)
(0.92534762 -0.49019059 0)
(1.043191 -0.35042775 0)
(1.1049641 -0.21939276 0)
(1.1052009 -0.049932853 0)
(1.0102482 0.11834486 0)
(0.84698341 0.14603736 0)
(0.69700433 0.14700786 0)
(0.60532127 0.15758804 0)
(0.55480411 0.18752271 0)
(0.50887589 0.21337344 0)
(0.45745315 0.22452597 0)
(0.40645003 0.22464297 0)
(0.36022646 0.21858755 0)
(0.3195891 0.20908736 0)
(0.28405001 0.19766686 0)
(0.25293546 0.18533421 0)
(0.22560892 0.17276495 0)
(0.20149589 0.16038441 0)
(0.18009195 0.14844486 0)
(0.16096603 0.13708645 0)
(0.14375758 0.12637736 0)
(0.12817617 0.11633859 0)
(0.11398643 0.10695632 0)
(0.10101135 0.098204802 0)
(0.089122123 0.090042915 0)
(0.078206595 0.08242147 0)
(0.068180772 0.075297693 0)
(0.05898914 0.068635248 0)
(0.050580913 0.062391823 0)
(0.04291852 0.056540331 0)
(0.035970219 0.051048312 0)
(0.029704515 0.045891715 0)
(0.024098746 0.041056043 0)
(0.019123683 0.036527494 0)
(0.014752404 0.032297724 0)
(0.010965294 0.028366056 0)
(0.0077317646 0.024730834 0)
(0.0050200044 0.021385245 0)
(0.0028013009 0.018336422 0)
(0.0010228224 0.015585367 0)
(-0.00039423466 0.013142766 0)
(-0.00122194 0.011008327 0)
(-0.0022638154 0.0091203183 0)
(-0.0020307789 0.0078035829 0)
(-0.0027098488 0.006250002 0)
(-0.0045315002 0.041303539 0)
(-0.013113798 0.041352795 0)
(-0.017230998 0.041412056 0)
(-0.023443123 0.041441958 0)
(-0.029070289 0.041453626 0)
(-0.034814732 0.041431993 0)
(-0.040546302 0.041368666 0)
(-0.046257884 0.041248338 0)
(-0.051950806 0.041059412 0)
(-0.057610771 0.040789259 0)
(-0.063220271 0.040425145 0)
(-0.068761625 0.039954148 0)
(-0.074214959 0.039367597 0)
(-0.079555164 0.038659387 0)
(-0.084758586 0.037820504 0)
(-0.089799633 0.03685015 0)
(-0.094651073 0.035751276 0)
(-0.099285729 0.034529143 0)
(-0.10367791 0.033195046 0)
(-0.10780612 0.031767855 0)
(-0.11165154 0.030271393 0)
(-0.11520062 0.028736995 0)
(-0.11844602 0.027203256 0)
(-0.1213937 0.025712586 0)
(-0.12406199 0.024309489 0)
(-0.12647556 0.023041459 0)
(-0.12867577 0.021955627 0)
(-0.13071845 0.021092614 0)
(-0.13267278 0.02048451 0)
(-0.1346289 0.020155192 0)
(-0.13668653 0.020109216 0)
(-0.13895607 0.020329876 0)
(-0.14155788 0.020769658 0)
(-0.14460572 0.02134042 0)
(-0.14820423 0.021920296 0)
(-0.15243365 0.022333806 0)
(-0.15733452 0.022346447 0)
(-0.16290246 0.021696552 0)
(-0.16908497 0.020115619 0)
(-0.17580241 0.017311535 0)
(-0.18298167 0.012986022 0)
(-0.1906069 0.0068916269 0)
(-0.19880121 -0.0013112475 0)
(-0.20779198 -0.01230313 0)
(-0.21817186 -0.027268537 0)
(-0.23283568 -0.046810678 0)
(-0.25827644 -0.071327504 0)
(-0.28669978 -0.11427765 0)
(-0.25583825 -0.21752818 0)
(-0.095998343 -0.4121298 0)
(0.13177411 -0.62535597 0)
(0.34368981 -0.70701217 0)
(0.55241163 -0.75114404 0)
(0.76831787 -0.74221522 0)
(0.97448625 -0.76102302 0)
(1.1493819 -0.65457673 0)
(1.3046416 -0.47598175 0)
(1.414125 -0.28813324 0)
(1.4509889 -0.059085697 0)
(1.3982246 0.22164746 0)
(1.2436384 0.35889633 0)
(0.99470865 0.3599867 0)
(0.75950903 0.28666989 0)
(0.60868949 0.25563383 0)
(0.52153449 0.26649486 0)
(0.45821961 0.27876941 0)
(0.40134113 0.2763918 0)
(0.35032111 0.264227 0)
(0.30671419 0.24845237 0)
(0.26989193 0.23168058 0)
(0.23850688 0.21489264 0)
(0.21146421 0.19861316 0)
(0.18794022 0.18314771 0)
(0.16727751 0.16864575 0)
(0.14894891 0.15515328 0)
(0.13253894 0.1426553 0)
(0.11772439 0.13109895 0)
(0.1042537 0.12040977 0)
(0.09194894 0.1105124 0)
(0.080674272 0.10132436 0)
(0.070316671 0.092767116 0)
(0.060803101 0.084779969 0)
(0.052079446 0.077307435 0)
(0.044100173 0.07029761 0)
(0.036835361 0.063712255 0)
(0.03025361 0.057515947 0)
(0.02433526 0.051679988 0)
(0.01906537 0.046192212 0)
(0.014415113 0.041038955 0)
(0.010366727 0.036214604 0)
(0.0068970694 0.031711726 0)
(0.0039739015 0.027533508 0)
(0.0015740242 0.023679828 0)
(-0.00033170906 0.020146241 0)
(-0.0017888527 0.016956163 0)
(-0.0028504919 0.014107929 0)
(-0.0034031265 0.011649272 0)
(-0.0040073504 0.0094102986 0)
(-0.0035468796 0.0079048525 0)
(-0.003664299 0.0059867236 0)
(-0.0044588675 0.046971253 0)
(-0.013067854 0.04704108 0)
(-0.017173421 0.047113514 0)
(-0.023413957 0.047156805 0)
(-0.029070276 0.047182578 0)
(-0.034854195 0.047166796 0)
(-0.040638164 0.047102661 0)
(-0.046415618 0.046973811 0)
(-0.052187974 0.046765042 0)
(-0.057941499 0.046459606 0)
(-0.063656702 0.04604104 0)
(-0.069315236 0.045497025 0)
(-0.074895036 0.044815561 0)
(-0.08037019 0.043986522 0)
(-0.085712411 0.04300006 0)
(-0.090890612 0.041853683 0)
(-0.095875937 0.040548795 0)
(-0.10063554 0.039092239 0)
(-0.10513611 0.037496715 0)
(-0.10934949 0.035784516 0)
(-0.1132488 0.033983956 0)
(-0.11681334 0.032132706 0)
(-0.12003182 0.030277698 0)
(-0.12290493 0.028471312 0)
(-0.12544483 0.026772195 0)
(-0.12767608 0.025245123 0)
(-0.12964498 0.023950814 0)
(-0.13141221 0.022942842 0)
(-0.13305227 0.022269807 0)
(-0.13466986 0.02197441 0)
(-0.13638665 0.022080543 0)
(-0.13833939 0.022584017 0)
(-0.14068925 0.023446223 0)
(-0.14359817 0.024580872 0)
(-0.1472255 0.025845098 0)
(-0.1517147 0.027027618 0)
(-0.15714387 0.027844582 0)
(-0.16351387 0.027986293 0)
(-0.1707912 0.02714737 0)
(-0.17891385 0.025019828 0)
(-0.1877757 0.021344159 0)
(-0.19730109 0.015950374 0)
(-0.20748678 0.0086044052 0)
(-0.2186127 -0.00097552019 0)
(-0.23357785 -0.011318168 0)
(-0.26293367 -0.018088675 0)
(-0.31257334 -0.033447066 0)
(-0.32486432 -0.12545004 0)
(-0.18094564 -0.37253501 0)
(0.063104685 -0.65878296 0)
(0.24943069 -0.85824635 0)
(0.43468503 -0.92870873 0)
(0.62382166 -0.95821051 0)
(0.82307482 -0.95437568 0)
(1.0346929 -0.95160106 0)
(1.2372408 -0.82734502 0)
(1.4017058 -0.60857568 0)
(1.4978846 -0.33858343 0)
(1.4974062 -0.026494348 0)
(1.4473134 0.29626866 0)
(1.3618956 0.52406044 0)
(1.1981672 0.58673417 0)
(0.95153082 0.52073654 0)
(0.70209267 0.4287288 0)
(0.54003667 0.36716635 0)
(0.45001043 0.34450216 0)
(0.38640692 0.3318028 0)
(0.3327259 0.31277868 0)
(0.28761441 0.28931254 0)
(0.25052033 0.2658196 0)
(0.21977508 0.24379812 0)
(0.19380278 0.22341987 0)
(0.17150759 0.20469145 0)
(0.15209965 0.18757377 0)
(0.13497789 0.17196894 0)
(0.11968888 0.15774427 0)
(0.10589172 0.14475159 0)
(0.093335581 0.13284723 0)
(0.081850394 0.1218959 0)
(0.071301301 0.11176961 0)
(0.061586732 0.10236242 0)
(0.052648287 0.093591928 0)
(0.044438985 0.085380134 0)
(0.036925676 0.077666231 0)
(0.030085333 0.070400911 0)
(0.023894737 0.063547012 0)
(0.018347408 0.057075816 0)
(0.013433846 0.050968295 0)
(0.0091268936 0.045215499 0)
(0.0054135307 0.039807223 0)
(0.0022788227 0.034735823 0)
(-0.00030113074 0.030015888 0)
(-0.0023641477 0.025651013 0)
(-0.0039185625 0.021642404 0)
(-0.0050091238 0.018013908 0)
(-0.0056838052 0.014766852 0)
(-0.0059209914 0.011939358 0)
(-0.0060075987 0.009393751 0)
(-0.0053345454 0.0076636006 0)
(-0.0048194783 0.0054002745 0)
(-0.0043691543 0.052658086 0)
(-0.013005437 0.052755823 0)
(-0.017097323 0.052850996 0)
(-0.023365549 0.052918451 0)
(-0.029053416 0.052967389 0)
(-0.034883812 0.05297145 0)
(-0.040726896 0.052921026 0)
(-0.046580196 0.052798358 0)
(-0.052444927 0.052582223 0)
(-0.058308613 0.05225539 0)
(-0.064149022 0.051797475 0)
(-0.069945786 0.051192028 0)
(-0.075676183 0.050423907 0)
(-0.08131214 0.049479656 0)
(-0.086822359 0.048348697 0)
(-0.092171064 0.047024226 0)
(-0.097321847 0.045505313 0)
(-0.10223572 0.043799949 0)
(-0.10687157 0.041921321 0)
(-0.11119301 0.039894009 0)
(-0.1151658 0.037750941 0)
(-0.11875868 0.035537118 0)
(-0.12195082 0.0333092 0)
(-0.12473645 0.031131761 0)
(-0.12712099 0.029077996 0)
(-0.12912665 0.027228439 0)
(-0.13080318 0.025662933 0)
(-0.13221522 0.024455441 0)
(-0.13344196 0.023675249 0)
(-0.13459966 0.023389728 0)
(-0.1358347 0.023649984 0)
(-0.13731848 0.024471901 0)
(-0.13925665 0.02583441 0)
(-0.14187577 0.027661107 0)
(-0.14540896 0.029794397 0)
(-0.15006651 0.031990312 0)
(-0.15597694 0.03390968 0)
(-0.16316976 0.035165918 0)
(-0.17161328 0.035381954 0)
(-0.18120008 0.034204315 0)
(-0.1916914 0.031339767 0)
(-0.20267252 0.026559998 0)
(-0.21368821 0.019874762 0)
(-0.22592911 0.013509931 0)
(-0.24761095 0.015762613 0)
(-0.29348384 0.028051916 0)
(-0.34007689 -0.010907017 0)
(-0.26877321 -0.23343447 0)
(-0.014894349 -0.64398107 0)
(0.15753735 -0.84651045 0)
(0.27369635 -1.0156634 0)
(0.40591223 -1.0830676 0)
(0.56320694 -1.1309747 0)
(0.76148296 -1.167572 0)
(0.98737879 -1.1657399 0)
(1.2004505 -1.0217162 0)
(1.3765483 -0.74784001 0)
(1.4874906 -0.38652221 0)
(1.5151577 0.0057389262 0)
(1.4601945 0.3661546 0)
(1.3638734 0.6452192 0)
(1.211529 0.78170337 0)
(0.98343338 0.75458503 0)
(0.74329994 0.64891152 0)
(0.55131265 0.51908585 0)
(0.42948648 0.43449626 0)
(0.3569054 0.39289603 0)
(0.30422414 0.36205528 0)
(0.26055666 0.33009093 0)
(0.22500398 0.29916544 0)
(0.19625111 0.2713606 0)
(0.17241198 0.24667942 0)
(0.15215543 0.22468495 0)
(0.13461038 0.20503703 0)
(0.1191526 0.18744651 0)
(0.10532724 0.17163874 0)
(0.092803708 0.15735512 0)
(0.081353525 0.14437165 0)
(0.070823663 0.13248618 0)
(0.061095657 0.12152884 0)
(0.052093647 0.1113654 0)
(0.043777576 0.10188706 0)
(0.036114411 0.092999464 0)
(0.029088312 0.084629728 0)
(0.022687963 0.076721973 0)
(0.016904748 0.069235601 0)
(0.011741531 0.062146333 0)
(0.007194257 0.055423968 0)
(0.0032434692 0.04907249 0)
(-0.00011969881 0.043074621 0)
(-0.0028970113 0.037436043 0)
(-0.0051105716 0.032170246 0)
(-0.0067959959 0.027284609 0)
(-0.0079666312 0.02279734 0)
(-0.0086606078 0.018714367 0)
(-0.00891115 0.015055828 0)
(-0.0087809572 0.011846873 0)
(-0.0082857384 0.0090221793 0)
(-0.007399054 0.0069778448 0)
(-0.0061783272 0.0044489981 0)
(-0.0042548394 0.058333238 0)
(-0.012917316 0.058467677 0)
(-0.016990207 0.058595438 0)
(-0.023286392 0.058704881 0)
(-0.029007531 0.058785824 0)
(-0.034886389 0.058828268 0)
(-0.040795361 0.058809794 0)
(-0.046736326 0.058710162 0)
(-0.05270758 0.058504396 0)
(-0.058695883 0.058172602 0)
(-0.064681317 0.057692704 0)
(-0.070641561 0.057040758 0)
(-0.07655109 0.056198932 0)
(-0.082378621 0.055149133 0)
(-0.08808943 0.053877854 0)
(-0.093643537 0.052375604 0)
(-0.098997389 0.050637625 0)
(-0.10410389 0.04866951 0)
(-0.10891264 0.046484745 0)
(-0.11337674 0.044107546 0)
(-0.11744976 0.04157679 0)
(-0.12108766 0.03894622 0)
(-0.12425955 0.036282092 0)
(-0.12694993 0.033661685 0)
(-0.12915542 0.031177566 0)
(-0.13089299 0.028929442 0)
(-0.13221198 0.027017501 0)
(-0.13318052 0.025540682 0)
(-0.13387983 0.024593316 0)
(-0.13443402 0.024272299 0)
(-0.13501506 0.024665352 0)
(-0.13582888 0.025827062 0)
(-0.13713125 0.02777129 0)
(-0.13923325 0.030451016 0)
(-0.14247076 0.033719385 0)
(-0.14715764 0.037274181 0)
(-0.15349678 0.040649327 0)
(-0.16153664 0.043361366 0)
(-0.1712345 0.044991045 0)
(-0.18241809 0.04500259 0)
(-0.19454065 0.042738823 0)
(-0.20654177 0.037864716 0)
(-0.21804189 0.032046383 0)
(-0.23309599 0.033368704 0)
(-0.262592 0.053363474 0)
(-0.30585575 0.063058984 0)
(-0.29038984 -0.06066925 0)
(-0.085404475 -0.4392494 0)
(0.10147026 -0.81243743 0)
(0.11584113 -0.91649764 0)
(0.1795069 -1.0958394 0)
(0.28679125 -1.2119438 0)
(0.4458939 -1.3081158 0)
(0.63625521 -1.4042489 0)
(0.8548195 -1.4023983 0)
(1.0605807 -1.2362844 0)
(1.2269276 -0.90850499 0)
(1.3384565 -0.46906567 0)
(1.3798404 0.0044630581 0)
(1.3363935 0.43596803 0)
(1.2266821 0.76916908 0)
(1.0629768 0.97847059 0)
(0.85214625 0.96044104 0)
(0.65787992 0.84360397 0)
(0.4976341 0.67541493 0)
(0.38027085 0.5364076 0)
(0.30905738 0.4563722 0)
(0.26206737 0.40857363 0)
(0.22397998 0.36787866 0)
(0.19275973 0.32980475 0)
(0.16777703 0.29627525 0)
(0.14731993 0.2674422 0)
(0.13000431 0.2424354 0)
(0.11497214 0.22053604 0)
(0.10164847 0.20122829 0)
(0.089624307 0.18408258 0)
(0.078614083 0.16872672 0)
(0.068437567 0.15484939 0)
(0.058976406 0.14218415 0)
(0.05014658 0.13052777 0)
(0.041907146 0.1197174 0)
(0.03424415 0.10961643 0)
(0.027145517 0.10011997 0)
(0.020616119 0.091144012 0)
(0.014661944 0.082632951 0)
(0.0092934257 0.074537136 0)
(0.0045179598 0.066846355 0)
(0.00034420557 0.059516134 0)
(-0.0032364231 0.052557445 0)
(-0.0062345144 0.045971013 0)
(-0.0086335349 0.039763867 0)
(-0.010457968 0.033938248 0)
(-0.011738066 0.028520424 0)
(-0.012489497 0.02352918 0)
(-0.012748341 0.01898207 0)
(-0.012541933 0.014894397 0)
(-0.011957069 0.011293167 0)
(-0.01088424 0.0082029057 0)
(-0.0097286863 0.0057661501 0)
(-0.0076800479 0.0030683284 0)
(-0.0041116501 0.063990932 0)
(-0.012796193 0.064171137 0)
(-0.016836964 0.064344831 0)
(-0.0231629 0.064510747 0)
(-0.028917403 0.064643809 0)
(-0.034842692 0.064743059 0)
(-0.040826119 0.064776509 0)
(-0.046864353 0.064720799 0)
(-0.052955793 0.064549537 0)
(-0.059085846 0.064234074 0)
(-0.065237589 0.063750848 0)
(-0.071386442 0.063071843 0)
(-0.077504454 0.062173994 0)
(-0.083558708 0.06103317 0)
(-0.089508542 0.059630314 0)
(-0.095309754 0.057951981 0)
(-0.1009121 0.055990139 0)
(-0.10625826 0.053745238 0)
(-0.1112879 0.051228279 0)
(-0.11593993 0.048464759 0)
(-0.12015143 0.045497869 0)
(-0.12386387 0.042386201 0)
(-0.12703298 0.039206165 0)
(-0.12962708 0.036055502 0)
(-0.13163021 0.033046536 0)
(-0.13305576 0.030299655 0)
(-0.13394989 0.027942425 0)
(-0.13437956 0.026100715 0)
(-0.134426 0.024892653 0)
(-0.13421456 0.024449004 0)
(-0.13393416 0.024909713 0)
(-0.13382538 0.026397431 0)
(-0.13419462 0.028988715 0)
(-0.13544009 0.032677662 0)
(-0.13806567 0.037321753 0)
(-0.14260268 0.042554671 0)
(-0.14933507 0.047796867 0)
(-0.15822059 0.052516688 0)
(-0.16928252 0.05617332 0)
(-0.18244391 0.057581923 0)
(-0.19652772 0.05543711 0)
(-0.21000505 0.050274339 0)
(-0.22479134 0.047741238 0)
(-0.2465978 0.060365391 0)
(-0.27492834 0.084148941 0)
(-0.27833342 0.044275818 0)
(-0.17150756 -0.19237597 0)
(0.048765775 -0.62889396 0)
(0.026222953 -0.79965957 0)
(-0.010737246 -0.94674133 0)
(0.064336212 -1.1880645 0)
(0.17504786 -1.3549484 0)
(0.31451361 -1.4747433 0)
(0.45063497 -1.6079106 0)
(0.60984902 -1.6074486 0)
(0.75661215 -1.411416 0)
(0.88145789 -1.0428528 0)
(0.98996603 -0.54596931 0)
(1.0562285 0.0019389675 0)
(1.054244 0.50024181 0)
(0.9810686 0.8861505 0)
(0.86759926 1.1464251 0)
(0.70656114 1.1356796 0)
(0.54518408 0.99783048 0)
(0.41258994 0.80948144 0)
(0.30985697 0.63255661 0)
(0.24544248 0.51578767 0)
(0.20733292 0.44891816 0)
(0.17821831 0.39940855 0)
(0.15408409 0.35526424 0)
(0.13474194 0.31690054 0)
(0.11894013 0.28456044 0)
(0.10545322 0.25710832 0)
(0.093553081 0.23346316 0)
(0.082790995 0.21287213 0)
(0.072858682 0.19475171 0)
(0.063559721 0.17862526 0)
(0.054785064 0.1641005 0)
(0.046471388 0.15085967 0)
(0.038588587 0.13867081 0)
(0.031135887 0.12734697 0)
(0.024133906 0.116727 0)
(0.017598859 0.10670236 0)
(0.011561859 0.097176737 0)
(0.0060459434 0.088114866 0)
(0.001089785 0.079440712 0)
(-0.0033014632 0.071150619 0)
(-0.0071154167 0.063229108 0)
(-0.010318507 0.055668941 0)
(-0.012926774 0.048488193 0)
(-0.014939381 0.041696931 0)
(-0.016359046 0.035296167 0)
(-0.017204434 0.029330057 0)
(-0.017504059 0.023816202 0)
(-0.017289394 0.018781787 0)
(-0.01658943 0.014247363 0)
(-0.015462768 0.010240662 0)
(-0.013826707 0.0068447879 0)
(-0.012302468 0.004025886 0)
(-0.0093077268 0.0011688367 0)
(-0.0039324597 0.069622792 0)
(-0.012629018 0.069862273 0)
(-0.016625918 0.070098519 0)
(-0.022975338 0.070334348 0)
(-0.028760841 0.070547559 0)
(-0.034734784 0.07072347 0)
(-0.040797076 0.070832877 0)
(-0.046939121 0.070846309 0)
(-0.053164414 0.070734291 0)
(-0.059456568 0.070461102 0)
(-0.065796153 0.069999648 0)
(-0.072159988 0.069317417 0)
(-0.078519569 0.068383622 0)
(-0.084839553 0.06716944 0)
(-0.091073744 0.065649149 0)
(-0.097171151 0.063802128 0)
(-0.103075 0.061614127 0)
(-0.10871914 0.059079097 0)
(-0.11402877 0.056204418 0)
(-0.11892523 0.053014921 0)
(-0.12332921 0.049553826 0)
(-0.12716364 0.045885435 0)
(-0.13035893 0.04209826 0)
(-0.13286416 0.038310465 0)
(-0.13465358 0.034657118 0)
(-0.13572779 0.031285119 0)
(-0.13612579 0.028355857 0)
(-0.13592061 0.026023857 0)
(-0.13518953 0.024431111 0)
(-0.13404052 0.023748611 0)
(-0.13265555 0.024180696 0)
(-0.13129655 0.025921731 0)
(-0.13034057 0.029145067 0)
(-0.1303311 0.033975924 0)
(-0.13199498 0.040394835 0)
(-0.13607615 0.048039704 0)
(-0.14288383 0.056044585 0)
(-0.1524721 0.06345537 0)
(-0.16548865 0.069340757 0)
(-0.18161405 0.07183045 0)
(-0.1981631 0.06969374 0)
(-0.2155504 0.066412498 0)
(-0.23938835 0.071226059 0)
(-0.26636423 0.087456482 0)
(-0.27100943 0.077865109 0)
(-0.20569639 -0.045278174 0)
(-0.038286821 -0.34767938 0)
(0.052866812 -0.66378717 0)
(-0.041143859 -0.74712573 0)
(-0.051111331 -0.9922664 0)
(-0.013270188 -1.2774612 0)
(0.055580155 -1.4646135 0)
(0.14709477 -1.5786228 0)