/*--------------------------------*- C++ -*----------------------------------*\
  =========                 |
  \\      /  F ield         | OpenFOAM: The Open Source CFD Toolbox
   \\    /   O peration     | Website:  https://openfoam.org
    \\  /    A nd           | Version:  9
     \\/     M anipulation  |
\*---------------------------------------------------------------------------*/
FoamFile
{
    format      ascii;
    class       surfaceScalarField;
    location    "0.15";
    object      alphaPhi0.phase1;
}
// * * * * * * * * * * * * * * * * * * * * * * * * * * * * * * * * * * * * * //

dimensions      [0 3 -1 0 0 0 0];

internalField   nonuniform List<scalar> 
8032
(
-3.06314e-314
3.04839e-321
-3.11911e-307
1.93078e-314
-1.37384e-300
8.97432e-308
-4.55821e-294
4.38932e-301
-1.12497e-287
1.05126e-294
-2.22714e-281
1.81442e-288
-3.76099e-275
2.20341e-282
-5.74705e-269
1.70442e-276
-8.05773e-263
-3.53127e-264
-5.5647e-257
-5.96656e-257
-1.58573e-251
-6.63545e-251
-1.17868e-246
-2.43818e-245
-8.65736e-243
-2.2032e-240
-4.13126e-240
-2.06201e-236
-4.38685e-239
-1.43769e-233
4.97329e-240
-3.15877e-232
5.42335e-239
-3.17572e-232
4.68732e-240
-1.46193e-233
8.87577e-243
-1.94782e-236
5.68174e-247
-9.88281e-241
4.30335e-252
-5.95701e-246
1.16183e-257
-1.21445e-251
1.53838e-263
-1.03204e-257
1.20014e-269
-2.47341e-264
7.84898e-276
1.97267e-277
4.90781e-282
3.37158e-283
2.79098e-288
3.37233e-289
1.35438e-294
2.57319e-295
5.12444e-301
1.51115e-301
1.30716e-307
6.4055e-308
1.6355e-314
1.70029e-314
2.04049e-321
-6.48711e-306
1.74551e-312
-4.10676e-299
8.84812e-306
-1.32762e-292
2.68587e-299
-2.99003e-286
6.40504e-293
-5.34408e-280
1.05953e-286
-8.04945e-274
1.31009e-280
-1.07848e-267
1.20905e-274
-1.34588e-261
6.95391e-269
-1.45649e-255
-1.82321e-256
-8.07451e-250
-9.63875e-250
-1.88168e-244
-8.38987e-244
-1.15589e-239
-2.51465e-238
-7.32227e-236
-1.87973e-233
-3.18608e-233
-1.51764e-229
-3.31171e-232
-9.60165e-227
2.16131e-233
-2.02511e-225
3.75688e-232
-2.03049e-225
3.42497e-233
-9.68004e-227
7.12478e-236
-1.40889e-229
5.23833e-240
-8.19031e-234
4.53812e-245
-5.64374e-239
1.39858e-250
-1.31506e-244
2.11639e-256
-1.28347e-250
1.86954e-262
-3.50761e-257
1.37787e-268
6.54625e-270
9.70056e-275
1.26597e-275
6.20316e-281
1.42503e-281
3.38009e-287
1.22103e-287
1.43434e-293
8.04264e-294
4.09991e-300
3.82015e-300
5.74499e-307
1.13602e-306
1.52604e-313
-2.2472e-298
1.04138e-304
-1.19035e-291
4.771e-298
-3.20849e-285
1.20946e-291
-5.91463e-279
2.10774e-285
-8.66855e-273
2.71823e-279
-1.08719e-266
2.70127e-273
-1.22894e-260
2.03123e-267
-1.30726e-254
9.11865e-262
-1.14985e-248
-2.15975e-249
-5.27966e-243
-6.85543e-243
-1.02006e-237
-4.84347e-237
-5.22253e-233
-1.19696e-231
-2.87053e-229
-7.45051e-227
-1.14262e-226
-5.21514e-223
-1.16635e-225
-3.00178e-220
2.22747e-227
-6.09839e-219
1.21152e-225
-6.10399e-219
1.1668e-226
-3.00988e-220
2.66918e-229
-4.78562e-223
2.25565e-233
-3.18777e-227
2.23764e-238
-2.51374e-232
7.88721e-244
-6.71974e-238
1.36978e-249
-7.61779e-244
1.36796e-255
-2.41084e-250
1.12739e-261
7.60997e-263
8.8596e-268
1.65157e-268
6.31162e-274
2.07326e-274
3.82452e-280
1.97614e-280
1.80241e-286
1.44532e-286
5.71803e-293
7.61717e-293
8.88773e-300
2.51318e-299
3.74391e-306
-2.75536e-291
1.79566e-297
-1.40976e-284
8.65859e-291
-3.42817e-278
1.95918e-284
-5.64167e-272
2.93188e-278
-7.29333e-266
3.24497e-272
-8.02638e-260
2.77214e-266
-7.94247e-254
1.78524e-260
-7.38748e-248
6.58637e-255
-5.48609e-242
-1.25459e-242
-2.11911e-236
-2.94899e-236
-3.41807e-231
-1.72163e-230
-1.46634e-226
-3.52793e-225
-7.0193e-223
-1.83705e-220
-2.55601e-220
-1.11956e-216
-2.54747e-219
-5.87618e-214
-1.76713e-221
-1.15391e-212
2.50973e-219
-1.15384e-212
2.53241e-220
-5.8741e-214
6.3555e-223
-1.01987e-216
6.16647e-227
-7.78014e-221
7.00703e-232
-7.01787e-226
2.834e-237
-2.15545e-231
5.71057e-243
-2.8694e-237
6.53582e-249
-1.06891e-243
6.10274e-255
5.16652e-256
5.42318e-261
1.2739e-261
4.35947e-267
1.80613e-267
2.97474e-273
1.9391e-273
1.57599e-279
1.59472e-279
5.61323e-286
9.43567e-286
9.79715e-293
3.49224e-292
5.84261e-299
-2.34199e-284
2.01277e-290
-1.10414e-277
9.34119e-284
-2.4639e-271
1.94993e-277
-3.665e-265
2.60402e-271
-4.22324e-259
2.53572e-265
-4.10375e-253
1.89137e-259
-3.56347e-247
1.0557e-253
-2.89651e-241
3.28802e-248
-1.83553e-235
-4.66486e-236
-5.98013e-230
-8.78335e-230
-8.06179e-225
-4.26523e-224
-2.90518e-220
-7.26368e-219
-1.21415e-216
-3.17336e-214
-4.0424e-214
-1.68965e-210
-3.91476e-213
-8.10247e-208
-6.29321e-215
-1.54318e-206
3.78367e-213
-1.54235e-206
3.96124e-214
-8.08757e-208
1.08738e-216
-1.53215e-210
1.20916e-220
-1.33694e-214
1.57212e-225
-1.37655e-219
7.30411e-231
-4.8458e-225
1.7263e-236
-7.63094e-231
2.30511e-242
-3.39193e-237
2.48815e-248
2.45258e-249
2.55078e-254
7.00073e-255
2.35992e-260
1.14321e-260
1.84906e-266
1.40982e-266
1.12281e-272
1.32881e-272
4.57815e-279
8.99931e-279
9.13366e-286
3.80978e-285
7.28145e-292
-1.76135e-277
1.9396e-283
-7.33258e-271
8.12209e-277
-1.45517e-264
1.52039e-270
-1.91342e-258
1.79056e-264
-1.93224e-252
1.51962e-258
-1.63403e-246
9.80807e-253
-1.22879e-240
4.71145e-247
-8.6207e-235
1.24727e-241
-4.64728e-229
-1.25031e-229
-1.27288e-223
-1.94327e-223
-1.43254e-218
-7.86028e-218
-4.34179e-214
-1.11353e-212
-1.58772e-210
-4.08899e-208
-4.83488e-208
-1.90759e-204
-4.54652e-207
-8.37089e-202
-7.84315e-209
-1.55121e-200
4.3834e-207
-1.5501e-200
4.73083e-208
-8.35093e-202
1.41746e-210
-1.72458e-204
1.80317e-214
-1.71843e-208
2.67596e-219
-2.01289e-213
1.42454e-224
-8.06616e-219
3.97898e-230
-1.50691e-224
6.299e-236
-8.07412e-231
8.01299e-242
8.75727e-243
9.66033e-248
2.94683e-248
1.04836e-253
5.64755e-254
9.61176e-260
8.15052e-260
6.81521e-266
8.97188e-266
3.23945e-272
7.08311e-272
7.53324e-279
3.49155e-278
7.7774e-285
-1.22762e-270
1.70205e-276
-4.37769e-264
6.18604e-270
-7.48837e-258
1.00531e-263
-8.47667e-252
1.01994e-257
-7.34274e-246
7.41005e-252
-5.30802e-240
4.07741e-246
-3.40323e-234
1.66518e-240
-2.03201e-228
3.73437e-235
-9.25231e-223
-2.56322e-223
-2.1212e-217
-3.32332e-217
-1.99047e-212
-1.11941e-211
-5.07735e-208
-1.32019e-206
-1.62803e-204
-4.07819e-202
-4.53817e-202
-1.67047e-198
-4.15044e-201
-6.71478e-196
-6.47394e-203
-1.21378e-194
4.01592e-201
-1.2129e-194
4.4499e-202
-6.69863e-196
1.45314e-204
-1.50706e-198
2.1107e-208
-1.71183e-202
3.56302e-213
-2.27307e-207
2.15861e-218
-1.02534e-212
7.14784e-224
-2.26796e-218
1.35801e-229
-1.47435e-224
2.06849e-235
2.42476e-236
2.97956e-241
9.76503e-242
3.85306e-247
2.23085e-247
4.19825e-253
3.82691e-253
3.53015e-259
4.9949e-259
1.98709e-265
4.66849e-265
5.46296e-272
2.7222e-271
7.16333e-278
-7.78324e-264
1.34599e-269
-2.32701e-257
4.13325e-263
-3.35565e-251
5.69215e-257
-3.20635e-245
4.88253e-251
-2.34249e-239
2.99028e-245
-1.42648e-233
1.38439e-239
-7.69788e-228
4.75267e-234
-3.86748e-222
8.96912e-229
-1.47744e-216
-4.14864e-217
-2.82566e-211
-4.50022e-211
-2.20958e-206
-1.26192e-205
-4.74434e-202
-1.23984e-200
-1.3361e-198
-3.21984e-196
-3.41152e-196
-1.15874e-192
-3.04061e-195
-4.26526e-190
-4.00019e-197
-7.53139e-189
2.95761e-195
-7.52638e-189
3.35576e-196
-4.25602e-190
1.19343e-198
-1.04386e-192
1.97569e-202
-1.35038e-196
3.78017e-207
-2.02848e-201
2.5774e-212
-1.01466e-206
1.01e-217
-2.63808e-212
2.3213e-223
-2.08609e-218
4.28453e-229
5.26716e-230
7.46464e-235
2.5684e-235
1.16435e-240
7.07913e-241
1.52614e-246
1.46084e-246
1.54008e-252
2.28844e-252
1.03844e-258
2.56195e-258
3.41857e-265
1.78701e-264
5.629e-271
-4.33814e-257
9.29513e-263
-1.07572e-250
2.3803e-256
-1.29066e-244
2.73787e-250
-1.02757e-238
1.95963e-244
-6.25798e-233
1.0004e-238
-3.1773e-227
3.8587e-233
-1.43017e-221
1.10407e-227
-5.9988e-216
1.74219e-222
-1.91353e-210
-5.3988e-211
-3.04722e-205
-4.90086e-205
-1.98566e-200
-1.1439e-199
-3.58505e-196
-9.3619e-195
-8.87081e-193
-2.03685e-190
-2.07373e-190
-6.42577e-187
-1.80351e-189
-2.15924e-184
-1.92639e-191
-3.7234e-183
1.76361e-189
-3.7213e-183
2.04638e-190
-2.15531e-184
7.93101e-193
-5.78396e-187
1.49504e-196
-8.53389e-191
3.23554e-201
-1.45278e-195
2.44592e-206
-7.92153e-201
1.12625e-211
-2.38981e-206
3.14262e-217
-2.29463e-212
7.08754e-223
8.99877e-224
1.50697e-228
5.35875e-229
2.86127e-234
1.79814e-234
4.5523e-240
4.50448e-240
5.56337e-246
8.54394e-246
4.53538e-252
1.15611e-251
1.8018e-258
9.73676e-258
3.69796e-264
-2.07791e-250
5.49858e-256
-4.23918e-244
1.16217e-249
-4.19732e-238
1.10594e-243
-2.76258e-232
6.55102e-238
-1.3923e-226
2.76732e-232
-5.85583e-221
8.83502e-227
-2.18648e-215
2.09488e-221
-7.62181e-210
2.75096e-216
-2.02457e-204
-5.71273e-205
-2.68219e-199
-4.33663e-199
-1.45578e-194
-8.41832e-194
-2.20194e-190
-5.72406e-189
-4.77593e-187
-1.03431e-184
-1.01893e-184
-2.83961e-181
-8.64524e-184
-8.63706e-179
-7.3098e-186
-1.45142e-177
8.49419e-184
-1.45076e-177
1.00839e-184
-8.62439e-179
4.2746e-187
-2.55602e-181
9.18874e-191
-4.32782e-185
2.2534e-195
-8.42314e-190
1.85669e-200
-4.92686e-195
9.91803e-206
-1.6933e-200
3.35635e-211
-1.9607e-206
9.29398e-217
1.20616e-217
2.42659e-222
8.82355e-223
5.64575e-228
3.6283e-228
1.09785e-233
1.11083e-233
1.63587e-239
2.56906e-239
1.62269e-245
4.22954e-245
7.83804e-252
4.32745e-251
1.99712e-257
-8.38527e-244
2.73323e-249
-1.40304e-237
4.7486e-243
-1.14138e-231
3.71889e-237
-6.18171e-226
1.81359e-231
-2.56746e-220
6.3102e-226
-8.9142e-215
1.66103e-220
-2.75356e-209
3.25333e-215
-7.96045e-204
3.54556e-210
-1.75831e-198
-4.95032e-199
-1.93585e-193
-3.13635e-193
-8.72721e-189
-5.04621e-188
-1.09618e-184
-2.82828e-183
-2.0688e-181
-4.16885e-179
-3.99409e-179
-9.80066e-176
-3.29951e-178
-2.64692e-173
-2.16769e-180
-4.31797e-172
3.25482e-178
-4.31643e-172
3.96227e-179
-2.64389e-173
1.85441e-181
-8.83342e-176
4.57387e-185
-1.74167e-179
1.28226e-189
-3.9529e-184
1.13326e-194
-2.45431e-189
6.89551e-200
-9.40317e-195
2.81216e-205
-1.29678e-200
9.57196e-211
1.26092e-211
3.07997e-216
1.13697e-216
8.82216e-222
5.75606e-222
2.10736e-227
2.16485e-227
3.84878e-233
6.13558e-233
4.67097e-239
1.23555e-238
2.75485e-245
1.54427e-244
8.6922e-251
-2.82195e-237
1.13167e-242
-3.86187e-231
1.6097e-236
-2.57471e-225
1.03391e-230
-1.14493e-219
4.13924e-225
-3.91186e-214
1.18348e-219
-1.11988e-208
2.56401e-214
-2.8598e-203
4.14346e-209
-6.85167e-198
3.74352e-204
-1.2564e-192
-3.5249e-193
-1.14558e-187
-1.85456e-187
-4.25579e-183
-2.45103e-182
-4.35978e-179
-1.1129e-177
-7.04476e-176
-1.29135e-173
-1.20735e-173
-2.51468e-170
-9.67496e-173
-5.76025e-168
-4.86986e-175
-9.07004e-167
9.5748e-173
-9.06757e-167
1.20006e-173
-5.75524e-168
6.33e-176
-2.27466e-170
1.81788e-179
-5.38734e-174
5.94252e-184
-1.48104e-178
5.57462e-189
-9.75198e-184
3.78094e-194
-4.08229e-189
1.83591e-199
-6.59174e-195
7.65608e-205
1.01889e-205
3.03821e-210
1.1331e-210
1.07442e-215
7.08219e-216
3.16478e-221
3.28427e-221
7.1135e-227
1.14559e-226
1.06036e-232
2.8333e-232
7.67262e-239
4.34197e-238
2.99572e-244
-7.84936e-231
3.86746e-236
-8.78278e-225
4.49969e-230
-4.79538e-219
2.36682e-224
-1.74986e-213
7.76861e-219
-4.91803e-208
1.82391e-213
-1.16128e-202
3.25194e-208
-2.45217e-197
4.33712e-203
-4.86343e-192
3.24765e-198
-7.37185e-187
-2.05883e-187
-5.51725e-182
-8.89297e-182
-1.66e-177
-9.47391e-177
-1.3385e-173
-3.36601e-172
-1.79124e-170
-2.84803e-168
-2.60315e-168
-4.25388e-165
-2.01224e-167
-7.11759e-163
-7.67874e-170
-1.07076e-161
1.99649e-167
-1.07054e-161
2.59136e-168
-7.113e-163
1.61663e-170
-3.88268e-165
5.57637e-174
-1.18761e-168
2.20789e-178
-4.27318e-173
2.19643e-183
-3.01745e-178
1.62764e-188
-1.36451e-183
9.25313e-194
-2.53481e-189
4.68708e-199
6.28164e-200
2.28708e-204
8.58908e-205
9.99203e-210
6.63212e-210
3.63808e-215
3.80169e-215
1.00967e-220
1.63706e-220
1.85542e-226
4.9904e-226
1.65175e-232
9.41283e-232
7.97925e-238
-1.79809e-224
1.08747e-229
-1.64445e-218
1.03363e-223
-7.35515e-213
4.44984e-218
-2.20419e-207
1.19759e-212
-5.10157e-202
2.31032e-207
-9.94478e-197
3.39342e-202
-1.73544e-191
3.73812e-197
-2.83742e-186
2.31757e-192
-3.51748e-181
-9.76084e-182
-2.12072e-176
-3.38078e-176
-4.99158e-172
-2.79901e-171
-2.93443e-168
-7.22439e-167
-3.01168e-165
-3.58024e-163
-3.19638e-163
-3.14829e-160
-2.35954e-162
-8.99684e-160
-6.77472e-165
-2.12895e-159
2.34568e-162
-2.12875e-159
3.18562e-163
-8.99503e-160
2.74437e-165
-2.97068e-160
1.22246e-168
-1.49935e-163
6.33472e-173
-8.7483e-168
6.75809e-178
-6.83344e-173
5.40991e-183
-3.35941e-178
3.53874e-188
-7.09556e-184
2.14793e-193
2.89276e-194
1.27857e-198
4.82444e-199
6.88468e-204
4.59114e-204
3.10103e-209
3.25546e-209
1.06497e-214
1.73471e-214
2.41892e-220
6.53582e-220
2.65868e-226
1.52134e-225
1.59044e-231
-3.38077e-218
2.50613e-223
-2.53048e-212
1.94733e-217
-9.28476e-207
6.86626e-212
-2.28872e-201
1.51682e-206
-4.36784e-196
2.40787e-201
-7.02718e-191
2.91707e-196
-1.00933e-185
2.65315e-191
-1.34515e-180
1.35589e-186
-1.33303e-175
-3.65787e-176
-6.24273e-171
-9.68559e-171
-1.06721e-166
-5.7769e-166
-3.6742e-163
-8.74502e-162
-2.21792e-160
-8.27565e-160
-2.69967e-160
-1.33162e-158
-4.06991e-160
-6.99113e-159
-8.74842e-163
-8.32149e-158
4.05207e-160
-8.32066e-158
2.717e-160
-6.98803e-159
2.09133e-160
-1.14911e-158
1.53765e-163
-6.95926e-160
1.29206e-167
-1.00885e-162
1.52476e-172
-9.71902e-168
1.32699e-177
-5.54809e-173
9.87157e-183
-1.35494e-178
7.05604e-188
9.53551e-189
5.05179e-193
1.91238e-193
3.3292e-198
2.22721e-198
1.85101e-203
1.94937e-203
7.86905e-209
1.28569e-208
2.21273e-214
5.99604e-214
3.00664e-220
1.72603e-219
2.22776e-225
-5.21647e-212
4.7321e-217
-3.19997e-206
3.00775e-211
-9.64935e-201
8.69766e-206
-1.95944e-195
1.57987e-200
-3.08268e-190
2.06663e-195
-4.07581e-185
2.06443e-190
-4.76145e-180
1.54357e-185
-5.04353e-175
6.42354e-181
-3.81153e-170
-1.01985e-170
-1.2854e-165
-1.84839e-165
-1.28855e-161
-6.41092e-161
-8.19251e-160
-1.93271e-159
-8.57205e-160
-4.125e-159
-4.25814e-157
-4.63592e-156
-3.54035e-155
-8.93738e-154
-5.68186e-158
-1.1647e-152
3.52858e-155
-1.16462e-152
4.1851e-157
-8.93367e-154
6.66211e-160
-3.26582e-156
7.0952e-160
-8.81042e-160
1.48632e-162
-4.15978e-160
2.16329e-167
-5.28049e-163
2.18623e-172
-4.94318e-168
1.88109e-177
-1.59186e-173
1.56888e-182
2.1254e-183
1.32979e-187
5.04525e-188
1.06011e-192
7.10754e-193
7.23195e-198
7.6323e-198
3.79669e-203
6.21627e-203
1.32086e-208
3.58665e-208
2.22074e-214
1.27707e-213
2.03808e-219
-6.60305e-206
7.31427e-211
-3.32707e-200
3.81031e-205
-8.25774e-195
9.05352e-200
-1.38071e-189
1.354e-194
-1.78201e-184
1.45871e-189
-1.91106e-179
1.19563e-184
-1.76633e-174
7.25291e-180
-1.40728e-169
2.39027e-175
-7.26523e-165
-1.80002e-165
-1.42428e-160
-1.51204e-160
-2.17939e-159
-7.30866e-159
-7.12429e-159
-7.65742e-158
-4.11896e-155
-4.82687e-154
-6.63211e-152
-6.22825e-151
-4.99672e-150
-1.09535e-148
-5.98526e-153
-1.35848e-147
4.98441e-150
-1.35842e-147
6.50965e-152
-1.09493e-148
1.80017e-155
-4.28365e-151
5.29367e-159
-5.70669e-156
6.12903e-160
-1.67026e-158
1.17345e-162
-1.26725e-160
1.94483e-167
-2.40706e-163
2.20741e-172
-1.39668e-168
2.23316e-177
3.03078e-178
2.24587e-182
8.53417e-183
2.14023e-187
1.43706e-187
1.76974e-192
1.87047e-192
1.13792e-197
1.86566e-197
4.87676e-203
1.3259e-202
1.01243e-208
5.8311e-208
1.15017e-213
-6.86329e-200
9.26486e-205
-2.84348e-194
3.96178e-199
-5.80276e-189
7.7429e-194
-7.94135e-184
9.52394e-189
-8.28147e-179
8.39965e-184
-6.97881e-174
5.56363e-179
-4.78781e-169
2.65262e-174
-2.48606e-164
6.49382e-170
-5.93888e-160
-8.86482e-161
-6.0901e-159
-8.63525e-159
-1.2428e-157
-6.01163e-157
-1.04883e-153
-1.12012e-152
-6.06636e-150
-6.04856e-149
-8.51877e-147
-6.90096e-146
-5.79842e-145
-1.10589e-143
-5.1912e-148
-1.30354e-142
5.78782e-145
-1.3035e-142
8.35124e-147
-1.10547e-143
2.51993e-150
-4.62697e-146
6.02533e-156
-8.11865e-151
3.35506e-157
-2.07184e-155
2.81514e-160
-4.19627e-157
9.46097e-163
-8.41915e-161
1.93567e-167
-9.75494e-164
2.68925e-172
3.65476e-173
3.36041e-177
1.27835e-177
3.80014e-182
2.55426e-182
3.69166e-187
3.90557e-187
2.81051e-192
4.61237e-192
1.44416e-197
3.93009e-197
3.63677e-203
2.09606e-202
5.05974e-208
-5.84622e-194
9.60932e-199
-1.98779e-188
3.37577e-193
-3.30914e-183
5.41542e-188
-3.63735e-178
5.43476e-183
-2.9477e-173
3.8503e-178
-1.8019e-168
1.98211e-173
-7.58418e-164
6.85633e-169
-1.22539e-159
1.03054e-164
-1.25227e-159
-1.20514e-160
-1.40257e-156
-2.1165e-156
-1.85504e-152
-8.72643e-152
-1.49307e-148
-1.36838e-147
-7.37259e-145
-6.24856e-144
-9.02408e-142
-6.31014e-141
-5.53404e-140
-9.20463e-139
-3.72284e-143
-1.02963e-137
5.52651e-140
-1.02962e-137
8.83354e-142
-9.20067e-139
2.90182e-145
-4.11794e-141
8.64928e-151
-9.53693e-146
5.96808e-153
-3.06822e-150
9.89015e-157
-7.58137e-153
3.30644e-160
-5.20896e-157
1.35175e-162
-4.5104e-161
3.62829e-167
4.93623e-168
6.72245e-172
2.55935e-172
9.97232e-177
6.70778e-177
1.19265e-181
1.26265e-181
1.08778e-186
1.78629e-186
6.6577e-192
1.81278e-191
2.0059e-197
1.15698e-196
3.36903e-202
-4.06001e-188
8.14005e-193
-1.1243e-182
2.34455e-187
-1.49895e-177
3.06381e-182
-1.27286e-172
2.46289e-177
-7.37441e-168
1.34813e-172
-2.62721e-163
4.96196e-168
-1.88935e-159
1.00077e-163
-2.11045e-159
5.13051e-160
-8.54375e-156
-2.2709e-156
-2.0578e-151
-3.05836e-151
-2.31229e-147
-1.04416e-146
-1.75053e-143
-1.37823e-142
-7.39752e-140
-5.3254e-139
-7.88818e-137
-4.7651e-136
-4.34513e-135
-6.32035e-134
-2.21032e-138
-6.69858e-133
4.34071e-135
-6.69854e-133
7.7085e-137
-6.31709e-134
2.75111e-140
-3.02257e-136
1.02762e-145
-9.24856e-141
8.00101e-148
-3.73838e-145
5.87001e-152
-1.02872e-147
1.49339e-156
-3.10479e-152
6.23778e-160
-1.85744e-157
3.88094e-162
5.30672e-163
1.31976e-166
5.02759e-167
2.78082e-171
1.87148e-171
4.29438e-176
4.54858e-176
4.84027e-181
7.95208e-181
3.5914e-186
9.78312e-186
1.30481e-191
7.52806e-191
2.64811e-196
-2.27276e-182
5.58971e-187
-5.04561e-177
1.31264e-181
-5.19977e-172
1.37525e-176
-3.15033e-167
8.54626e-172
-1.04231e-162
3.33793e-167
-2.50263e-159
7.0244e-163
-3.28972e-159
1.90149e-159
-3.2297e-155
3.40058e-157
-1.24167e-150
-3.26984e-151
-2.49157e-146
-3.63801e-146
-2.3836e-142
-1.02981e-141
-1.69112e-138
-1.14525e-137
-6.1312e-135
-3.74695e-134
-5.69313e-132
-2.9739e-131
-2.80751e-130
-3.58292e-129
-1.08966e-133
-3.59161e-128
2.80535e-130
-3.59161e-128
5.55291e-132
-3.58061e-129
2.1495e-135
-1.83162e-131
1.01075e-140
-7.40455e-136
8.86458e-143
-3.74747e-140
8.62631e-147
-1.1515e-142
1.6353e-151
-4.57799e-147
7.36116e-157
-2.03627e-152
1.37124e-159
3.37791e-160
1.63688e-161
6.33469e-162
6.05373e-166
4.07575e-166
1.30343e-170
1.38109e-170
1.88856e-175
3.10366e-175
1.73642e-180
4.73117e-180
7.68892e-186
4.43786e-185
1.8925e-190
-1.00837e-176
3.08127e-181
-1.73727e-171
5.82388e-176
-1.28187e-166
4.73572e-171
-4.42714e-162
2.10733e-166
-3.06437e-159
4.71368e-162
-5.88217e-159
4.09144e-159
-1.14108e-154
3.77993e-156
-4.67986e-150
5.9336e-152
-1.48718e-145
-3.87507e-146
-2.49201e-141
-3.56569e-141
-2.03399e-137
-8.38923e-137
-1.34684e-133
-7.85687e-133
-4.19957e-130
-2.17808e-129
-3.39455e-127
-1.53504e-126
-1.49328e-125
-1.67815e-124
-4.47314e-129
-1.58816e-123
1.4924e-125
-1.58817e-123
3.30414e-127
-1.67678e-124
1.38569e-130
-9.17382e-127
8.23378e-136
-4.89431e-131
8.11408e-138
-3.09072e-135
1.04236e-141
-1.06308e-137
2.42496e-146
-5.54699e-142
1.19732e-151
-3.02164e-147
7.41503e-159
3.25558e-156
4.49379e-159
3.49413e-159
7.36585e-161
5.27269e-161
2.8151e-165
2.9836e-165
5.71616e-170
9.39619e-170
6.77301e-175
1.84585e-174
3.72029e-180
2.14748e-179
1.11656e-184
-3.47318e-171
1.36414e-175
-4.28958e-166
2.0061e-170
-1.8006e-161
1.16945e-165
-3.57828e-159
3.01894e-161
-1.47106e-158
7.3638e-159
-4.53839e-154
2.85021e-155
-1.65059e-149
6.56192e-151
-5.58711e-145
8.50716e-147
-1.4696e-140
-3.78208e-141
-2.0635e-136
-2.88286e-136
-1.43858e-132
-5.68566e-132
-8.8476e-129
-4.45327e-128
-2.37827e-125
-1.04682e-124
-1.67314e-122
-6.55802e-122
-6.54069e-121
-6.49951e-120
-1.53335e-124
-5.79601e-119
6.53772e-121
-5.79603e-119
1.62501e-122
-6.49273e-120
7.38039e-126
-3.80248e-122
5.55761e-131
-2.67094e-126
6.13828e-133
-2.09733e-130
1.03545e-136
-8.09863e-133
2.95323e-141
-5.52221e-137
1.7797e-146
-3.68124e-142
6.93389e-154
5.92649e-151
8.49589e-155
1.43303e-154
9.07838e-159
1.41689e-158
3.13438e-160
4.149e-160
1.18758e-164
1.9525e-164
2.01666e-169
5.49663e-169
1.44518e-174
8.34414e-174
5.42088e-179
-8.57466e-166
4.7402e-170
-5.93101e-161
4.95274e-165
-5.12437e-159
1.74297e-160
-5.18262e-158
1.59015e-158
-1.93177e-153
1.93232e-154
-6.53839e-149
4.91457e-150
-1.96665e-144
9.35484e-146
-5.50008e-140
1.00273e-141
-1.19969e-135
-3.04095e-136
-1.42407e-131
-1.92316e-131
-8.77933e-128
-3.20714e-127
-4.79675e-124
-2.08691e-123
-1.114e-120
-4.16307e-120
-6.82107e-118
-2.32064e-117
-2.36027e-116
-2.08338e-115
-4.39698e-120
-1.74729e-114
2.35943e-116
-1.7473e-114
6.60973e-118
-2.08062e-115
3.2526e-121
-1.30609e-117
3.10961e-126
-1.20348e-121
3.83942e-128
-1.17109e-125
8.45393e-132
-5.0936e-128
2.95332e-136
-4.516e-132
2.17147e-141
-3.6815e-137
1.04569e-148
8.85697e-146
1.28448e-149
2.20936e-149
6.64641e-157
1.6849e-153
1.39903e-158
7.00524e-158
9.61946e-160
2.68322e-159
3.68912e-164
1.00571e-163
4.05118e-169
2.33918e-168
2.04835e-173
-1.10775e-160
1.13872e-164
-8.08814e-159
7.88803e-160
-1.93686e-157
4.44757e-158
-8.24941e-153
1.19412e-153
-2.76341e-148
3.3003e-149
-7.75242e-144
6.95108e-145
-1.93094e-139
1.09534e-140
-4.46678e-135
9.71862e-137
-8.09394e-131
-2.01492e-131
-8.19088e-127
-1.05867e-126
-4.83934e-123
-1.49674e-122
-2.14748e-119
-8.09173e-119
-4.31742e-116
-1.37103e-115
-2.3014e-113
-6.80691e-113
-7.02067e-112
-5.53226e-111
-1.0566e-115
-4.35545e-110
7.01865e-112
-4.35548e-110
2.22487e-113
-5.52304e-111
1.18804e-116
-3.72299e-113
1.44295e-121
-4.47772e-117
1.98667e-123
-5.38128e-121
5.67169e-127
-2.64643e-123
2.42477e-131
-3.03312e-127
2.17455e-136
-3.02169e-132
1.29699e-143
1.0865e-140
1.59768e-144
2.81092e-144
1.01549e-151
2.56179e-148
2.91428e-156
1.16346e-152
2.34413e-159
4.34378e-157
1.53379e-159
8.3392e-159
6.30562e-164
3.64208e-163
5.36135e-168
-1.0059e-158
1.91962e-159
-6.05133e-157
1.41572e-157
-3.23104e-152
6.32768e-153
-1.16692e-147
2.01245e-148
-3.24909e-143
4.61538e-144
-7.56783e-139
8.06376e-140
-1.56313e-134
1.05346e-135
-2.99433e-130
7.7472e-132
-4.51438e-126
-1.10123e-126
-3.90525e-122
-4.81453e-122
-2.20258e-118
-5.78131e-118
-7.94367e-115
-2.59781e-114
-1.38482e-111
-3.74224e-111
-6.42942e-109
-1.65624e-108
-1.72239e-107
-1.21819e-106
-2.13001e-111
-8.98725e-106
1.72199e-107
-8.98729e-106
6.20104e-109
-1.21567e-106
3.6027e-112
-8.82007e-109
5.55544e-117
-1.37591e-112
8.50985e-119
-2.03525e-116
3.12608e-122
-1.13665e-118
1.63418e-126
-1.67275e-122
1.78694e-131
-2.03507e-127
1.32344e-138
1.09396e-135
1.63517e-139
2.95276e-139
1.28745e-146
3.207e-143
4.43332e-151
1.75065e-147
1.25509e-155
7.81044e-152
2.62568e-159
2.48835e-156
1.18263e-159
1.36306e-158
8.00928e-163
-1.11373e-156
3.00421e-157
-1.00381e-151
2.51142e-152
-4.49376e-147
1.04688e-147
-1.35381e-142
2.76942e-143
-3.14076e-138
5.28315e-139
-6.08624e-134
7.67284e-135
-1.04424e-129
8.32513e-131
-1.65876e-125
5.08232e-127
-2.08439e-121
-4.97185e-122
-1.54458e-117
-1.81237e-117
-8.28037e-114
-1.84929e-113
-2.42917e-110
-6.91046e-110
-3.67673e-107
-8.47273e-107
-1.48793e-104
-3.34542e-104
-3.48767e-103
-2.22672e-102
-3.60363e-107
-1.53715e-101
3.48699e-103
-1.53715e-101
1.43177e-104
-2.22108e-102
9.08567e-108
-1.73925e-104
1.77537e-112
-3.49256e-108
3.02016e-114
-6.33695e-112
1.41526e-117
-4.03928e-114
9.03899e-122
-7.57341e-118
1.20471e-126
-1.12439e-122
1.1113e-133
9.04001e-131
1.37736e-134
2.56227e-134
1.34716e-141
3.30642e-138
5.55541e-146
2.16419e-142
1.88156e-150
1.15861e-146
4.25286e-155
4.43339e-151
2.02494e-159
1.07106e-155
1.74953e-158
-1.80203e-151
5.44986e-152
-1.36169e-146
4.05225e-147
-5.10705e-142
1.40791e-142
-1.28799e-137
3.10877e-138
-2.49718e-133
4.94832e-134
-4.03601e-129
5.98942e-130
-5.76419e-125
5.40899e-126
-7.6066e-121
2.74646e-122
-7.98417e-117
-1.85947e-117
-5.07245e-113
-5.67011e-113
-2.57192e-109
-4.9012e-109
-6.14407e-106
-1.52418e-105
-8.08092e-103
-1.59252e-102
-2.85348e-100
-5.61383e-100
-5.83393e-99
-3.38255e-98
-5.11594e-103
-2.18254e-97
5.83295e-99
-2.18255e-97
2.73969e-100
-3.37221e-98
1.90858e-103
-2.8589e-100
4.71103e-108
-7.32602e-104
8.89066e-110
-1.62479e-107
5.26185e-113
-1.18898e-109
4.10262e-117
-2.81441e-113
6.66191e-122
-5.09525e-118
7.68191e-129
6.13043e-126
9.5512e-130
1.83761e-129
1.16405e-136
2.80833e-133
5.73099e-141
2.19772e-137
2.31375e-145
1.40719e-141
6.23532e-150
6.44435e-146
8.30501e-155
1.86706e-150
2.52276e-155
-2.35829e-146
8.51663e-147
-1.49972e-141
5.27528e-142
-4.73738e-137
1.53529e-137
-1.00477e-132
2.84318e-133
-1.63425e-128
3.79146e-129
-2.20995e-124
3.83747e-125
-2.63453e-120
2.89257e-121
-2.89599e-116
1.2248e-117
-2.54769e-112
-5.78709e-113
-1.3854e-108
-1.50625e-108
-6.60119e-105
-1.07671e-104
-1.2859e-101
-2.78919e-101
-1.4702e-98
-2.487e-98
-4.53568e-96
-7.83222e-96
-8.06985e-95
-4.27541e-94
-6.09145e-99
-2.57717e-93
8.06868e-95
-2.57717e-93
4.34577e-96
-4.25989e-94
3.34412e-99
-3.9227e-96
1.03826e-103
-1.27046e-99
2.17383e-105
-3.43176e-103
1.60632e-108
-2.90278e-105
1.52776e-112
-8.58303e-109
3.02113e-117
-1.89339e-113
4.37316e-124
3.41131e-121
5.45423e-125
1.08969e-124
8.31002e-132
1.96563e-128
4.86664e-136
1.83291e-132
2.33119e-140
1.39778e-136
7.45079e-145
7.62413e-141
1.17849e-149
2.63566e-145
4.27076e-150
-2.47731e-141
1.061e-141
-1.33644e-136
5.508e-137
-3.58169e-132
1.3529e-132
-6.4275e-128
2.11562e-128
-8.81346e-124
2.3766e-124
-1.0013e-119
2.02022e-120
-1.00016e-115
1.2757e-116
-9.19589e-112
4.5212e-113
-6.90363e-108
-1.49279e-108
-3.33277e-104
-3.33632e-104
-1.4001e-100
-1.96138e-100
-2.22777e-97
-4.23747e-97
-2.21385e-94
-3.22975e-94
-5.97611e-92
-9.09242e-92
-9.24318e-91
-4.50236e-90
-6.08003e-95
-2.53619e-89
9.242e-91
-2.53619e-89
5.71509e-92
-4.48329e-90
4.89249e-95
-4.49877e-92
1.90071e-99
-1.82251e-95
4.4216e-101
-5.97348e-99
4.02563e-104
-5.88684e-101
4.66702e-108
-2.14771e-104
1.12336e-112
-5.7684e-109
2.0512e-119
1.55746e-116
2.56585e-120
5.34489e-120
4.90355e-127
1.13411e-123
3.401e-131
1.25509e-127
1.9215e-135
1.13389e-131
7.23088e-140
7.31668e-136
1.34759e-144
2.99555e-140
5.7908e-145
-2.06817e-136
1.03898e-136
-9.57958e-132
4.56764e-132
-2.2005e-127
9.58092e-128
-3.36694e-123
1.27737e-123
-3.91367e-119
1.21717e-119
-3.7501e-115
8.73063e-116
-3.14731e-111
4.6337e-112
-2.42524e-107
1.37795e-108
-1.55847e-103
-3.18968e-104
-7.1891e-100
-6.12498e-100
-2.45376e-96
-2.96364e-96
-3.19572e-93
-5.34802e-93
-2.75861e-90
-3.49098e-90
-6.52643e-88
-8.7908e-88
-8.78142e-87
-3.95621e-86
-5.08583e-91
-2.08545e-85
8.78042e-87
-2.08545e-85
6.23105e-88
-3.93702e-86
5.9807e-91
-4.31789e-88
2.9736e-95
-2.16419e-91
7.49325e-97
-8.5733e-95
8.28044e-100
-9.9318e-97
1.16935e-103
-4.40867e-100
3.42441e-108
-1.44055e-104
7.93115e-115
5.83375e-112
9.94799e-116
2.16915e-115
2.39255e-122
5.39573e-119
1.95488e-126
7.05351e-123
1.29265e-130
7.4965e-127
5.66915e-135
5.66728e-131
1.22986e-139
2.71566e-135
6.1981e-140
-1.3487e-131
7.78836e-132
-5.47293e-127
2.95841e-127
-1.09415e-122
5.40823e-123
-1.44234e-118
6.23798e-119
-1.43087e-114
5.08856e-115
-1.16139e-110
3.09731e-111
-8.21163e-107
1.38641e-107
-5.31139e-103
3.46724e-104
-2.9188e-99
-5.66041e-100
-1.28037e-95
-9.31544e-96
-3.55266e-92
-3.71558e-92
-3.79669e-89
-5.61074e-89
-2.84374e-86
-3.14364e-86
-5.90647e-84
-7.08551e-84
-6.9353e-83
-2.9057e-82
-3.56625e-87
-1.4374e-81
6.93459e-83
-1.4374e-81
5.63127e-84
-2.88988e-82
6.11062e-87
-3.4727e-84
4.11221e-91
-2.12901e-87
1.05941e-92
-1.01513e-90
1.39758e-95
-1.39479e-92
2.40249e-99
-7.42196e-96
8.55683e-104
-2.94819e-100
2.5296e-110
1.79272e-107
3.18018e-111
7.28523e-111
9.65512e-118
2.11746e-114
9.23306e-122
3.25157e-118
7.07117e-126
4.02773e-122
3.55883e-130
3.51518e-126
8.80724e-135
1.93147e-130
5.10151e-135
-6.63312e-127
4.20424e-127
-2.45261e-122
1.44768e-122
-4.37683e-118
2.401e-118
-5.04585e-114
2.45367e-114
-4.30987e-110
1.73579e-110
-2.97885e-106
9.02876e-107
-1.78026e-102
3.42226e-103
-9.6871e-99
7.21746e-100
-4.53877e-95
-8.66e-96
-1.88157e-91
-1.17366e-91
-4.24822e-88
-3.86637e-88
-3.73659e-85
-4.89668e-85
-2.42455e-82
-2.36103e-82
-4.42844e-80
-4.76682e-80
-4.56697e-79
-1.78757e-78
-2.09899e-83
-8.33765e-78
4.56654e-79
-8.33764e-78
4.21739e-80
-1.77689e-78
5.21839e-83
-2.34357e-80
4.69917e-87
-1.73651e-83
1.25067e-88
-9.92235e-87
1.93485e-91
-1.62822e-88
4.04588e-95
-1.02427e-91
1.75224e-99
-4.94235e-96
6.65969e-106
4.5201e-103
8.3871e-107
2.02512e-106
3.22279e-113
6.85617e-110
3.5773e-117
1.22864e-113
3.12628e-121
1.7512e-117
1.76038e-125
1.72264e-121
4.77751e-130
1.04248e-125
3.03701e-130
-2.25093e-122
1.32779e-122
-8.36842e-118
4.93455e-118
-1.3986e-113
8.19629e-114
-1.44389e-109
7.75028e-110
-1.07562e-105
4.84841e-106
-6.38423e-102
2.17716e-102
-3.24817e-98
7.03695e-99
-1.52243e-94
1.26023e-95
-6.16408e-91
-1.10347e-91
-2.27996e-87
-1.22498e-87
-4.19423e-84
-3.34061e-84
-3.04723e-81
-3.55801e-81
-1.70933e-78
-1.4809e-78
-2.75e-76
-2.68069e-76
-2.51776e-75
-9.23507e-75
-1.03953e-79
-4.09023e-74
2.51754e-75
-4.09022e-74
2.61677e-76
-9.17604e-75
3.72429e-79
-1.32925e-76
4.43749e-83
-1.17529e-79
1.22904e-84
-8.01134e-83
2.19606e-87
-1.57867e-84
5.58059e-91
-1.15791e-87
2.93897e-95
-6.78109e-92
1.44829e-101
9.35209e-99
1.82587e-102
4.65924e-102
8.89608e-109
1.83216e-105
1.13388e-112
3.80151e-109
1.10541e-116
6.12147e-113
6.63859e-121
6.50055e-117
1.78925e-125
3.92189e-121
1.05758e-125
-7.14183e-118
5.558e-118
-2.12768e-113
1.53855e-113
-3.49602e-109
2.03045e-109
-3.35427e-105
1.94169e-105
-2.21153e-101
1.10359e-101
-1.13422e-97
4.31954e-98
-4.92422e-94
1.19486e-94
-1.98417e-90
1.81951e-91
-7.59811e-87
-1.16115e-87
-2.27635e-83
-1.05924e-83
-3.41796e-80
-2.39782e-80
-2.0601e-77
-2.15474e-77
-9.96435e-75
-7.76994e-75
-1.4144e-72
-1.26251e-72
-1.1683e-71
-4.02697e-71
-4.34996e-76
-1.71713e-70
1.16821e-71
-1.71712e-70
1.34516e-72
-4.00031e-71
2.22101e-75
-6.34956e-73
3.42192e-79
-6.60457e-76
9.99669e-81
-5.34507e-79
2.04195e-83
-1.26363e-80
6.29705e-87
-1.07084e-83
4.03229e-91
-7.60154e-88
2.60338e-97
1.58797e-94
3.28322e-98
8.87124e-98
2.02965e-104
4.04152e-101
2.92707e-108
9.61778e-105
3.06431e-112
1.70191e-108
1.86102e-116
1.77972e-112
6.15112e-121