/*--------------------------------*- C++ -*----------------------------------*\
  =========                 |
  \\      /  F ield         | OpenFOAM: The Open Source CFD Toolbox
   \\    /   O peration     | Website:  https://openfoam.org
    \\  /    A nd           | Version:  9
     \\/     M anipulation  |
\*---------------------------------------------------------------------------*/
FoamFile
{
    format      ascii;
    class       volScalarField;
    location    "0.15";
    object      p;
}
// * * * * * * * * * * * * * * * * * * * * * * * * * * * * * * * * * * * * * //

dimensions      [1 -1 -2 0 0 0 0];

internalField   nonuniform List<scalar> 
4096
(
-3.51679e-07
0
-7.52306e-07
-1.23168e-06
-1.47319e-06
-1.5535e-06
-1.53884e-06
-1.46498e-06
-1.35587e-06
-1.22919e-06
-1.09869e-06
-9.75852e-07
-8.70154e-07
-7.8949e-07
-7.40044e-07
-7.26317e-07
-7.50934e-07
-8.14716e-07
-9.16613e-07
-1.05388e-06
-1.22215e-06
-1.41571e-06
-1.62766e-06
-1.85031e-06
-2.07541e-06
-2.2945e-06
-2.4993e-06
-2.68206e-06
-2.8359e-06
-2.95473e-06
-3.03348e-06
-3.07128e-06
-0.0519324
-0.0519324
-0.0519328
-0.0519331
-0.0519332
-0.0519333
-0.0519332
-0.0519332
-0.051933
-0.0519329
-0.0519328
-0.0519326
-0.0519325
-0.0519324
-0.0519324
-0.0519324
-0.0519324
-0.0519325
-0.0519326
-0.0519327
-0.0519329
-0.0519331
-0.0519333
-0.0519335
-0.0519338
-0.051934
-0.0519342
-0.0519344
-0.0519346
-0.0519347
-0.0519348
-0.0519348
-0.103865
-0.103865
-0.103865
-0.103865
-0.103865
-0.103865
-0.103865
-0.103865
-0.103865
-0.103865
-0.103864
-0.103864
-0.103864
-0.103864
-0.103864
-0.103864
-0.103864
-0.103864
-0.103864
-0.103864
-0.103865
-0.103865
-0.103865
-0.103865
-0.103865
-0.103866
-0.103866
-0.103866
-0.103866
-0.103866
-0.103867
-0.103867
-0.155797
-0.155797
-0.155797
-0.155797
-0.155797
-0.155797
-0.155797
-0.155797
-0.155796
-0.155796
-0.155796
-0.155796
-0.155796
-0.155796
-0.155796
-0.155796
-0.155796
-0.155796
-0.155796
-0.155796
-0.155796
-0.155796
-0.155797
-0.155797
-0.155797
-0.155797
-0.155798
-0.155798
-0.155798
-0.155798
-0.155798
-0.155798
-0.207729
-0.207729
-0.207729
-0.207729
-0.207729
-0.207729
-0.207728
-0.207728
-0.207728
-0.207728
-0.207728
-0.207727
-0.207727
-0.207727
-0.207727
-0.207727
-0.207727
-0.207727
-0.207727
-0.207727
-0.207728
-0.207728
-0.207728
-0.207729
-0.207729
-0.207729
-0.207729
-0.20773
-0.20773
-0.20773
-0.20773
-0.20773
-0.259661
-0.259661
-0.259661
-0.259661
-0.259661
-0.25966
-0.25966
-0.25966
-0.25966
-0.259659
-0.259659
-0.259659
-0.259659
-0.259659
-0.259659
-0.259658
-0.259658
-0.259659
-0.259659
-0.259659
-0.259659
-0.25966
-0.25966
-0.25966
-0.259661
-0.259661
-0.259661
-0.259662
-0.259662
-0.259662
-0.259662
-0.259662
-0.311593
-0.311593
-0.311593
-0.311593
-0.311593
-0.311592
-0.311592
-0.311592
-0.311591
-0.311591
-0.311591
-0.31159
-0.31159
-0.31159
-0.31159
-0.31159
-0.31159
-0.31159
-0.31159
-0.31159
-0.311591
-0.311591
-0.311591
-0.311592
-0.311592
-0.311593
-0.311593
-0.311593
-0.311594
-0.311594
-0.311594
-0.311594
-0.363525
-0.363525
-0.363525
-0.363525
-0.363525
-0.363524
-0.363524
-0.363523
-0.363523
-0.363523
-0.363522
-0.363522
-0.363522
-0.363521
-0.363521
-0.363521
-0.363521
-0.363521
-0.363521
-0.363522
-0.363522
-0.363523
-0.363523
-0.363523
-0.363524
-0.363524
-0.363525
-0.363525
-0.363526
-0.363526
-0.363526
-0.363526
-0.415457
-0.415457
-0.415457
-0.415457
-0.415457
-0.415456
-0.415456
-0.415455
-0.415455
-0.415454
-0.415454
-0.415453
-0.415453
-0.415453
-0.415452
-0.415452
-0.415452
-0.415452
-0.415453
-0.415453
-0.415453
-0.415454
-0.415455
-0.415455
-0.415456
-0.415456
-0.415457
-0.415457
-0.415458
-0.415458
-0.415458
-0.415458
-0.46739
-0.46739
-0.467389
-0.467389
-0.467389
-0.467388
-0.467388
-0.467387
-0.467386
-0.467386
-0.467385
-0.467385
-0.467384
-0.467384
-0.467384
-0.467383
-0.467383
-0.467384
-0.467384
-0.467384
-0.467385
-0.467385
-0.467386
-0.467387
-0.467387
-0.467388
-0.467389
-0.467389
-0.46739
-0.46739
-0.467391
-0.467391
-0.519322
-0.519322
-0.519322
-0.519321
-0.519321
-0.51932
-0.51932
-0.519319
-0.519318
-0.519317
-0.519316
-0.519316
-0.519315
-0.519315
-0.519314
-0.519314
-0.519314
-0.519315
-0.519315
-0.519315
-0.519316
-0.519317
-0.519318
-0.519318
-0.519319
-0.51932
-0.519321
-0.519322
-0.519322
-0.519323
-0.519323
-0.519323
-0.571255
-0.571255
-0.571254
-0.571254
-0.571253
-0.571252
-0.571252
-0.571251
-0.57125
-0.571249
-0.571248
-0.571247
-0.571246
-0.571246
-0.571245
-0.571245
-0.571245
-0.571245
-0.571246
-0.571246
-0.571247
-0.571248
-0.571249
-0.57125
-0.571251
-0.571252
-0.571253
-0.571254
-0.571255
-0.571255
-0.571255
-0.571256
-0.623188
-0.623188
-0.623187
-0.623186
-0.623186
-0.623185
-0.623184
-0.623182
-0.623181
-0.62318
-0.623179
-0.623178
-0.623177
-0.623176
-0.623176
-0.623176
-0.623176
-0.623176
-0.623176
-0.623177
-0.623178
-0.623179
-0.62318
-0.623182
-0.623183
-0.623184
-0.623185
-0.623186
-0.623187
-0.623188
-0.623188
-0.623188
-0.675121
-0.675121
-0.67512
-0.675119
-0.675118
-0.675117
-0.675116
-0.675114
-0.675113
-0.675111
-0.67511
-0.675109
-0.675108
-0.675107
-0.675106
-0.675106
-0.675106
-0.675106
-0.675107
-0.675108
-0.675109
-0.67511
-0.675112
-0.675113
-0.675115
-0.675116
-0.675117
-0.675119
-0.67512
-0.675121
-0.675121
-0.675121
-0.727054
-0.727054
-0.727053
-0.727052
-0.727051
-0.72705
-0.727048
-0.727046
-0.727044
-0.727043
-0.727041
-0.727039
-0.727038
-0.727037
-0.727036
-0.727036
-0.727036
-0.727036
-0.727037
-0.727038
-0.72704
-0.727041
-0.727043
-0.727045
-0.727046
-0.727048
-0.72705
-0.727051
-0.727053
-0.727054
-0.727054
-0.727055
-0.778988
-0.778987
-0.778987
-0.778985
-0.778984
-0.778982
-0.77898
-0.778978
-0.778976
-0.778974
-0.778972
-0.77897
-0.778968
-0.778967
-0.778966
-0.778966
-0.778966
-0.778966
-0.778967
-0.778968
-0.77897
-0.778972
-0.778974
-0.778976
-0.778978
-0.778981
-0.778983
-0.778984
-0.778986
-0.778987
-0.778988
-0.778988
-0.830922
-0.830921
-0.830921
-0.830919
-0.830917
-0.830915
-0.830913
-0.83091
-0.830907
-0.830905
-0.830902
-0.8309
-0.830898
-0.830897
-0.830896
-0.830895
-0.830895
-0.830896
-0.830897
-0.830898
-0.8309
-0.830902
-0.830905
-0.830908
-0.83091
-0.830913
-0.830915
-0.830918
-0.83092
-0.830921
-0.830922
-0.830922
-0.882857
-0.882856
-0.882855
-0.882853
-0.882851
-0.882848
-0.882845
-0.882842
-0.882839
-0.882836
-0.882832
-0.88283
-0.882827
-0.882826
-0.882824
-0.882824
-0.882824
-0.882824
-0.882826
-0.882828
-0.88283
-0.882833
-0.882836
-0.882839
-0.882842
-0.882845
-0.882849
-0.882851
-0.882853
-0.882855
-0.882856
-0.882857
-0.934792
-0.934791
-0.93479
-0.934788
-0.934785
-0.934782
-0.934778
-0.934774
-0.93477
-0.934766
-0.934763
-0.934759
-0.934756
-0.934754
-0.934753
-0.934752
-0.934752
-0.934753
-0.934754
-0.934756
-0.934759
-0.934763
-0.934766
-0.93477
-0.934774
-0.934778
-0.934782
-0.934785
-0.934788
-0.93479
-0.934792
-0.934792
-0.986728
-0.986727
-0.986725
-0.986723
-0.986719
-0.986715
-0.986711
-0.986706
-0.986701
-0.986697
-0.986692
-0.986688
-0.986685
-0.986682
-0.98668
-0.986679
-0.986679
-0.98668
-0.986682
-0.986685
-0.986688
-0.986692
-0.986697
-0.986702
-0.986706
-0.986711
-0.986716
-0.98672
-0.986723
-0.986726
-0.986727
-0.986728
-1.03866
-1.03866
-1.03866
-1.03866
-1.03865
-1.03865
-1.03864
-1.03864
-1.03863
-1.03863
-1.03862
-1.03862
-1.03861
-1.03861
-1.03861
-1.03861
-1.03861
-1.03861
-1.03861
-1.03861
-1.03862
-1.03862
-1.03863
-1.03863
-1.03864
-1.03864
-1.03865
-1.03865
-1.03866
-1.03866
-1.03866
-1.03867
-1.0906
-1.0906
-1.0906
-1.0906
-1.09059
-1.09058
-1.09058
-1.09057
-1.09056
-1.09056
-1.09055
-1.09054
-1.09054
-1.09053
-1.09053
-1.09053
-1.09053
-1.09053
-1.09054
-1.09054
-1.09054
-1.09055
-1.09056
-1.09056
-1.09057
-1.09058
-1.09058
-1.09059
-1.0906
-1.0906
-1.0906
-1.0906
-1.14254
-1.14254
-1.14254
-1.14253
-1.14253
-1.14252
-1.14251
-1.1425
-1.14249
-1.14249
-1.14248
-1.14247
-1.14246
-1.14246
-1.14246
-1.14245
-1.14245
-1.14246
-1.14246
-1.14246
-1.14247
-1.14248
-1.14249
-1.14249
-1.1425
-1.14251
-1.14252
-1.14253
-1.14253
-1.14254
-1.14254
-1.14254
-1.19448
-1.19448
-1.19448
-1.19447
-1.19447
-1.19446
-1.19445
-1.19444
-1.19443
-1.19442
-1.19441
-1.1944
-1.19439
-1.19438
-1.19438
-1.19438
-1.19438
-1.19438
-1.19438
-1.19439
-1.1944
-1.19441
-1.19442
-1.19443
-1.19444
-1.19445
-1.19446
-1.19447
-1.19447
-1.19448
-1.19448
-1.19448
-1.24643
-1.24642
-1.24642
-1.24641
-1.2464
-1.24639
-1.24638
-1.24637
-1.24636
-1.24634
-1.24633
-1.24632
-1.24631
-1.2463
-1.2463
-1.2463
-1.2463
-1.2463
-1.2463
-1.24631
-1.24632
-1.24633
-1.24634
-1.24636
-1.24637
-1.24638
-1.24639
-1.2464
-1.24641
-1.24642
-1.24642
-1.24643
-1.29837
-1.29837
-1.29836
-1.29836
-1.29835
-1.29833
-1.29832
-1.2983
-1.29829
-1.29827
-1.29826
-1.29824
-1.29823
-1.29822
-1.29822
-1.29821
-1.29821
-1.29822
-1.29822
-1.29823
-1.29824
-1.29826
-1.29827
-1.29829
-1.2983
-1.29832
-1.29833
-1.29835
-1.29836
-1.29836
-1.29837
-1.29837
-1.35032
-1.35032
-1.35031
-1.3503
-1.35029
-1.35027
-1.35025
-1.35024
-1.35022
-1.3502
-1.35018
-1.35016
-1.35015
-1.35014
-1.35013
-1.35013
-1.35013
-1.35013
-1.35014
-1.35015
-1.35016
-1.35018
-1.3502
-1.35022
-1.35024
-1.35025
-1.35027
-1.35029
-1.3503
-1.35031
-1.35032
-1.35032
-1.40227
-1.40227
-1.40226
-1.40225
-1.40223
-1.40221
-1.40219
-1.40217
-1.40215
-1.40212
-1.4021
-1.40208
-1.40207
-1.40205
-1.40204
-1.40204
-1.40204
-1.40204
-1.40205
-1.40207
-1.40208
-1.4021
-1.40212
-1.40215
-1.40217
-1.40219
-1.40221
-1.40223
-1.40225
-1.40226
-1.40227
-1.40227
-1.45423
-1.45423
-1.45422
-1.4542
-1.45418
-1.45416
-1.45413
-1.4541
-1.45408
-1.45405
-1.45402
-1.454
-1.45398
-1.45396
-1.45395
-1.45395
-1.45395
-1.45395
-1.45396
-1.45398
-1.454
-1.45402
-1.45405
-1.45408
-1.4541
-1.45413
-1.45416
-1.45418
-1.4542
-1.45422
-1.45423
-1.45423
-1.50619
-1.50619
-1.50617
-1.50616
-1.50613
-1.5061
-1.50607
-1.50604
-1.50601
-1.50597
-1.50594
-1.50591
-1.50589
-1.50587
-1.50585
-1.50585
-1.50585
-1.50585
-1.50587
-1.50589
-1.50591
-1.50594
-1.50597
-1.50601
-1.50604
-1.50607
-1.5061
-1.50613
-1.50616
-1.50618
-1.50619
-1.50619
-1.55816
-1.55815
-1.55814
-1.55812
-1.55809
-1.55805
-1.55802
-1.55798
-1.55793
-1.55789
-1.55785
-1.55782
-1.55779
-1.55777
-1.55775
-1.55774
-1.55774
-1.55775
-1.55777
-1.55779
-1.55782
-1.55785
-1.55789
-1.55793
-1.55798
-1.55802
-1.55805
-1.55809
-1.55812
-1.55814
-1.55816
-1.55816
-1.61014
-1.61013
-1.61011
-1.61009
-1.61005
-1.61001
-1.60996
-1.60991
-1.60986
-1.60981
-1.60976
-1.60972
-1.60969
-1.60966
-1.60964
-1.60963
-1.60963
-1.60964
-1.60966
-1.60969
-1.60972
-1.60976
-1.60981
-1.60986
-1.60991
-1.60996
-1.61001
-1.61005
-1.61009
-1.61011
-1.61013
-1.61014
-1.66213
-1.66212
-1.66209
-1.66206
-1.66202
-1.66197
-1.66191
-1.66185
-1.66179
-1.66173
-1.66167
-1.66162
-1.66158
-1.66154
-1.66152
-1.6615
-1.6615
-1.66152
-1.66154
-1.66158
-1.66162
-1.66167
-1.66173
-1.66179
-1.66185
-1.66191
-1.66197
-1.66202
-1.66206
-1.66209
-1.66212
-1.66213
-1.71412
-1.71411
-1.71408
-1.71404
-1.71399
-1.71393
-1.71386
-1.71379
-1.71371
-1.71364
-1.71357
-1.71351
-1.71346
-1.71341
-1.71338
-1.71337
-1.71337
-1.71338
-1.71341
-1.71346
-1.71351
-1.71357
-1.71364
-1.71371
-1.71379
-1.71386
-1.71393
-1.71399
-1.71404
-1.71409
-1.71411
-1.71412
-1.76614
-1.76612
-1.76609
-1.76604
-1.76598
-1.7659
-1.76582
-1.76573
-1.76564
-1.76555
-1.76547
-1.76539
-1.76532
-1.76527
-1.76524
-1.76522
-1.76522
-1.76524
-1.76527
-1.76532
-1.76539
-1.76547
-1.76555
-1.76564
-1.76573
-1.76582
-1.7659
-1.76598
-1.76604
-1.76609
-1.76612
-1.76614
-1.81817
-1.81815
-1.81811
-1.81805
-1.81797
-1.81788
-1.81778
-1.81767
-1.81756
-1.81745
-1.81735
-1.81726
-1.81718
-1.81712
-1.81707
-1.81705
-1.81705
-1.81707
-1.81712
-1.81718
-1.81726
-1.81735
-1.81745
-1.81756
-1.81767
-1.81778
-1.81788
-1.81797
-1.81805
-1.81811
-1.81815
-1.81817
-1.87022
-1.8702
-1.87015
-1.87008
-1.86998
-1.86987
-1.86975
-1.86962
-1.86949
-1.86935
-1.86923
-1.86911
-1.86902
-1.86894
-1.86889
-1.86886
-1.86886
-1.86889
-1.86894
-1.86902
-1.86911
-1.86923
-1.86935
-1.86949
-1.86962
-1.86975
-1.86987
-1.86998
-1.87008
-1.87015
-1.8702
-1.87022
-1.9223
-1.92227
-1.92221
-1.92212
-1.92201
-1.92188
-1.92173
-1.92157
-1.92141
-1.92124
-1.92109
-1.92095
-1.92084
-1.92074
-1.92068
-1.92065
-1.92065
-1.92068
-1.92074
-1.92084
-1.92095
-1.92109
-1.92124
-1.92141
-1.92157
-1.92173
-1.92188
-1.92201
-1.92212
-1.92221
-1.92227
-1.9223
-1.97441
-1.97437
-1.9743
-1.9742
-1.97406
-1.9739
-1.97372
-1.97352
-1.97332
-1.97313
-1.97294
-1.97277
-1.97263
-1.97252
-1.97244
-1.9724
-1.9724
-1.97244
-1.97252
-1.97263
-1.97277
-1.97294
-1.97313
-1.97332
-1.97352
-1.97372
-1.9739
-1.97406
-1.9742
-1.9743
-1.97437
-1.97441
-2.02656
-2.02651
-2.02643
-2.0263
-2.02613
-2.02594
-2.02572
-2.02548
-2.02524
-2.025
-2.02477
-2.02457
-2.02439
-2.02426
-2.02416
-2.02411
-2.02411
-2.02416
-2.02426
-2.02439
-2.02457
-2.02477
-2.025
-2.02524
-2.02548
-2.02572
-2.02594
-2.02613
-2.0263
-2.02643
-2.02651
-2.02656
-2.07875
-2.0787
-2.0786
-2.07844
-2.07824
-2.078
-2.07773
-2.07744
-2.07715
-2.07686
-2.07658
-2.07634
-2.07612
-2.07595
-2.07584
-2.07578
-2.07578
-2.07584
-2.07595
-2.07612
-2.07634
-2.07658
-2.07686
-2.07715
-2.07744
-2.07773
-2.078
-2.07824
-2.07844
-2.0786
-2.0787
-2.07875
-2.131
-2.13094
-2.13081
-2.13062
-2.13038
-2.13009
-2.12977
-2.12942
-2.12906
-2.12871
-2.12837
-2.12807
-2.12781
-2.1276
-2.12746
-2.12739
-2.12739
-2.12746
-2.1276
-2.12781
-2.12807
-2.12837
-2.12871
-2.12906
-2.12942
-2.12977
-2.13009
-2.13038
-2.13062
-2.13081
-2.13094
-2.131
-2.18332
-2.18324
-2.18309
-2.18286
-2.18257
-2.18222
-2.18182
-2.1814
-2.18096
-2.18053
-2.18013
-2.17976
-2.17944
-2.17919
-2.17902
-2.17893
-2.17893
-2.17902
-2.17919
-2.17944
-2.17976
-2.18013
-2.18053
-2.18096
-2.1814
-2.18182
-2.18222
-2.18257
-2.18286
-2.18309
-2.18324
-2.18332
-2.23572
-2.23563
-2.23545
-2.23517
-2.23481
-2.23439
-2.23391
-2.23339
-2.23287
-2.23234
-2.23185
-2.23139
-2.23101
-2.2307
-2.23049
-2.23038
-2.23038
-2.23049
-2.2307
-2.23101
-2.23139
-2.23185
-2.23234
-2.23287
-2.23339
-2.23391
-2.23439
-2.23481
-2.23517
-2.23545
-2.23563
-2.23572
-2.28822
-2.28811
-2.28789
-2.28756
-2.28712
-2.28661
-2.28603
-2.28541
-2.28476
-2.28413
-2.28352
-2.28297
-2.28249
-2.28212
-2.28186
-2.28173
-2.28173
-2.28186
-2.28212
-2.28249
-2.28297
-2.28352
-2.28413
-2.28476
-2.28541
-2.28603
-2.28661
-2.28712
-2.28756
-2.28789
-2.28811
-2.28822
-2.34084
-2.34071
-2.34044
-2.34004
-2.33952
-2.3389
-2.33819
-2.33744
-2.33666
-2.33588
-2.33514
-2.33447
-2.33389
-2.33343
-2.33311
-2.33295
-2.33295
-2.33311
-2.33343
-2.33389
-2.33447
-2.33514
-2.33588
-2.33666
-2.33744
-2.33819
-2.3389
-2.33952
-2.34004
-2.34044
-2.34071
-2.34084
-2.39361
-2.39345
-2.39313
-2.39264
-2.39201
-2.39126
-2.39041
-2.3895
-2.38855
-2.38761
-2.3867
-2.38588
-2.38517
-2.3846
-2.38421
-2.38401
-2.38401
-2.38421
-2.3846
-2.38517
-2.38588
-2.3867
-2.38761
-2.38855
-2.3895
-2.39041
-2.39126
-2.39201
-2.39264
-2.39313
-2.39345
-2.39361
-2.44656
-2.44637
-2.44598
-2.44539
-2.44464
-2.44373
-2.4427
-2.44159
-2.44044
-2.4393
-2.43819
-2.43718
-2.43631
-2.43561
-2.43513
-2.43488
-2.43488
-2.43513
-2.43561
-2.43631
-2.43718
-2.43819
-2.4393
-2.44044
-2.44159
-2.4427
-2.44373
-2.44464
-2.44539
-2.44598
-2.44637
-2.44656
-2.49972
-2.49949
-2.49902
-2.49832
-2.49741
-2.49631
-2.49508
-2.49374
-2.49234
-2.49094
-2.4896
-2.48836
-2.48728
-2.48642
-2.48582
-2.48552
-2.48552
-2.48582
-2.48642
-2.48728
-2.48836
-2.4896
-2.49094
-2.49234
-2.49374
-2.49508
-2.49631
-2.49741
-2.49832
-2.49902
-2.49949
-2.49972
-2.55314
-2.55286
-2.5523
-2.55146
-2.55037
-2.54905
-2.54756
-2.54594
-2.54425
-2.54255
-2.5409
-2.53938
-2.53806
-2.53699
-2.53625
-2.53586
-2.53586
-2.53625
-2.53699
-2.53806
-2.53938
-2.5409
-2.54255
-2.54425
-2.54594
-2.54756
-2.54905
-2.55037
-2.55146
-2.5523
-2.55286
-2.55314
-2.60687
-2.60654
-2.60587
-2.60486
-2.60355
-2.60198
-2.60018
-2.59823
-2.59619
-2.59411
-2.5921
-2.59023
-2.58859
-2.58726
-2.58633
-2.58585
-2.58585
-2.58633
-2.58726
-2.58859
-2.59023
-2.5921
-2.59411
-2.59619
-2.59823
-2.60018
-2.60198
-2.60355
-2.60486
-2.60587
-2.60654
-2.60687
-2.66097
-2.66058
-2.65979
-2.65858
-2.65702
-2.65513
-2.65298
-2.65063
-2.64816
-2.64564
-2.64318
-2.64087
-2.63884
-2.63718
-2.636
-2.63539
-2.63539
-2.636
-2.63718
-2.63884
-2.64087
-2.64318
-2.64564
-2.64816
-2.65063
-2.65298
-2.65513
-2.65702
-2.65858
-2.65979
-2.66058
-2.66097
-2.71552
-2.71506
-2.71412
-2.71269
-2.71082
-2.70857
-2.70601
-2.70319
-2.7002
-2.69715
-2.69413
-2.69129
-2.68875
-2.68666
-2.68517
-2.68439
-2.68439
-2.68517
-2.68666
-2.68875
-2.69129
-2.69413
-2.69715
-2.7002
-2.70319
-2.70601
-2.70857
-2.71082
-2.71269
-2.71412
-2.71506
-2.71552
-2.77062
-2.77007
-2.76895
-2.76726
-2.76504
-2.76237
-2.75931
-2.75594
-2.75235
-2.74865
-2.74496
-2.74144
-2.73827
-2.73562
-2.73371
-2.73269
-2.73269
-2.73371
-2.73562
-2.73827
-2.74144
-2.74496
-2.74865
-2.75235
-2.75594
-2.75931
-2.76237
-2.76504
-2.76726
-2.76895
-2.77007
-2.77062
-2.82637
-2.82572
-2.82439
-2.82239
-2.81977
-2.81661
-2.81298
-2.80897
-2.80467
-2.8002
-2.79569
-2.79134
-2.78734
-2.78397
-2.78147
-2.78014
-2.78014
-2.78147
-2.78397
-2.78734
-2.79134
-2.79569
-2.8002
-2.80467
-2.80897
-2.81298
-2.81661
-2.81977
-2.82239
-2.82439
-2.82572
-2.82637
-2.88289
-2.88212
-2.88056
-2.8782
-2.87512
-2.8714
-2.86712
-2.86236
-2.85724
-2.85186
-2.84638
-2.84099
-2.83594
-2.8316
-2.82829
-2.82649
-2.82649
-2.82829
-2.8316
-2.83594
-2.84099
-2.84638
-2.85186
-2.85724
-2.86236
-2.86712
-2.8714
-2.87512
-2.8782
-2.88056
-2.88212
-2.88289
-2.94035
-2.93945
-2.9376
-2.93482
-2.93121
-2.92686
-2.92183
-2.91624
-2.91017
-2.90376
-2.89711
-2.89045
-2.88405
-2.87841
-2.87394
-2.87142
-2.87142
-2.87394
-2.87841
-2.88405
-2.89045
-2.89711
-2.90376
-2.91017
-2.91624
-2.92183
-2.92686
-2.93121
-2.93482
-2.9376
-2.93945
-2.94035
-2.99894
-2.99786
-2.99568
-2.99242
-2.98821
-2.98313
-2.97727
-2.97075
-2.96363
-2.95606
-2.94805
-2.93985
-2.93168
-2.92433
-2.91809
-2.91443
-2.91443
-2.91809
-2.92433
-2.93168
-2.93986
-2.94805
-2.95606
-2.96363
-2.97075
-2.97727
-2.98313
-2.9882
-2.99242
-2.99568
-2.99786
-2.99894
-3.05889
-3.05761
-3.05501
-3.05118
-3.04626
-3.04037
-3.0336
-3.02606
-3.01779
-3.009
-2.99945
-2.98946
-2.97897
-2.96944
-2.96063
-2.95519
-2.95519
-2.96063
-2.96944
-2.97897
-2.98946
-2.99945
-3.009
-3.01779
-3.02606
-3.0336
-3.04037
-3.04626
-3.05118
-3.05501
-3.05761
-3.05889
-3.12051
-3.11896
-3.11584
-3.11131
-3.10556
-3.09875
-3.09095
-3.08234
-3.07279
-3.06288
-3.05163
-3.03971
-3.02636
-3.01484
-3.00244
-2.9939
-2.9939
-3.00244
-3.01485
-3.02636
-3.03971
-3.05163
-3.06288
-3.07279
-3.08234
-3.09095
-3.09875
-3.10556
-3.11131
-3.11584
-3.11896
-3.12051
-3.1842
-3.18229
-3.17845
-3.17302
-3.16624
-3.1584
-3.14938
-3.13964
-3.12848
-3.11789
-3.10495
-3.09159
-3.07446
-3.06363
-3.04718
-3.03635
-3.03635
-3.04718
-3.06363
-3.07446
-3.09159
-3.10495
-3.11789
-3.12848
-3.13964
-3.14938
-3.1584
-3.16624
-3.17302
-3.17845
-3.18229
-3.1842
-3.25049
-3.24811
-3.24319
-3.23649
-3.22837
-3.21939
-3.20886
-3.19799
-3.1842
-3.17438
-3.15942
-3.14771
-3.1247
-3.11519
-3.11825
-3.11444
-3.11444
-3.11825
-3.11519
-3.1247
-3.14771
-3.15942
-3.17438
-3.1842
-3.19799
-3.20886
-3.21939
-3.22837
-3.23649
-3.24319
-3.24811
-3.25049
-3.32017
-3.31713
-3.3103
-3.30181
-3.29191
-3.28187
-3.26905
-3.25926
-3.24095
-3.24002
-3.23702
-3.24824
-3.27463
-3.28776
-3.30175
-3.30058
-3.30058
-3.30175
-3.28776
-3.27463
-3.24824
-3.23702
-3.24002
-3.24095
-3.25926
-3.26905
-3.28187
-3.29191
-3.30181
-3.3103
-3.31713
-3.32017
-3.39423
-3.39043
-3.37954
-3.36846
-3.35606
-3.34722
-3.32909
-3.3278
-3.34186
-3.33888
-3.38633
-3.42546
-3.48442
-3.51879
-3.54567
-3.55546
-3.55546
-3.54567
-3.51879
-3.48442
-3.42545
-3.38633
-3.33888
-3.34186
-3.3278
-3.32909
-3.34721
-3.35606
-3.36846
-3.37954
-3.39043
-3.39423
-3.47324
-3.4702
-3.44974
-3.43593
-3.4157
-3.4179
-3.46135
-3.4872
-3.55439
-3.60721
-3.66735
-3.71688
-3.76288
-3.79681
-3.82092
-3.8327
-3.8327
-3.82092
-3.79681
-3.76288
-3.71688
-3.66735
-3.60721
-3.55439
-3.4872
-3.46135
-3.4179
-3.4157
-3.43593
-3.44974
-3.4702
-3.47324
-3.55727
-3.5635
-3.56204
-3.58065
-3.61701
-3.67418
-3.74892
-3.81055
-3.87401
-3.92743
-3.97954
-4.02557
-4.06457
-4.0942
-4.11407
-4.12409
-4.12409
-4.11407
-4.0942
-4.06457
-4.02557
-3.97954
-3.92743
-3.87401
-3.81055
-3.74892
-3.67418
-3.61701
-3.58065
-3.56204
-3.5635
-3.55727
-3.70346
-3.71701
-3.79879
-3.86031
-3.94727
-4.01756
-4.08896
-4.15098
-4.20783
-4.25833
-4.30409
-4.34414
-4.37748
-4.40311
-4.42043
-4.42915
-4.42915
-4.42043
-4.40311
-4.37748
-4.34414
-4.30409
-4.25833
-4.20783
-4.15098
-4.08896
-4.01756
-3.94727
-3.86031
-3.79879
-3.71701
-3.70346
-4.04292
-4.08428
-4.17688
-4.24693
-4.31744
-4.38128
-4.44268
-4.49917
-4.55021
-4.59586
-4.63642
-4.67153
-4.70054
-4.72283
-4.73791
-4.7455
-4.7455
-4.73791
-4.72283
-4.70054
-4.67153
-4.63642
-4.59586
-4.55021
-4.49917
-4.44268
-4.38128
-4.31744
-4.24693
-4.17688
-4.08428
-4.04292
-4.49236
-4.52094
-4.58085
-4.63826
-4.6971
-4.75277
-4.8061
-4.85499
-4.89987
-4.94028
-4.97603
-5.00679
-5.03211
-5.05152
-5.06466
-5.07127
-5.07127
-5.06466
-5.05152
-5.03211
-5.00679
-4.97603
-4.94028
-4.89987
-4.85499
-4.8061
-4.75277
-4.6971
-4.63826
-4.58085
-4.52094
-4.49236
-4.93269
-4.9527
-4.9919
-5.03617
-5.08313
-5.12947
-5.17437
-5.21651
-5.25547
-5.29076
-5.32201
-5.34885
-5.37091
-5.3878
-5.39922
-5.40498
-5.40498
-5.39922
-5.3878
-5.37091
-5.34885
-5.32201
-5.29076
-5.25547
-5.21651
-5.17437
-5.12947
-5.08313
-5.03617
-4.9919
-4.9527
-4.93269
-5.35925
-5.37362
-5.4009
-5.43446
-5.47144
-5.50931
-5.54671
-5.58247
-5.61587
-5.64634
-5.67341
-5.6967
-5.71582
-5.73047
-5.74038
-5.74538
-5.74538
-5.74038
-5.73047
-5.71582
-5.6967
-5.67341
-5.64634
-5.61587
-5.58247
-5.54672
-5.50931
-5.47144
-5.43446
-5.4009
-5.37362
-5.35925
-5.77546
-5.78586
-5.80547
-5.83101
-5.8601
-5.89078
-5.92168
-5.95169
-5.98003
-6.00608
-6.02935
-6.04941
-6.06592
-6.07856
-6.08713
-6.09144
-6.09144
-6.08713
-6.07856
-6.06592
-6.04941
-6.02935
-6.00608
-5.98003
-5.95169
-5.92168
-5.89078
-5.8601
-5.83101
-5.80547
-5.78586
-5.77546
-6.18334
-6.19102
-6.20555
-6.22515
-6.24809
-6.27284
-6.29821
-6.32321
-6.34707
-6.36917
-6.38902
-6.4062
-6.42036
-6.43123
-6.43859
-6.4423
-6.4423
-6.43859
-6.43123
-6.42036
-6.4062
-6.38902
-6.36917
-6.34707
-6.32321
-6.29821
-6.27284
-6.24809
-6.22515
-6.20555
-6.19102
-6.18334
-6.58472
-6.59051
-6.60153
-6.61673
-6.63489
-6.65484
-6.6756
-6.69631
-6.71628
-6.73491
-6.75174
-6.76635
-6.77844
-6.78773
-6.79404
-6.79722
-6.79722
-6.79404
-6.78773
-6.77844
-6.76635
-6.75174
-6.73491
-6.71628
-6.69631
-6.6756
-6.65484
-6.63489
-6.61673
-6.60153
-6.59051
-6.58472
-6.98103
-6.98547
-6.99397
-7.00588
-7.02032
-7.03642
-7.05338
-7.07049
-7.08711
-7.10273
-7.11692
-7.1293
-7.13956
-7.14746
-7.15283
-7.15555
-7.15555
-7.15283
-7.14746
-7.13956
-7.1293
-7.11692
-7.10273
-7.08711
-7.07049
-7.05338
-7.03642
-7.02032
-7.00588
-6.99397
-6.98547
-6.98103
-7.37333
-7.37678
-7.38343
-7.39284
-7.40438
-7.41739
-7.43124
-7.44533
-7.45913
-7.47218
-7.48409
-7.49452
-7.5032
-7.50989
-7.51445
-7.51675
-7.51675
-7.51445
-7.50989
-7.5032
-7.49452
-7.48409
-7.47218
-7.45913
-7.44533
-7.43124
-7.41739
-7.40438
-7.39284
-7.38343
-7.37678
-7.37333
-7.76245
-7.76516
-7.77042
-7.7779
-7.78717
-7.79771
-7.80901
-7.82061
-7.83203
-7.8429
-7.85287
-7.86162
-7.86893
-7.87458
-7.87842
-7.88037
-7.88037
-7.87842
-7.87458
-7.86893
-7.86162
-7.85287
-7.8429
-7.83204
-7.82061
-7.80901
-7.79771
-7.78717
-7.77791
-7.77042
-7.76516
-7.76245
-8.14902
-8.15117
-8.15536
-8.16136
-8.16882
-8.17737
-8.18661
-8.19614
-8.20559
-8.21462
-8.22293
-8.23025
-8.23638
-8.24113
-8.24437
-8.24601
-8.24601
-8.24437
-8.24113
-8.23638
-8.23025
-8.22293
-8.21462
-8.20559
-8.19614
-8.18661
-8.17737
-8.16882
-8.16136
-8.15536
-8.15117
-8.14902
-8.53355
-8.53527
-8.53862
-8.54345
-8.54949
-8.55644
-8.56399
-8.57182
-8.57962
-8.58711
-8.59402
-8.60014
-8.60526
-8.60924
-8.61196
-8.61334
-8.61334
-8.61196
-8.60924
-8.60526
-8.60014
-8.59402
-8.58711
-8.57963
-8.57182
-8.56399
-8.55644
-8.54949
-8.54345
-8.53863
-8.53527
-8.53355
-8.91642
-8.9178
-8.92051
-8.92441
-8.92931
-8.93497
-8.94115
-8.94758
-8.95402
-8.96021
-8.96596
-8.97105
-8.97532
-8.97865
-8.98092
-8.98208
-8.98208
-8.98092
-8.97865
-8.97532
-8.97105
-8.96596
-8.96021
-8.95402
-8.94758
-8.94115
-8.93497
-8.92931
-8.92441
-8.92051
-8.91781
-8.91642
-9.29795
-9.29907
-9.30126
-9.30442
-9.3084
-9.31303
-9.31808
-9.32337
-9.32868
-9.3338
-9.33856
-9.34279
-9.34635
-9.34912
-9.35102
-9.35198
-9.35198
-9.35102
-9.34912
-9.34635
-9.34279
-9.33856
-9.3338
-9.32868
-9.32337
-9.31808
-9.31303
-9.3084
-9.30442
-9.30126
-9.29907
-9.29795
-9.6784
-9.67931
-9.68108
-9.68365
-9.6869
-9.69067
-9.69482
-9.69916
-9.70353
-9.70777
-9.71171
-9.71522
-9.71817
-9.72048
-9.72206
-9.72287
-9.72287
-9.72206
-9.72048
-9.71817
-9.71522
-9.71171
-9.70777
-9.70353
-9.69916
-9.69482
-9.69067
-9.6869
-9.68365
-9.68108
-9.67931
-9.6784
-10.058
-10.0587
-10.0601
-10.0622
-10.0649
-10.068
-10.0714
-10.0749
-10.0785
-10.082
-10.0853
-10.0882
-10.0907
-10.0926
-10.0939
-10.0946
-10.0946
-10.0939
-10.0926
-10.0907
-10.0882
-10.0853
-10.082
-10.0785
-10.0749
-10.0714
-10.068
-10.0649
-10.0622
-10.0601
-10.0587
-10.058
-10.4368
-10.4374
-10.4386
-10.4403
-10.4424
-10.445
-10.4478
-10.4507
-10.4537
-10.4565
-10.4592
-10.4616
-10.4637
-10.4653
-10.4664
-10.4669
-10.4669
-10.4664
-10.4653
-10.4637
-10.4616
-10.4592
-10.4565
-10.4537
-10.4507
-10.4478
-10.445
-10.4424
-10.4403
-10.4386
-10.4374
-10.4368
-10.815
-10.8155
-10.8165
-10.8179
-10.8197
-10.8217
-10.824
-10.8264
-10.8289
-10.8313
-10.8335
-10.8355
-10.8372
-10.8385
-10.8394
-10.8398
-10.8398
-10.8394
-10.8385
-10.8372
-10.8355
-10.8335
-10.8313
-10.8289
-10.8264
-10.824
-10.8217
-10.8197
-10.8179
-10.8165
-10.8155
-10.815
-11.1928
-11.1932
-11.194
-11.1951
-11.1966
-11.1983
-11.2002
-11.2021
-11.2042
-11.2061
-11.208
-11.2096
-11.211
-11.2121
-11.2128
-11.2132
-11.2132
-11.2128
-11.2121
-11.211
-11.2096
-11.208
-11.2061
-11.2042
-11.2021
-11.2002
-11.1983
-11.1966
-11.1951
-11.194
-11.1932
-11.1928
-11.5702
-11.5705
-11.5711
-11.5721
-11.5733
-11.5747
-11.5762
-11.5778
-11.5795
-11.5811
-11.5826
-11.584
-11.5851
-11.586
-11.5866
-11.587
-11.587
-11.5866
-11.586
-11.5851
-11.584
-11.5826
-11.5811
-11.5795
-11.5778
-11.5762
-11.5747
-11.5733
-11.5721
-11.5711
-11.5705
-11.5702
-11.9472
-11.9475
-11.948
-11.9488
-11.9497
-11.9509
-11.9522
-11.9535
-11.9549
-11.9562
-11.9574
-11.9586
-11.9595
-11.9603
-11.9608
-11.961
-11.961
-11.9608
-11.9603
-11.9595
-11.9586
-11.9574
-11.9562
-11.9549
-11.9535
-11.9522
-11.9509
-11.9497
-11.9488
-11.948
-11.9475
-11.9472
-12.324
-12.3242
-12.3246
-12.3253
-12.3261
-12.327
-12.328
-12.3291
-12.3303
-12.3314
-12.3324
-12.3333
-12.3341
-12.3347
-12.3351
-12.3354
-12.3354
-12.3351
-12.3347
-12.3341
-12.3333
-12.3324
-12.3314
-12.3303
-12.3291
-12.328
-12.327
-12.3261
-12.3253
-12.3246
-12.3242
-12.324
-12.7005
-12.7007
-12.7011
-12.7016
-12.7022
-12.703
-12.7039
-12.7048
-12.7057
-12.7066
-12.7074
-12.7082
-12.7089
-12.7094
-12.7097
-12.7099
-12.7099
-12.7097
-12.7094
-12.7089
-12.7082
-12.7074
-12.7066
-12.7057
-12.7048
-12.7039
-12.703
-12.7022
-12.7016
-12.7011
-12.7007
-12.7005
-13.0769
-13.077
-13.0773
-13.0778
-13.0783
-13.0789
-13.0796
-13.0804
-13.0811
-13.0819
-13.0826
-13.0832
-13.0838
-13.0842
-13.0845
-13.0846
-13.0846
-13.0845
-13.0842
-13.0838
-13.0832
-13.0826
-13.0819
-13.0811
-13.0804
-13.0796
-13.0789
-13.0783
-13.0778
-13.0773
-13.077
-13.0769
-13.4531
-13.4532
-13.4535
-13.4538
-13.4543
-13.4548
-13.4554
-13.456
-13.4566
-13.4572
-13.4578
-13.4583
-13.4588
-13.4591
-13.4593
-13.4595
-13.4595
-13.4593
-13.4591
-13.4588
-13.4583
-13.4578
-13.4572
-13.4566
-13.456
-13.4554
-13.4548
-13.4543
-13.4538
-13.4535
-13.4532
-13.4531
-13.8292
-13.8293
-13.8295
-13.8298
-13.8302
-13.8306
-13.8311
-13.8316
-13.8321
-13.8326
-13.8331
-13.8335
-13.8339
-13.8341
-13.8343
-13.8344
-13.8344
-13.8343
-13.8341
-13.8339
-13.8335
-13.8331
-13.8326
-13.8321
-13.8316
-13.8311
-13.8306
-13.8302
-13.8298
-13.8295
-13.8293
-13.8292
-14.2052
-14.2053
-14.2055
-14.2057
-14.206
-14.2064
-14.2067
-14.2072
-14.2076
-14.208
-14.2084
-14.2087
-14.209
-14.2093
-14.2094
-14.2095
-14.2095
-14.2094
-14.2093
-14.209
-14.2087
-14.2084
-14.208
-14.2076
-14.2072
-14.2067
-14.2064
-14.206
-14.2057
-14.2055
-14.2053
-14.2052
-14.5811
-14.5812
-14.5813
-14.5815
-14.5818
-14.5821
-14.5824
-14.5827
-14.5831
-14.5834
-14.5838
-14.584
-14.5843
-14.5845
-14.5846
-14.5847
-14.5847
-14.5846
-14.5845
-14.5843
-14.584
-14.5838
-14.5834
-14.5831
-14.5827
-14.5824
-14.5821
-14.5818
-14.5815
-14.5813
-14.5812
-14.5811
-14.957
-14.9571
-14.9572
-14.9573
-14.9575
-14.9578
-14.958
-14.9583
-14.9586
-14.9589
-14.9591
-14.9594
-14.9596
-14.9597
-14.9599
-14.9599
-14.9599
-14.9599
-14.9597
-14.9596
-14.9594
-14.9591
-14.9589
-14.9586
-14.9583
-14.958
-14.9578
-14.9575
-14.9573
-14.9572
-14.9571
-14.957
-15.3328
-15.3328
-15.3329
-15.3331
-15.3332
-15.3334
-15.3336
-15.3339
-15.3341
-15.3343
-15.3346
-15.3348
-15.3349
-15.3351
-15.3351
-15.3352
-15.3352
-15.3351
-15.3351
-15.3349
-15.3348
-15.3346
-15.3343
-15.3341
-15.3339
-15.3336
-15.3334
-15.3332
-15.3331
-15.3329
-15.3328
-15.3328
-15.7085
-15.7086
-15.7087
-15.7088
-15.7089
-15.7091
-15.7092
-15.7094
-15.7096
-15.7098
-15.71
-15.7102
-15.7103
-15.7104
-15.7105
-15.7105
-15.7105
-15.7105
-15.7104
-15.7103
-15.7102
-15.71
-15.7098
-15.7096
-15.7094
-15.7092
-15.7091
-15.7089
-15.7088
-15.7087
-15.7086
-15.7085
-16.0843
-16.0843
-16.0844
-16.0844
-16.0846
-16.0847
-16.0848
-16.085
-16.0852
-16.0853
-16.0855
-16.0856
-16.0857
-16.0858
-16.0859
-16.0859
-16.0859
-16.0859
-16.0858
-16.0857
-16.0856
-16.0855
-16.0853
-16.0852
-16.085
-16.0848
-16.0847
-16.0846
-16.0844
-16.0844
-16.0843
-16.0843
-16.4599
-16.46
-16.46
-16.4601
-16.4602
-16.4603
-16.4604
-16.4605
-16.4607
-16.4608
-16.4609
-16.461
-16.4611
-16.4612
-16.4613
-16.4613
-16.4613
-16.4613
-16.4612
-16.4611
-16.461
-16.4609
-16.4608
-16.4607
-16.4605
-16.4604
-16.4603
-16.4602
-16.4601
-16.46
-16.46
-16.4599
-16.8356
-16.8356
-16.8357
-16.8357
-16.8358
-16.8359
-16.836
-16.8361
-16.8362
-16.8363
-16.8364