/*--------------------------------*- C++ -*----------------------------------*\
  =========                 |
  \\      /  F ield         | OpenFOAM: The Open Source CFD Toolbox
   \\    /   O peration     | Website:  https://openfoam.org
    \\  /    A nd           | Version:  9
     \\/     M anipulation  |
\*---------------------------------------------------------------------------*/
FoamFile
{
    format      ascii;
    class       volScalarField;
    location    "0.15";
    object      p_rgh;
}
// * * * * * * * * * * * * * * * * * * * * * * * * * * * * * * * * * * * * * //

dimensions      [1 -1 -2 0 0 0 0];

internalField   nonuniform List<scalar> 
4096
(
-3.29766
-3.29766
-3.29766
-3.29766
-3.29766
-3.29766
-3.29766
-3.29766
-3.29766
-3.29766
-3.29766
-3.29766
-3.29766
-3.29766
-3.29766
-3.29766
-3.29766
-3.29766
-3.29766
-3.29766
-3.29766
-3.29766
-3.29766
-3.29766
-3.29766
-3.29766
-3.29766
-3.29766
-3.29766
-3.29767
-3.29767
-3.29767
-3.29766
-3.29766
-3.29766
-3.29766
-3.29766
-3.29766
-3.29766
-3.29766
-3.29766
-3.29766
-3.29766
-3.29766
-3.29766
-3.29766
-3.29766
-3.29766
-3.29766
-3.29766
-3.29766
-3.29766
-3.29766
-3.29766
-3.29766
-3.29766
-3.29766
-3.29766
-3.29766
-3.29766
-3.29767
-3.29767
-3.29767
-3.29767
-3.29766
-3.29766
-3.29766
-3.29766
-3.29766
-3.29766
-3.29766
-3.29766
-3.29766
-3.29766
-3.29766
-3.29766
-3.29766
-3.29766
-3.29766
-3.29766
-3.29766
-3.29766
-3.29766
-3.29766
-3.29766
-3.29766
-3.29766
-3.29766
-3.29766
-3.29766
-3.29766
-3.29766
-3.29767
-3.29767
-3.29767
-3.29767
-3.29766
-3.29766
-3.29766
-3.29766
-3.29766
-3.29766
-3.29766
-3.29766
-3.29766
-3.29766
-3.29766
-3.29766
-3.29766
-3.29766
-3.29766
-3.29766
-3.29766
-3.29766
-3.29766
-3.29766
-3.29766
-3.29766
-3.29766
-3.29766
-3.29766
-3.29766
-3.29766
-3.29766
-3.29767
-3.29767
-3.29767
-3.29767
-3.29766
-3.29766
-3.29766
-3.29766
-3.29766
-3.29766
-3.29766
-3.29766
-3.29766
-3.29766
-3.29766
-3.29766
-3.29766
-3.29766
-3.29766
-3.29766
-3.29766
-3.29766
-3.29766
-3.29766
-3.29766
-3.29766
-3.29766
-3.29766
-3.29766
-3.29766
-3.29766
-3.29767
-3.29767
-3.29767
-3.29767
-3.29767
-3.29766
-3.29766
-3.29766
-3.29766
-3.29766
-3.29766
-3.29766
-3.29766
-3.29766
-3.29766
-3.29766
-3.29766
-3.29766
-3.29766
-3.29766
-3.29766
-3.29766
-3.29766
-3.29766
-3.29766
-3.29766
-3.29766
-3.29766
-3.29766
-3.29766
-3.29766
-3.29766
-3.29767
-3.29767
-3.29767
-3.29767
-3.29767
-3.29766
-3.29766
-3.29766
-3.29766
-3.29766
-3.29766
-3.29766
-3.29766
-3.29766
-3.29766
-3.29766
-3.29766
-3.29766
-3.29766
-3.29766
-3.29766
-3.29766
-3.29766
-3.29766
-3.29766
-3.29766
-3.29766
-3.29766
-3.29766
-3.29766
-3.29766
-3.29767
-3.29767
-3.29767
-3.29767
-3.29767
-3.29767
-3.29767
-3.29767
-3.29767
-3.29767
-3.29766
-3.29766
-3.29766
-3.29766
-3.29766
-3.29766
-3.29766
-3.29766
-3.29766
-3.29766
-3.29766
-3.29766
-3.29766
-3.29766
-3.29766
-3.29766
-3.29766
-3.29766
-3.29766
-3.29766
-3.29766
-3.29766
-3.29767
-3.29767
-3.29767
-3.29767
-3.29767
-3.29767
-3.29767
-3.29767
-3.29767
-3.29767
-3.29767
-3.29766
-3.29766
-3.29766
-3.29766
-3.29766
-3.29766
-3.29766
-3.29766
-3.29766
-3.29766
-3.29766
-3.29766
-3.29766
-3.29766
-3.29766
-3.29766
-3.29766
-3.29766
-3.29766
-3.29766
-3.29766
-3.29767
-3.29767
-3.29767
-3.29767
-3.29767
-3.29767
-3.29767
-3.29767
-3.29767
-3.29767
-3.29767
-3.29767
-3.29766
-3.29766
-3.29766
-3.29766
-3.29766
-3.29766
-3.29766
-3.29766
-3.29766
-3.29766
-3.29766
-3.29766
-3.29766
-3.29766
-3.29766
-3.29766
-3.29766
-3.29766
-3.29766
-3.29767
-3.29767
-3.29767
-3.29767
-3.29767
-3.29767
-3.29767
-3.29767
-3.29767
-3.29767
-3.29767
-3.29767
-3.29767
-3.29766
-3.29766
-3.29766
-3.29766
-3.29766
-3.29766
-3.29766
-3.29766
-3.29766
-3.29766
-3.29766
-3.29766
-3.29766
-3.29766
-3.29766
-3.29766
-3.29766
-3.29766
-3.29766
-3.29767
-3.29767
-3.29767
-3.29767
-3.29767
-3.29767
-3.29767
-3.29767
-3.29767
-3.29767
-3.29767
-3.29767
-3.29767
-3.29767
-3.29766
-3.29766
-3.29766
-3.29766
-3.29766
-3.29766
-3.29766
-3.29766
-3.29766
-3.29766
-3.29766
-3.29766
-3.29766
-3.29766
-3.29766
-3.29766
-3.29766
-3.29766
-3.29767
-3.29767
-3.29767
-3.29767
-3.29767
-3.29767
-3.29767
-3.29767
-3.29767
-3.29767
-3.29767
-3.29767
-3.29767
-3.29767
-3.29766
-3.29766
-3.29766
-3.29766
-3.29766
-3.29766
-3.29766
-3.29766
-3.29766
-3.29766
-3.29766
-3.29766
-3.29766
-3.29766
-3.29766
-3.29766
-3.29766
-3.29766
-3.29767
-3.29767
-3.29767
-3.29767
-3.29767
-3.29767
-3.29767
-3.29767
-3.29767
-3.29767
-3.29767
-3.29767
-3.29767
-3.29767
-3.29766
-3.29766
-3.29766
-3.29766
-3.29766
-3.29766
-3.29766
-3.29766
-3.29766
-3.29766
-3.29766
-3.29766
-3.29766
-3.29766
-3.29766
-3.29766
-3.29766
-3.29766
-3.29767
-3.29767
-3.29767
-3.29767
-3.29767
-3.29767
-3.29767
-3.29767
-3.29767
-3.29767
-3.29767
-3.29767
-3.29767
-3.29767
-3.29766
-3.29766
-3.29766
-3.29766
-3.29766
-3.29766
-3.29766
-3.29765
-3.29765
-3.29765
-3.29765
-3.29766
-3.29766
-3.29766
-3.29766
-3.29766
-3.29766
-3.29766
-3.29767
-3.29767
-3.29767
-3.29767
-3.29767
-3.29767
-3.29767
-3.29767
-3.29767
-3.29767
-3.29767
-3.29767
-3.29767
-3.29767
-3.29766
-3.29766
-3.29766
-3.29766
-3.29766
-3.29766
-3.29765
-3.29765
-3.29765
-3.29765
-3.29765
-3.29765
-3.29766
-3.29766
-3.29766
-3.29766
-3.29766
-3.29767
-3.29767
-3.29767
-3.29767
-3.29767
-3.29767
-3.29767
-3.29768
-3.29768
-3.29768
-3.29768
-3.29767
-3.29767
-3.29767
-3.29767
-3.29767
-3.29766
-3.29766
-3.29766
-3.29766
-3.29765
-3.29765
-3.29765
-3.29765
-3.29765
-3.29765
-3.29765
-3.29765
-3.29766
-3.29766
-3.29766
-3.29766
-3.29767
-3.29767
-3.29767
-3.29767
-3.29767
-3.29768
-3.29768
-3.29768
-3.29768
-3.29768
-3.29768
-3.29768
-3.29767
-3.29767
-3.29767
-3.29767
-3.29766
-3.29766
-3.29766
-3.29765
-3.29765
-3.29765
-3.29765
-3.29765
-3.29765
-3.29765
-3.29765
-3.29765
-3.29765
-3.29766
-3.29766
-3.29766
-3.29767
-3.29767
-3.29767
-3.29767
-3.29768
-3.29768
-3.29768
-3.29768
-3.29768
-3.29768
-3.29768
-3.29768
-3.29768
-3.29767
-3.29767
-3.29767
-3.29766
-3.29766
-3.29765
-3.29765
-3.29765
-3.29765
-3.29764
-3.29764
-3.29764
-3.29764
-3.29765
-3.29765
-3.29765
-3.29765
-3.29766
-3.29766
-3.29767
-3.29767
-3.29767
-3.29768
-3.29768
-3.29768
-3.29768
-3.29768
-3.29769
-3.29769
-3.29769
-3.29768
-3.29768
-3.29768
-3.29767
-3.29767
-3.29766
-3.29766
-3.29765
-3.29765
-3.29764
-3.29764
-3.29764
-3.29764
-3.29764
-3.29764
-3.29764
-3.29764
-3.29765
-3.29765
-3.29766
-3.29766
-3.29767
-3.29767
-3.29768
-3.29768
-3.29768
-3.29769
-3.29769
-3.29769
-3.29769
-3.29769
-3.29769
-3.29769
-3.29768
-3.29768
-3.29767
-3.29767
-3.29766
-3.29766
-3.29765
-3.29764
-3.29764
-3.29764
-3.29764
-3.29763
-3.29763
-3.29764
-3.29764
-3.29764
-3.29764
-3.29765
-3.29766
-3.29766
-3.29767
-3.29767
-3.29768
-3.29768
-3.29769
-3.29769
-3.29769
-3.29769
-3.2977
-3.2977
-3.2977
-3.29769
-3.29769
-3.29768
-3.29767
-3.29767
-3.29766
-3.29765
-3.29765
-3.29764
-3.29764
-3.29763
-3.29763
-3.29763
-3.29763
-3.29763
-3.29763
-3.29764
-3.29764
-3.29765
-3.29765
-3.29766
-3.29767
-3.29767
-3.29768
-3.29769
-3.29769
-3.2977
-3.2977
-3.2977
-3.29771
-3.29771
-3.2977
-3.2977
-3.29769
-3.29769
-3.29768
-3.29767
-3.29766
-3.29765
-3.29764
-3.29764
-3.29763
-3.29762
-3.29762
-3.29762
-3.29762
-3.29762
-3.29762
-3.29763
-3.29764
-3.29764
-3.29765
-3.29766
-3.29767
-3.29768
-3.29769
-3.29769
-3.2977
-3.2977
-3.29771
-3.29771
-3.29772
-3.29772
-3.29771
-3.29771
-3.2977
-3.29769
-3.29768
-3.29767
-3.29766
-3.29765
-3.29764
-3.29763
-3.29762
-3.29762
-3.29761
-3.29761
-3.29761
-3.29761
-3.29762
-3.29762
-3.29763
-3.29764
-3.29765
-3.29766
-3.29767
-3.29768
-3.29769
-3.2977
-3.29771
-3.29771
-3.29772
-3.29772
-3.29773
-3.29773
-3.29772
-3.29771
-3.29771
-3.2977
-3.29768
-3.29767
-3.29766
-3.29765
-3.29763
-3.29762
-3.29761
-3.29761
-3.2976
-3.2976
-3.2976
-3.2976
-3.29761
-3.29761
-3.29762
-3.29763
-3.29765
-3.29766
-3.29767
-3.29768
-3.2977
-3.29771
-3.29772
-3.29772
-3.29773
-3.29773
-3.29774
-3.29774
-3.29773
-3.29773
-3.29772
-3.2977
-3.29769
-3.29767
-3.29766
-3.29764
-3.29763
-3.29761
-3.2976
-3.29759
-3.29759
-3.29758
-3.29758
-3.29759
-3.29759
-3.2976
-3.29761
-3.29763
-3.29764
-3.29766
-3.29767
-3.29769
-3.2977
-3.29772
-3.29773
-3.29773
-3.29774
-3.29774
-3.29776
-3.29776
-3.29775
-3.29774
-3.29773
-3.29771
-3.29769
-3.29767
-3.29766
-3.29764
-3.29762
-3.2976
-3.29759
-3.29758
-3.29757
-3.29757
-3.29757
-3.29757
-3.29758
-3.29759
-3.2976
-3.29762
-3.29764
-3.29766
-3.29767
-3.29769
-3.29771
-3.29773
-3.29774
-3.29775
-3.29776
-3.29776
-3.29778
-3.29778
-3.29777
-3.29776
-3.29774
-3.29772
-3.2977
-3.29768
-3.29765
-3.29763
-3.29761
-3.29759
-3.29757
-3.29756
-3.29755
-3.29755
-3.29755
-3.29755
-3.29756
-3.29757
-3.29759
-3.29761
-3.29763
-3.29765
-3.29768
-3.2977
-3.29772
-3.29774
-3.29776
-3.29777
-3.29778
-3.29778
-3.29781
-3.2978
-3.29779
-3.29778
-3.29776
-3.29773
-3.29771
-3.29768
-3.29765
-3.29762
-3.2976
-3.29757
-3.29755
-3.29754
-3.29753
-3.29752
-3.29752
-3.29753
-3.29754
-3.29755
-3.29757
-3.2976
-3.29762
-3.29765
-3.29768
-3.29771
-3.29773
-3.29776
-3.29778
-3.29779
-3.2978
-3.29781
-3.29784
-3.29783
-3.29782
-3.2978
-3.29778
-3.29775
-3.29772
-3.29768
-3.29765
-3.29761
-3.29758
-3.29755
-3.29753
-3.29751
-3.2975
-3.29749
-3.29749
-3.2975
-3.29751
-3.29753
-3.29755
-3.29758
-3.29762
-3.29765
-3.29768
-3.29772
-3.29775
-3.29778
-3.2978
-3.29782
-3.29783
-3.29784
-3.29787
-3.29787
-3.29785
-3.29783
-3.2978
-3.29777
-3.29773
-3.29769
-3.29765
-3.2976
-3.29757
-3.29753
-3.2975
-3.29748
-3.29746
-3.29745
-3.29745
-3.29746
-3.29748
-3.2975
-3.29753
-3.29757
-3.2976
-3.29765
-3.29769
-3.29773
-3.29777
-3.2978
-3.29783
-3.29785
-3.29787
-3.29787
-3.29792
-3.29791
-3.29789
-3.29786
-3.29783
-3.29779
-3.29774
-3.29769
-3.29764
-3.29759
-3.29754
-3.2975
-3.29747
-3.29744
-3.29742
-3.29741
-3.29741
-3.29742
-3.29744
-3.29747
-3.2975
-3.29754
-3.29759
-3.29764
-3.29769
-3.29774
-3.29779
-3.29783
-3.29787
-3.29789
-3.29791
-3.29792
-3.29797
-3.29796
-3.29794
-3.29791
-3.29787
-3.29782
-3.29776
-3.2977
-3.29764
-3.29758
-3.29752
-3.29747
-3.29742
-3.29739
-3.29736
-3.29735
-3.29735
-3.29736
-3.29739
-3.29742
-3.29747
-3.29752
-3.29758
-3.29764
-3.2977
-3.29776
-3.29782
-3.29787
-3.29791
-3.29794
-3.29796
-3.29797
-3.29804
-3.29803
-3.298
-3.29796
-3.29791
-3.29785
-3.29778
-3.29771
-3.29763
-3.29756
-3.29749
-3.29743
-3.29737
-3.29733
-3.2973
-3.29729
-3.29729
-3.2973
-3.29733
-3.29737
-3.29743
-3.29749
-3.29756
-3.29763
-3.29771
-3.29778
-3.29785
-3.29791
-3.29796
-3.298
-3.29803
-3.29804
-3.29812
-3.29811
-3.29807
-3.29803
-3.29796
-3.29789
-3.2978
-3.29772
-3.29762
-3.29753
-3.29745
-3.29737
-3.29731
-3.29726
-3.29722
-3.2972
-3.2972
-3.29722
-3.29726
-3.29731
-3.29737
-3.29745
-3.29753
-3.29762
-3.29772
-3.2978
-3.29789
-3.29796
-3.29803
-3.29807
-3.29811
-3.29812
-3.29822
-3.2982
-3.29816
-3.2981
-3.29803
-3.29794
-3.29784
-3.29773
-3.29762
-3.29751
-3.2974
-3.29731
-3.29723
-3.29717
-3.29713
-3.2971
-3.2971
-3.29713
-3.29717
-3.29723
-3.29731
-3.2974
-3.29751
-3.29762
-3.29773
-3.29784
-3.29794
-3.29803
-3.2981
-3.29816
-3.2982
-3.29822
-3.29834
-3.29832
-3.29827
-3.2982
-3.29811
-3.298
-3.29787
-3.29774
-3.29761
-3.29747
-3.29735
-3.29724
-3.29714
-3.29706
-3.29701
-3.29698
-3.29698
-3.29701
-3.29706
-3.29714
-3.29724
-3.29735
-3.29747
-3.29761
-3.29774
-3.29787
-3.298
-3.29811
-3.2982
-3.29827
-3.29832
-3.29834
-3.29849
-3.29846
-3.2984
-3.29831
-3.2982
-3.29807
-3.29792
-3.29776
-3.2976
-3.29743
-3.29728
-3.29714
-3.29703
-3.29693
-3.29687
-3.29684
-3.29684
-3.29687
-3.29693
-3.29703
-3.29714
-3.29728
-3.29743
-3.2976
-3.29776
-3.29792
-3.29807
-3.2982
-3.29831
-3.2984
-3.29846
-3.29849
-3.29867
-3.29863
-3.29856
-3.29846
-3.29832
-3.29816
-3.29797
-3.29778
-3.29758
-3.29738
-3.2972
-3.29703
-3.29689
-3.29677
-3.2967
-3.29666
-3.29666
-3.2967
-3.29677
-3.29689
-3.29703
-3.2972
-3.29738
-3.29758
-3.29778
-3.29797
-3.29816
-3.29832
-3.29846
-3.29856
-3.29863
-3.29867
-3.29888
-3.29884
-3.29875
-3.29863
-3.29846
-3.29826
-3.29804
-3.29781
-3.29756
-3.29733
-3.2971
-3.2969
-3.29672
-3.29658
-3.29649
-3.29644
-3.29644
-3.29649
-3.29658
-3.29672
-3.2969
-3.2971
-3.29733
-3.29756
-3.29781
-3.29804
-3.29826
-3.29846
-3.29863
-3.29875
-3.29884
-3.29888
-3.29914
-3.29909
-3.29899
-3.29883
-3.29863
-3.29839
-3.29813
-3.29784
-3.29755
-3.29725
-3.29698
-3.29673
-3.29652
-3.29635
-3.29623
-3.29617
-3.29617
-3.29623
-3.29635
-3.29652
-3.29673
-3.29698
-3.29725
-3.29755
-3.29784
-3.29813
-3.29839
-3.29863
-3.29883
-3.29899
-3.29909
-3.29914
-3.29946
-3.2994
-3.29928
-3.29909
-3.29884
-3.29855
-3.29823
-3.29788
-3.29752
-3.29717
-3.29683
-3.29653
-3.29627
-3.29607
-3.29592
-3.29585
-3.29585
-3.29592
-3.29607
-3.29627
-3.29653
-3.29683
-3.29717
-3.29752
-3.29788
-3.29823
-3.29855
-3.29884
-3.29909
-3.29928
-3.2994
-3.29946
-3.29985
-3.29978
-3.29962
-3.29939
-3.2991
-3.29875
-3.29835
-3.29793
-3.2975
-3.29707
-3.29666
-3.29629
-3.29597
-3.29572
-3.29555
-3.29546
-3.29546
-3.29555
-3.29572
-3.29597
-3.29629
-3.29666
-3.29707
-3.2975
-3.29793
-3.29835
-3.29875
-3.2991
-3.29939
-3.29962
-3.29978
-3.29985
-3.30032
-3.30023
-3.30004
-3.29977
-3.29941
-3.29899
-3.29851
-3.29799
-3.29747
-3.29694
-3.29644
-3.29599
-3.29561
-3.2953
-3.29509
-3.29498
-3.29498
-3.29509
-3.2953
-3.29561
-3.29599
-3.29644
-3.29694
-3.29747
-3.29799
-3.29851
-3.29899
-3.29941
-3.29977
-3.30004
-3.30023
-3.30032
-3.30089
-3.30078
-3.30056
-3.30022
-3.29979
-3.29928
-3.2987
-3.29807
-3.29743
-3.2968
-3.29619
-3.29564
-3.29516
-3.29479
-3.29453
-3.29439
-3.29439
-3.29453
-3.29479
-3.29516
-3.29564
-3.29619
-3.2968
-3.29743
-3.29807
-3.2987
-3.29928
-3.29979
-3.30022
-3.30056
-3.30078
-3.30089
-3.30158
-3.30145
-3.30118
-3.30078
-3.30025
-3.29963
-3.29893
-3.29818
-3.2974
-3.29662
-3.29588
-3.29521
-3.29463
-3.29417
-3.29385
-3.29368
-3.29368
-3.29385
-3.29417
-3.29463
-3.29521
-3.29588
-3.29662
-3.2974
-3.29818
-3.29893
-3.29963
-3.30025
-3.30078
-3.30118
-3.30145
-3.30158
-3.30242
-3.30226
-3.30194
-3.30145
-3.30082
-3.30007
-3.29922
-3.2983
-3.29736
-3.29641
-3.29551
-3.29468
-3.29397
-3.29341
-3.29302
-3.29281
-3.29281
-3.29302
-3.29341
-3.29397
-3.29468
-3.29551
-3.29641
-3.29736
-3.2983
-3.29922
-3.30007
-3.30082
-3.30145
-3.30194
-3.30226
-3.30242
-3.30343
-3.30324
-3.30285
-3.30227
-3.30151
-3.3006
-3.29958
-3.29847
-3.29732
-3.29617
-3.29507
-3.29406
-3.29318
-3.29249
-3.292
-3.29175
-3.29175
-3.292
-3.29249
-3.29318
-3.29406
-3.29507
-3.29617
-3.29732
-3.29847
-3.29958
-3.3006
-3.30151
-3.30227
-3.30285
-3.30324
-3.30343
-3.30466
-3.30443
-3.30396
-3.30326
-3.30235
-3.30126
-3.30002
-3.29868
-3.29728
-3.29589
-3.29454
-3.2933
-3.29223
-3.29137
-3.29077
-3.29046
-3.29046
-3.29077
-3.29137
-3.29223
-3.2933
-3.29454
-3.29589
-3.29728
-3.29868
-3.30002
-3.30126
-3.30235
-3.30326
-3.30396
-3.30443
-3.30466
-3.30615
-3.30587
-3.30531
-3.30447
-3.30338
-3.30206
-3.30057
-3.29895
-3.29726
-3.29556
-3.29391
-3.29239
-3.29107
-3.29
-3.28925
-3.28887
-3.28887
-3.28925
-3.29
-3.29107
-3.29239
-3.29391
-3.29556
-3.29726
-3.29895
-3.30057
-3.30206
-3.30338
-3.30447
-3.30531
-3.30587
-3.30615
-3.30794
-3.30762
-3.30695
-3.30594
-3.30463
-3.30305
-3.30126
-3.29931
-3.29726
-3.29519
-3.29318
-3.29131
-3.28967
-3.28834
-3.28741
-3.28693
-3.28693
-3.28741
-3.28834
-3.28967
-3.29131
-3.29318
-3.29519
-3.29726
-3.29931
-3.30126
-3.30305
-3.30463
-3.30594
-3.30695
-3.30762
-3.30794
-3.31012
-3.30973
-3.30893
-3.30773
-3.30616
-3.30428
-3.30213
-3.29978
-3.2973
-3.29479
-3.29233
-3.29002
-3.28798
-3.28633
-3.28515
-3.28454
-3.28454
-3.28515
-3.28633
-3.28798
-3.29002
-3.29233
-3.29479
-3.2973
-3.29978
-3.30213
-3.30428
-3.30616
-3.30773
-3.30893
-3.30973
-3.31012
-3.31274
-3.31228
-3.31133
-3.3099
-3.30804
-3.30579
-3.30322
-3.3004
-3.29742
-3.29436
-3.29135
-3.2885
-3.28596
-3.28388
-3.28238
-3.2816
-3.2816
-3.28238
-3.28388
-3.28596
-3.2885
-3.29135
-3.29436
-3.29742
-3.3004
-3.30322
-3.30579
-3.30804
-3.3099
-3.31133
-3.31228
-3.31274
-3.3159
-3.31536
-3.31423
-3.31254
-3.31033
-3.30766
-3.3046
-3.30122
-3.29763
-3.29393
-3.29025
-3.28673
-3.28355
-3.28091
-3.27899
-3.27798
-3.27798
-3.27899
-3.28091
-3.28355
-3.28673
-3.29025
-3.29393
-3.29763
-3.30122
-3.3046
-3.30766
-3.31033
-3.31254
-3.31423
-3.31536
-3.3159
-3.31972
-3.31907
-3.31774
-3.31574
-3.31312
-3.30997
-3.30634
-3.30232
-3.29802
-3.29355
-3.28905
-3.28469
-3.2807
-3.27732
-3.27482
-3.27349
-3.27349
-3.27482
-3.27732
-3.2807
-3.28469
-3.28905
-3.29355
-3.29802
-3.30232
-3.30634
-3.30997
-3.31312
-3.31574
-3.31774
-3.31907
-3.31972
-3.32431
-3.32354
-3.32198
-3.31962
-3.31654
-3.31282
-3.30854
-3.30378
-3.29865
-3.29328
-3.2878
-3.28241
-3.27736
-3.27302
-3.26971
-3.26791
-3.26791
-3.26971
-3.27302
-3.27736
-3.28241
-3.2878
-3.29328
-3.29865
-3.30378
-3.30854
-3.31282
-3.31654
-3.31962
-3.32198
-3.32354
-3.32431
-3.32984
-3.32893
-3.32708
-3.32431
-3.3207
-3.31634
-3.31132
-3.30573
-3.29966
-3.29325
-3.2866
-3.27993
-3.27353
-3.2679
-3.26343
-3.2609
-3.2609
-3.26343
-3.2679
-3.27353
-3.27993
-3.2866
-3.29325
-3.29966
-3.30573
-3.31132
-3.31634
-3.3207
-3.32431
-3.32708
-3.32893
-3.32984
-3.33649
-3.33542
-3.33324
-3.32998
-3.32576
-3.32068
-3.31483
-3.3083
-3.30118
-3.29361
-3.28561
-3.27741
-3.26924
-3.26189
-3.25564
-3.25199
-3.25199
-3.25564
-3.26189
-3.26924
-3.27741
-3.28561
-3.29361
-3.30118
-3.3083
-3.31483
-3.32068
-3.32576
-3.32998
-3.33324
-3.33542
-3.33649
-3.34452
-3.34323
-3.34064
-3.33681
-3.33189
-3.32599
-3.31922
-3.31168
-3.30341
-3.29463
-3.28508
-3.27508
-3.26459
-3.25507
-3.24626
-3.24083
-3.24083
-3.24626
-3.25507
-3.26459
-3.27508
-3.28508
-3.29463
-3.30341
-3.31168
-3.31922
-3.32599
-3.33189
-3.33681
-3.34064
-3.34323
-3.34451
-3.3542
-3.35265
-3.34954
-3.345
-3.33925
-3.33245
-3.32464
-3.31603
-3.30648
-3.29658
-3.28533
-3.2734
-3.26006
-3.24866
-3.23633
-3.22791
-3.22791
-3.23633
-3.24866
-3.26006
-3.2734
-3.28533
-3.29658
-3.30648
-3.31603
-3.32464
-3.33245
-3.33925
-3.345
-3.34953
-3.35265
-3.3542
-3.36596
-3.36405
-3.36022
-3.35478
-3.348
-3.34016
-3.33115
-3.3214
-3.31024
-3.29965
-3.28672
-3.2734
-3.25627
-3.24771
-3.28515
-3.32582
-3.32582
-3.28514
-3.2477
-3.25627
-3.2734
-3.28672
-3.29965
-3.31024
-3.3214
-3.33114
-3.34016
-3.348
-3.35478
-3.36022
-3.36405
-3.36596
-3.38032
-3.37794
-3.37302
-3.36632
-3.3582
-3.34922
-3.33869
-3.32782
-3.31404
-3.30438
-3.28934
-3.27911
-3.27624
-3.28022
-3.79486
-3.89016
-3.89016
-3.79485
-3.28022
-3.27623
-3.2791
-3.28934
-3.30437
-3.31404
-3.32782
-3.33869
-3.34922
-3.3582
-3.36632
-3.37301
-3.37794
-3.38032
-3.39806
-3.39503
-3.3882
-3.37971
-3.36981
-3.35977
-3.34695
-3.33717
-3.31886
-3.32301
-3.41682
-3.45759
-3.65937
-3.67777
-3.86505
-3.86388
-3.86388
-3.86505
-3.67777
-3.65936
-3.45759
-3.41682
-3.32301
-3.31886
-3.33717
-3.34695
-3.35977
-3.36981
-3.37971
-3.3882
-3.39503
-3.39806
-3.42019
-3.41639
-3.40551
-3.39443
-3.38203
-3.3737
-3.35757
-3.35389
-3.40891
-3.39345
-3.55712
-3.61322
-3.67219
-3.70656
-3.73344
-3.74323
-3.74323
-3.73344
-3.70656
-3.67219
-3.61322
-3.55712
-3.39345
-3.40891
-3.35389
-3.35757
-3.3737
-3.38203
-3.39443
-3.40551
-3.41639
-3.42019
-3.44728
-3.44424
-3.42377
-3.40997
-3.38973
-3.39194
-3.32428
-3.30679
-3.36662
-3.41944
-3.47959
-3.52911
-3.57512
-3.60904
-3.63315
-3.64493
-3.64493
-3.63315
-3.60904
-3.57511
-3.52911
-3.47958
-3.41944
-3.36662
-3.30679
-3.32428
-3.39194
-3.38973
-3.40997
-3.42377
-3.44424
-3.44728
-3.47937
-3.4856
-3.31631
-3.2493
-3.12904
-3.1791
-3.20064
-3.24724
-3.3107
-3.36412
-3.41623
-3.46226
-3.50126
-3.53089
-3.55077
-3.56078
-3.56078
-3.55077
-3.53089
-3.50126
-3.46226
-3.41623
-3.36412
-3.3107
-3.24724
-3.20064
-3.1791
-3.12904
-3.24929
-3.31631
-3.4856
-3.47937
-3.42674
-3.42534
-3.00328
-2.92409
-3.00844
-3.07871
-3.15011
-3.21213
-3.26898
-3.31949
-3.36524
-3.40529
-3.43863
-3.46426
-3.48158
-3.4903
-3.4903
-3.48158
-3.46426
-3.43863
-3.40529
-3.36524
-3.31949
-3.26898
-3.21213
-3.15011
-3.07871
-3.00844
-2.92409
-3.00327
-3.42534
-3.42674
-2.83624
-2.86654
-2.87211
-2.93259
-3.00306
-3.06689
-3.12829
-3.18479
-3.23582
-3.28147
-3.32203
-3.35714
-3.38616
-3.40844
-3.42352
-3.43111
-3.43111
-3.42352
-3.40844
-3.38616
-3.35714
-3.32203
-3.28147
-3.23582
-3.18479
-3.12829
-3.06689
-3.00306
-2.93259
-2.8721
-2.86654
-2.83624
-2.8026
-2.83115
-2.89112
-2.94834
-3.00718
-3.06285
-3.11617
-3.16506
-3.20994
-3.25035
-3.2861
-3.31687
-3.34219
-3.3616
-3.37473
-3.38135
-3.38135
-3.37473
-3.3616
-3.34219
-3.31687
-3.2861
-3.25035
-3.20994
-3.16506
-3.11617
-3.06285
-3.00718
-2.94835
-2.89112
-2.83115
-2.8026
-2.86723
-2.88724
-2.92644
-2.9707
-3.01766
-3.064
-3.1089
-3.15104
-3.19001
-3.22529
-3.25654
-3.28339
-3.30544
-3.32233
-3.33376
-3.33951
-3.33951
-3.33376
-3.32233
-3.30544
-3.28339
-3.25654
-3.22529
-3.19001
-3.15105
-3.1089
-3.06401
-3.01766
-2.9707
-2.92644
-2.88724
-2.86723
-2.91825
-2.93262
-2.95989
-2.99346
-3.03043
-3.0683
-3.10571
-3.14147
-3.17487
-3.20533
-3.23241
-3.25569
-3.27482
-3.28947
-3.29938
-3.30437
-3.30437
-3.29938
-3.28947
-3.27482
-3.25569
-3.23241
-3.20533
-3.17487
-3.14147
-3.10571
-3.0683
-3.03043
-2.99346
-2.95989
-2.93262
-2.91825
-2.95891
-2.96932
-2.98893
-3.01446
-3.04356
-3.07424
-3.10514
-3.13515
-3.16349
-3.18954
-3.2128
-3.23287
-3.24937
-3.26202
-3.27058
-3.2749
-3.2749
-3.27058
-3.26202
-3.24937
-3.23287
-3.21281
-3.18954
-3.16349
-3.13515
-3.10514
-3.07424
-3.04356
-3.01446
-2.98893
-2.96932
-2.95892
-2.99125
-2.99894
-3.01347
-3.03307
-3.05601
-3.08076
-3.10613
-3.13113
-3.15499
-3.17709
-3.19694
-3.21411
-3.22827
-3.23914
-3.24651
-3.25022
-3.25022
-3.24651
-3.23914
-3.22827
-3.21411
-3.19694
-3.17709
-3.15499
-3.13113
-3.10613
-3.08076
-3.05601
-3.03307
-3.01347
-2.99894
-2.99125
-3.0171
-3.02289
-3.03391
-3.04911
-3.06727
-3.08722
-3.10798
-3.12869
-3.14866
-3.16729
-3.18412
-3.19873
-3.21082
-3.22011
-3.22641
-3.2296
-3.2296
-3.22641
-3.22011
-3.21082
-3.19873
-3.18412
-3.16729
-3.14866
-3.12869
-3.10798
-3.08722
-3.06727
-3.04911
-3.03391
-3.02289
-3.0171
-3.03787
-3.04231
-3.05081
-3.06272
-3.07716
-3.09326
-3.11022
-3.12733
-3.14395
-3.15957
-3.17376
-3.18614
-3.1964
-3.2043
-3.20967
-3.21239
-3.21239
-3.20967
-3.2043
-3.1964
-3.18614
-3.17376
-3.15957
-3.14395
-3.12733
-3.11022
-3.09326
-3.07716
-3.06272
-3.05081
-3.04231
-3.03787
-3.05463
-3.05808
-3.06473
-3.07414
-3.08568
-3.09869
-3.11254
-3.12663
-3.14043
-3.15348
-3.16539
-3.17582
-3.1845
-3.19119
-3.19575
-3.19805
-3.19805
-3.19575
-3.19119
-3.1845
-3.17582
-3.16539
-3.15348
-3.14043
-3.12663
-3.11254
-3.09869
-3.08568
-3.07414
-3.06473
-3.05808
-3.05463
-3.06821
-3.07092
-3.07618
-3.08367
-3.09293
-3.10347
-3.11477
-3.12637
-3.1378
-3.14867
-3.15863
-3.16738
-3.17469
-3.18034
-3.18419
-3.18613
-3.18613
-3.18419
-3.18034
-3.17469
-3.16738
-3.15863
-3.14867
-3.1378
-3.12637
-3.11477
-3.10347
-3.09293
-3.08367
-3.07618
-3.07092
-3.06821
-3.07924
-3.0814
-3.08558
-3.09158
-3.09904
-3.1076
-3.11683
-3.12636
-3.13581
-3.14484
-3.15315
-3.16048
-3.1666
-3.17135
-3.17459
-3.17623
-3.17623
-3.17459
-3.17135
-3.1666
-3.16048
-3.15315
-3.14484
-3.13581
-3.12636
-3.11683
-3.1076
-3.09905
-3.09158
-3.08558
-3.0814
-3.07924
-3.08823
-3.08995
-3.09331
-3.09813
-3.10417
-3.11112
-3.11868
-3.12651
-3.13431
-3.14179
-3.14871
-3.15482
-3.15995
-3.16393
-3.16664
-3.16802
-3.16802
-3.16664
-3.16393
-3.15995
-3.15482
-3.14871
-3.14179
-3.13431
-3.12651
-3.11868
-3.11113
-3.10417
-3.09813
-3.09331
-3.08995
-3.08823
-3.09556
-3.09695
-3.09965
-3.10355
-3.10845
-3.11411
-3.12029
-3.12673
-3.13316
-3.13936
-3.1451
-3.15019
-3.15447
-3.15779
-3.16007
-3.16122
-3.16122
-3.16007
-3.15779
-3.15447
-3.15019
-3.1451
-3.13936
-3.13316
-3.12673
-3.12029
-3.11411
-3.10845
-3.10355
-3.09965
-3.09695
-3.09556
-3.10156
-3.10268
-3.10487
-3.10803
-3.11201
-3.11663
-3.12169
-3.12698
-3.13228
-3.13741
-3.14217
-3.1464
-3.14995
-3.15273
-3.15463
-3.15559
-3.15559
-3.15463
-3.15273
-3.14995
-3.1464
-3.14217
-3.13741
-3.13228
-3.12698
-3.12169
-3.11663
-3.11201
-3.10803
-3.10487
-3.10268
-3.10156
-3.10647
-3.10737
-3.10915
-3.11172
-3.11496
-3.11874
-3.12288
-3.12723
-3.1316
-3.13583
-3.13977
-3.14328
-3.14624
-3.14855
-3.15013
-3.15093
-3.15093
-3.15013
-3.14855
-3.14624
-3.14328
-3.13977
-3.13583
-3.1316
-3.12723
-3.12289
-3.11874
-3.11496
-3.11172
-3.10915
-3.10737
-3.10647
-3.11049
-3.11122
-3.11267
-3.11476
-3.11741
-3.1205
-3.1239
-3.12747
-3.13107
-3.13456
-3.13782
-3.14073
-3.14319
-3.1451
-3.14642
-3.14708
-3.14708
-3.14642
-3.1451
-3.14319
-3.14073
-3.13782
-3.13456
-3.13107
-3.12747
-3.1239
-3.1205
-3.11741
-3.11476
-3.11267
-3.11122
-3.11049
-3.11378
-3.11438
-3.11556
-3.11727
-3.11944
-3.12197
-3.12475
-3.12769
-3.13065
-3.13354
-3.13623
-3.13864
-3.14067
-3.14226
-3.14335
-3.1439
-3.1439
-3.14335
-3.14226
-3.14067
-3.13864
-3.13623
-3.13354
-3.13065
-3.12769
-3.12475
-3.12197
-3.11944
-3.11727
-3.11556
-3.11438
-3.11378
-3.11649
-3.11698
-3.11794
-3.11934
-3.12111
-3.12318
-3.12547
-3.12788
-3.13033
-3.1327
-3.13493
-3.13692
-3.1386
-3.13992
-3.14082
-3.14128
-3.14128
-3.14082
-3.13992
-3.1386
-3.13692
-3.13493
-3.1327
-3.13033
-3.12788
-3.12547
-3.12318
-3.12111
-3.11934
-3.11794
-3.11698
-3.11649
-3.11871
-3.11911
-3.1199
-3.12104
-3.12249
-3.12419
-3.12607
-3.12805
-3.13007
-3.13203
-3.13386
-3.13551
-3.1369
-3.13799
-3.13873
-3.13912
-3.13912
-3.13873
-3.13799
-3.1369
-3.13551
-3.13386
-3.13203
-3.13007
-3.12806
-3.12607
-3.12419
-3.12249
-3.12104
-3.1199
-3.11911
-3.11871
-3.12053
-3.12086
-3.1215
-3.12244
-3.12363
-3.12503
-3.12657
-3.1282
-3.12986
-3.13147
-3.13299
-3.13434
-3.13549
-3.1364
-3.13701
-3.13733
-3.13733
-3.13701
-3.1364
-3.13549
-3.13435
-3.13299
-3.13147
-3.12986
-3.1282
-3.12657
-3.12503
-3.12363
-3.12244
-3.12151
-3.12086
-3.12053
-3.12203
-3.1223
-3.12283
-3.1236
-3.12457
-3.12572
-3.12699
-3.12833
-3.12969
-3.13102
-3.13227
-3.13339
-3.13434
-3.13509
-3.1356
-3.13586
-3.13586
-3.1356
-3.13509
-3.13434
-3.13339
-3.13227
-3.13102
-3.12969
-3.12833
-3.12699
-3.12572
-3.12457
-3.1236
-3.12283
-3.1223
-3.12203
-3.12326
-3.12348
-3.12392
-3.12455
-3.12535
-3.12629
-3.12733
-3.12844
-3.12956
-3.13065
-3.13168
-3.13261
-3.13339
-3.13401
-3.13443
-3.13464
-3.13464
-3.13443
-3.13401
-3.13339
-3.13261
-3.13168
-3.13065
-3.12956
-3.12844
-3.12733
-3.12629
-3.12535
-3.12455
-3.12392
-3.12348
-3.12326
-3.12428
-3.12446
-3.12481
-3.12533
-3.12599
-3.12676
-3.12762
-3.12853
-3.12945
-3.13035
-3.1312
-3.13196
-3.13261
-3.13312
-3.13347
-3.13364
-3.13364
-3.13347
-3.13312
-3.13261
-3.13196
-3.1312
-3.13035
-3.12945
-3.12853
-3.12762
-3.12676
-3.12599
-3.12533
-3.12481
-3.12446
-3.12428
-3.12511
-3.12526
-3.12555
-3.12597
-3.12652
-3.12715
-3.12786
-3.1286
-3.12936
-3.13011
-3.13081
-3.13143
-3.13197
-3.13239
-3.13267
-3.13282
-3.13282
-3.13267
-3.13239
-3.13197
-3.13143
-3.13081
-3.13011
-3.12936
-3.1286
-3.12786
-3.12715
-3.12652
-3.12597
-3.12555
-3.12526
-3.12511
-3.12579
-3.12592
-3.12616
-3.1265
-3.12695
-3.12747
-3.12805
-3.12867
-3.12929
-3.1299
-3.13048
-3.131
-3.13144
-3.13178
-3.13202
-3.13214
-3.13214
-3.13202
-3.13178
-3.13144
-3.131
-3.13048
-3.1299
-3.12929
-3.12867
-3.12805
-3.12747
-3.12695
-3.1265
-3.12616
-3.12592
-3.12579
-3.12636
-3.12646
-3.12665
-3.12694
-3.12731
-3.12774
-3.12821
-3.12872
-3.12923
-3.12974
-3.13021
-3.13064
-3.131
-3.13129
-3.13148
-3.13158
-3.13158
-3.13148
-3.13129
-3.131
-3.13064
-3.13021
-3.12974
-3.12923
-3.12872
-3.12821
-3.12774
-3.12731
-3.12694
-3.12665
-3.12646
-3.12636
-3.12682
-3.1269
-3.12706
-3.1273
-3.1276
-3.12795
-3.12835
-3.12876
-3.12919
-3.1296
-3.12999
-3.13034
-3.13064
-3.13088
-3.13104
-3.13112
-3.13112
-3.13104
-3.13088
-3.13064
-3.13034
-3.12999
-3.1296
-3.12919
-3.12876
-3.12835
-3.12795
-3.1276
-3.1273
-3.12706
-3.1269
-3.12682
-3.1272
-3.12727
-3.1274
-3.1276
-3.12784
-3.12813
-3.12846
-3.1288
-3.12915
-3.12949
-3.12981
-3.1301
-3.13035
-3.13054
-3.13067
-3.13074
-3.13074
-3.13067
-3.13054
-3.13035
-3.1301
-3.12981
-3.12949
-3.12915
-3.1288
-3.12846
-3.12813
-3.12784
-3.1276
-3.1274
-3.12727
-3.1272
-3.12752
-3.12757
-3.12768
-3.12784
-3.12804
-3.12828
-3.12855
-3.12883
-3.12912
-3.1294
-3.12966
-3.1299
-3.1301
-3.13026
-3.13037
-3.13043
-3.13043
-3.13037
-3.13026
-3.1301
-3.1299
-3.12966
-3.1294
-3.12912
-3.12883
-3.12855
-3.12828
-3.12804
-3.12784
-3.12768
-3.12757
-3.12752
-3.12777
-3.12782
-3.12791
-3.12804
-3.12821
-3.1284
-3.12862
-3.12886
-3.12909
-3.12932
-3.12954
-3.12974
-3.1299
-3.13004
-3.13013
-3.13017
-3.13017
-3.13013
-3.13004
-3.1299
-3.12974
-3.12954
-3.12932
-3.12909
-3.12886
-3.12862
-3.1284
-3.12821
-3.12804
-3.12791
-3.12782
-3.12777
-3.12799
-3.12802
-3.1281
-3.12821
-3.12834
-3.12851
-3.12869
-3.12888
-3.12907
-3.12926
-3.12944
-3.1296
-3.12974
-3.12985
-3.12992
-3.12996
-3.12996
-3.12992
-3.12985
-3.12974
-3.1296
-3.12944
-3.12926
-3.12907
-3.12888
-3.12869
-3.12851
-3.12834
-3.12821
-3.1281
-3.12802
-3.12799
-3.12816
-3.12819
-3.12825
-3.12834
-3.12846
-3.12859
-3.12874
-3.12889
-3.12905
-3.12921
-3.12936
-3.12949
-3.1296
-3.12969
-3.12975
-3.12979
-3.12979
-3.12975
-3.12969
-3.1296
-3.12949
-3.12936
-3.12921
-3.12905
-3.12889
-3.12874
-3.12859
-3.12846
-3.12834
-3.12825
-3.12819
-3.12816
-3.12831
-3.12833
-3.12838
-3.12845
-3.12855
-3.12866
-3.12878
-3.12891
-3.12904
-3.12917
-3.12929
-3.1294
-3.12949
-3.12957
-3.12962
-3.12964
-3.12964
-3.12962
-3.12957
-3.12949
-3.1294
-3.12929
-3.12917
-3.12904
-3.12891
-3.12878
-3.12866
-3.12855
-3.12845
-3.12838
-3.12833
-3.1283
-3.12842
-3.12844
-3.12849
-3.12855
-3.12862
-3.12871
-3.12881
-3.12892
-3.12903
-3.12913
-3.12923
-3.12932
-3.1294
-3.12946
-3.1295
-3.12952
-3.12952
-3.1295
-3.12946
-3.1294
-3.12932
-3.12923
-3.12913
-3.12903
-3.12892
-3.12881
-3.12871
-3.12862
-3.12855
-3.12849
-3.12844
-3.12842
-3.12852
-3.12854
-3.12857
-3.12862
-3.12868
-3.12876
-3.12884
-3.12893
-3.12902
-3.12911
-3.12919
-3.12926
-3.12933
-3.12938
-3.12941
-3.12943
-3.12943
-3.12941
-3.12938
-3.12933
-3.12926
-3.12919
-3.12911
-3.12902
-3.12893
-3.12884
-3.12876
-3.12868
-3.12862
-3.12857
-3.12854
-3.12852
-3.1286
-3.12862
-3.12864
-3.12868
-3.12874
-3.1288
-3.12886
-3.12894
-3.12901
-3.12908
-3.12915
-3.12921
-3.12926
-3.1293
-3.12933
-3.12935
-3.12935
-3.12933
-3.1293
-3.12926
-3.12921
-3.12915
-3.12908
-3.12901
-3.12894
-3.12886
-3.1288
-3.12874