/*--------------------------------*- C++ -*----------------------------------*\
  =========                 |
  \\      /  F ield         | OpenFOAM: The Open Source CFD Toolbox
   \\    /   O peration     | Website:  https://openfoam.org
    \\  /    A nd           | Version:  9
     \\/     M anipulation  |
\*---------------------------------------------------------------------------*/
FoamFile
{
    format      ascii;
    class       surfaceScalarField;
    location    "0.15";
    object      phi;
}
// * * * * * * * * * * * * * * * * * * * * * * * * * * * * * * * * * * * * * //

dimensions      [0 3 -1 0 0 0 0];

internalField   nonuniform List<scalar> 
8032
(
-2.29257e-09
2.20321e-09
-2.74969e-09
2.26085e-09
-4.40822e-09
1.6075e-09
-6.20385e-09
1.72628e-09
-7.81645e-09
1.55244e-09
-9.16119e-09
1.30029e-09
-1.0106e-08
9.13757e-10
-1.05817e-08
4.53506e-10
-1.05599e-08
-3.8537e-11
-1.00644e-08
-5.08805e-10
-9.11879e-09
-9.56794e-10
-7.77109e-09
-1.35734e-09
-6.0828e-09
-1.69666e-09
-4.12677e-09
-1.96343e-09
-1.985e-09
-2.14826e-09
2.54282e-10
-2.24506e-09
2.49976e-09
-2.25059e-09
4.66035e-09
-2.1652e-09
6.64877e-09
-1.99254e-09
8.38485e-09
-1.73984e-09
9.79864e-09
-1.41719e-09
1.08331e-08
-1.03758e-09
1.14462e-08
-6.16045e-10
1.16131e-08
-1.6955e-10
1.1326e-08
2.84587e-10
1.0596e-08
7.27514e-10
9.45246e-09
1.1413e-09
7.9428e-09
1.50755e-09
6.13436e-09
1.8063e-09
4.11915e-09
2.01343e-09
2.02303e-09
2.09409e-09
2.02215e-09
-2.42946e-09
4.68652e-09
-4.25628e-09
4.09554e-09
-6.30939e-09
3.62487e-09
-8.15895e-09
3.52323e-09
-9.79194e-09
3.13564e-09
-1.10489e-08
2.51816e-09
-1.18741e-08
1.70974e-09
-1.22226e-08
7.80303e-10
-1.20788e-08
-1.99321e-10
-1.14339e-08
-1.16746e-09
-1.03197e-08
-2.08277e-09
-8.78014e-09
-2.90705e-09
-6.87732e-09
-3.60842e-09
-4.68808e-09
-4.16047e-09
-2.30052e-09
-4.5428e-09
1.89597e-10
-4.74131e-09
2.6827e-09
-4.74922e-09
5.0791e-09
-4.5665e-09
7.28317e-09
-4.20106e-09
9.20699e-09
-3.66766e-09
1.07738e-08
-2.98768e-09
1.1921e-08
-2.18816e-09
1.26027e-08
-1.30088e-09
1.27913e-08
-3.61023e-10
1.24791e-08
5.94084e-10
1.1678e-08
1.526e-09
1.04205e-08
2.39634e-09
8.75917e-09
3.16656e-09
6.76768e-09
3.79569e-09
4.54634e-09
4.23252e-09
2.23353e-09
4.40504e-09
4.25466e-09
-2.73547e-09
7.46561e-09
-5.26557e-09
6.65045e-09
-7.75491e-09
6.10623e-09
-9.86216e-09
5.60247e-09
-1.15901e-08
4.83137e-09
-1.28767e-08
3.77601e-09
-1.36781e-08
2.48799e-09
-1.39638e-08
1.04739e-09
-1.37176e-08
-4.60515e-10
-1.29398e-08
-1.95798e-09
-1.16562e-08
-3.37734e-09
-9.91354e-09
-4.65937e-09
-7.77802e-09
-5.75246e-09
-5.33253e-09
-6.61354e-09
-2.67288e-09
-7.20917e-09
9.62023e-11
-7.51641e-09
2.86546e-09
-7.52384e-09
5.52551e-09
-7.23138e-09
7.97123e-09
-6.65112e-09
1.01059e-08
-5.80626e-09
1.1845e-08
-4.7304e-09
1.31197e-08
-3.4662e-09
1.38794e-08
-2.06372e-09
1.40941e-08
-5.78519e-10
1.3755e-08
9.30424e-10
1.28758e-08
2.4026e-09
1.14923e-08
3.77747e-09
9.66238e-09
4.9942e-09
7.46815e-09
5.98761e-09
5.01978e-09
6.67902e-09
2.4674e-09
6.95521e-09
6.7212e-09
-2.87676e-09
1.03783e-08
-5.95251e-09
9.75125e-09
-8.80318e-09
8.95872e-09
-1.12362e-08
8.02156e-09
-1.32009e-08
6.77591e-09
-1.4648e-08
5.20298e-09
-1.55366e-08
3.35884e-09
-1.5838e-08
1.33379e-09
-1.55391e-08
-7.72413e-10
-1.46463e-08
-2.86204e-09
-1.31894e-08
-4.84418e-09
-1.12215e-08
-6.63618e-09
-8.81683e-09
-8.16509e-09
-6.06789e-09
-9.36961e-09
-3.08153e-09
-1.02019e-08
2.5571e-11
-1.06293e-08
3.13128e-09
-1.06347e-08
6.1138e-09
-1.02186e-08
8.85572e-09
-9.39726e-09
1.12491e-08
-8.20345e-09
1.31995e-08
-6.68437e-09
1.46302e-08
-4.90013e-09
1.54847e-08
-2.92125e-09
1.57294e-08
-8.26018e-10
1.53547e-08
1.30245e-09
1.43759e-08
3.3789e-09
1.28331e-08
5.3179e-09
1.07913e-08
7.03364e-09
8.34162e-09
8.43533e-09
5.60787e-09
9.41049e-09
2.75916e-09
9.80218e-09
9.47935e-09
-3.16103e-09
1.35721e-08
-6.58409e-09
1.31955e-08
-9.83271e-09
1.22137e-08
-1.26573e-08
1.08409e-08
-1.49536e-08
9.06085e-09
-1.66515e-08
6.88769e-09
-1.76997e-08
4.39424e-09
-1.80654e-08
1.68774e-09
-1.77365e-08
-1.11201e-09
-1.67244e-08
-3.88382e-09
-1.50661e-08
-6.51127e-09
-1.2824e-08
-8.88627e-09
-1.00839e-08
-1.09124e-08
-6.95183e-09
-1.25083e-08
-3.54966e-09
-1.36101e-08
-1.04441e-11
-1.41739e-08
3.52718e-09
-1.41772e-08
6.92426e-09
-1.36201e-08
1.00473e-08
-1.25243e-08
1.27735e-08
-1.09333e-08
1.49955e-08
-8.90981e-09
1.6626e-08
-6.53374e-09
1.76007e-08
-3.89893e-09
1.78815e-08
-1.1095e-09
1.74574e-08
1.72393e-09
1.63459e-08
4.48795e-09
1.45925e-08
7.06893e-09
1.22713e-08
9.35276e-09
9.48682e-09
1.12175e-08
6.37935e-09
1.25162e-08
3.13833e-09
1.3041e-08
1.26169e-08
-3.60135e-09
1.71886e-08
-7.45211e-09
1.70607e-08
-1.11627e-08
1.59306e-08
-1.44487e-08
1.41255e-08
-1.7149e-08
1.17548e-08
-1.91607e-08
8.89073e-09
-2.04144e-08
5.63873e-09
-2.08687e-08
2.1329e-09
-2.05095e-08
-1.47982e-09
-1.93521e-08
-5.04938e-09
-1.74414e-08
-8.42959e-09
-1.48515e-08
-1.14834e-08
-1.16828e-08
-1.40877e-08
-8.0589e-09
-1.61382e-08
-4.12157e-09
-1.75529e-08
-2.50428e-11
-1.82754e-08
4.06992e-09
-1.82768e-08
8.0024e-09
-1.75568e-08
1.16178e-08
-1.61436e-08
1.47739e-08
-1.4093e-08
1.73466e-08
-1.14857e-08
1.92346e-08
-8.42477e-09
2.03637e-08
-5.03082e-09
2.06895e-08
-1.43798e-09
2.01996e-08
2.21137e-09
1.8914e-08
5.7712e-09
1.68856e-08
9.09507e-09
1.42003e-08
1.20358e-08
1.09783e-08
1.44377e-08
7.3829e-09
1.61094e-08
3.63509e-09
1.67873e-08
1.6251e-08
-4.20177e-09
2.14068e-08
-8.6478e-09
2.15181e-08
-1.29531e-08
2.02415e-08
-1.68005e-08
1.79733e-08
-1.99862e-08
1.49372e-08
-2.23745e-08
1.12736e-08
-2.38746e-08
7.13242e-09
-2.44329e-08
2.68432e-09
-2.40312e-08
-1.88837e-09
-2.26875e-08
-6.39989e-09
-2.04552e-08
-1.06683e-08
-1.74223e-08
-1.45224e-08
-1.37077e-08
-1.78081e-08
-9.45709e-09
-2.03942e-08
-4.83732e-09
-2.21777e-08
-2.98917e-11
-2.30875e-08
4.77624e-09
-2.30872e-08
9.39204e-09
-2.21765e-08
1.36359e-08
-2.0391e-08
1.73408e-08
-1.78012e-08
2.03608e-08
-1.45089e-08
2.25773e-08
-1.06441e-08
2.39029e-08
-6.3591e-09
2.42856e-08
-1.82321e-09
2.37107e-08
2.78387e-09
2.22018e-08
7.27778e-09
1.9821e-08
1.14737e-08
1.66688e-08
1.5186e-08
1.28881e-08
1.82163e-08
8.66945e-09
2.03265e-08
4.26808e-09
2.11865e-08
2.05184e-08
-4.99288e-09
2.64055e-08
-1.02244e-08
2.67565e-08
-1.52873e-08
2.53088e-08
-1.98312e-08
2.25184e-08
-2.36103e-08
1.87147e-08
-2.6455e-08
1.41149e-08
-2.82508e-08
8.92369e-09
-2.89296e-08
3.35795e-09
-2.84676e-08
-2.3558e-09
-2.68852e-08
-7.98782e-09
-2.42459e-08
-1.33131e-08
-2.06543e-08
-1.81194e-08
-1.62519e-08
-2.22156e-08
-1.1212e-08
-2.54389e-08
-5.73297e-09
-2.76612e-08
-3.04428e-11
-2.87942e-08
5.67113e-09
-2.87926e-08
1.11473e-08
-2.76562e-08
1.61824e-08
-2.54295e-08
2.05781e-08
-2.22001e-08
2.41615e-08
-1.80952e-08
2.67913e-08
-1.32766e-08
2.83642e-08
-7.93448e-09
2.88182e-08
-2.27964e-09
2.8136e-08
3.46381e-09
2.63455e-08
9.06609e-09
2.35205e-08
1.42967e-08
1.97809e-08
1.89235e-08
1.52944e-08
2.2701e-08
1.02889e-08
2.53299e-08
5.06942e-09
2.64046e-08
2.55869e-08
-5.98511e-09
3.23995e-08
-1.22229e-08
3.30006e-08
-1.82473e-08
3.1337e-08
-2.36589e-08
2.79314e-08
-2.81687e-08
2.32239e-08
-3.15712e-08
1.75153e-08
-3.37252e-08
1.10746e-08
-3.45459e-08
4.17479e-09
-3.40027e-08
-2.90323e-09
-3.21188e-08
-9.87616e-09
-2.89698e-08
-1.64667e-08
-2.46804e-08
-2.24133e-08
-1.94202e-08
-2.74803e-08
-1.33964e-08
-3.14669e-08
-6.84668e-09
-3.4215e-08
-2.89361e-11
-3.56158e-08
6.7882e-09
-3.56133e-08
1.33361e-08
-3.42075e-08
1.93569e-08
-3.14533e-08
2.46133e-08
-2.74593e-08
2.88982e-08
-2.23828e-08
3.2043e-08
-1.64239e-08
3.39237e-08
-9.81756e-09
3.44664e-08
-2.82466e-09
3.36503e-08
4.27774e-09
3.1509e-08
1.12054e-08
2.81304e-08
1.76733e-08
2.36577e-08
2.33945e-08
1.82937e-08
2.80629e-08
1.23094e-08
3.13129e-08
6.06424e-09
3.26478e-08
3.16505e-08
-7.22518e-09
3.96273e-08
-1.47166e-08
4.04959e-08
-2.19365e-08
3.85599e-08
-2.84236e-08
3.44201e-08
-3.38348e-08
2.86352e-08
-3.7922e-08
2.16013e-08
-4.05131e-08
1.36635e-08
-4.15037e-08
5.16261e-09
-4.08556e-08
-3.55464e-09
-3.85956e-08
-1.21398e-08
-3.48138e-08
-2.02522e-08
-2.966e-08
-2.75708e-08
-2.3338e-08
-3.38061e-08
-1.60972e-08
-3.87113e-08
-8.22319e-09
-4.20926e-08
-2.63488e-11
-4.3816e-08
8.17017e-09
-4.3813e-08
1.60433e-08
-4.20836e-08
2.32827e-08
-3.86956e-08
2.96031e-08
-3.37824e-08
3.47555e-08
-2.75377e-08
3.85367e-08
-2.02075e-08
4.0798e-08
-1.2081e-08
4.14504e-08
-3.47914e-09
4.04687e-08
5.25738e-09
3.78933e-08
1.37789e-08
3.38303e-08
2.17344e-08
2.84524e-08
2.87705e-08
2.20015e-08
3.45125e-08
1.4805e-08
3.85073e-08
7.29845e-09
4.01532e-08
3.89481e-08
-8.7453e-09
4.83784e-08
-1.77893e-08
4.95441e-08
-2.64908e-08
4.72642e-08
-3.43052e-08
4.22361e-08
-4.08251e-08
3.51556e-08
-4.57523e-08
2.65279e-08
-4.88777e-08
1.67874e-08
-5.0074e-08
6.35684e-09
-4.92937e-08
-4.33742e-09
-4.65684e-08
-1.4868e-08
-4.20063e-08
-2.48175e-08
-3.57878e-08
-3.37924e-08
-2.81588e-08
-4.14384e-08
-1.94202e-08
-4.74532e-08
-9.9167e-09
-5.15991e-08
-2.32108e-11
-5.37124e-08
9.87021e-09
-5.37093e-08
1.93735e-08
-5.15896e-08
2.8112e-08
-4.74366e-08
3.57412e-08
-4.14141e-08
4.19604e-08
-3.37592e-08
4.65245e-08
-2.47738e-08
4.92538e-08
-1.48124e-08
5.0041e-08
-4.26822e-09
4.88556e-08
6.44088e-09
4.57464e-08
1.68862e-08
4.08415e-08
2.66376e-08
3.43487e-08
3.52617e-08
2.6563e-08
4.22963e-08
1.78776e-08
4.71916e-08
8.81212e-09
4.92169e-08
4.77597e-08
-1.06134e-08
5.89935e-08
-2.15614e-08
6.04948e-08
-3.2081e-08
5.77861e-08
-4.15257e-08
5.16823e-08
-4.94066e-08
4.30371e-08
-5.53632e-08
3.24843e-08
-5.91422e-08
2.05655e-08
-6.05888e-08
7.80192e-09
-5.96446e-08
-5.28352e-09
-5.63472e-08
-1.81677e-08
-5.0827e-08
-3.03402e-08
-4.33023e-08
-4.13198e-08
-3.40701e-08
-5.06733e-08
-2.34948e-08
-5.80312e-08
-1.19935e-08
-6.31031e-08
-1.98596e-11
-6.56887e-08
1.19539e-08
-6.56855e-08
2.34555e-08
-6.30936e-08
3.40316e-08
-5.8015e-08
4.32651e-08
-5.06498e-08
5.07921e-08
-4.12883e-08
5.63159e-08
-3.02996e-08
5.96189e-08
-1.81173e-08
6.05712e-08
-5.2223e-09
5.9136e-08
7.87427e-09
5.53724e-08
2.06482e-08
4.94356e-08
3.25729e-08
4.15778e-08
4.31178e-08
3.21535e-08
5.17195e-08
2.16409e-08
5.77024e-08
1.06723e-08
6.01846e-08
5.84313e-08
-1.28902e-08
7.18879e-08
-2.61713e-08
7.37789e-08
-3.89212e-08
7.05382e-08
-5.03632e-08
6.31258e-08
-5.99098e-08
5.25845e-08
-6.71256e-08
3.97002e-08
-7.17035e-08
2.51428e-08
-7.34552e-08
9.55254e-09
-7.23095e-08
-6.43072e-09
-6.83112e-08
-2.21678e-08
-6.16184e-08
-3.7035e-08
-5.24952e-08
-5.04452e-08
-4.13016e-08
-6.18691e-08
-2.84795e-08
-7.08557e-08
-1.45344e-08
-7.70505e-08
-1.65407e-11
-8.02088e-08
1.45016e-08
-8.02058e-08
2.84474e-08
-7.70416e-08
4.12709e-08
-7.08406e-08
5.24665e-08
-6.18474e-08
6.15929e-08
-5.04165e-08
6.82903e-08
-3.69988e-08
7.22948e-08
-2.21235e-08
7.3449e-08
-6.37813e-09
7.17084e-08
9.6133e-09
6.71446e-08
2.52105e-08
5.99455e-08
3.97705e-08
5.04168e-08
5.26452e-08
3.89912e-08
6.31434e-08
2.62463e-08
7.04465e-08
1.2942e-08
7.34873e-08
7.13729e-08
-1.56731e-08
8.75621e-08
-3.18011e-08
8.9909e-08
-4.72738e-08
8.60126e-08
-6.11567e-08
7.70101e-08
-7.27392e-08
6.41678e-08
-8.14937e-08
4.84549e-08
-8.70473e-08
3.06961e-08
-8.91713e-08
1.16758e-08
-8.77789e-08
-7.82423e-09
-8.29242e-08
-2.70238e-08
-7.47988e-08
-4.51621e-08
-6.37231e-08
-6.15227e-08
-5.01341e-08
-7.54599e-08
-3.45679e-08
-8.64239e-08
-1.76384e-08
-9.39819e-08
-1.34153e-11
-9.78357e-08
1.76119e-08
-9.7833e-08
3.45423e-08
-9.39739e-08
5.01103e-08
-8.64104e-08
6.37019e-08
-7.54407e-08
7.47812e-08
-6.14975e-08
8.29116e-08
-4.51307e-08
8.77727e-08
-2.69861e-08
8.91734e-08
-7.78028e-09
8.70597e-08
1.17256e-08
8.15185e-08
3.07503e-08
7.27785e-08
4.85093e-08
6.12112e-08
6.4211e-08
4.73392e-08
7.70146e-08
3.18661e-08
8.5918e-08
1.57188e-08
8.96339e-08
8.70911e-08
-1.90601e-08
1.06625e-07
-3.86634e-08
1.09515e-07
-5.74617e-08
1.04813e-07
-7.43242e-08
9.38739e-08
-8.83913e-08
7.82357e-08
-9.90233e-08
5.90872e-08
-1.05767e-07
3.74402e-08
-1.08346e-07
1.42535e-08
-1.06652e-07
-9.5185e-09
-1.00753e-07
-3.29244e-08
-9.08793e-08
-5.50367e-08
-7.74215e-08
-7.49819e-08
-6.09101e-08
-9.19729e-08
-4.19962e-08
-1.05339e-07
-2.14259e-08
-1.14554e-07
-1.05969e-11
-1.19253e-07
2.14051e-08
-1.1925e-07
4.19765e-08
-1.14547e-07
6.08923e-08
-1.05328e-07
7.74065e-08
-9.19565e-08
9.08681e-08
-7.49606e-08
1.00746e-07
-5.50105e-08
1.06652e-07
-3.28933e-08
1.08354e-07
-9.48285e-09
1.05785e-07
1.42931e-08
9.90515e-08
3.74823e-08
8.84315e-08
5.91282e-08
7.43758e-08
7.82657e-08
5.75227e-08
9.38662e-08
3.87245e-08
1.04716e-07
1.90999e-08
1.09257e-07
1.06191e-07
-2.31911e-08
1.29817e-07
-4.70279e-08
1.33353e-07
-6.98782e-08
1.27664e-07
-9.03738e-08
1.14371e-07
-1.07471e-07
9.53336e-08
-1.20393e-07
7.20093e-08
-1.28589e-07
4.56362e-08
-1.31721e-07
1.73854e-08
-1.2966e-07
-1.15794e-08
-1.22487e-07
-4.00985e-08
-1.10483e-07
-6.70417e-08
-9.41215e-08
-9.13446e-08
-7.40475e-08
-1.12048e-07
-5.10527e-08
-1.28335e-07
-2.60441e-08
-1.39564e-07
-8.14967e-12
-1.4529e-07
2.60282e-08
-1.45288e-07
5.10379e-08
-1.39558e-07
7.40347e-08
-1.28326e-07
9.41116e-08
-1.12035e-07
1.10477e-07
-9.13272e-08
1.22486e-07
-6.70205e-08
1.29665e-07
-4.00738e-08
1.31733e-07
-1.15515e-08
1.28609e-07
1.74158e-08
1.20422e-07
4.56678e-08
1.07511e-07
7.20386e-08
9.04239e-08
9.53514e-08
6.9934e-08
1.14355e-07
4.70801e-08
1.27568e-07
2.32271e-08
1.3311e-07
1.29417e-07
-2.82175e-08
1.58037e-07
-5.72138e-08
1.62351e-07
-8.50043e-08
1.55456e-07
-1.09927e-07
1.39295e-07
-1.30717e-07
1.16124e-07
-1.46429e-07
8.77217e-08
-1.56394e-07
5.56017e-08
-1.60202e-07
2.11928e-08
-1.57695e-07
-1.40867e-08
-1.4897e-07
-4.8824e-08
-1.3437e-07
-8.16424e-08
-1.1447e-07
-1.11245e-07
-9.00557e-08
-1.36464e-07
-6.20885e-08
-1.56304e-07
-3.16721e-08
-1.69981e-07
-6.11318e-12
-1.76957e-07
3.16602e-08
-1.76956e-07
6.20779e-08
-1.69977e-07
9.0047e-08
-1.56296e-07
1.14465e-07
-1.36453e-07
1.34368e-07
-1.11232e-07
1.48972e-07
-8.16261e-08
1.57703e-07
-4.88053e-08
1.60216e-07
-1.40659e-08
1.56416e-07
2.1215e-08
1.46459e-07
5.56241e-08
1.30755e-07
8.77412e-08
1.09973e-07
1.16133e-07
8.50558e-08
1.39272e-07
5.72638e-08
1.5536e-07
2.82488e-08
1.62124e-07
1.57666e-07
-3.43422e-08
1.9238e-07
-6.96196e-08
1.97629e-07
-1.03425e-07
1.89262e-07
-1.33741e-07
1.69612e-07
-1.59029e-07
1.41412e-07
-1.7814e-07
1.06834e-07
-1.90262e-07
6.77234e-08
-1.94893e-07
2.58238e-08
-1.91842e-07
-1.71372e-08
-1.81228e-07
-5.94389e-08
-1.63466e-07
-9.94044e-08
-1.39257e-07
-1.35455e-07
-1.09555e-07
-1.66167e-07
-7.55318e-08
-1.90328e-07
-3.85282e-08
-2.06986e-07
-4.47752e-12
-2.15482e-07
3.85196e-08
-2.15481e-07
7.55243e-08
-2.06982e-07
1.0955e-07
-1.90323e-07
1.39255e-07
-1.66159e-07
1.63467e-07
-1.35445e-07
1.81233e-07
-9.93928e-08
1.91852e-07
-5.94257e-08
1.94908e-07
-1.71229e-08
1.90284e-07
2.58386e-08
1.7817e-07
6.77376e-08
1.59065e-07
1.06845e-07
1.33785e-07
1.41413e-07
1.03471e-07
1.69585e-07
6.9662e-08
1.89168e-07
3.43713e-08
1.97414e-07
1.92037e-07
-4.17939e-08
2.34176e-07
-8.47214e-08
2.40558e-07
-1.25853e-07
2.30395e-07
-1.62737e-07
2.06497e-07
-1.93503e-07
1.72179e-07
-2.16755e-07
1.30086e-07
-2.31502e-07
8.24714e-08
-2.37137e-07
3.14583e-08
-2.33425e-07
-2.08485e-08
-2.20511e-07
-7.23538e-08
-1.989e-07
-1.21016e-07
-1.69443e-07
-1.64911e-07
-1.33303e-07
-2.02307e-07
-9.19038e-08
-2.31728e-07
-4.68784e-08
-2.52012e-07
-3.28744e-12
-2.62358e-07
4.68722e-08
-2.62357e-07
9.18987e-08
-2.5201e-07
1.333e-07
-2.31724e-07
1.69443e-07
-2.02302e-07
1.98902e-07
-1.64905e-07
2.20517e-07
-1.21008e-07
2.33436e-07
-7.23458e-08
2.37153e-07
-2.08402e-08
2.31524e-07
3.14665e-08
2.16783e-07
8.24784e-08
1.93537e-07
1.3009e-07
1.62776e-07
1.72173e-07
1.25896e-07
2.06464e-07
8.47628e-08
2.30301e-07
4.18191e-08
2.40357e-07
2.33856e-07
-5.08691e-08
2.85045e-07
-1.03107e-07
2.92797e-07
-1.53156e-07
2.80444e-07
-1.98036e-07
2.51378e-07
-2.35473e-07
2.09616e-07
-2.63767e-07
1.5838e-07
-2.81713e-07
1.00418e-07
-2.88571e-07
3.83158e-08
-2.84056e-07
-2.53633e-08
-2.68341e-07
-8.80684e-08
-2.42044e-07
-1.47313e-07
-2.06199e-07
-2.00756e-07
-1.6222e-07
-2.46287e-07
-1.1184e-07
-2.82108e-07
-5.70468e-08
-3.06805e-07
-2.48687e-12
-3.19402e-07
5.70421e-08
-3.19402e-07
1.11836e-07
-3.06804e-07
1.62218e-07
-2.82107e-07
2.062e-07
-2.46285e-07
2.42047e-07
-2.00753e-07
2.68348e-07
-1.4731e-07
2.84067e-07
-8.80651e-08
2.88587e-07
-2.53604e-08
2.81734e-07
3.8318e-08
2.63794e-07
1.00419e-07
2.35505e-07
1.58377e-07
1.98074e-07
2.09604e-07
1.53195e-07
2.51343e-07
1.03142e-07
2.80353e-07
5.08934e-08
2.92605e-07
2.84749e-07
-6.19109e-08
3.46957e-07
-1.25485e-07
3.56372e-07
-1.86391e-07
3.41352e-07
-2.41007e-07
3.05995e-07
-2.86565e-07
2.55175e-07
-3.20998e-07
1.92814e-07
-3.42839e-07
1.2226e-07
-3.51187e-07
4.66638e-08
-3.45695e-07
-3.08549e-08
-3.26574e-07
-1.0719e-07
-2.94572e-07
-1.79315e-07
-2.5095e-07
-2.44378e-07
-1.97427e-07
-2.99811e-07
-1.36113e-07
-3.43422e-07
-6.94278e-08
-3.73491e-07
-2.07111e-12
-3.88828e-07
6.9424e-08
-3.88828e-07
1.3611e-07
-3.73491e-07
1.97426e-07
-3.43422e-07
2.50951e-07
-2.9981e-07
2.94576e-07
-2.44378e-07
3.26581e-07
-1.79315e-07
3.45706e-07
-1.07191e-07
3.51202e-07
-3.08569e-08
3.42859e-07
4.66605e-08
3.21023e-07
1.22255e-07
2.86595e-07
1.92805e-07
2.4104e-07
2.55158e-07
1.86428e-07
3.05955e-07
1.2552e-07
3.41261e-07
6.19315e-08
3.56193e-07
3.4668e-07
-7.53542e-08
4.22312e-07
-1.52723e-07
4.33742e-07
-2.26844e-07
4.15473e-07
-2.9331e-07
3.72462e-07
-3.48755e-07
3.1062e-07
-3.90663e-07
2.34722e-07
-4.17248e-07
1.48846e-07
-4.27412e-07
5.68281e-08
-4.20733e-07
-3.75334e-08
-3.97466e-07
-1.30458e-07
-3.58521e-07
-2.18259e-07
-3.05432e-07
-2.97467e-07
-2.40291e-07
-3.64952e-07
-1.65666e-07
-4.18047e-07
-8.45021e-08
-4.54655e-07
-2.02025e-12
-4.73329e-07
8.44983e-08
-4.73329e-07
1.65663e-07
-4.54656e-07
2.4029e-07
-4.18049e-07
3.05433e-07
-3.64954e-07
3.58525e-07
-2.9747e-07
3.97472e-07
-2.18263e-07
4.20743e-07
-1.30463e-07
4.27426e-07
-3.754e-08
4.17266e-07
5.68198e-08
3.90685e-07
1.48836e-07
3.48782e-07
2.34708e-07
2.93342e-07
3.10597e-07
2.26876e-07
3.72421e-07
1.52752e-07
4.15384e-07
7.53747e-08
4.3357e-07
4.22055e-07
-9.17108e-08
5.14024e-07
-1.85872e-07
5.27905e-07
-2.76078e-07
5.0568e-07
-3.5697e-07
4.53355e-07
-4.24451e-07
3.78102e-07
-4.75459e-07
2.85731e-07
-5.07821e-07
1.81209e-07
-5.20199e-07
6.92065e-08
-5.12078e-07
-4.56538e-08
-4.83767e-07
-1.58769e-07
-4.36372e-07
-2.65653e-07
-3.7176e-07
-3.62079e-07
-2.92476e-07
-4.44236e-07
-2.01646e-07
-5.08877e-07
-1.02855e-07
-5.53447e-07
-2.3269e-12
-5.76181e-07
1.02851e-07
-5.76182e-07
2.01643e-07
-5.53449e-07
2.92474e-07
-5.0888e-07
3.7176e-07
-4.44241e-07
4.36375e-07
-3.62085e-07
4.83772e-07
-2.6566e-07
5.12087e-07
-1.58778e-07
5.20211e-07
-4.56648e-08
5.07837e-07
6.91934e-08
4.75479e-07
1.81194e-07
4.24475e-07
2.85712e-07
3.56997e-07
3.78075e-07
2.76109e-07
4.53309e-07
1.85902e-07
5.05592e-07
9.17278e-08
5.27743e-07
5.13783e-07
-1.11621e-07
6.25645e-07
-2.26216e-07
6.42501e-07
-3.35998e-07
6.15462e-07
-4.34448e-07
5.51806e-07
-5.16579e-07
4.60234e-07
-5.78668e-07
3.4782e-07
-6.18066e-07
2.20608e-07
-6.33143e-07
8.42841e-08
-6.23271e-07
-5.5525e-08
-5.88823e-07
-1.93217e-07
-5.31146e-07
-3.23329e-07
-4.52509e-07
-4.40716e-07
-3.56008e-07
-5.40737e-07
-2.4545e-07
-6.19435e-07
-1.25199e-07
-6.73698e-07
-2.96433e-12
-7.01378e-07
1.25194e-07
-7.01378e-07
2.45446e-07
-6.73701e-07
3.56005e-07
-6.1944e-07
4.52507e-07
-5.40743e-07
5.31147e-07
-4.40725e-07
5.88826e-07
-3.2334e-07
6.23278e-07
-1.9323e-07
6.33153e-07
-5.55402e-08
6.1808e-07
8.42665e-08
5.78685e-07
2.20588e-07
5.16601e-07
3.47795e-07
4.34474e-07
4.60202e-07
3.36025e-07
5.51758e-07
2.2624e-07
6.15376e-07
1.11638e-07
6.42345e-07
6.25421e-07
-1.35845e-07
7.61491e-07
-2.7531e-07
7.81968e-07
-4.08919e-07
7.49072e-07
-5.28739e-07
6.71627e-07
-6.28705e-07
5.60201e-07
-7.04283e-07
4.23398e-07
-7.52251e-07
2.68576e-07
-7.70619e-07
1.02653e-07
-7.58623e-07
-6.75212e-08
-7.16711e-07
-2.35128e-07
-6.46521e-07
-3.93518e-07
-5.50813e-07
-5.36424e-07
-4.33355e-07
-6.58194e-07
-2.98781e-07
-7.54009e-07
-1.52403e-07
-8.20076e-07
-3.92618e-12
-8.53777e-07
1.52396e-07
-8.53778e-07
2.98774e-07
-8.20079e-07
4.3335e-07
-7.54015e-07
5.50809e-07
-6.58203e-07
6.4652e-07
-5.36435e-07
7.16712e-07
-3.93532e-07
7.58627e-07
-2.35145e-07
7.70627e-07
-6.75404e-08
7.52262e-07
1.02631e-07
7.04298e-07
2.68551e-07
6.28724e-07
4.23369e-07
5.28761e-07
5.60166e-07
4.08943e-07
6.71575e-07
2.75335e-07
7.48985e-07
1.35859e-07
7.81821e-07
7.6128e-07
-1.65326e-07
9.26818e-07
-3.35054e-07
9.51696e-07
-4.97656e-07
9.11675e-07
-6.43487e-07
8.17459e-07
-7.65163e-07
6.81879e-07
-8.57165e-07
5.15402e-07
-9.1557e-07
3.26982e-07
-9.37954e-07
1.25038e-07
-9.2338e-07
-8.20948e-08
-8.72391e-07
-2.86117e-07
-7.86977e-07
-4.78932e-07
-6.70492e-07
-6.52909e-07
-5.27524e-07
-8.01162e-07
-3.63712e-07
-9.1782e-07
-1.85526e-07
-9.98262e-07
-5.20165e-12
-1.0393e-06
1.85515e-07
-1.0393e-06
3.63703e-07
-9.98267e-07
5.27516e-07
-9.17828e-07
6.70486e-07
-8.01172e-07
7.86973e-07
-6.52922e-07
8.72389e-07
-4.78949e-07
9.23381e-07
-2.86137e-07
9.37959e-07
-8.2118e-08
9.15578e-07
1.25012e-07
8.57177e-07
3.26952e-07
7.65179e-07
5.15368e-07
6.43507e-07
6.81837e-07
4.97677e-07
8.17405e-07
3.35072e-07
9.11589e-07
1.65341e-07
9.51552e-07
9.26621e-07
-2.01194e-07
1.12801e-06
-4.07748e-07
1.15825e-06
-6.05636e-07
1.10956e-06
-7.83123e-07
9.94947e-07
-9.31226e-07
8.29983e-07
-1.04323e-06
6.27403e-07
-1.11435e-06
3.98103e-07
-1.14163e-06
1.52323e-07
-1.12393e-06
-9.97925e-08
-1.06191e-06
-3.48142e-07
-9.57969e-07
-5.82869e-07
-8.16198e-07
-7.94679e-07
-6.42177e-07
-9.75183e-07
-4.4277e-07
-1.11723e-06
-2.25855e-07
-1.21518e-06
-6.7893e-12
-1.26515e-06
2.25842e-07
-1.26515e-06
4.42758e-07
-1.21518e-06
6.42166e-07
-1.11724e-06
8.16189e-07
-9.75195e-07
9.57961e-07
-7.94695e-07
1.0619e-06
-5.82889e-07
1.12393e-06
-3.48166e-07
1.14163e-06
-9.98196e-08
1.11435e-06
1.52292e-07
1.04324e-06
3.98068e-07
9.31239e-07
6.27364e-07
7.83138e-07
8.29938e-07
6.05655e-07
9.94887e-07
4.07768e-07
1.10948e-06
2.01205e-07
1.15811e-06
1.12783e-06
-2.4484e-07
1.37285e-06
-4.96199e-07
1.40961e-06
-7.37023e-07
1.35039e-06
-9.53036e-07
1.21096e-06
-1.13331e-06
1.01026e-06
-1.26966e-06
7.63756e-07
-1.35627e-06
4.84715e-07
-1.38954e-06
1.85592e-07
-1.36806e-06
-1.21274e-07
-1.29262e-06
-4.23585e-07
-1.16614e-06
-7.09342e-07
-9.93599e-07
-9.67222e-07
-7.81777e-07
-1.187e-06
-5.39034e-07
-1.35997e-06
-2.74962e-07
-1.47925e-06
-8.68588e-12
-1.5401e-06
2.74945e-07
-1.5401e-06
5.39017e-07
-1.47925e-06
7.81762e-07
-1.35998e-06
9.93585e-07
-1.18702e-06
1.16613e-06
-9.67241e-07
1.29261e-06
-7.09365e-07
1.36805e-06
-4.23612e-07
1.38954e-06
-1.21305e-07
1.35627e-06
1.85557e-07
1.26967e-06
4.84676e-07
1.13332e-06
7.63713e-07
9.5305e-07
1.0102e-06
7.37038e-07
1.2109e-06
4.96212e-07
1.3503e-06
2.44852e-07
1.40948e-06
1.37268e-06
-2.97934e-07
1.67079e-06
-6.03809e-07
1.71549e-06
-8.9688e-07
1.64346e-06
-1.15978e-06
1.47386e-06
-1.37921e-06
1.22969e-06
-1.54522e-06
9.29764e-07
-1.65071e-06
5.90207e-07
-1.69129e-06
2.26171e-07
-1.66523e-06
-1.47331e-07
-1.57348e-06
-5.15335e-07
-1.41959e-06
-8.63226e-07
-1.2096e-06
-1.17721e-06
-9.51762e-07
-1.44484e-06
-6.56255e-07
-1.65548e-06
-3.34763e-07
-1.80074e-06
-1.08968e-11
-1.87485e-06
3.34741e-07
-1.87485e-06
6.56234e-07
-1.80075e-06
9.51742e-07
-1.65549e-06
1.20958e-06
-1.44486e-06
1.41958e-06
-1.17724e-06
1.57346e-06
-8.63252e-07
1.66522e-06
-5.15365e-07
1.69128e-06
-1.47366e-07
1.6507e-06
2.26131e-07
1.54522e-06
5.90163e-07
1.37922e-06
9.29715e-07
1.15979e-06
1.22963e-06
8.96893e-07
1.47379e-06
6.03825e-07
1.64337e-06
2.97942e-07
1.71536e-06
1.67062e-06
-3.62527e-07
2.03332e-06
-7.34722e-07
2.08768e-06
-1.09136e-06
2.0001e-06
-1.41132e-06
1.79382e-06
-1.67842e-06
1.49679e-06
-1.88054e-06
1.13189e-06
-2.00904e-06
7.1871e-07
-2.05856e-06
2.75688e-07
-2.02697e-06
-1.78918e-07
-1.91541e-06
-6.26896e-07
-1.72818e-06
-1.05045e-06
-1.47262e-06
-1.43278e-06
-1.15876e-06
-1.75869e-06
-7.99011e-07
-2.01523e-06
-4.07592e-07
-2.19216e-06
-1.34276e-11
-2.28243e-06
4.07565e-07
-2.28243e-06
7.98985e-07
-2.19217e-06
1.15874e-06
-2.01524e-06
1.47259e-06
-1.75871e-06
1.72816e-06
-1.4328e-06
1.91539e-06
-1.05048e-06
2.02695e-06
-6.26931e-07
2.05854e-06
-1.78958e-07
2.00903e-06
2.75644e-07
1.88053e-06
7.18661e-07
1.67842e-06
1.13183e-06
1.41133e-06
1.49673e-06
1.09137e-06
1.79375e-06
7.34731e-07
2.00001e-06
3.62537e-07
2.08755e-06
2.03316e-06
-4.41092e-07
2.47441e-06
-8.93963e-07
2.54056e-06
-1.32794e-06
2.43408e-06
-1.71733e-06
2.18322e-06
-2.04246e-06
1.82191e-06
-2.28857e-06
1.37799e-06
-2.44512e-06
8.75269e-07
-2.50558e-06
3.36143e-07
-2.46732e-06
-2.17175e-07
-2.3317e-06
-7.6252e-07
-2.10393e-06
-1.27822e-06
-1.79291e-06
-1.7438e-06
-1.41086e-06
-2.14074e-06
-9.72881e-07
-2.45321e-06
-4.96299e-07
-2.66874e-06
-1.62915e-11
-2.77871e-06
4.96266e-07
-2.77871e-06
9.7285e-07
-2.66875e-06
1.41083e-06
-2.45322e-06
1.79288e-06
-2.14076e-06
2.1039e-06
-1.74382e-06
2.33167e-06
-1.27825e-06
2.4673e-06
-7.62558e-07
2.50556e-06
-2.17219e-07
2.44511e-06
3.36093e-07
2.28856e-06
8.75215e-07
2.04246e-06
1.37793e-06
1.71733e-06
1.82185e-06
1.32795e-06
2.18314e-06
8.93974e-07
2.43398e-06
4.41096e-07
2.54043e-06
2.47425e-06
-5.36647e-07
3.01106e-06
-1.08764e-06
3.09155e-06
-1.6157e-06
2.96214e-06
-2.08958e-06
2.6571e-06
-2.48535e-06
2.21768e-06
-2.78504e-06
1.67768e-06
-2.97581e-06
1.06605e-06
-3.04967e-06
4.09996e-07
-3.00338e-06
-2.63461e-07
-2.83854e-06
-9.27353e-07
-2.56148e-06
-1.55528e-06
-2.18298e-06
-2.12229e-06
-1.71793e-06
-2.60579e-06
-1.18468e-06
-2.98646e-06
-6.04359e-07
-3.24906e-06
-1.95013e-11
-3.38305e-06
6.0432e-07
-3.38305e-06
1.18464e-06
-3.24907e-06
1.71789e-06
-2.98648e-06
2.18295e-06
-2.60581e-06
2.56145e-06
-2.12232e-06
2.83851e-06
-1.55532e-06
3.00335e-06
-9.27395e-07
3.04964e-06
-2.6351e-07
2.9758e-06
4.09941e-07
2.78502e-06
1.06599e-06
2.48534e-06
1.67762e-06
2.08958e-06
2.21761e-06
1.6157e-06
2.65702e-06
1.08765e-06
2.96204e-06
5.36653e-07
3.09142e-06
3.01091e-06
-6.52838e-07
3.6639e-06
-1.32317e-06
3.76189e-06
-1.96566e-06
3.60463e-06
-2.54235e-06
3.23379e-06
-3.02411e-06
2.69944e-06
-3.38908e-06
2.04265e-06
-3.6216e-06
1.29858e-06
-3.71189e-06
5.00282e-07
-3.65596e-06
-3.19391e-07
-3.45569e-06
-1.12762e-06
-3.1187e-06
-1.89227e-06
-2.65811e-06
-2.58289e-06
-2.09199e-06
-3.17191e-06
-1.44271e-06
-3.63574e-06
-7.36019e-07
-3.95575e-06
-2.30784e-11
-4.11905e-06
7.35973e-07
-4.11905e-06
1.44266e-06
-3.95576e-06
2.09195e-06
-3.63576e-06
2.65807e-06
-3.17193e-06
3.11866e-06
-2.58292e-06
3.45565e-06
-1.89231e-06
3.65593e-06
-1.12767e-06
3.71186e-06
-3.19444e-07
3.62158e-06
5.00223e-07
3.38906e-06
1.29851e-06
3.02409e-06
2.04258e-06
2.54234e-06
2.69936e-06
1.96566e-06
3.2337e-06
1.32317e-06
3.60453e-06
6.52839e-07
3.76176e-06
3.66375e-06
-7.94108e-07
4.45801e-06
-1.60954e-06
4.57731e-06
-2.39121e-06
4.38631e-06
-3.09297e-06
3.93555e-06
-3.67942e-06
3.28589e-06
-4.12393e-06
2.48717e-06
-4.40742e-06
1.58207e-06
-4.51789e-06
6.10754e-07
-4.45041e-06
-3.86868e-07
-4.20717e-06
-1.37086e-06
-3.79738e-06
-2.30207e-06
-3.2369e-06
-3.14336e-06
-2.54775e-06
-3.86107e-06
-1.75713e-06
-4.42635e-06
-8.96465e-07
-4.81642e-06
-2.7044e-11
-5.01548e-06
8.96412e-07
-5.01549e-06
1.75708e-06
-4.81643e-06
2.5477e-06
-4.42637e-06
3.23686e-06
-3.86109e-06
3.79733e-06
-3.14339e-06
4.20713e-06
-2.30211e-06
4.45037e-06
-1.37091e-06
4.51786e-06
-3.86926e-07
4.40739e-06
6.10688e-07
4.1239e-06
1.582e-06
3.6794e-06
2.48709e-06
3.09296e-06
3.2858e-06
2.3912e-06
3.93546e-06
1.60953e-06
4.3862e-06
7.94111e-07
4.57718e-06
4.45786e-06
-9.6582e-07
5.42383e-06
-1.95764e-06
5.56914e-06
-2.90855e-06
5.33722e-06
-3.76248e-06
4.78948e-06
-4.47637e-06
3.99978e-06
-5.01783e-06
3.02863e-06
-5.36357e-06
1.92781e-06
-5.49888e-06
7.4606e-07
-5.41762e-06
-4.6812e-07
-5.12233e-06
-1.66615e-06
-4.62408e-06
-2.80032e-06
-3.94212e-06
-3.82532e-06
-3.10316e-06
-4.70003e-06
-2.14037e-06
-5.38914e-06
-1.09204e-06
-5.86475e-06
-3.14286e-11
-6.10749e-06
1.09198e-06
-6.1075e-06
2.14031e-06
-5.86476e-06
3.1031e-06
-5.38916e-06
3.94206e-06
-4.70005e-06
4.62403e-06
-3.82536e-06
5.12228e-06
-2.80036e-06
5.41758e-06
-1.66621e-06
5.49883e-06
-4.68183e-07
5.36353e-06
7.45988e-07
5.0178e-06
1.92773e-06
4.47635e-06
3.02854e-06
3.76246e-06
3.99969e-06
2.90854e-06
4.78938e-06
1.95764e-06
5.33711e-06
9.65817e-07
5.569e-06
5.42368e-06
-1.17449e-06
6.59832e-06
-2.38069e-06
6.77534e-06
-3.53736e-06
6.49389e-06
-4.57638e-06
5.82851e-06
-5.44543e-06
4.86883e-06
-6.10508e-06
3.68828e-06
-6.52689e-06
2.34962e-06
-6.69281e-06
9.11985e-07
-6.5952e-06
-5.65728e-07
-6.23693e-06
-2.02443e-06
-5.63128e-06
-3.40597e-06
-4.80154e-06
-4.65505e-06
-3.78019e-06
-5.72138e-06
-2.6076e-06
-6.56172e-06
-1.33051e-06
-7.14184e-06
-3.62605e-11
-7.43797e-06
1.33044e-06
-7.43797e-06
2.60753e-06
-7.14185e-06
3.78012e-06
-6.56175e-06
4.80147e-06
-5.72141e-06
5.63121e-06
-4.65509e-06
6.23687e-06
-3.40602e-06
6.59515e-06
-2.02449e-06
6.69276e-06
-5.65798e-07
6.52685e-06
9.11906e-07
6.10504e-06
2.34953e-06
5.4454e-06
3.68818e-06
4.57636e-06
4.86873e-06
3.53734e-06
5.8284e-06
2.38068e-06
6.49377e-06
1.17449e-06
6.77519e-06
6.59817e-06
-1.42798e-06
8.02631e-06
-2.89466e-06
8.24201e-06
-4.30142e-06
7.90066e-06
-5.56556e-06
7.09266e-06
-6.62352e-06
5.92679e-06
-7.42729e-06
4.49205e-06
-7.94214e-06
2.86447e-06
-8.1459e-06
1.11575e-06
-8.02898e-06
-6.82644e-07
-7.59458e-06
-2.45883e-06
-6.85859e-06
-4.14196e-06
-5.84916e-06
-5.66448e-06
-4.60571e-06
-6.96483e-06
-3.17745e-06
-7.98999e-06
-1.62139e-06
-8.69789e-06
-4.15778e-11
-9.05932e-06
1.62131e-06
-9.05933e-06
3.17737e-06
-8.69791e-06
4.60563e-06
-7.99001e-06
5.84908e-06
-6.96486e-06
6.85851e-06
-5.66452e-06
7.59451e-06
-4.14201e-06
8.02892e-06
-2.4589e-06
8.14584e-06
-6.8272e-07
7.94209e-06
1.11566e-06
7.42724e-06
2.86437e-06
6.62348e-06
4.49194e-06
5.56553e-06
5.92668e-06
4.3014e-06
7.09254e-06
2.89465e-06
7.90052e-06
1.42797e-06
8.24186e-06
8.02614e-06
-1.73582e-06
9.76213e-06
-3.51886e-06
1.00251e-05
-5.22951e-06
9.61131e-06
-6.76742e-06
8.63057e-06
-8.05537e-06
7.21474e-06
-9.03494e-06
5.47161e-06
-9.66369e-06
3.49322e-06
-9.91433e-06
1.36639e-06
-9.7748e-06
-8.22176e-07
-9.24853e-06
-2.9851e-06
-8.35447e-06
-5.03601e-06
-7.12658e-06
-6.89237e-06
-5.61269e-06
-8.47871e-06
-3.87274e-06
-9.72994e-06
-1.97637e-06
-1.05943e-05
-4.74134e-11