/*--------------------------------*- C++ -*----------------------------------*\
  =========                 |
  \\      /  F ield         | OpenFOAM: The Open Source CFD Toolbox
   \\    /   O peration     | Website:  https://openfoam.org
    \\  /    A nd           | Version:  9
     \\/     M anipulation  |
\*---------------------------------------------------------------------------*/
FoamFile
{
    format      ascii;
    class       surfaceScalarField;
    location    "1.5";
    object      phi;
}
// * * * * * * * * * * * * * * * * * * * * * * * * * * * * * * * * * * * * * //

dimensions      [1 0 -1 0 0 0 0];

internalField   nonuniform List<scalar> 
10325
(
0.00840002
2.44541e-11
0.00840004
2.6669e-10
0.00839998
6.32243e-10
0.00840013
2.58101e-09
0.00839974
4.90052e-09
0.00840067
1.73183e-08
0.0083984
2.82789e-08
0.00840349
1.15267e-07
0.00839205
1.55165e-07
0.00841227
6.9758e-07
0.00837702
1.06835e-06
0.0084102
3.97815e-06
0.00836093
1.00954e-05
0.00833392
3.53569e-05
0.00813506
0.000155447
0.00743112
0.000642168
0.00666521
0.00074377
0.00602426
0.000655941
0.00536165
0.000674251
0.00460047
0.000750709
0.00376362
0.000814693
0.00288082
0.000876409
0.00195931
0.000922667
0.00100306
0.000955602
0.00098107
0.00840003
6.03589e-11
0.00840003
4.18376e-10
0.0084
1.43119e-09
0.00840006
4.10758e-09
0.00839987
1.08876e-08
0.00840034
2.7581e-08
0.00839885
7.00379e-08
0.00840238
1.72412e-07
0.00839337
4.32196e-07
0.00840983
1.07158e-06
0.00837967
2.76001e-06
0.00840711
7.29061e-06
0.00836184
2.15122e-05
0.00833328
7.12684e-05
0.00813359
0.000311311
0.00741312
0.00129931
0.00668936
0.00144323
0.00604081
0.00132226
0.00536148
0.00136488
0.00460031
0.00150247
0.00375557
0.00163783
0.00286845
0.00175732
0.00194099
0.00185121
0.000980252
0.00191556
0.00193911
0.00840003
1.14173e-10
0.00840003
6.21861e-10
0.00840001
2.5162e-09
0.00840006
5.94543e-09
0.00839987
1.87014e-08
0.00840032
4.06873e-08
0.00839889
1.10847e-07
0.00840221
2.63224e-07
0.00839372
6.49051e-07
0.00840886
1.67219e-06
0.00838101
4.07006e-06
0.00840529
1.11697e-05
0.00836297
3.22114e-05
0.0083345
0.000107205
0.00814231
0.000459765
0.00739597
0.00197986
0.00678968
0.0020304
0.00609944
0.00203103
0.00539609
0.00207731
0.00464159
0.00224952
0.00379308
0.00246535
0.00290215
0.00264222
0.00196724
0.0027874
0.000993532
0.00288877
0.00291041
0.00840003
1.38539e-10
0.00840003
8.64099e-10
0.00840003
3.0181e-09
0.0084
8.5028e-09
0.00840003
2.25345e-08
0.00839995
5.65151e-08
0.00839971
1.42262e-07
0.0084002
3.4945e-07
0.00839741
8.79937e-07
0.00840133
2.17558e-06
0.00839138
5.57112e-06
0.00839321
1.48e-05
0.0083715
4.29773e-05
0.00833108
0.000141428
0.00816198
0.000588948
0.00745171
0.00261715
0.00680736
0.00267934
0.00616874
0.00267475
0.00546441
0.00278366
0.00471118
0.0029974
0.00387182
0.00328516
0.00298233
0.00352688
0.0020359
0.00373484
0.00103368
0.00388958
0.00392235
0.00840003
1.61125e-10
0.00840003
1.09967e-09
0.00840003
3.48736e-09
0.0084
1.08112e-08
0.00840002
2.60173e-08
0.00839996
7.00047e-08
0.00839969
1.73454e-07
0.00840031
4.21041e-07
0.00839721
1.10657e-06
0.00840195
2.58376e-06
0.00839051
6.95314e-06
0.00839465
1.77725e-05
0.00837102
5.24766e-05
0.00834934
0.000171261
0.00819954
0.000693803
0.00752633
0.00320727
0.0068739
0.0033391
0.00624681
0.00330693
0.00554527
0.00348434
0.00480378
0.00373478
0.00398876
0.00408504
0.00310483
0.00440551
0.00214601
0.00469472
0.00110776
0.004928
0.00501037
0.00840003
2.70005e-10
0.00840003
1.0278e-09
0.00840001
5.22915e-09
0.00840005
1.0004e-08
0.00839988
3.86858e-08
0.00840033
6.59319e-08
0.00839893
2.45809e-07
0.0084022
4.11048e-07
0.00839384
1.49295e-06
0.00840969
2.69437e-06
0.00837897
8.75008e-06
0.00841008
2.00487e-05
0.00836106
6.14796e-05
0.00835081
0.000196427
0.00821857
0.000780772
0.0075985
0.00373888
0.00695164
0.00399736
0.00633605
0.00393006
0.00567223
0.00414813
0.00495569
0.00444861
0.00416126
0.00486115
0.00328808
0.00527423
0.00231555
0.00567277
0.00121565
0.00603332
0.00620868
0.00840003
2.10876e-10
0.00840003
1.47637e-09
0.00840001
4.84212e-09
0.00840004
1.47224e-08
0.00839999
3.51647e-08
0.00839992
1.02255e-07
0.00840014
2.11909e-07
0.00839869
6.55139e-07
0.00840154
1.26247e-06
0.00839339
4.06287e-06
0.0084034
8.3592e-06
0.00838289
2.51537e-05
0.00838367
6.7142e-05
0.00833682
0.000222135
0.00824187
0.000849953
0.00770722
0.00417431
0.00706853
0.00465264
0.00646824
0.00453909
0.00583716
0.00477625
0.00515652
0.00512347
0.00439731
0.00560676
0.00354452
0.00612502
0.00255792
0.00666143
0.00139513
0.00719559
0.00758531
0.00840003
2.18275e-10
0.00840002
1.71862e-09
0.00840005
4.99655e-09
0.00839996
1.67118e-08
0.00840016
3.86455e-08
0.0083997
1.07309e-07
0.00840058
2.55287e-07
0.00839858
6.43986e-07
0.0084014
1.64189e-06
0.00839484
3.87024e-06
0.00840188
1.04723e-05
0.00838313
2.60204e-05
0.00838674
7.56484e-05
0.00834709
0.000238405
0.00827523
0.0008989
0.00790964
0.00442706
0.00726525
0.00531819
0.00666818
0.00514854
0.00607206
0.00537475
0.0054392
0.00575791
0.00471805
0.00631987
0.00389141
0.00695195
0.00291567
0.00764099
0.00167682
0.00843847
0.00924618
0.00840003
2.90875e-10
0.00840004
1.4966e-09
0.0084
6.11623e-09
0.00840008
1.49497e-08
0.00839986
4.47029e-08
0.0084004
1.04385e-07
0.00839907
2.76263e-07
0.00840212
6.75404e-07
0.00839495
1.66267e-06
0.00840852
4.33791e-06
0.00838244
1.04219e-05
0.00841137
2.8373e-05
0.00836849
7.7528e-05
0.0083757
0.000246346
0.00833371
0.000902201
0.00828193
0.00436161
0.00762148
0.00600471
0.00699776
0.00578987
0.00642967
0.00594459
0.00582658
0.0063605
0.00517035
0.00696761
0.00441768
0.00770794
0.00349517
0.00857199
0.00218922
0.00975698
0.0114283
0.00840003
2.48361e-10
0.00840002
1.54787e-09
0.00840005
5.30194e-09
0.00839998
1.51989e-08
0.00840014
4.07162e-08
0.00839978
9.91017e-08
0.00840055
2.69181e-07
0.00839891
6.08168e-07
0.00840167
1.72298e-06
0.0083961
3.77195e-06
0.00840398
1.08689e-05
0.00838983
2.58147e-05
0.00840351
7.54603e-05
0.00839734
0.000227851
0.00845877
0.000824198
0.00893971
0.00375461
0.00824506
0.00671819
0.00750451
0.00654454
0.00694723
0.00650574
0.00638673
0.00692125
0.00580927
0.00753401
0.00517613
0.00833525
0.00432528
0.00942133
0.00304678
0.0110423
0.0144632
0.00840003
1.93429e-10
0.00840003
1.35019e-09
0.00840002
4.43352e-09
0.00840005
1.34256e-08
0.00839999
3.30255e-08
0.00840007
9.21293e-08
0.00840005
2.02357e-07
0.00839971
5.87598e-07
0.00840112
1.215e-06
0.00839757
3.64969e-06
0.00840656
7.70547e-06
0.00839828
2.2347e-05
0.00842439
5.55217e-05
0.00846564
0.000169081
0.00871508
0.000564303
0.00994021
0.00242962
0.00915467
0.00749776
0.0081308
0.00757197
0.00757073
0.0070648
0.00706231
0.00742892
0.00657405
0.00801999
0.00607518
0.00883459
0.00564856
0.00985389
0.00565356
0.0110531
0.011357
0.00876493
0.00840003
1.88102e-10
0.00840003
1.19144e-09
0.00840004
4.04747e-09
0.0084
1.1608e-08
0.00840008
3.05203e-08
0.00839993
7.51976e-08
0.00840014
1.99759e-07
0.00839999
4.49994e-07
0.00839946
1.2619e-06
0.00840128
2.69169e-06
0.00839786
7.78284e-06
0.00840462
1.74934e-05
0.00840477
4.98658e-05
0.00842841
0.000138711
0.00851634
0.000461739
0.00902826
0.00187012
0.00910997
0.0073452
0.00883956
0.00783431
0.00812845
0.00777692
0.00764474
0.00791048
0.00723442
0.00842614
0.00694306
0.00912149
0.00687008
0.00992486
0.00729791
0.010632
0.0104064
0.00826322
0.00840003
1.79057e-10
0.00840003
1.02797e-09
0.00840002
3.88312e-09
0.00840006
1.02606e-08
0.00839996
2.8403e-08
0.00840019
7.0502e-08
0.00839973
1.74631e-07
0.00840063
4.47609e-07
0.0083989
1.0443e-06
0.00840156
2.81559e-06
0.00839696
6.36202e-06
0.00840433
1.75595e-05
0.00839498
4.32812e-05
0.0084155
0.000126489
0.00845402
0.00040157
0.00874276
0.00154407
0.00908288
0.00688481
0.00879569
0.00811802
0.00838507
0.00818759
0.00807863
0.00821828
0.0078557
0.00864284
0.00775276
0.00921766
0.00791645
0.00975714
0.00844162
0.0101083
0.00983926
0.00902064
0.00840003
1.58212e-10
0.00840003
1.00539e-09
0.00840004
3.41041e-09
0.0084
9.85296e-09
0.00840009
2.59521e-08
0.0083999
6.42853e-08
0.00840033
1.69533e-07
0.00839944
3.91154e-07
0.00840123
1.06599e-06
0.0083975
2.37459e-06
0.00840399
6.62637e-06
0.00839294
1.52286e-05
0.0084081
4.22311e-05
0.00839615
0.000113965
0.00843715
0.00036238
0.00861912
0.00132859
0.00930466
0.00608405
0.00907324
0.00835985
0.00876714
0.00850464
0.00850961
0.0084776
0.00839417
0.00875703
0.00841192
0.00919393
0.0086154
0.00954921
0.00907006
0.00965354
0.00933887
0.00957816
0.00840003
1.24338e-10
0.00840003
9.13508e-10
0.00840002
2.87275e-09
0.00840004
9.02961e-09
0.00840001
2.15476e-08
0.00840005
6.1018e-08
0.00840003
1.365e-07
0.00839988
3.82987e-07
0.00840056
8.47298e-07
0.00839835
2.3666e-06
0.00840385
5.35314e-06
0.00839427
1.4679e-05
0.00841144
3.59636e-05
0.00840398
0.000101521
0.00846245
0.000305354
0.00867494
0.00108595
0.0100007
0.0046358
0.00964799
0.0087096
0.00927307
0.00888166
0.00898323
0.00877635
0.00890061
0.00884477
0.00897579
0.00911907
0.00916587
0.00935909
0.00950491
0.00931462
0.00893677
0.00990924
0.00840003
1.25728e-10
0.00840003
6.51762e-10
0.00840003
2.6399e-09
0.00840003
6.4246e-09
0.00840001
1.96119e-08
0.0084001
4.3275e-08
0.00839987
1.23098e-07
0.00840061
2.71374e-07
0.00839892
7.41636e-07
0.00840395
1.68799e-06
0.00839447
4.46773e-06
0.00841847
1.06075e-05
0.00839048
2.76914e-05
0.00845903
7.18073e-05
0.00850779
0.00020847
0.00891787
0.000684432
0.0107372
0.00274583
0.0103704
0.00902776
0.0100602
0.00918312
0.00960061
0.00923271
0.00940544
0.00903272
0.00944732
0.00907623
0.00961947
0.00918288
0.00986184
0.00907242
0.008651
0.0101488
0.00840003
8.00159e-11
0.00840003
6.20967e-10
0.00840003
1.85906e-09
0.00840002
6.11623e-09
0.00840005
1.40607e-08
0.00839998
4.04729e-08
0.00840021
8.9239e-08
0.00839965
2.479e-07
0.00840133
5.53098e-07
0.00839777
1.492e-06
0.00840737
3.422e-06
0.00839052
9.01681e-06
0.00842524
2.17532e-05
0.00839505
5.78925e-05
0.00847656
0.000160383
0.0086034
0.000511523
0.00936109
0.00195908
0.0104993
0.00776228
0.0103326
0.00933834
0.0100759
0.00948684
0.00985277
0.00926333
0.00983655
0.00909337
0.00997549
0.0090422
0.010154
0.00888855
0.00846567
0.0103376
0.00840003
8.39686e-11
0.00840003
4.54129e-10
0.00840003
1.77346e-09
0.00840003
4.48163e-09
0.00840003
1.31753e-08
0.00840005
3.00905e-08
0.00839997
8.33075e-08
0.00840027
1.88376e-07
0.0083995
5.06555e-07
0.00840182
1.16959e-06
0.00839684
3.06494e-06
0.0084094
7.32997e-06
0.00838982
1.89259e-05
0.00842674
4.81331e-05
0.00841469
0.000133131
0.00853087
0.000407788
0.00896169
0.00147852
0.010588
0.00601829
0.0106294
0.00929822
0.0104541
0.0096612
0.0102229
0.00949443
0.0101777
0.00913432
0.0102725
0.00894781
0.010413
0.00874427
0.00834657
0.0105324
0.00840003
5.33447e-11
0.00840003
3.84302e-10
0.00840003
1.21388e-09
0.00840003
3.79283e-09
0.00840005
9.08861e-09
0.0084
2.52207e-08
0.00840016
5.76902e-08
0.00839983
1.55228e-07
0.00840081
3.57083e-07
0.00839899
9.38107e-07
0.00840444
2.21294e-06
0.00839524
5.69562e-06
0.00841858
1.38951e-05
0.00839753
3.583e-05
0.00846598
9.47283e-05
0.00854986
0.000276599
0.00908769
0.000930262
0.0112979
0.00364654
0.0111687
0.00941383
0.011086
0.00975827
0.0108274
0.00976439
0.0105903
0.00937305
0.0105617
0.00897814
0.0106394
0.00866714
0.00826694
0.0107113
0.00840003
4.41559e-11
0.00840003
2.83463e-10
0.00840003
9.70388e-10
0.00840003
2.7884e-09
0.00840004
7.30736e-09
0.00840003
1.84267e-08
0.00840003
4.63441e-08
0.00840013
1.13108e-07
0.00839989
2.82852e-07
0.00840095
6.86425e-07
0.00839889
1.71767e-06
0.00840622
4.16086e-06
0.0083954
1.05196e-05
0.00842696
2.60671e-05
0.00841792
6.8209e-05
0.00852806
0.000189767
0.00881432
0.000601092
0.0101549
0.00226783
0.0114698
0.00801948
0.0114339
0.00979657
0.0112363
0.00996801
0.0109819
0.00962952
0.0108709
0.00908977
0.0108655
0.00867305
0.00824458
0.0108878
0.00840003
3.6823e-11
0.00840003
2.04886e-10
0.00840003
7.83872e-10
0.00840003
2.02607e-09
0.00840003
5.83215e-09
0.00840004
1.35761e-08
0.00840003
3.697e-08
0.00840011
8.42412e-08
0.0083999
2.26104e-07
0.00840078
5.17151e-07
0.00839897
1.36884e-06
0.00840496
3.20549e-06
0.00839507
8.31561e-06
0.00842138
2.03206e-05
0.00840096
5.29404e-05
0.00847819
0.000143003
0.0085986
0.00043465
0.0092984
0.00155448
0.0114321
0.00576322
0.011667
0.00955319
0.0116239
0.0100085
0.0113936
0.00986031
0.0112165
0.00926833
0.0111304
0.00875764
0.00827129
0.0111002
0.00840003
2.29782e-11
0.00840003
1.64536e-10
0.00840003
5.18431e-10
0.00840003
1.61782e-09
0.00840004
3.88554e-09
0.00840002
1.06286e-08
0.00840008
2.46775e-08
0.00839997
6.45445e-08
0.00840035
1.52014e-07
0.00839972
3.84864e-07
0.00840188
9.30913e-07
0.00839875
2.28647e-06
0.0084095
5.72272e-06
0.00839876
1.37995e-05
0.00844038
3.55818e-05
0.00845297
9.11432e-05
0.00864906
0.000260366
0.00931597
0.000839913
0.0119123
0.00306347
0.0122104
0.0092191
0.0121779
0.0100312
0.0119341
0.0100955
0.0115671
0.00963452
0.0114087
0.00891204
0.00837467
0.0113024
0.00840003
1.81938e-11
0.00840003
1.11995e-10
0.00840003
4.00236e-10
0.00840003
1.10499e-09
0.00840003
2.9622e-09
0.00840005
7.38345e-09
0.00840001
1.83757e-08
0.00840011
4.59489e-08
0.00839997
1.10074e-07
0.00840046
2.80468e-07
0.00839988
6.56459e-07
0.00840173
1.70524e-06
0.00840076
3.9399e-06
0.00840722
1.03526e-05
0.00841084
2.45091e-05
0.00844172
6.49575e-05
0.00851045
0.000173728
0.00880214
0.000538032
0.00985622
0.00196081
0.0121188
0.00684695
0.0123762
0.00976132
0.0123065
0.0101546
0.0119067
0.0100315
0.0117311
0.00909131
0.0085439
0.0115656
0.00840003
1.28785e-11
0.00840003
7.80426e-11
0.00840003
2.80334e-10
0.00840003
7.68403e-10
0.00840003
2.09551e-09
0.00840003
5.08108e-09
0.00840004
1.31861e-08
0.00840006
3.11449e-08
0.00840003
7.98905e-08
0.00840028
1.88953e-07
0.00839985
4.78577e-07
0.00840189
1.14774e-06
0.00839872
2.8713e-06
0.00841133
7.02193e-06
0.00839707
1.75094e-05
0.00844745
4.42589e-05
0.00845679
0.000116659
0.00868021
0.000337127
0.00945433
0.00113441
0.0121118
0.00404276
0.0125875
0.00925295
0.0126906
0.0100568
0.0125865
0.0101389
0.0121053
0.009575
0.00881134
0.0118382
0.00840003
8.71727e-12
0.00840003
5.46055e-11
0.00840003
1.89562e-10
0.00840003
5.38683e-10
0.00840003
1.41537e-09
0.00840003
3.54553e-09
0.00840005
8.97374e-09
0.00840002
2.1525e-08
0.00840011
5.4732e-08
0.00840004
1.2884e-07
0.0084003
3.31234e-07
0.00840051
7.69803e-07
0.00840083
1.99303e-06
0.00840425
4.65814e-06
0.00840491
1.20082e-05
0.00842557
2.90554e-05
0.00845198
7.58783e-05
0.00858387
0.000206019
0.0090545
0.000639068
0.0107771
0.00227361
0.0127024
0.0072279
0.0128898
0.00986201
0.0129012
0.0101258
0.0124689
0.0100105
0.00910786
0.0121815
0.00840003
5.47319e-12
0.00840003
3.82144e-11
0.00840003
1.23711e-10
0.00840003
3.76926e-10
0.00840003
9.26124e-10
0.00840003
2.48746e-09
0.00840004
5.84131e-09
0.00840003
1.51397e-08
0.00840009
3.56567e-08
0.00839998
9.04323e-08
0.00840046
2.16815e-07
0.00839977
5.36656e-07
0.00840247
1.31998e-06
0.00839908
3.19395e-06
0.00841224
8.06188e-06
0.00840234
1.94274e-05
0.00845249
5.02792e-05
0.00848547
0.000130424
0.00876009
0.000381307
0.00969505
0.00128909
0.0124329
0.00435346
0.0130461
0.00921724
0.0131812
0.00999214
0.0130467
0.0101464
0.00955768
0.0126015
0.00840003
3.82948e-12
0.00840003
2.43189e-11
0.00840003
8.52533e-11
0.00840003
2.40096e-10
0.00840003
6.34203e-10
0.00840003
1.60082e-09
0.00840003
3.94437e-09
0.00840005
9.8941e-09
0.00840003
2.35898e-08
0.00840012
5.99001e-08
0.00840007
1.40553e-07
0.00840035
3.60951e-07
0.00840066
8.36548e-07
0.00840111
2.1665e-06
0.00840513
5.03192e-06
0.00840682
1.30154e-05
0.00843053
3.12279e-05
0.00846622
8.17352e-05
0.00862539
0.000220365
0.00920784
0.000684125
0.0111679
0.00234993
0.0131543
0.00712169
0.013308
0.00982851
0.0134299
0.0100201
0.00995911
0.0130325
0.00840003
2.60132e-12
0.00840003
1.54938e-11
0.00840003
5.6628e-11
0.00840003
1.52688e-10
0.00840003
4.21146e-10
0.00840003
1.01e-09
0.00840003
2.63151e-09
0.00840004
6.18775e-09
0.00840003
1.5844e-08
0.00840009
3.73398e-08
0.00840001
9.40359e-08
0.00840047
2.25408e-07
0.00839984
5.58108e-07
0.00840271
1.35622e-06
0.00839934
3.32018e-06
0.00841445
8.22597e-06
0.00840302
2.00656e-05
0.00846391
5.1156e-05
0.0085009
0.00013261
0.00882609
0.000383459
0.00984408
0.00127644
0.0126844
0.00414488
0.0134708
0.00900146
0.0136241
0.00986719
0.0101139
0.0134723
0.00840003
1.60893e-12
0.00840003
1.01583e-11
0.00840003
3.52797e-11
0.00840003
1.00272e-10
0.00840003
2.62702e-10
0.00840003
6.60597e-10
0.00840003
1.65541e-09
0.00840003
4.00449e-09
0.00840005
1.00239e-08
0.00840004
2.38848e-08
0.00840009
6.02152e-08
0.00840015
1.42141e-07
0.00840023
3.59131e-07
0.0084011
8.49953e-07
0.00840045
2.13737e-06
0.00840768
5.10749e-06
0.00840355
1.28046e-05
0.0084407
3.13989e-05
0.00846068
8.03915e-05
0.00864661
0.00021649
0.00922491
0.000661456
0.0111055
0.00222444
0.0134266
0.00656825
0.0136343
0.00964932
0.00985469
0.0138888
0.00840003
9.68359e-13
0.00840003
6.42942e-12
0.00840003
2.15283e-11
0.00840003
6.33307e-11
0.00840003
1.60819e-10
0.00840003
4.15073e-10
0.00840003
1.00959e-09
0.00840003
2.51269e-09
0.00840004
6.10144e-09
0.00840003
1.49353e-08
0.0084001
3.65018e-08
0.00840004
8.83983e-08
0.0084004
2.17807e-07
0.00840022
5.23031e-07
0.00840164
1.29867e-06
0.00840242
3.10245e-06
0.00840739
7.76674e-06
0.008418
1.87374e-05
0.00844787
4.75449e-05
0.00853232
0.00012198
0.0088335
0.000346006
0.0099023
0.00111977
0.0127802
0.00354051
0.013857
0.00853878
0.00973705
0.013969
0.00840003
5.8755e-13
0.00840003
4.0144e-12
0.00840003
1.33009e-11
0.00840003
3.96712e-11
0.00840003
9.88378e-11
0.00840003
2.61979e-10
0.00840003
6.13637e-10
0.00840003
1.59069e-09
0.00840004
3.69294e-09
0.00840003
9.44599e-09
0.00840007
2.21209e-08
0.00840003
5.56092e-08
0.00840029
1.32777e-07
0.00840003
3.26588e-07
0.00840147
7.98543e-07
0.00840039
1.91737e-06
0.00840735
4.81037e-06
0.00840531
1.14179e-05
0.00843545
2.92621e-05
0.0084609
7.17765e-05
0.00862546
0.000195104
0.00913427
0.000576471
0.0107191
0.00192184
0.0134929
0.00564607
0.00923123
0.013971
0.00840003
3.86848e-13
0.00840003
2.30914e-12
0.00840003
8.47356e-12
0.00840003
2.27778e-11
0.00840003
6.25585e-11
0.00840003
1.50896e-10
0.00840003
3.86549e-10
0.00840003
9.22917e-10
0.00840003
2.28818e-09
0.00840004
5.53827e-09
0.00840003
1.34236e-08
0.00840009
3.30459e-08
0.00840006
7.85895e-08
0.00840033
1.9602e-07
0.00840037
4.61097e-07
0.00840128
1.1605e-06
0.00840305
2.71104e-06
0.00840618
6.86525e-06
0.00842039
1.61937e-05
0.00844381
4.12959e-05
0.0085356
0.000103099
0.00880841
0.000285856
0.00983821
0.000884274
0.0126921
0.00272973
0.00770279
0.0141468
0.00840003
2.2525e-13
0.00840003
1.4201e-12
0.00840003
4.93431e-12
0.00840003
1.39849e-11
0.00840003
3.67706e-11
0.00840003
9.12014e-11
0.00840003
2.30167e-10
0.00840003
5.47892e-10
0.00840003
1.38525e-09
0.00840003
3.23559e-09
0.00840004
8.21218e-09
0.00840006
1.91201e-08
0.00840004
4.83507e-08
0.00840023
1.13333e-07
0.00840006
2.83087e-07
0.00840138
6.75088e-07
0.00840014
1.65332e-06
0.00840803
4.02814e-06
0.00840213
9.74275e-06
0.00844068
2.42987e-05
0.00844174
5.98077e-05
0.0086109
0.000157695
0.00897891
0.000452041
0.0102325
0.00147034
0.00443363
0.0133436
0.00840003
1.23924e-13
0.00840003
8.60998e-13
0.00840003
2.80869e-12
0.00840003
8.48621e-12
0.00840003
2.09383e-11
0.00840003
5.56005e-11
0.00840003
1.30361e-10
0.00840003
3.35118e-10
0.00840003
7.82166e-10
0.00840003
1.97665e-09
0.00840004
4.66656e-09
0.00840003
1.15672e-08
0.00840008
2.78611e-08
0.00840005
6.74549e-08
0.00840031
1.66078e-07
0.00840029
3.93593e-07
0.00840121
9.89951e-07
0.00840244
2.30164e-06
0.00840527
5.88807e-06
0.00841668
1.36957e-05
0.00843463
3.53354e-05
0.00850656
8.62054e-05
0.00870673
0.000234991
0.00946716
0.000698501
0.00221268
0.0116339
0.00840003
7.75965e-14
0.00840003
4.69161e-13
0.00840003
1.70621e-12
0.00840003
4.63281e-12
0.00840003
1.26164e-11
0.00840003
3.0635e-11
0.00840003
7.76916e-11
0.00840003
1.8639e-10
0.00840003
4.58149e-10
0.00840003
1.11259e-09
0.00840003
2.67788e-09
0.00840004
6.58997e-09
0.00840004
1.56142e-08
0.00840008
3.89217e-08
0.00840013
9.10095e-08
0.00840025
2.28638e-07
0.00840083
5.31936e-07
0.0084009
1.33651e-06
0.00840566
3.12768e-06
0.00840476
7.81644e-06
0.0084336
1.86529e-05
0.00844303
4.68534e-05
0.00858858
0.000118351
0.00889662
0.000328178
0.00102139
0.0100695
0.00840003
4.3716e-14
0.00840003
2.72316e-13
0.00840003
9.55231e-13
0.00840003
2.68269e-12
0.00840003
7.08148e-12
0.00840003
1.75046e-11
0.00840003
4.41374e-11
0.00840003
1.04756e-10
0.00840003
2.6442e-10
0.00840003
6.15403e-10
0.00840003
1.55795e-09
0.00840004
3.61907e-09
0.00840003
9.11314e-09
0.00840007
2.13003e-08
0.00840004
5.3027e-08
0.00840029
1.25761e-07
0.00840014
3.07181e-07
0.00840149
7.44329e-07
0.00840095
1.77863e-06
0.00840761
4.40543e-06
0.00840768
1.04017e-05
0.00843836
2.63252e-05
0.00846915
6.36323e-05
0.0086408
0.000169167
0.000480708
0.00914141
0.00840003
2.34058e-14
0.00840003
1.55408e-13
0.00840003
5.23996e-13
0.00840003
1.53308e-12
0.00840003
3.88587e-12
0.00840003
1.00471e-11
0.00840003
2.40645e-11
0.00840003
6.03788e-11
0.00840003
1.43566e-10
0.00840003
3.54272e-10
0.00840003
8.4996e-10
0.00840003
2.06575e-09
0.00840004
5.0106e-09
0.00840004
1.20458e-08
0.00840008
2.9455e-08
0.00840008
7.01867e-08
0.00840028
1.73203e-07
0.00840049
4.08913e-07
0.00840106
1.01564e-06
0.0084036
2.39366e-06
0.00840455
5.96013e-06
0.00842304
1.41814e-05
0.00843344
3.55219e-05
0.00853172
8.80754e-05
0.000235227
0.00873938
0.00840003
1.28989e-14
0.00840003
8.52261e-14
0.00840003
2.90684e-13
0.00840003
8.38839e-13
0.00840003
2.15564e-12
0.00840003
5.4933e-12
0.00840003
1.32772e-11
0.00840003
3.31491e-11
0.00840003
7.8314e-11
0.00840003
1.95806e-10
0.00840003
4.58584e-10
0.00840003
1.14568e-09
0.00840004
2.68701e-09
0.00840003
6.654e-09
0.00840006
1.5788e-08
0.00840005
3.84954e-08
0.00840023
9.25462e-08
0.00840016
2.22395e-07
0.00840111
5.41241e-07
0.0084011
1.28467e-06
0.00840533
3.15811e-06
0.00840873
7.44352e-06
0.00842758
1.85484e-05
0.00846235
4.43685e-05
0.000114209
0.00858378
0.00840003
7.4363e-15
0.00840003
4.46661e-14
0.00840003
1.63047e-13
0.00840003
4.39935e-13
0.00840003
1.20268e-12
0.00840003
2.88736e-12
0.00840003
7.38218e-12
0.00840003
1.74426e-11
0.00840003
4.33437e-11
0.00840003
1.03304e-10
0.00840003
2.51293e-10
0.00840003
6.09454e-10
0.00840003
1.4518e-09
0.00840004
3.57892e-09
0.00840004
8.38818e-09
0.00840005
2.09486e-08
0.00840011
4.85322e-08
0.00840012
1.21908e-07
0.00840058
2.82082e-07
0.00840044
7.04291e-07
0.00840356
1.6464e-06
0.00840222
4.063e-06
0.0084207
9.65408e-06
0.00841755
2.37286e-05
5.82755e-05
0.00850786
0.00840003
3.79221e-15
0.00840003
2.47294e-14
0.00840003
8.38932e-14
0.00840003
2.44918e-13
0.00840003
6.22346e-13
0.00840003
1.59165e-12
0.00840003
3.86376e-12
0.00840003
9.4495e-12
0.00840003
2.30331e-11
0.00840003
5.48679e-11
0.00840003
1.35836e-10
0.00840003
3.17227e-10
0.00840003
7.94945e-10
0.00840003
1.84002e-09
0.00840003
4.6274e-09
0.00840005
1.07054e-08
0.00840004
2.67826e-08
0.00840017
6.25807e-08
0.00840011
1.54501e-07
0.00840082
3.66011e-07
0.00840058
8.91461e-07
0.00840439
2.14529e-06
0.00840397
5.15093e-06
0.00842274
1.26472e-05
3.03654e-05
0.00843186
0.00840003
1.94883e-15
0.00840003
1.31322e-14
0.00840003
4.45205e-14
0.00840003
1.28397e-13
0.00840003
3.3047e-13
0.00840003
8.37908e-13
0.00840003
2.02738e-12
0.00840003
5.04446e-12
0.00840003
1.18735e-11
0.00840003
2.96863e-11
0.00840003
6.89609e-11
0.00840003
1.73012e-10
0.00840003
4.01075e-10
0.00840003
1.00237e-09
0.00840004
2.34019e-09
0.00840003
5.78548e-09
0.00840006
1.36712e-08
0.00840005
3.33313e-08
0.0084002
8.0047e-08
0.00840019
1.91632e-07
0.00840087
4.67932e-07
0.00840129
1.10361e-06
0.00840393
2.73357e-06
0.00840918
6.39292e-06
1.60045e-05
0.0084212
0.00840003
1.11288e-15
0.00840003
6.44306e-15
0.00840003
2.38962e-14
0.00840003
6.48553e-14
0.00840003
1.76359e-13
0.00840003
4.24903e-13
0.00840003
1.08482e-12
0.00840003
2.53618e-12
0.00840003
6.38671e-12
0.00840003
1.4833e-11
0.00840003
3.70146e-11
0.00840003
8.66729e-11
0.00840003
2.13238e-10
0.00840003
5.05716e-10
0.00840003
1.22585e-09
0.00840004
2.95361e-09
0.00840004
7.03094e-09
0.00840006
1.71973e-08
0.00840008
4.03497e-08
0.00840017
9.97845e-08
0.00840041
2.31753e-07
0.00840065
5.75947e-07
0.00840264
1.33588e-06
0.00840315
3.30659e-06
7.74682e-06
0.0084166
0.00840003
5.74952e-16
0.00840003
3.62248e-15
0.00840003
1.21232e-14
0.00840003
3.49573e-14
0.00840003
8.73868e-14
0.00840003
2.27025e-13
0.00840003
5.36234e-13
0.00840003
1.34511e-12
0.00840003
3.17161e-12
0.00840003
7.78474e-12
0.00840003
1.8556e-11
0.00840003
4.46873e-11
0.00840003
1.08298e-10
0.00840003
2.56026e-10
0.00840003
6.28507e-10
0.00840003
1.47021e-09
0.00840003
3.63191e-09
0.00840005
8.44807e-09
0.00840005
2.09077e-08
0.00840013
4.87224e-08
0.00840012
1.1949e-07
0.00840067
2.81885e-07
0.00840058
6.80629e-07
0.00840364
1.62993e-06
3.88114e-06
0.00840368
0.00840003
2.43403e-16
0.00840003
1.73711e-15
0.00840003
6.02242e-15
0.00840003
1.72011e-14
0.00840003
4.4938e-14
0.00840003
1.12142e-13
0.00840003
2.7615e-13
0.00840003
6.72058e-13
0.00840003
1.60987e-12
0.00840003
3.93988e-12
0.00840003
9.26116e-12
0.00840003
2.29195e-11
0.00840003
5.31748e-11
0.00840003
1.32282e-10
0.00840003
3.07118e-10
0.00840003
7.56349e-10
0.00840003
1.77806e-09
0.00840003
4.31896e-09
0.00840005
1.02775e-08
0.00840005
2.459e-08
0.00840015
5.94451e-08
0.00840021
1.39782e-07
0.00840056
3.43534e-07
0.00840133
7.96069e-07
1.97545e-06
0.00840238
0.00840003
7.94449e-17
0.00840003
7.56638e-16
0.00840003
2.90265e-15
0.00840003
8.19142e-15
0.00840003
2.2768e-14
0.00840003
5.48465e-14
0.00840003
1.40314e-13
0.00840003
3.28312e-13
0.00840003
8.22182e-13
0.00840003
1.90863e-12
0.00840003
4.74123e-12
0.00840003
1.10492e-11
0.00840003
2.71362e-11
0.00840003
6.39079e-11
0.00840003
1.54921e-10
0.00840003
3.69889e-10
0.00840003
8.82029e-10
0.00840003
2.13728e-09
0.00840004
5.02475e-09
0.00840005
1.2327e-08
0.00840008
2.86413e-08
0.00840012
7.0897e-08
0.00840035
1.63871e-07
0.00840041
4.06037e-07
9.41781e-07
0.00840214
0.00840003
9.22385e-17
0.00840003
5.17544e-16
0.00840003
1.41727e-15
0.00840003
4.52955e-15
0.00840003
1.09411e-14
0.00840003
2.79769e-14
0.00840003
6.65846e-14
0.00840003
1.66204e-13
0.00840003
3.89945e-13
0.00840003
9.62919e-13
0.00840003
2.26329e-12
0.00840003
5.51622e-12
0.00840003
1.31073e-11
0.00840003
3.14158e-11
0.00840003
7.57262e-11
0.00840003
1.78865e-10
0.00840003
4.36987e-10
0.00840003
1.0175e-09
0.00840003
2.5146e-09
0.00840004
5.80974e-09
0.00840005
1.44001e-08
0.0084001
3.32911e-08
0.0084001
8.22249e-08
0.00840048
1.91277e-07
4.68115e-07
0.00840045
0.00840003
-5.07407e-17
0.00840003
1.28966e-16
0.00840003
8.18654e-16
0.00840003
1.95468e-15
0.00840003
5.41952e-15
0.00840003
1.32734e-14
0.00840003
3.3093e-14
0.00840003
7.82499e-14
0.00840003
1.93009e-13
0.00840003
4.52812e-13
0.00840003
1.10746e-12
0.00840003
2.61476e-12
0.00840003
6.31781e-12
0.00840003
1.50968e-11
0.00840003
3.59402e-11
0.00840003
8.70737e-11
0.00840003
2.04243e-10
0.00840003
5.01147e-10
0.00840003
1.16294e-09
0.00840003
2.87304e-09
0.00840005
6.64057e-09
0.00840005
1.64093e-08
0.00840012
3.8024e-08
0.00840012
9.33811e-08
2.1832e-07
0.00840055
0.00840003
6.77626e-17
0.00840003
9.10188e-17
0.00840003
1.67726e-16
0.00840003
8.77201e-16
0.00840003
2.33803e-15
0.00840003
6.10682e-15
0.00840003
1.47231e-14
0.00840003
3.70925e-14
0.00840003
8.61052e-14
0.00840003
2.1444e-13
0.00840003
4.97478e-13
0.00840003
1.22899e-12
0.00840003
2.86275e-12
0.00840003
7.01037e-12
0.00840003
1.64741e-11
0.00840003
3.98712e-11
0.00840003
9.48237e-11
0.00840003
2.26387e-10
0.00840003
5.45161e-10
0.00840003
1.28417e-09
0.00840003
3.12887e-09
0.00840005
7.29437e-09
0.00840005
1.78822e-08
0.00840013
4.14822e-08
1.01875e-07
0.00840014
0.00840003
8.85251e-17
0.00840003
1.97921e-16
0.00840003
3.98797e-16
0.00840003
6.08834e-16
0.00840003
1.17677e-15
0.00840003
2.95814e-15
0.00840003
5.95124e-15
0.00840003
1.39753e-14
0.00840003
3.48261e-14
0.00840003
8.0513e-14
0.00840003
1.97953e-13
0.00840003
4.64459e-13
0.00840003
1.13788e-12
0.00840003
2.64675e-12
0.00840003
6.53244e-12
0.00840003
1.5093e-11
0.00840003
3.73659e-11
0.00840003
8.61472e-11
0.00840003
2.12814e-10
0.00840003
4.93352e-10
0.00840003
1.20653e-09
0.00840004
2.825e-09
0.00840004
6.81471e-09
0.00840007
1.61932e-08
3.83568e-08
0.00840012
0.00840003
0.00840003
0.00840003
0.00840003
0.00840003
0.00840003
0.00840003
0.00840003
0.00840003
0.00840003
0.00840003
0.00840003
0.00840003
0.00840003
0.00840003
0.00840003
0.00840003
0.00840003
0.00840003
0.00840003
0.00840003
0.00840003
0.00840004
0.00840005
0.00840011
0.00478825
0.00398088
0.00320023
0.00159145
0.00251915
0.000682264
0.00224922
0.000267656
0.00223091
1.51678e-05
0.00241655
-0.000190616
0.00262611
-0.000217466
0.00275063
-0.000132926
0.00279651
-5.43633e-05
0.00279385
-6.34098e-06
0.00276426
2.03615e-05
0.00274313
1.12823e-05
0.00273062
1.62827e-06
0.00272963
-9.41954e-06
0.00273318
-1.39787e-05
0.00273662
-1.37822e-05
0.00273884
-1.207e-05
0.00273807
-9.17969e-06
0.00273531
-6.55062e-06
0.00273218
-5.77959e-06
0.00273049
-6.81546e-06
0.00273099
-8.48819e-06
0.00273356
-9.90291e-06
0.00273761
-1.07821e-05
0.00274253
-1.12953e-05
0.00274801
-1.16265e-05
0.00275396
-1.19081e-05
0.00276043
-1.21764e-05
0.00276748
-1.24195e-05
0.00277504
-1.26176e-05
0.0027829
-1.27611e-05
0.00279076
-1.28514e-05
0.00279833
-1.28957e-05
0.00280535
-1.29011e-05
0.00281164
-1.28728e-05
0.00281706
-1.28141e-05
0.00282154
-1.27296e-05
0.00282512
-1.26223e-05
0.0028278
-1.24976e-05
0.00282955
-1.23734e-05
0.00283051
-1.22351e-05
0.00283087
-1.20742e-05
0.00283042
-1.19468e-05
0.00282902
-1.18529e-05
0.00282707
-1.17207e-05
0.00282489
-1.15777e-05
0.00282268
-1.14566e-05
0.00282056
-1.14061e-05
0.00281861
-1.14662e-05
0.00281696
-1.21333e-05
0.00281717
-1.36874e-05
0.00281583
-1.8625e-05
0.00282005
-2.39679e-05
0.00283128
-3.30395e-05
0.00285342
-5.16305e-05
0.00289959
-9.19749e-05
0.00299855
-0.00018005
0.00322129
-0.000360294
0.00361974
-0.000655482
0.00415742
-0.000981125
0.00473001
-0.00114142
0.00523281
-0.00108265
0.00561297
-0.000807308
0.0058987
-0.000436808
0.00604634
-0.000193077
0.00610731
-4.04654e-05
0.00609795
4.59379e-05