/*--------------------------------*- C++ -*----------------------------------*\
  =========                 |
  \\      /  F ield         | OpenFOAM: The Open Source CFD Toolbox
   \\    /   O peration     | Website:  https://openfoam.org
    \\  /    A nd           | Version:  9
     \\/     M anipulation  |
\*---------------------------------------------------------------------------*/
FoamFile
{
    format      ascii;
    class       volScalarField;
    location    "1.5";
    object      rho;
}
// * * * * * * * * * * * * * * * * * * * * * * * * * * * * * * * * * * * * * //

dimensions      [1 -3 0 0 0 0 0];

internalField   nonuniform List<scalar> 
5250
(
1.40001
1.40002
1.40004
1.40009
1.40025
1.40055
1.40146
1.40341
1.40875
1.42079
1.4512
1.51889
1.66966
1.97353
2.87469
5.8551
5.79704
5.67759
5.68211
5.73887
5.7993
5.84037
5.88852
5.92567
5.8236
1.40001
1.40001
1.40004
1.40009
1.40025
1.40052
1.4015
1.40323
1.40899
1.41989
1.45178
1.51643
1.66838
1.96789
2.85553
5.82374
5.78228
5.67997
5.68241
5.73483
5.79695
5.83842
5.88726
5.92494
5.82275
1.40001
1.40001
1.40004
1.40009
1.40025
1.40051
1.40147
1.40316
1.4088
1.41945
1.45071
1.51409
1.66331
1.95793
2.81535
5.75257
5.75047
5.68142
5.67882
5.72039
5.78366
5.82445
5.87284
5.91024
5.80813
1.40001
1.40001
1.40004
1.40008
1.40023
1.4005
1.40143
1.40303
1.40859
1.41862
1.44936
1.51018
1.65585
1.94244
2.75393
5.63403
5.73305
5.67326
5.66621
5.6972
5.75719
5.79834
5.84637
5.88336
5.78001
1.40001
1.40001
1.40004
1.40008
1.40022
1.40047
1.40136
1.40288
1.40819
1.41775
1.44719
1.50533
1.64565
1.92446
2.68109
5.46383
5.71614
5.65509
5.64269
5.66625
5.72323
5.76194
5.80497
5.84013
5.74836
1.40001
1.40001
1.40004
1.40007
1.40021
1.40045
1.40127
1.40275
1.40756
1.41696
1.44403
1.4998
1.63215
1.901
2.5906
5.23556
5.69858
5.63644
5.60882
5.62886
5.67885
5.71343
5.75407
5.79102
5.69814
1.40001
1.40001
1.40003
1.40008
1.40017
1.40048
1.401
1.40294
1.40612
1.41742
1.43793
1.49649
1.61299
1.87203
2.48914
4.94404
5.68702
5.62074
5.56543
5.57889
5.6172
5.6506
5.68765
5.71531
5.63824
1.40001
1.40001
1.40003
1.40007
1.40017
1.40039
1.40103
1.40234
1.40632
1.41416
1.43725
1.48429
1.59877
1.83185
2.38279
4.58064
5.6841
5.60637
5.51247
5.52136
5.55614
5.56922
5.58715
5.6078
5.52969
1.40001
1.40001
1.40003
1.40006
1.40015
1.40034
1.4009
1.40213
1.40537
1.41306
1.43203
1.47627
1.57682
1.78962
2.26881
4.13498
5.6999
5.61027
5.46607
5.46484
5.47732
5.482
5.47812
5.45954
5.3866
1.40001
1.40001
1.40002
1.40005
1.40013
1.4003
1.40078
1.40178
1.40481
1.41075
1.42853
1.46463
1.5554
1.7406
2.15496
3.6246
5.71635
5.60978
5.41441
5.39385
5.39118
5.36186
5.32606
5.2737
5.09012
1.40001
1.40001
1.40002
1.40005
1.4001
1.40028
1.40059
1.40168
1.40356
1.41008
1.42182
1.45751
1.52758
1.6937
2.03006
3.04633
5.70549
5.60629
5.38301
5.31961
5.28576
5.23457
5.12585
4.90948
4.21431
1.40001
1.40001
1.40002
1.40004
1.4001
1.40021
1.40058
1.40123
1.40353
1.40739
1.42081
1.44538
1.5138
1.65021
1.9414
2.73634
5.44724
5.47774
5.36491
5.25172
5.19541
5.10291
4.92631
4.61152
3.86629
1.40001
1.40001
1.40002
1.40003
1.40008
1.40019
1.40044
1.40116
1.40261
1.40707
1.41576
1.44134
1.49314
1.61817
1.87119
2.49182
4.89455
5.34977
5.29203
5.15938
5.0737
4.95656
4.74499
4.40831
3.84328
1.40001
1.40001
1.40001
1.40003
1.40006
1.40015
1.40039
1.40088
1.40237
1.40529
1.41425
1.43218
1.48062
1.58123
1.80287
2.29355
4.24319
5.28102
5.24187
5.1092
4.98006
4.83272
4.59973
4.27188
3.84079
1.40001
1.40001
1.40001
1.40003
1.40005
1.40013
1.40028
1.4008
1.40166
1.4048
1.4102
1.428
1.46205
1.55119
1.72948
2.12348
3.53408
5.24201
5.20484
5.07241
4.90348
4.74517
4.52533
4.20057
3.83451
1.40001
1.40001
1.40001
1.40002
1.40005
1.40009
1.40025
1.40054
1.40147
1.40328
1.40872
1.41999
1.45045
1.51498
1.66283
1.96137
2.78067
5.12993
5.16466
5.07139
4.85602
4.66324
4.46498
4.17477
3.83583
1.40001
1.40001
1.40001
1.40002
1.40003
1.40008
1.40017
1.40047
1.40104
1.40276
1.40638
1.41632
1.43834
1.49258
1.60923
1.85697
2.44455
4.6472
5.06215
4.99793
4.82857
4.60785
4.40612
4.15699
3.84363
1.40001
1.40001
1.40001
1.40001
1.40003
1.40006
1.40015
1.40031
1.40089
1.4019
1.40531
1.41166
1.43104
1.46976
1.56716
1.76342
2.19209
3.86433
4.97203
4.9361
4.8137
4.57626
4.36389
4.14081
3.866
1.40001
1.40001
1.40001
1.40001
1.40002
1.40005
1.4001
1.40026
1.4006
1.40151
1.40371
1.40891
1.42233
1.45247
1.52473
1.67811
1.99985
2.96685
4.84064
4.88576
4.80352
4.59182
4.34301
4.12251
3.87925
1.40001
1.40001
1.40001
1.40001
1.40002
1.40003
1.40008
1.40017
1.40048
1.40101
1.40288
1.40612
1.41691
1.43723
1.49346
1.60679
1.8499
2.41865
4.43227
4.83133
4.77317
4.61331
4.35058
4.11918
3.88878
1.40001
1.40001
1.40001
1.40001
1.40001
1.40002
1.40006
1.40012
1.40035
1.40073
1.40206
1.40444
1.4121
1.42707
1.4683
1.5534
1.74305
2.1305
3.61482
4.73641
4.71092
4.61268
4.38499
4.1406
3.91443
1.40001
1.40001
1.40001
1.40001
1.40001
1.40002
1.40004
1.4001
1.40022
1.40056
1.40131
1.40326
1.40798
1.41908
1.44659
1.50774
1.64396
1.90335
2.61039
4.54517
4.69195
4.6174
4.42162
4.17084
3.93542
1.40001
1.40001
1.40001
1.40001
1.40001
1.40001
1.40003
1.40007
1.40016
1.40039
1.40089
1.40237
1.4052
1.41409
1.4312
1.47855
1.57473
1.78411
2.22728
3.92686
4.62483
4.58836
4.4646
4.2161
3.98083
1.40001
1.40001
1.40001
1.40001
1.40001
1.40001
1.40002
1.40004
1.40012
1.40024
1.40067
1.40142
1.40394
1.40863
1.42289
1.45161
1.52485
1.6741
1.97718
2.95903
4.43578
4.53426
4.4726
4.29059
4.02622
1.40001
1.40001
1.40001
1.40001
1.40001
1.40001
1.40002
1.40003
1.40008
1.40016
1.40044
1.40094
1.40265
1.40557
1.41548
1.43363
1.485
1.58738
1.80015
2.28472
3.9619
4.48735
4.45391
4.34339
4.09814
1.40001
1.40001
1.40001
1.40001
1.40001
1.40001
1.40001
1.40002
1.40005
1.40012
1.40026
1.40068
1.40159
1.40391
1.40963
1.42282
1.45564
1.5275
1.68414
1.98917
3.02857
4.3177
4.40585
4.35222
4.199
1.40001
1.40001
1.40001
1.40001
1.40001
1.40001
1.40001
1.40002
1.40003
1.40008
1.40017
1.40045
1.40095
1.40268
1.40563
1.41559
1.43376
1.48532
1.58701
1.7912
2.27551
3.88025
4.36375
4.33787
4.24737
1.40001
1.40001
1.40001
1.40001
1.40001
1.40001
1.40001
1.40001
1.40002
1.40005
1.40012
1.40025
1.40067
1.40151
1.4039
1.40913
1.42248
1.45321
1.52375
1.6726
1.96067
2.92661
4.17595
4.30052
4.25564
1.40001
1.40001
1.40001
1.40001
1.40001
1.40001
1.40001
1.40001
1.40002
1.40003
1.40008
1.40016
1.40043
1.4009
1.40251
1.40529
1.41458
1.43159
1.48003
1.5749
1.76684
2.20749
3.69425
4.24873
4.2317
1.40001
1.40001
1.40001
1.40001
1.40001
1.40001
1.40001
1.40001
1.40001
1.40002
1.40004
1.4001
1.40025
1.40056
1.40149
1.40322
1.40882
1.41895
1.44962
1.50843
1.64753
1.89645
2.67432
4.01508
4.2108
1.40001
1.40001
1.40001
1.40001
1.40001
1.40001
1.40001
1.40001
1.40001
1.40002
1.40003
1.40007
1.40014
1.40035
1.40086
1.402
1.40515
1.4116
1.42985
1.46663
1.55819
1.72566
2.10558
3.4092
4.1152
1.40001
1.40001
1.40001
1.40001
1.40001
1.40001
1.40001
1.40001
1.40001
1.40001
1.40002
1.40004
1.40009
1.40022
1.40047
1.40127
1.40269
1.40743
1.41574
1.44159
1.4901
1.60826
1.80357
2.33414
3.81957
1.40001
1.40001
1.40001
1.40001
1.40001
1.40001
1.40001
1.40001
1.40001
1.40001
1.40001
1.40002
1.40006
1.40012
1.40031
1.40067
1.40173
1.40402
1.40995
1.42359
1.45617
1.52898
1.67754
1.9766
3.01418
1.40001
1.40001
1.40001
1.40001
1.40001
1.40001
1.40001
1.40001
1.40001
1.40001
1.40001
1.40002
1.40003
1.40007
1.40017
1.40038
1.40102
1.40217
1.406
1.41261
1.43383
1.47296
1.57275
1.74002
2.15898
1.40001
1.40001
1.40001
1.40001
1.40001
1.40001
1.40001
1.40001
1.40001
1.40001
1.40001
1.40001
1.40002
1.40004
1.40009
1.40024
1.4005
1.40138
1.40289
1.40793
1.41693
1.4442
1.49593
1.61771
1.82717
1.40001
1.40001
1.40001
1.40001
1.40001
1.40001
1.40001
1.40001
1.40001
1.40001
1.40001
1.40001
1.40001
1.40002
1.40006
1.40012
1.40031
1.40072
1.40169
1.40431
1.40965
1.42487
1.45501
1.53194
1.67124
1.40001
1.40001
1.40001
1.40001
1.40001
1.40001
1.40001
1.40001
1.40001
1.40001
1.40001
1.40001
1.40001
1.40002
1.40003
1.40007
1.40017
1.40037
1.401
1.40211
1.40581
1.4122
1.4326
1.46995
1.56513
1.40001
1.40001
1.40001
1.40001
1.40001
1.40001
1.40001
1.40001
1.40001
1.40001
1.40001
1.40001
1.40001
1.40001
1.40002
1.40004
1.40009
1.40021
1.40051
1.40117
1.40299
1.40655
1.41719
1.43714
1.4917
1.40001
1.40001
1.40001
1.40001
1.40001
1.40001
1.40001
1.40001
1.40001
1.40001
1.40001
1.40001
1.40001
1.40001
1.40001
1.40003
1.40005
1.40012
1.40025
1.40068
1.40146
1.4038
1.40858
1.42138
1.44895
1.40001
1.40001
1.40001
1.40001
1.40001
1.40001
1.40001
1.40001
1.40001
1.40001
1.40001
1.40001
1.40001
1.40001
1.40001
1.40001
1.40003
1.40006
1.40015
1.40033
1.40081
1.40194
1.40454
1.41129
1.42568
1.40001
1.40001
1.40001
1.40001
1.40001
1.40001
1.40001
1.40001
1.40001
1.40001
1.40001
1.40001
1.40001
1.40001
1.40001
1.40001
1.40002
1.40003
1.40008
1.40017
1.40043
1.40094
1.40248
1.40531
1.41416
1.40001
1.40001
1.40001
1.40001
1.40001
1.40001
1.40001
1.40001
1.40001
1.40001
1.40001
1.40001
1.40001
1.40001
1.40001
1.40001
1.40001
1.40002
1.40004
1.4001
1.4002
1.40053
1.4011
1.40297
1.40635
1.40001
1.40001
1.40001
1.40001
1.40001
1.40001
1.40001
1.40001
1.40001
1.40001
1.40001
1.40001
1.40001
1.40001
1.40001
1.40001
1.40001
1.40001
1.40002
1.40005
1.40011
1.40024
1.4006
1.4014
1.40332
1.40001
1.40001
1.40001
1.40001
1.40001
1.40001
1.40001
1.40001
1.40001
1.40001
1.40001
1.40001
1.40001
1.40001
1.40001
1.40001
1.40001
1.40001
1.40001
1.40003
1.40006
1.40012
1.40031
1.40065
1.40177
1.40001
1.40001
1.40001
1.40001
1.40001
1.40001
1.40001
1.40001
1.40001
1.40001
1.40001
1.40001
1.40001
1.40001
1.40001
1.40001
1.40001
1.40001
1.40001
1.40002
1.40003
1.40007
1.40014
1.40036
1.40077
1.40001
1.40001
1.40001
1.40001
1.40001
1.40001
1.40001
1.40001
1.40001
1.40001
1.40001
1.40001
1.40001
1.40001
1.40001
1.40001
1.40001
1.40001
1.40001
1.40001
1.40002
1.40003
1.40008
1.40016
1.4004
1.40001
1.40001
1.40001
1.40001
1.40001
1.40001
1.40001
1.40001
1.40001
1.40001
1.40001
1.40001
1.40001
1.40001
1.40001
1.40001
1.40001
1.40001
1.40001
1.40001
1.40001
1.40002
1.40004
1.40008
1.40019
1.40001
1.40001
1.40001
1.40001
1.40001
1.40001
1.40001
1.40001
1.40001
1.40001
1.40001
1.40001
1.40001
1.40001
1.40001
1.40001
1.40001
1.40001
1.40001
1.40001
1.40001
1.40001
1.40002
1.40004
1.4001
1.40001
1.40001
1.40001
1.40001
1.40001
1.40001
1.40001
1.40001
1.40001
1.40001
1.40001
1.40001
1.40001
1.40001
1.40001
1.40001
1.40001
1.40001
1.40001
1.40001
1.40001
1.40001
1.40001
1.40002
1.40005
1.40001
1.40001
1.40001
1.40001
1.40001
1.40001
1.40001
1.40001
1.40001
1.40001
1.40001
1.40001
1.40001
1.40001
1.40001
1.40001
1.40001
1.40001
1.40001
1.40001
1.40001
1.40001
1.40001
1.40002
1.40003
1.85182
1.01697
0.708577
0.628531
0.626309
0.656985
0.73204
0.80019
0.818988
0.817717
0.812855
0.803949
0.800166
0.79837
0.797408
0.797011
0.795577
0.793669
0.791327
0.788013
0.784171
0.780785
0.777888
0.775279
0.772751
0.770177
0.767523
0.764825
0.762135
0.759481
0.75684
0.754154
0.751357
0.748396
0.745226
0.741823
0.738176
0.734301
0.730223
0.725948
0.721491
0.71692
0.712244
0.707407
0.702439
0.697457
0.692522
0.687677
0.68295
0.678384
0.674161
0.670958
0.670335
0.671107
0.674541
0.684947
0.707443
0.75356
0.847555
1.02779
1.27906
1.54987
1.76779
1.87239
1.87617
1.86232
1.83562
1.79349
1.76623
1.76119
1.7573
1.74808
1.73671
1.72016
1.6976
1.66756
1.6342
1.60534
1.57625
1.55248
1.52885
1.51032
1.49201
1.47537
1.45752
1.43898
1.41862
1.39779
1.37677
1.35551
1.33633
1.3161
1.29867
1.27966
1.26324
1.24604
1.2306
1.21507
1.20223
1.18976
2.29996
1.51004
1.15513
1.00602
0.938442
0.891903
0.870705
0.873226
0.880043
0.894828
0.916766
0.921499
0.920423
0.917359
0.912103
0.906954
0.903288
0.900992
0.89925
0.897005
0.89428
0.890961
0.887276
0.883571
0.879977
0.876531
0.873181
0.869848
0.866472
0.863027
0.859511
0.855935
0.852317
0.848675
0.845003
0.841308
0.837546
0.833765
0.829849
0.825925
0.821783
0.817687
0.813356
0.809065
0.804605
0.800114
0.795504
0.790909
0.786173
0.781915
0.777589
0.77685
0.776899
0.778914
0.787566
0.807433
0.847431
0.931585
1.07121
1.23608
1.40057
1.54932
1.70874
1.88986
2.06097
2.17989
2.23059
2.22105
2.19362
2.14278
2.07833
2.02892
1.99364
1.97267
1.96018
1.95107
1.94238
1.92926
1.90973
1.88152
1.84841
1.81385
1.7796
1.74684
1.716
1.68812
1.66282
1.63937
1.61698
1.5946
1.57187
1.54885
1.52573
1.50279
1.47981
1.45737
1.43552
1.41344
1.39517
1.37304
2.82688
2.10136
1.63137
1.32921
1.13579
1.01161
0.934601
0.91386
0.91668
0.923809
0.943847
0.963944
0.978195
0.980715
0.979833
0.977422
0.973592
0.968969
0.965615
0.962849
0.959929
0.956872
0.953515
0.949892
0.94618
0.942421
0.938609
0.934732
0.930805
0.926834
0.92283
0.918782
0.914714
0.910599
0.906498
0.902353
0.898258
0.894107
0.889997
0.885816
0.881641
0.877435
0.873189
0.868969
0.864672
0.860396
0.856111
0.851738
0.847851
0.843994
0.843888
0.844415
0.847301
0.857329
0.880372
0.925401
1.0214
1.16773
1.32494
1.42381
1.49506
1.56154
1.63392
1.72325
1.83406
1.98381
2.15083
2.29731
2.39202
2.39594
2.38055
2.34889
2.28682
2.21875
2.1609
2.11935
2.08818
2.06593
2.0507
2.03978
2.02579
2.00627
1.98038
1.9517
1.92098
1.89145
1.86187
1.83346
1.80521
1.77816
1.75177
1.72617
1.70086
1.67578
1.65088
1.62586
1.60196
1.57723
1.55735
1.53187
3.14843
2.49618
2.00293
1.64921
1.41041
1.24297
1.13808
1.06725
1.02551
1.00428
1.00461
1.00758
1.01395
1.02745
1.03579
1.03783
1.0363
1.03375
1.02952
1.0236
1.01883
1.01447
1.01042
1.00661
1.00267
0.998448
0.994073
0.989669
0.985277
0.980945
0.976703
0.972564
0.968526
0.964585
0.960746
0.957012
0.953376
0.949828
0.946327
0.942849
0.939319
0.935783
0.932025
0.928397
0.924236
0.920501
0.916036
0.912513
0.908929
0.909091
0.910406
0.915647
0.927848
0.95531
1.00942
1.12588
1.29606
1.44128
1.51813
1.55739
1.58296
1.60512
1.62701
1.65557
1.7006
1.75995
1.83821
1.94403
2.08207
2.23708
2.36495
2.44722
2.44534
2.42223
2.38735
2.32093
2.25167
2.19456
2.14725
2.1141
2.09066
2.07645
2.06417
2.05131
2.03524
2.01412
1.98858
1.9605
1.93108
1.90149
1.87233
1.84377
1.81579
1.78977
1.76352
1.73973
1.71563
1.69264
1.67308
1.64856
3.31752
2.77536
2.31079
1.94366
1.67367
1.46907
1.3202
1.20911
1.13089
1.07637
1.04509
1.03584
1.03654
1.03935
1.04593
1.0555
1.06156
1.06361
1.06275
1.06092
1.05805
1.05308
1.0483
1.04377
1.03948
1.03535
1.03125
1.02712
1.02298
1.01883
1.01474
1.01071
1.00679
1.00292
0.999147
0.995428
0.991717
0.988057
0.98433
0.980659
0.976824
0.973123
0.969105
0.965348
0.961291
0.95743
0.954004
0.951973
0.952469
0.954959
0.962119
0.978778
1.01251
1.08264
1.2162
1.41297
1.5364
1.60393
1.62878
1.64143
1.64459
1.64134
1.63509
1.63773
1.64423
1.65527
1.67978
1.72003
1.77482
1.85293
1.95587
2.09522
2.23848
2.36648
2.44659
2.44549
2.42125
2.38695
2.32441
2.25883
2.1961
2.14825
2.11042
2.08146
2.0586
2.03928
2.02192
2.00441
1.98451
1.96208
1.93715
1.9124
1.88586
1.86124
1.836
1.81164
1.7891
1.76461
1.74627
1.72257
3.42188
2.97385
2.56028
2.20469
1.92003
1.69491
1.5201
1.38362
1.28093
1.20282
1.1477
1.10658
1.08488
1.07448
1.07467
1.07636
1.07983
1.08777
1.09221
1.09371
1.09239
1.09086
1.08775
1.08205
1.07621
1.07079
1.06592
1.0616
1.05746
1.05342
1.04921
1.04494
1.04054
1.03617
1.03181
1.02753
1.0233
1.01913
1.01497
1.01083
1.00668
1.00246
0.998401
0.994095
0.990236
0.986682
0.985957
0.986728
0.990591
0.999968
1.02144
1.0646
1.15473
1.31566
1.52293
1.62273
1.67593
1.69562
1.69884
1.69498
1.68129
1.66727
1.65043
1.63769
1.62602
1.61958
1.61973
1.62349
1.63585
1.6617
1.70228
1.75899
1.83335
1.9424
2.07115
2.21305
2.33911
2.41909
2.41754
2.39276
2.35742
2.29628
2.22811
2.16299
2.11305
2.07153
2.03956
2.01331
1.99086
1.97248
1.9549
1.93807
1.92052
1.90091
1.88091
1.85806
1.83856
1.81415
1.79691
1.77394
3.49145
3.10935
2.74627
2.41849
2.13803
1.9037
1.71426
1.55894
1.4359
1.33583
1.25727
1.19695
1.15209
1.11984
1.10299
1.09644
1.09646
1.09757
1.09982
1.10536
1.10805
1.10794
1.10704
1.10552
1.10239
1.09718
1.09148
1.08643
1.08161
1.07741
1.07306
1.06889
1.06457
1.0602
1.05583
1.0514
1.04703
1.04267
1.03835
1.03406
1.02968
1.02551
1.0212
1.01725
1.01379
1.01408
1.01552
1.02033
1.03244
1.05827
1.11102
1.22032
1.41729
1.61366
1.69878
1.73914
1.75093
1.7534
1.74184
1.72704
1.7073
1.68877
1.6678
1.64842
1.62952
1.61355
1.60019
1.59039
1.58492
1.5863
1.59185
1.6054
1.63213
1.67208
1.72582
1.80287
1.89855
2.0295
2.16131
2.28901
2.3723
2.36974
2.34779
2.31202
2.25713
2.18978
2.12868
2.07214
2.03308
1.99788
1.97174
1.94802
1.92898
1.91099
1.89674
1.87959
1.86519
1.8453
1.82996
1.80981
3.55315
3.21883
2.89272
2.58958
2.32206
2.089
1.89292
1.72739
1.59039
1.47671
1.38409
1.30779
1.24717
1.20055
1.16519
1.13962
1.12595
1.11879
1.11874
1.11955
1.12119
1.12513
1.12762
1.12747
1.12653
1.12511
1.12219
1.11636
1.1101
1.10402
1.09851
1.09356
1.08902
1.08474
1.08047
1.07608
1.07149
1.06677
1.06202
1.05713
1.05246
1.04796
1.04378
1.04061
1.04102
1.04329
1.04962
1.06488
1.09768
1.16168
1.29532
1.52568
1.68857
1.76463
1.79294
1.80203
1.79849
1.78377
1.76479
1.74507
1.72242
1.70068
1.67742
1.65571
1.63364
1.61358
1.59464
1.57845
1.5652
1.55396
1.54808
1.54328
1.54774
1.5542
1.56806
1.59343
1.63124
1.68409
1.74877
1.84695
1.9612
2.09407
2.2192
2.30708
2.30932
2.29115
2.25793
2.20819
2.15139
2.08562
2.03656
1.99022
1.96072
1.93008
1.90888
1.88578
1.86966
1.85132
1.83799
1.82547
3.60176
3.30552
3.01067
2.72993
2.47538
2.24819
2.05095
1.88028
1.73542
1.61122
1.50763
1.41929
1.34686
1.28606
1.23738
1.19836
1.16965
1.14926
1.13849
1.13205
1.13185
1.13166
1.13261
1.13428
1.13497
1.13398
1.13302
1.13107
1.12722
1.12192
1.11632
1.11082
1.10557
1.1006
1.09583
1.09117
1.08653
1.08181
1.07696
1.07205
1.06729
1.06267
1.06015
1.06046
1.06336
1.07105
1.0894
1.1286
1.2058
1.36357
1.61585
1.75394
1.81783
1.83851
1.84132
1.83728
1.81873
1.79901
1.77535
1.75294
1.72859
1.70637
1.68321
1.66192
1.64073
1.6208
1.60162
1.58382
1.56729
1.5521
1.53968
1.5272
1.52071
1.51219
1.5102
1.51247
1.518
1.52922
1.55163
1.58568
1.63018
1.69817
1.77697
1.89388
2.01646
2.14562
2.23892
2.2546
2.24277
2.20908
2.16921
2.11492
2.06267
2.00361
1.96497
1.92426
1.89958
1.87123
1.85313
1.83279
3.64136
3.37738
3.10991
2.85066
2.60947
2.39007
2.19484
2.02239
1.87248
1.74185
1.62952
1.53253
1.44996
1.37923
1.32046
1.27083
1.23108
1.19893
1.17493
1.15753
1.14765
1.14148
1.14023
1.13989
1.14018
1.14101
1.14174
1.14074
1.13971
1.13751
1.13315
1.1275
1.12158
1.11564
1.10982
1.10437
1.09896
1.09381
1.08876
1.08402
1.07943
1.07851
1.07869
1.08194
1.09152
1.1139
1.16108
1.25396
1.44939
1.70133
1.81428
1.86417
1.87886
1.88063
1.87017
1.85277
1.82954
1.80666
1.78246
1.75943
1.73625
1.71442
1.69225
1.67185
1.65111
1.6319
1.61338
1.59494
1.57807
1.5606
1.54462
1.52923
1.515
1.50129
1.4919
1.48065
1.47662
1.47039
1.47322
1.47721
1.48657
1.50546
1.53615
1.57917
1.63373
1.71731
1.81309
1.94034
2.0632
2.16531
2.20527
2.19406
2.16524
2.13208
2.08962
2.03465
1.98792
1.93321
1.9046
1.86558
3.68244
3.43769
3.19271
2.95287
2.7253
2.51449
2.32321
2.15141
1.99924
1.86454
1.74666
1.64299
1.5531
1.47433
1.40682
1.34797
1.29865
1.25636
1.22236
1.19454
1.17393
1.15908
1.15022
1.14511
1.14268
1.14222
1.14197
1.14161
1.14105
1.13969
1.1383
1.13554
1.13074
1.12502
1.11918
1.11313
1.1073
1.10176
1.09683
1.09187
1.09176
1.09272
1.09637
1.10776
1.1337
1.18776
1.297
1.53426
1.76401
1.86628
1.90729
1.91767
1.91554
1.90356
1.8828
1.86032
1.83607
1.81266
1.78876
1.76632
1.74401
1.72273
1.70184
1.68163
1.66166
1.64258
1.62308
1.60464
1.58644
1.56825
1.55196
1.53396
1.51871
1.50236
1.48786
1.47354
1.46174
1.44885
1.44209
1.43319
1.43014
1.42928
1.43257
1.44002
1.45602
1.48186
1.51889
1.57217
1.63691
1.73478
1.84007
1.97209
2.07126
2.14375
2.14
2.11881
2.09172
2.05295
2.02064
1.95282
3.71159
3.48796
3.26228
3.03979
2.82609
2.62503
2.43954
2.27011
2.11753
1.98068
1.85888
1.75064
1.65493
1.5702
1.49575
1.43008
1.37297
1.32318
1.28086
1.24477
1.21545
1.19164
1.17362
1.16033
1.15193
1.14675
1.14366
1.14284
1.14209
1.14137
1.1404
1.13921
1.13748
1.13404
1.12918
1.12353
1.11778
1.1125
1.10723
1.10705
1.10863
1.11345
1.12695
1.15768
1.21819
1.34759
1.62325
1.82569
1.91428
1.94935
1.95648
1.95371
1.93621
1.91457
1.88951
1.86547
1.84097
1.81801
1.79546
1.77363
1.75218
1.73117
1.71055
1.69025
1.67038
1.65057
1.6316
1.61254
1.59413
1.57574
1.55802
1.54032
1.52426
1.50684
1.4924
1.47577
1.46204
1.44727
1.43473
1.42116
1.41182
1.40012
1.39557
1.38868
1.38776
1.38982
1.39585
1.40734
1.42902
1.46153
1.50429
1.56779
1.64368
1.74852
1.8599
1.98193
2.05699
2.08768
2.08077
2.0543
3.75865
3.54468
3.32988
3.11977
2.91731
2.72498
2.54543
2.37942
2.22768
2.08992
1.9657
1.85386
1.75383
1.66418
1.58433
1.51311
1.45
1.39407
1.34506
1.30213
1.26533
1.23387
1.20806
1.18712
1.17108
1.15924
1.15138
1.14655
1.14364
1.14213
1.14127
1.14062
1.13938
1.13801
1.13549
1.13129
1.12722
1.12206
1.12172
1.12356
1.12881
1.14413
1.17915
1.24556
1.39554
1.70284
1.88597
1.962
1.98963
1.99445
1.98927
1.96984
1.94525
1.91951
1.89375
1.86974
1.84612
1.82383
1.80155
1.78015
1.75907
1.73818
1.71784
1.69729
1.6775
1.65755
1.63819
1.61869
1.60021
1.58138
1.56409
1.54586
1.52944
1.51199
1.49669
1.47985
1.46599
1.44953
1.43654
1.4213
1.40876
1.39506
1.3841
1.37144
1.36389
1.35425
1.35126
1.3462
1.34864
1.35235
1.36032
1.37665
1.40302
1.44142
1.48785
1.56501
1.635
1.77001
1.83853
2.02789
3.80516
3.59675
3.39378
3.19511
3.00187
2.81734
2.64331
2.48113
2.33111
2.19347
2.06795
1.95384
1.85055
1.75715
1.67295
1.59705
1.52899
1.46783
1.41337
1.36477
1.32197
1.28437
1.2519
1.22428
1.20133
1.18296
1.16869
1.15813
1.15088
1.14629
1.14331
1.14188
1.14079
1.14003
1.13878
1.137
1.13639
1.13605
1.13843
1.14564
1.164
1.20384
1.27955
1.45557
1.7866
1.94668
2.01222
2.03221
2.03468
2.02525
2.00315
1.97711
1.94998
1.92336
1.89796
1.87397
1.85106
1.82892
1.80756
1.78609
1.76523
1.74406
1.72371
1.70298
1.68315
1.66278
1.64357
1.6239
1.60532
1.58635
1.5686
1.55046
1.53406
1.51659
1.50136
1.48442
1.47
1.4536
1.44015
1.42401
1.41156
1.396
1.3841
1.36981
1.35862
1.34557
1.33626
1.32444
1.31866
1.31058
1.30852
1.30634
1.30943
1.31519
1.3262
1.34679
1.3744
1.42354
1.46876
1.60977
3.86695
3.66075
3.46295
3.26861
3.08283
2.90424
2.73458
2.57528
2.427
2.28974
2.16362
2.04792
1.94244
1.84622
1.75898
1.67962
1.60786
1.5428
1.48405
1.43107
1.38348
1.34092
1.30321
1.26997
1.24122
1.21666
1.19618
1.17961
1.16673
1.15704
1.1502
1.14565
1.14205
1.14158
1.14137
1.14107
1.14315
1.14773
1.15779
1.18081
1.22817
1.31557
1.52164
1.86314
2.00718
2.06087
2.07394
2.07495
2.06287
2.03744
2.00907
1.98016
1.95256
1.92633
1.90172
1.87845
1.85615
1.83431
1.81288
1.79138
1.77054
1.74926
1.72897
1.70795
1.68817
1.66762
1.64837
1.6284
1.60998
1.59085
1.57348
1.55518
1.53867
1.52112
1.5056
1.48864
1.47419
1.4577
1.44396
1.428
1.41489
1.39935
1.38706
1.37189
1.36037
1.34591
1.33503
1.32161
1.31175
1.29939
1.29152
1.28069
1.27627
1.26972
1.26819
1.26909
1.27265
1.28014
1.29437
1.33945
3.94151
3.72171
3.52665
3.34253
3.16137
2.98797
2.82266
2.6661
2.51933
2.38254
2.25578
2.13906
2.03165
1.93338
1.84323
1.76114
1.68586
1.61757
1.55508
1.49843
1.44695
1.40031
1.35833
1.32062
1.287
1.25752
1.23173
1.20967
1.19137
1.17618
1.16425
1.15617
1.14818
1.14748
1.14729
1.1492
1.15447
1.16725
1.19383
1.2499
1.35077
1.57922
1.91934
2.06044
2.10943
2.11618
2.11376
2.09824
2.07194
2.0408
2.01028
1.98085
1.95426
1.92914
1.90592
1.88311
1.86143
1.8395
1.81842
1.79673
1.77594
1.75443
1.73407
1.7129
1.69317
1.67247
1.6534
1.63339
1.61498
1.59573
1.57817
1.5597
1.54326
1.52551
1.51009
1.49291
1.4783
1.46155
1.44779
1.43146
1.41842
1.40264
1.39017
1.3749
1.36299
1.34816
1.33688
1.32256
1.31195
1.29836
1.28853
1.27589
1.26728
1.25575
1.24898
1.23947
1.23605
1.23058
1.23277
1.23757
4.03704
3.80198
3.5967
3.41101
3.2353
3.06641
2.90553
2.75217
2.60741
2.47144
2.34489
2.22731
2.11866
2.01859
1.92628
1.84167
1.76388
1.69243
1.62704
1.56705
1.51208
1.46198
1.41616
1.37463
1.33682
1.30319
1.27284
1.24597
1.22339
1.20269
1.18628
1.17363
1.16061
1.16049
1.16177
1.16533
1.17877
1.20672
1.26599
1.3785
1.62219
1.95728
2.10044
2.1491
2.15603
2.15229
2.13249
2.10084
2.06904
2.03801
2.0089
1.98149
1.95661
1.93307
1.91087
1.88891
1.86749
1.84567
1.82445
1.80263
1.78166
1.76009
1.73966
1.71847
1.69858
1.67775
1.65847
1.63819
1.61973
1.60026
1.58266
1.56403
1.54724
1.52931
1.51342
1.49605
1.48112
1.46433
1.45028
1.43399
1.42072
1.40485
1.39226
1.37682
1.36483
1.34984
1.33839
1.32388
1.31296
1.29895
1.28862
1.27518
1.26553
1.25276
1.24397
1.2321
1.22437
1.2141
1.2076
1.20229
4.13154
3.89161
3.67708
3.48874
3.31397
3.1487
2.98849
2.83696
2.69346
2.55846
2.43147
2.31354
2.20356
2.10182
2.00791
1.92072
1.8407
1.76684
1.69845
1.63598
1.5781
1.5249
1.47606
1.43156
1.39013
1.35303
1.31962
1.28789
1.26195
1.23704
1.21567
1.19915
1.18416
1.18454
1.1883
1.20021
1.22773
1.28736
1.40151
1.66604
1.99231
2.13384
2.18554
2.18967
2.18667
2.16427
2.12714
2.09199
2.06156
2.03393
2.00841
1.98371
1.96063
1.93799
1.91642
1.89459
1.87333
1.85135
1.83012
1.80803
1.78711
1.76523
1.74469
1.7231
1.7031
1.68205
1.6627
1.64228
1.62356
1.60378
1.58585
1.56681
1.54979
1.53152
1.51545
1.4979
1.48277
1.46577
1.4515
1.43502
1.42155
1.4056
1.39287
1.37741
1.36531
1.35025
1.3387
1.32405
1.31303
1.29884
1.28838
1.27467
1.26478
1.25154
1.24233
1.22953
1.22121
1.20891
1.2018
1.19087
4.16592
4.00365
3.77176
3.56787
3.38803
3.22302
3.06723
2.91807
2.7769
2.64309
2.51736
2.39865
2.28816
2.18473
2.0889
2.00005
1.91747
1.84129
1.77077
1.70536
1.64503
1.5895
1.5376
1.4901
1.44689
1.40533
1.36951
1.33536
1.3037
1.27749
1.25211
1.22965
1.22427
1.22627
1.23514
1.26281
1.31851
1.44127
1.72149
2.04069
2.17399
2.22572
2.22978
2.22001
2.19052
2.15173
2.11554
2.0834
2.05582
2.03114
2.00818
1.98567
1.96358
1.94135
1.91975
1.8979
1.87662
1.85469
1.83353
1.8114
1.79037
1.76838
1.74778
1.72626
1.70616
1.68496
1.66538
1.64464
1.62579
1.60577
1.58773
1.56848
1.55131
1.53283
1.51657
1.49876
1.48339
1.4662
1.45176
1.43517
1.42161
1.40556
1.39271
1.37711
1.36486
1.34971
1.33805
1.32334
1.31223
1.29793
1.28734
1.27343
1.2634
1.24986
1.24049
1.22726
1.2188
1.20572
1.19864
1.18591
4.17915
4.08718
3.87807
3.66311
3.47519
3.30496
3.14811
2.99976
2.85913
2.7263
2.60093
2.48276
2.37178
2.26748
2.17021
2.07958
1.99502
1.91676
1.84379
1.7758
1.71346
1.65433
1.60079
1.55058
1.50321
1.46173
1.42026
1.38462
1.35101
1.31976
1.29364
1.27679
1.27832
1.28761
1.31495
1.37317
1.49757
1.79377
2.10991
2.23233
2.27448
2.2825
2.26346
2.21621
2.17525
2.13969
2.10807
2.0785
2.05289
2.02859
2.00643
1.98417
1.96262
1.94051
1.91927
1.89749
1.8767
1.85492
1.83419
1.81211
1.79164
1.76961
1.74942
1.72761
1.70773
1.68641
1.66703
1.64624
1.62741
1.60717
1.58907
1.56955
1.55232
1.53356
1.51721
1.49915
1.48372
1.46632
1.45177
1.43495
1.42122
1.40493
1.39197
1.37621
1.36393
1.34866
1.33696
1.3221
1.31092
1.29646
1.28579
1.27174
1.26164
1.24795
1.23855
1.22513
1.21666
1.20329
1.19625
1.18295
4.14828
4.10205
3.98149
3.75973
3.56098
3.38742
3.22985
3.08264
2.94295
2.81079
2.68467
2.56616
2.45416
2.34927
2.25046
2.15816
2.07182
1.99131
1.91593
1.84676
1.78054
1.72097
1.66401
1.61095
1.56379
1.51609
1.47601
1.4359
1.40005
1.36927
1.34394
1.34512
1.3539
1.38129
1.44345
1.57094
1.89016
2.20203
2.32595
2.33895
2.34407
2.32089
2.26557
2.21813
2.17966
2.14522
2.1136
2.08275
2.05437
2.02751
2.00438
1.98141
1.96007
1.93813
1.91734
1.89563
1.8751
1.85336
1.83306
1.81121
1.79109
1.76918
1.74939
1.72774
1.70828
1.6869
1.66768
1.64669
1.62798
1.60763
1.58962
1.56994
1.55269
1.53369
1.51725
1.49892
1.48331
1.46563
1.45089
1.43383
1.41996
1.4035
1.39041
1.37448
1.36204
1.34657
1.33471
1.31969
1.30838
1.29378
1.28302
1.26884
1.25866
1.24486
1.23541
1.22188
1.2134
1.1999
1.1929
1.17936
4.12773
4.10473
4.03631
3.87439
3.66196
3.47355
3.30927
3.16067
3.02193
2.89068
2.7664
2.64768
2.53556
2.42976
2.32994
2.23598
2.1485
2.06525
1.98947
1.916
1.85001
1.78697
1.72775
1.67509
1.62174
1.57657
1.53105
1.49052
1.45539
1.42345
1.42423
1.43311
1.46325
1.53051
1.67313
2.01405
2.31462
2.44261
2.44701
2.42614
2.3848
2.33597
2.28308
2.2351
2.19483
2.15952
2.12802
2.09714
2.06718
2.03737
2.0101
1.98423
1.96127
1.93814
1.91659
1.8941
1.87308
1.85074
1.83027
1.8081
1.78827
1.76635
1.74694
1.72519
1.70602
1.68464
1.66582
1.64496
1.62652
1.60615
1.5882
1.56842
1.55117
1.53206
1.51557
1.49711
1.48141
1.46359
1.4487
1.43149
1.41741
1.40075
1.38744
1.3713
1.35868
1.34305
1.33105
1.31591
1.30448
1.28978
1.27893
1.26467
1.25445
1.24062
1.23116
1.21763
1.20919
1.19566
1.18874
1.17513
3.94853
4.07494
4.04786
3.96372
3.77243
3.57824
3.40575
3.25024
3.10742
2.97319
2.84739
2.72887
2.61662
2.51038
2.40962
2.31559
2.22478
2.14219
2.06208
1.98903
1.92026
1.85416
1.79606
1.73675
1.68611
1.63536
1.58967
1.55026
1.51303
1.51351
1.52287
1.55579
1.62767
1.79288
2.17131
2.45265
2.5631
2.57712
2.54328
2.47065
2.41319
2.35964
2.30777
2.25917
2.21742
2.18059
2.14825
2.11624
2.08493
2.05347
2.0236
1.99404
1.96744
1.94156
1.91774
1.8935
1.87089
1.84747
1.826
1.80337
1.78304
1.76094
1.74149
1.71988
1.70107
1.67987
1.66137
1.64057
1.62241
1.60219
1.58455
1.56494
1.54788
1.52884
1.51241
1.49393
1.47819
1.46028
1.44529
1.42796
1.41375
1.39698
1.38352
1.36728
1.35453
1.33878
1.32666
1.31137
1.29985
1.28502
1.27412
1.25977
1.24953
1.23562
1.22617
1.21256
1.20414
1.19051
1.18365
1.16988
3.49104
3.99452
4.01857
3.97995
3.87858
3.68105
3.50127
3.34333
3.19914
3.0646
2.93695
2.81572
2.70079
2.59192
2.49029
2.39322
2.30363
2.21765
2.13685
2.06258
1.98963
1.92566
1.8608
1.80399
1.7483
1.69712
1.65357
1.61202
1.61198
1.62204
1.6586
1.7371
1.93375
2.36287
2.61482
2.69336
2.71557
2.67639
2.58339
2.5067
2.4461
2.39212
2.34151
2.29307
2.24858
2.20814
2.17128
2.13647
2.10396
2.07168
2.04008
2.00857
1.97907
1.94965
1.92278
1.89628
1.87177
1.84675
1.82398
1.80026
1.77908
1.75646
1.73665
1.7148
1.69584
1.67454
1.6562
1.63551
1.61767
1.59757
1.58018
1.56064
1.54379
1.5248
1.50856
1.49009
1.47448
1.45653
1.4416
1.42417
1.40996
1.39306
1.37956
1.36317
1.35037
1.33446
1.32231
1.30688
1.29537
1.28041
1.26953
1.25505
1.24486
1.23081
1.22141
1.20765
1.19928
1.18551
1.17872
1.16479
2.44049
3.69973
3.98507
3.97282
3.92297
3.80038
3.60801
3.43607
3.28514
3.14774
3.02003
2.89913
2.78429
2.67529
2.57152
2.47291
2.38108
2.29283
2.21302
2.1337
2.06275
1.99306
1.92948
1.86953
1.81259
1.76498
1.72043
1.71966
1.73049
1.7725
1.86068
2.0914