/*--------------------------------*- C++ -*----------------------------------*\
  =========                 |
  \\      /  F ield         | OpenFOAM: The Open Source CFD Toolbox
   \\    /   O peration     | Website:  https://openfoam.org
    \\  /    A nd           | Version:  9
     \\/     M anipulation  |
\*---------------------------------------------------------------------------*/
FoamFile
{
    format      ascii;
    class       volScalarField;
    location    "1.5";
    object      T;
}
// * * * * * * * * * * * * * * * * * * * * * * * * * * * * * * * * * * * * * //

dimensions      [0 0 0 1 0 0 0];

internalField   nonuniform List<scalar> 
5250
(
1
1.00001
1.00003
1.00006
1.00017
1.00038
1.00104
1.00227
1.0064
1.01423
1.03878
1.09602
1.26135
1.7013
2.48245
2.76593
2.75979
2.75197
2.76094
2.77487
2.80367
2.82359
2.82722
2.82984
2.89455
1
1.00001
1.00002
1.00006
1.00016
1.0004
1.00098
1.00236
1.00608
1.01449
1.03782
1.09553
1.25808
1.69423
2.47478
2.76315
2.75844
2.75203
2.76034
2.77392
2.80242
2.82231
2.82584
2.82841
2.89346
1
1.00001
1.00002
1.00006
1.00015
1.00039
1.00095
1.00231
1.00594
1.01419
1.03692
1.09339
1.25197
1.67864
2.4573
2.7572
2.75464
2.75104
2.75803
2.7711
2.79885
2.81876
2.82221
2.82463
2.88967
1
1.00001
1.00002
1.00006
1.00014
1.0004
1.00086
1.00236
1.00547
1.01419
1.03489
1.09095
1.24209
1.65509
2.43072
2.74655
2.75011
2.7481
2.75416
2.76675
2.7937
2.81286
2.81558
2.81754
2.88353
1
1.00001
1.00002
1.00006
1.00013
1.00038
1.00083
1.00224
1.00523
1.01348
1.03324
1.08635
1.22992
1.62112
2.38702
2.73174
2.74656
2.74414
2.74897
2.76077
2.78497
2.80465
2.80847
2.81032
2.87091
1
1.00001
1.00002
1.00005
1.00013
1.00033
1.00083
1.00198
1.00518
1.01212
1.03206
1.07969
1.21581
1.57816
2.33367
2.71277
2.74273
2.73895
2.74135
2.75158
2.77416
2.79356
2.79599
2.79502
2.85654
1
1.00001
1.00002
1.00004
1.00013
1.00029
1.00079
1.0018
1.00473
1.01142
1.02906
1.07403
1.19727
1.53257
2.26144
2.68675
2.73737
2.73126
2.73204
2.74181
2.76368
2.77923
2.77875
2.77796
2.83001
1
1.00001
1.00002
1.00005
1.0001
1.0003
1.00062
1.00184
1.00389
1.01095
1.0253
1.0678
1.17607
1.47893
2.16737
2.65107
2.73194
2.7231
2.72164
2.72891
2.74388
2.76213
2.76294
2.7562
2.80214
1
1.00001
1.00002
1.00004
1.0001
1.00023
1.00064
1.00138
1.00397
1.00862
1.02395
1.05727
1.15552
1.41671
2.04757
2.60536
2.72155
2.70705
2.70275
2.70885
2.72297
2.73327
2.73105
2.72355
2.7417
1
1.00001
1.00001
1.00004
1.00008
1.00023
1.00046
1.0014
1.00291
1.00833
1.01887
1.05074
1.12912
1.35161
1.90032
2.54157
2.708
2.69363
2.68492
2.68878
2.69613
2.70605
2.69744
2.66122
2.65707
1
1
1.00001
1.00003
1.00008
1.00016
1.00046
1.00102
1.00274
1.00642
1.01648
1.04084
1.10622
1.28272
1.73884
2.45346
2.67839
2.66565
2.66031
2.66333
2.67098
2.6689
2.65106
2.59163
2.49642
1
1
1.00001
1.00003
1.00005
1.00016
1.00034
1.00097
1.00213
1.00576
1.01348
1.03512
1.08857
1.23754
1.63599
2.3664
2.65059
2.64561
2.63784
2.63309
2.63268
2.62363
2.59564
2.51867
2.40506
1
1
1.00001
1.00002
1.00006
1.00011
1.00034
1.00069
1.00204
1.00437
1.01212
1.02827
1.07529
1.19635
1.52915
2.23647
2.59577
2.63019
2.62211
2.61381
2.60614
2.58856
2.55066
2.47055
2.34489
1
1
1.00001
1.00002
1.00004
1.00011
1.00023
1.00069
1.00141
1.00416
1.009
1.02473
1.05973
1.161
1.43047
2.06438
2.52694
2.61096
2.59972
2.58737
2.57335
2.5536
2.52002
2.45086
2.33363
1
1
1.00001
1.00001
1.00004
1.00008
1.00022
1.00047
1.00129
1.00299
1.00769
1.01888
1.04797
1.12483
1.33502
1.85937
2.43287
2.58739
2.58176
2.56741
2.54504
2.51641
2.47854
2.4305
2.33378
1
1
1
1.00001
1.00003
1.00006
1.00016
1.00038
1.00099
1.00226
1.0061
1.01383
1.03715
1.09128
1.24568
1.63861
2.30486
2.53853
2.54911
2.5364
2.51872
2.49256
2.4471
2.40156
2.33055
1
1
1
1.00001
1.00002
1.00005
1.00012
1.00031
1.00071
1.00194
1.00424
1.01184
1.02689
1.07258
1.18621
1.50029
2.15531
2.48581
2.52341
2.51284
2.49082
2.46705
2.42638
2.37671
2.32235
1
1
1
1.00001
1.00001
1.00004
1.00009
1.00023
1.00057
1.00138
1.00353
1.00832
1.02176
1.05316
1.14146
1.37593
1.9458
2.39152
2.48927
2.48417
2.46533
2.44235
2.40672
2.35678
2.30503
1
1
1
1
1.00001
1.00003
1.00007
1.00018
1.00039
1.0011
1.0023
1.00672
1.01445
1.03997
1.09763
1.26377
1.67708
2.26793
2.44902
2.4573
2.44353
2.41944
2.38931
2.34417
2.29353
1
1
1
1
1.00001
1.00002
1.00005
1.00013
1.0003
1.00075
1.00184
1.00442
1.01137
1.02725
1.0709
1.18316
1.48657
2.0948
2.38768
2.42477
2.41529
2.39127
2.3645
2.32857
2.28488
1
1
1
1
1.00001
1.00002
1.00003
1.00009
1.00022
1.00053
1.00133
1.00315
1.00823
1.0193
1.05066
1.12832
1.34394
1.85953
2.2832
2.39122
2.39073
2.3727
2.34236
2.30845
2.26981
1
1
1
1
1
1.00001
1.00002
1.00006
1.00014
1.00039
1.00084
1.00238
1.00504
1.01414
1.03203
1.08575
1.21815
1.57221
2.13117
2.32896
2.35669
2.34789
2.32664
2.29281
2.25942
1
1
1
1
1
1.00001
1.00002
1.00004
1.00011
1.00023
1.00069
1.0014
1.00401
1.0088
1.02358
1.05685
1.15003
1.39319
1.93718
2.25873
2.32093
2.31761
2.30164
2.27467
2.23929
1
1
1
1
1
1.00001
1.00001
1.00003
1.00007
1.00017
1.00042
1.00102
1.00259
1.00599
1.01586
1.03731
1.09864
1.25482
1.6557
2.13194
2.27837
2.2909
2.28065
2.25802
2.22749
1
1
1
1
1
1
1.00001
1.00002
1.00004
1.00012
1.00026
1.00072
1.00158
1.00421
1.00982
1.02501
1.06203
1.16074
1.42216
1.93793
2.20428
2.25558
2.2531
2.23584
2.21004
1
1
1
1
1
1
1.00001
1.00001
1.00003
1.00008
1.00017
1.00047
1.001
1.00285
1.00603
1.01684
1.03853
1.10286
1.26347
1.66672
2.08737
2.2138
2.22748
2.21855
2.19755
1
1
1
1
1
1
1
1.00001
1.00002
1.00004
1.00013
1.00026
1.00073
1.00159
1.00423
1.00984
1.02506
1.06176
1.15947
1.4187
1.8971
2.14202
2.19062
2.19129
2.17674
1
1
1
1
1
1
1
1.00001
1.00001
1.00003
1.00007
1.00017
1.00045
1.00099
1.00272
1.00586
1.01621
1.03683
1.09817
1.24944
1.62784
2.02307
2.14961
2.16685
2.15978
1
1
1
1
1
1
1
1
1.00001
1.00002
1.00004
1.00012
1.00025
1.00066
1.00155
1.00381
1.00946
1.02277
1.05781
1.14607
1.38377
1.83024
2.07378
2.12736
2.13284
1
1
1
1
1
1
1
1
1
1.00001
1.00002
1.00007
1.00014
1.00042
1.00086
1.00244
1.00529
1.01409
1.03299
1.08535
1.21687
1.54616
1.94681
2.08384
2.10658
1
1
1
1
1
1
1
1
1
1.00001
1.00002
1.00004
1.00009
1.00025
1.00052
1.00149
1.00304
1.00868
1.01898
1.05075
1.12394
1.32662
1.73521
2.00286
2.07179
1
1
1
1
1
1
1
1
1
1
1.00001
1.00002
1.00006
1.00012
1.00035
1.00073
1.00202
1.00445
1.01161
1.02728
1.0693
1.17392
1.44498
1.84413
2.0159
1
1
1
1
1
1
1
1
1
1
1.00001
1.00001
1.00003
1.00008
1.00019
1.00044
1.00118
1.00254
1.00704
1.01525
1.04123
1.09814
1.25924
1.61285
1.92548
1
1
1
1
1
1
1
1
1
1
1
1.00001
1.00002
1.00005
1.0001
1.00029
1.00058
1.00163
1.00354
1.00933
1.0217
1.05523
1.13728
1.3573
1.73949
1
1
1
1
1
1
1
1
1
1
1
1
1.00001
1.00002
1.00006
1.00014
1.00036
1.00083
1.00204
1.00497
1.0118
1.02975
1.07183
1.18495
1.4558
1
1
1
1
1
1
1
1
1
1
1
1
1.00001
1.00001
1.00003
1.00008
1.00021
1.00043
1.00123
1.0025
1.00715
1.01529
1.04103
1.09773
1.25565
1
1
1
1
1
1
1
1
1
1
1
1
1
1.00001
1.00002
1.00005
1.0001
1.00027
1.00058
1.00153
1.00352
1.00868
1.02113
1.05165
1.12966
1
1
1
1
1
1
1
1
1
1
1
1
1
1
1.00001
1.00002
1.00005
1.00014
1.0003
1.00085
1.00172
1.00479
1.01035
1.02716
1.0636
1
1
1
1
1
1
1
1
1
1
1
1
1
1
1.00001
1.00001
1.00003
1.00007
1.00017
1.00042
1.00096
1.0025
1.00546
1.01469
1.03272
1
1
1
1
1
1
1
1
1
1
1
1
1
1
1
1.00001
1.00002
1.00004
1.00009
1.0002
1.00056
1.00114
1.00325
1.00671
1.01845
1
1
1
1
1
1
1
1
1
1
1
1
1
1
1
1
1.00001
1.00002
1.00004
1.00012
1.00024
1.00068
1.00142
1.00383
1.00845
1
1
1
1
1
1
1
1
1
1
1
1
1
1
1
1
1
1.00001
1.00002
1.00005
1.00014
1.00031
1.00076
1.00181
1.00424
1
1
1
1
1
1
1
1
1
1
1
1
1
1
1
1
1
1
1.00001
1.00003
1.00007
1.00015
1.0004
1.00083
1.00231
1
1
1
1
1
1
1
1
1
1
1
1
1
1
1
1
1
1
1.00001
1.00001
1.00003
1.00008
1.00017
1.00046
1.00102
1
1
1
1
1
1
1
1
1
1
1
1
1
1
1
1
1
1
1
1.00001
1.00002
1.00004
1.00009
1.00021
1.0005
1
1
1
1
1
1
1
1
1
1
1
1
1
1
1
1
1
1
1
1
1.00001
1.00002
1.00004
1.0001
1.00026
1
1
1
1
1
1
1
1
1
1
1
1
1
1
1
1
1
1
1
1
1
1.00001
1.00002
1.00005
1.00011
1
1
1
1
1
1
1
1
1
1
1
1
1
1
1
1
1
1
1
1
1
1
1.00001
1.00002
1.00006
1
1
1
1
1
1
1
1
1
1
1
1
1
1
1
1
1
1
1
1
1
1
1.00001
1.00001
1.00003
1
1
1
1
1
1
1
1
1
1
1
1
1
1
1
1
1
1
1
1
1
1
1
1.00001
1.00002
2.29205
2.12202
2.06843
2.09407
2.15355
2.21128
2.28381
2.31267
2.32928
2.32877
2.32906
2.3311
2.33669
2.34339
2.35013
2.35623
2.36023
2.3643
2.36695
2.36771
2.36778
2.36771
2.36735
2.3664
2.36469
2.36259
2.36018
2.35745
2.35432
2.35076
2.34689
2.34289
2.33898
2.33533
2.3321
2.32936
2.32714
2.32544
2.32419
2.32334
2.3229
2.32282
2.3229
2.32329
2.32416
2.32512
2.32589
2.32643
2.32678
2.32722
2.32817
2.33083
2.33515
2.34084
2.35131
2.36694
2.40133
2.46944
2.58286
2.74729
2.91644
3.06256
3.15799
3.20105
3.18313
3.17592
3.16377
3.14055
3.12857
3.12586
3.12161
3.11612
3.11002
3.1019
3.09179
3.07656
3.06151
3.04633
3.03639
3.02353
3.01901
3.01092
3.00786
3.00288
2.99852
2.99263
2.98607
2.97767
2.96864
2.96083
2.9507
2.94458
2.93395
2.92841
2.9189
2.9129
2.90518
2.90017
2.896
2.89996
2.28052
2.18351
2.12798
2.08503
2.04899
2.01285
2.00654
2.00906
2.02001
2.04153
2.05465
2.06723
2.06815
2.06995
2.07088
2.07202
2.07435
2.07668
2.0786
2.08034
2.08067
2.08051
2.08009
2.07924
2.07813
2.07681
2.07526
2.0735
2.07154
2.06943
2.06719
2.06484
2.06238
2.05977
2.05704
2.05417
2.05126
2.04822
2.04532
2.04225
2.03957
2.03667
2.03421
2.03153
2.0292
2.02693
2.02494
2.02306
2.02171
2.02074
2.02135
2.02364
2.02753
2.03512
2.04664
2.07222
2.125
2.20668
2.29584
2.36589
2.42167
2.47252
2.52692
2.5921
2.64753
2.68116
2.69374
2.68883
2.67453
2.65049
2.62267
2.60147
2.58627
2.57881
2.57527
2.57664
2.57841
2.57768
2.57426
2.56692
2.55665
2.54536
2.53476
2.52449
2.5165
2.50995
2.50613
2.50423
2.50328
2.50288
2.50221
2.50142
2.50065
2.4995
2.49872
2.49737
2.49647
2.4968
2.49835
2.50925
2.26538
2.17913
2.10301
2.02974
1.95754
1.9041
1.87091
1.86746
1.86998
1.88123
1.89501
1.91099
1.9174
1.92399
1.92484
1.92642
1.92699
1.92781
1.9288
1.92972
1.93052
1.93063
1.93053
1.93028
1.92972
1.92895
1.92802
1.92695
1.92573
1.92438
1.92291
1.92135
1.91963
1.91781
1.91574
1.91356
1.91107
1.9085
1.90568
1.90283
1.89983
1.89679
1.89369
1.89043
1.88726
1.88403
1.88088
1.87823
1.87565
1.87528
1.8762
1.87939
1.88532
1.89674
1.92287
1.9784
2.06089
2.13964
2.18407
2.18804
2.18784
2.18793
2.19866
2.22352
2.26178
2.312
2.37071
2.4109
2.44061
2.43257
2.42782
2.41725
2.39351
2.36778
2.34689
2.33192
2.32135
2.31391
2.31047
2.30911
2.30645
2.30133
2.29413
2.2857
2.27822
2.27028
2.26391
2.25756
2.25279
2.24867
2.2457
2.24328
2.24148
2.23987
2.23843
2.23734
2.23616
2.23635
2.23754
2.24713
2.23296
2.1547
2.07403
2.00107
1.93436
1.88268
1.83851
1.80981
1.78949
1.78645
1.78792
1.79246
1.80339
1.81108
1.81893
1.8216
1.8233
1.82439
1.8244
1.82445
1.82462
1.82496
1.82546
1.82558
1.8255
1.82526
1.82469
1.82371
1.82247
1.82102
1.81932
1.81735
1.81505
1.8124
1.80936
1.80593
1.80213
1.79799
1.79361
1.78904
1.78443
1.77972
1.7753
1.77057
1.76679
1.76228
1.75945
1.75618
1.75618
1.75703
1.76003
1.76625
1.7819
1.81541
1.8812
1.97009
2.04994
2.08648
2.07779
2.061
2.04437
2.02667
2.01746
2.01852
2.02817
2.05086
2.08575
2.12698
2.18365
2.23326
2.27324
2.30002
2.29094
2.28336
2.27061
2.24613
2.22075
2.19665
2.17936
2.16456
2.15639
2.15091
2.14746
2.14439
2.14041
2.13498
2.12882
2.12236
2.11605
2.10996
2.10422
2.09882
2.09421
2.08897
2.08571
2.08088
2.07853
2.07495
2.07479
2.08079
2.23401
2.14814
2.07152
2.00375
1.93783
1.88329
1.8323
1.79147
1.75786
1.73719
1.72636
1.7267
1.72814
1.73217
1.7399
1.74513
1.74991
1.75256
1.75346
1.75439
1.75429
1.75397
1.75358
1.75327
1.75295
1.7525
1.75183
1.75093
1.74977
1.74835
1.74657
1.74447
1.74196
1.73914
1.73599
1.73257
1.72899
1.72518
1.72133
1.71724
1.71329
1.70899
1.70512
1.70074
1.697
1.69316
1.68996
1.68946
1.69013
1.69262
1.69939
1.71758
1.75808
1.82983
1.92268
2.00192
2.03064
2.01869
2.00598
1.9851
1.96611
1.94423
1.93135
1.92061
1.91792
1.92098
1.9298
1.94995
1.97844
2.01316
2.06243
2.10848
2.16025
2.19442
2.21878
2.20791
2.19755
2.18293
2.15918
2.13277
2.1104
2.0912
2.0781
2.06792
2.06114
2.05644
2.05268
2.04921
2.04586
2.04135
2.03625
2.02963
2.02437
2.01728
2.0114
2.00504
1.99824
1.99387
1.98868
1.99229
2.23966
2.15472
2.07656
2.00925
1.94624
1.88992
1.83992
1.79774
1.76053
1.73174
1.70708
1.69286
1.68353
1.68361
1.68469
1.68737
1.6938
1.69685
1.70239
1.70304
1.70443
1.70436
1.70379
1.70247
1.70105
1.69972
1.69865
1.69754
1.69646
1.69505
1.69347
1.69153
1.68939
1.68696
1.68433
1.68149
1.6785
1.67532
1.67201
1.66853
1.66494
1.66135
1.65746
1.65409
1.65062
1.64761
1.64777
1.64879
1.65128
1.65998
1.68148
1.72901
1.81035
1.90648
1.97417
1.995
1.98331
1.96829
1.95468
1.93365
1.9158
1.89732
1.8829
1.86945
1.86152
1.85398
1.85345
1.85532
1.86055
1.87243
1.89354
1.9186
1.95563
1.99199
2.04378
2.08469
2.12271
2.14415
2.13279
2.1219
2.10896
2.0861
2.06265
2.04211
2.02474
2.01352
2.00357
1.99612
1.99152
1.9869
1.98355
1.97919
1.97394
1.968
1.96029
1.95407
1.94457
1.94007
1.93178
1.9337
2.24605
2.16992
2.0929
2.02346
1.96078
1.90476
1.8529
1.80831
1.76696
1.73323
1.70331
1.67962
1.66051
1.64969
1.64397
1.64417
1.64511
1.64699
1.65154
1.65335
1.65723
1.65738
1.65797
1.6578
1.65713
1.65564
1.6544
1.65282
1.65179
1.65023
1.64894
1.64722
1.64547
1.64349
1.64124
1.63888
1.63627
1.63353
1.63059
1.62749
1.62443
1.621
1.61794
1.61525
1.61268
1.61294
1.61455
1.61815
1.62931
1.6559
1.71129
1.80179
1.90504
1.95467
1.96912
1.9605
1.94604
1.92998
1.91419
1.89586
1.88006
1.86286
1.84915
1.8355
1.8244
1.81478
1.80724
1.80168
1.79757
1.79805
1.80027
1.8053
1.81612
1.83505
1.86089
1.88749
1.93327
1.97215
2.02116
2.05836
2.08363
2.07292
2.06467
2.05312
2.03317
2.01379
1.9916
1.97788
1.96209
1.95335
1.94345
1.93669
1.92962
1.92429
1.91714
1.91269
1.90481
1.90057
1.89216
1.8934
2.24338
2.17662
2.1079
2.04256
1.98019
1.92397
1.87145
1.82467
1.78195
1.74402
1.71043
1.68314
1.65943
1.64128
1.62593
1.61766
1.61206
1.6118
1.61237
1.61347
1.61636
1.6183
1.62164
1.62185
1.62249
1.62229
1.62147
1.61977
1.61758
1.6156
1.61382
1.6122
1.6106
1.60879
1.60683
1.60469
1.60245
1.60004
1.59745
1.59491
1.59216
1.58933
1.58728
1.58599
1.58638
1.588
1.59344
1.60756
1.64041
1.70652
1.80293
1.90787
1.94166
1.94999
1.94491
1.93087
1.91752
1.89943
1.88507
1.86854
1.85425
1.83961
1.82752
1.81513
1.80458
1.79382
1.78395
1.77499
1.76589
1.7594
1.75121
1.74774
1.74515
1.74611
1.74977
1.75877
1.77649
1.79575
1.83177
1.86106
1.91398
1.95655
2.00058
2.02927
2.01899
2.01308
2.0025
1.98629
1.96387
1.94758
1.92585
1.91536
1.89983
1.8923
1.88087
1.87513
1.86629
1.86299
1.85638
1.85756
2.23905
2.17984
2.11857
2.05888
2.00048
1.946
1.89458
1.84763
1.80386
1.7651
1.72875
1.69763
1.66878
1.64551
1.62502
1.60933
1.5966
1.58971
1.58498
1.58462
1.58502
1.58625
1.58741
1.58994
1.59038
1.59139
1.59142
1.59103
1.59
1.58829
1.58636
1.58443
1.58263
1.58098
1.57942
1.57784
1.5761
1.57428
1.57234
1.57039
1.56844
1.56677
1.56709
1.56828
1.57036
1.57753
1.5954
1.63509
1.71479
1.81527
1.91604
1.94266
1.94076
1.93543
1.9255
1.91005
1.8941
1.87727
1.86351
1.84836
1.83568
1.82182
1.81001
1.79745
1.78583
1.7739
1.76231
1.75043
1.73882
1.72736
1.71614
1.70762
1.69722
1.69253
1.68568
1.68501
1.68585
1.68983
1.69748
1.71365
1.73766
1.76005
1.80491
1.83954
1.89566
1.93619
1.96978
1.96406
1.95815
1.94851
1.9328
1.91657
1.89402
1.88045
1.8603
1.85262
1.83866
1.83378
1.82433
1.82535
2.23379
2.17958
2.12398
2.06887
2.0148
1.96305
1.91373
1.86786
1.82478
1.78545
1.74903
1.71614
1.68608
1.65957
1.63547
1.61556
1.59834
1.58527
1.57489
1.56905
1.56538
1.56488
1.56522
1.56619
1.56718
1.56895
1.56963
1.57066
1.57064
1.57021
1.56915
1.56762
1.56586
1.56418
1.56271
1.56113
1.55984
1.55842
1.55695
1.5558
1.55502
1.55557
1.55747
1.56071
1.56987
1.59179
1.63952
1.73018
1.83889
1.92184
1.94364
1.93783
1.92981
1.91847
1.90555
1.88872
1.87312
1.85693
1.84252
1.82793
1.81451
1.80089
1.78867
1.77565
1.76376
1.75105
1.7383
1.72616
1.71316
1.70166
1.68971
1.67836
1.66741
1.65823
1.64729
1.64226
1.63327
1.6301
1.62765
1.62835
1.63135
1.6382
1.65318
1.67024
1.70143
1.72592
1.7772
1.81654
1.86991
1.89887
1.90516
1.90096
1.88854
1.87855
1.86213
1.8476
1.82656
1.81757
1.80107
1.80181
2.22433
2.1782
2.12762
2.07683
2.02689
1.97854
1.93199
1.88792
1.84607
1.80716
1.77059
1.73716
1.70592
1.67792
1.65197
1.62952
1.60891
1.59213
1.57744
1.56654
1.5579
1.55288
1.54973
1.54874
1.54894
1.54966
1.55037
1.55167
1.55232
1.5535
1.55347
1.55305
1.55198
1.55072
1.54901
1.54755
1.54613
1.5447
1.54358
1.5437
1.54447
1.54664
1.55135
1.56285
1.58961
1.64626
1.74722
1.86461
1.92506
1.94449
1.93762
1.92551
1.91448
1.89931
1.88388
1.86651
1.8506
1.83474
1.82055
1.80611
1.79264
1.77916
1.7662
1.75333
1.74087
1.72811
1.71633
1.70399
1.692
1.68052
1.66777
1.65744
1.64514
1.63486
1.62397
1.61418
1.60358
1.5969
1.58699
1.58337
1.57661
1.57534
1.5755
1.57788
1.58323
1.59503
1.61352
1.63248
1.66923
1.69722
1.7546
1.79217
1.83476
1.84942
1.84227
1.83602
1.82562
1.81525
1.79989
1.7956
2.2197
2.17577
2.13043
2.08396
2.03739
1.99181
1.94755
1.90537
1.86499
1.82686
1.79085
1.75712
1.72561
1.69654
1.66962
1.64532
1.62313
1.60359
1.58616
1.57159
1.55915
1.54978
1.54248
1.53836
1.53566
1.53527
1.5356
1.53633
1.53747
1.5386
1.53964
1.54021
1.54001
1.53938
1.53806
1.53676
1.53535
1.53408
1.53445
1.53554
1.53764
1.54368
1.55722
1.58907
1.65556
1.76317
1.88377
1.92708
1.94113
1.93442
1.92352
1.90974
1.8936
1.87648
1.86043
1.84359
1.82818
1.81264
1.79796
1.78372
1.77006
1.75683
1.74396
1.73139
1.71897
1.70698
1.69465
1.68289
1.67099
1.65955
1.64802
1.6369
1.62477
1.61454
1.60202
1.5924
1.58084
1.57122
1.56077
1.55271
1.54264
1.53775
1.52929
1.52675
1.52228
1.52257
1.52392
1.5287
1.53631
1.55085
1.57311
1.59353
1.63523
1.6682
1.72809
1.75362
1.79441
1.78891
1.78415
1.78292
2.20628
2.16848
2.12952
2.08768
2.0449
2.00244
1.96068
1.92038
1.88162
1.84463
1.80939
1.77621
1.7448
1.71555
1.68815
1.66283
1.63942
1.61812
1.59872
1.58158
1.56639
1.55369
1.54296
1.53486
1.52875
1.52491
1.52274
1.52198
1.52213
1.52254
1.52355
1.5241
1.52501
1.5251
1.52489
1.52436
1.52386
1.52443
1.52573
1.52809
1.53532
1.55112
1.58803
1.66529
1.77804
1.89773
1.93157
1.93715
1.93135
1.92035
1.90598
1.88837
1.87083
1.85362
1.83733
1.82087
1.80548
1.79018
1.77601
1.76192
1.74835
1.73528
1.72233
1.71009
1.69764
1.68578
1.67385
1.66249
1.65066
1.63961
1.62757
1.61691
1.60501
1.59454
1.58258
1.57255
1.56025
1.55107
1.53921
1.53029
1.51971
1.51124
1.50149
1.49494
1.48563
1.48202
1.47482
1.47261
1.47079
1.47146
1.47394
1.47998
1.49232
1.50674
1.53259
1.55698
1.60163
1.63984
1.70399
1.70639
2.19526
2.16248
2.12628
2.08819
2.04935
2.00997
1.97084
1.93236
1.89514
1.85928
1.82494
1.79228
1.76131
1.73213
1.7047
1.6791
1.65514
1.63305
1.61251
1.59391
1.57692
1.56194
1.54879
1.53762
1.52838
1.52125
1.51579
1.51225
1.51012
1.50912
1.5092
1.5096
1.51031
1.51095
1.51185
1.51259
1.51378
1.5162
1.51943
1.52739
1.54591
1.58697
1.67437
1.79066
1.90614
1.9353
1.93345
1.92635
1.91539
1.90129
1.88366
1.86539
1.84766
1.83079
1.81466
1.79901
1.7838
1.76902
1.75442
1.74067
1.72705
1.71431
1.70139
1.6893
1.67687
1.66536
1.65326
1.64204
1.63031
1.61939
1.60784
1.59706
1.58514
1.57465
1.56255
1.5525
1.5406
1.53102
1.51918
1.51043
1.49872
1.49061
1.47967
1.47179
1.4619
1.45481
1.44548
1.44033
1.43187
1.42901
1.42324
1.42193
1.42131
1.42256
1.42674
1.43378
1.44967
1.46439
1.49932
1.51272
2.18077
2.14984
2.11826
2.08587
2.05024
2.01423
1.9781
1.94222
1.90695
1.87273
1.83959
1.80791
1.77751
1.74871
1.72118
1.69532
1.67079
1.64789
1.62647
1.60662
1.58831
1.57163
1.55648
1.54312
1.53132
1.52142
1.51318
1.50673
1.5019
1.49893
1.49679
1.49633
1.49667
1.49745
1.49868
1.50125
1.50337
1.50826
1.5188
1.54089
1.58833
1.6866
1.80418
1.90867
1.93764
1.93316
1.92278
1.91089
1.89592
1.87869
1.86058
1.8429
1.82558
1.80913
1.79327
1.77782
1.7627
1.748
1.73364
1.71995
1.70627
1.69353
1.68046
1.66852
1.65596
1.64454
1.63245
1.62147
1.60957
1.59878
1.58685
1.57623
1.56445
1.55405
1.54227
1.53223
1.52037
1.51083
1.49922
1.49011
1.47887
1.47033
1.45925
1.45139
1.44061
1.43322
1.42311
1.41615
1.40677
1.40087
1.39198
1.38783
1.38033
1.37803
1.3733
1.3731
1.37357
1.37634
1.38457
1.38659
2.17028
2.14184
2.11164
2.07939
2.04813
2.01477
1.98106
1.94765
1.91461
1.88229
1.85089
1.82037
1.79107
1.76281
1.73596
1.71013
1.6859
1.66261
1.6409
1.62031
1.60109
1.58326
1.56671
1.55165
1.53806
1.52585
1.51537
1.50656
1.49893
1.49362
1.48915
1.48641
1.48574
1.4863
1.48811
1.49055
1.49619
1.50843
1.53438
1.58689
1.69535
1.81819
1.90763
1.93612
1.93009
1.92096
1.90791
1.8918
1.87328
1.85543
1.83779
1.82113
1.80427
1.78824
1.77228
1.75717
1.74189
1.72741
1.7127
1.69902
1.68513
1.67242
1.65924
1.64728
1.63456
1.62316
1.61083
1.5998
1.58786
1.57712
1.56538
1.5549
1.54306
1.53285
1.52101
1.51119
1.49953
1.49026
1.47874
1.46998
1.45868
1.45031
1.43934
1.43136
1.42074
1.41324
1.40292
1.39591
1.38597
1.37938
1.36995
1.36393
1.35502
1.35001
1.34177
1.33822
1.33183
1.32986
1.32763
1.32715
2.15295
2.1267
2.10125
2.07393
2.04439
2.01377
1.98232
1.95106
1.91993
1.88943
1.85942
1.83034
1.80208
1.7747
1.7485
1.72314
1.69895
1.67594
1.65392
1.63314
1.61357
1.59504
1.57783
1.56174
1.5471
1.53333
1.52124
1.51062
1.50027
1.49346
1.48584
1.48123
1.4791
1.47959
1.48192
1.48716
1.49956
1.52789
1.58412
1.69773
1.82528
1.90677
1.93212
1.92582
1.91571
1.90362
1.88753
1.86928
1.84968
1.8316
1.81461
1.79856
1.78236
1.76655
1.75071
1.73538
1.72009
1.70551
1.69086
1.67716
1.66329
1.65046
1.63721
1.6251
1.61241
1.601
1.58878
1.5779
1.56594
1.55535
1.54361
1.53322
1.52172
1.51166
1.5003
1.49067
1.47938
1.47016
1.45897
1.4502
1.43919
1.43092
1.42012
1.4123
1.40176
1.39432
1.38408
1.37701
1.3671
1.36041
1.35084
1.34455
1.33537
1.32957
1.32082
1.31571
1.30745
1.3034
1.29652
1.29515
2.14046
2.11438
2.08894
2.06304
2.03632
2.00809
1.98043
1.95129
1.92226
1.89344
1.86549
1.83772
1.81093
1.78472
1.75916
1.73483
1.71098
1.68814
1.66651
1.64536
1.62555
1.60673
1.58886
1.57178
1.55654
1.54163
1.52766
1.51661
1.50397
1.49505
1.48719
1.47897
1.47886
1.48008
1.4842
1.49572
1.52419
1.58292
1.69846
1.82947
1.90641
1.92681
1.91891
1.91017
1.89578
1.87905
1.86099
1.84252
1.82403
1.80663
1.78993
1.77427
1.75848
1.74317
1.72755
1.71251
1.6973
1.68297
1.6684
1.65496
1.64106
1.62845
1.61527
1.60344
1.59078
1.57947
1.56723
1.55638
1.54461
1.53422
1.52275
1.51269
1.50139
1.49161
1.48042
1.47097
1.45988
1.45086
1.43993
1.43137
1.42061
1.41244
1.40185
1.39406
1.3837
1.37635
1.36625
1.35929
1.34946
1.34283
1.33329
1.327
1.31779
1.31185
1.303
1.29749
1.28898
1.28407
1.27635
1.27405
2.12281
2.10239
2.07717
2.05419
2.03036
2.00444
1.97727
1.95016
1.9226
1.89538
1.8683
1.8423
1.81654
1.79175
1.76738
1.74361
1.72076
1.69842
1.67684
1.65623
1.6363
1.61698
1.59918
1.58185
1.56488
1.55079
1.53521
1.52216
1.51109
1.49819
1.49085
1.4839
1.48467
1.48848
1.49945
1.5271
1.59103
1.69898
1.82881
1.90721
1.92397
1.91279
1.9017
1.88801
1.8682
1.84852
1.83012
1.81346
1.79712
1.78076
1.76447
1.74878
1.73346
1.71875
1.70387
1.6894
1.67468
1.66069
1.64641
1.63328
1.61972
1.60737
1.59435
1.5825
1.56997
1.55879
1.54677
1.53617
1.5245
1.51426
1.50287
1.49294
1.48176
1.47213
1.46111
1.45186
1.441
1.43215
1.4214
1.41294
1.4023
1.39424
1.38383
1.3762
1.36605
1.35881
1.34889
1.34201
1.33233
1.32581
1.31644
1.3103
1.30125
1.29547
1.28672
1.28131
1.27282
1.26789
1.26004
1.25763
2.1033
2.08755
2.06389
2.04027
2.01784
1.99576
1.97146
1.94668
1.92119
1.89537
1.86984
1.84472
1.82005
1.79618
1.77276
1.74988
1.72777
1.70597
1.68506
1.66501
1.64495
1.62684
1.60816
1.59084
1.57517
1.55784
1.54474
1.52989
1.51665
1.50706
1.49587
1.49635
1.4994
1.50933
1.53626
1.59993
1.71208
1.83604
1.90583
1.92367
1.91124
1.8932
1.87845
1.85913
1.83761
1.81775
1.80014
1.78507
1.76969
1.75445
1.73871
1.72379
1.70891
1.69488
1.68046
1.66663
1.65218
1.63871
1.62467
1.61202
1.59844
1.58648
1.57344
1.56208
1.54957
1.53863
1.52656
1.51607
1.50445
1.49443
1.48312
1.47343
1.46231
1.45291
1.44198
1.43291
1.42212
1.41342
1.40278
1.39451
1.38406
1.37622
1.36596
1.35848
1.34842
1.34131
1.3315
1.32477
1.31525
1.3089
1.29968
1.29369
1.28478
1.27913
1.27049
1.26519
1.25678
1.25194
1.24412
1.24175
2.08328
2.07568
2.05692
2.03278
2.00977
1.9873
1.96426
1.94064
1.91701
1.89296
1.86955
1.84564
1.82236
1.79928
1.777
1.75508
1.73374
1.71286
1.69281
1.67236
1.65414
1.63457
1.61707
1.60026
1.58195
1.56827
1.55108
1.53786
1.5255
1.513
1.51219
1.5144
1.52381
1.55036
1.61415
1.73504
1.85819
1.90994
1.92229
1.91473
1.89321
1.87022
1.85133
1.83274
1.81204
1.79251
1.77435
1.7585
1.74307
1.72876
1.71373
1.69935
1.68444
1.67054
1.65612
1.64272
1.62863
1.61573
1.60199
1.58975
1.5765
1.56497
1.55211
1.54102
1.52857
1.51801
1.50613
1.49604
1.48454
1.47476
1.46352
1.45404
1.44303
1.43387
1.42306
1.41424
1.40364
1.39519
1.38475
1.37668
1.36639
1.35868
1.34857
1.34125
1.33139
1.32447
1.31487
1.30833
1.29899
1.2928
1.28375
1.27791
1.26916
1.26365
1.25515
1.24998
1.24168
1.23695
1.22922
1.22691
2.04764
2.05188
2.04156
2.02245
1.99977
1.97982
1.95891
1.93695
1.9145
1.89163
1.86844
1.84614
1.82379
1.80173
1.78022
1.75928
1.7383
1.71885
1.69816
1.68017
1.66038
1.64234
1.62516
1.6061
1.59167
1.57342
1.55957
1.54543
1.53244
1.53018
1.53235
1.54207
1.56937
1.63677
1.7597
1.8886
1.92902
1.92591
1.91727
1.90384
1.87202
1.8469
1.82697
1.8095
1.79088
1.77194
1.75292
1.73552
1.71896
1.70407
1.68891
1.6747
1.65977
1.64585
1.63145
1.61835
1.60464
1.59238
1.57911
1.56754
1.55455
1.54351
1.53087
1.52039
1.50824
1.49814
1.48638
1.47656
1.46521
1.45575
1.44474
1.43558
1.42477
1.41586
1.40524
1.39663
1.3862
1.37791
1.36766
1.35975
1.34969
1.34217
1.33231
1.32519
1.31555
1.30879
1.29937
1.29295
1.28379
1.27772
1.26883
1.26309
1.25446
1.24901
1.24061
1.23547
1.22726
1.22255
1.21488
1.21257
2.01353
2.02818
2.02296
2.00785
1.98586
1.9644
1.94578
1.92761
1.90836
1.8882
1.86673
1.84502
1.82362
1.80241
1.78172
1.7607
1.74182
1.72124
1.70314
1.68378
1.66513
1.64837
1.62875
1.61409
1.59551
1.58112
1.56643
1.55308
1.55017
1.55255
1.563
1.59218
1.66591
1.78548
1.91984
1.95375
1.94238
1.92356
1.91021
1.88393
1.85198
1.82619
1.80557
1.78839
1.7707
1.7526
1.73372
1.716
1.69877
1.68319
1.66744
1.65283
1.63766
1.62366
1.60929
1.59625
1.58286
1.57081
1.55798
1.54661
1.53403
1.52329
1.51097
1.5007
1.48866
1.47883
1.46728
1.45786
1.44674
1.43755
1.4267
1.41772
1.40709
1.39838
1.38797
1.37957
1.36937
1.3613
1.35129
1.34356
1.33373
1.32637
1.31671
1.30972
1.30025
1.29363
1.28439
1.27813
1.26912
1.26319
1.25442
1.24879
1.24025
1.23491
1.2266
1.22156
1.21345
1.20886
1.20128
1.19906
1.94273
1.99076
2.00102
1.99485
1.97945
1.95809
1.93725
1.91755
1.89839
1.87931
1.86023
1.84079
1.82124
1.80165
1.78159
1.76249
1.74241
1.72386
1.70555
1.6863
1.66993
1.65038
1.6352
1.61708
1.60206
1.58754
1.57388
1.57136
1.5744
1.58601
1.61789
1.69912
1.81515
1.94798
1.97798
1.96531
1.93573
1.9155
1.89312
1.86459
1.83501
1.80943
1.78797
1.76976
1.75235
1.73475
1.71667
1.69914
1.68188
1.66573
1.64947
1.63432
1.61875
1.60443
1.5898
1.57655
1.56289
1.55067
1.53773
1.52633
1.51379
1.50301
1.49073
1.48055
1.4687
1.45909
1.44768
1.43845
1.42743
1.41851
1.40785
1.3992
1.3888
1.3804
1.3702
1.36209
1.35208
1.34429
1.33446
1.327
1.31735
1.31024
1.30076
1.294
1.28469
1.27828
1.26915
1.26306
1.25413
1.24836
1.23964
1.23416
1.22567
1.22047
1.21222
1.20733
1.19931
1.19485
1.18735
1.18522
1.81113
1.94796
1.97342
1.97597
1.96778
1.9514
1.93193
1.91282
1.89407
1.87546
1.85628
1.83695
1.8177
1.79867
1.78016
1.76205
1.74328
1.72572
1.70625
1.69003
1.67132
1.65526
1.63817
1.62218
1.60824
1.59454
1.59265
1.59672
1.60982
1.64458
1.73294
1.84942
1.97359
2.00095
1.98836
1.95751
1.92291
1.89889
1.87516
1.8492
1.8213
1.79552
1.77315
1.75404
1.73636
1.71884
1.70118
1.68335
1.66579
1.64904
1.63257
1.61702
1.60131
1.58658
1.57164
1.55786
1.54396
1.53134
1.51818
1.50647
1.49379
1.48285
1.47058
1.46041
1.44857
1.43911
1.42778
1.41893
1.40809
1.3996
1.38911
1.38085
1.37063
1.36262
1.35264
1.34493
1.33514
1.32772
1.3181
1.31098
1.3015
1.29469
1.28536
1.27885
1.26965
1.26343
1.25438
1.24845
1.23957
1.23393
1.22524
1.2199
1.21143
1.20638
1.19815
1.1934
1.18539
1.18104
1.17359
1.1715
1.58521
1.86022
1.93936
1.95507
1.95223
1.94121
1.92289
1.90293
1.88499
1.86785
1.85137
1.8339
1.81575
1.79691
1.77889
1.75997
1.7429
1.72511
1.70844
1.69091
1.67412
1.65833
1.64177
1.62856
1.61497
1.61363
1.61891
1.63416
1.6724
1.76728
1.88983
1.99335
2.02092
2.00885
1.98292
1.9392
1.90534
1.88107
1.8585
1.83497
1.80911
1.78407
1.76089
1.74056
1.722
1.70441
1.68674
1.66904
1.65114
1.63393
1.61685
1.60103
1.58512
1.5704
1.55527
1.54144
1.52716
1.51428
1.50084
1.48896
1.47612
1.46507
1.45273
1.44258
1.4308
1.42152
1.41027
1.40165
1.39082
1.38263
1.37218
1.36432
1.3542
1.34659
1.33673
1.32937
1.3197
1.31261
1.30312
1.2963
1.28698
1.28041
1.27122
1.26488
1.25581
1.24972
1.24077
1.23494
1.22615
1.22059
1.21198
1.20671
1.19832
1.19333
1.18517
1.18045
1.17251
1.16816
1.16075
1.15861
1.3319
1.67905
1.86799
1.91814
1.93182
1.92817
1.91634
1.89801
1.87845
1.86036
1.84347
1.82728
1.81166
1.79467
1.77736
1.75948
1.74238
1.72453
1.70844
1.69159
1.67647
1.6598
1.64733
1.63472
1.63437
1.64104
1.65944
1.70288
1.8018
1.9447
2.02037
2.03426
2.02263
2.00478
1.96424
1.92276
1.89005
1.86548
1.84331
1.82142
1.79743
1.77344
1.75028
1.72906
1.70968
1.69131
1.6734
1.65562
1.63769
1.62023
1.60284
1.58667
1.57065
1.556
1.54116
1.52739
1.51303
1.4999
1.4861
1.47386
1.46072
1.44943
1.43693
1.42664
1.41471
1.40529
1.39388
1.38521
1.37428
1.36621
1.35571
1.34803
1.33791
1.33053
1.32074
1.31363
1.30413
1.2973
1.28802
1.28142
1.27231
1.26591
1.25693
1.25074
1.24187
1.23591
1.22717
1.22147
1.21287
1.20746
1.19903
1.1939
1.18567
1.18082
1.17279
1.1682
1.16035
1.15614
1.1488
1.14677
1.16343
1.40087
1.72954
1.86963
1.90022
1.90787
1.90246
1.89018
1.8731
1.85524
1.83739
1.82047
1.80347
1.78855
1.77324
1.7577
1.74124
1.72474
1.70798
1.6923
1.67683
1.66372
1.65313
1.65357
1.66249
1.68484
1.73669
1.83763
2.00186
2.06083
2.05492
2.03338
2.01533
1.98503
1.94689
1.90988
1.87741
1.85154
1.82898
1.80795
1.78568
1.76321
1.74048
1.71904
1.69873
1.67964
1.66119
1.6432
1.62515
1.60778
1.59033
1.57408
1.55771
1.54277
1.52755
1.51371
1.49928
1.48607
1.47207
1.45957
1.4462
1.43471
1.42206
1.41155
1.39951
1.38994
1.37851
1.36976
1.35882
1.35069
1.34015
1.33247
1.32233
1.315