/*--------------------------------*- C++ -*----------------------------------*\
  =========                 |
  \\      /  F ield         | OpenFOAM: The Open Source CFD Toolbox
   \\    /   O peration     | Website:  https://openfoam.org
    \\  /    A nd           | Version:  9
     \\/     M anipulation  |
\*---------------------------------------------------------------------------*/
FoamFile
{
    format      ascii;
    class       volVectorField;
    location    "1.5";
    object      U;
}
// * * * * * * * * * * * * * * * * * * * * * * * * * * * * * * * * * * * * * //

dimensions      [0 1 -1 0 0 0 0];

internalField   nonuniform List<vector> 
5250
(
(3 1.52441e-09 0)
(2.99999 4.09335e-08 0)
(2.99998 8.081e-08 0)
(2.99995 3.96817e-07 0)
(2.99987 6.527e-07 0)
(2.99967 2.63816e-06 0)
(2.99918 3.73416e-06 0)
(2.99797 1.72257e-05 0)
(2.99499 2.06029e-05 0)
(2.98751 0.000101264 0)
(2.96853 0.00015058 0)
(2.91793 0.000538282 0)
(2.77512 0.00123952 0)
(2.34959 0.00363021 0)
(1.25915 0.0107692 0)
(0.497121 0.0220881 0)
(0.549081 0.027283 0)
(0.569211 0.0262939 0)
(0.528258 0.0274929 0)
(0.451318 0.03093 0)
(0.35882 0.0342053 0)
(0.277556 0.037504 0)
(0.202343 0.0401936 0)
(0.123047 0.0426188 0)
(0.0584968 0.046695 0)
(3 1.04709e-08 0)
(2.99999 1.01574e-07 0)
(2.99998 2.87854e-07 0)
(2.99995 9.87166e-07 0)
(2.99987 2.21823e-06 0)
(2.99967 6.61163e-06 0)
(2.9992 1.39297e-05 0)
(2.99799 4.24828e-05 0)
(2.99506 8.38203e-05 0)
(2.98762 0.000258333 0)
(2.96889 0.000544717 0)
(2.91885 0.00154116 0)
(2.77763 0.00392273 0)
(2.35749 0.0111575 0)
(1.27329 0.0332164 0)
(0.50795 0.066731 0)
(0.548896 0.0770944 0)
(0.565276 0.0720822 0)
(0.527643 0.0731511 0)
(0.451679 0.0795153 0)
(0.358676 0.085199 0)
(0.277265 0.090372 0)
(0.201619 0.0939265 0)
(0.121214 0.0960491 0)
(0.0559884 0.0988416 0)
(3 2.59342e-08 0)
(2.99999 1.54475e-07 0)
(2.99998 5.86935e-07 0)
(2.99995 1.489e-06 0)
(2.99987 4.40176e-06 0)
(2.99968 1.0111e-05 0)
(2.99921 2.69046e-05 0)
(2.99803 6.44665e-05 0)
(2.99517 0.000159928 0)
(2.98789 0.000401693 0)
(2.9696 0.000981222 0)
(2.92076 0.00253403 0)
(2.78306 0.00671905 0)
(2.3741 0.0189195 0)
(1.30517 0.0565204 0)
(0.532262 0.116625 0)
(0.54995 0.125215 0)
(0.561398 0.121938 0)
(0.530161 0.125193 0)
(0.456631 0.135163 0)
(0.363285 0.145876 0)
(0.281539 0.155008 0)
(0.20516 0.161605 0)
(0.123378 0.165742 0)
(0.0562579 0.169608 0)
(3 3.76162e-08 0)
(2.99999 2.22426e-07 0)
(2.99998 8.28234e-07 0)
(2.99995 2.16493e-06 0)
(2.99988 6.18597e-06 0)
(2.99969 1.45567e-05 0)
(2.99924 3.78786e-05 0)
(2.9981 9.12006e-05 0)
(2.99534 0.000227123 0)
(2.9883 0.000564952 0)
(2.97066 0.00139143 0)
(2.92366 0.00358208 0)
(2.79121 0.00948279 0)
(2.39925 0.0266562 0)
(1.35575 0.078901 0)
(0.567071 0.167619 0)
(0.551168 0.170742 0)
(0.56214 0.171497 0)
(0.5354 0.178115 0)
(0.46549 0.191027 0)
(0.372744 0.207016 0)
(0.290297 0.220382 0)
(0.212987 0.230689 0)
(0.128975 0.237795 0)
(0.0584726 0.243697 0)
(3 4.45184e-08 0)
(2.99999 2.92168e-07 0)
(2.99998 9.66716e-07 0)
(2.99995 2.87192e-06 0)
(2.99988 7.2086e-06 0)
(2.9997 1.87955e-05 0)
(2.99928 4.68351e-05 0)
(2.99819 0.00011459 0)
(2.99556 0.000293629 0)
(2.98887 0.00070188 0)
(2.97211 0.00180151 0)
(2.92752 0.00452274 0)
(2.80221 0.0120954 0)
(2.43241 0.0338516 0)
(1.42718 0.0991311 0)
(0.614592 0.21864 0)
(0.552013 0.218471 0)
(0.56492 0.21984 0)
(0.542838 0.230813 0)
(0.477381 0.24662 0)
(0.386448 0.267071 0)
(0.303415 0.285222 0)
(0.225174 0.300289 0)
(0.13831 0.311636 0)
(0.0629401 0.320583 0)
(3 6.51021e-08 0)
(2.99999 3.12623e-07 0)
(2.99998 1.30207e-06 0)
(2.99995 3.07564e-06 0)
(2.99989 9.61489e-06 0)
(2.99972 2.01714e-05 0)
(2.99932 6.21262e-05 0)
(2.9983 0.000123561 0)
(2.99583 0.000383513 0)
(2.98956 0.000776572 0)
(2.97385 0.00226437 0)
(2.9322 0.0052481 0)
(2.81572 0.0145406 0)
(2.47217 0.0401698 0)
(1.5166 0.117644 0)
(0.673433 0.271753 0)
(0.550638 0.267276 0)
(0.569245 0.267021 0)
(0.553836 0.282692 0)
(0.492617 0.301929 0)
(0.405052 0.326823 0)
(0.322423 0.350971 0)
(0.243241 0.372566 0)
(0.152415 0.390578 0)
(0.0699395 0.405297 0)
(3 6.9603e-08 0)
(2.99999 3.72073e-07 0)
(2.99998 1.49301e-06 0)
(2.99996 3.67783e-06 0)
(2.9999 1.09772e-05 0)
(2.99975 2.50813e-05 0)
(2.99936 6.79446e-05 0)
(2.99846 0.000158635 0)
(2.99611 0.00040753 0)
(2.99043 0.000993899 0)
(2.97583 0.00248324 0)
(2.93774 0.00629652 0)
(2.83136 0.0166093 0)
(2.51861 0.0464847 0)
(1.62775 0.135317 0)
(0.746216 0.328044 0)
(0.548019 0.316447 0)
(0.576122 0.313529 0)
(0.569678 0.333231 0)
(0.512823 0.356426 0)
(0.42997 0.386604 0)
(0.349001 0.418054 0)
(0.269367 0.448483 0)
(0.174259 0.477011 0)
(0.0818974 0.502979 0)
(3 6.25965e-08 0)
(2.99999 4.77491e-07 0)
(2.99999 1.45995e-06 0)
(2.99996 4.70067e-06 0)
(2.99991 1.09875e-05 0)
(2.99977 3.13126e-05 0)
(2.99943 6.95592e-05 0)
(2.99859 0.000193634 0)
(2.99653 0.000431212 0)
(2.99129 0.00117254 0)
(2.97826 0.00273763 0)
(2.944 0.00720905 0)
(2.84911 0.0186524 0)
(2.57167 0.0522837 0)
(1.76226 0.151736 0)
(0.835828 0.385871 0)
(0.547259 0.365931 0)
(0.588298 0.359408 0)
(0.592659 0.382309 0)
(0.540391 0.409469 0)
(0.463572 0.445853 0)
(0.385745 0.486609 0)
(0.307046 0.529035 0)
(0.208654 0.574302 0)
(0.10243 0.62295 0)
(3 7.6285e-08 0)
(3 4.81129e-07 0)
(2.99999 1.66993e-06 0)
(2.99997 4.74976e-06 0)
(2.99992 1.25324e-05 0)
(2.9998 3.17731e-05 0)
(2.9995 7.98847e-05 0)
(2.99876 0.000197705 0)
(2.99692 0.000494736 0)
(2.99235 0.00122098 0)
(2.98086 0.00306635 0)
(2.95098 0.00774271 0)
(2.869 0.0203516 0)
(2.62993 0.0566061 0)
(1.92166 0.164393 0)
(0.945452 0.4394 0)
(0.556008 0.416315 0)
(0.610308 0.406406 0)
(0.626018 0.429867 0)
(0.578603 0.461065 0)
(0.5093 0.503754 0)
(0.436504 0.555205 0)
(0.361906 0.612936 0)
(0.265857 0.685087 0)
(0.140885 0.780363 0)
(3 8.04123e-08 0)
(3 4.57813e-07 0)
(2.99999 1.71822e-06 0)
(2.99997 4.55021e-06 0)
(2.99993 1.28886e-05 0)
(2.99983 3.07581e-05 0)
(2.99957 8.24225e-05 0)
(2.99893 0.000194136 0)
(2.99738 0.000511173 0)
(2.99343 0.00121947 0)
(2.98369 0.00316886 0)
(2.95841 0.00782945 0)
(2.88991 0.0208868 0)
(2.69253 0.0575716 0)
(2.10128 0.168867 0)
(1.08422 0.477764 0)
(0.593335 0.466892 0)
(0.651203 0.459262 0)
(0.675432 0.477008 0)
(0.632336 0.511571 0)
(0.570525 0.559219 0)
(0.505065 0.621008 0)
(0.441901 0.700348 0)
(0.363831 0.818482 0)
(0.214005 1.03854 0)
(3 6.5215e-08 0)
(3 4.31069e-07 0)
(2.99999 1.44516e-06 0)
(2.99998 4.2613e-06 0)
(2.99994 1.09614e-05 0)
(2.99985 2.8496e-05 0)
(2.99964 7.0158e-05 0)
(2.99911 0.000178121 0)
(2.99778 0.000436593 0)
(2.99457 0.00110056 0)
(2.98637 0.00272525 0)
(2.96577 0.00692084 0)
(2.91057 0.0178866 0)
(2.75472 0.0489974 0)
(2.29604 0.142182 0)
(1.26558 0.425105 0)
(0.676331 0.495812 0)
(0.710354 0.516751 0)
(0.734104 0.523984 0)
(0.697911 0.559566 0)
(0.644664 0.610703 0)
(0.594454 0.681143 0)
(0.560951 0.779557 0)
(0.563046 0.928333 0)
(0.613932 1.18673 0)
(3 5.55464e-08 0)
(3 3.75281e-07 0)
(2.99999 1.24582e-06 0)
(2.99998 3.68446e-06 0)
(2.99995 9.33473e-06 0)
(2.99988 2.45832e-05 0)
(2.9997 5.89622e-05 0)
(2.99924 0.000152125 0)
(2.99815 0.000361897 0)
(2.99534 0.000923378 0)
(2.98855 0.00223563 0)
(2.97105 0.00564641 0)
(2.92502 0.0142988 0)
(2.79596 0.0381232 0)
(2.41697 0.107377 0)
(1.43605 0.322438 0)
(0.748821 0.537349 0)
(0.742626 0.575053 0)
(0.767829 0.578186 0)
(0.756809 0.608196 0)
(0.721159 0.659408 0)
(0.692996 0.732572 0)
(0.692486 0.835716 0)
(0.752731 0.979737 0)
(0.912784 1.17432 0)
(3 5.44471e-08 0)
(3 3.2836e-07 0)
(2.99999 1.17555e-06 0)
(2.99998 3.23441e-06 0)
(2.99996 8.72496e-06 0)
(2.9999 2.15317e-05 0)
(2.99974 5.53659e-05 0)
(2.99937 0.000132527 0)
(2.99842 0.000340308 0)
(2.99613 0.000809722 0)
(2.99031 0.00206714 0)
(2.97581 0.00504036 0)
(2.93758 0.012908 0)
(2.83132 0.0339662 0)
(2.52128 0.0947301 0)
(1.6536 0.278431 0)
(0.869699 0.595949 0)
(0.75957 0.622282 0)
(0.787057 0.628989 0)
(0.800559 0.651241 0)
(0.789083 0.70059 0)
(0.785677 0.770926 0)
(0.8128 0.865253 0)
(0.898225 0.983458 0)
(1.07681 1.10369 0)
(3 4.97927e-08 0)
(3 3.03082e-07 0)
(2.99999 1.08589e-06 0)
(2.99999 2.99747e-06 0)
(2.99997 8.09999e-06 0)
(2.99991 2.00911e-05 0)
(2.99979 5.12625e-05 0)
(2.99947 0.000124865 0)
(2.99871 0.00031378 0)
(2.99678 0.000769721 0)
(2.99207 0.00191643 0)
(2.98008 0.00476646 0)
(2.94909 0.0120632 0)
(2.86392 0.0316132 0)
(2.61625 0.0877838 0)
(1.8943 0.255497 0)
(1.02912 0.633839 0)
(0.783501 0.653741 0)
(0.807661 0.663958 0)
(0.837922 0.68116 0)
(0.850153 0.728088 0)
(0.866602 0.793842 0)
(0.91188 0.874029 0)
(1.00531 0.964217 0)
(1.17283 1.03954 0)
(3 4.23892e-08 0)
(3 2.86769e-07 0)
(3 9.40434e-07 0)
(2.99999 2.83078e-06 0)
(2.99997 7.11496e-06 0)
(2.99993 1.88021e-05 0)
(2.99983 4.58905e-05 0)
(2.99959 0.000116306 0)
(2.99896 0.000286938 0)
(2.99747 0.000711636 0)
(2.99364 0.00178664 0)
(2.98427 0.00442501 0)
(2.95993 0.0112511 0)
(2.89441 0.0293408 0)
(2.70653 0.0809648 0)
(2.14653 0.235745 0)
(1.2295 0.646824 0)
(0.840433 0.685784 0)
(0.846822 0.697977 0)
(0.881264 0.707655 0)
(0.909858 0.746062 0)
(0.938153 0.804262 0)
(0.991746 0.870943 0)
(1.08508 0.938976 0)
(1.23487 0.989924 0)
(3 3.69746e-08 0)
(3 2.32784e-07 0)
(3 8.20117e-07 0)
(2.99999 2.29624e-06 0)
(2.99998 6.12774e-06 0)
(2.99995 1.55038e-05 0)
(2.99987 3.8657e-05 0)
(2.99967 9.72877e-05 0)
(2.99921 0.000236451 0)
(2.99803 0.000601741 0)
(2.99517 0.0014544 0)
(2.98797 0.00370916 0)
(2.96988 0.00916141 0)
(2.92202 0.0238268 0)
(2.7889 0.0642171 0)
(2.39914 0.185305 0)
(1.48966 0.548575 0)
(0.953186 0.699375 0)
(0.910291 0.729301 0)
(0.932163 0.741403 0)
(0.969541 0.765103 0)
(1.00462 0.810977 0)
(1.05911 0.864736 0)
(1.14701 0.916157 0)
(1.27865 0.952334 0)
(3 3.0421e-08 0)
(3 1.88053e-07 0)
(3 6.639e-07 0)
(2.99999 1.84873e-06 0)
(2.99998 4.96061e-06 0)
(2.99996 1.23367e-05 0)
(2.9999 3.1239e-05 0)
(2.99975 7.63366e-05 0)
(2.99938 0.000189962 0)
(2.99848 0.000465563 0)
(2.99623 0.00115005 0)
(2.99069 0.00283907 0)
(2.97668 0.00703395 0)
(2.94026 0.017788 0)
(2.8397 0.0466678 0)
(2.54876 0.129784 0)
(1.75067 0.389805 0)
(1.07271 0.719467 0)
(0.959977 0.759341 0)
(0.973451 0.777873 0)
(1.01561 0.788441 0)
(1.06064 0.819546 0)
(1.11581 0.86045 0)
(1.19691 0.899 0)
(1.31196 0.924882 0)
(3 2.43469e-08 0)
(3 1.59846e-07 0)
(3 5.39947e-07 0)
(2.99999 1.57602e-06 0)
(2.99999 4.05207e-06 0)
(2.99997 1.0499e-05 0)
(2.99992 2.56802e-05 0)
(2.99981 6.49401e-05 0)
(2.99953 0.00015769 0)
(2.99883 0.000396043 0)
(2.99715 0.00096282 0)
(2.99287 0.00241755 0)
(2.98233 0.00593422 0)
(2.95491 0.015061 0)
(2.88067 0.039072 0)
(2.66725 0.107571 0)
(2.0412 0.315504 0)
(1.2519 0.750999 0)
(1.00723 0.795418 0)
(1.00912 0.810926 0)
(1.05115 0.812938 0)
(1.10601 0.827443 0)
(1.16333 0.85695 0)
(1.23823 0.88613 0)
(1.33892 0.904884 0)
(3 2.03986e-08 0)
(3 1.24679e-07 0)
(3 4.44288e-07 0)
(3 1.23008e-06 0)
(2.99999 3.31016e-06 0)
(2.99998 8.22452e-06 0)
(2.99994 2.09721e-05 0)
(2.99986 5.11098e-05 0)
(2.99965 0.000128554 0)
(2.99915 0.000313442 0)
(2.99791 0.000784802 0)
(2.99483 0.00192887 0)
(2.98722 0.00482361 0)
(2.96783 0.012072 0)
(2.91648 0.0312296 0)
(2.77287 0.0847149 0)
(2.3471 0.245739 0)
(1.51769 0.679837 0)
(1.10703 0.806343 0)
(1.06647 0.830964 0)
(1.09096 0.836902 0)
(1.14694 0.838927 0)
(1.20756 0.856769 0)
(1.27631 0.877621 0)
(1.36403 0.890938 0)
(3 1.44387e-08 0)
(3 9.88112e-08 0)
(3 3.21976e-07 0)
(3 9.70249e-07 0)
(2.99999 2.41351e-06 0)
(2.99998 6.4248e-06 0)
(2.99996 1.52951e-05 0)
(2.9999 3.94639e-05 0)
(2.99975 9.39082e-05 0)
(2.99938 0.000238534 0)
(2.99849 0.000574808 0)
(2.99623 0.00144061 0)
(2.99078 0.00353181 0)
(2.97689 0.00884345 0)
(2.94105 0.0223619 0)
(2.84291 0.0592481 0)
(2.55965 0.166659 0)
(1.81443 0.499007 0)
(1.23454 0.803325 0)
(1.12579 0.843437 0)
(1.13307 0.8602 0)
(1.18272 0.858054 0)
(1.24567 0.862493 0)
(1.31061 0.8742 0)
(1.38813 0.882282 0)
(3 1.20212e-08 0)
(3 7.24446e-08 0)
(3 2.5985e-07 0)
(3 7.12946e-07 0)
(3 1.94469e-06 0)
(2.99999 4.73907e-06 0)
(2.99997 1.23424e-05 0)
(2.99993 2.92162e-05 0)
(2.99982 7.54517e-05 0)
(2.99955 0.00017805 0)
(2.99892 0.000457416 0)
(2.9973 0.00108711 0)
(2.99339 0.0027726 0)
(2.98349 0.0067397 0)
(2.95832 0.0171368 0)
(2.89046 0.0443155 0)
(2.69774 0.121368 0)
(2.13378 0.359441 0)
(1.41917 0.810996 0)
(1.18392 0.871137 0)
(1.1738 0.88524 0)
(1.21144 0.881552 0)
(1.27503 0.873895 0)
(1.34035 0.875889 0)
(1.41109 0.8788 0)
(3 8.86755e-09 0)
(3 5.47238e-08 0)
(3 1.92644e-07 0)
(3 5.38621e-07 0)
(3 1.43561e-06 0)
(2.99999 3.57683e-06 0)
(2.99998 9.10736e-06 0)
(2.99995 2.1987e-05 0)
(2.99987 5.58822e-05 0)
(2.99969 0.000133252 0)
(2.99925 0.000339778 0)
(2.99816 0.000809984 0)
(2.99549 0.00206615 0)
(2.98886 0.00497858 0)
(2.97228 0.0126878 0)
(2.92907 0.0320964 0)
(2.81077 0.0866645 0)
(2.46449 0.249723 0)
(1.71174 0.68377 0)
(1.29717 0.864859 0)
(1.23456 0.894912 0)
(1.24956 0.901965 0)
(1.30368 0.890464 0)
(1.36838 0.883619 0)
(1.43431 0.880926 0)
(3 6.09471e-09 0)
(3 4.0872e-08 0)
(3 1.35426e-07 0)
(3 4.00901e-07 0)
(3 1.00794e-06 0)
(2.99999 2.64833e-06 0)
(2.99999 6.32743e-06 0)
(2.99996 1.62299e-05 0)
(2.99991 3.84456e-05 0)
(2.99979 9.75808e-05 0)
(2.99948 0.000232242 0)
(2.99874 0.000583444 0)
(2.99686 0.00140624 0)
(2.99234 0.00349482 0)
(2.98089 0.00856606 0)
(2.95172 0.021542 0)
(2.87308 0.0557477 0)
(2.64897 0.153375 0)
(2.03118 0.451759 0)
(1.44094 0.844481 0)
(1.29186 0.905399 0)
(1.28784 0.922065 0)
(1.32862 0.912493 0)
(1.39208 0.895765 0)
(1.45556 0.886959 0)
(3 4.59705e-09 0)
(3 2.80903e-08 0)
(3 1.00504e-07 0)
(3 2.75691e-07 0)
(3 7.45976e-07 0)
(3 1.83345e-06 0)
(2.99999 4.65356e-06 0)
(2.99998 1.13376e-05 0)
(2.99994 2.80091e-05 0)
(2.99986 6.90492e-05 0)
(2.99965 0.000167325 0)
(2.99914 0.000419553 0)
(2.99792 0.00100225 0)
(2.99483 0.00254449 0)
(2.9873 0.00610817 0)
(2.96812 0.015538 0)
(2.91782 0.0393205 0)
(2.77815 0.106231 0)
(2.36668 0.308529 0)
(1.68656 0.7635 0)
(1.38028 0.905055 0)
(1.33723 0.932192 0)
(1.35589 0.933177 0)
(1.41172 0.913394 0)
(1.476 0.897022 0)
(3 3.20391e-09 0)
(3 1.9584e-08 0)
(3 6.91035e-08 0)
(3 1.92117e-07 0)
(3 5.14798e-07 0)
(3 1.26648e-06 0)
(2.99999 3.249e-06 0)
(2.99998 7.72754e-06 0)
(2.99996 1.9739e-05 0)
(2.99991 4.65944e-05 0)
(2.99977 0.000118739 0)
(2.99943 0.000280914 0)
(2.99863 0.000712227 0)
(2.99659 0.00170515 0)
(2.99171 0.00428482 0)
(2.97935 0.0104925 0)
(2.94783 0.0266192 0)
(2.86312 0.0697149 0)
(2.61978 0.195597 0)
(2.00325 0.560259 0)
(1.51644 0.880378 0)
(1.39758 0.934703 0)
(1.39257 0.948835 0)
(1.43188 0.935621 0)
(1.49302 0.909818 0)
(3 2.10335e-09 0)
(3 1.37008e-08 0)
(3 4.60419e-08 0)
(3 1.34492e-07 0)
(3 3.43209e-07 0)
(3 8.85097e-07 0)
(3 2.17038e-06 0)
(2.99999 5.37772e-06 0)
(2.99997 1.32396e-05 0)
(2.99994 3.21537e-05 0)
(2.99985 8.02592e-05 0)
(2.99963 0.00019144 0)
(2.9991 0.000484706 0)
(2.9978 0.00114742 0)
(2.99462 0.00291913 0)
(2.98671 0.00698767 0)
(2.96681 0.0177546 0)
(2.91451 0.0449275 0)
(2.76947 0.121459 0)
(2.34835 0.354443 0)
(1.73608 0.798922 0)
(1.47687 0.928064 0)
(1.43806 0.954846 0)
(1.45396 0.954695 0)
(1.50573 0.929783 0)
(3 1.37387e-09 0)
(3 9.21907e-09 0)
(3 3.06726e-08 0)
(3 9.03727e-08 0)
(3 2.28519e-07 0)
(3 5.98069e-07 0)
(3 1.43195e-06 0)
(2.99999 3.66219e-06 0)
(2.99998 8.66521e-06 0)
(2.99996 2.19955e-05 0)
(2.9999 5.22446e-05 0)
(2.99977 0.000131331 0)
(2.99943 0.000315022 0)
(2.99862 0.000783166 0)
(2.99658 0.00190622 0)
(2.99169 0.00469957 0)
(2.97934 0.011631 0)
(2.94801 0.0292459 0)
(2.86418 0.0766581 0)
(2.6232 0.215653 0)
(2.04217 0.59486 0)
(1.60639 0.897649 0)
(1.49794 0.953697 0)
(1.48905 0.966975 0)
(1.52141 0.953643 0)
(3 9.49045e-10 0)
(3 5.85771e-09 0)
(3 2.08007e-08 0)
(3 5.73792e-08 0)
(3 1.54252e-07 0)
(3 3.80798e-07 0)
(3 9.60232e-07 0)
(3 2.3444e-06 0)
(2.99999 5.7563e-06 0)
(2.99998 1.41717e-05 0)
(2.99994 3.42231e-05 0)
(2.99985 8.543e-05 0)
(2.99965 0.000203258 0)
(2.99913 0.000512657 0)
(2.99788 0.00121359 0)
(2.9948 0.00307346 0)
(2.98723 0.00735224 0)
(2.96821 0.0186102 0)
(2.9186 0.0468976 0)
(2.78187 0.126356 0)
(2.38929 0.36465 0)
(1.8234 0.800467 0)
(1.57585 0.939231 0)
(1.53331 0.968222 0)
(1.54321 0.970572 0)
(3 6.22955e-10 0)
(3 3.77014e-09 0)
(3 1.34511e-08 0)
(3 3.69374e-08 0)
(3 9.97149e-08 0)
(3 2.43567e-07 0)
(3 6.24613e-07 0)
(3 1.48517e-06 0)
(2.99999 3.76875e-06 0)
(2.99998 8.91906e-06 0)
(2.99996 2.24751e-05 0)
(2.99991 5.35292e-05 0)
(2.99978 0.000133645 0)
(2.99946 0.000321124 0)
(2.99871 0.000794126 0)
(2.99681 0.00193469 0)
(2.99227 0.00474374 0)
(2.98082 0.0117539 0)
(2.95197 0.0293109 0)
(2.87526 0.0765348 0)
(2.6562 0.213248 0)
(2.12699 0.580913 0)
(1.70634 0.901214 0)
(1.59234 0.9648 0)
(1.57792 0.979262 0)
(3 3.80915e-10 0)
(3 2.43548e-09 0)
(3 8.29516e-09 0)
(3 2.38499e-08 0)
(3 6.16019e-08 0)
(3 1.56501e-07 0)
(3 3.87399e-07 0)
(3 9.47653e-07 0)
(3 2.34344e-06 0)
(2.99999 5.64174e-06 0)
(2.99998 1.40526e-05 0)
(2.99995 3.34891e-05 0)
(2.99987 8.37867e-05 0)
(2.99968 0.000199276 0)
(2.99923 0.000498464 0)
(2.9981 0.00118856 0)
(2.99541 0.00296693 0)
(2.98864 0.00717164 0)
(2.97205 0.0178976 0)
(2.92892 0.0451755 0)
(2.81178 0.120258 0)
(2.47542 0.344548 0)
(1.93923 0.771169 0)
(1.67587 0.938057 0)
(1.62367 0.973182 0)
(3 2.29195e-10 0)
(3 1.53086e-09 0)
(3 5.07145e-09 0)
(3 1.49678e-08 0)
(3 3.76605e-08 0)
(3 9.81535e-08 0)
(3 2.35062e-07 0)
(3 5.94325e-07 0)
(3 1.41731e-06 0)
(2.99999 3.52952e-06 0)
(2.99999 8.47702e-06 0)
(2.99997 2.08321e-05 0)
(2.99992 5.06668e-05 0)
(2.99981 0.00012279 0)
(2.99954 0.000302746 0)
(2.99886 0.000724163 0)
(2.99725 0.00180927 0)
(2.99324 0.00431688 0)
(2.98349 0.0108497 0)
(2.95866 0.026581 0)
(2.8937 0.0691088 0)
(2.71051 0.189203 0)
(2.24675 0.520134 0)
(1.81715 0.882562 0)
(1.68174 0.962723 0)
(3 1.43222e-10 0)
(3 9.26319e-10 0)
(3 3.17122e-09 0)
(3 9.06805e-09 0)
(3 2.34221e-08 0)
(3 5.98618e-08 0)
(3 1.44996e-07 0)
(3 3.6435e-07 0)
(3 8.66529e-07 0)
(3 2.17184e-06 0)
(2.99999 5.14794e-06 0)
(2.99998 1.28491e-05 0)
(2.99995 3.06011e-05 0)
(2.99989 7.57308e-05 0)
(2.99973 0.000182305 0)
(2.99935 0.000445606 0)
(2.9984 0.00108651 0)
(2.99617 0.00263542 0)
(2.99057 0.00650123 0)
(2.977 0.0158967 0)
(2.94224 0.0401943 0)
(2.85001 0.105283 0)
(2.58632 0.298502 0)
(2.07571 0.708436 0)
(1.77743 0.920951 0)
(3 8.99484e-11 0)
(3 5.4423e-10 0)
(3 1.94701e-09 0)
(3 5.31586e-09 0)
(3 1.4352e-08 0)
(3 3.49265e-08 0)
(3 8.89882e-08 0)
(3 2.11997e-07 0)
(3 5.2971e-07 0)
(3 1.26342e-06 0)
(3 3.11697e-06 0)
(2.99999 7.50532e-06 0)
(2.99997 1.82651e-05 0)
(2.99993 4.44537e-05 0)
(2.99984 0.000106901 0)
(2.99962 0.000263336 0)
(2.99908 0.000625094 0)
(2.99775 0.00155592 0)
(2.99453 0.00368453 0)
(2.98661 0.00920803 0)
(2.96685 0.0222629 0)
(2.91562 0.0569443 0)
(2.77469 0.151535 0)
(2.39433 0.419132 0)
(1.94555 0.820212 0)
(3 5.13241e-11 0)
(3 3.32714e-10 0)
(3 1.12181e-09 0)
(3 3.25019e-09 0)
(3 8.32465e-09 0)
(3 2.11881e-08 0)
(3 5.197e-08 0)
(3 1.27349e-07 0)
(3 3.12377e-07 0)
(3 7.5169e-07 0)
(3 1.85676e-06 0)
(2.99999 4.42586e-06 0)
(2.99998 1.09935e-05 0)
(2.99996 2.60822e-05 0)
(2.99991 6.48271e-05 0)
(2.99978 0.000154223 0)
(2.99948 0.000381651 0)
(2.99872 0.000912928 0)
(2.99694 0.00225205 0)
(2.99246 0.00544327 0)
(2.98168 0.0134579 0)
(2.95423 0.033353 0)
(2.88242 0.086443 0)
(2.67874 0.238522 0)
(2.22439 0.612773 0)
(3 2.94376e-11 0)
(3 1.93782e-10 0)
(3 6.52444e-10 0)
(3 1.89067e-09 0)
(3 4.82896e-09 0)
(3 1.24024e-08 0)
(3 2.99058e-08 0)
(3 7.49762e-08 0)
(3 1.78182e-07 0)
(3 4.44081e-07 0)
(3 1.05477e-06 0)
(3 2.60956e-06 0)
(2.99999 6.24046e-06 0)
(2.99998 1.52848e-05 0)
(2.99995 3.689e-05 0)
(2.99988 8.93365e-05 0)
(2.99971 0.000218255 0)
(2.99931 0.000521585 0)
(2.9983 0.00129015 0)
(2.99594 0.00306746 0)
(2.99003 0.00763736 0)
(2.97573 0.018453 0)
(2.93913 0.0467694 0)
(2.84133 0.122415 0)
(2.56629 0.343338 0)
(3 1.77561e-11 0)
(3 1.07635e-10 0)
(3 3.84175e-10 0)
(3 1.0506e-09 0)
(3 2.82734e-09 0)
(3 6.89622e-09 0)
(3 1.7459e-08 0)
(3 4.16634e-08 0)
(3 1.03462e-07 0)
(3 2.47057e-07 0)
(3 6.05874e-07 0)
(3 1.4586e-06 0)
(3 3.53227e-06 0)
(2.99999 8.59534e-06 0)
(2.99997 2.05453e-05 0)
(2.99993 5.05262e-05 0)
(2.99984 0.000119456 0)
(2.99961 0.000296063 0)
(2.99906 0.000696337 0)
(2.99774 0.00173043 0)
(2.99448 0.00408911 0)
(2.98663 0.0101731 0)
(2.96687 0.0246043 0)
(2.91633 0.0628154 0)
(2.77692 0.168172 0)
(3 9.83919e-12 0)
(3 6.20482e-11 0)
(3 2.13108e-10 0)
(3 6.05404e-10 0)
(3 1.5711e-09 0)
(3 3.9449e-09 0)
(3 9.75681e-09 0)
(3 2.36234e-08 0)
(3 5.83623e-08 0)
(3 1.38675e-07 0)
(3 3.44481e-07 0)
(3 8.1287e-07 0)
(3 2.0213e-06 0)
(2.99999 4.76883e-06 0)
(2.99999 1.18066e-05 0)
(2.99996 2.80336e-05 0)
(2.99991 6.87868e-05 0)
(2.99979 0.00016507 0)
(2.9995 0.00040013 0)
(2.99877 0.000972886 0)
(2.99706 0.00233729 0)
(2.99279 0.00575647 0)
(2.98257 0.0139008 0)
(2.9567 0.0348466 0)
(2.88958 0.0889488 0)
(3 5.2898e-12 0)
(3 3.48898e-11 0)
(3 1.17023e-10 0)
(3 3.39863e-10 0)
(3 8.63416e-10 0)
(3 2.22066e-09 0)
(3 5.3301e-09 0)
(3 1.33557e-08 0)
(3 3.16515e-08 0)
(3 7.85268e-08 0)
(3 1.8665e-07 0)
(3 4.58315e-07 0)
(3 1.09769e-06 0)
(3 2.66807e-06 0)
(2.99999 6.45158e-06 0)
(2.99998 1.54971e-05 0)
(2.99995 3.78905e-05 0)
(2.99989 8.99673e-05 0)
(2.99973 0.000221874 0)
(2.99935 0.0005235 0)
(2.99846 0.00129648 0)
(2.99625 0.00306269 0)
(2.99103 0.00759723 0)
(2.97804 0.018274 0)
(2.94582 0.0459548 0)
(3 2.95941e-12 0)
(3 1.87836e-11 0)
(3 6.50687e-11 0)
(3 1.82578e-10 0)
(3 4.78818e-10 0)
(3 1.19308e-09 0)
(3 2.93976e-09 0)
(3 7.19608e-09 0)
(3 1.72938e-08 0)
(3 4.2525e-08 0)
(3 1.00823e-07 0)
(3 2.49395e-07 0)
(3 5.87357e-07 0)
(3 1.45291e-06 0)
(3 3.42829e-06 0)
(2.99999 8.43212e-06 0)
(2.99998 1.99855e-05 0)
(2.99994 4.8768e-05 0)
(2.99986 0.000116476 0)
(2.99966 0.00028107 0)
(2.99918 0.000677723 0)
(2.99803 0.00161791 0)
(2.99523 0.00394364 0)
(2.98846 0.00940906 0)
(2.97171 0.0231901 0)
(3 1.63782e-12 0)
(3 9.99471e-12 0)
(3 3.53354e-11 0)
(3 9.7464e-11 0)
(3 2.5946e-10 0)
(3 6.35528e-10 0)
(3 1.59595e-09 0)
(3 3.81227e-09 0)
(3 9.41276e-09 0)
(3 2.24086e-08 0)
(3 5.48593e-08 0)
(3 1.31239e-07 0)
(3 3.18195e-07 0)
(3 7.67194e-07 0)
(3 1.84242e-06 0)
(2.99999 4.4813e-06 0)
(2.99999 1.0658e-05 0)
(2.99997 2.61202e-05 0)
(2.99993 6.17751e-05 0)
(2.99982 0.000151536 0)
(2.99957 0.000359123 0)
(2.99897 0.000878347 0)
(2.99752 0.00209031 0)
(2.99404 0.00511404 0)
(2.98547 0.0123141 0)
(3 8.33796e-13 0)
(3 5.44704e-12 0)
(3 1.83103e-11 0)
(3 5.30974e-11 0)
(3 1.35052e-10 0)
(3 3.4445e-10 0)
(3 8.33903e-10 0)
(3 2.05223e-09 0)
(3 4.93836e-09 0)
(3 1.19626e-08 0)
(3 2.89664e-08 0)
(3 6.93187e-08 0)
(3 1.69159e-07 0)
(3 4.01842e-07 0)
(3 9.85538e-07 0)
(3 2.33084e-06 0)
(2.99999 5.72234e-06 0)
(2.99998 1.35572e-05 0)
(2.99996 3.31769e-05 0)
(2.99991 7.88162e-05 0)
(2.99978 0.000192282 0)
(2.99948 0.000459077 0)
(2.99876 0.00111382 0)
(2.99697 0.00268225 0)
(2.99278 0.00649595 0)
(3 4.40773e-13 0)
(3 2.80786e-12 0)
(3 9.72165e-12 0)
(3 2.73514e-11 0)
(3 7.16625e-11 0)
(3 1.78286e-10 0)
(3 4.39354e-10 0)
(3 1.06968e-09 0)
(3 2.57592e-09 0)
(3 6.28145e-09 0)
(3 1.49423e-08 0)
(3 3.6638e-08 0)
(3 8.65856e-08 0)
(3 2.12715e-07 0)
(3 5.02487e-07 0)
(3 1.23239e-06 0)
(3 2.91607e-06 0)
(2.99999 7.12175e-06 0)
(2.99998 1.69547e-05 0)
(2.99996 4.105e-05 0)
(2.99989 9.84787e-05 0)
(2.99974 0.000236327 0)
(2.99938 0.000572082 0)
(2.99852 0.00136064 0)
(2.99642 0.00332056 0)
(3 2.46385e-13 0)
(3 1.44297e-12 0)
(3 5.13269e-12 0)
(3 1.41138e-11 0)
(3 3.72324e-11 0)
(3 9.18536e-11 0)
(3 2.28392e-10 0)
(3 5.46242e-10 0)
(3 1.34604e-09 0)
(3 3.18131e-09 0)
(3 7.82288e-09 0)
(3 1.84701e-08 0)
(3 4.52369e-08 0)
(3 1.07045e-07 0)
(3 2.60678e-07 0)
(3 6.21374e-07 0)
(3 1.49733e-06 0)
(3 3.59967e-06 0)
(2.99999 8.59162e-06 0)
(2.99998 2.08284e-05 0)
(2.99995 4.91845e-05 0)
(2.99987 0.000120152 0)
(2.99969 0.000281791 0)
(2.99926 0.000689393 0)
(2.99823 0.00161796 0)
(3 1.19042e-13 0)
(3 7.78109e-13 0)
(3 2.58833e-12 0)
(3 7.39465e-12 0)
(3 1.86544e-11 0)
(3 4.77848e-11 0)
(3 1.14116e-10 0)
(3 2.83496e-10 0)
(3 6.70958e-10 0)
(3 1.64621e-09 0)
(3 3.9011e-09 0)
(3 9.48279e-09 0)
(3 2.26373e-08 0)
(3 5.44168e-08 0)
(3 1.31098e-07 0)
(3 3.117e-07 0)
(3 7.57676e-07 0)
(3 1.78558e-06 0)
(3 4.36411e-06 0)
(2.99999 1.02448e-05 0)
(2.99997 2.50191e-05 0)
(2.99994 5.88846e-05 0)
(2.99985 0.000143051 0)
(2.99964 0.000338518 0)
(2.99914 0.000816525 0)
(3 4.23535e-14 0)
(3 3.39239e-13 0)
(3 1.23242e-12 0)
(3 3.53069e-12 0)
(3 9.46497e-12 0)
(3 2.33541e-11 0)
(3 5.83391e-11 0)
(3 1.40069e-10 0)
(3 3.40554e-10 0)
(3 8.18711e-10 0)
(3 1.95913e-09 0)
(3 4.75446e-09 0)
(3 1.12262e-08 0)
(3 2.74516e-08 0)
(3 6.45727e-08 0)
(3 1.57481e-07 0)
(3 3.71617e-07 0)
(3 9.02475e-07 0)
(3 2.13712e-06 0)
(2.99999 5.15709e-06 0)
(2.99999 1.23031e-05 0)
(2.99997 2.94108e-05 0)
(2.99993 7.08704e-05 0)
(2.99983 0.000167754 0)
(2.99958 0.000407328 0)
(3 2.53751e-14 0)
(3 1.80446e-13 0)
(3 6.13032e-13 0)
(3 1.78678e-12 0)
(3 4.7107e-12 0)
(3 1.15468e-11 0)
(3 2.88995e-11 0)
(3 6.89897e-11 0)
(3 1.69321e-10 0)
(3 4.00688e-10 0)
(3 9.7815e-10 0)
(3 2.31074e-09 0)
(3 5.61618e-09 0)
(3 1.32894e-08 0)
(3 3.21578e-08 0)
(3 7.64761e-08 0)
(3 1.83744e-07 0)
(3 4.39403e-07 0)
(3 1.04983e-06 0)
(3 2.52599e-06 0)
(2.99999 5.98974e-06 0)
(2.99999 1.45134e-05 0)
(2.99997 3.42457e-05 0)
(2.99992 8.3195e-05 0)
(2.9998 0.000196188 0)
(3 5.80466e-15 0)
(3 9.35474e-14 0)
(3 3.26431e-13 0)
(3 9.29345e-13 0)
(3 2.31411e-12 0)
(3 5.79371e-12 0)
(3 1.39259e-11 0)
(3 3.4092e-11 0)
(3 8.11336e-11 0)
(3 1.97003e-10 0)
(3 4.68679e-10 0)
(3 1.13057e-09 0)
(3 2.70022e-09 0)
(3 6.46278e-09 0)
(3 1.55181e-08 0)
(3 3.69345e-08 0)
(3 8.91039e-08 0)
(3 2.10844e-07 0)
(3 5.11006e-07 0)
(3 1.20538e-06 0)
(3 2.92336e-06 0)
(2.99999 6.89899e-06 0)
(2.99998 1.67026e-05 0)
(2.99996 3.95069e-05 0)
(2.99991 9.52734e-05 0)
(3 -6.74148e-17 0)
(3 1.81863e-14 0)
(3 1.1091e-13 0)
(3 3.67543e-13 0)
(3 1.06013e-12 0)
(3 2.67158e-12 0)
(3 6.62551e-12 0)
(3 1.60101e-11 0)
(3 3.87349e-11 0)
(3 9.25973e-11 0)
(3 2.22722e-10 0)
(3 5.33354e-10 0)
(3 1.27319e-09 0)
(3 3.06767e-09 0)
(3 7.2653e-09 0)
(3 1.76103e-08 0)
(3 4.14366e-08 0)
(3 1.00924e-07 0)
(3 2.36589e-07 0)
(3 5.76476e-07 0)
(3 1.35318e-06 0)
(3 3.28545e-06 0)
(2.99999 7.74149e-06 0)
(2.99998 1.86789e-05 0)
(2.99996 4.43266e-05 0)
(3 2.39469e-14 0)
(3 4.90223e-14 0)
(3 8.75384e-14 0)
(3 2.15404e-13 0)
(3 4.93137e-13 0)
(3 1.25737e-12 0)
(3 2.85687e-12 0)
(3 7.0594e-12 0)
(3 1.6722e-11 0)
(3 4.08352e-11 0)
(3 9.61987e-11 0)
(3 2.3452e-10 0)
(3 5.53606e-10 0)
(3 1.33662e-09 0)
(3 3.18413e-09 0)
(3 7.60329e-09 0)
(3 1.82954e-08 0)
(3 4.32031e-08 0)
(3 1.04891e-07 0)
(3 2.45588e-07 0)
(3 5.99749e-07 0)
(3 1.39729e-06 0)
(3 3.41436e-06 0)
(2.99999 7.96006e-06 0)
(2.99998 1.93667e-05 0)
(3 1.31037e-14 0)
(3 3.47927e-14 0)
(3 7.47691e-14 0)
(3 1.07382e-13 0)
(3 1.8891e-13 0)
(3 4.49949e-13 0)
(3 8.73916e-13 0)
(3 1.97637e-12 0)
(3 4.8905e-12 0)
(3 1.11578e-11 0)
(3 2.74038e-11 0)
(3 6.41105e-11 0)
(3 1.57252e-10 0)
(3 3.64917e-10 0)
(3 9.0258e-10 0)
(3 2.08036e-09 0)
(3 5.16022e-09 0)
(3 1.18674e-08 0)
(3 2.93662e-08 0)
(3 6.79447e-08 0)
(3 1.66278e-07 0)
(3 3.88864e-07 0)
(3 9.37832e-07 0)
(2.99999 2.22772e-06 0)
(2.99999 5.26856e-06 0)
(1.29589 1.08815 0)
(1.71108 0.883849 0)
(1.90027 0.618155 0)
(1.93565 0.352692 0)
(1.89522 0.13461 0)
(1.8167 -0.00958074 0)
(1.73385 -0.0475679 0)
(1.69216 -0.0218981 0)
(1.68789 0.016655 0)
(1.694 0.0403848 0)
(1.70306 0.0434795 0)
(1.7103 0.0340702 0)
(1.71215 0.0235726 0)
(1.71307 0.014679 0)
(1.71389 0.00986291 0)
(1.71563 0.00924529 0)
(1.71855 0.0102882 0)
(1.72209 0.0117805 0)
(1.72714 0.0127618 0)
(1.73382 0.0123393 0)
(1.74108 0.0107132 0)
(1.74838 0.00872803 0)
(1.75595 0.00699795 0)
(1.76405 0.00573145 0)
(1.77276 0.00483317 0)
(1.78207 0.00414398 0)
(1.79194 0.00353737 0)
(1.80231 0.00295941 0)
(1.8131 0.00240598 0)
(1.82427 0.00189139 0)
(1.83577 0.00142855 0)
(1.84756 0.00102215 0)
(1.85961 0.000669743 0)
(1.87188 0.000365357 0)
(1.88433 0.000102367 0)
(1.89694 -0.000125173 0)
(1.90966 -0.000322747 0)
(1.92247 -0.000494195 0)
(1.93535 -0.000644552 0)
(1.94827 -0.000782106 0)
(1.9612 -0.000901296 0)
(1.97416 -0.00100377 0)
(1.98714 -0.00111474 0)
(2.00006 -0.00123168 0)
(2.01293 -0.00132467 0)
(2.02578 -0.00140475 0)
(2.0386 -0.00148566 0)
(2.05137 -0.00158434 0)
(2.06405 -0.00170465 0)
(2.07651 -0.00201734 0)
(2.08847 -0.0025079 0)
(2.09878 -0.00426047 0)
(2.10737 -0.00620395 0)
(2.11462 -0.00920589 0)
(2.11833 -0.0149671 0)
(2.11413 -0.0267413 0)
(2.09386 -0.0511532 0)
(2.04311 -0.10181 0)
(1.94319 -0.185314 0)
(1.80653 -0.259955 0)
(1.67329 -0.27618 0)
(1.57654 -0.222176 0)
(1.5312 -0.127048 0)
(1.53836 -0.035265 0)
(1.57145 0.0133479 0)
(1.60645 0.0265197 0)
(1.64804 0.0133207 0)
(1.68945 -0.0108934 0)
(1.72187 -0.0376988 0)
(1.75014 -0.0553177 0)
(1.77783 -0.055889 0)
(1.80501 -0.0456278 0)
(1.83246 -0.0291076 0)
(1.86088 -0.0111775 0)
(1.89072 0.00437849 0)
(1.92268 0.013865 0)
(1.95438 0.0152709 0)
(1.98428 0.0109348 0)
(2.01263 0.00245887 0)
(2.03918 -0.00697876 0)
(2.06401 -0.0150512 0)
(2.08753 -0.0203809 0)
(2.11014 -0.0225832 0)
(2.13225 -0.0217077 0)
(2.1542 -0.0184881 0)
(2.17622 -0.0139349 0)
(2.19847 -0.00914537 0)
(2.22072 -0.00502418 0)
(2.24269 -0.00202212 0)
(2.26411 -0.000188019 0)
(2.2849 0.000762749 0)
(2.30509 0.00108847 0)
(2.32473 0.000982719 0)
(2.3438 0.000589511 0)
(2.3623 7.47276e-05 0)
(2.38016 -0.000427113 0)
(2.39725 -0.000872441 0)
(2.41284 -0.00101277 0)
(2.42597 -0.00121894 0)
(2.43545 -0.000311568 0)
(1.38782 0.994755 0)
(1.7051 0.710085 0)
(1.8835 0.397409 0)
(1.97393 0.129363 0)
(2.03061 -0.0618241 0)
(2.06867 -0.163865 0)
(2.08496 -0.174432 0)
(2.08758 -0.13573 0)
(2.08073 -0.0882266 0)
(2.06544 -0.0490743 0)
(2.052 -0.0245552 0)
(2.04957 -0.0170178 0)
(2.0524 -0.0182502 0)
(2.05688 -0.0217881 0)
(2.06242 -0.0244149 0)
(2.06732 -0.0254731 0)
(2.07101 -0.0250254 0)
(2.07402 -0.0230468 0)
(2.07708 -0.0206581 0)
(2.08079 -0.0190067 0)
(2.08528 -0.0183549 0)
(2.09036 -0.0182316 0)
(2.09585 -0.0182434 0)
(2.10157 -0.0181954 0)
(2.10741 -0.0180494 0)
(2.11338 -0.0178307 0)
(2.11952 -0.0175759 0)
(2.12589 -0.0173028 0)
(2.13251 -0.0170214 0)
(2.13938 -0.0167378 0)
(2.14649 -0.0164571 0)
(2.15383 -0.0161834 0)
(2.16139 -0.0159184 0)
(2.16918 -0.0156615 0)
(2.17716 -0.0154107 0)