/*--------------------------------*- C++ -*----------------------------------*\
  =========                 |
  \\      /  F ield         | OpenFOAM: The Open Source CFD Toolbox
   \\    /   O peration     | Website:  https://openfoam.org
    \\  /    A nd           | Version:  9
     \\/     M anipulation  |
\*---------------------------------------------------------------------------*/
FoamFile
{
    format      ascii;
    class       volScalarField;
    location    "0.9";
    object      p_rgh;
}
// * * * * * * * * * * * * * * * * * * * * * * * * * * * * * * * * * * * * * //

dimensions      [1 -1 -2 0 0 0 0];

internalField   nonuniform List<scalar> 
10000
(
0
0.0074923454
0.02168328
0.04115577
0.065705511
0.098859152
0.13502374
0.17678833
0.22378202
0.27575606
0.33245433
0.39350472
0.45864829
0.52749945
0.59965769
0.67482202
0.7525629
0.83247131
0.91422342
0.99737152
1.0814304
1.1660177
1.2507062
1.3351364
1.4190941
1.5024943
1.5853254
1.6677623
1.750236
1.8334161
1.9182976
2.006331
2.0994549
2.2001225
2.3114072
2.4370835
2.5815978
2.7500173
2.9480181
3.1816712
3.4571443
3.7814825
4.1629376
4.6063607
5.1146249
5.7116547
6.4666751
7.4539228
8.5066954
9.3519093
9.8071006
9.8740637
9.6215383
9.0544011
8.1487875
7.4966326
6.932538
6.6993048
6.7019857
6.8874613
7.0998468
7.4081894
7.6121334
7.7681433
7.849918
7.889483
7.8969926
7.8651468
7.7970653
7.6994726
7.5786717
7.4409588
7.2919281
7.1360184
6.9766791
6.8165803
6.6577614
6.5017535
6.3497493
6.202702
6.0613813
5.9264252
5.7983576
5.677607
5.5645161
5.4593755
5.3622801
5.2732643
5.1923359
5.1194384
5.0542865
4.9965411
4.9458751
4.9019812
4.8639042
4.833072
4.8089291
4.7909477
4.7783319
4.7747191
-0.0065355629
0.0010985543
0.015496481
0.0352053
0.060436854
0.092524424
0.12933164
0.17145521
0.2187571
0.27105813
0.32800482
0.38937748
0.45481798
0.52391961
0.59640785
0.67186333
0.74983605
0.8299673
0.91178964
0.99480091
1.0785951
1.1627175
1.2466926
1.3301464
1.4128076
1.4944512
1.5749808
1.6545095
1.7333388
1.8120062
1.8914421
1.9730394
2.0586578
2.1507097
2.2522821
2.3671691
2.4998298
2.6553518
2.839429
3.0580233
3.3166358
3.6214799
3.9817179
4.3986932
4.8559534
5.3753096
6.065471
7.1100971
8.2864314
9.097131
9.4976246
9.510335
9.2884104
8.9731496
8.5009714
7.4912411
6.3762946
6.234455
6.3150929
6.5605638
7.2121061
7.2899076
7.4866558
7.6381282
7.6973023
7.7510367
7.7651102
7.7352809
7.6723589
7.582535
7.4709646
7.3433483
7.2045606
7.0584496
6.9080851
6.7559569
6.6041163
6.4541989
6.3075257
6.1651863
6.0280625
5.8968519
5.7721331
5.6543596
5.5438064
5.4408627
5.3456122
5.2581456
5.1784457
5.1063686
5.0417441
4.9843233
4.933938
4.8904501
4.8538627
4.8237786
4.8002065
4.7826891
4.7704683
4.7671932
-0.019250774
-0.011470413
0.0031218414
0.023114219
0.048733376
0.080770776
0.11803814
0.16068681
0.20860012
0.26146678
0.31909352
0.3811696
0.44728661
0.51716374
0.59040871
0.66655272
0.74523539
0.82601819
0.90838423
0.99187538
1.0760369
1.160329
1.2442605
1.3274113
1.4093566
1.4897534
1.5684182
1.6453021
1.7205054
1.7944117
1.8677993
1.9418602
2.0182712
2.0993468
2.1881311
2.2884152
2.4047536
2.5424279
2.7073568
2.9056844
3.1422671
3.421635
3.7546414
4.1406638
4.5231973
4.8980656
5.6087214
7.4581375
8.6711835
9.4965134
9.9642844
9.8992517
9.6112754
9.0038007
8.0408482
6.8137845
6.0517794
5.695793
5.768511
6.1113063
6.4144906
7.0244545
7.3020462
7.4920437
7.5788941
7.6711112
7.6829766
7.6447111
7.5759956
7.4850586
7.3757687
7.2529212
7.1205634
6.9816271
6.8384787
6.6931584
6.5474938
6.4030631
6.2612168
6.1230967
5.9896384
5.8616027
5.7396956
5.6243669
5.5160555
5.4150007
5.3213628
5.2352441
5.1566527
5.0855086
5.0217184
4.9650915
4.9154407
4.8724926
4.8365367
4.8071531
4.784188
4.7671481
4.7553313
4.7525217
-0.038032543
-0.030174206
-0.015346618
0.0049475129
0.031046885
0.063378927
0.10121127
0.14456875
0.19319692
0.24691143
0.30545982
0.36846465
0.43564082
0.50662162
0.58094847
0.65824276
0.73809139
0.81997355
0.90339575
0.98787842
1.0728496
1.1577368
1.2420233
1.3251525
1.4065485
1.4857496
1.5623971
1.6361987
1.7070284
1.7750482
1.8407572
1.9050537
1.9693849
2.0358994
2.1075288
2.1880629
2.2822424
2.3956973
2.5347721
2.7060853
2.9141611
3.1612275
3.4575973
3.7961532
4.0640471
4.215776
5.2570255
6.6370917
7.0485258
8.0694926
8.6333176
8.9548329
8.98272
9.1040913
7.6011717
6.1972214
5.0360506
4.4111286
4.4335502
5.0506616
5.9538117
6.016783
6.7386332
7.1896414
7.392059
7.5832786
7.6212291
7.5705663
7.4911902
7.3978177
7.2894967
7.1693355
7.0409861
6.906788
6.7685704
6.6280524
6.4868831
6.3465714
6.2084684
6.0737421
5.9433593
5.8180033
5.6986395
5.5857276
5.4795603
5.3804159
5.2884928
5.2039158
5.1267298
5.0568716
4.9942694
4.9387488
4.8901795
4.8484329
4.8132897
4.7846686
4.7624046
4.7459442
4.7346311
4.7324032
-0.062815992
-0.054863818
-0.039813871
-0.019090994
0.0075327311
0.04042455
0.079042117
0.12324873
0.17288956
0.22774095
0.2874652
0.3517799
0.42036463
0.4927719
0.56862106
0.64752078
0.72895779
0.8124221
0.89742107
0.98336548
1.0696285
1.1556228
1.2407157
1.3241944
1.4053569
1.4835651
1.5581984
1.6286867
1.6946243
1.7558289
1.8123966
1.8648527
1.9143257
1.9626788
2.012655
2.0680735
2.133987
2.2166241
2.3231786
2.4613449
2.6365311
2.849603
3.1059905
3.39292
3.5901419
3.6807179
4.4780584
4.9759508
6.3645736
7.3610792
8.0951881
8.57137
8.2048545
7.303988
5.7526693
3.7749726
2.801046
2.4154384
4.4296901
3.795639
4.46815
5.2693657
5.7037968
6.6521494
7.0240739
7.3682506
7.475186
7.4386827
7.3648888
7.2801416
7.1808244
7.0684305
6.9469798
6.8191004
6.686611
6.5512888
6.414847
6.2788537
6.1447191
6.0136934
5.8868536
5.7640837
5.6478111
5.5375733
5.4338423
5.3369309
5.2470551
5.1643399
5.088842
5.0205152
4.9593147
4.9051123
4.8578162
4.8172245
4.7831664
4.7555309
4.7341357
4.7184109
4.7077356
4.706243
-0.093843475
-0.085805454
-0.070422245
-0.049239746
-0.021978418
0.011698307
0.051216996
0.096522999
0.1474416
0.20365685
0.26490366
0.33086826
0.40118212
0.47544598
0.55329032
0.6342301
0.71775139
0.80335226
0.89045209
0.97840553
1.0665767
1.1542874
1.2407558
1.3251513
1.406629
1.4842983
1.5572351
1.6245586
1.6854766
1.73933
1.7857125
1.8246663
1.8568422
1.8836605
1.9075801
1.9324362
1.9636991
2.0085454
2.0757509
2.1752803
2.3156504
2.49988
2.7310962
2.9997807
3.2099743
3.3398258
3.7169815
4.4084672
5.6315969
6.3594246
6.8108356
7.3567948
9.698957
8.5547053
6.5906809
4.6856591
3.4701815
2.8718538
2.8622603
3.9445494
5.370182
3.2468971
4.6219954
5.8157858
6.7618944
7.0556617
7.2388296
7.2353783
7.1851955
7.1232062
7.0435174
6.9458106
6.8355165
6.7166105
6.5914933
6.4624228
6.3314221
6.2002776
6.0705281
5.9435097
5.8201067
5.7012362
5.5879113
5.4805019
5.3793962
5.2849049
5.1972531
5.1165771
5.0429433
4.9763458
4.9167454
4.8640498
4.8182061
4.7789866
4.7462106
4.7197517
4.6993951
4.6845538
4.6746954
4.6741302
-0.13132807
-0.12311707
-0.10738813
-0.085672994
-0.057602308
-0.023046966
0.0175988
0.064250921
0.11663291
0.17451821
0.23765349
0.30550129
0.37796279
0.45454879
0.53481739
0.61827122
0.70442354
0.79270513
0.88247091
0.97308021
1.0638437
1.1539483
1.2425004
1.3285662
1.4111077
1.4889416
1.5608292
1.6254986
1.6816483
1.7280331
1.7636304
1.7878235
1.8005625
1.8026203
1.795998
1.7844037
1.77373
1.7724599
1.7918849
1.8459474
1.9488746
2.1094655
2.333386
2.6208171
2.9093506
3.1252009
3.54198
4.0617951
4.8365697
5.3103341
5.5595981
7.451817
8.5620922
6.4317443
3.2105584
0.87553198
-0.59320483
-1.2062797
-0.81040942
0.75958277
3.2855642
1.5656164
3.3504464
4.9279783
6.2532186
6.6028229
6.8990962
6.9645788
6.9604645
6.9347998
6.883931
6.8066699
6.7109857
6.6030185
6.486363
6.3641346
6.2388546
6.1127065
5.9873569
5.8643137
5.7446382
5.6292952
5.5191128
5.4146214
5.3162293
5.2242683
5.1389773
5.0605163
4.9889467
4.9242878
4.8664852
4.8154498
4.7713123
4.7336716
4.702368
4.6772585
4.6581499
4.6443766
4.6355254
4.6360945
-0.17540015
-0.16705031
-0.15090727
-0.12852059
-0.099605236
-0.063972015
-0.021978806
0.026176769
0.080298901
0.14015674
0.20539183
0.27564079
0.35064364
0.42995
0.51308811
0.59958657
0.68890925
0.78044099
0.87353241
0.96751319
1.0615956
1.1548853
1.2464152
1.3350974
1.4196734
1.4986999
1.5705726
1.6335284
1.6856529
1.7250158
1.749804
1.7585077
1.7501122
1.724458
1.6827575
1.6282315
1.5669601
1.5088824
1.4686212
1.4659481
1.5238813
1.6607963
1.8884185
2.2180255
2.608447
2.9413334
3.2100388
3.6051691
4.0662403
4.3541699
4.3099003
3.9114342
2.8884935
1.3399932
-0.37570212
-2.478185
-4.6491205
-5.8998079
-5.8028191
-4.740462
-3.3977131
-0.93653476
1.231755
3.5804577
5.1220678
6.0443676
6.4890018
6.6515151
6.7086031
6.7280449
6.7107442
6.6566274
6.5771844
6.4809366
6.3730233
6.2576222
6.1379314
6.0164991
5.8954451
5.7762655
5.6602081
5.5482777
5.4412608
5.3397438
5.2441667
5.1548747
5.072112
4.9960506
4.9267563
4.8642505
4.808454
4.7590722
4.7170696
4.6812272
4.6515871
4.6280365
4.6103724
4.5978527
4.5902128
4.5921748
-0.2263489
-0.21783241
-0.20116978
-0.17809614
-0.14816905
-0.11126577
-0.067802573
-0.017896842
0.038256415
0.10033836
0.16803577
0.24105239
0.31901348
0.40147063
0.48798524
0.5780522
0.67108288
0.76651379
0.86365418
0.96174096
1.0599433
1.157343
1.2529008
1.3453398
1.433199
1.5147925
1.5881264
1.6508264
1.7003086
1.7338181
1.7485086
1.7417296
1.7112001
1.6554177
1.5742599
1.4698034
1.347614
1.2186233
1.1011325
1.0224367
1.017634
1.1210941
1.3594335
1.7461462
2.2196526
2.6174633
2.7888576
3.0317497
3.3625407
3.5420597
3.5365866
3.2159715
2.9233138
1.3072822
-2.0477127
-5.5605403
-8.4320772
-10.045922
-9.9682991
-8.2384771
-5.5661163
-3.6027923
1.4890148
1.6952886
4.1485684
5.432018
6.0734772
6.334029
6.4553561
6.5199868
6.534392
6.5018648
6.4376461
6.3523122
6.2523962
6.1431476
6.0286379
5.9117147
5.7946454
5.6791877
5.5666667
5.4581039
5.3542855
5.2558177
5.1631637
5.0766693
4.9965893
4.9230909
4.8562578
4.7961392
4.7427705
4.6963209
4.6555986
4.6215457
4.5937224
4.5719568
4.5559816
4.5449323
4.5386824
4.5423365
-0.28442539
-0.2756902
-0.25852155
-0.23460387
-0.20352579
-0.16525695
-0.12010506
-0.06818913
-0.009787995
0.054826337
0.12538029
0.20151694
0.28282877
0.36891667
0.45932029
0.55347664
0.65078298
0.75081222
0.85275724
0.95570778
1.0589235
1.1614675
1.2622101
1.3597551
1.452441
1.5383506
1.615075
1.6796212
1.7285984
1.7583062
1.7645017
1.7432265
1.6905663
1.6031019
1.4785976
1.3168744
1.1216226
0.90332617
0.68329956
0.49719902
0.39578341
0.44077895
0.69448112
1.1740256
1.7618645
2.2907742
2.4588116
2.623153
2.9445057
3.1830068
3.1960532
3.3281237
1.256774
-0.73512449
-3.7591128
-7.7015333
-10.89751
-12.631548
-12.520174
-10.588706
-7.6174292
-4.9940173
-0.47649694
0.40935075
3.2233024
4.9134476
5.7145647
6.0547394
6.2279429
6.3286549
6.3660701
6.3495021
6.2963264
6.2192078
6.1257332
6.0216527
5.9114815
5.7984951
5.6851051
5.5731623
5.4640475
5.3587947
5.2581818
5.1628047
5.0731411
4.9895484
4.9122699
4.8414589
4.7772226
4.7196249
4.6686475
4.6242528
4.5861067
4.5542858
4.5285619
4.5088259
4.4947833
4.4854142
4.4808107
4.4865134
-0.34990042
-0.34099396
-0.32317362
-0.29831226
-0.26603048
-0.22620536
-0.17913994
-0.12503311
-0.064111428
0.0033859683
0.077127343
0.15673211
0.24184303
0.33204969
0.42684192
0.52566935
0.62797705
0.73315766
0.84050098
0.94927249
1.0584645
1.167225
1.2744261
1.378643
1.4779489
1.5703561
1.6529384
1.7220351
1.7734809
1.8026571
1.8029635
1.769459
1.6961195
1.5767712
1.4062212
1.1802825
0.8986108
0.56823882
0.21063663
-0.13239598
-0.38932915
-0.44816155
-0.18622622
0.43380835
1.2790881
2.1787301
2.4548654
2.6608733
2.9771407
3.2743876
3.2278903
3.7109077
2.6729892
-0.28647083
-3.8920977
-8.0831089
-11.389848
-13.125957
-12.988811
-11.02579
-8.7225811
-5.5979898
-1.7009144
0.81307681
2.7768306
4.6263338
5.474302
5.849072
6.049261
6.168151
6.213845
6.2044863
6.1573435
6.0843957
5.9945206
5.8938407
5.786937
5.677166
5.5669945
5.4582669
5.352368
5.2503142
5.1528592
5.0605929
4.9739629
4.8933332
4.8189372
4.7509391
4.6894366
4.6345008
4.5860814
4.5441758
4.5085996
4.4792217
4.4558535
4.4384196
4.4265915
4.4191148
4.4164503
4.4245739
-0.42314737
-0.41396477
-0.39543853
-0.36960635
-0.33595624
-0.2943985
-0.24527839
-0.18874668
-0.1249938
-0.054324447
0.022913772
0.10639793
0.19576304
0.29055249
0.39026054
0.49435977
0.60227007
0.71334717
0.82689388
0.94224425
1.0584801
1.174591
1.2895414
1.4019767
1.5100047
1.6113305
1.7028572
1.7801966
1.8380517
1.8701449
1.8690431
1.827248
1.7367535
1.5871816
1.3704974
1.0753538
0.6942856
0.22510557
-0.31832692
-0.8963581
-1.413506
-1.6790291
-1.4648202
-0.67007139
0.64649199
1.9924024
2.696034
3.1377914
3.5059732
3.8950198
3.9502175
3.5488044
2.0351179
1.0369546
-2.3487337
-6.8269392
-10.108048
-11.733075
-11.626651
-9.7118233
-7.6052041
-5.1756447
-1.7300251
0.99155066
2.8911363
4.5863852
5.3890935
5.7353504
5.9352257
6.0431052
6.0821633
6.0696974
6.0213596
5.9483982
5.8592828
5.760048
5.6551184
5.5477276
5.4402574
5.33443
5.2315374
5.1325579
5.0382035
4.9490411
4.8654698
4.7878495
4.7164037
4.6513154
4.5926753
4.5405216
4.4948065
4.4556537
4.4227801
4.3960403
4.3752877
4.3604521
4.3510828
4.3457265
4.3453254
4.3562613
-0.50442466
-0.49496752
-0.4757367
-0.44878615
-0.41363392
-0.37024005
-0.31887029
-0.25964939
-0.1928295
-0.11872099
-0.037614826
0.050168194
0.14421509
0.24407272
0.34926444
0.45922816
0.57335584
0.69103075
0.81158904
0.93432
1.0584332
1.1830111
1.3070617
1.4294008
1.5483084
1.6614085
1.7654355
1.8554039
1.924721
1.9652427
1.9679326
1.9233066
1.8206616
1.6472097
1.3875741
1.0211736
0.52985522
-0.10668486
-0.89811423
-1.8302686
-2.7947242
-3.4716337
-3.4491078
-2.5156887
-0.95291992
0.84943124
2.4367125
3.5693836
4.3295805
4.9689807
5.3688048
5.2436831
4.2966118
2.9621795
0.12462671
-4.548648
-7.5612554
-9.2484766
-9.4142408
-6.6292859
-5.7232648
-3.8072704
-1.0437631
1.128417
3.3446384
4.7635713
5.4114173
5.6926466
5.8639689
5.94533
5.9670733
5.9429145
5.8874352
5.8104415
5.7194179
5.6198343
5.515709
5.4099586
5.3047024
5.2014761
5.1014256
5.0054178
4.9140995
4.8280021
4.7474954
4.6728951
4.6044467
4.5423184
4.4866257
4.4374121
4.3946974
4.3583247
4.3283038
4.3044032
4.2864763
4.2745211
4.2678719
4.2648773
4.2670939
4.2812231
-0.59414473
-0.58443979
-0.56437812
-0.53622283
-0.49951508
-0.45411611
-0.40027474
-0.3381793
-0.26807262
-0.19019962
-0.10485041
-0.012384317
0.08679359
0.19224723
0.30347296
0.41988297
0.5408744
0.66584256
0.79413335
0.92502612
1.0578307
1.1918439
1.3262556
1.4600629
1.5919318
1.719865
1.8404825
1.9484783
2.0355842
2.0912625
2.1044652
2.0639786
1.9572655
1.7682346
1.4744428
1.0436135
0.43858375
-0.38966766
-1.507027
-2.9684202
-4.7109914
-6.2847551
-7.0335998
-6.5589311
-4.8913348
-2.2104352
0.82519133
3.4086456
5.1501408
6.2259481
6.95923
7.1054846
6.4933549
4.7816626
3.0617191
-1.0493216
-4.2134943
-6.1616682
-6.7787136
-5.9182787
-3.7060119
-1.9125009
-0.35840961
2.0661587
3.9763043
5.0662124
5.4905327
5.6957416
5.8184562
5.864543
5.8609198
5.8193997
5.7525006
5.6684313
5.5734912
5.4722701
5.3681216
5.2634909
5.1601289
5.0592993
4.9619603
4.8688315
4.7804879
4.697388
4.6199007
4.5482965
4.4828309
4.4236722
4.3709431
4.3246883
4.2849413
4.2516201
4.2246303
4.2037677
4.1889089
4.1800905
4.1764181
4.1760079
4.181252
4.1990279
-0.69276574
-0.68270938
-0.66179424
-0.63240012
-0.59399018
-0.54641555
-0.48996658
-0.42482009
-0.35114694
-0.26919345
-0.17926956
-0.081724681
0.023064628
0.13463784
0.25244983
0.37591902
0.50443645
0.63735922
0.77402094
0.91377025
1.0560277
1.2002633
1.3459506
1.4925341
1.639294
1.7849224
1.9266088
2.0591418
2.1718561
2.2508125
2.2825389
2.2544021
2.1535228
1.9617818
1.6504823
1.1733208
0.46599044
-0.57162311
-2.1187873
-4.3870099
-7.4136104
-10.536357
-12.509485
-12.648739
-10.672703
-6.8010453
-1.8713335
2.7043284
5.9255892
7.6481254
9.5016276
8.8054223
8.8744346
7.2512486
6.2292978
2.9401754
-0.38701248
-2.545189
-3.5433041
-3.8477436
-3.1853421
-1.416396
1.0191534
3.1646081
4.5941739
5.3173046
5.5833848
5.7190392
5.782483
5.7887405
5.7549242
5.6929957
5.612301
5.5195093
5.4195747
5.3160717
5.2115647
5.1078749
5.0063058
4.9078033
4.8131101
4.7227866
4.637332
4.5571379
4.4825567
4.413878
4.3513187
4.2950522
4.2452462
4.2019533
4.1652583
4.1350451
4.1112208
4.0935374
4.081952
4.0765074
4.0760393
4.0784618
4.0871838
4.109061
-0.80066101
-0.7902619
-0.76848063
-0.73772261
-0.69746973
-0.64763945
-0.58844971
-0.52002195
-0.4425288
-0.356226
-0.26139362
-0.15834015
-0.047462581
0.07074717
0.19573579
0.32690892
0.46359875
0.60510115
0.75075882
0.89999343
1.0522673
1.2072196
1.3647041
1.5247908
1.6877162
1.8534232
2.020578
2.185475
2.3339506
2.4457405
2.5049364
2.4980246
2.4145108
2.2370856
1.9332724
1.4437633
0.66851783
-0.58780796
-2.6710298
-6.0172055
-10.63158
-15.44386
-18.181202
-18.345943
-15.594994
-10.745548
-4.4275259
1.88807
6.5284639
9.1579415
11.559187
10.269299
10.660248
9.9977428
9.1902062
6.6299948
3.7031118
1.3576719
-0.56521045
-0.67271221
-0.29679701
1.049038
2.891843
4.2739153
5.1417662
5.5280435
5.6691918
5.7347885
5.7399153
5.7049135
5.6402646
5.5571661
5.4621874
5.3604661
5.2555338
5.1498826
5.0452284
4.9426942
4.8430652
4.7469589
4.6549096
4.5673387
4.4846714
4.4072516
4.3354042
4.2694638
4.2096463
4.1561693
4.1091918
4.0687358
4.0350728
4.0079478
3.9873028
3.9728842
3.964735
3.9628999
3.9658252
3.9713045
3.9840345
4.0104665
-0.918352
-0.90759204
-0.88483664
-0.85262264
-0.81049462
-0.75829737
-0.69618901
-0.62429367
-0.54278607
-0.45186536
-0.35176191
-0.24278609
-0.12535187
4.5902934e-05
0.13284166
0.27237264
0.41789133
0.56864269
0.72393227
0.88315849
1.0458066
1.2116473
1.3809156
1.5544009
1.7335301
1.9202104
2.1160522
2.3225668
2.5202913
2.6755369
2.7713134
2.7929614
2.7386229
2.5971823
2.3340325
1.8807947
1.1003614
-0.32494388
-2.9038118
-7.231269
-12.953063
-18.866834
-21.697136
-21.222371
-17.762955
-12.447037
-5.5610993
1.4195096
6.3470377
10.10953
11.391933
11.315998
11.838218
11.743859
11.160203
9.6136097
7.578299
5.6072838
4.4445419
3.6931334
3.1503748
3.5507654
4.4533975
5.0935261
5.5087093
5.6751984
5.7269309
5.7242741
5.6771099
5.6021983
5.5088118
5.4056283
5.2974971
5.1879705
5.0791791
4.9724136
4.8684322
4.7676769
4.670433
4.5769658
4.4876231
4.4027339
4.3226743
4.2477835
4.1784011
4.1149089
4.0575591
4.0066165
3.9622682
3.9246348
3.8937379
3.8695794
3.8520278
3.840886
3.8362798
3.8382132
3.8446536
3.8533911
3.8707151
3.9022129
-1.046377
-1.0350945
-1.0113181
-0.97764879
-0.93356191
-0.87887211
-0.81372574
-0.73824464
-0.6525265
-0.55670952
-0.45100375
-0.33571583
-0.2112344
-0.078052188
0.063203704
0.21178288
0.36687134
0.52762815
0.69321516
0.8628798
1.0360804
1.2126609
1.3930786
1.5786143
1.7721362
1.9777558
2.2020331
2.4602265
2.7180129
2.9321108
3.0726114
3.1269611
3.1135806
3.0353699
2.8564814
2.5187149
1.8550416
0.35101348
-2.5119287
-7.2856491
-13.39521
-18.875947
-21.612607
-20.811388
-17.087514
-11.651912
-4.7951373
1.8599744
9.0842545
16.185024
10.664597
11.702854
12.347475
12.640517
12.262526
11.077301
9.6394207
8.2175371
6.2225528
5.1321713
4.926639
5.0980295
5.3910497
5.62419
5.7475993
5.7759086
5.749202
5.6811069
5.5848112
5.4725838
5.353153
5.23244
5.1137632
4.9989004
4.8884848
4.7825259
4.6807479
4.5828651
4.4887227
4.3982994
4.3117553
4.2294088
4.1516464
4.0788809
4.0115451
3.9500498
3.8947427
3.845954
3.8039042
3.768733
3.7403777
3.718966
3.704351
3.6963784
3.6952905
3.701019
3.7109952
3.7232138
3.7458435
3.782974
-1.1849117
-1.1732156
-1.1484852
-1.1132827
-1.0671489
-1.0099174
-0.94168806
-0.86250641
-0.77239739
-0.67145825
-0.55986212
-0.43786341
-0.30581437
-0.16423844
-0.013828945
0.14460128
0.31014182
0.4817671
0.65839262
0.83902905
1.0229509
1.2098524
1.4001822
1.5950535
1.7995223
2.0172314
2.2654664
2.5794878
2.9131284
3.2055812
3.4014493
3.4691631
3.510434
3.5274231
3.4839728
3.3239444
2.8885676
1.5895185
-1.0363983
-5.4453398
-10.778001
-15.690191
-18.171336
-17.516187
-14.256229
-9.0067229
-2.7490665
3.4019846
15.528314
17.610315
9.9737048
11.40125
12.153981
12.697416
12.612985
11.670548
10.210097
8.7171858
7.4470289
6.6333827
6.194661
6.031002
5.9739395
5.9545965
5.9138292
5.8375891
5.7308557
5.5990858
5.454967
5.3082435
5.1659243
5.0316144
4.9065379
4.7903477
4.6818673
4.5796347
4.4823058
4.3888816
4.2987773
4.2118204
4.128116
4.0480326
3.9720884
3.9008347
3.8348561
3.774703
3.7208696
3.6736747
3.6333914
3.6001544
3.5740397
3.5550497
3.5430559
3.5379634
3.5401818
3.5495054
3.562855
3.5787741
3.6076316
3.6510592
-1.3344515
-1.3225846
-1.2967955
-1.2599765
-1.2117934
-1.1520382
-1.0806942
-0.99773557
-0.90313479
-0.7969139
-0.67915512
-0.55004219
-0.40992061
-0.25932008
-0.098962841
0.070273715
0.24730397
0.4308364
0.61946931
0.81183599
1.0067698
1.2034223
1.4018825
1.6017415
1.8116694
2.0230592
2.2867672
2.6481728
3.0289629
3.3739181
3.6627266
3.7642862
3.8848369
4.0159263
4.1471957
4.2332437
4.1176272
3.3580239
1.4507571
-1.8932773
-6.0699051
-10.114167
-12.854864
-13.053571
-10.510846
-5.8642787
-0.69685333
3.198905
16.470992
12.693771
10.352218
10.795289
11.400049
12.103936
12.348667
11.742586
10.612927
9.3859975
8.2928069
7.4800629
6.9502837
6.6159849
6.3825529
6.1993377
6.0307003
5.8534878
5.6642529
5.4687119
5.2776544
5.0994216
4.938744
4.7965749
4.6712261
4.5595944
4.4581966
4.3638297
4.2739931
4.1870482
4.1021159
4.018985
3.9379451
3.8595897
3.7846715
3.7140258
3.6484628
3.5887566
3.5355162
3.4891472
3.4499463
3.418095
3.3936503
3.376573
3.3666877
3.3639746
3.368989
3.3813171
3.3975298
3.4174186
3.4538261
3.5045205
-1.4960565
-1.4837028
-1.4566452
-1.4182263
-1.368051
-1.3057986
-1.2313637
-1.1446594
-1.0455514
-0.93393524
-0.80978585
-0.67322499
-0.52454599
-0.36423597
-0.19300694
-0.011860034
0.17791071
0.37470635
0.57671564
0.78198823
0.98857902
1.1946821
1.3992222
1.5962118
1.795399
1.9746807
2.1511518
3.1474276
5.0842269
5.4411566
4.3502021
3.8062146
4.1497073
4.4388037
4.7690164
5.145974
5.4371088
5.3462083
4.4818736
2.5004563
-0.62233107
-4.4109287
-7.6347797
-8.9971084
-7.1675574
-2.7347507
1.7169388
3.6798579
15.109365
9.071953
8.982759
9.5251177
10.106092
10.952509
11.575932
11.37842
10.61669
9.6765014
8.787951
8.0566722
7.4949553
7.0601901
6.7020009
6.3876923
6.0967283
5.8150022
5.5398774
5.2778261
5.0397791
4.8336076
4.6612767
4.5197702
4.4031377
4.3044374
4.2171961
4.136172
4.0576722
3.9795569
3.9009132
3.8217945
3.7429061
3.665311
3.5901997
3.5188606
3.4524231
3.3919292
3.3381678
3.291652
3.2526925
3.2214314
3.197962
3.1821002
3.173554
3.1724265
3.1793213
3.1935006
3.2114856
3.235601
3.2814559
3.3406245
-1.66949
-1.6553463
-1.6282019
-1.5884667
-1.5363981
-1.4717525
-1.3943731
-1.3040499
-1.2004953
-1.0834678
-0.95282564
-0.80856827
-0.65085908
-0.48008962
-0.29697788
-0.10263944
0.10142975
0.31330597
0.53062142
0.75063144
0.9703777
1.1867404
1.3976715
1.590669
1.7904268
1.9400842
2.2198177
9.0757705
9.6077043
10.099802
10.795855
4.4856346
4.3738611
4.7206167
5.2877254
5.9799072
6.6761993
7.2285596
7.3436866
6.5395429
4.0658061
-0.17841419
-4.6114009
-6.8565262
-5.0973234
-0.22355647
4.1013172
5.9814896
11.82116
5.7217941
7.4334323
7.9617946
8.4693735
9.4337476
10.450697
10.747316
10.416182
9.7873572
9.1015763
8.4717853
7.9163751
7.4170627
6.9527749
6.5145571
6.1009518
5.7104313
5.3433323
5.0090128
4.7229323
4.4940861
4.3203815
4.1923709
4.0975797
4.0235677
3.9599687
3.8992508
3.8366573
3.7698725
3.698395
3.6229871
3.5451481
3.4667311
3.3896491
3.3157432
3.246671
3.1837746
3.1280775
3.0802087
3.040462
3.0089101
2.9855941
2.9700299
2.961797
2.9611313
2.9685795
2.9826189
3.0000573
3.0281761
3.0866874
3.1562517
-1.8559748
-1.8410233
-1.812509
-1.7712118
-1.7173116
-1.6504776
-1.570403
-1.4766925
-1.3688992
-1.2466153
-1.1095182
-0.95739604
-0.79022393
-0.60826598
-0.4121954
-0.20316329
0.017163263
0.24647403
0.48175406
0.7193031
0.95505575
1.1842216
1.4056827
1.5864972
1.7945252
1.8150134
2.6969889
8.0726617
8.8625099
9.1365557
8.6600205
4.6478298
4.1929518
4.7767926
5.6937036
6.7404168
7.7990317
8.8437764
9.7162547
9.6159149
6.9202986
1.4735422
-4.9868406
-7.5529927
-6.5607205
0.24144513
0.76438961
11.364149
4.9166606
6.2245145
6.7886628
6.6330548
6.7373285
7.8251716
9.2126003
10.006523
10.102938
9.7792338
9.299585
8.7902594
8.2661634
7.7193761
7.1515716
6.5816716
6.0351296
5.5250979
5.0539277
4.6362935
4.2996775
4.057038
3.8987475
3.8040608
3.7503134
3.7172681
3.689739
3.6578026
3.616131
3.5629571
3.4988772
3.4260222
3.3472413
3.2655548
3.1839299
3.1049846
3.0309521
2.96359
2.9041659
2.8534758
2.8117866
2.778936
2.754881
2.7386069
2.7295093
2.7279638
2.7343385
2.7451865
2.7570825
2.7874118
2.8663829
2.9522254
-2.0556729
-2.0395221
-2.0095984
-1.966748
-1.9112155
-1.8425037
-1.7601015
-1.663415
-1.5518021
-1.42462
-1.2812712
-1.1212686
-0.94434261
-0.75054585
-0.54038372
-0.31492845
-0.075995944
0.17372222
0.43056002
0.68969592
0.9455296
1.1913953
1.4232569
1.6187783
1.8216606
1.9634757
2.2487841
2.8433842
4.6598721
4.6291239
3.7137199
3.2671218
3.7137447
4.6509479
5.9724602
7.389454
8.8217232
10.347576
11.588593
11.381081
7.8897546
1.1020538
-4.4747949
-1.783027
-6.8926161
-8.4668549
5.3728244
11.276176
8.4546538
7.7346088
6.6369652
5.4600096
5.2750024
6.3897485
8.0136362
9.1728832
9.6157563
9.5827049
9.3635511
9.0448026
8.5925963
8.0103549
7.3272547
6.5991157
5.892233
5.2401481
4.643209
4.1223476
3.7309051
3.4902095
3.3747476
3.343622
3.3587065
3.3886989
3.4128812
3.4194977
3.4037061
3.3655154
3.3077965
3.234985
3.1519652
3.0634489
2.9737213
2.8864193
2.8044598
2.7300552
2.6647973
2.6095608
2.5646698
2.5299278
2.5039793
2.4860653
2.4748768
2.4708562
2.4740022
2.4765716
2.4700757
2.490281
2.599447
2.7135093
-2.2688165
-2.2510246
-2.219324
-2.1751922
-2.118397
-2.0482692
-1.9641075
-1.8650993
-1.7503225
-1.618828
-1.4696859
-1.3020633
-1.1153282
-0.90918137
-0.68380927
-0.44007465
-0.17983166
0.093973832
0.37709992
0.66362081
0.94610272
1.2168663
1.4666507
1.692594
1.8924867
2.1549961
2.317815
2.6507528
3.0753552
3.2725066
3.0856869
2.9424645
3.478424
4.7017598
6.2748624
7.9114616
9.6566595
11.49677
13.160535
12.443011
6.5688286
3.2503363
-3.7878538
-7.0224704
-8.7672642
-12.157761
-2.393086
7.813845
9.6400558
8.9629552
6.9414482
5.0733719
4.4951983
5.3986985
7.0226571
8.3336295
8.9684222
9.1686577
9.2780218
9.2762417
8.9678273
8.3625854
7.5278616
6.5807026
5.6563045
4.8237565
4.0696529
3.4117063
2.9576869
2.7473442
2.7209344
2.8001243
2.9240796
3.0461155
3.140756
3.1960732
3.2099372
3.1861828
3.1316754
3.0543712
2.9620588
2.8616957
2.7591653
2.6592308
2.5656156
2.4810538
2.4074386
2.3457092
2.2961223
2.2582437
2.2304548
2.2104815
2.1959186
2.1871092
2.1829883
2.1657597
2.1081316
2.0710393
2.2171848
2.4050472
-2.4955273
-2.475544
-2.4418901
-2.3965772
-2.3389869
-2.2681286
-2.1830401
-2.0826076
-1.9655919
-1.8306933
-1.6765886
-1.5019886
-1.3057439
-1.0870168
-0.8454785
-0.58163596
-0.29707685
0.0052048386
0.3204753
0.64164754
0.95891327
1.2617285
1.5303781
1.7522312
1.8992279
2.0808584
2.1394964
2.2871832
2.4817079
2.530999
2.7519474
3.0255498
3.7432981
5.1078322
6.7188621
8.3919228
10.232317
12.541429
15.037418
14.513929
8.824387
5.7900763
-0.52530277
-4.2633813
-5.4444168
-0.11701465
3.9036941
9.8247989
11.38416
10.602161
8.2133274
5.7896114
4.5957654
4.9877057
6.2592974
7.2613997
7.6556838
7.9765141
8.7137117
9.4391627
9.4032754
8.8034785
7.7901158
6.5463681
5.3270228
4.2494375
3.2646261
2.3987705
1.8788442
1.7566589
1.9042364
2.1664926
2.4563903
2.7058741
2.8915825
3.0044062
3.0487041
3.0353351
2.977558
2.8884646
2.779601
2.6606376
2.5392762
2.4214648
2.3117185
2.2133232
2.1284245
2.058127
2.0026428
1.9613259
1.931849
1.9100541
1.8923348
1.8793246
1.8649796
1.8167433
1.6885349
1.5837422
1.8083083
2.3241402
-2.7355181
-2.7125101
-2.6766713
-2.6305632
-2.5729528
-2.5023417
-2.4174058
-2.3167293
-2.1987485
-2.0617778
-1.9040061
-1.7235642
-1.5186204
-1.2875976
-1.029423
-0.74382009
-0.43185112
-0.09611974
0.25836288
0.62354072
0.98748755
1.3350922
1.6388844
1.8690232
2.0099699
2.0662824
2.0218325
1.9427678
1.7886561
2.1408309
2.5480721
3.4167286
4.1154132
5.4806191
7.1603582
8.6070709
10.598915
14.177057
18.848343
18.963727
10.69647
10.755806
5.4243447
2.2823592
1.4088027
0.77615829
7.7653304
11.896401
13.565711
13.123831
10.745261
7.8017476
5.8570617
5.3354004
5.9478383
6.3989855
6.1837383
6.2256664
7.561308
9.5692091
10.086833
9.7214081
8.3586384
6.5868392
4.8282388
3.3072616
2.030831
0.91694687
0.36027276
0.44394955
0.89483336
1.4417647
1.9649923
2.3933597
2.6925376
2.8673941
2.9369913
2.9243202
2.8521617
2.7403908
2.6051387
2.4589753
2.3114512
2.1695824
2.0385552
1.9220649
1.8225419
1.7413242
1.6788013
1.634351
1.6044339
1.5838562
1.5714877
1.5710341
1.5729191
1.5424815
1.4659902
1.4948021
4.5147819
10.049158
-2.9851767
-2.9594787
-2.9225275
-2.8766241
-2.8201398
-2.7510184
-2.6675852
-2.5681768
-2.4509189
-2.3136848
-2.1541004
-1.969613
-1.7575441
-1.515312
-1.2407238
-0.93238337
-0.59006539
-0.21578877
0.1861275
0.60709594
1.0338165
1.4470668
1.8148215
2.0902504
2.2362439
2.2229528
2.0623845
1.7468783
1.0656483
0.97350858
2.26086
3.5732607
4.0361175
4.9088677
6.6511223
8.6320749
12.49001
18.464264
24.521628
25.70768
14.056635
14.637377
12.985466
10.779033
6.8662001
8.6647192
12.367776
14.891019
17.110818
17.78184
15.080687
12.489267
10.565761
8.1477432
6.6607063
5.1349611
1.1871338
5.4088628
7.0328914
9.0304242
11.332134
11.199583
9.1382338
6.5068954
3.9501812
1.9051286
0.38281956
-1.1670109
-1.6972492
-1.286445
-0.348538
0.64051032
1.5076693
2.1586192
2.5836225
2.8142435
2.8935741
2.8637276
2.7601117
2.6106854
2.4364635
2.2527841
2.0706021
1.8976917
1.7395767
1.6002619
1.4825158
1.3877218
1.3162678
1.2679636
1.2409476
1.227469
1.2357177
1.271832
1.3263939
1.3757558
1.4164145
1.6774333
9.8325704
10.035563
-3.2503569
-3.217284
-3.1785366
-3.1340146
-3.0801199
-3.0140008
-2.933787
-2.8375538
-2.7231186
-2.5879467
-2.4290936
-2.2432236
-2.0266366
-1.7754213
-1.4857755
-1.1546176
-0.78018534
-0.36233371
0.095446223
0.58597636
1.0953951
1.6013934
2.0738475
2.4411829
2.6327206
2.5713724
2.2702433
1.5448089
-0.1305219
-1.369903
0.30441482
1.5012681
-0.0026769472
-1.8477539
-2.1431369
2.0811532
12.857703
24.0101
29.851116
27.887437
19.76198
10.809286
8.5163752
8.659801
10.741021
13.715822
16.659404
18.902757
20.453945
22.705541
24.431747