/*--------------------------------*- C++ -*----------------------------------*\
  =========                 |
  \\      /  F ield         | OpenFOAM: The Open Source CFD Toolbox
   \\    /   O peration     | Website:  https://openfoam.org
    \\  /    A nd           | Version:  9
     \\/     M anipulation  |
\*---------------------------------------------------------------------------*/
FoamFile
{
    format      ascii;
    class       volVectorField;
    location    "0.9";
    object      U;
}
// * * * * * * * * * * * * * * * * * * * * * * * * * * * * * * * * * * * * * //

dimensions      [0 1 -1 0 0 0 0];

internalField   nonuniform List<vector> 
10000
(
(0.0015146189 0.0049808803 0)
(0.001155102 0.0050736809 0)
(0.00097208489 0.0052111386 0)
(0.00012910331 0.0053655245 0)
(-8.6434688e-05 0.0055435209 0)
(-0.00070153237 0.0057580336 0)
(-0.0012360468 0.0059756855 0)
(-0.0018353085 0.0062119766 0)
(-0.0024867192 0.0064580451 0)
(-0.0031950434 0.0067095659 0)
(-0.0039765818 0.0069613733 0)
(-0.004844335 0.0072151978 0)
(-0.0058013254 0.007461827 0)
(-0.0068726224 0.0076929798 0)
(-0.0080806436 0.0079110111 0)
(-0.0094498195 0.0081160324 0)
(-0.010989237 0.0083000615 0)
(-0.012790498 0.0084629346 0)
(-0.0148963 0.0086433148 0)
(-0.017268469 0.0088371438 0)
(-0.020016148 0.0090374451 0)
(-0.023194103 0.0093019503 0)
(-0.026822826 0.0096149851 0)
(-0.031006268 0.010006825 0)
(-0.035748616 0.010475329 0)
(-0.041089105 0.011026579 0)
(-0.047136285 0.011660952 0)
(-0.053958615 0.012371908 0)
(-0.061635992 0.013150085 0)
(-0.070242921 0.013987381 0)
(-0.079839679 0.0148802 0)
(-0.09047338 0.015825687 0)
(-0.10217944 0.01682173 0)
(-0.11495819 0.017862806 0)
(-0.12877384 0.0189256 0)
(-0.14358909 0.01997548 0)
(-0.15937946 0.020985643 0)
(-0.17613948 0.021939837 0)
(-0.19389917 0.02283334 0)
(-0.21277163 0.023672391 0)
(-0.23304718 0.024454707 0)
(-0.25508813 0.02506542 0)
(-0.27907371 0.025195107 0)
(-0.30591315 0.024599429 0)
(-0.338372 0.022344917 0)
(-0.37653454 0.013495422 0)
(-0.4065394 -0.011112747 0)
(-0.39272034 -0.060749873 0)
(-0.30331807 -0.12334292 0)
(-0.165788 -0.15926083 0)
(-0.03498061 -0.16252773 0)
(0.097669788 -0.17957054 0)
(0.201174 -0.15334546 0)
(0.28850633 -0.15616733 0)
(0.34756997 -0.13140498 0)
(0.38219831 -0.1040744 0)
(0.41492216 -0.12838629 0)
(0.46473762 -0.16013371 0)
(0.53365578 -0.15009659 0)
(0.60595215 -0.101434 0)
(0.64503316 -0.061267955 0)
(0.62561467 -0.034354808 0)
(0.56375442 0.0066266291 0)
(0.50339893 0.051070501 0)
(0.46146251 0.082161216 0)
(0.42433169 0.0994831 0)
(0.38572356 0.11174278 0)
(0.34745028 0.12053765 0)
(0.31088044 0.12446206 0)
(0.27648667 0.12425568 0)
(0.24463801 0.12120476 0)
(0.21540332 0.11586964 0)
(0.18866272 0.10863415 0)
(0.16423567 0.1000064 0)
(0.14190454 0.090564267 0)
(0.12145134 0.080903605 0)
(0.10268565 0.071547117 0)
(0.085462981 0.062842383 0)
(0.069676776 0.054939212 0)
(0.055274363 0.047864649 0)
(0.042190409 0.041551742 0)
(0.030380619 0.035957458 0)
(0.019849169 0.030996624 0)
(0.01055573 0.026583875 0)
(0.0024597999 0.022644857 0)
(-0.004491668 0.019117918 0)
(-0.010351343 0.015951895 0)
(-0.015155865 0.013106471 0)
(-0.018923065 0.010525473 0)
(-0.021751817 0.0081163337 0)
(-0.023785554 0.0058705393 0)
(-0.025138944 0.003809384 0)
(-0.025839206 0.0020365652 0)
(-0.025799628 0.0005870472 0)
(-0.025022404 -0.00061046076 0)
(-0.023497671 -0.0016025718 0)
(-0.021131246 -0.0024281976 0)
(-0.018701465 -0.0031014145 0)
(-0.016197083 -0.003631694 0)
(-0.0099133536 -0.0041254706 0)
(0.0016070729 0.0055575355 0)
(0.0013390189 0.0057036838 0)
(0.0012039292 0.0059108787 0)
(0.00039628141 0.0061227427 0)
(0.00023252002 0.0063877281 0)
(-0.00034661261 0.0066955275 0)
(-0.00086295198 0.0070154772 0)
(-0.0014359807 0.0073644272 0)
(-0.0020720646 0.0077349915 0)
(-0.0027721243 0.0081266006 0)
(-0.0035463082 0.0085299682 0)
(-0.0044105473 0.0089536627 0)
(-0.0053765615 0.0093911898 0)
(-0.0064592729 0.0098292604 0)
(-0.0076734267 0.010294531 0)
(-0.0090536022 0.010760892 0)
(-0.010610953 0.011248138 0)
(-0.012391196 0.011759549 0)
(-0.014441053 0.012332036 0)
(-0.016770026 0.012978834 0)
(-0.019429575 0.013702326 0)
(-0.022486057 0.014552255 0)
(-0.025986 0.015534144 0)
(-0.030021338 0.016692767 0)
(-0.034619534 0.018026456 0)
(-0.039813773 0.019539795 0)
(-0.04571825 0.021238364 0)
(-0.052404559 0.023118353 0)
(-0.05995524 0.025169493 0)
(-0.06844877 0.02737402 0)
(-0.07795344 0.029704859 0)
(-0.088522209 0.032121683 0)
(-0.10018627 0.034577696 0)
(-0.11294702 0.037029918 0)
(-0.12677598 0.039436325 0)
(-0.1416241 0.04176522 0)
(-0.1574369 0.044016941 0)
(-0.17417531 0.046235608 0)
(-0.19183638 0.048522128 0)
(-0.21052492 0.05105528 0)
(-0.2306622 0.054105541 0)
(-0.25291852 0.057798186 0)
(-0.27752531 0.061902607 0)
(-0.30656379 0.06722941 0)
(-0.35013873 0.074284615 0)
(-0.41281142 0.067994362 0)
(-0.45246926 0.0092394086 0)
(-0.39376944 -0.12948785 0)
(-0.23090327 -0.28521443 0)
(-0.048961015 -0.34797517 0)
(0.11862636 -0.33228733 0)
(0.27417597 -0.31482097 0)
(0.37066346 -0.25039701 0)
(0.44632602 -0.22257891 0)
(0.49144951 -0.16223494 0)
(0.53838727 -0.13858749 0)
(0.61216955 -0.18927955 0)
(0.67860759 -0.23768341 0)
(0.72332949 -0.2527434 0)
(0.77142423 -0.19053777 0)
(0.81139985 -0.055276686 0)
(0.76556161 0.069975247 0)
(0.64863353 0.11924281 0)
(0.54091047 0.13158699 0)
(0.46786989 0.1379613 0)
(0.42028892 0.14922931 0)
(0.38179921 0.16158066 0)
(0.34276719 0.16851924 0)
(0.30380705 0.16899729 0)
(0.26774493 0.16498784 0)
(0.23535236 0.15816653 0)
(0.20624291 0.14934141 0)
(0.1799559 0.13905514 0)
(0.15609527 0.12783127 0)
(0.13430983 0.11619922 0)
(0.11431227 0.10467508 0)
(0.095896368 0.093681482 0)
(0.078941516 0.083470623 0)
(0.063385458 0.074122426 0)
(0.049196619 0.065615646 0)
(0.036338011 0.057850526 0)
(0.024784132 0.050790942 0)
(0.01450891 0.044350751 0)
(0.0054670944 0.038459561 0)
(-0.0023827268 0.033049089 0)
(-0.0090912929 0.028067097 0)
(-0.01470681 0.023462819 0)
(-0.019286654 0.019195815 0)
(-0.02291478 0.015216183 0)
(-0.025653307 0.011457503 0)
(-0.027536286 0.007936185 0)
(-0.028565511 0.0047123676 0)
(-0.028745914 0.001845618 0)
(-0.028186949 -0.00066394008 0)
(-0.027000017 -0.0028337452 0)
(-0.025138483 -0.0046898663 0)
(-0.02250225 -0.006262919 0)
(-0.019809266 -0.0075841281 0)
(-0.017081178 -0.0086530565 0)
(-0.010453475 -0.0096777133 0)
(0.0017184018 0.0053859566 0)
(0.001529792 0.0055506057 0)
(0.0014113234 0.0057636657 0)
(0.00063592859 0.0059849596 0)
(0.00052097654 0.00626339 0)
(-2.7337702e-05 0.0065712083 0)
(-0.00051589361 0.0069078479 0)
(-0.0010609858 0.0072760394 0)
(-0.0016672891 0.0076724353 0)
(-0.0023420519 0.0080961184 0)
(-0.0030917605 0.0085502161 0)
(-0.003925439 0.0090287751 0)
(-0.0048704646 0.0095471889 0)
(-0.0059169844 0.010089448 0)
(-0.0071001448 0.010681587 0)
(-0.0084518588 0.011306461 0)
(-0.0099523616 0.011996804 0)
(-0.011673328 0.012744624 0)
(-0.013648082 0.013590018 0)
(-0.015875229 0.014546508 0)
(-0.018423855 0.015622339 0)
(-0.021346379 0.01685266 0)
(-0.024667435 0.018271949 0)
(-0.028499885 0.019910761 0)
(-0.03288836 0.021798525 0)
(-0.037861852 0.0239306 0)
(-0.043536281 0.02632875 0)
(-0.049994706 0.028992586 0)
(-0.057329448 0.03191131 0)
(-0.065627312 0.035060807 0)
(-0.074964745 0.038403903 0)
(-0.085404568 0.041890044 0)
(-0.096987923 0.045455671 0)
(-0.10972598 0.049026208 0)
(-0.12359245 0.052522819 0)
(-0.13852017 0.055880627 0)
(-0.15441372 0.059076083 0)
(-0.17117078 0.062161363 0)
(-0.18869593 0.065300353 0)
(-0.20695728 0.068825634 0)
(-0.22631662 0.073294227 0)
(-0.24755265 0.079215503 0)
(-0.27057468 0.087483603 0)
(-0.2994508 0.10371763 0)
(-0.3563843 0.13224968 0)
(-0.44486328 0.12900103 0)
(-0.46737832 -0.0095389911 0)
(-0.32690193 -0.2929436 0)
(-0.12754467 -0.49964302 0)
(0.061864858 -0.54677983 0)
(0.24589522 -0.51616538 0)
(0.41909108 -0.44061303 0)
(0.56685068 -0.34816489 0)
(0.71295483 -0.30481673 0)
(0.84536469 -0.23249107 0)
(0.96357733 -0.20184348 0)
(1.0424188 -0.22601972 0)
(1.0550284 -0.23334628 0)
(1.0079666 -0.22549235 0)
(0.92739854 -0.1839699 0)
(0.87160814 -0.054344857 0)
(0.8519613 0.12149698 0)
(0.79338851 0.22903432 0)
(0.66998054 0.25498912 0)
(0.53947355 0.22443035 0)
(0.44900947 0.20078653 0)
(0.39090716 0.20441514 0)
(0.34284563 0.21329928 0)
(0.29726593 0.21275801 0)
(0.25654798 0.20456906 0)
(0.22180904 0.19331076 0)
(0.19185667 0.18071769 0)
(0.16552333 0.1672611 0)
(0.14204283 0.1533432 0)
(0.12083869 0.13940628 0)
(0.10148997 0.12586147 0)
(0.083740003 0.1130198 0)
(0.067466948 0.10104854 0)
(0.052620088 0.089980855 0)
(0.039158038 0.079771828 0)
(0.027045805 0.070351587 0)
(0.016244722 0.061684482 0)
(0.0066967316 0.053703499 0)
(-0.0016571695 0.046359108 0)
(-0.0088659967 0.039596995 0)
(-0.014981211 0.033369705 0)
(-0.020057378 0.027627222 0)
(-0.024142172 0.022325842 0)
(-0.027292182 0.017435417 0)
(-0.029547371 0.012956265 0)
(-0.030937093 0.0088793321 0)
(-0.031549922 0.0051826275 0)
(-0.03147834 0.0018116427 0)
(-0.030697053 -0.001254223 0)
(-0.029223063 -0.0040040984 0)
(-0.027056602 -0.0064309965 0)
(-0.024148598 -0.0085262291 0)
(-0.021180492 -0.010291545 0)
(-0.018207682 -0.011744554 0)
(-0.011162733 -0.013140768 0)
(0.0018334947 0.0059358089 0)
(0.0017169202 0.0061508367 0)
(0.0016340345 0.006395549 0)
(0.00089319281 0.0066586736 0)
(0.00081375215 0.0069718091 0)
(0.00030138574 0.0073251671 0)
(-0.00015177982 0.0077093796 0)
(-0.00066131102 0.0081362888 0)
(-0.001236763 0.0085936474 0)
(-0.0018742245 0.0090837989 0)
(-0.0025894028 0.0096120251 0)
(-0.0033836709 0.010182195 0)
(-0.0042799865 0.010788015 0)
(-0.0052831285 0.011453595 0)
(-0.0064094295 0.012162946 0)
(-0.007686573 0.012948382 0)
(-0.0091159467 0.013816444 0)
(-0.010736312 0.014764409 0)
(-0.012573319 0.015846769 0)
(-0.014667364 0.017080229 0)
(-0.017048984 0.01847086 0)
(-0.019759554 0.020070216 0)
(-0.022848819 0.021920796 0)
(-0.02641416 0.024037712 0)
(-0.030521598 0.026492541 0)
(-0.035207101 0.029262116 0)
(-0.040579985 0.032385288 0)
(-0.046742707 0.035863339 0)
(-0.053801205 0.039687292 0)
(-0.061861062 0.043828575 0)
(-0.071018724 0.048236952 0)
(-0.08135464 0.052839855 0)
(-0.09292129 0.057544058 0)
(-0.10573037 0.0622399 0)
(-0.11974349 0.066810055 0)
(-0.13486351 0.071148938 0)
(-0.15092862 0.075196068 0)
(-0.16772588 0.078988869 0)
(-0.18499925 0.082731852 0)
(-0.20245152 0.086867167 0)
(-0.22009433 0.092077763 0)
(-0.2384648 0.099563318 0)
(-0.25708113 0.11398297 0)
(-0.28093276 0.14792714 0)
(-0.33640013 0.19658482 0)
(-0.40842387 0.1633119 0)
(-0.3597746 -0.096104 0)
(-0.18206148 -0.47097183 0)
(-0.057322969 -0.67274557 0)
(0.11390251 -0.73034611 0)
(0.27799056 -0.69407937 0)
(0.45845104 -0.63300397 0)
(0.67870494 -0.5580642 0)
(0.91320386 -0.50341003 0)
(1.1174291 -0.401872 0)
(1.2734838 -0.32802166 0)
(1.3673266 -0.27592837 0)
(1.3808919 -0.2033152 0)
(1.3090989 -0.11309993 0)
(1.1674163 -0.054669216 0)
(1.0177458 0.019429436 0)
(0.92654791 0.14798798 0)
(0.87224338 0.2927511 0)
(0.78496965 0.36817032 0)
(0.65223487 0.35337171 0)
(0.5122014 0.30140832 0)
(0.40970675 0.27190131 0)
(0.34286409 0.26505962 0)
(0.28979161 0.25740183 0)
(0.24429469 0.24261303 0)
(0.2067972 0.2252472 0)
(0.17568711 0.20799746 0)
(0.14906756 0.19106684 0)
(0.12579498 0.17444482 0)
(0.10512524 0.15835002 0)
(0.086523767 0.14300595 0)
(0.06966511 0.12856903 0)
(0.05438162 0.11511455 0)
(0.040568274 0.10262881 0)
(0.028135696 0.091099383 0)
(0.017012865 0.080443326 0)
(0.0071305562 0.070629125 0)
(-0.0015834871 0.061587147 0)
(-0.0091870164 0.053259549 0)
(-0.015730086 0.045573307 0)
(-0.021262988 0.038475258 0)
(-0.025832148 0.031900457 0)
(-0.029472573 0.025802072 0)
(-0.032223576 0.020136668 0)
(-0.03412646 0.014870992 0)
(-0.035229994 0.009965737 0)
(-0.035560213 0.005394422 0)
(-0.03511349 0.0011867072 0)
(-0.033943037 -0.0026086301 0)
(-0.032121699 -0.0060237411 0)
(-0.029602535 -0.0090648296 0)
(-0.026345103 -0.011726292 0)
(-0.023007549 -0.013982532 0)
(-0.019709864 -0.015853919 0)
(-0.012116074 -0.017659649 0)
(0.0019959506 0.0060811145 0)
(0.00197752 0.0063403826 0)
(0.001918739 0.0066298505 0)
(0.0012083411 0.0069393758 0)
(0.0011780279 0.0073025239 0)
(0.00070662879 0.0077135017 0)
(0.00029193662 0.0081608636 0)
(-0.00017711179 0.0086504963 0)
(-0.00071633679 0.0091805144 0)
(-0.0013164915 0.0097536698 0)
(-0.0019815556 0.010366114 0)
(-0.0027322919 0.011031662 0)
(-0.0035747581 0.011742206 0)
(-0.0045103988 0.012525003 0)
(-0.0055652634 0.013369696 0)
(-0.006749517 0.014302942 0)
(-0.0080784991 0.015344449 0)
(-0.0095755946 0.016501735 0)
(-0.011255108 0.017798096 0)
(-0.01316514 0.01928715 0)
(-0.015340584 0.020985376 0)
(-0.017797165 0.02292804 0)
(-0.020597279 0.025171062 0)
(-0.023822285 0.027747806 0)
(-0.027562971 0.030752038 0)
(-0.031873801 0.03415726 0)
(-0.036844372 0.038017425 0)
(-0.042603603 0.042344616 0)
(-0.04927367 0.047135186 0)
(-0.056984547 0.052359735 0)
(-0.065859572 0.057958019 0)
(-0.076007274 0.063835865 0)
(-0.087506436 0.069864546 0)
(-0.10038996 0.075884495 0)
(-0.11462404 0.081711905 0)
(-0.13008156 0.087160102 0)
(-0.1465213 0.092080454 0)
(-0.16358625 0.096429595 0)
(-0.18078759 0.10037119 0)
(-0.1974226 0.10429498 0)
(-0.21278629 0.10876932 0)
(-0.22667365 0.11605076 0)
(-0.23803074 0.13527036 0)
(-0.24765831 0.18050029 0)
(-0.26993994 0.22865261 0)
(-0.28725358 0.15465456 0)
(-0.21922617 -0.17940342 0)
(-0.11692945 -0.58430292 0)
(-0.015465335 -0.81802216 0)
(0.161988 -0.90343181 0)
(0.32914899 -0.8565812 0)
(0.51164438 -0.84186305 0)
(0.74221915 -0.80862413 0)
(0.99519464 -0.74406691 0)
(1.2086428 -0.58641579 0)
(1.3506971 -0.45065528 0)
(1.4196642 -0.33076581 0)
(1.4305917 -0.19654477 0)
(1.4128088 -0.057771241 0)
(1.3359788 0.086135896 0)
(1.1670358 0.18806717 0)
(0.99175346 0.27368173 0)
(0.88186631 0.3852196 0)
(0.7916791 0.47212278 0)
(0.66698682 0.48125545 0)
(0.51980903 0.43197356 0)
(0.39987793 0.36947396 0)
(0.32540244 0.33110463 0)
(0.27173474 0.30773211 0)
(0.2258565 0.28397807 0)
(0.18771671 0.25916276 0)
(0.1566272 0.23615228 0)
(0.13046982 0.2150793 0)
(0.10785976 0.19538055 0)
(0.088032949 0.17691452 0)
(0.070425408 0.15966762 0)
(0.054672185 0.14361254 0)
(0.04053762 0.12871509 0)
(0.027869326 0.11492196 0)
(0.016502491 0.10219675 0)
(0.0063306491 0.090425975 0)
(-0.0026893997 0.079559735 0)
(-0.010643008 0.069516547 0)
(-0.017581563 0.060216589 0)
(-0.023538232 0.051569084 0)
(-0.028546308 0.04351815 0)
(-0.032643652 0.035992541 0)
(-0.035847766 0.028954166 0)
(-0.038193376 0.022363201 0)
(-0.039705587 0.016189344 0)
(-0.040402 0.010427636 0)
(-0.040311828 0.005089184 0)
(-0.039464578 0.0001676893 0)
(-0.037895827 -0.0043489423 0)
(-0.035666023 -0.0084430703 0)
(-0.032737431 -0.012103578 0)
(-0.029082104 -0.015325443 0)
(-0.025308766 -0.01809854 0)
(-0.02160492 -0.020409723 0)
(-0.013348033 -0.022645518 0)
(0.002165662 0.0062596203 0)
(0.0022462707 0.006548142 0)
(0.0022390558 0.0068713381 0)
(0.0015703326 0.007209762 0)
(0.0015844439 0.0076232482 0)
(0.0011632924 0.0080725797 0)
(0.0007880861 0.0085685897 0)
(0.00036281721 0.0091081229 0)
(-0.00012552751 0.0096993083 0)
(-0.00067729554 0.010337421 0)
(-0.001296927 0.011026617 0)
(-0.0019888961 0.011765934 0)
(-0.0027627176 0.012572153 0)
(-0.0036258128 0.013446931 0)
(-0.0045954159 0.014405153 0)
(-0.0056685163 0.015464941 0)
(-0.0068656621 0.016645646 0)
(-0.0082234018 0.017970221 0)
(-0.0097210352 0.019461348 0)
(-0.011405409 0.021162031 0)
(-0.013328009 0.023112504 0)
(-0.015490386 0.025362413 0)
(-0.017943778 0.027958334 0)
(-0.020744412 0.030955328 0)
(-0.024024388 0.034447415 0)
(-0.027856131 0.038468155 0)
(-0.032306225 0.043052116 0)
(-0.037533129 0.048232926 0)
(-0.04368415 0.054017804 0)
(-0.050922176 0.060379301 0)
(-0.059408602 0.067248739 0)
(-0.069293307 0.074509942 0)
(-0.080696189 0.081995576 0)
(-0.09368638 0.089487165 0)
(-0.10825393 0.096716196 0)
(-0.12426594 0.10337761 0)
(-0.14142143 0.1091725 0)
(-0.15921775 0.11388828 0)
(-0.17690635 0.11750428 0)
(-0.19333054 0.12012949 0)
(-0.20693113 0.12203716 0)
(-0.2166032 0.12620789 0)
(-0.22099582 0.1436123 0)
(-0.21602282 0.18545148 0)
(-0.20460524 0.21912814 0)
(-0.18803965 0.12003926 0)
(-0.12171626 -0.2344485 0)
(-0.055174273 -0.66495777 0)
(0.069425082 -0.97096441 0)
(0.19951138 -1.0731779 0)
(0.3350564 -1.0337425 0)
(0.50435276 -1.0422483 0)
(0.73175167 -1.0640353 0)
(0.99113542 -0.98826083 0)
(1.2235489 -0.77161961 0)
(1.3834273 -0.54400136 0)
(1.4558429 -0.34414615 0)
(1.4573428 -0.14853356 0)
(1.3859008 0.022268049 0)
(1.2877761 0.20257437 0)
(1.1889322 0.3302022 0)
(1.0639566 0.41951887 0)
(0.91872365 0.50983663 0)
(0.77447793 0.59752725 0)
(0.61633633 0.61683433 0)
(0.45944224 0.56597846 0)
(0.34715353 0.46847539 0)
(0.28244024 0.39582133 0)
(0.23766397 0.35612861 0)
(0.19739891 0.32461071 0)
(0.16202214 0.29312566 0)
(0.13297436 0.26440287 0)
(0.1085702 0.23908102 0)
(0.087464887 0.21620403 0)
(0.069046863 0.19526455 0)
(0.052806223 0.17599265 0)
(0.038383123 0.15822438 0)
(0.025522503 0.14182752 0)
(0.014030734 0.12670664 0)
(0.003715552 0.11271961 0)
(-0.0055074995 0.099812887 0)
(-0.013663039 0.087861774 0)
(-0.020838708 0.076777063 0)
(-0.027081492 0.066466106 0)
(-0.032405231 0.056848316 0)
(-0.03684138 0.047850862 0)
(-0.040410792 0.039415761 0)
(-0.043119095 0.031497902 0)
(-0.044999732 0.024061582 0)
(-0.046064435 0.01708235 0)
(-0.04632691 0.010545421 0)
(-0.045814189 0.0044398391 0)
(-0.04454391 -0.00123615 0)
(-0.042544756 -0.0064744433 0)
(-0.039860222 -0.011253942 0)
(-0.036463251 -0.01555476 0)
(-0.032355115 -0.019360637 0)
(-0.028085229 -0.022648726 0)
(-0.023892554 -0.025436151 0)
(-0.014864595 -0.0281006 0)
(0.0023671047 0.0063555163 0)
(0.002560286 0.0066943847 0)
(0.0025902703 0.0070594909 0)
(0.0019694598 0.0074341381 0)
(0.002040316 0.0078937902 0)
(0.0016601591 0.0083925292 0)
(0.0013345052 0.0089393852 0)
(0.00096343926 0.009532329 0)
(0.0005271312 0.010178232 0)
(2.9207117e-05 0.01087864 0)
(-0.00053043397 0.011635068 0)
(-0.001158698 0.012451568 0)
(-0.0018598036 0.013338558 0)
(-0.0026374308 0.014302159 0)
(-0.0035008642 0.015357864 0)
(-0.0044557769 0.016526947 0)
(-0.0055112883 0.017826026 0)
(-0.0066889454 0.01928291 0)
(-0.0079842312 0.020942331 0)
(-0.0094261285 0.022814666 0)
(-0.011045518 0.024976176 0)
(-0.012851639 0.027475701 0)
(-0.014901452 0.030379656 0)
(-0.017226245 0.033753625 0)
(-0.01993763 0.037670462 0)
(-0.023156631 0.042252036 0)
(-0.026964581 0.047538818 0)
(-0.031515453 0.053564295 0)
(-0.036992588 0.060366616 0)
(-0.043602468 0.067926518 0)
(-0.051557313 0.076176051 0)
(-0.061066257 0.084981233 0)
(-0.072314475 0.094137785 0)
(-0.08543695 0.10336245 0)
(-0.10048263 0.11227962 0)
(-0.11735335 0.12042403 0)
(-0.13573349 0.12727994 0)
(-0.15502154 0.13235925 0)
(-0.17423564 0.13528069 0)
(-0.19175717 0.13563293 0)
(-0.20521195 0.13328589 0)
(-0.21283593 0.13170362 0)
(-0.21380955 0.14184165 0)
(-0.20270568 0.17035792 0)
(-0.17629149 0.18224984 0)
(-0.14045907 0.068503593 0)
(-0.048460951 -0.29626178 0)
(-0.0082828317 -0.73935203 0)
(0.094700237 -1.0837889 0)
(0.14879132 -1.164681 0)
(0.21951546 -1.1585238 0)
(0.38278097 -1.2507457 0)
(0.6056297 -1.3351434 0)
(0.85092066 -1.2415726 0)
(1.0809047 -0.97249511 0)
(1.2708494 -0.67925054 0)
(1.4152829 -0.43018855 0)
(1.5065747 -0.16142209 0)
(1.5003186 0.11159022 0)
(1.3909225 0.30651617 0)
(1.2664145 0.41996722 0)
(1.1410435 0.54130321 0)
(0.95363059 0.67700932 0)
(0.72635557 0.78359136 0)
(0.51580913 0.78679084 0)
(0.36031824 0.69061772 0)
(0.26934788 0.54825368 0)
(0.22130807 0.44569448 0)
(0.19046777 0.39438164 0)
(0.15962545 0.35886752 0)
(0.12972368 0.32322726 0)
(0.10454705 0.29001018 0)
(0.083068069 0.26101531 0)
(0.064293532 0.23526832 0)
(0.047869135 0.21202039 0)
(0.03337208 0.19078311 0)
(0.020542388 0.17137114 0)
(0.0091089685 0.15352943 0)
(-0.0011330853 0.13712708 0)
(-0.010302239 0.12199218 0)
(-0.018464077 0.10804011 0)
(-0.025690885 0.0951046 0)
(-0.032028756 0.083081841 0)
(-0.037513487 0.071866586 0)
(-0.042157578 0.061379128 0)
(-0.045981547 0.05153035 0)
(-0.048990009 0.042269076 0)
(-0.051189076 0.033538773 0)
(-0.052592892 0.025301087 0)
(-0.053202128 0.017529142 0)
(-0.053021573 0.010208003 0)
(-0.052069625 0.003334737 0)
(-0.050353394 -0.0030910643 0)
(-0.047888591 -0.0090506663 0)
(-0.044714791 -0.014521785 0)
(-0.040811863 -0.019478962 0)
(-0.036182803 -0.023895876 0)
(-0.031358397 -0.027706082 0)
(-0.026596256 -0.031023153 0)
(-0.016689357 -0.034113943 0)
(0.002598074 0.0064115439 0)
(0.0029090039 0.006797261 0)
(0.0029882119 0.0072037517 0)
(0.0024145867 0.007626393 0)
(0.0025410046 0.0081249928 0)
(0.0022172248 0.0086752909 0)
(0.001935828 0.0092759411 0)
(0.0016124903 0.0099294806 0)
(0.0012358409 0.010627792 0)
(0.00079994903 0.011384287 0)
(0.00030288207 0.012200495 0)
(-0.00025227827 0.013082811 0)
(-0.00087177975 0.014038436 0)
(-0.0015582972 0.015079409 0)
(-0.0023137022 0.016215396 0)
(-0.003134784 0.017467557 0)
(-0.0040347462 0.018856775 0)
(-0.0050210226 0.020425019 0)
(-0.0060928216 0.022193155 0)
(-0.0072643692 0.024201068 0)
(-0.0085500295 0.026517691 0)
(-0.0099621507 0.029197258 0)
(-0.011535979 0.032339737 0)
(-0.013319659 0.036001034 0)
(-0.015384805 0.04030245 0)
(-0.017842183 0.045346296 0)
(-0.020846376 0.051279901 0)
(-0.024550701 0.058126007 0)
(-0.02915602 0.065961566 0)
(-0.034931247 0.07478779 0)
(-0.042152409 0.084549872 0)
(-0.051108866 0.09510496 0)
(-0.062076553 0.10621595 0)
(-0.075297223 0.11753249 0)
(-0.090934912 0.12856336 0)
(-0.10899509 0.13866513 0)
(-0.12923835 0.14706372 0)
(-0.15105528 0.15288275 0)
(-0.1732708 0.15514724 0)
(-0.1937694 0.15264703 0)
(-0.20936175 0.14486351 0)
(-0.2181153 0.13610413 0)
(-0.22122603 0.13773452 0)
(-0.21375459 0.15218455 0)
(-0.18616983 0.13803552 0)
(-0.13871042 -0.0039129671 0)
(-0.035227363 -0.36462381 0)
(0.013723302 -0.80636537 0)
(0.073386417 -1.1424238 0)
(0.090916607 -1.191176 0)
(0.15838847 -1.2426 0)
(0.29143603 -1.4485785 0)
(0.4156864 -1.5457645 0)
(0.57082115 -1.4543027 0)
(0.78633872 -1.1956311 0)
(1.0188203 -0.88701737 0)
(1.1957452 -0.58552109 0)
(1.3045574 -0.24573193 0)
(1.3698671 0.11009047 0)
(1.3564898 0.38118955 0)
(1.2455279 0.54857152 0)
(1.0646895 0.7302232 0)
(0.83316904 0.90941109 0)
(0.60252033 1.0054308 0)
(0.4145747 0.96573394 0)
(0.27678849 0.80181644 0)
(0.19529229 0.6110164 0)
(0.15761152 0.48118743 0)
(0.13844108 0.42103148 0)
(0.11642149 0.38485253 0)
(0.092735202 0.34759985 0)
(0.072389298 0.31149002 0)
(0.054524711 0.27974252 0)
(0.03866929 0.25168158 0)
(0.0246839 0.2264487 0)
(0.01227568 0.20351864 0)
(0.0012732529 0.18266657 0)
(-0.0085936879 0.16360128 0)
(-0.017410723 0.14611734 0)
(-0.025305397 0.13003393 0)
(-0.032348759 0.11518233 0)
(-0.038585601 0.10140381 0)
(-0.044046179 0.088569739 0)
(-0.048752686 0.076562297 0)
(-0.052707496 0.065291657 0)
(-0.055914611 0.054666036 0)
(-0.05836294 0.044625663 0)
(-0.060052282 0.035115739 0)
(-0.060978929 0.026095864 0)
(-0.061129434 0.017538218 0)
(-0.06049576 0.0094343021 0)
(-0.059089249 0.0017820288 0)
(-0.056905839 -0.0053996506 0)
(-0.053952498 -0.012100326 0)
(-0.050261134 -0.018291222 0)
(-0.045811171 -0.02394008 0)
(-0.040591747 -0.028992735 0)
(-0.03516758 -0.033357526 0)
(-0.029747391 -0.037283763 0)
(-0.01885683 -0.040796951 0)
(0.0028607146 0.0063978058 0)
(0.0033000455 0.0068353903 0)
(0.003429144 0.007289241 0)
(0.0029023725 0.0077546887 0)
(0.0030871844 0.0082996406 0)
(0.0028204021 0.0088975462 0)
(0.002597756 0.0095499611 0)
(0.0023272983 0.010256458 0)
(0.0019989203 0.011014112 0)
(0.0016247351 0.011824466 0)
(0.0011984073 0.01269415 0)
(0.00071689825 0.013632675 0)
(0.00018244264 0.014644583 0)
(-0.00040548455 0.01574514 0)
(-0.0010478082 0.016943953 0)
(-0.0017393841 0.018262056 0)
(-0.0024683898 0.019713567 0)
(-0.0032559079 0.021341047 0)
(-0.0040992621 0.023186713 0)
(-0.0049805599 0.02527671 0)
(-0.0059169416 0.027679599 0)
(-0.0068877789 0.030468783 0)
(-0.0079490265 0.033749319 0)
(-0.0091096139 0.037604298 0)
(-0.010433932 0.042189273 0)
(-0.012010826 0.047609007 0)
(-0.014009657 0.054080706 0)
(-0.016649179 0.061684308 0)
(-0.020136228 0.070566713 0)
(-0.024804551 0.080717155 0)
(-0.031010526 0.092137623 0)
(-0.039148547 0.10467938 0)
(-0.049621765 0.11809337 0)
(-0.062824247 0.13199955 0)
(-0.079088247 0.1458128 0)
(-0.098599863 0.15868536 0)
(-0.12133658 0.16953211 0)
(-0.14685669 0.17691744 0)
(-0.17387235 0.17896137 0)
(-0.19969914 0.1734495 0)
(-0.22046491 0.15983952 0)
(-0.23454709 0.14422976 0)
(-0.24465665 0.13897679 0)
(-0.24450933 0.1406037 0)
(-0.21169602 0.091996443 0)
(-0.13291153 -0.10328056 0)
(-0.028100038 -0.44307448 0)
(0.049575951 -0.86173899 0)
(0.072860164 -1.1743872 0)
(0.10608705 -1.2441777 0)
(0.21653885 -1.3300407 0)
(0.30014921 -1.556069 0)
(0.31836467 -1.6288605 0)
(0.40244852 -1.6101227 0)
(0.56370535 -1.4142464 0)
(0.74554685 -1.0947375 0)
(0.89005625 -0.7192978 0)
(0.97041565 -0.31995982 0)
(1.006326 0.086321222 0)
(0.98960567 0.43417785 0)
(0.9155623 0.67930065 0)
(0.80580258 0.92929932 0)
(0.63228981 1.128011 0)
(0.45586372 1.1901426 0)
(0.31687974 1.115161 0)
(0.20436901 0.90082438 0)
(0.13156021 0.6671244 0)
(0.10087902 0.50900474 0)
(0.088124453 0.43990057 0)
(0.071418811 0.404229 0)
(0.053219631 0.36643875 0)
(0.037884909 0.32862688 0)
(0.023769248 0.29501219 0)
(0.011157852 0.26521926 0)
(-0.00010912131 0.23838215 0)
(-0.010202247 0.21415924 0)
(-0.01918928 0.19216639 0)
(-0.027300864 0.17213601 0)
(-0.034595326 0.15379219 0)
(-0.041154705 0.13691022 0)
(-0.047029397 0.12130144 0)
(-0.052245241 0.10680317 0)
(-0.056817926 0.093260554 0)
(-0.060742277 0.080551327 0)
(-0.064009476 0.068569886 0)
(-0.066603456 0.057227822 0)
(-0.068499558 0.046455138 0)
(-0.069685842 0.036196404 0)
(-0.070141935 0.026416878 0)
(-0.069838428 0.017089055 0)
(-0.068756721 0.0082057662 0)
(-0.066882218 -0.00023385563 0)
(-0.064211944 -0.0081997778 0)
(-0.060755246 -0.015672835 0)
(-0.056524476 -0.02261862 0)
(-0.051483194 -0.029000789 0)
(-0.045607761 -0.034720061 0)
(-0.039566013 -0.039700166 0)
(-0.03337926 -0.04429835 0)
(-0.021390236 -0.048240701 0)
(0.0031616381 0.0063124979 0)
(0.0037352709 0.0068079835 0)
(0.0039180402 0.0073114791 0)
(0.0034382519 0.0078264229 0)
(0.0036823796 0.0084187199 0)
(0.0034780707 0.0090686192 0)
(0.0033046353 0.009771841 0)
(0.0030893326 0.010527389 0)
(0.0028223274 0.011337821 0)
(0.0025052834 0.012197849 0)
(0.0021440293 0.013113607 0)
(0.0017397355 0.014099049 0)
(0.0012912997 0.015161143 0)
(0.00080166981 0.016302858 0)
(0.00027501465 0.017546665 0)
(-0.00028169441 0.018901703 0)
(-0.00086069987 0.020398147 0)
(-0.0014401148 0.022042565 0)
(-0.0020365973 0.023905742 0)
(-0.0026386167 0.026026019 0)
(-0.0032137254 0.028442675 0)
(-0.0037381425 0.031256463 0)
(-0.0042345239 0.034556307 0)
(-0.0047070729 0.038497397 0)
(-0.005202006 0.043207109 0)
(-0.0057641051 0.048891879 0)
(-0.0065707978 0.05576594 0)
(-0.0078485645 0.064009009 0)
(-0.0098951079 0.073855927 0)
(-0.013119097 0.085384196 0)
(-0.017929672 0.098589985 0)
(-0.024873117 0.11338491 0)
(-0.034466314 0.12952995 0)
(-0.047294626 0.14659189 0)
(-0.063993098 0.16391155 0)
(-0.085075896 0.18049027 0)
(-0.1109286 0.195031 0)
(-0.14147807 0.20550918 0)
(-0.17535744 0.2087287 0)
(-0.20945221 0.20106981 0)
(-0.24022426 0.18244452 0)
(-0.26677177 0.16195701 0)
(-0.28688695 0.14977289 0)
(-0.28234667 0.12551157 0)
(-0.22297364 0.020086351 0)
(-0.10571751 -0.22564879 0)
(0.01220369 -0.54036331 0)
(0.11254282 -0.90948044 0)
(0.12893224 -1.2063232 0)
(0.16642027 -1.3455159 0)
(0.30075916 -1.4288673 0)
(0.34742657 -1.565289 0)
(0.2840571 -1.6165122 0)
(0.27823612 -1.6953961 0)
(0.34258706 -1.5506335 0)
(0.44797222 -1.2147993 0)
(0.5229078 -0.79032167 0)
(0.55487527 -0.34164115 0)
(0.56277007 0.10591081 0)
(0.53134348 0.48705185 0)
(0.47714952 0.74556919 0)
(0.4529066 1.0539943 0)
(0.3601815 1.2736103 0)
(0.26571003 1.2971209 0)
(0.1961651 1.2170876 0)
(0.11970352 0.97875312 0)
(0.069745471 0.71528372 0)
(0.050691302 0.53171047 0)
(0.040711632 0.45523407 0)
(0.025876494 0.41987179 0)
(0.012765569 0.38061989 0)
(0.0019820359 0.34149095 0)
(-0.008509784 0.30673905 0)
(-0.017740016 0.27573026 0)
(-0.026118155 0.24777863 0)
(-0.033698314 0.22262158 0)
(-0.040568454 0.19981688 0)
(-0.046833971 0.17904752 0)
(-0.052528575 0.16003633 0)
(-0.057707486 0.14253117 0)
(-0.06238436 0.12632607 0)
(-0.06656598 0.11123962 0)
(-0.070245365 0.097108223 0)
(-0.073394219 0.08379858 0)
(-0.075985506 0.071195001 0)
(-0.077983872 0.05920436 0)
(-0.079352364 0.04775457 0)
(-0.080055698 0.036786189 0)
(-0.080055813 0.026268493 0)
(-0.079311805 0.016185036 0)
(-0.077792687 0.0065206432 0)
(-0.075467687 -0.0027134387 0)
(-0.072316165 -0.011493761 0)
(-0.0683414 -0.019777963 0)
(-0.063550324 -0.027527168 0)
(-0.057872533 -0.034689699 0)
(-0.051295814 -0.041130944 0)
(-0.044604649 -0.046808671 0)
(-0.03752464 -0.05213445 0)
(-0.02434591 -0.056531935 0)
(0.0035033897 0.0061574735 0)
(0.0042185131 0.0067121925 0)
(0.004457712 0.0072743262 0)
(0.0040240145 0.0078388947 0)
(0.0043280521 0.0084859592 0)
(0.0041845916 0.0091831358 0)
(0.004066283 0.0099359589 0)
(0.0039065287 0.010744097 0)
(0.0036887649 0.011601863 0)
(0.003427771 0.012508931 0)
(0.0031348607 0.013470533 0)
(0.0028092777 0.014491799 0)
(0.0024414678 0.015586807 0)
(0.0020465365 0.01675997 0)
(0.0016298591 0.018028387 0)
(0.0012044062 0.019399661 0)
(0.00077791137 0.020896673 0)
(0.00037120844 0.022551385 0)
(1.9350572e-05 0.024365388 0)
(-0.00029524738 0.026441246 0)
(-0.00052566921 0.028804758 0)
(-0.00060335058 0.031532097 0)
(-0.00052296691 0.034737405 0)
(-0.00026711646 0.038592937 0)
(0.00015680347 0.043261152 0)
(0.00074961731 0.048999595 0)
(0.0013273843 0.056102001 0)
(0.0016790228 0.064836842 0)
(0.0015032371 0.075525665 0)
(0.00020392297 0.088412243 0)
(-0.002730895 0.10352832 0)
(-0.0079184091 0.12080573 0)
(-0.016119628 0.14006591 0)
(-0.028170093 0.16098125 0)
(-0.045006054 0.18296187 0)
(-0.067429069 0.20495161 0)
(-0.096375696 0.22538619 0)
(-0.13274706 0.2412949 0)
(-0.17582506 0.24776915 0)
(-0.22330894 0.24037909 0)