/*--------------------------------*- C++ -*----------------------------------*\
  =========                 |
  \\      /  F ield         | OpenFOAM: The Open Source CFD Toolbox
   \\    /   O peration     | Website:  https://openfoam.org
    \\  /    A nd           | Version:  9
     \\/     M anipulation  |
\*---------------------------------------------------------------------------*/
FoamFile
{
    format      ascii;
    class       volScalarField;
    location    "0.43";
    object      p_rgh;
}
// * * * * * * * * * * * * * * * * * * * * * * * * * * * * * * * * * * * * * //

dimensions      [1 -1 -2 0 0 0 0];

internalField   nonuniform List<scalar> 
10000
(
0
-0.014320753
-0.043871879
-0.084350284
-0.13759466
-0.20359759
-0.28242734
-0.37424426
-0.47907427
-0.5970867
-0.72828056
-0.87274234
-1.0305723
-1.201751
-1.3863134
-1.5842154
-1.7953191
-2.0195198
-2.2566227
-2.5062931
-2.7681496
-3.0417073
-3.326346
-3.621383
-3.9260241
-4.2392722
-4.5599443
-4.8866728
-5.2180523
-5.5546723
-5.8951987
-6.2365771
-6.5773489
-6.9163378
-7.2523107
-7.5839863
-7.9101746
-8.2298166
-8.5419784
-8.8459027
-9.1410305
-9.4269823
-9.7035585
-9.9707099
-10.22848
-10.477041
-10.716705
-10.94785
-11.170592
-11.386297
-11.59506
-11.797472
-11.994091
-12.185458
-12.372054
-12.554304
-12.732588
-12.907155
-13.078112
-13.245508
-13.409236
-13.569075
-13.724839
-13.876305
-14.023169
-14.165226
-14.30217
-14.433657
-14.559146
-14.679075
-14.793247
-14.90183
-15.005017
-15.103064
-15.196376
-15.285247
-15.369955
-15.450718
-15.52772
-15.601167
-15.671237
-15.737985
-15.801555
-15.86197
-15.919256
-15.973413
-16.024419
-16.072228
-16.116773
-16.158019
-16.195856
-16.230209
-16.261009
-16.288134
-16.311514
-16.331084
-16.346771
-16.358504
-16.364568
-16.37002
0.011253102
-0.0030731657
-0.032654716
-0.073113905
-0.12634466
-0.19231768
-0.27118689
-0.3629514
-0.46781228
-0.58577883
-0.71693245
-0.86140725
-1.0192016
-1.1903908
-1.3749985
-1.5729246
-1.7841185
-2.0084806
-2.2457676
-2.4956901
-2.7578821
-3.0318369
-3.3169777
-3.6126623
-3.918081
-4.2322551
-4.5541196
-4.8825279
-5.2163276
-5.5546506
-5.8962595
-6.2391597
-6.5817283
-6.9225362
-7.2602295
-7.5934543
-7.9209314
-8.2415609
-8.5544477
-8.8588249
-9.1540908
-9.4398932
-9.7160693
-9.9826192
-10.239641
-10.487333
-10.726069
-10.956284
-11.178123
-11.392927
-11.600875
-11.802576
-11.998618
-12.189563
-12.375909
-12.558059
-12.736389
-12.911163
-13.082417
-13.250132
-13.414217
-13.57443
-13.730528
-13.882254
-14.029272
-14.171321
-14.308158
-14.439456
-14.564977
-14.684696
-14.798835
-14.907498
-15.010864
-15.10914
-15.20266
-15.291685
-15.376485
-15.457313
-15.534393
-15.607903
-15.678013
-15.744823
-15.808426
-15.868874
-15.926193
-15.980348
-16.031348
-16.079139
-16.123664
-16.164886
-16.202701
-16.237018
-16.267768
-16.294859
-16.318217
-16.337758
-16.353402
-16.365126
-16.371149
-16.376631
0.03861851
0.024262447
-0.0053157124
-0.045693357
-0.09880724
-0.16472841
-0.24345273
-0.33517187
-0.43991399
-0.55775643
-0.68886496
-0.83326788
-0.99106256
-1.1623347
-1.3470479
-1.5451968
-1.7567645
-1.981601
-2.2195102
-2.4702434
-2.7334289
-3.0085898
-3.2952093
-3.5926416
-3.9000874
-4.2166295
-4.5412455
-4.8727944
-5.2100862
-5.5519051
-5.8967513
-6.2430271
-6.5890856
-6.933364
-7.2743494
-7.6105877
-7.9407317
-8.2636063
-8.5782551
-8.8839039
-9.1799968
-9.4662074
-9.7423878
-10.008573
-10.264936
-10.511736
-10.749409
-10.978452
-11.199112
-11.412601
-11.619226
-11.819664
-12.014529
-12.20438
-12.389806
-12.571287
-12.749157
-12.92366
-13.094837
-13.262644
-13.426924
-13.587416
-13.743785
-13.895691
-14.042745
-14.184691
-14.321263
-14.4521
-14.577051
-14.696237
-14.809784
-14.917878
-15.020698
-15.118462
-15.211471
-15.300004
-15.384372
-15.464821
-15.541557
-15.614811
-15.684696
-15.751344
-15.814844
-15.875234
-15.932502
-15.986643
-16.037671
-16.085534
-16.130137
-16.171431
-16.20933
-16.243743
-16.274588
-16.301791
-16.325245
-16.344877
-16.360626
-16.372434
-16.378436
-16.384
0.076855121
0.062486445
0.03294219
-0.0072888427
-0.060295695
-0.12598798
-0.20455711
-0.29605991
-0.40056514
-0.51825123
-0.64917228
-0.79343839
-0.95118784
-1.1224664
-1.3073126
-1.5057675
-1.7177662
-1.9432032
-2.1819516
-2.4337723
-2.6983138
-2.9751794
-3.2638643
-3.5637198
-3.8739876
-4.193789
-4.5220802
-4.8576861
-5.1993667
-5.5458277
-5.895447
-6.2465988
-6.597587
-6.9467164
-7.2923032
-7.6327444
-7.9665902
-8.2925843
-8.6096741
-8.9170468
-9.2141705
-9.5007988
-9.7768463
-10.042394
-10.297726
-10.543231
-10.779387
-11.006694
-11.225614
-11.437117
-11.641759
-11.840243
-12.033264
-12.221487
-12.405566
-12.586039
-12.763275
-12.937468
-13.108706
-13.276897
-13.441744
-13.602895
-13.759976
-13.912562
-14.060178
-14.202448
-14.33913
-14.469935
-14.594767
-14.713689
-14.826828
-14.934369
-15.03657
-15.133692
-15.226061
-15.313978
-15.397774
-15.477698
-15.554017
-15.626878
-15.696474
-15.762918
-15.826262
-15.886573
-15.943792
-15.99797
-16.049067
-16.097043
-16.141777
-16.183206
-16.221265
-16.255844
-16.286843
-16.314193
-16.337806
-16.357582
-16.373454
-16.385378
-16.391364
-16.396722
0.12730848
0.11294108
0.083514434
0.04343378
-0.009292465
-0.074751916
-0.15300959
-0.24415379
-0.34837126
-0.46574035
-0.59637695
-0.74045352
-0.89806681
-1.0693142
-1.2543114
-1.453078
-1.6655759
-1.8917729
-2.1315646
-2.3847447
-2.6510388
-2.9300878
-3.221405
-3.5243944
-3.8383446
-4.1623813
-4.4954537
-4.8363888
-5.1838923
-5.5365032
-5.8926389
-6.2504592
-6.6081454
-6.9638445
-7.3156845
-7.6618671
-8.0007858
-8.3310343
-8.6514496
-8.9612023
-9.2597894
-9.5470152
-9.8229056
-10.087666
-10.34172
-10.585572
-10.819743
-11.044798
-11.26136
-11.470329
-11.672348
-11.868186
-12.058673
-12.244617
-12.426757
-12.605718
-12.781961
-12.955695
-13.126932
-13.295553
-13.461167
-13.623277
-13.781359
-13.934889
-14.083302
-14.226138
-14.36304
-14.493822
-14.618448
-14.736906
-14.849416
-14.956182
-15.057514
-15.153754
-15.245253
-15.332313
-15.415326
-15.494555
-15.5703
-15.642699
-15.711935
-15.778109
-15.841276
-15.901483
-15.958734
-16.012988
-16.064191
-16.112318
-16.157249
-16.19888
-16.237143
-16.271928
-16.303143
-16.330716
-16.354531
-16.374495
-16.390584
-16.402733
-16.408952
-16.414988
0.19010876
0.17579324
0.14651418
0.106786
0.054359457
-0.010713587
-0.088512546
-0.17923678
-0.28299951
-0.39992742
-0.53020399
-0.67395961
-0.83134034
-1.0025283
-1.1876323
-1.3866904
-1.5997515
-1.8268247
-2.0678374
-2.3226598
-2.5910815
-2.8727786
-3.167325
-3.474193
-3.7926997
-4.1219816
-4.4610211
-4.8086428
-5.1634585
-5.5238488
-5.8882915
-6.2546521
-6.6209363
-6.9850819
-7.344982
-7.6985683
-8.0439951
-8.3796529
-8.7042579
-9.016958
-9.3172863
-9.6051316
-9.8806966
-10.144384
-10.39677
-10.638481
-10.870142
-11.092408
-11.305959
-11.511662
-11.710267
-11.902647
-12.089784
-12.272666
-12.452209
-12.629148
-12.804051
-12.977201
-13.148556
-13.317897
-13.484669
-13.648227
-13.807831
-13.962768
-14.112332
-14.256042
-14.393422
-14.52427
-14.648547
-14.766345
-14.877935
-14.983619
-15.083758
-15.178753
-15.269003
-15.35493
-15.436874
-15.515176
-15.590145
-15.661928
-15.7307
-15.79654
-15.859524
-15.919641
-15.976902
-16.031252
-16.08264
-16.130988
-16.176186
-16.21811
-16.256644
-16.291716
-16.32323
-16.35107
-16.375156
-16.395378
-16.411749
-16.424174
-16.430614
-16.437064
0.26493454
0.25077054
0.22186837
0.18251909
0.13055354
0.066021879
-0.011250208
-0.10139522
-0.20456281
-0.32095232
-0.4507072
-0.59399586
-0.75105739
-0.92208427
-1.1071976
-1.3065201
-1.5201564
-1.7481573
-1.9905313
-2.2472279
-2.5180876
-2.8028523
-3.1011855
-3.4126187
-3.7365052
-4.072038
-4.4182376
-4.7739144
-5.1376318
-5.5077717
-5.8822343
-6.2591283
-6.636128
-7.0108494
-7.3808542
-7.7437381
-8.0973021
-8.439671
-8.7694082
-9.0856018
-9.3878428
-9.6761886
-9.9510982
-10.213241
-10.463416
-10.702442
-10.931052
-11.149939
-11.359788
-11.56146
-11.755782
-11.943752
-12.12655
-12.305413
-12.481528
-12.655836
-12.829021
-13.001485
-13.173166
-13.343642
-13.512161
-13.677814
-13.839577
-13.996499
-14.147721
-14.292602
-14.430639
-14.56158
-14.685437
-14.802374
-14.912775
-15.017031
-15.11557
-15.208906
-15.297542
-15.38197
-15.462584
-15.539707
-15.613674
-15.684681
-15.752837
-15.818298
-15.881043
-15.941089
-15.998407
-16.052928
-16.104547
-16.153181
-16.198719
-16.24099
-16.27989
-16.315346
-16.347221
-16.375403
-16.399809
-16.420355
-16.437024
-16.449743
-16.456403
-16.463213
0.35144608
0.33791896
0.30943128
0.27061329
0.21924785
0.15532118
0.078733906
-0.010685
-0.1131475
-0.22881485
-0.35786016
-0.5005458
-0.65713204
-0.82782596
-1.01283
-1.2123324
-1.4264819
-1.6554128
-1.8992281
-2.1579426
-2.4314748
-2.7196688
-3.0222696
-3.3388776
-3.6689337
-4.0117115
-4.3662697
-4.7314007
-5.1056261
-5.4872011
-5.8740194
-6.2637758
-6.6539104
-7.0416642
-7.4241576
-7.7985435
-8.1621583
-8.5127347
-8.8485879
-9.1687323
-9.4728837
-9.7613658
-10.035002
-10.294892
-10.542188
-10.777925
-11.002897
-11.217782
-11.423271
-11.620086
-11.809114
-11.991527
-12.168799
-12.342469
-12.514065
-12.684929
-12.855983
-13.027678
-13.199989
-13.372258
-13.543399
-13.712086
-13.876911
-14.036614
-14.190101
-14.336547
-14.475431
-14.606443
-14.729702
-14.845488
-14.954272
-15.056588
-15.15309
-15.244315
-15.330921
-15.413451
-15.49236
-15.568027
-15.640761
-15.710826
-15.77831
-15.843304
-15.905813
-15.96582
-16.023223
-16.077968
-16.12992
-16.178921
-16.224862
-16.267583
-16.306947
-16.342867
-16.375171
-16.403778
-16.428568
-16.449462
-16.466442
-16.479484
-16.486383
-16.493497
0.45061717
0.43741513
0.40927223
0.37106098
0.3203378
0.25716606
0.18141082
0.092836933
-0.0087231152
-0.12344732
-0.25160725
-0.39349133
-0.54937395
-0.71954144
-0.9042656
-1.103782
-1.3183234
-1.5481271
-1.7933777
-2.054172
-2.3305402
-2.6224374
-2.9296987
-3.2520342
-3.5890147
-3.9400063
-4.3041141
-4.6801577
-5.0666567
-5.4617792
-5.8632498
-6.2684517
-6.6744814
-7.0781257
-7.4759646
-7.8645205
-8.2404728
-8.6009789
-8.9439864
-9.2684179
-9.5741837
-9.8620381
-10.133404
-10.390034
-10.633583
-10.865325
-11.086107
-11.296501
-11.496992
-11.688087
-11.870713
-12.046201
-12.216374
-12.383283
-12.548973
-12.715308
-12.883636
-13.054554
-13.228004
-13.403012
-13.577989
-13.751077
-13.920264
-14.083836
-14.240372
-14.388892
-14.528784
-14.659801
-14.782153
-14.896311
-15.002905
-15.102696
-15.196492
-15.285047
-15.369072
-15.449219
-15.526016
-15.599913
-15.671248
-15.740198
-15.806911
-15.871416
-15.933718
-15.993696
-16.051275
-16.106339
-16.158699
-16.208177
-16.254631
-16.297901
-16.337827
-16.37428
-16.40712
-16.436199
-16.46141
-16.482679
-16.500023
-16.513425
-16.520723
-16.527782
0.56211913
0.54920418
0.52129276
0.48371407
0.43376634
0.37148365
0.29667382
0.20915207
0.10873213
-0.0048491211
-0.13189114
-0.27270323
-0.42763228
-0.59703286
-0.78122417
-0.98052419
-1.1952769
-1.4258044
-1.6723796
-1.9352233
-2.2144901
-2.5102474
-2.8224665
-3.1510127
-3.495598
-3.8557033
-4.2305346
-4.6190008
-5.019644
-5.430539
-5.8492325
-6.2728188
-6.6979734
-7.12094
-7.5375941
-7.9435805
-8.3346499
-8.7071533
-9.058475
-9.3873447
-9.6939694
-9.9798532
-10.24738
-10.499253
-10.737876
-10.964898
-11.181135
-11.386778
-11.581835
-11.766382
-11.941385
-12.108232
-12.269247
-12.427246
-12.585061
-12.745324
-12.910095
-13.080305
-13.255732
-13.434962
-13.61566
-13.795023
-13.970277
-14.139118
-14.299725
-14.450884
-14.591956
-14.722798
-14.843775
-14.955659
-15.059317
-15.155789
-15.246066
-15.331142
-15.411933
-15.489145
-15.563403
-15.63521
-15.704886
-15.772616
-15.838473
-15.902472
-15.964578
-16.024624
-16.082469
-16.137931
-16.190819
-16.240915
-16.288013
-16.331949
-16.372559
-16.409663
-16.443104
-16.472705
-16.49839
-16.520058
-16.537783
-16.551449
-16.559093
-16.566494
0.68555481
0.67294667
0.64521344
0.60847466
0.55942014
0.49812255
0.42445876
0.33822782
0.23916328
0.1269757
0.0013515183
-0.13809505
-0.29177616
-0.46008595
-0.64342443
-0.84221824
-1.0569031
-1.2878948
-1.5355878
-1.8003382
-2.0824301
-2.3820783
-2.6994389
-3.0345576
-3.3873057
-3.7573346
-4.1440278
-4.5464296
-4.9631374
-5.3921932
-5.8310078
-6.2763515
-6.7244139
-7.170812
-7.6105361
-8.0380681
-8.4478329
-8.8349273
-9.1958488
-9.5290238
-9.8351054
-10.116759
-10.377897
-10.62277
-10.854975
-11.076654
-11.288349
-11.489473
-11.679069
-11.856564
-12.022453
-12.178455
-12.327581
-12.47365
-12.620751
-12.772784
-12.932752
-13.102232
-13.280959
-13.466726
-13.655937
-13.844384
-14.028146
-14.204055
-14.369944
-14.524377
-14.666694
-14.796972
-14.915906
-15.024534
-15.124194
-15.216234
-15.302003
-15.382711
-15.459436
-15.533076
-15.604303
-15.67364
-15.741431
-15.807795
-15.872738
-15.936288
-15.998264
-16.058472
-16.116716
-16.172736
-16.226303
-16.277145
-16.325029
-16.369775
-16.411179
-16.449031
-16.483154
-16.51337
-16.539583
-16.561673
-16.579735
-16.593443
-16.602005
-16.609308
0.82065483
0.80795011
0.78093796
0.74520999
0.69710153
0.63696838
0.56467589
0.47994755
0.38249984
0.27202243
0.14813398
0.010389728
-0.14166292
-0.3084897
-0.49059595
-0.6885025
-0.90273118
-1.133822
-1.3823098
-1.6486841
-1.9333859
-2.2368232
-2.5593567
-2.9012328
-3.2625368
-3.6431662
-4.042753
-4.4605388
-4.895269
-5.3450661
-5.8072411
-6.278222
-6.7536355
-7.2283754
-7.6964646
-8.1509061
-8.5841126
-8.9891867
-9.3612575
-9.6982482
-10.001349
-10.274949
-10.525559
-10.760082
-10.983984
-11.199987
-11.407952
-11.605788
-11.790773
-11.960975
-12.11618
-12.258401
-12.391771
-12.521713
-12.654042
-12.794516
-12.947804
-13.116551
-13.300488
-13.496274
-13.69826
-13.899879
-14.095507
-14.281038
-14.453723
-14.611989
-14.755388
-14.884378
-15.000133
-15.10422
-15.198446
-15.284648
-15.364519
-15.439668
-15.511369
-15.580658
-15.648326
-15.714837
-15.780509
-15.845398
-15.909466
-15.972592
-16.034549
-16.095096
-16.153921
-16.210687
-16.265107
-16.316875
-16.365736
-16.411442
-16.453766
-16.49247
-16.527357
-16.55827
-16.585049
-16.607573
-16.626056
-16.639912
-16.64908
-16.656166
0.96641504
0.9540957
0.92863172
0.89370831
0.84664297
0.78786327
0.71713856
0.6341719
0.53866193
0.43022715
0.30843436
0.17281033
0.022833308
-0.14206402
-0.32247341
-0.51900095
-0.73228542
-0.96300277
-1.2118192
-1.4793782
-1.7663229
-2.0732775
-2.4008149
-2.7494228
-3.1194725
-3.5111779
-3.9244953
-4.3589746
-4.8136625
-5.2869305
-5.7761041
-6.2772112
-6.7851511
-7.2940796
-7.7971789
-8.2856137
-8.7487431
-9.1765464
-9.5619267
-9.9017505
-10.197728
-10.456919
-10.690252
-10.909212
-11.12239
-11.33319
-11.539877
-11.737442
-11.920092
-12.083512
-12.226276
-12.350746
-12.462922
-12.570638
-12.68222
-12.806035
-12.949523
-13.117354
-13.309547
-13.520801
-13.742075
-13.962859
-14.174937
-14.373384
-14.554866
-14.717455
-14.8613
-14.987818
-15.098723
-15.196341
-15.283093
-15.361446
-15.433695
-15.501829
-15.567388
-15.631515
-15.695003
-15.758337
-15.821701
-15.885059
-15.948296
-16.011143
-16.07329
-16.134387
-16.194008
-16.251758
-16.307252
-16.360164
-16.41018
-16.457023
-16.500416
-16.540095
-16.575851
-16.607518
-16.634934
-16.657976
-16.676758
-16.690808
-16.700467
-16.707281
1.1232295
1.1116774
1.0876521
1.0533418
1.0077529
0.95054002
0.88164521
0.80074932
0.70750522
0.60148028
0.48222108
0.34919617
0.20178619
0.039343828
-0.1388007
-0.33336
-0.54510289
-0.77483317
-1.0233629
-1.2915225
-1.5801688
-1.8901494
-2.2222797
-2.5773444
-2.9560636
-3.3590327
-3.7866346
-4.2388982
-4.715367
-5.2148925
-5.7350861
-6.2715719
-6.8180788
-7.3680042
-7.9143255
-8.4462548
-8.9485691
-9.4061153
-9.8082072
-10.149369
-10.431425
-10.665574
-10.870329
-11.065401
-11.264857
-11.472678
-11.68358
-11.887127
-12.07223
-12.230522
-12.358704
-12.459883
-12.543216
-12.619976
-12.701899
-12.801038
-12.92933
-13.095496
-13.300656
-13.536372
-13.787299
-14.036168
-14.270781
-14.486317
-14.678856
-14.845886
-14.988855
-15.11085
-15.214437
-15.302775
-15.379202
-15.447138
-15.509546
-15.568865
-15.626924
-15.684948
-15.743683
-15.80351
-15.864439
-15.926323
-15.988882
-16.0517
-16.114315
-16.176234
-16.23694
-16.295959
-16.352794
-16.407106
-16.458488
-16.506648
-16.551258
-16.592035
-16.628731
-16.661207
-16.689322
-16.712946
-16.732098
-16.746312
-16.756299
-16.762798
1.2911814
1.2803832
1.2574995
1.2242536
1.1801614
1.1247522
1.0579877
0.97945724
0.88883265
0.78565684
0.66941617
0.53950376
0.39522439
0.23585668
0.06063708
-0.13126408
-0.34073545
-0.5687162
-0.8161957
-1.0842089
-1.3738158
-1.6860951
-2.0221474
-2.3830982
-2.7700626
-3.184101
-3.626158
-4.0969264
-4.5966954
-5.1251953
-5.6808763
-6.2591218
-6.8515346
-7.4498678
-8.0487133
-8.6371517
-9.1924381
-9.6905522
-10.115457
-10.456453
-10.713593
-10.904356
-11.061026
-11.218679
-11.401002
-11.611719
-11.837911
-12.059177
-12.255567
-12.412298
-12.523157
-12.592717
-12.636248
-12.669914
-12.709292
-12.77084
-12.874199
-13.036522
-13.262149
-13.537263
-13.834901
-14.12543
-14.390231
-14.628739
-14.834587
-15.004622
-15.143947
-15.258216
-15.350912
-15.425896
-15.488005
-15.541946
-15.591682
-15.640066
-15.689118
-15.740056
-15.793493
-15.849561
-15.908096
-15.96869
-16.030848
-16.093969
-16.157406
-16.220506
-16.282671
-16.343296
-16.401816
-16.457802
-16.510811
-16.56049
-16.606479
-16.64855
-16.686098
-16.719549
-16.748416
-16.772634
-16.792154
-16.806549
-16.816782
-16.822885
1.4700382
1.4598398
1.4381078
1.4060649
1.3635687
1.3102441
1.2458722
1.1700033
1.0824204
0.98256747
0.86985655
0.74362309
0.60312687
0.44754351
0.27600189
0.087570719
-0.11876326
-0.34410325
-0.58962121
-0.85654452
-1.1461452
-1.4597569
-1.798785
-2.1647142
-2.5590908
-2.9835184
-3.4396467
-3.9290652
-4.453098
-5.0127908
-5.6086032
-6.2372376
-6.8857515
-7.5383844
-8.2001713
-8.8627685
-9.4914503
-10.047268
-10.50688
-10.847813
-11.062683
-11.177873
-11.251632
-11.349012
-11.511278
-11.738748
-12.00158
-12.261105
-12.483931
-12.645785
-12.735732
-12.760341
-12.748102
-12.722662
-12.701522
-12.704093
-12.763794
-12.916424
-13.174886
-13.515384
-13.88866
-14.241495
-14.543709
-14.813841
-15.036436
-15.205295
-15.334948
-15.436841
-15.513337
-15.568518
-15.610458
-15.645789
-15.679296
-15.714229
-15.752627
-15.795564
-15.843276
-15.895559
-15.951916
-16.011581
-16.073788
-16.137704
-16.20244
-16.2672
-16.331266
-16.39389
-16.454455
-16.512421
-16.567316
-16.618722
-16.66624
-16.709617
-16.748491
-16.782811
-16.812408
-16.837202
-16.857081
-16.871669
-16.882073
-16.887736
1.6594911
1.6497238
1.6290873
1.5983393
1.557654
1.5065782
1.4448477
1.3721087
1.2879752
1.1919137
1.0832959
0.96139283
0.82539499
0.67439134
0.50739665
0.3233713
0.12115866
-0.10051443
-0.34299674
-0.60769201
-0.89609909
-1.2098225
-1.5505717
-1.9202007
-2.3207185
-2.7543196
-3.2234728
-3.7309168
-4.279322
-4.8713839
-5.511614
-6.203265
-6.9253868
-7.6359043
-8.3739398
-9.1298737
-9.8615563
-10.49979
-11.01711
-11.364775
-11.511649
-11.493305
-11.41897
-11.41642
-11.559588
-11.835232
-12.174862
-12.506657
-12.780301
-12.958918
-13.022896
-12.977773
-12.886445
-12.784277
-12.680772
-12.588022
-12.5655
-12.693489
-13.006775
-13.460447
-13.960837
-14.405439
-14.751597
-15.05838
-15.300519
-15.463211
-15.575072
-15.657208
-15.708345
-15.733763
-15.747184
-15.757762
-15.770701
-15.789384
-15.815564
-15.849778
-15.891651
-15.940412
-15.995033
-16.054371
-16.117277
-16.182635
-16.249328
-16.316373
-16.382867
-16.447971
-16.510979
-16.571267
-16.628314
-16.681651
-16.730918
-16.775762
-16.815911
-16.851215
-16.88155
-16.906867
-16.927062
-16.941835
-16.952304
-16.957538
1.8590681
1.8495497
1.8300275
1.8006717
1.7619144
1.7132926
1.6545267
1.5852591
1.5050373
1.4133079
1.3094089
1.192551
1.0618424
0.91629869
0.75483049
0.57625118
0.3792621
0.1624369
-0.075758225
-0.33690931
-0.62273506
-0.93508878
-1.2759796
-1.6476326
-2.0525322
-2.4934714
-2.9737086
-3.497271
-4.0688264
-4.6933092
-5.3807232
-6.1507657
-6.9927409
-7.7506233
-8.5325778
-9.4347231
-10.323387
-11.073739
-11.697843
-12.081381
-12.126305
-11.864063
-11.511532
-11.339836
-11.480271
-11.874709
-12.364555
-12.819743
-13.180448
-13.391052
-13.417628
-13.2553
-13.052352
-12.866798
-12.666236
-12.413811
-12.224795
-12.290288
-12.701313
-13.363411
-14.090026
-14.663502
-14.99011
-15.260106
-15.595509
-15.794252
-15.884807
-15.941444
-15.947478
-15.924227
-15.897215
-15.875303
-15.862714
-15.862368
-15.87513
-15.900366
-15.936789
-15.982753
-16.036533
-16.096476
-16.161008
-16.22867
-16.298126
-16.368152
-16.43769
-16.505824
-16.571725
-16.634713
-16.694223
-16.74974
-16.800873
-16.847284
-16.888742
-16.925065
-16.956128
-16.981915
-17.002336
-17.017213
-17.027587
-17.032406
2.0682111
2.0588256
2.0403872
2.0124906
1.9757923
1.9298574
1.8743529
1.808913
1.7330773
1.6462631
1.5477537
1.4367041
1.3121441
1.1730518
1.0181824
0.84618493
0.65565131
0.44500455
0.2125176
-0.043593726
-0.32524173
-0.63449933
-0.97366513
-1.3453001
-1.7523353
-2.1981812
-2.6868197
-3.2234086
-3.8149073
-4.4693858
-5.1997736
-6.0333544
-6.8700667
-5.990726
-5.5173229
-8.4672491
-10.784434
-11.787986
-12.641465
-13.137033
-13.044623
-12.320785
-11.412582
-10.951474
-11.157507
-11.831639
-12.601318
-13.24356
-13.740826
-14.008107
-13.988598
-13.634044
-13.245838
-13.009621
-12.734449
-12.195938
-11.643203
-11.550598
-12.153643
-13.233601
-14.389824
-14.989769
-14.999167
-15.213459
-15.408845
-16.030218
-16.272052
-16.314134
-16.240769
-16.141294
-16.057344
-15.993334
-15.950021
-15.928456
-15.927446
-15.944413
-15.976573
-16.021121
-16.075507
-16.137419
-16.204804
-16.275886
-16.349063
-16.422883
-16.49618
-16.567925
-16.637189
-16.703275
-16.765544
-16.823466
-16.876609
-16.924673
-16.96743
-17.004721
-17.036469
-17.062654
-17.083186
-17.098015
-17.108109
-17.11226
2.2863208
2.2769653
2.2595026
2.2331569
2.1986595
2.1556198
2.1036641
2.0424347
1.9714746
1.8901632
1.7977461
1.6933125
1.575811
1.4442591
1.297168
1.1330089
0.95029238
0.74728391
0.5220758
0.27268413
-0.0029817491
-0.3071981
-0.64250966
-1.0117504
-1.4182066
-1.8658096
-2.358986
-2.903457
-3.5094883
-4.1917115
-4.9563977
-5.7917737
-5.7152901
-4.5293096
-5.6580938
-7.2181118
-10.425501
-12.654441
-13.952324
-14.769091
-14.573599
-12.953523
-10.86575
-9.8942575
-10.393199
-11.728851
-12.991179
-13.889851
-14.559765
-14.941011
-14.978306
-14.236017
-13.438928
-13.34385
-13.140332
-12.040846
-10.622314
-10.124244
-11.153829
-13.144894
-15.139725
-15.698118
-15.959135
-15.972412
-16.000706
-16.077455
-16.589591
-16.868166
-16.613636
-16.38254
-16.216935
-16.101047
-16.023631
-15.980659
-15.967408
-15.978381
-16.008693
-16.054179
-16.111269
-16.176969
-16.248759
-16.32458
-16.402565
-16.481119
-16.558977
-16.634965
-16.708133
-16.777675
-16.842966
-16.903461
-16.958736
-17.008496
-17.052519
-17.090692
-17.122996
-17.149431
-17.169905
-17.184504
-17.194054
-17.197016
2.5127438
2.5032887
2.4866861
2.4619596
2.4297638
2.3897948
2.3416836
2.2850707
2.2194684
2.1442506
2.0586517
1.9617169
1.852322
1.7291261
1.5913433
1.4363734
1.2629867
1.0692058
0.85297915
0.61214655
0.34444309
0.047402975
-0.28168432
-0.64584659
-1.0486356
-1.4944392
-1.9880517
-2.5361366
-3.1554146
-3.8629668
-4.6350696
-5.4791748
-5.7842912
-4.8267901
-5.7662966
-7.155756
-10.949009
-13.670391
-15.691339
-17.401996
-17.505573
-14.078859
-9.2848184
-7.4020923
-8.8174262
-11.777107
-13.809008
-14.75447
-15.750119
-16.239071
-16.721709
-14.737606
-13.309086
-13.94677
-14.643892
-12.341864
-8.6932232
-7.103358
-9.3841529
-13.380833
-16.647476
-17.166929
-17.20504
-17.636714
-17.576065
-16.865541
-16.331266
-17.488149
-17.02305
-16.621991
-16.353019
-16.180522
-16.070456
-16.009797
-15.988897
-15.998411
-16.030966
-16.080827
-16.143452
-16.215248
-16.293355
-16.375428
-16.459456
-16.543769
-16.626996
-16.707887
-16.785448
-16.858827
-16.927386
-16.990568
-17.048
-17.099421
-17.144631
-17.183558
-17.216237
-17.242698
-17.262891
-17.277066
-17.285846
-17.287157
2.7469371
2.737003
2.7211572
2.6980453
2.6682202
2.6314996
2.5875077
2.5358637
2.4760978
2.4075932
2.3295577
2.241017
2.1407748
2.0274377
1.8995696
1.7556515
1.5932937
1.41048
1.205091
0.97478728
0.7171355
0.42956047
0.10929482
-0.24676547
-0.64232862
-1.0821953
-1.5713478
-2.118579
-2.7502573
-3.4679831
-4.2088968
-5.0984427
-6.3535201
-6.5935161
-5.8392
-7.3850141
-12.497323
-14.54491
-17.862921
-21.799383
-23.878354
-16.610986
-5.8449205
-1.6065922
-5.0066695
-12.751954
-15.401818
-15.587532
-18.117221
-18.265336
-18.074821
-14.589185
-11.29897
-14.808701
-18.292867
-14.056579
-4.2949778
-0.031786655
-6.411276
-14.880645
-19.628087
-18.82591
-18.92285
-18.324841
-18.319727
-18.443633
-17.962861
-17.703385
-17.307602
-16.781485
-16.424867
-16.204694
-16.072754
-16.004971
-15.985514
-16.001058
-16.041826
-16.100682
-16.172386
-16.253041
-16.339617
-16.429609
-16.521023
-16.61218
-16.701592
-16.787994
-16.870381
-16.947908
-17.019894
-17.085828
-17.145357
-17.198287
-17.244491
-17.283943
-17.316736
-17.342965
-17.362638
-17.376163
-17.384014
-17.383395
2.9880823
2.9771795
2.9619404
2.9404274
2.9130417
2.8797147
2.8400501
2.7936905
2.740213
2.6790183
2.6093004
2.5300407
2.4400099
2.3377799
2.2216885
2.0897426
1.9405777
1.7705705
1.5780147
1.3603176
1.1148971
0.83918181
0.53050456
0.18591494
-0.19819619
-0.62684102
-1.1053707
-1.6443255
-2.2764311
-3.0006602
-3.7618329
-4.7080247
-5.9556963
-7.342819
-8.3868796
-10.244835
-11.977874
-15.36199
-20.149483
-27.428511
-39.367519
-21.259621
1.7625087
12.397769
5.6666439
-13.337787
-18.673762
-21.57037
-26.31477
-19.269354
-5.5458354
-1.4673608
-7.6952686
-23.657642
-30.044414
-16.709781
10.774814
17.394968
-2.9743666
-21.203907
-25.576828
-21.988759
-20.540969
-19.406808
-19.353884
-19.470649
-19.13592
-18.248352
-17.426217
-16.788737
-16.381768
-16.143201
-16.01207
-15.955629
-15.951916
-15.984209
-16.041064
-16.114653
-16.199612
-16.292169
-16.389414
-16.48901
-16.589147
-16.688154
-16.784531
-16.87701
-16.964586
-17.046423
-17.121868
-17.190476
-17.25194
-17.306127
-17.352999
-17.392619
-17.425177
-17.450839
-17.469677
-17.482257
-17.488977
-17.486159
3.2346525
3.2225531
3.2078971
3.1880058
3.1630951
3.1332376
3.0980622
3.0572598
3.0104637
2.9571134
2.896417
2.8273484
2.7486688
2.6588825
2.5561741
2.4384228
2.3033756
2.1485801
1.9710087
1.7680937
1.5371778
1.2757792
0.98152214
0.65197176
0.28412816
-0.12666251
-0.58606508
-1.1053913
-1.7218655
-2.4535371
-3.2463784
-4.1564845
-5.2437656
-6.4286529
-7.5646656
-8.867056
-10.774286
-13.135303
-16.331121
-32.294819
-61.011069
-26.881404
3.9815834
50.368222
43.145134
-3.9818347
-27.57059
-13.004821
-27.789231
12.016443
60.82233
58.587212
-11.415573
-63.450629
-63.158724
-10.518702
53.572158
43.192258
2.0838464
-37.833749
-40.248209
-24.633869
-21.260535
-19.468494
-19.600392
-19.856101
-19.433687
-18.3601
-17.334805
-16.609365
-16.189264
-15.9725
-15.87543
-15.855728
-15.886551
-15.94896
-16.031167
-16.125838
-16.228368
-16.33572
-16.445657
-16.55641
-16.666488
-16.774197
-16.878159
-16.97713
-17.070097
-17.156255
-17.235031
-17.306038
-17.3691
-17.424141
-17.471212
-17.510506
-17.542347
-17.566982
-17.584552
-17.595772
-17.601151
-17.595807
3.4854195
3.4718316
3.4577859
3.4395098
3.4170701
3.3907109
3.3601311
3.325078
3.2852651
3.2401977
3.1891439
3.1311525
3.064974
2.9890017
2.9012844
2.7995484
2.6811646
2.5433227
2.3830284
2.1971488
1.9830197
1.7382917
1.4611192
1.1500457
0.80350663
0.41848874
-0.0097095895
-0.49131061
-1.0639173
-1.7761642
-2.6083696
-3.5347282
-4.5720199
-5.6596664
-6.7052082
-7.9886395
-9.0860114
-10.004103
-5.9380414
-4.3101859
4.6244962
52.52626
31.267007
195.85994
78.916083
-52.340083
1096.3484
3338.2118
4045.3842
3436.3199
2113.1543
1415.0279
2099.3032
1837.1088
526.09467
100.38947
191.21699
116.95389
-9.6710632
-18.825029
-37.87839
-18.051528
-17.223356
-18.415195
-19.725325
-20.006503
-19.167013
-17.92503
-16.845314
-16.151418
-15.806764
-15.674503
-15.65723
-15.706605
-15.794231
-15.90157
-16.018612
-16.140306
-16.264019
-16.388418
-16.512624
-16.635767
-16.756564
-16.873604
-16.985544
-17.091176
-17.189492
-17.279784
-17.361548
-17.434483
-17.498529
-17.553763
-17.60036
-17.638665
-17.669131
-17.692107
-17.707891
-17.717624
-17.721003
-17.712641
3.737035
3.7232835
3.7102488
3.6936021
3.6735603
3.6506389
3.6246285
3.5953674
3.5626881
3.5262104
3.4853432
3.4392267
3.3866104
3.325859
3.2548958
3.171222
3.0718681
2.9534637
2.8126578
2.6462186
2.4510298
2.2249316
1.9668452
1.6768418
1.3558955
1.0046165
0.62241587
0.20482012
-0.27644075
-0.88681666
-1.6633578
-2.6084732
-3.7654461
-5.1935188
-6.6506229
-8.6284433
-8.5010316
-9.5340842
-3.1204413
39.296886
71.599461
403.94519
1414.0038
-721.85296
424.05005
3476.5021
5623.0558
6391.8735
6103.9036
5335.7667
4597.1488
4643.5186
5833.7723
7192.4617
6062.4507
2005.1559
-993.88566
-415.81107
254.96986
-144.55139
44.970763
3.9456366
-19.33819
-21.489544
-21.853869
-20.467356
-18.670329
-17.058684
-15.954964
-15.408403
-15.23064
-15.254961
-15.369293
-15.52301
-15.689981
-15.85579
-16.015289
-16.167894
-16.314661
-16.457111
-16.596286
-16.732196
-16.864049
-16.990644
-17.110651
-17.222812
-17.326152
-17.420051
-17.504107
-17.578159
-17.642294
-17.696745
-17.741891
-17.778243
-17.806426
-17.826925
-17.840205
-17.847551
-17.848911
-17.83714
3.9924841
3.9766861
3.96392
3.9488101
3.9310802
3.9113739
3.8896996
3.8660522
3.8404429
3.81268
3.7823526
3.7487197
3.7106423
3.6665353
3.6142082
3.5508394
3.4730522
3.3768759
3.2581571
3.1137381
2.9393561
2.7331681
2.4948704
2.2265052
1.9326833
1.6198356
1.2956435
0.96837011
0.63171868
0.23490423
-0.30847385
-1.0844782
-2.2571167
-4.1578478
-6.8551883
-10.400162
-7.1437199
-2.9249515
-44.2629
-31.634301
322.65654
2120.5075
6076.1004
6130.5012
4849.5792
4884.2755
5342.5407
5698.4525
5630.4117
5460.0404
5249.4855
5329.7372
5636.9998
6051.7983
5711.7326
4933.1856
4240.6675
3936.0877
3650.5723
461.46345
223.22215
0.68468563
-21.342466
-21.504408
-23.353549
-20.847073
-18.220032
-16.126352
-14.890849
-14.461134
-14.515735
-14.760218
-15.052813
-15.340516
-15.603312
-15.835283
-16.039741
-16.223087
-16.391766
-16.551083
-16.704352
-16.852464
-16.995069
-17.130973
-17.258653
-17.376742
-17.484309
-17.580804
-17.666003
-17.739924
-17.802813
-17.85512
-17.897452
-17.930563
-17.955294
-17.972318
-17.982267
-17.986709
-17.98548
-17.969791
4.2483242
4.2304581