/*--------------------------------*- C++ -*----------------------------------*\
  =========                 |
  \\      /  F ield         | OpenFOAM: The Open Source CFD Toolbox
   \\    /   O peration     | Website:  https://openfoam.org
    \\  /    A nd           | Version:  9
     \\/     M anipulation  |
\*---------------------------------------------------------------------------*/
FoamFile
{
    format      ascii;
    class       volScalarField;
    location    "17";
    object      p;
}
// * * * * * * * * * * * * * * * * * * * * * * * * * * * * * * * * * * * * * //

dimensions      [0 2 -2 0 0 0 0];

internalField   nonuniform List<scalar> 
400
(
8.215549e-07
-0.00067177441
-0.001383999
-0.0019411066
-0.0022181672
-0.0021544667
-0.0017256138
-0.00092394479
0.0002376693
0.0017095679
0.0033893125
0.0051140838
0.0066752776
0.0078509115
0.0084603282
0.0084258584
0.0078158663
0.0068472845
0.0058642575
0.0053019681
0.00065864298
-3.9543833e-05
-0.00056849158
-0.00093925261
-0.0011092774
-0.0010381313
-0.00070382224
-9.3447482e-05
0.00079125922
0.0019183422
0.0032116935
0.0045567574
0.0057839948
0.0067183359
0.0072166332
0.0072169378
0.0067725978
0.0060556321
0.0053135387
0.0047415607
0.0014242767
0.00044146997
-0.00011559216
-0.00045203466
-0.00061337898
-0.000583153
-0.0003447041
0.00012180043
0.00083063954
0.0017721445
0.0028965366
0.0041003978
0.0052304774
0.0061132642
0.0065962789
0.0066002531
0.0061585368
0.0054245108
0.004596893
0.0037514626
0.0020145415
0.00068235559
1.7650346e-05
-0.00035775365
-0.00057019745
-0.00062493034
-0.00050817268
-0.00018846778
0.00037086048
0.001186867
0.0022324483
0.0034199745
0.0045939163
0.0055595215
0.006126218
0.0061693677
0.0056866142
0.0048202394
0.0037506508
0.0024770995
0.0021674705
0.00049671782
-0.00029541629
-0.00074761019
-0.0010568515
-0.0012435153
-0.0012906225
-0.0011488263
-0.00075228605
-5.0137018e-05
0.00096008904
0.0022133744
0.0035477785
0.0047357049
0.0055248928
0.0057130034
0.0052325431
0.0042050413
0.0028098144
0.00098780774
0.0016541962
-0.00031379734
-0.0012378301
-0.0017980435
-0.0022510216
-0.0026258125
-0.0028960331
-0.00298802
-0.0027990705
-0.002233922
-0.0012471957
0.00013483511
0.0017485194
0.003330858
0.0045452728
0.0050693517
0.0047211093
0.0035699475
0.0017935487
-0.00072167396
0.00028753087
-0.0019186057
-0.0029717282
-0.0036697523
-0.004318186
-0.0049505059
-0.0055267881
-0.0059439957
-0.0060545016
-0.005702473
-0.0047705635
-0.0032535293
-0.0012614867
0.00091194118
0.002827592
0.0039910549
0.0040291927
0.002891844
0.0007197046
-0.0026758154
-0.0020753905
-0.0044497236
-0.0056250075
-0.0064900991
-0.0073901044
-0.0083622172
-0.0093525734
-0.01022664
-0.010785127
-0.010798468
-0.010056686
-0.0084550411
-0.0060342543
-0.0030771124
-0.00012071774
0.0021177136
0.002968562
0.0021401873
-0.00036130498
-0.0048674776
-0.005522353
-0.0079899415
-0.0092754094
-0.010330784
-0.011534289
-0.012930829
-0.014457152
-0.015949799
-0.017155085
-0.017757996
-0.017429663
-0.01591099
-0.013114731
-0.0092440717
-0.0048920534
-0.0010238401
0.0012749369
0.00128292
-0.0013288125
-0.0071961231
-0.010074142
-0.012562079
-0.013933317
-0.01518011
-0.016713688
-0.018596926
-0.020767388
-0.023040843
-0.025112773
-0.026576678
-0.026959228
-0.025802718
-0.022835753
-0.018065166
-0.012042713
-0.0059445999
-0.0013643312
0.00030634252
-0.0019416693
-0.0093763381
-0.015681178
-0.018128506
-0.019533353
-0.02092204
-0.022752118
-0.025123169
-0.027989086
-0.031157273
-0.034281267
-0.036865834
-0.038282676
-0.03783261
-0.035054605
-0.02959094
-0.021812966
-0.012977215
-0.0051777749
-0.00070947374
-0.0017583804
-0.010786222
-0.02223879
-0.024608306
-0.025940636
-0.027329466
-0.02931782
-0.03207178
-0.035580244
-0.039654712
-0.043916252
-0.047789493
-0.050517995
-0.051224419
-0.048945125
-0.043132529
-0.033759008
-0.021917512
-0.010029267
-0.0014088907
-3.979782e-06
-0.010219746
-0.029635572
-0.031918515
-0.032973253
-0.034073938
-0.035932797
-0.038823738
-0.042786612
-0.047641369
-0.052979294
-0.058151661
-0.062272067
-0.064253555
-0.062863765
-0.057101658
-0.046467232
-0.031640666
-0.01503053
-0.00085805578
0.0046523525
-0.0055162434
-0.037859799
-0.040042747
-0.040434418
-0.040746523
-0.04200841
-0.044645453
-0.048749412
-0.054134119
-0.060345157
-0.06665393
-0.072049222
-0.075257258
-0.074801171
-0.069260135
-0.057620272
-0.039954481
-0.018241816
0.0027944455
0.01444993
0.0069117893
-0.047224187
-0.049128539
-0.048135011
-0.046876681
-0.046899423
-0.048791745
-0.052660219
-0.058266818
-0.065066027
-0.072221499
-0.078585404
-0.082702645
-0.082871649
-0.07730216
-0.064517994
-0.043930047
-0.016743798
0.012506689
0.032942161
0.032411742
-0.058890647
-0.059634413
-0.055878926
-0.051936277
-0.049967264
-0.050624018
-0.053921636
-0.059487187
-0.066602807
-0.074275862
-0.081181989
-0.085671105
-0.085824853
-0.079516853
-0.064872301
-0.040686659
-0.007239063
0.032141018
0.064983016
0.077750325
-0.076221139
-0.072609081
-0.063512229
-0.05543186
-0.050721344
-0.049777078
-0.052306609
-0.057657366
-0.064883845
-0.072766582
-0.079771258
-0.0840296
-0.083385996
-0.075345097
-0.057600565
-0.028374463
0.012933066
0.065396256
0.11555129
0.15150577
-0.10808801
-0.08955287
-0.071231229
-0.057230933
-0.049069883
-0.046327058
-0.048072763
-0.053196708
-0.060427645
-0.068288395
-0.075020152
-0.078520607
-0.076384174
-0.065806668
-0.043864324
-0.0078188437
0.044392278
0.11299649
0.18837886
0.27185906
-0.17684239
-0.10828711
-0.076201042
-0.054650325
-0.042991234
-0.038995907
-0.040566967
-0.045923028
-0.053435358
-0.061431587
-0.068020933
-0.070956747
-0.067546801
-0.054737095
-0.029147831
0.013563027
0.078145314
0.17006221
0.28949325
0.47421611
-0.37208041
-0.12470614
-0.054971838
-0.031961991
-0.02206294
-0.020299036
-0.02435661
-0.031953672
-0.041255986
-0.050634567
-0.058310484
-0.062181602
-0.059777806
-0.048053769
-0.022657212
0.021474015
0.092817407
0.21015087
0.40288638
0.77640731
)
;

boundaryField
{
    movingWall
    {
        type            zeroGradient;
    }
    fixedWalls
    {
        type            zeroGradient;
    }
    frontAndBack
    {
        type            empty;
    }
}


// ************************************************************************* //
