/*--------------------------------*- C++ -*----------------------------------*\
  =========                 |
  \\      /  F ield         | OpenFOAM: The Open Source CFD Toolbox
   \\    /   O peration     | Website:  https://openfoam.org
    \\  /    A nd           | Version:  9
     \\/     M anipulation  |
\*---------------------------------------------------------------------------*/
FoamFile
{
    format      ascii;
    class       surfaceScalarField;
    location    "17";
    object      phi_0;
}
// * * * * * * * * * * * * * * * * * * * * * * * * * * * * * * * * * * * * * //

dimensions      [0 3 -1 0 0 0 0];

internalField   nonuniform List<scalar> 
760
(
1.269213e-05
-1.270149e-05
-2.8727477e-05
4.1419592e-05
-0.00012227959
9.3552086e-05
-0.0002503603
0.00012808067
-0.00039601175
0.00014565143
-0.00054529951
0.00014928778
-0.00068615336
0.00014085384
-0.00080675186
0.00012059847
-0.00089479772
8.8045827e-05
-0.00093823163
4.3433893e-05
-0.00092712342
-1.1108234e-05
-0.00085673067
-7.0392743e-05
-0.00073032764
-0.00012640298
-0.00056127526
-0.00016905231
-0.00037272862
-0.00018854659
-0.0001944703
-0.00017825829
-5.6534564e-05
-0.00013793574
1.9598498e-05
-7.6133067e-05
3.0402517e-05
-1.080403e-05
3.0402501e-05
-4.3179371e-05
3.0477894e-05
-0.00020453328
0.00020277347
-0.00046823894
0.00035725775
-0.00080055426
0.00046039597
-0.0011671221
0.00051221923
-0.0015361468
0.00051831246
-0.0018778587
0.00048256565
-0.002163262
0.00040600172
-0.0023640944
0.00028887823
-0.0024548982
0.00013423762
-0.0024177165
-4.8289867e-05
-0.0022449841
-0.00024312503
-0.001947255
-0.00042413197
-0.0015542517
-0.0005620556
-0.0011141873
-0.00062861099
-0.00068741157
-0.00060503398
-0.00033451113
-0.00049083617
-0.00010090452
-0.00030973966
-1.5595117e-06
-0.000110149
2.8842964e-05
-0.0001100055
0.0001404834
-0.0004029476
0.00049571554
-0.00083121233
0.00078552248
-0.0013453324
0.00097451601
-0.0018981992
0.001065086
-0.0024460721
0.0010661853
-0.0029474298
0.00098392341
-0.0033619471
0.00082051898
-0.0036511825
0.0005781137
-0.0037816105
0.00026466561
-0.0037291561
-0.00010074424
-0.0034852193
-0.00048706177
-0.0030627834
-0.00084656779
-0.0024996209
-0.0011252181
-0.0018579822
-0.0012702496
-0.0012179993
-0.0012450169
-0.00066367315
-0.0010451623
-0.00026307444
-0.00071033838
-4.7958495e-05
-0.00032526491
-1.9115479e-05
-0.00017339963
0.00031388302
-0.00059315712
0.00091547302
-0.0011774308
0.0013697963
-0.0018579603
0.0016550455
-0.0025763523
0.0017834779
-0.0032806161
0.001770449
-0.0039219887
0.0016252961
-0.0044532509
0.0013517812
-0.004829334
0.00095419677
-0.0050103118
0.00044564351
-0.0049663793
-0.00014467668
-0.0046836458
-0.00076979523
-0.0041716833
-0.0013585303
-0.0034686033
-0.0018282981
-0.0026436352
-0.0020952177
-0.001792966
-0.002095686
-0.0010257294
-0.001812399
-0.00044017075
-0.001295897
-9.6717448e-05
-0.00066871819
-0.00011583288
-0.00022974019
0.00054362321
-0.00076489659
0.0014506294
-0.001491148
0.0020960478
-0.0023220372
0.0024859346
-0.0031894607
0.0026509014
-0.0040359904
0.0026169788
-0.0048090813
0.0023983869
-0.0054579237
0.0020006236
-0.0059330989
0.001429372
-0.006188735
0.00070127966
-0.0061873677
-0.00014604388
-0.0059046322
-0.0010525307
-0.0053395987
-0.0019235638
-0.0045224541
-0.0026454426
-0.0035224839
-0.0030951878
-0.0024494782
-0.0031686917
-0.0014423573
-0.00281952
-0.00064115568
-0.0020970986
-0.0001488213
-0.0011610525
-0.00026465418
-0.00027723252
0.00082085573
-0.00091134161
0.0020847385
-0.0017603476
0.0029450539
-0.0027222378
0.0034478248
-0.0037214601
0.0036501237
-0.004697785
0.0035933037
-0.0055978554
0.0032984574
-0.0063700689
0.0027728372
-0.0069625638
0.0020218669
-0.0073236735
0.0010623894
-0.0074063438
-6.3373522e-05
-0.0071706616
-0.0012882128
-0.0065979742
-0.0024962512
-0.0057009161
-0.0035425008
-0.0045394282
-0.0042566758
-0.0032314321
-0.0044766879
-0.001948779
-0.0041021731
-0.00088718011
-0.0031586976
-0.00021156911
-0.0018366635
-0.0004762233
-0.00031404723
0.001134903
-0.0010261249
0.0027968163
-0.0019731122
0.0038920412
-0.0030411687
0.0045158813
-0.0041499525
0.0047589075
-0.0052390257
0.0046823768
-0.0062570348
0.0043164666
-0.0071544058
0.0036702082
-0.0078792066
0.0027466678
-0.0083756809
0.0015588638
-0.0085842611
0.00014520677
-0.0084502626
-0.0014222113
-0.0079285455
-0.0030179683
-0.0070041442
-0.0044669021
-0.0057143862
-0.0055464338
-0.0041731044
-0.0060179696
-0.0025815496
-0.0056937279
-0.001203966
-0.0045362811
-0.00029446907
-0.0027461604
-0.00077069234
-0.00033818471
0.0014730876
-0.0011029704
0.003561602
-0.0021172673
0.0049063381
-0.0032593485
0.0056579626
-0.0044467042
0.0059462632
-0.0056211225
0.0058567951
-0.0067360052
0.0054313494
-0.0077469542
0.0046811572
-0.0086053272
0.0036050409
-0.0092542
0.0022077367
-0.0096259878
0.00051699459
-0.0096482281
-0.001399971
-0.0092480769
-0.0034181194
-0.0083731409
-0.0053418381
-0.0070214016
-0.0068981731
-0.0052813029
-0.0077580683
-0.0033673332
-0.0076076976
-0.0016171972
-0.0062864169
-0.00040822398
-0.0039551336
-0.0011789162
-0.00034810603
0.0018211937
-0.0011370567
0.0043505527
-0.0021824943
0.0059517757
-0.0033581851
0.0068336534
-0.0045816797
0.0071697577
-0.0057991549
0.0070742703
-0.006971452
0.0066036466
-0.0080628795
0.0057725847
-0.0090326336
0.0045747951
-0.0098281868
0.0030032899
-0.010380483
0.0010692913
-0.010603761
-0.0011766936
-0.01040005
-0.0036218306
-0.0096742199
-0.0060676678
-0.0083680766
-0.0082043164
-0.0065151984
-0.0096109466
-0.0043095426
-0.0098133532
-0.0021481399
-0.0084478196
-0.00056487142
-0.005538402
-0.0017437875
-0.00034390577
0.0021650995
-0.0011277635
0.0051344105
-0.002164526
0.0069885381
-0.0033256268
0.0079947542
-0.0045304464
0.0083745774
-0.0057315274
0.0082753514
-0.0068997676
0.0077718868
-0.0080119133
0.0068847305
-0.009040361
0.0056032428
-0.0099445143
0.0039074434
-0.010662956
0.0017877329
-0.011106312
-0.00073333786
-0.011162987
-0.0035651557
-0.010696692
-0.006533962
-0.0095821725
-0.0093188363
-0.0077663887
-0.01142673
-0.0053711957
-0.012208546
-0.002806996
-0.011012019
-0.00077830905
-0.0075670889
-0.0025220963
-0.00032890521
0.0024940047
-0.001082403
0.0058879083
-0.0020707311
0.0079768661
-0.0031635358
0.0090875589
-0.0042838005
0.0094948421
-0.0053927418
0.0093842927
-0.0064740356
0.0088531805
-0.0075204644
0.0079311594
-0.0085228633
0.0066056418
-0.009460318
0.0048448982
-0.010291326
0.0026187405
-0.010933204
-9.1459433e-05
-0.011283164
-0.003215196
-0.011173534
-0.006643592
-0.010415553
-0.010076817
-0.0088465283
-0.012995755
-0.0064555428
-0.014599532
-0.0035813728
-0.013886189
-0.001064163
-0.010084299
-0.0035862592
-0.00031181026
0.002805815
-0.0010207463
0.0065968444
-0.0019262068
0.0088823266
-0.0028950913
0.010056443
-0.0038570615
0.010456812
-0.0047857841
0.010313015
-0.0056810356
0.009748432
-0.0065547771
0.0088049008
-0.0074202603
0.007471125
-0.008282234
0.005706872
-0.0091255775
0.003462084
-0.0099090634
0.00069202646
-0.010527625
-0.0025966341
-0.010827294
-0.0063439234
-0.01057379
-0.01033032
-0.0094932457
-0.0140763
-0.0073910792
-0.016701698
-0.0044188237
-0.016858445
-0.0014371615
-0.013065961
-0.0050234206
-0.00031009715
0.0031159121
-0.00098051715
0.0072672645
-0.0017793081
0.0096811174
-0.0025697275
0.010846863
-0.0032950527
0.011182138
-0.0039484428
0.010966405
-0.0045505984
0.010350588
-0.0051354861
0.0093897886
-0.005740679
0.0080763179
-0.0063993217
0.0063655147
-0.0071309369
0.0041936993
-0.0079310499
0.0014921395
-0.0087395364
-0.0017881477
-0.009430985
-0.0056524749
-0.0097690596
-0.0099922457
-0.0094006453
-0.014444714
-0.0079307073
-0.018171636
-0.0052061664
-0.019582986
-0.0019025846
-0.016369542
-0.0069260053
-0.00035611918
0.0034720313
-0.0010242247
0.0079353701
-0.0017046258
0.010361518
-0.002261357
0.011403594
-0.0026664275
0.011587208
-0.002944842
0.01124482
-0.003145184
0.01055093
-0.0033258793
0.0095704839
-0.0035482552
0.0082986938
-0.0038721307
0.0066893902
-0.0043502498
0.0046718185
-0.0050194233
0.002161313
-0.0058775868
-0.00092998429
-0.0068587021
-0.0046713597
-0.0077770046
-0.0090739433
-0.0082663595
-0.013955359
-0.00776905
-0.018668946
-0.0057512172
-0.021600818
-0.0024366794
-0.01968408
-0.0093626847
-0.00050835731
0.0039803887
-0.0012459131
0.0086729258
-0.0017963806
0.010911986
-0.0020487069
0.01165592
-0.002033401
0.011571902
-0.0018264732
0.011037892
-0.0015133504
0.010237807
-0.0011790877
0.0092362212
-0.00090596987
0.008025576
-0.00077497002
0.0065583904
-0.00086470414
0.0047615527
-0.0012485121
0.002545121
-0.0019839041
-0.00019459234
-0.0030828336
-0.0035724302
-0.0044608593
-0.0076959177
-0.0058281378
-0.01258808
-0.0065666024
-0.017930481
-0.0057686648
-0.022398756
-0.0029512753
-0.02250147
-0.01231396
-0.00086865281
0.0048490417
-0.0017632809
0.0095675539
-0.00212189
0.011270595
-0.0019376162
0.011471647
-0.0013519017
0.010986188
-0.00051733599
0.010203326
0.00043578363
0.0092846873
0.001398298
0.0082737067
0.0022710528
0.0071528211
0.0029596252
0.0058698181
0.0033679267
0.0043532512
0.0033956638
0.0025173838
0.0029375126
0.0002635589
0.0019086887
-0.0025436064
0.00026888659
-0.0060561156
-0.0018548179
-0.010464376
-0.0039520766
-0.015833222
-0.0048611056
-0.021489727
-0.0032547872
-0.024107788
-0.015568747
-0.0015911611
0.0064402029
-0.0026111043
0.010587497
-0.0025136092
0.0111731
-0.0015906094
0.010548647
-0.00017308169
0.0095686598
0.0014917201
0.0085385247
0.0032317023
0.0075447051
0.0049219836
0.0065834253
0.0064617395
0.0056130652
0.0077562887
0.004575269
0.008706376
0.0034031639
0.0092004703
0.0020232895
0.0091024351
0.00036159418
0.0082743038
-0.001715475
0.0065647919
-0.0043466037
0.0039036897
-0.0078032737
0.00055855355
-0.012488086
-0.0024683124
-0.018462861
-0.0030274138
-0.023548686
-0.018596161
-0.0027183892
0.009158592
-0.0031499955
0.011019104
-0.0018032914
0.0098263961
0.00046621765
0.0082791377
0.0030887498
0.0069461276
0.0057729734
0.0058543011
0.0083619378
0.0049557408
0.010759364
0.0041859995
0.012892441
0.0034799877
0.014689642
0.002778068
0.016067402
0.0020254041
0.016922445
0.0011682467
0.017118996
0.00016504349
0.016490236
-0.0010867148
0.014816362
-0.0026727295
0.011846279
-0.0048331906
0.0074352007
-0.0080770079
0.0022627375
-0.013290398
-0.0012725546
-0.020013394
-0.019868715
-0.0024132545
0.011571846
2.8064211e-05
0.0085777855
0.0042550705
0.0055993898
0.0084159289
0.0041182794
0.012231142
0.0031309147
0.015655775
0.0024296679
0.018685938
0.0019255783
0.0213285
0.0015434375
0.023582766
0.0012257214
0.025428515
0.00093231877
0.026819517
0.00063440264
0.027676622
0.00031114166
0.027899739
-5.8073164e-05
0.027346874
-0.00053385035
0.025771381
-0.0010972363
0.022842872
-0.0019046814
0.018054647
-0.0032887829
0.011113505
-0.0063492561
0.003388641
-0.01228853
-0.016480074
0.011571846
0.020149632
0.025749022
0.029867301
0.032998216
0.035427884
0.037353462
0.038896899
0.040122621
0.04105494
0.041689342
0.042000484
0.041942411
0.04140856
0.040311324
0.038406643
0.03511786
0.028768604
0.016480074
)
;

boundaryField
{
    movingWall
    {
        type            calculated;
        value           uniform 0;
    }
    fixedWalls
    {
        type            calculated;
        value           uniform 0;
    }
    frontAndBack
    {
        type            empty;
        value           nonuniform List<scalar> 0();
    }
}


// ************************************************************************* //
