/*--------------------------------*- C++ -*----------------------------------*\
  =========                 |
  \\      /  F ield         | OpenFOAM: The Open Source CFD Toolbox
   \\    /   O peration     | Website:  https://openfoam.org
    \\  /    A nd           | Version:  9
     \\/     M anipulation  |
\*---------------------------------------------------------------------------*/
FoamFile
{
    format      ascii;
    class       volVectorField;
    location    "17";
    object      U;
}
// * * * * * * * * * * * * * * * * * * * * * * * * * * * * * * * * * * * * * //

dimensions      [0 1 -1 0 0 0 0];

internalField   nonuniform List<vector> 
400
(
(0.0002842993 -0.00028136297 0)
(0.00011048143 7.9966501e-05 0)
(-0.0013271563 0.00047796695 0)
(-0.0036214434 0.00073581438 0)
(-0.0064226765 0.00086737428 0)
(-0.0094299357 0.00090710803 0)
(-0.012385898 0.00087470499 0)
(-0.015053842 0.00077138603 0)
(-0.017191572 0.00058838272 0)
(-0.018549681 0.00032003714 0)
(-0.018899483 -2.4782402e-05 0)
(-0.018083289 -0.00041815495 0)
(-0.016077545 -0.00079953951 0)
(-0.01304726 -0.0010928602 0)
(-0.0093654291 -0.0012209943 0)
(-0.0055773446 -0.0011293161 0)
(-0.0023004871 -0.00081279607 0)
(-8.3285381e-05 -0.0003380039 0)
(0.00075988207 0.00015219566 0)
(0.00040934632 0.00038924684 0)
(-8.6109191e-05 -0.00012352226 0)
(-0.0018690392 0.0017869845 0)
(-0.0063054468 0.0036254173 0)
(-0.012450383 0.0048615929 0)
(-0.019596916 0.005497484 0)
(-0.027101731 0.0056195928 0)
(-0.034352269 0.0052850232 0)
(-0.040761078 0.0045035519 0)
(-0.045749559 0.0032656837 0)
(-0.048766959 0.0015895072 0)
(-0.049357939 -0.00043516432 0)
(-0.047245911 -0.0026174425 0)
(-0.042445339 -0.0046634394 0)
(-0.035356412 -0.0062176253 0)
(-0.02677522 -0.0069363175 0)
(-0.017825422 -0.0065912396 0)
(-0.0097748942 -0.0051791582 0)
(-0.0037463495 -0.0029992743 0)
(-0.00038900987 -0.00066574755 0)
(0.00028976913 0.00078328222 0)
(-0.00058798229 0.001433469 0)
(-0.0042419559 0.006376356 0)
(-0.011756117 0.010638519 0)
(-0.021464199 0.01348094 0)
(-0.032359445 0.01489535 0)
(-0.04357901 0.015014443 0)
(-0.054276368 0.013933514 0)
(-0.063629875 0.011682169 0)
(-0.070842109 0.0082801328 0)
(-0.075174287 0.0038284748 0)
(-0.0760259 -0.0014049404 0)
(-0.073045276 -0.0069336048 0)
(-0.066255966 -0.012068857 0)
(-0.056160874 -0.015996904 0)
(-0.043774738 -0.01793942 0)
(-0.030565403 -0.017377149 0)
(-0.01824876 -0.014288078 0)
(-0.0084173593 -0.0093114677 0)
(-0.002151128 -0.0037619012 0)
(-2.048719e-06 0.00031658847 0)
(-0.0010528219 0.0042995977 0)
(-0.0065133713 0.013562994 0)
(-0.016995296 0.020859793 0)
(-0.03002425 0.02555599 0)
(-0.044290981 0.027755841 0)
(-0.058771844 0.027682517 0)
(-0.072472585 0.025482879 0)
(-0.084430029 0.021214831 0)
(-0.093710847 0.014943123 0)
(-0.099445779 0.0068782838 0)
(-0.10091226 -0.0024993742 0)
(-0.097646342 -0.012374681 0)
(-0.089578685 -0.021600206 0)
(-0.077170482 -0.028818768 0)
(-0.061496281 -0.032700016 0)
(-0.04424774 -0.032294651 0)
(-0.027558867 -0.027442073 0)
(-0.013580319 -0.019078647 0)
(-0.0040260412 -0.009270235 0)
(-0.00026774467 -0.0011085353 0)
(-0.0014554991 0.0083632683 0)
(-0.0085470268 0.023176242 0)
(-0.021741206 0.034044369 0)
(-0.03778398 0.040754514 0)
(-0.055084907 0.043692837 0)
(-0.072504276 0.043250589 0)
(-0.088966308 0.039654265 0)
(-0.10343821 0.032996064 0)
(-0.1149107 0.023381427 0)
(-0.12241503 0.011116794 0)
(-0.12509403 -0.0031259492 0)
(-0.12230008 -0.018213687 0)
(-0.11374397 -0.03253378 0)
(-0.099683578 -0.04412351 0)
(-0.081089094 -0.050956964 0)
(-0.059768305 -0.051432856 0)
(-0.038286302 -0.045007216 0)
(-0.01951812 -0.032751665 0)
(-0.0060916855 -0.017490426 0)
(-0.0005109915 -0.0035221544 0)
(-0.001788488 0.013472442 0)
(-0.010267326 0.03495314 0)
(-0.025799744 0.049897856 0)
(-0.044457178 0.058782492 0)
(-0.064414337 0.062445839 0)
(-0.084460704 0.061539262 0)
(-0.10349682 0.056406279 0)
(-0.12048163 0.047175171 0)
(-0.13438078 0.033966709 0)
(-0.14415036 0.017132519 0)
(-0.14878043 -0.0025319111 0)
(-0.14737163 -0.023628845 0)
(-0.13929158 -0.044132186 0)
(-0.12441879 -0.061429861 0)
(-0.10341816 -0.072629521 0)
(-0.078046016 -0.075162055 0)
(-0.051254588 -0.067697205 0)
(-0.026806218 -0.051117908 0)
(-0.0086112884 -0.028962825 0)
(-0.0007869851 -0.0070518777 0)
(-0.0020415644 0.019432132 0)
(-0.011603166 0.048518262 0)
(-0.028989856 0.067983871 0)
(-0.049747929 0.079209834 0)
(-0.071878059 0.083641188 0)
(-0.094145124 0.082282899 0)
(-0.11548031 0.075637413 0)
(-0.13489325 0.063868167 0)
(-0.1513803 0.047071514 0)
(-0.16386139 0.025567973 0)
(-0.17116937 0.00016793515 0)
(-0.17213264 -0.027601379 0)
(-0.16569552 -0.055383483 0)
(-0.15117423 -0.079930421 0)
(-0.12868584 -0.09733486 0)
(-0.099658725 -0.10368295 0)
(-0.067234247 -0.096272972 0)
(-0.036115027 -0.075211007 0)
(-0.011928349 -0.044535129 0)
(-0.0011706647 -0.012000615 0)
(-0.0022008568 0.026007619 0)
(-0.012482434 0.063406041 0)
(-0.031134445 0.0877464 0)
(-0.053345556 0.10147032 0)
(-0.077005294 0.10675742 0)
(-0.10089662 0.10505594 0)
(-0.12403223 0.097073606 0)
(-0.14553219 0.083011102 0)
(-0.16448905 0.062896963 0)
(-0.17985503 0.036931004 0)
(-0.19037856 0.0058011027 0)
(-0.19463576 -0.029022881 0)
(-0.19111761 -0.065003361 0)
(-0.1784728 -0.098373265 0)
(-0.15601025 -0.12415805 0)
(-0.12443314 -0.13674362 0)
(-0.086638249 -0.13131223 0)
(-0.048058947 -0.10622033 0)
(-0.016427616 -0.065386275 0)
(-0.0017535627 -0.018876747 0)
(-0.0022553804 0.032926333 0)
(-0.012851919 0.079072445 0)
(-0.03209456 0.10851382 0)
(-0.054974604 0.1248411 0)
(-0.079324883 0.1310702 0)
(-0.10398187 0.129179 0)
(-0.12808619 0.12013492 0)
(-0.15092975 0.10419002 0)
(-0.17178136 0.081272554 0)
(-0.18972862 0.051375736 0)
(-0.20356035 0.014921383 0)
(-0.21171363 -0.0268648 0)
(-0.21231035 -0.071516432 0)
(-0.2033242 -0.1150066 0)
(-0.18305009 -0.15142542 0)
(-0.15100701 -0.17326298 0)
(-0.10915725 -0.17280162 0)
(-0.063021185 -0.14522793 0)
(-0.022522907 -0.092968542 0)
(-0.0026586427 -0.028419519 0)
(-0.0022084623 0.039896764 0)
(-0.012716034 0.094926354 0)
(-0.031838608 0.12951665 0)
(-0.054492235 0.14843295 0)
(-0.078493704 0.15561064 0)
(-0.10276317 0.15364443 0)
(-0.12661261 0.14382844 0)
(-0.14956728 0.12650127 0)
(-0.17116154 0.10148652 0)
(-0.19074659 0.068517384 0)
(-0.20731825 0.027633789 0)
(-0.21936909 -0.020382643 0)
(-0.22487922 -0.07344564 0)
(-0.22129797 -0.12766876 0)
(-0.20584618 -0.17659794 0)
(-0.17646802 -0.21096826 0)
(-0.13333947 -0.21959039 0)
(-0.080894197 -0.19273501 0)
(-0.030639653 -0.12884044 0)
(-0.0040696585 -0.041633205 0)
(-0.0020933725 0.046655198 0)
(-0.012189619 0.1103998 0)
(-0.030535636 0.14994107 0)
(-0.052016351 0.17121614 0)
(-0.07446314 0.17916657 0)
(-0.096917665 0.17709835 0)
(-0.11891177 0.16671187 0)
(-0.14026452 0.14849072 0)
(-0.16086064 0.12218678 0)
(-0.18044243 0.087273295 0)
(-0.19840266 0.043359156 0)
(-0.21353665 -0.0093778908 0)
(-0.22401406 -0.069660674 0)
(-0.22708153 -0.13411401 0)
(-0.21908704 -0.19643121 0)
(-0.19626273 -0.24622848 0)
(-0.15621488 -0.26883665 0)
(-0.10070236 -0.24796721 0)
(-0.04114386 -0.17432056 0)
(-0.0062701266 -0.059828863 0)
(-0.0019965605 0.053049604 0)
(-0.011566426 0.12506499 0)
(-0.028662725 0.16902053 0)
(-0.048059098 0.1920823 0)
(-0.067641578 0.20033082 0)
(-0.08664777 0.19789039 0)
(-0.10490067 0.18694988 0)
(-0.12257523 0.1682073 0)
(-0.13997086 0.14140422 0)
(-0.15730538 0.10580036 0)
(-0.17452398 0.06057866 0)
(-0.19109229 0.005237247 0)
(-0.20560968 -0.05990737 0)
(-0.21551252 -0.13259002 0)
(-0.2169059 -0.20750775 0)
(-0.20458003 -0.27429628 0)
(-0.17317448 -0.31569518 0)
(-0.12016914 -0.30805861 0)
(-0.054145817 -0.22986783 0)
(-0.0096743818 -0.084646939 0)
(-0.0021000321 0.05917722 0)
(-0.011416798 0.13879875 0)
(-0.027119485 0.1861502 0)
(-0.04363106 0.20992165 0)
(-0.058989369 0.21757703 0)
(-0.072787767 0.21417665 0)
(-0.085261599 0.2024576 0)
(-0.097014355 0.18338413 0)
(-0.10880314 0.15675242 0)
(-0.12136585 0.12168837 0)
(-0.13527008 0.077022502 0)
(-0.15071889 0.021629158 0)
(-0.16713745 -0.04509695 0)
(-0.18275379 -0.12250031 0)
(-0.19406477 -0.20710893 0)
(-0.19524291 -0.29009615 0)
(-0.17829844 -0.35356537 0)
(-0.13540644 -0.3674185 0)
(-0.069088316 -0.29413688 0)
(-0.014794577 -0.11797744 0)
(-0.0027682926 0.065614255 0)
(-0.012743812 0.15198395 0)
(-0.027336162 0.20097687 0)
(-0.040254071 0.22366089 0)
(-0.049941187 0.2293088 0)
(-0.056658688 0.22401859 0)
(-0.061250091 0.21106645 0)
(-0.064835293 0.19167329 0)
(-0.068641271 0.16571779 0)
(-0.073896322 0.13227627 0)
(-0.081749721 0.08996745 0)
(-0.093141259 0.03721058 0)
(-0.10848943 -0.027466588 0)
(-0.12723227 -0.10496285 0)
(-0.14707014 -0.19420669 0)
(-0.16281593 -0.28947181 0)
(-0.16509903 -0.37508383 0)
(-0.14090546 -0.41771074 0)
(-0.084062231 -0.36279942 0)
(-0.022011403 -0.16156682 0)
(-0.0047202846 0.07383085 0)
(-0.017225855 0.16571519 0)
(-0.031292018 0.21336185 0)
(-0.039695209 0.23215523 0)
(-0.041899404 0.2337838 0)
(-0.039370335 0.22537853 0)
(-0.033834383 0.21060055 0)
(-0.027023995 0.19080383 0)
(-0.020616645 0.16589618 0)
(-0.016240315 0.1349422 0)
(-0.015500859 0.09647773 0)
(-0.019949114 0.048699575 0)
(-0.030940764 -0.010401673 0)
(-0.049254566 -0.082909061 0)
(-0.074417005 -0.17013201 0)
(-0.10329143 -0.27049177 0)
(-0.12726543 -0.37368431 0)
(-0.12974132 -0.44867602 0)
(-0.094916924 -0.42749535 0)
(-0.030930799 -0.21612139 0)
(-0.0093006885 0.086950268 0)
(-0.027435661 0.18184617 0)
(-0.040989819 0.22302175 0)
(-0.042692446 0.23377525 0)
(-0.034422784 0.22878773 0)
(-0.019643652 0.21591016 0)
(-0.0012621336 0.19877039 0)
(0.01832017 0.17855909 0)
(0.037045471 0.15508214 0)
(0.053029933 0.12736189 0)
(0.064396818 0.093942063 0)
(0.069207711 0.053022637 0)
(0.065393722 0.0024718177 0)
(0.051028104 -0.060330052 0)
(0.024625892 -0.13836806 0)
(-0.013716422 -0.23416385 0)
(-0.058765147 -0.34516331 0)
(-0.093518324 -0.44953274 0)
(-0.094473029 -0.47558048 0)
(-0.03921664 -0.2804776 0)
(-0.018580788 0.11087144 0)
(-0.046042554 0.20177314 0)
(-0.055237127 0.22792454 0)
(-0.043996474 0.22500806 0)
(-0.019388445 0.21060261 0)
(0.012313733 0.19227055 0)
(0.046970701 0.17277756 0)
(0.08173009 0.15264941 0)
(0.1144132 0.13135141 0)
(0.14312894 0.10779716 0)
(0.16599374 0.080595817 0)
(0.18095989 0.048118214 0)
(0.18555701 0.008456278 0)
(0.17714897 -0.040810511 0)
(0.15274506 -0.10317 0)
(0.10947673 -0.18390122 0)
(0.047230756 -0.28855076 0)
(-0.021446111 -0.41050674 0)
(-0.072256149 -0.49101291 0)
(-0.041148197 -0.35053968 0)
(-0.033352266 0.15561653 0)
(-0.068602915 0.22040383 0)
(-0.05519142 0.21728906 0)
(-0.01608627 0.19531911 0)
(0.034499774 0.17091719 0)
(0.088492897 0.14848851 0)
(0.14175082 0.12860756 0)
(0.19194933 0.11057425 0)
(0.23752008 0.093296293 0)
(0.27709969 0.075575817 0)
(0.30919874 0.056183995 0)
(0.33202567 0.033827158 0)
(0.34316029 0.0070318618 0)
(0.3398159 -0.025905911 0)
(0.31812194 -0.067737815 0)
(0.27326883 -0.12410504 0)
(0.20044065 -0.20584533 0)
(0.10213502 -0.32506778 0)
(-0.012389745 -0.45457022 0)
(-0.023757289 -0.4086394 0)
(-0.033080782 0.23907426 0)
(-0.04264658 0.21792083 0)
(0.042206862 0.16426567 0)
(0.12760215 0.12783389 0)
(0.2076928 0.10143283 0)
(0.28027346 0.081655348 0)
(0.34486226 0.066645704 0)
(0.40157011 0.054701386 0)
(0.45053654 0.044398794 0)
(0.49160609 0.034640257 0)
(0.52414824 0.024551799 0)
(0.54697396 0.013383532 0)
(0.55821215 0.00040182903 0)
(0.55570131 -0.015135235 0)
(0.53552028 -0.034967386 0)
(0.49244245 -0.062486959 0)
(0.41796988 -0.10694703 0)
(0.30410398 -0.19317525 0)
(0.12313668 -0.33691893 0)
(0.052373834 -0.39437902 0)
(0.24299965 0.15257517 0)
(0.30529723 0.1185434 0)
(0.45481333 0.076108354 0)
(0.5600094 0.050840039 0)
(0.6322325 0.035125653 0)
(0.68654682 0.024811755 0)
(0.72943438 0.017959587 0)
(0.76379123 0.013255577 0)
(0.79127351 0.0097620882 0)
(0.8127456 0.0068544969 0)
(0.82840598 0.0041188635 0)
(0.83793949 0.0012773292 0)
(0.84056746 -0.0018437913 0)
(0.83497361 -0.0053258344 0)
(0.8188661 -0.0098285899 0)
(0.78942855 -0.016232519 0)
(0.73784313 -0.026935639 0)
(0.65316789 -0.051286596 0)
(0.45609778 -0.11374612 0)
(0.31788989 -0.1720601 0)
)
;

boundaryField
{
    movingWall
    {
        type            fixedValue;
        value           uniform (1 0 0);
    }
    fixedWalls
    {
        type            fixedValue;
        value           uniform (0 0 0);
    }
    frontAndBack
    {
        type            empty;
    }
}


// ************************************************************************* //
