/*--------------------------------*- C++ -*----------------------------------*\
  =========                 |
  \\      /  F ield         | OpenFOAM: The Open Source CFD Toolbox
   \\    /   O peration     | Website:  https://openfoam.org
    \\  /    A nd           | Version:  9
     \\/     M anipulation  |
\*---------------------------------------------------------------------------*/
FoamFile
{
    format      ascii;
    class       volVectorField;
    location    "17";
    object      U_0;
}
// * * * * * * * * * * * * * * * * * * * * * * * * * * * * * * * * * * * * * //

dimensions      [0 1 -1 0 0 0 0];

internalField   nonuniform List<vector> 
400
(
(0.0002843 -0.00028136183 0)
(0.00011048307 7.9966725e-05 0)
(-0.0013271538 0.00047796649 0)
(-0.0036214389 0.00073581362 0)
(-0.0064226693 0.00086737348 0)
(-0.0094299256 0.00090710726 0)
(-0.012385885 0.00087470414 0)
(-0.015053828 0.00077138502 0)
(-0.017191557 0.00058838161 0)
(-0.018549666 0.00032003608 0)
(-0.018899468 -2.4783116e-05 0)
(-0.018083275 -0.00041815501 0)
(-0.016077532 -0.00079953881 0)
(-0.01304725 -0.001092859 0)
(-0.0093654218 -0.0012209929 0)
(-0.0055773409 -0.0011293151 0)
(-0.0023004866 -0.00081279567 0)
(-8.3286753e-05 -0.00033800414 0)
(0.00075988053 0.00015219485 0)
(0.00040934567 0.00038924546 0)
(-8.6108702e-05 -0.00012352051 0)
(-0.0018690364 0.0017869831 0)
(-0.0063054391 0.0036254133 0)
(-0.012450368 0.0048615874 0)
(-0.019596893 0.0054974777 0)
(-0.0271017 0.0056195863 0)
(-0.034352231 0.0052850167 0)
(-0.040761035 0.0045035457 0)
(-0.045749513 0.0032656787 0)
(-0.048766912 0.0015895041 0)
(-0.049357892 -0.00043516464 0)
(-0.047245868 -0.0026174397 0)
(-0.042445301 -0.0046634338 0)
(-0.035356382 -0.0062176181 0)
(-0.026775199 -0.0069363102 0)
(-0.01782541 -0.0065912338 0)
(-0.0097748897 -0.0051791551 0)
(-0.0037463497 -0.0029992744 0)
(-0.00038901221 -0.00066575036 0)
(0.00028976769 0.00078327857 0)
(-0.00058798142 0.0014334684 0)
(-0.0042419503 0.0063763489 0)
(-0.011756102 0.010638507 0)
(-0.021464172 0.013480924 0)
(-0.032359406 0.014895332 0)
(-0.043578959 0.015014424 0)
(-0.054276306 0.013933497 0)
(-0.063629805 0.011682154 0)
(-0.070842034 0.0082801226 0)
(-0.07517421 0.0038284705 0)
(-0.076025825 -0.0014049375 0)
(-0.073045206 -0.0069335948 0)
(-0.066255905 -0.012068842 0)
(-0.056160824 -0.015996885 0)
(-0.043774702 -0.017939401 0)
(-0.030565381 -0.017377133 0)
(-0.01824875 -0.014288069 0)
(-0.0084173568 -0.009311465 0)
(-0.0021511294 -0.0037619043 0)
(-2.0498054e-06 0.00031658371 0)
(-0.0010528205 0.0042995929 0)
(-0.0065133627 0.013562978 0)
(-0.016995273 0.020859767 0)
(-0.030024211 0.02555596 0)
(-0.044290926 0.027755808 0)
(-0.058771773 0.027682485 0)
(-0.072472501 0.025482849 0)
(-0.084429936 0.021214807 0)
(-0.093710747 0.014943108 0)
(-0.099445678 0.0068782797 0)
(-0.10091216 -0.0024993663 0)
(-0.097646248 -0.012374662 0)
(-0.089578602 -0.021600177 0)
(-0.077170414 -0.028818735 0)
(-0.06149623 -0.032699982 0)
(-0.044247707 -0.032294623 0)
(-0.027558849 -0.027442053 0)
(-0.013580313 -0.019078638 0)
(-0.0040260411 -0.0092702354 0)
(-0.00026774546 -0.00110854 0)
(-0.0014554972 0.008363258 0)
(-0.0085470155 0.023176214 0)
(-0.021741177 0.034044328 0)
(-0.037783932 0.040754465 0)
(-0.05508484 0.043692786 0)
(-0.072504192 0.04325054 0)
(-0.08896621 0.039654222 0)
(-0.1034381 0.032996031 0)
(-0.11491058 0.023381408 0)
(-0.12241491 0.011116791 0)
(-0.12509392 -0.0031259353 0)
(-0.12229997 -0.018213657 0)
(-0.11374387 -0.032533738 0)
(-0.099683494 -0.04412346 0)
(-0.08108903 -0.050956913 0)
(-0.059768261 -0.051432811 0)
(-0.038286277 -0.045007182 0)
(-0.01951811 -0.032751646 0)
(-0.0060916838 -0.017490422 0)
(-0.00051099191 -0.0035221583 0)
(-0.0017884857 0.013472425 0)
(-0.010267313 0.034953098 0)
(-0.025799711 0.049897796 0)
(-0.044457125 0.058782424 0)
(-0.064414263 0.062445769 0)
(-0.084460612 0.061539196 0)
(-0.10349672 0.056406222 0)
(-0.12048151 0.047175129 0)
(-0.13438065 0.033966685 0)
(-0.14415023 0.017132517 0)
(-0.1487803 -0.0025318915 0)
(-0.14737151 -0.023628806 0)
(-0.13929147 -0.04413213 0)
(-0.1244187 -0.061429795 0)
(-0.10341808 -0.072629452 0)
(-0.078045963 -0.075161992 0)
(-0.051254556 -0.067697156 0)
(-0.026806203 -0.051117877 0)
(-0.0086112848 -0.028962813 0)
(-0.00078698517 -0.0070518801 0)
(-0.002041562 0.019432108 0)
(-0.011603153 0.048518204 0)
(-0.028989823 0.067983792 0)
(-0.049747875 0.079209745 0)
(-0.071877985 0.083641099 0)
(-0.094145032 0.082282816 0)
(-0.1154802 0.075637343 0)
(-0.13489313 0.063868117 0)
(-0.15138018 0.047071486 0)
(-0.16386127 0.025567971 0)
(-0.17116925 0.00016795971 0)
(-0.17213251 -0.027601331 0)
(-0.16569541 -0.055383414 0)
(-0.15117413 -0.079930339 0)
(-0.12868576 -0.097334772 0)
(-0.099658665 -0.10368287 0)
(-0.067234209 -0.096272903 0)
(-0.036115008 -0.07521096 0)
(-0.011928344 -0.044535108 0)
(-0.0011706645 -0.012000614 0)
(-0.0022008545 0.026007589 0)
(-0.012482421 0.063405968 0)
(-0.031134415 0.087746303 0)
(-0.053345507 0.10147022 0)
(-0.077005228 0.10675731 0)
(-0.10089654 0.10505584 0)
(-0.12403214 0.097073526 0)
(-0.14553208 0.083011044 0)
(-0.16448894 0.062896933 0)
(-0.17985492 0.036931003 0)
(-0.19037844 0.005801131 0)
(-0.19463564 -0.029022826 0)
(-0.1911175 -0.065003282 0)
(-0.17847271 -0.098373169 0)
(-0.15601017 -0.12415795 0)
(-0.12443307 -0.13674351 0)
(-0.086638207 -0.13131214 0)
(-0.048058924 -0.10622026 0)
(-0.01642761 -0.065386241 0)
(-0.0017535624 -0.018876742 0)
(-0.0022553785 0.032926296 0)
(-0.012851909 0.079072359 0)
(-0.032094536 0.10851371 0)
(-0.054974565 0.12484098 0)
(-0.07932483 0.13107008 0)
(-0.10398181 0.12917889 0)
(-0.12808612 0.12013483 0)
(-0.15092967 0.10418995 0)
(-0.17178127 0.081272522 0)
(-0.18972853 0.051375735 0)
(-0.20356026 0.014921413 0)
(-0.21171354 -0.026864741 0)
(-0.21231026 -0.071516347 0)
(-0.20332412 -0.11500649 0)
(-0.18305002 -0.1514253 0)
(-0.15100695 -0.17326287 0)
(-0.10915721 -0.17280151 0)
(-0.063021161 -0.14522785 0)
(-0.022522899 -0.092968492 0)
(-0.0026586422 -0.028419507 0)
(-0.002208461 0.039896723 0)
(-0.012716028 0.094926258 0)
(-0.031838593 0.12951652 0)
(-0.054492211 0.14843281 0)
(-0.078493672 0.15561051 0)
(-0.10276313 0.15364431 0)
(-0.12661257 0.14382834 0)
(-0.14956723 0.12650121 0)
(-0.17116149 0.10148649 0)
(-0.19074654 0.068517384 0)
(-0.2073182 0.027633822 0)
(-0.21936904 -0.020382581 0)
(-0.22487917 -0.073445553 0)
(-0.22129792 -0.12766865 0)
(-0.20584613 -0.17659781 0)
(-0.17646798 -0.21096813 0)
(-0.13333943 -0.21959026 0)
(-0.080894174 -0.19273491 0)
(-0.030639644 -0.12884037 0)
(-0.0040696575 -0.041633184 0)
(-0.0020933722 0.046655155 0)
(-0.012189617 0.1103997 0)
(-0.030535632 0.14994093 0)
(-0.052016345 0.171216 0)
(-0.074463132 0.17916643 0)
(-0.096917657 0.17709822 0)
(-0.11891176 0.16671177 0)
(-0.14026452 0.14849066 0)
(-0.16086064 0.12218675 0)
(-0.18044243 0.087273299 0)
(-0.19840266 0.043359192 0)
(-0.21353664 -0.0093778265 0)
(-0.22401405 -0.069660586 0)
(-0.22708152 -0.1341139 0)
(-0.21908702 -0.19643109 0)
(-0.19626271 -0.24622835 0)
(-0.15621486 -0.26883652 0)
(-0.10070234 -0.24796709 0)
(-0.041143851 -0.17432048 0)
(-0.0062701248 -0.059828833 0)
(-0.0019965615 0.053049561 0)
(-0.01156643 0.12506489 0)
(-0.028662735 0.16902039 0)
(-0.048059112 0.19208215 0)
(-0.067641598 0.20033068 0)
(-0.086647794 0.19789027 0)
(-0.1049007 0.18694979 0)
(-0.12257527 0.16820724 0)
(-0.1399709 0.14140419 0)
(-0.15730542 0.10580037 0)
(-0.17452402 0.060578699 0)
(-0.19109233 0.0052373109 0)
(-0.20560972 -0.059907287 0)
(-0.21551256 -0.13258993 0)
(-0.21690592 -0.20750764 0)
(-0.20458004 -0.27429616 0)
(-0.17317448 -0.31569506 0)
(-0.12016913 -0.30805849 0)
(-0.05414581 -0.22986774 0)
(-0.0096743794 -0.084646902 0)
(-0.0021000343 0.059177181 0)
(-0.011416808 0.13879866 0)
(-0.027119507 0.18615008 0)
(-0.043631095 0.20992151 0)
(-0.058989415 0.2175769 0)
(-0.072787824 0.21417653 0)
(-0.085261667 0.20245752 0)
(-0.097014431 0.18338408 0)
(-0.10880322 0.1567524 0)
(-0.12136594 0.12168838 0)
(-0.13527017 0.077022541 0)
(-0.15071897 0.021629219 0)
(-0.16713753 -0.045096874 0)
(-0.18275386 -0.12250022 0)
(-0.19406483 -0.20710883 0)
(-0.19524296 -0.29009604 0)
(-0.17829846 -0.35356526 0)
(-0.13540645 -0.3674184 0)
(-0.069088314 -0.29413679 0)
(-0.014794575 -0.1179774 0)
(-0.0027682957 0.065614222 0)
(-0.012743826 0.15198387 0)
(-0.027336194 0.20097676 0)
(-0.040254123 0.22366077 0)
(-0.049941257 0.22930868 0)
(-0.056658774 0.22401849 0)
(-0.061250191 0.21106637 0)
(-0.064835403 0.19167325 0)
(-0.068641387 0.16571778 0)
(-0.07389644 0.13227629 0)
(-0.081749838 0.08996749 0)
(-0.093141372 0.037210638 0)
(-0.10848954 -0.02746652 0)
(-0.12723237 -0.10496277 0)
(-0.14707023 -0.19420661 0)
(-0.162816 -0.28947173 0)
(-0.16509907 -0.37508374 0)
(-0.14090548 -0.41771064 0)
(-0.084062236 -0.36279934 0)
(-0.022011402 -0.16156678 0)
(-0.004720288 0.073830827 0)
(-0.017225873 0.16571513 0)
(-0.031292058 0.21336175 0)
(-0.039695274 0.23215513 0)
(-0.041899492 0.2337837 0)
(-0.039370443 0.22537844 0)
(-0.033834506 0.21060048 0)
(-0.027024128 0.1908038 0)
(-0.020616784 0.16589618 0)
(-0.016240454 0.13494221 0)
(-0.015500993 0.096477767 0)
(-0.01994924 0.048699627 0)
(-0.030940882 -0.010401614 0)
(-0.049254674 -0.082908999 0)
(-0.074417102 -0.17013195 0)
(-0.10329151 -0.27049171 0)
(-0.1272655 -0.37368425 0)
(-0.12974135 -0.44867595 0)
(-0.094916937 -0.42749529 0)
(-0.0309308 -0.21612135 0)
(-0.0093006915 0.086950257 0)
(-0.027435679 0.18184613 0)
(-0.040989861 0.22302168 0)
(-0.042692516 0.23377517 0)
(-0.03442288 0.22878765 0)
(-0.01964377 0.21591009 0)
(-0.0012622681 0.19877034 0)
(0.018320025 0.17855906 0)
(0.037045323 0.15508213 0)
(0.053029787 0.12736191 0)
(0.06439668 0.093942094 0)
(0.069207584 0.05302268 0)
(0.065393607 0.0024718663 0)
(0.051028001 -0.060330003 0)
(0.024625799 -0.13836801 0)
(-0.013716502 -0.23416381 0)
(-0.058765211 -0.34516327 0)
(-0.093518367 -0.4495327 0)
(-0.094473047 -0.47558044 0)
(-0.039216644 -0.28047757 0)
(-0.01858079 0.11087144 0)
(-0.046042569 0.20177313 0)
(-0.055237164 0.2279245 0)
(-0.043996537 0.22500801 0)
(-0.019388533 0.21060255 0)
(0.012313622 0.1922705 0)
(0.046970572 0.17277751 0)
(0.081729951 0.15264938 0)
(0.11441306 0.13135141 0)
(0.1431288 0.10779717 0)
(0.16599361 0.080595838 0)
(0.18095978 0.048118244 0)
(0.18555691 0.0084563137 0)
(0.17714888 -0.040810475 0)
(0.15274498 -0.10316997 0)
(0.10947667 -0.18390119 0)
(0.047230701 -0.28855074 0)
(-0.021446151 -0.41050672 0)
(-0.072256168 -0.49101289 0)
(-0.041148202 -0.35053966 0)
(-0.033352266 0.15561653 0)
(-0.068602921 0.22040383 0)
(-0.055191441 0.21728905 0)
(-0.016086311 0.19531908 0)
(0.03449971 0.17091715 0)
(0.088492811 0.14848848 0)
(0.14175072 0.12860754 0)
(0.19194922 0.11057423 0)
(0.23751997 0.093296284 0)
(0.27709957 0.075575819 0)
(0.30919863 0.056184007 0)
(0.33202557 0.033827177 0)
(0.34316021 0.0070318849 0)
(0.33981583 -0.025905888 0)
(0.31812188 -0.067737795 0)
(0.27326879 -0.12410502 0)
(0.20044061 -0.20584532 0)
(0.10213499 -0.32506777 0)
(-0.01238976 -0.45457022 0)
(-0.023757293 -0.40863939 0)
(-0.033080779 0.23907427 0)
(-0.042646576 0.21792083 0)
(0.04220686 0.16426566 0)
(0.12760214 0.12783388 0)
(0.20769277 0.10143282 0)
(0.28027341 0.081655332 0)
(0.3448622 0.06664569 0)
(0.40157004 0.054701376 0)
(0.45053646 0.044398789 0)
(0.49160601 0.034640258 0)
(0.52414816 0.024551805 0)
(0.5469739 0.013383542 0)
(0.5582121 0.00040183974 0)
(0.55570127 -0.015135224 0)
(0.53552025 -0.034967378 0)
(0.49244243 -0.062486955 0)
(0.41796987 -0.10694703 0)
(0.30410397 -0.19317525 0)
(0.12313668 -0.33691893 0)
(0.052373831 -0.39437902 0)
(0.24299965 0.15257518 0)
(0.30529723 0.1185434 0)
(0.45481334 0.076108355 0)
(0.56000941 0.050840039 0)
(0.63223249 0.03512565 0)
(0.68654681 0.024811752 0)
(0.72943436 0.017959583 0)
(0.76379119 0.013255575 0)
(0.79127348 0.0097620874 0)
(0.81274557 0.0068544977 0)
(0.82840595 0.0041188655 0)
(0.83793946 0.001277332 0)
(0.84056744 -0.0018437891 0)
(0.8349736 -0.0053258323 0)
(0.8188661 -0.0098285886 0)
(0.78942855 -0.016232519 0)
(0.73784313 -0.02693564 0)
(0.65316789 -0.051286597 0)
(0.45609778 -0.11374612 0)
(0.31788989 -0.1720601 0)
)
;

boundaryField
{
    movingWall
    {
        type            fixedValue;
        value           uniform (1 0 0);
    }
    fixedWalls
    {
        type            fixedValue;
        value           uniform (0 0 0);
    }
    frontAndBack
    {
        type            empty;
    }
}


// ************************************************************************* //
