/*--------------------------------*- C++ -*----------------------------------*\
  =========                 |
  \\      /  F ield         | OpenFOAM: The Open Source CFD Toolbox
   \\    /   O peration     | Website:  https://openfoam.org
    \\  /    A nd           | Version:  9
     \\/     M anipulation  |
\*---------------------------------------------------------------------------*/
FoamFile
{
    format      ascii;
    class       volScalarField;
    location    "37";
    object      p;
}
// * * * * * * * * * * * * * * * * * * * * * * * * * * * * * * * * * * * * * //

dimensions      [0 2 -2 0 0 0 0];

internalField   nonuniform List<scalar> 
400
(
1.3241647e-08
-0.00067286118
-0.0013853389
-0.001942697
-0.0022199899
-0.0021564864
-0.0017277819
-0.00092619115
0.00023542961
0.0017074141
0.0033872929
0.0051121988
0.0066734766
0.0078490975
0.0084583821
0.0084236775
0.0078133964
0.0068445266
0.005861317
0.0052989663
0.00065785352
-4.0513535e-05
-0.00056964751
-0.00094061345
-0.001110851
-0.0010399083
-0.00070577766
-9.553311e-05
0.00078910992
0.0019161962
0.0032095943
0.0045547109
0.0057819674
0.0067162614
0.00721443
0.0072145348
0.0067699608
0.0060527773
0.00531054
0.0047385031
0.001423711
0.00044066168
-0.00011658818
-0.0004532317
-0.00061479733
-0.00058480004
-0.00034656909
0.00011975321
0.00082846781
0.0017699144
0.002894302
0.0040981803
0.0052282602
0.0061109955
0.0065938888
0.0065976774
0.0061557425
0.0054215116
0.0045937496
0.0037482396
0.0020142056
0.00068169577
1.6779998e-05
-0.0003588424
-0.00057153924
-0.00062655062
-0.00051007392
-0.00019062213
0.00036850922
0.0011843912
0.0022299199
0.0034174407
0.0045913863
0.0055569631
0.0061235722
0.0061665712
0.0056836236
0.0048170501
0.0037472925
0.0024735988
0.0021672762
0.00049612492
-0.00029625095
-0.00074869599
-0.0010582437
-0.0012452621
-0.0012927416
-0.0011512957
-0.00075504669
-5.3102936e-05
0.00095701698
0.0022102768
0.0035447099
0.0047326705
0.0055218522
0.0057098902
0.00522929
0.0042016066
0.0028061847
0.00098396073
0.0016539672
-0.00031447346
-0.0012387815
-0.0017992937
-0.0022526535
-0.002627901
-0.0028986144
-0.0029910782
-0.0028025369
-0.0022376849
-0.0012511126
0.00013087045
0.0017446314
0.0033271069
0.0045416481
0.0050657847
0.0047175004
0.003566202
0.001789594
-0.00072592252
0.00028702938
-0.0019195652
-0.0029729935
-0.0036713775
-0.0043202905
-0.0049531924
-0.0055301111
-0.0059479459
-0.006058999
-0.0057073805
-0.0047757226
-0.0032587105
-0.001266524
0.00090717048
0.0028231279
0.0039868413
0.0040250989
0.00288771
0.00071537832
-0.0026805017
-0.0020764259
-0.0044511871
-0.0056267991
-0.0064923194
-0.0073929184
-0.008365758
-0.0093569096
-0.010231767
-0.010790956
-0.010804829
-0.010063352
-0.0084617601
-0.0060407748
-0.0030832274
-0.00012631343
0.0021126208
0.0029638263
0.0021355799
-0.00036603676
-0.0048726131
-0.0055241642
-0.0079921105
-0.0092779156
-0.010333785
-0.011538
-0.01293542
-0.014462704
-0.015956306
-0.01716245
-0.017766022
-0.017438072
-0.015919471
-0.013122965
-0.0092517705
-0.0048990192
-0.001030024
0.0012694045
0.0012777597
-0.0013339617
-0.007201681
-0.010076909
-0.012565094
-0.01393666
-0.015183998
-0.016718382
-0.018602636
-0.020774215
-0.023048771
-0.025121686
-0.026586353
-0.026969355
-0.02581295
-0.022845686
-0.018074459
-0.012051101
-0.0059519624
-0.0013707463
0.00030058855
-0.0019472072
-0.009382229
-0.015684984
-0.018132412
-0.019537554
-0.020926804
-0.022757738
-0.025129888
-0.027997038
-0.031166436
-0.03429149
-0.036876861
-0.038294187
-0.037844295
-0.03506587
-0.02960148
-0.021822506
-0.012985585
-0.0051849828
-0.00071575654
-0.0017642041
-0.01079226
-0.022243601
-0.024613035
-0.02594559
-0.027334957
-0.029324157
-0.032079224
-0.035588963
-0.039664692
-0.043927307
-0.04780132
-0.050530201
-0.051236496
-0.048956894
-0.043143561
-0.033769027
-0.021926352
-0.01003689
-0.0014154499
-9.8717495e-06
-0.010225624
-0.029641229
-0.031923895
-0.032978739
-0.034079871
-0.035939513
-0.038831501
-0.042795609
-0.047651608
-0.052990569
-0.058163614
-0.062284264
-0.064265547
-0.062875174
-0.057112202
-0.046476755
-0.031649097
-0.015037869
-0.00086439501
0.0046467596
-0.0055215406
-0.037866028
-0.040048527
-0.040440134
-0.040752512
-0.042015059
-0.044653066
-0.048758182
-0.05414406
-0.060356052
-0.066665374
-0.072060712
-0.075268302
-0.074811378
-0.069269281
-0.057628319
-0.039961518
-0.018247978
0.0027890343
0.014445155
0.0069075463
-0.047230609
-0.04913439
-0.048140599
-0.046882286
-0.046905506
-0.048798713
-0.052668306
-0.05827602
-0.06507611
-0.072232012
-0.078595789
-0.082712341
-0.082880226
-0.077309404
-0.06452395
-0.043934963
-0.016747993
0.012502945
0.032938784
0.032408954
-0.058896793
-0.059639909
-0.055883965
-0.051941057
-0.049972305
-0.050629888
-0.053928676
-0.059495367
-0.066611876
-0.07428531
-0.081191184
-0.085679422
-0.085831813
-0.079522208
-0.06487611
-0.040689274
-0.0072409238
0.032139372
0.064981452
0.077749184
-0.076226504
-0.072613722
-0.063516239
-0.055435416
-0.050725016
-0.04978159
-0.052312351
-0.057664386
-0.06489184
-0.072774988
-0.079779383
-0.084036764
-0.083391671
-0.075348976
-0.057602684
-0.028375147
0.012933326
0.065396478
0.11555151
0.15150623
-0.10809225
-0.0895563
-0.071233853
-0.057233056
-0.049072164
-0.046330229
-0.048077275
-0.05320262
-0.06043464
-0.068295883
-0.075027412
-0.078526932
-0.076389024
-0.06580969
-0.043865491
-0.0078184549
0.044393668
0.11299815
0.18838043
0.27186077
-0.17684561
-0.10828967
-0.076202446
-0.054651238
-0.042992397
-0.038998049
-0.040570527
-0.045928059
-0.053441554
-0.061438377
-0.068027604
-0.070962577
-0.067551151
-0.05473985
-0.029148826
0.013563594
0.078146955
0.17006436
0.28949547
0.47421822
-0.37208369
-0.12470858
-0.054973095
-0.03196252
-0.022063561
-0.020300533
-0.024359472
-0.031958017
-0.041261578
-0.050640906
-0.058316921
-0.062187483
-0.059782573
-0.048056827
-0.022658541
0.021474199
0.092818718
0.21015277
0.40288842
0.77640929
)
;

boundaryField
{
    movingWall
    {
        type            zeroGradient;
    }
    fixedWalls
    {
        type            zeroGradient;
    }
    frontAndBack
    {
        type            empty;
    }
}


// ************************************************************************* //
