/*--------------------------------*- C++ -*----------------------------------*\
  =========                 |
  \\      /  F ield         | OpenFOAM: The Open Source CFD Toolbox
   \\    /   O peration     | Website:  https://openfoam.org
    \\  /    A nd           | Version:  9
     \\/     M anipulation  |
\*---------------------------------------------------------------------------*/
FoamFile
{
    format      ascii;
    class       volVectorField;
    location    "37";
    object      U_0;
}
// * * * * * * * * * * * * * * * * * * * * * * * * * * * * * * * * * * * * * //

dimensions      [0 1 -1 0 0 0 0];

internalField   nonuniform List<vector> 
400
(
(0.00028445153 -0.00028138901 0)
(0.00011070588 7.99707e-05 0)
(-0.0013271911 0.00047803603 0)
(-0.0036219058 0.00073593492 0)
(-0.0064236756 0.00086752622 0)
(-0.0094315227 0.00090727537 0)
(-0.012388067 0.00087487286 0)
(-0.015056529 0.00077153627 0)
(-0.01719465 0.00058849328 0)
(-0.018552961 0.0003200856 0)
(-0.018902726 -2.481314e-05 0)
(-0.018086237 -0.00041827017 0)
(-0.016079963 -0.00079972651 0)
(-0.013048987 -0.0010930871 0)
(-0.009366413 -0.0012212152 0)
(-0.0055776647 -0.001129482 0)
(-0.0023003377 -0.0008128712 0)
(-8.2948454e-05 -0.00033798233 0)
(0.00076015376 0.00015229467 0)
(0.00040944253 0.00038933865 0)
(-8.6057568e-05 -0.00012357464 0)
(-0.0018692574 0.0017872696 0)
(-0.0063065446 0.0036260826 0)
(-0.012452746 0.0048625295 0)
(-0.019600762 0.0054985667 0)
(-0.027107123 0.005620709 0)
(-0.034359119 0.0052860648 0)
(-0.040769149 0.0045044055 0)
(-0.045758473 0.003266234 0)
(-0.048776218 0.0015896542 0)
(-0.04936697 -0.00043547938 0)
(-0.047254137 -0.0026182105 0)
(-0.042452259 -0.0046645719 0)
(-0.035361689 -0.0062189559 0)
(-0.026778741 -0.0069376262 0)
(-0.017827329 -0.0065923 0)
(-0.00977556 -0.0051797993 0)
(-0.0037462984 -0.0029994435 0)
(-0.00038874997 -0.00066553633 0)
(0.00028989609 0.00078354886 0)
(-0.00058807924 0.0014336381 0)
(-0.0042428196 0.0063775567 0)
(-0.011758631 0.010640664 0)
(-0.021468838 0.013483711 0)
(-0.032366427 0.014898413 0)
(-0.043588331 0.015017489 0)
(-0.054287809 0.013936248 0)
(-0.063643013 0.0116843 0)
(-0.070856344 0.0082813911 0)
(-0.075188886 0.0038286523 0)
(-0.076040062 -0.0014059371 0)
(-0.073058226 -0.0069357101 0)
(-0.066267051 -0.012071835 0)
(-0.056169641 -0.016000358 0)
(-0.043781009 -0.017942849 0)
(-0.030569304 -0.017380041 0)
(-0.01825071 -0.014290034 0)
(-0.0084179896 -0.0093123279 0)
(-0.0021511228 -0.0037618396 0)
(-1.9698056e-06 0.00031696862 0)
(-0.0010530686 0.0043004037 0)
(-0.0065148928 0.013565823 0)
(-0.016999229 0.020864231 0)
(-0.030031098 0.025561412 0)
(-0.044300897 0.027761634 0)
(-0.058784713 0.027688121 0)
(-0.072488042 0.025487767 0)
(-0.084447489 0.021218509 0)
(-0.093729541 0.01494516 0)
(-0.099464822 0.0068783784 0)
(-0.10093072 -0.0025013261 0)
(-0.097663342 -0.012378529 0)
(-0.089593479 -0.021605542 0)
(-0.077182526 -0.028824948 0)
(-0.061505299 -0.03270623 0)
(-0.044253773 -0.032300064 0)
(-0.027562289 -0.027445999 0)
(-0.013581786 -0.019080755 0)
(-0.0040263579 -0.0092707113 0)
(-0.0002677205 -0.0011081893 0)
(-0.0014558702 0.0083650654 0)
(-0.0085490979 0.023181338 0)
(-0.021746314 0.034051808 0)
(-0.037792615 0.040763248 0)
(-0.055097133 0.043701919 0)
(-0.072519861 0.043259177 0)
(-0.088984761 0.039661592 0)
(-0.10345883 0.033001436 0)
(-0.11493262 0.023384276 0)
(-0.1224373 0.01111675 0)
(-0.12511569 -0.0031289801 0)
(-0.12232022 -0.018219462 0)
(-0.11376181 -0.032541735 0)
(-0.099698481 -0.044132771 0)
(-0.081100669 -0.050966438 0)
(-0.059776444 -0.051441369 0)
(-0.038291252 -0.045013743 0)
(-0.019520486 -0.032755611 0)
(-0.0060923496 -0.017491877 0)
(-0.00051102284 -0.0035220289 0)
(-0.0017889398 0.013475495 0)
(-0.010269749 0.034960974 0)
(-0.025805589 0.049908797 0)
(-0.044466902 0.058794982 0)
(-0.064427915 0.062458552 0)
(-0.084477806 0.061551066 0)
(-0.10351687 0.056416176 0)
(-0.12050386 0.0471823 0)
(-0.13440432 0.033970398 0)
(-0.14417429 0.017132371 0)
(-0.14880382 -0.0025359572 0)
(-0.14739363 -0.023636507 0)
(-0.13931143 -0.04414277 0)
(-0.12443582 -0.061442321 0)
(-0.10343184 -0.072642526 0)
(-0.078056048 -0.075174116 0)
(-0.051261013 -0.06770691 0)
(-0.026809497 -0.051124281 0)
(-0.0086123148 -0.028965703 0)
(-0.00078707417 -0.0070521592 0)
(-0.00204204 0.019436576 0)
(-0.01160568 0.048529058 0)
(-0.028995866 0.067998527 0)
(-0.049757846 0.079226232 0)
(-0.07189179 0.083657606 0)
(-0.094162278 0.082297919 0)
(-0.11550027 0.075649838 0)
(-0.13491526 0.063877008 0)
(-0.15140353 0.047076038 0)
(-0.16388502 0.02556778 0)
(-0.17119263 0.00016300024 0)
(-0.1721548 -0.027610707 0)
(-0.1657159 -0.055396449 0)
(-0.15119218 -0.079945897 0)
(-0.12870077 -0.097351373 0)
(-0.099670146 -0.10369876 0)
(-0.06724193 -0.096286274 0)
(-0.036119175 -0.075220333 0)
(-0.011929749 -0.044539884 0)
(-0.0011708192 -0.012001499 0)
(-0.0022012917 0.026013429 0)
(-0.012484743 0.063419722 0)
(-0.031139975 0.087764648 0)
(-0.053354666 0.10149045 0)
(-0.077017856 0.10677731 0)
(-0.10091222 0.10507392 0)
(-0.12405026 0.097088315 0)
(-0.14555194 0.083021466 0)
(-0.1645098 0.062902239 0)
(-0.17987612 0.036930823 0)
(-0.1903994 0.0057954931 0)
(-0.19465585 -0.029033486 0)
(-0.19113646 -0.065018206 0)
(-0.17848991 -0.098391233 0)
(-0.15602505 -0.12417766 0)
(-0.12444503 -0.136763 0)
(-0.08664671 -0.13132926 0)
(-0.048063806 -0.10623298 0)
(-0.016429383 -0.065393312 0)
(-0.0017537949 -0.018878437 0)
(-0.0022557109 0.032933312 0)
(-0.012853728 0.07908862 0)
(-0.032098963 0.10853518 0)
(-0.054981909 0.12486444 0)
(-0.079334956 0.13109305 0)
(-0.10399431 0.12919943 0)
(-0.12810044 0.12015145 0)
(-0.15094519 0.10420154 0)
(-0.17179742 0.08127838 0)
(-0.18974481 0.051375581 0)
(-0.20357633 0.014915378 0)
(-0.21172916 -0.026876173 0)
(-0.21232525 -0.071532443 0)
(-0.20333824 -0.1150262 0)
(-0.18306288 -0.15144724 0)
(-0.15101797 -0.17328524 0)
(-0.10916565 -0.17282204 0)
(-0.06302641 -0.14524397 0)
(-0.022524986 -0.092978148 0)
(-0.0026589644 -0.028422213 0)
(-0.002208634 0.039904559 0)
(-0.012717086 0.094944331 0)
(-0.031841312 0.1295403 0)
(-0.054496846 0.14845866 0)
(-0.078500117 0.15563562 0)
(-0.10277104 0.15366655 0)
(-0.12662146 0.14384612 0)
(-0.14957662 0.12651342 0)
(-0.17117095 0.10149253 0)
(-0.19075578 0.068517122 0)
(-0.20732711 0.027627531 0)
(-0.21937773 -0.020394312 0)
(-0.2248878 -0.073462023 0)
(-0.22130659 -0.1276889 0)
(-0.20585481 -0.17662071 0)
(-0.17647628 -0.21099215 0)
(-0.13334659 -0.21961326 0)
(-0.080899186 -0.19275403 0)
(-0.030641905 -0.12885266 0)
(-0.0040700743 -0.041637063 0)
(-0.0020933491 0.046663324 0)
(-0.012189726 0.11041864 0)
(-0.030536214 0.14996592 0)
(-0.052017597 0.17124312 0)
(-0.074465012 0.17919263 0)
(-0.096919923 0.1771212 0)
(-0.11891407 0.16672986 0)
(-0.14026652 0.14850282 0)
(-0.16086208 0.12219249 0)
(-0.18044322 0.087272644 0)
(-0.19840292 0.043352575 0)
(-0.21353681 -0.0093897113 0)
(-0.2240146 -0.069676742 0)
(-0.22708288 -0.13413355 0)
(-0.21908959 -0.19645343 0)
(-0.1962665 -0.24625233 0)
(-0.15621929 -0.26886044 0)
(-0.10070625 -0.24798819 0)
(-0.041146022 -0.17433509 0)
(-0.0062706215 -0.059833959 0)
(-0.0019963282 0.053057501 0)
(-0.0115655 0.12508359 0)
(-0.028660952 0.16904528 0)
(-0.048056612 0.19210926 0)
(-0.067638433 0.20035678 0)
(-0.086643882 0.19791293 0)
(-0.10489589 0.18696733 0)
(-0.12256942 0.16821865 0)
(-0.13996398 0.14140914 0)
(-0.15729756 0.10579906 0)
(-0.17451556 0.060571787 0)
(-0.19108366 0.0052257085 0)
(-0.20560156 -0.059922494 0)
(-0.21550583 -0.13260799 0)
(-0.21690134 -0.207528 0)
(-0.20457804 -0.27431827 0)
(-0.17317489 -0.31571794 0)
(-0.12017098 -0.30807993 0)
(-0.054147492 -0.22988384 0)
(-0.0096749059 -0.084653185 0)
(-0.0020996004 0.059184306 0)
(-0.011414854 0.13881595 0)
(-0.027115362 0.18617349 0)
(-0.043624828 0.20994723 0)
(-0.058981199 0.21760167 0)
(-0.072777787 0.21419787 0)
(-0.085249918 0.20247372 0)
(-0.09700111 0.18339422 0)
(-0.10878854 0.15675624 0)
(-0.12135024 0.1216863 0)
(-0.1352539 0.077015416 0)
(-0.1507027 0.021618184 0)
(-0.167122 -0.045110807 0)
(-0.18273999 -0.12251615 0)
(-0.19405352 -0.20712626 0)
(-0.19523503 -0.29011485 0)
(-0.17829425 -0.35358521 0)
(-0.13540546 -0.36743821 0)
(-0.069089023 -0.29415304 0)
(-0.014795029 -0.11798451 0)
(-0.0027676941 0.065619986 0)
(-0.012740979 0.15199863 0)
(-0.027329944 0.20099738 0)
(-0.040244463 0.22368379 0)
(-0.049928489 0.22933099 0)
(-0.056643273 0.22403763 0)
(-0.061232389 0.21108068 0)
(-0.064815776 0.19168183 0)
(-0.068620446 0.16572047 0)
(-0.073874731 0.13227354 0)
(-0.081727926 0.089960247 0)
(-0.09311984 0.037200107 0)
(-0.10846904 -0.027479131 0)
(-0.12721362 -0.10497645 0)
(-0.14705408 -0.19422083 0)
(-0.16280336 -0.28948652 0)
(-0.16509069 -0.37509947 0)
(-0.14090145 -0.41772704 0)
(-0.084061562 -0.36281408 0)
(-0.022011634 -0.16157411 0)
(-0.004719582 0.073834785 0)
(-0.0172224 0.16572645 0)
(-0.031284262 0.21337843 0)
(-0.039683055 0.23217433 0)
(-0.041883257 0.2338026 0)
(-0.039350802 0.22539475 0)
(-0.033812221 0.21061261 0)
(-0.027000016 0.19081087 0)
(-0.020591652 0.16589803 0)
(-0.016215065 0.13493926 0)
(-0.015476017 0.096470885 0)
(-0.019925241 0.048689983 0)
(-0.03091834 -0.010412762 0)
(-0.049234026 -0.082920545 0)
(-0.074398894 -0.1701432 0)
(-0.10327649 -0.27050262 0)
(-0.12725447 -0.3736954 0)
(-0.12973492 -0.44868785 0)
(-0.094914796 -0.42750701 0)
(-0.030930662 -0.21612807 0)
(-0.009299999 0.086952167 0)
(-0.027432067 0.18185346 0)
(-0.040981526 0.22303367 0)
(-0.042679231 0.23378976 0)
(-0.03440506 0.22880249 0)
(-0.019622162 0.21592318 0)
(-0.0012378754 0.1987802 0)
(0.018346143 0.17856487 0)
(0.037072142 0.15508364 0)
(0.053056348 0.12735939 0)
(0.064422215 0.093936244 0)
(0.069231535 0.053014498 0)
(0.065415595 0.0024625026 0)
(0.05104783 -0.060339453 0)
(0.024643278 -0.13837673 0)
(-0.013701741 -0.23417151 0)
(-0.05875368 -0.34517039 0)
(-0.093510865 -0.44954003 0)
(-0.094469895 -0.4755883 0)
(-0.039216113 -0.28048286 0)
(-0.018580313 0.11087147 0)
(-0.046039621 0.20177658 0)
(-0.055229921 0.22793174 0)
(-0.043984569 0.2250178 0)
(-0.019372052 0.21061312 0)
(0.012333946 0.19228022 0)
(0.046993748 0.17278511 0)
(0.081754888 0.15265409 0)
(0.11443863 0.1313529 0)
(0.14315394 0.10779554 0)
(0.16601746 0.080591562 0)
(0.1809817 0.048112067 0)
(0.1855765 0.008449152 0)
(0.17716602 -0.040817654 0)
(0.15275969 -0.10317636 0)
(0.10948896 -0.18390634 0)
(0.047240635 -0.28855476 0)
(-0.021439218 -0.41051048 0)
(-0.072252923 -0.49101708 0)
(-0.041147482 -0.35054299 0)
(-0.03335224 0.15561542 0)
(-0.068601623 0.22040443 0)
(-0.05518726 0.21729229 0)
(-0.016078488 0.1953245 0)
(0.034511416 0.1709236 0)
(0.088508146 0.14849477 0)
(0.141769 0.12861272 0)
(0.19196951 0.11057767 0)
(0.23754119 0.093297646 0)
(0.27712066 0.075575087 0)
(0.30921861 0.05618144 0)
(0.33204371 0.033823245 0)
(0.34317599 0.0070271749 0)
(0.3398291 -0.025910575 0)
(0.31813267 -0.067741859 0)
(0.27327737 -0.12410803 0)
(0.20044733 -0.20584717 0)
(0.10213984 -0.32506916 0)
(-0.012387251 -0.45457172 0)
(-0.023756651 -0.40864073 0)
(-0.033081112 0.23907315 0)
(-0.042647152 0.21792009 0)
(0.042207223 0.16426629 0)
(0.12760463 0.12783581 0)
(0.20769806 0.10143554 0)
(0.28028174 0.081658209 0)
(0.34487328 0.066648176 0)
(0.40158324 0.05470308 0)
(0.45055087 0.044399497 0)
(0.49162064 0.034639937 0)
(0.52416207 0.024550585 0)
(0.54698625 0.013381689 0)
(0.55822251 0.0003997209 0)
(0.55570952 -0.015137355 0)
(0.53552629 -0.034969205 0)
(0.49244663 -0.06248821 0)
(0.41797274 -0.10694763 0)
(0.30410596 -0.19317544 0)
(0.12313783 -0.33691905 0)
(0.052374208 -0.39437913 0)
(0.24299926 0.15257479 0)
(0.30529618 0.11854286 0)
(0.45481215 0.076108136 0)
(0.56000885 0.050840197 0)
(0.63223324 0.035126093 0)
(0.6865492 0.024812316 0)
(0.72943835 0.017960107 0)
(0.76379643 0.013255932 0)
(0.79127941 0.0097622054 0)
(0.81275158 0.0068543619 0)
(0.82841148 0.0041185175 0)
(0.83794405 0.0012768536 0)
(0.8405708 -0.0018442025 0)
(0.83497559 -0.0053262623 0)
(0.81886698 -0.009828967 0)
(0.78942866 -0.01623275 0)
(0.73784287 -0.026935706 0)
(0.65316763 -0.05128655 0)
(0.45609767 -0.11374603 0)
(0.31788988 -0.17206002 0)
)
;

boundaryField
{
    movingWall
    {
        type            fixedValue;
        value           uniform (1 0 0);
    }
    fixedWalls
    {
        type            fixedValue;
        value           uniform (0 0 0);
    }
    frontAndBack
    {
        type            empty;
    }
}


// ************************************************************************* //
