/*--------------------------------*- C++ -*----------------------------------*\
  =========                 |
  \\      /  F ield         | OpenFOAM: The Open Source CFD Toolbox
   \\    /   O peration     | Website:  https://openfoam.org
    \\  /    A nd           | Version:  9
     \\/     M anipulation  |
\*---------------------------------------------------------------------------*/
FoamFile
{
    format      ascii;
    class       volScalarField;
    location    "0.03";
    object      alpha.phase1;
}
// * * * * * * * * * * * * * * * * * * * * * * * * * * * * * * * * * * * * * //

dimensions      [0 0 0 0 0 0 0];

internalField   nonuniform List<scalar> 
10000
(
2.2366737e-148
3.2650465e-148
4.6784264e-145
4.0806049e-142
2.6697625e-139
1.3985237e-136
6.1189304e-134
2.3036955e-131
7.6315974e-129
2.2640405e-126
6.1018307e-124
1.5124625e-121
3.487548e-119
7.5807058e-117
1.5881448e-114
3.3520847e-112
7.6368246e-110
2.0760172e-107
6.3570083e-105
1.822343e-102
4.2512656e-100
7.4010733e-98
8.9928875e-96
7.1417141e-94
3.4897237e-92
9.8522896e-91
1.2156484e-89
5.4728559e-89
2.0058209e-87
1.525214e-85
1.0182029e-83
5.7924539e-82
2.4265641e-80
8.4526807e-79
2.0330204e-77
3.0560772e-76
3.0180001e-75
6.8739933e-75
9.0598873e-74
1.8787555e-72
2.7028017e-71
1.6820895e-71
2.3754005e-72
2.3754005e-72
2.3754005e-72
2.1710775e-72
8.5795387e-73
3.8429061e-73
3.8429063e-73
3.8429063e-73
3.8439031e-73
3.8448999e-73
3.8448998e-73
8.575782e-73
2.1690568e-72
2.3718583e-72
2.3718583e-72
2.3718583e-72
1.6781049e-71
2.6870656e-71
1.7757621e-72
2.0523373e-74
2.4457459e-75
1.5035992e-75
3.0091867e-76
2.4433192e-77
6.5582411e-79
7.1655033e-81
1.0395328e-82
8.6704901e-85
6.2366404e-87
6.1039049e-89
1.2040855e-89
1.1557617e-89
8.8605195e-91
2.1162919e-92
1.9134934e-94
1.1374346e-97
3.6902348e-100
2.3467032e-102
1.4709304e-104
8.9388127e-107
5.2597876e-109
3.0042257e-111
1.6527029e-113
8.6971385e-116
4.3468727e-118
2.0481831e-120
9.0263186e-123
3.6878307e-125
1.382977e-127
4.7051677e-130
1.4321421e-132
3.8330814e-135
8.8240723e-138
1.6963693e-140
2.6118793e-143
3.0193222e-146
2.1488451e-149
1.4626467e-149
2.2366931e-148
1.4931829e-145
3.856826e-142
4.4060654e-139
3.3205613e-136
1.9012625e-133
8.8440336e-131
3.4839466e-128
1.1958315e-125
3.6513587e-123
1.0093679e-120
2.5589981e-118
6.0415471e-116
1.3574839e-113
3.0560735e-111
7.6453527e-109
2.3036951e-106
7.5945842e-104
2.2690558e-101
5.3539893e-99
9.2049672e-97
1.0862928e-94
8.2551667e-93
3.843054e-91
1.2532801e-89
2.9051681e-88
2.0221726e-87
6.044425e-86
5.2539515e-84
4.2796531e-82
2.7946691e-80
1.4162657e-78
5.7007211e-77
1.5014057e-75
3.0531071e-74
1.6301208e-74
5.9180519e-74
2.0432976e-72
4.4806709e-71
1.0297392e-69
2.0982458e-69
3.5697778e-70
1.6733829e-71
4.2751523e-72
2.0166032e-71
8.6251587e-72
1.8925018e-72
9.0494658e-73
6.5479129e-73
7.495574e-73
7.4937683e-73
6.5492468e-73
9.0671933e-73
1.8904787e-72
8.6198478e-72
2.0137306e-71
4.2625581e-72
1.6698633e-71
3.5304242e-70
2.0892199e-69
1.0194587e-69
2.1970398e-71
2.0510069e-74
2.4457459e-75
2.9134955e-75
3.656769e-74
1.3742677e-75
3.6551112e-79
7.1623935e-81
1.0392243e-82
8.6704594e-85
6.2366404e-87
6.1039049e-89
9.3726002e-88
2.387729e-88
2.8758727e-90
1.5633629e-93
4.8655081e-96
3.6411521e-98
2.5202203e-100
1.6421925e-102
9.2343778e-105
5.267364e-107
2.8608324e-109
1.5153107e-111
7.7600695e-114
3.7936854e-116
1.7531333e-118
7.5816061e-121
3.0375015e-123
1.1135219e-125
3.6908811e-128
1.0870723e-130
2.7880546e-133
6.0558424e-136
1.0686193e-138
1.4336531e-141
1.2776915e-144
6.6894447e-148
1.4627729e-149
1.9615928e-145
2.9296082e-142
7.101431e-139
1.4097495e-135
1.2480029e-132
7.7111115e-130
3.7469819e-127
1.5164557e-124
5.2947661e-122
1.6355723e-119
4.5554045e-117
1.160457e-114
2.7478348e-112
6.1867978e-110
1.3967174e-107
3.522621e-105
1.0724703e-102
3.5428697e-100
1.0503165e-97
2.4457739e-95
4.1380414e-93
4.8128242e-91
3.6245343e-89
1.6853518e-87
5.5280699e-86
1.270327e-84
7.6461968e-84
1.2471739e-82
9.5838182e-81
7.7629955e-79
5.0039607e-77
2.4902206e-75
9.7150474e-74
2.3682418e-72
5.0256088e-71
1.8171998e-71
6.2160718e-71
2.2433003e-69
4.8174747e-68
1.0836664e-66
2.2323392e-66
5.3783161e-67
2.3842453e-68
5.3013997e-69
1.9533883e-68
1.3944448e-68
3.5256552e-69
1.6011929e-69
7.6358472e-70
8.7073127e-70
8.7051734e-70
7.6383196e-70
1.6021547e-69
3.52509e-69
1.3933318e-68
1.9508133e-68
5.2807304e-69
2.3783683e-68
5.3586128e-67
2.2233067e-66
1.0708535e-66
2.5645555e-68
3.3964229e-71
2.4112305e-72
5.7678811e-72
5.0318503e-71
2.145088e-72
9.0998821e-76
1.8571528e-77
2.7774964e-79
2.3352158e-81
1.6615951e-83
1.1335647e-85
5.4594658e-84
1.0818769e-84
1.3952937e-86
7.4962339e-90
2.2480041e-92
1.555221e-94
1.1148731e-96
7.5564811e-99
4.299903e-101
2.4673485e-103
1.3545779e-105
7.2177316e-108
3.7123137e-110
1.8205506e-112
8.4199489e-115
3.6376098e-117
1.4526665e-119
5.2923504e-122
1.7356064e-124
5.0286033e-127
1.2556671e-129
2.6112822e-132
4.2686923e-135
4.8707984e-138
2.5080169e-141
9.9809385e-145
6.7371649e-148
1.0332114e-141
1.5290857e-138
1.4119285e-135
2.2878952e-132
3.3022565e-129
2.3652678e-126
1.2314282e-123
5.1771607e-121
1.849564e-118
5.7944265e-116
1.6271577e-113
4.1658065e-111
9.8873718e-109
2.2308847e-106
5.0726698e-104
1.2995844e-101
4.004745e-99
1.3146177e-96
3.8143432e-94
8.6395427e-92
1.4208426e-89
1.6137118e-87
1.2019867e-85
5.5723195e-84
1.8351209e-82
4.158879e-81
2.3183245e-80
2.1324948e-79
1.3132764e-77
1.0469962e-75
6.6216338e-74
3.2181258e-72
1.2108511e-70
2.651365e-69
5.1204304e-68
1.3738391e-68
5.1781085e-68
1.7634521e-66
3.7040461e-65
8.1538219e-64
1.6916374e-63
5.1004101e-64
2.1847476e-65
4.2573131e-66
1.3278129e-65
1.2229363e-65
3.1528654e-66
1.4122551e-66
5.7468357e-67
6.5636742e-67
6.5621461e-67
5.7492413e-67
1.4125742e-66
3.1517663e-66
1.2219382e-65
1.3262687e-65
4.2438687e-66
2.1793567e-65
5.0884168e-64
1.6857284e-63
8.0529476e-64
2.1115913e-65
3.6509583e-68
2.9408489e-69
7.7800882e-69
5.0017391e-68
2.42636e-69
1.4511916e-72
3.0959647e-74
4.7913106e-76
4.1089661e-78
2.9499246e-80
2.0540751e-82
1.9464405e-80
3.62347e-81
5.1791705e-83
2.9693897e-86
8.5128296e-89
5.6783255e-91
4.0826885e-93
2.7779659e-95
1.6004853e-97
9.2930746e-100
5.1488863e-102
2.764734e-104
1.429654e-106
7.0349396e-109
3.2598863e-111
1.4076016e-113
5.6000966e-116
2.0255409e-118
6.5545717e-121
1.8572707e-123
4.4664218e-126
8.6740886e-129
1.2245256e-131
8.6029854e-135
5.147114e-138
5.5994336e-141
3.8055836e-144
4.4356628e-138
6.495339e-135
5.9258163e-132
3.9480143e-129
5.1466532e-126
5.5505189e-123
3.2920255e-120
1.4714135e-117
5.4319588e-115
1.7338012e-112
4.9178574e-110
1.2654195e-107
3.0094562e-105
6.8051671e-103
1.5598672e-100
4.0551564e-98
1.2542637e-95
4.0409021e-93
1.1397496e-90
2.5102815e-88
4.0299519e-86
4.4887565e-84
3.2835206e-82
1.5106303e-80
4.9609855e-79
1.1008755e-77
5.9548711e-77
3.3153222e-76
1.4469734e-74
1.126612e-72
6.956163e-71
3.2917877e-69
1.1911757e-67
2.3187677e-66
3.9628127e-65
8.5760609e-66
3.4502782e-65
1.0782505e-63
2.2127887e-62
4.7692234e-61
9.9046286e-61
3.4530269e-61
1.4280191e-62
2.5346275e-63
6.9527959e-63
7.5493521e-63
1.9555951e-63
8.652913e-64
3.1910946e-64
3.6425605e-64
3.6417134e-64
3.192656e-64
8.6536873e-64
1.9547654e-63
7.5431524e-63
6.9455487e-63
2.5276658e-63
1.4244937e-62
3.4448637e-61
9.8790046e-61
4.7076072e-61
1.335158e-62
2.8172711e-65
2.5780921e-66
7.5446008e-66
3.8845057e-65
2.147668e-66
1.6867464e-69
3.772844e-71
6.0638169e-73
5.345216e-75
3.9044591e-77
2.9376326e-79
5.4126874e-77
9.7305641e-78
1.6123852e-79
1.0783712e-82
2.6894495e-85
1.8003925e-87
1.2837093e-89
8.7256319e-92
5.3763112e-94
3.039081e-96
1.6968447e-98
9.211642e-101
4.7992637e-103
2.3737661e-105
1.1030113e-107
4.7619664e-110
1.8868188e-112
6.7603195e-115
2.1483021e-117
5.8921857e-120
1.3333263e-122
2.2735654e-125
2.1328579e-128
1.5584464e-131
2.3493544e-134
2.586926e-137
1.7755585e-140
1.6554863e-134
2.3912716e-131
2.1571953e-128
1.4164509e-125
7.3606517e-123
8.5118513e-120
6.9595674e-117
3.4667535e-114
1.3472544e-111
4.4149509e-109
1.2700014e-106
3.2889825e-104
7.8412559e-102
1.7782024e-99
4.1148927e-97
1.0850897e-94
3.3654183e-92
1.0654846e-89
2.9027977e-87
6.1455797e-85
9.5101951e-83
1.0262901e-80
7.3330981e-79
3.3311926e-77
1.087864e-75
2.368296e-74
1.261022e-73
4.834417e-73
1.3402977e-71
1.007689e-69
6.052522e-68
2.7838713e-66
9.6640885e-65
1.6663743e-63
2.5139562e-62
5.8896541e-63
1.8817981e-62
5.3766669e-61
1.0772007e-59
2.2729753e-58
4.7067137e-58
1.8107285e-58
7.2290627e-60
1.1930355e-60
2.9492619e-60
3.5912735e-60
9.2980277e-61
4.0662797e-61
1.3968032e-61
1.591689e-61
1.5913192e-61
1.3975496e-61
4.0663967e-61
9.2939059e-61
3.58834e-60
2.9465748e-60
1.1901491e-60
7.211361e-60
1.8064919e-58
4.6949749e-58
2.2462955e-58
6.8169927e-60
1.6908e-62
1.7586103e-63
5.6902288e-63
2.4706582e-62
1.5597027e-63
1.541079e-66
3.6158874e-68
6.0478096e-70
5.5081322e-72
4.1201255e-74
6.164149e-74
1.1904802e-73
2.1182418e-74
3.9208924e-76
2.9560035e-79
6.7532259e-82
4.7477351e-84
3.2924421e-86
2.2539815e-88
1.4126814e-90
8.1133361e-93
4.5986495e-95
2.5188688e-97
1.3231512e-99
6.5850686e-102
3.0698623e-104
1.3248799e-106
5.2207371e-109
1.8459635e-111
5.7155073e-114
1.4899804e-116
3.0246034e-119
3.7337365e-122
3.2444128e-125
6.2702615e-128
9.5910016e-131
1.0678135e-133
7.4252809e-137
5.4284916e-131
7.7262152e-128
6.8712124e-125
4.4559576e-122
2.2744719e-119
9.6569502e-117
1.0485265e-113
6.650375e-111
2.8196676e-108
9.6151187e-106
2.8204325e-103
7.3690321e-101
1.7635689e-98
4.0163688e-96
9.4107258e-94
2.5269258e-91
7.8201329e-89
2.4041405e-86
6.2832456e-84
1.2714069e-81
1.8855107e-79
1.9630673e-77
1.3651973e-75
6.1036861e-74
1.9773433e-72
4.2333541e-71
2.231783e-70
6.5837841e-70
1.0761465e-68
7.707122e-67
4.4876536e-65
2.0021606e-63
6.6583082e-62
1.0137076e-60
1.3491489e-59
3.6125204e-60
8.6746143e-60
2.2544953e-58
4.4072705e-57
9.1100154e-56
1.8736584e-55
7.7228792e-56
2.976184e-57
4.6243117e-58
1.0472364e-57
1.3869584e-57
3.5803659e-58
1.548452e-58
5.025049e-59
5.712414e-59
5.711187e-59
5.0279685e-59
1.5484067e-58
3.5788005e-58
1.3858668e-57
1.0464254e-57
4.6143817e-58
2.9689965e-57
7.7050228e-56
1.8690652e-55
9.0136913e-56
2.9037891e-57
8.2723226e-60
9.7838997e-61
3.4986306e-60
1.3293881e-59
9.5748113e-61
1.1568182e-63
2.8468393e-65
4.9577859e-67
4.68995e-69
3.6109091e-71
3.1563329e-70
2.1548513e-70
3.7988701e-71
7.7057136e-73
6.4319629e-76
1.394603e-78
1.0090943e-80
7.0229389e-83
4.8853424e-85
3.1195419e-87
1.8215499e-89
1.0473316e-91
5.8030071e-94
3.0773225e-96
1.5420802e-98
7.2142922e-101
3.1096688e-103
1.2156559e-105
4.2161033e-108
1.2541222e-110
2.9942618e-113
4.7579114e-116
4.5713263e-119
1.081806e-121
2.1288495e-124
3.2970818e-127
3.7233963e-130
2.6289686e-133
1.5742325e-127
2.2008401e-124
1.9276663e-121
1.2305059e-118
6.1942086e-116
2.5737226e-113
9.2199576e-111
9.7613796e-108
4.9201553e-105
1.7926699e-102
5.4155454e-100
1.4340649e-97
3.4519226e-95
7.9167762e-93
1.8834176e-90
5.1370008e-88
1.575701e-85
4.6715537e-83
1.1639016e-80
2.2437732e-78
3.1804135e-76
3.1855348e-74
2.1510873e-72
9.4419644e-71
3.0280638e-69
6.3857666e-68
3.3413353e-67
8.2188295e-67
7.6963249e-66
5.1341758e-64
2.8907428e-62
1.2492177e-60
3.9754814e-59
5.329672e-58
6.250624e-57
1.8642023e-57
3.4516376e-57
8.1180261e-56
1.5485923e-54
3.1384737e-53
6.3910284e-53
3.0078805e-53
1.0287942e-54
1.517131e-55
3.1865102e-55
4.4978033e-55
1.1567643e-55
4.9491883e-56
1.5289093e-56
1.7330085e-56
1.7326477e-56
1.5298643e-56
4.9488479e-56
1.1562562e-55
4.4943014e-55
3.1844348e-55
1.5141681e-55
1.0263725e-54
3.0020645e-53
6.3759363e-53
3.108788e-53
1.0558439e-54
3.4037076e-57
4.5779394e-58
1.8084128e-57
6.1726036e-57
5.0738167e-58
7.3479245e-61
1.8952777e-62
3.4384738e-64
3.3907938e-66
2.7008527e-68
5.737108e-67
3.2622801e-67
5.7630423e-68
1.2536355e-69
1.147864e-72
2.4252279e-75
1.788729e-77
1.2698179e-79
9.0283408e-82
5.8884545e-84
3.4997414e-86
2.0444113e-88
1.1471418e-90
6.1470845e-93
3.103266e-95
1.4563438e-97
6.260702e-100
2.4173928e-102
8.1398683e-105
2.2643285e-107
4.5287503e-110
4.5867181e-113
1.2879091e-115
3.113694e-118
6.2130358e-121
9.7757246e-124
1.1213056e-126
8.0602473e-130
4.0784972e-124
5.5887005e-121
4.7986434e-118
3.0083987e-115
1.4879475e-112
6.0840073e-110
2.1247154e-107
8.5915636e-105
6.9552436e-102
2.8538351e-99
9.0377464e-97
2.44153e-94
5.9310162e-92
1.3732452e-89
3.3230547e-87
9.1727286e-85
2.7685307e-82
7.8670798e-80
1.8608737e-77
3.4082634e-75
4.6041651e-73
4.4294017e-71
2.8993513e-69
1.2470288e-67
3.9527615e-66
8.2182586e-65
4.2740848e-64
9.2422039e-64
5.021388e-63
3.0206773e-61
1.640125e-59
6.8578319e-58
2.0848005e-56
2.458178e-55
2.5394142e-54
8.2691515e-55
1.2054682e-54
2.5504436e-53
4.747245e-52
9.4429096e-51
1.8985299e-50
1.0012107e-50
3.0534973e-52
4.2978781e-53
8.4533492e-53
1.2540631e-52
3.213726e-53
1.3605426e-53
4.0165e-54
4.5378658e-54
4.5368265e-54
4.0189959e-54
1.3603968e-53
3.2123179e-53
1.2531345e-52
8.4483546e-53
4.2900159e-53
3.0464614e-52
9.9927313e-51
1.8942311e-50
9.3631328e-51
3.3326017e-52
1.2028203e-54
1.8413163e-55
8.0298058e-55
2.5121844e-54
2.3564405e-55
4.0300001e-58
1.0886857e-59
2.0571739e-61
2.1220711e-63
1.7578694e-65
7.6033154e-64
4.1984371e-64
7.4568702e-65
1.7159672e-66
1.7149527e-69
3.591144e-72
2.6969161e-74
1.9722131e-76
1.4397103e-78
9.6095088e-81
5.827072e-83
3.4634386e-85
1.9702064e-87
1.0676834e-89
5.431264e-92
2.5552334e-94
1.0924798e-96
4.1368971e-99
1.3274801e-101
3.2664158e-104
3.9529175e-107
1.1060743e-109
3.1842105e-112
7.8202387e-115
1.5880692e-117
2.5437827e-120
2.9747527e-123
2.1809499e-126
9.4419176e-121
1.2661223e-117
1.0657628e-114
6.5535302e-112
3.1805331e-109
1.2768031e-106
4.3715716e-104
1.3140602e-101
7.2184268e-99
3.8221481e-96
1.308342e-93
3.6480038e-91
8.9947425e-89
2.110449e-86
5.1991943e-84
1.4445327e-81
4.2572095e-79
1.15456e-76
2.5840808e-74
4.4818842e-72
5.7688977e-70
5.3211739e-68
3.3689136e-66
1.4174881e-64
4.4357498e-63
9.0892605e-62
4.6975037e-61
9.2764116e-61
3.0775302e-60
1.5866974e-58
8.2799586e-57
3.3445505e-55
9.6936606e-54
1.0064312e-52
9.1489787e-52
3.2025651e-52
3.738962e-52
7.0718877e-51
1.2846359e-49
2.5111031e-48
4.972893e-48
2.8458035e-48
7.9102742e-50
1.0673646e-50
1.9815262e-50
3.058888e-50
7.8170856e-51
3.2751299e-51
9.2532754e-52
1.0417866e-51
1.0415422e-51
9.2589419e-52
3.2746235e-51
7.8135342e-51
3.056665e-50
1.9806321e-50
1.0655186e-50
7.892519e-50
2.8403768e-48
4.9620107e-48
2.4922012e-48
9.2459777e-50
3.7090858e-52
6.4637789e-53
3.1113873e-52
9.0648164e-52
9.72486e-53
5.725281e-55
5.4731984e-57
1.0770178e-58
1.1654949e-60
1.0111615e-62
8.2760423e-61
4.6323273e-61
8.282236e-62
1.9991446e-63
2.1754413e-66
4.5778429e-69
3.5012702e-71
2.6581694e-73
2.0013272e-75
1.3015737e-77
8.4504904e-80
5.146286e-82
2.9664641e-84
1.626344e-86
8.3349829e-89
3.9243816e-91
1.6606934e-93
6.0933273e-96
1.802319e-98
3.3722323e-101
7.0632348e-104
2.363892e-106
6.9351562e-109
1.7352304e-111
3.5909657e-114
5.8639336e-117
6.9952051e-120
5.2396341e-123
1.965593e-117
2.575196e-114
2.1228771e-111
1.2784015e-108
6.0754539e-106
2.3894806e-103
8.0274601e-101
2.3516469e-98
6.2160447e-96
4.1392769e-93
1.6311155e-90
4.7790529e-88
1.2054492e-85
2.8795512e-83
7.2246006e-81
2.0076341e-78
5.7367309e-76
1.4790874e-73
3.1226429e-71
5.1221352e-69
6.2745295e-67
5.544749e-65
3.3922023e-63
1.394525e-61
4.3041154e-60
8.6874785e-59
4.4643382e-58
8.2544973e-58
1.8184925e-57
7.49619e-56
3.7494225e-54
1.4621119e-52
4.0392293e-51
3.6834346e-50
2.9498279e-49
1.0941305e-49
1.040235e-49
1.7458763e-48
3.0962943e-47
5.9559132e-46
1.15977e-45
7.0489964e-46
1.8109568e-47
2.3508704e-48
4.1468555e-48
6.6164104e-48
1.6883462e-48
7.0002599e-49
1.8922677e-49
2.122535e-49
2.1220601e-49
1.8934837e-49
6.9991081e-49
1.6875632e-48
6.611681e-48
4.1450116e-48
2.3470915e-48
1.8069416e-47
7.0357213e-46
1.1572919e-45
5.9158894e-46
2.2764534e-47
1.0096805e-49
2.0039943e-50
1.0643317e-49
2.9259077e-49
3.5970162e-50
5.8775956e-52
2.434194e-54
4.9885192e-56
5.6762405e-58
5.2200074e-60
7.682491e-58
4.4155795e-58
7.9433712e-59
1.9979484e-60
2.3646096e-63
5.0605249e-66
3.9490319e-68
3.1261539e-70
2.4354426e-72
1.6242165e-74
1.0823464e-76
6.7314353e-79
3.9396413e-81
2.1859073e-83
1.1276585e-85
5.2980208e-88
2.2024912e-90
7.6794e-93
1.9482418e-95
3.4223256e-98
1.3084271e-100
4.4878116e-103
1.3420552e-105
3.4274107e-108
7.241668e-111
1.2073311e-113
1.4705142e-116
1.1273323e-119
3.6747603e-114
4.6967036e-111
3.781807e-108
2.227711e-105
1.0360513e-102
3.9869246e-100
1.3103255e-97
3.759434e-95
9.6068723e-93
3.2456828e-90
1.7320982e-87
5.4934759e-85
1.4329264e-82
3.5013692e-80
8.9377379e-78
2.4666645e-75
6.7869561e-73
1.6565619e-70
3.3011567e-68
5.1152453e-66
5.9492836e-64
5.0314223e-62
2.9713447e-60
1.1922519e-58
3.6260447e-57
7.203805e-56
3.685922e-55
6.4877914e-55
1.0530566e-54
3.2023396e-53
1.5309836e-51
5.7622799e-50
1.5156711e-48
1.2139604e-47
8.5718721e-47
3.3270348e-47
2.6161712e-47
3.8633976e-46
6.6928042e-45
1.2689372e-43
2.4266759e-43
1.5437414e-43
3.6994216e-45
4.6343154e-46
7.815945e-46
1.2828565e-45
3.2744142e-46
1.3433449e-46
3.4682879e-47
3.8752375e-47
3.8744009e-47
3.4706411e-47
1.3431183e-46
3.2728752e-46
1.2819481e-45
7.8131717e-46
4.6272956e-46
3.6913485e-45
1.5407904e-43
2.4215989e-43
1.2613991e-43
5.0107248e-45
2.4479405e-47
5.5367787e-48
3.2434913e-47
8.507917e-47
1.1937059e-47
3.8036168e-49
9.6576508e-52
2.0603702e-53
2.4695735e-55
2.4715965e-57
6.1749286e-55
3.6534891e-55
6.6064203e-56
1.7227892e-57
2.2602871e-60
4.8936529e-63
3.9006415e-65
3.2301119e-67
2.6132506e-69
1.7910896e-71
1.2284824e-73
7.7670098e-76
4.641936e-78
2.6076158e-80
1.3517336e-82
6.311444e-85
2.5487759e-87
8.1542832e-90
1.4458416e-92
5.4906611e-95
2.164356e-97
7.5737769e-100
2.3149118e-102
6.0408965e-105
1.3040803e-107
2.2224603e-110
2.7708216e-113
2.1772887e-116
6.1593112e-111
7.673124e-108
6.0369436e-105
3.4755663e-102
1.5800634e-99
5.9430292e-97
1.9089005e-94
5.3574377e-92
1.3333989e-89
3.0490264e-87
1.5160346e-84
5.5061421e-82
1.5076015e-79
3.7895491e-77
9.8151513e-75
2.6753137e-72
7.0465428e-70
1.6232084e-67
3.0490635e-65
4.4613211e-63
4.9269483e-61
3.9864062e-59
2.2709261e-57
8.8849485e-56
2.6602245e-54
5.1999033e-53
2.6493946e-52
4.4722079e-52
6.0027303e-52
1.2439742e-50
5.6639024e-49
2.0565199e-47
5.1462596e-46
3.6189959e-45
2.2560996e-44
9.0841148e-45
5.9767908e-45
7.7037983e-44
1.3042173e-42
2.4412841e-41
4.5831731e-41
3.0184054e-41
6.793993e-43
8.2386531e-44
1.3363174e-43
2.2497269e-43
5.7559686e-44
2.3358314e-44
5.742852e-45
6.3908449e-45
6.3895066e-45
5.7469056e-45
2.3354161e-44
5.7533548e-44
2.2481699e-43
1.3359601e-43
8.2266251e-44
6.7795564e-43
3.0126982e-41
4.5738738e-41
2.4285778e-41
9.9160704e-43
5.3217231e-45
1.3726863e-45
8.8679115e-45
2.2405963e-44
3.5661662e-45
1.9484875e-46
3.4390811e-49
7.6286703e-51
9.6562956e-53
1.1184257e-54
4.3085279e-52
2.6297253e-52
4.7812854e-53
1.2868904e-54
1.8966447e-57
4.1518001e-60
3.38867e-62
2.9384822e-64
2.4761642e-66
1.7461123e-68
1.234944e-70
7.99229e-73
4.8567359e-75
2.7585249e-77
1.4348427e-79
6.6131586e-82
2.5482518e-84
6.9499773e-87
1.7805765e-89
7.9100866e-92
3.1928411e-94
1.1429214e-96
3.5735568e-99
9.5397379e-102
2.1064625e-104
3.6725825e-107
4.6859546e-110
3.7775538e-113
9.2228957e-108
1.1184084e-104
8.5867824e-102
4.8282711e-99
2.1444347e-96
7.8796213e-94
2.4720274e-91
6.7729998e-89
1.6473061e-86
3.630352e-84
1.0247512e-81
4.8117402e-79
1.4126575e-76
3.6682901e-74
9.5968879e-72
2.5610481e-69
6.4392645e-67
1.3966717e-64
2.4667005e-62
3.4091566e-60
3.5729823e-58
2.7628987e-56
1.5170191e-54
5.7825979e-53
1.7025503e-51
3.2735115e-50
1.6607056e-49
2.7144816e-49
3.2760918e-49
4.4123508e-48
1.9044741e-46
6.6668713e-45
1.5862946e-43
9.7941303e-43
5.4002463e-42
2.2382196e-42
1.2463905e-42
1.3893129e-41
2.3000465e-40
4.2598524e-39
7.851573e-39
5.3104813e-39
1.1289044e-40
1.3288686e-41
2.0851659e-41
3.5963974e-41
9.2454673e-42
3.7087585e-42
8.6494857e-43
9.5824888e-43
9.5803522e-43
8.6555139e-43
3.708052e-42
9.241408e-42
3.5939921e-41
2.0846688e-41
1.3270171e-41
1.1264724e-40
5.3006865e-39
7.8363165e-39
4.2407951e-39
1.7716735e-40
1.0427937e-42
3.0700829e-43
2.1921416e-42
5.3660256e-42
9.6687128e-43
7.6723297e-44
1.5934283e-46
2.5448731e-48
3.407108e-50
3.6285494e-50
2.6431644e-49
1.648886e-49
3.0164445e-50
8.3466279e-52
1.3765967e-54
3.0862634e-57
2.5906356e-59
2.3541256e-61
2.0730559e-63
1.5072264e-65
1.1025678e-67
7.3176713e-70
4.5236313e-72
2.5973329e-74
1.3510971e-76
6.099401e-79
2.1766611e-81
4.8670024e-84
2.2172672e-86
1.0168394e-88
4.1971396e-91
1.5386313e-93
4.9242632e-96
1.345242e-98
3.0399295e-101
5.4256633e-104
7.0928533e-107
5.8732965e-110
1.2361791e-104
1.4477138e-101
1.09122e-98
5.9900513e-96
2.5976535e-93
9.3184744e-91
2.8529808e-88
7.6263353e-86
1.8106381e-83
3.8666505e-81
7.9825984e-79
3.6156822e-76
1.1727402e-73
3.1620653e-71
8.3199788e-69
2.158333e-66
5.1546403e-64
1.0529419e-61
1.7484088e-59
2.279911e-57
2.2686488e-55
1.6762361e-53
8.8669905e-52
3.2907302e-50
9.5235827e-49
1.7981367e-47
9.081273e-47
1.4535927e-46
1.6618041e-46
1.4347097e-45
5.8331816e-44
1.9677863e-42
4.4498157e-41
2.4124361e-40
1.1792082e-39
4.9911451e-40
2.3861208e-40
2.2731527e-39
3.6827156e-38
6.7634541e-37
1.2249178e-36
8.459514e-37
1.7054901e-38
1.9547065e-39
2.9861055e-39
5.2767524e-39
1.3668162e-39
5.4133208e-40
1.1915054e-40
1.3138234e-40
1.3135345e-40
1.1923371e-40
5.4122348e-40
1.3662143e-39
5.2733245e-39
2.9855485e-39
1.9521032e-39
1.7019334e-38
8.4443636e-37
1.2226243e-36
6.7378467e-37
2.8676349e-38
1.8492021e-40
6.2196435e-41
4.9044901e-40
1.1723217e-39
2.3852722e-40
2.5378235e-41
1.0553003e-43
7.673224e-46
1.0879564e-47
6.8820196e-47
1.4287446e-46
9.0173847e-47
1.6597665e-47
4.7143494e-49
8.6751724e-52
2.0138541e-54
1.7478853e-56
1.6623445e-58
1.5334943e-60
1.1513719e-62
8.7351822e-65
5.9496086e-67
3.7454037e-69
2.1704464e-71
1.1259026e-73
4.9124654e-76
1.5371205e-78
4.8501106e-81
2.4706225e-83
1.1633336e-85
4.9217299e-88
1.8486697e-90
6.0608357e-93
1.6954823e-95
3.9228322e-98
7.1699431e-101
9.6140776e-104
8.1835545e-107
1.4666444e-101
1.5410901e-98
1.228207e-95
6.5786903e-93
2.7859048e-90
9.7547221e-88
2.9147195e-85
7.6008552e-83
1.758944e-80
3.6570425e-78
7.134521e-76
2.3082854e-73
8.650113e-71
2.4257556e-68
6.3837354e-66
1.6017232e-63
3.6232325e-61
6.9583197e-59
1.0853115e-56
1.3355155e-54
1.2622471e-52
8.9126636e-51
4.5393153e-49
1.6386731e-47
4.6588463e-46
8.622557e-45
4.3302084e-44
6.8604758e-44
7.6793218e-44
4.2915756e-43
1.6295678e-41
5.2971773e-40
1.1374883e-38
5.4174923e-38
2.3540292e-37
1.0116967e-37
4.1969129e-38
3.3816334e-37
5.3638436e-36
9.7917327e-35
1.7458121e-34
1.2257481e-34
2.3509042e-36
2.6333972e-37
3.9440593e-37
7.1546318e-37
1.8719038e-37
7.3098032e-38
1.5087016e-38
1.6553049e-38
1.654947e-38
1.5097902e-38
7.3081994e-38
1.8711022e-37
7.1501218e-37
3.9436067e-37
2.6301215e-37
2.346194e-36
1.2235953e-34
1.7426919e-34
9.7612258e-35
4.2141156e-36
2.9757721e-38
1.1447248e-38
9.9672021e-38
2.3413116e-37
5.3636047e-38
7.2982855e-39
4.1509073e-41
2.095544e-43
3.1501341e-45
4.6734574e-44
6.7765978e-44
4.3013351e-44
7.9699086e-45
2.321225e-46
4.7573319e-49
1.1535969e-51
1.0403688e-53
1.0344196e-55
1.0016636e-57
7.7810793e-60
6.1356783e-62
4.302459e-64
2.7572525e-66
1.6132418e-68
8.2954225e-71
3.4430483e-73
9.3733397e-76
4.6387752e-78
2.4467292e-80
1.1807934e-82
5.1234297e-85
1.9719106e-87
6.621589e-90
1.8970519e-92
4.4931114e-95
8.4138327e-98
1.1017468e-100
1.0119365e-103
1.536926e-98
1.4272032e-95
1.2204953e-92
6.3823637e-90
2.638366e-87
9.0242114e-85
2.6314889e-82
6.6906777e-80
1.509356e-77
3.0611002e-75
5.770475e-73
1.2964536e-70
5.6848116e-68
1.6605131e-65
4.3367217e-63
1.0449861e-60
2.2327532e-58
4.0303514e-56
5.9160832e-54
6.868457e-52
6.1573667e-50
4.1528307e-48
2.0353149e-46
7.1426099e-45
1.9927242e-43
3.6123291e-42
1.8030056e-41
2.8453092e-41
3.182814e-41
1.1849534e-40
4.1549585e-39
1.301418e-37
2.6521839e-36
1.1102063e-35
4.3025667e-35
1.8678922e-35
6.7951866e-36
4.5802774e-35
7.107775e-34
1.2885775e-32
2.2907499e-32
1.6162307e-32
2.9676866e-34
3.2486797e-35
4.8353988e-35
9.0189367e-35
2.3900413e-35
9.18334e-36
1.7637964e-36
1.9251164e-36
1.924675e-36
1.7651006e-36
9.1813284e-36
2.3891192e-35
9.0135526e-35
4.8342518e-35
3.246683e-35
2.9619857e-34
1.6133912e-32
2.2870994e-32
1.2852268e-32
5.6307402e-34
4.3542927e-36
1.9180104e-36
1.8440741e-35
4.280988e-35
1.1003947e-35
1.8574851e-36
1.2857674e-38
5.1900077e-41
8.2788736e-43
2.3252383e-41
2.8176387e-41
1.7918633e-41
3.3422361e-42
9.9616712e-44
2.2709888e-46
5.7961182e-49
5.45997e-51
5.6660779e-53
5.7776712e-55
4.6541605e-57
3.8315481e-59
2.7697417e-61
1.810465e-63
1.0677411e-65
5.4333747e-68
2.0904806e-70
6.9796531e-73
3.9521031e-75
2.1430951e-77
1.0610802e-79
4.7203956e-82
1.8624318e-84
6.4052863e-87
1.8776751e-89
4.5540665e-92
8.7317793e-95
1.0728603e-97
1.1068243e-100
1.4221433e-95
1.1555246e-92
1.0714984e-89
5.4679566e-87
2.2069497e-84
7.3677891e-82
2.0970983e-79
5.2020034e-77
1.1439292e-74
2.2606062e-72
4.130031e-70
8.1182265e-68
3.3243343e-65
1.0083655e-62
2.5960864e-60
5.98995e-58
1.2049823e-55
2.0416226e-53
2.8206357e-51
3.0923085e-49
2.6312798e-47
1.695056e-45
7.990905e-44
2.7234535e-42
7.4462881e-41
1.3197054e-39
6.5560878e-39
1.0362185e-38
1.168588e-38
3.0279419e-38
9.6730822e-37
2.9178992e-35
5.6399332e-34
2.0767627e-33
7.2075792e-33
3.1456561e-33
1.0139551e-33
5.652679e-33
8.5552449e-32
1.5294181e-30
2.7967129e-30
1.9350578e-30
3.5267005e-32
3.6797653e-33
5.525656e-33
1.063401e-32
2.8613348e-33
1.0789438e-33
1.9120308e-34
2.0751136e-34
2.0746879e-34
1.9134881e-34
1.0787258e-33
2.8603536e-33
1.0628166e-32
5.5246162e-33
3.6776108e-33
3.5203937e-32
1.9318342e-30
2.7925302e-30
1.5261762e-30
6.8466609e-32
5.8001726e-34
3.6675012e-34
3.1118145e-33
7.1736824e-33
2.0603864e-33
4.2237196e-34
3.369985e-36
1.3773375e-38
1.9751765e-40
9.4247624e-39
1.0282605e-38
6.5168433e-39
1.2217932e-39
3.7230004e-41
9.4384903e-44
2.5967797e-46
2.5265837e-48
2.7258531e-50
2.9356139e-52
2.454422e-54
2.1154256e-56
1.5835984e-58
1.0572851e-60
6.293599e-63
3.1589843e-65
1.0941023e-67
5.0549832e-70
2.9820102e-72
1.6598636e-74
8.4303454e-77
3.8451454e-79
1.5540969e-81
5.4727241e-84
1.642858e-86
4.0789668e-89
8.0106704e-92
9.0703165e-95
1.0694337e-97
1.1507413e-92
8.1473988e-90
8.0539227e-87
4.102648e-84
1.6182349e-81
5.2781662e-79
1.4671888e-76
3.5518667e-74
7.6160024e-72
1.4662805e-69
2.5973511e-67
4.7598995e-65
1.74662e-62
5.4408945e-60
1.3663079e-57
3.0066399e-55
5.7013962e-53
9.0622779e-51
1.1771616e-48
1.2193811e-46
9.8507518e-45
6.057221e-43
2.7453031e-41
9.0883264e-40
2.4325731e-38
4.2087718e-37
2.0798655e-36
3.3030191e-36
3.7815729e-36
7.1705815e-36
2.0545047e-34
5.9691186e-33
1.092845e-31
3.5462109e-31
1.1063407e-30
4.8362794e-31
1.3953844e-31
6.3609423e-31
9.3869258e-30
1.6618212e-28
3.1277997e-28
2.132291e-28
3.9502634e-30
3.8627914e-31
5.9046566e-31
1.1800916e-30
3.2309498e-31
1.1916256e-31
1.9298616e-32
2.0814229e-32
2.0810044e-32
1.9313759e-32
1.1914138e-31
3.2299748e-31
1.1795044e-30
5.9038951e-31
3.8606876e-31
3.9434709e-30
2.1289233e-28
3.1234807e-28
1.6591079e-28
7.5762337e-30
7.0357812e-32
6.2774342e-32
4.7924476e-31
1.1014378e-30
3.5211827e-31
8.6244141e-32
7.6866314e-34
5.0265688e-36
4.2749103e-38
3.2287287e-36
3.2835646e-36
2.0677191e-36
3.8962914e-37
1.2128742e-38
3.4195743e-41
1.0352275e-43
1.0307073e-45
1.1523482e-47
1.314068e-49
1.1427525e-51
1.0361187e-53
8.0704217e-56
5.521055e-58
3.3236857e-60
1.6468621e-62
6.0186703e-65
3.2421532e-67
1.9771453e-69
1.1299352e-71
5.8882791e-74
2.7523062e-76
1.1390382e-78
4.1044129e-81
1.2603074e-83
3.2001215e-86
6.4284305e-89
6.6836634e-92
9.035577e-95
8.1103831e-90
4.9753092e-87
4.9468175e-84
2.6890174e-81
1.0374157e-78
3.3086087e-76
8.9868785e-74
2.1246344e-71
4.4441891e-69
8.3407753e-67
1.4341557e-64
2.5451433e-62
8.2977345e-60
2.6072135e-57
6.3161348e-55
1.3186167e-52
2.3537572e-50
3.5153875e-48
4.2980614e-46
4.2065004e-44
3.2252327e-42
1.8928656e-40
8.2464506e-39
2.6490216e-37
6.9375365e-36
1.1710935e-34
5.7487084e-34
9.1837232e-34
1.073127e-33
1.5725204e-33
3.9780301e-32
1.112346e-30
1.9280783e-29
5.5205361e-29
1.5559434e-28
6.7874213e-29
1.7714294e-29
6.5254874e-29
9.3772871e-28
1.6531712e-26
3.2072575e-26
2.1657558e-26
4.07338e-28
3.7697211e-29
5.9274503e-29
1.2405616e-28
3.4607413e-29
1.2434212e-29
1.8210299e-30
1.9502905e-30
1.9499098e-30
1.8225547e-30
1.2432233e-29
3.4598508e-29
1.2400161e-28
5.9270433e-29
3.7678832e-29
4.0666782e-28
2.162536e-26
3.2031981e-26
1.6511798e-26
7.6407769e-28
7.7693182e-30
9.2852026e-30
6.7370418e-29
1.5494812e-28
5.4854995e-29
1.5864984e-29
1.5468105e-31
1.2587571e-33
8.3804364e-36
9.473373e-34
9.1536553e-34
5.7123909e-34
1.0836369e-34
3.4412433e-36
1.0774287e-38
3.5987936e-41
3.6895066e-43
4.2660909e-45
5.1624047e-47
4.6795569e-49
4.4883059e-51
3.6557515e-53
2.5750077e-55
1.5787895e-57
8.3888882e-60
3.2610256e-62
1.8476654e-64
1.151852e-66
6.7574373e-69
3.6098692e-71
1.7283486e-73
7.3184396e-76
2.6967262e-78
8.4623847e-81
2.1953001e-83
4.1695569e-86
4.2615824e-89
6.6540677e-92
4.9526226e-87
2.612357e-84
2.5441171e-81
1.512604e-78
5.7856656e-76
1.8060152e-73
4.798817e-71
1.1088343e-68
2.2649244e-66
4.1471058e-64
6.9527861e-62
1.1950148e-59
3.5500339e-57
1.1043976e-54
2.5567177e-52
5.0446087e-50
8.4678773e-48
1.1898172e-45
1.3701199e-43
1.2676231e-41
9.2319831e-40
5.1705472e-38
2.1626456e-36
6.7357047e-35
1.725018e-33
2.8383663e-32
1.3827209e-31
2.2246143e-31
2.6568532e-31
3.1769487e-31
6.9856969e-30
1.8848811e-28
3.0905585e-27
7.8267903e-27
2.003127e-26
8.693462e-27
2.0750665e-27
6.1062945e-27
8.5203385e-26
1.5041718e-24
3.0161033e-24
2.0302022e-24
3.8772167e-26
3.4305253e-27
5.6220808e-27
1.2435124e-26
3.5348558e-27
1.2317241e-27
1.6132341e-28
1.713859e-28
1.7135411e-28
1.6146386e-28
1.2315564e-27
3.5341221e-27
1.2430426e-26
5.6220314e-27
3.4290773e-27
3.8710913e-26
2.0273935e-24
3.0126351e-24
1.5025609e-24
7.0973255e-26
7.8049294e-28
1.2136238e-27
8.6418701e-27
1.995367e-26
7.7819837e-27
2.6292048e-27
2.9224468e-29
2.5345715e-31
1.4844623e-33
2.3928107e-31
2.2223977e-31
1.3736938e-31
2.6241293e-32
8.4916888e-34
2.9681431e-36
1.090644e-38
1.1563292e-40
1.3815491e-42
1.7790881e-44
1.6841998e-46
1.7182354e-48
1.472849e-50
1.0770431e-52