/*--------------------------------*- C++ -*----------------------------------*\
  =========                 |
  \\      /  F ield         | OpenFOAM: The Open Source CFD Toolbox
   \\    /   O peration     | Website:  https://openfoam.org
    \\  /    A nd           | Version:  9
     \\/     M anipulation  |
\*---------------------------------------------------------------------------*/
FoamFile
{
    format      ascii;
    class       volScalarField;
    location    "0.03";
    object      p;
}
// * * * * * * * * * * * * * * * * * * * * * * * * * * * * * * * * * * * * * //

dimensions      [1 -1 -2 0 0 0 0];

internalField   nonuniform List<scalar> 
10000
(
0
0.0082156293
0.039007021
0.090315797
0.16043596
0.24868275
0.35484026
0.47892115
0.62101356
0.78133596
0.96013946
1.1576976
1.3743073
1.610233
1.8657146
2.1409481
2.4360655
2.7511521
3.086225
3.4411013
3.8154133
4.2081271
4.6205208
5.0492446
5.4931886
5.9474712
6.4143787
6.8942917
7.3859592
7.8861821
8.3920031
8.9006043
9.409053
9.914288
10.413118
10.902247
11.378315
11.837971
12.277874
12.694705
13.085236
13.446415
13.77535
14.069347
14.325972
14.543094
14.7189
14.851926
14.941072
14.985574
14.98504
14.939454
14.849169
14.714967
14.537994
14.319724
14.061988
13.76689
13.43684
13.074544
12.682848
12.264851
11.823783
11.362923
10.885621
10.395285
9.8952551
9.3888057
8.8790979
8.3692229
7.8620344
7.3603966
6.8672444
6.3857814
5.9172846
5.4613272
5.0156335
4.5851693
4.1709463
3.7764016
3.4002276
3.0434057
2.7063143
2.3891789
2.091998
1.8145959
1.5569062
1.3186564
1.0996001
0.89936216
0.71765817
0.55416137
0.40858269
0.28056878
0.16981496
0.076088126
-0.00084625059
-0.061184719
-0.10510273
-0.13508849
-0.052186522
-0.030884688
0.0043202058
0.057276297
0.1280068
0.21642191
0.3225535
0.44645195
0.58831659
0.7483847
0.92691746
1.124248
1.3406788
1.576485
1.8319319
2.107241
2.4025591
2.7179753
3.0534863
3.4089358
3.7839798
4.1780538
4.5908259
5.0207511
5.4663755
5.9258346
6.3976211
6.8821277
7.3776623
7.8817843
8.3917993
8.9048843
9.4180752
9.9282373
10.432119
10.926383
11.407618
11.872395
12.317314
12.738996
13.134146
13.499644
13.832553
14.130122
14.389877
14.609669
14.787656
14.922336
15.012589
15.057648
15.057116
15.010981
14.919591
14.783739
14.604598
14.383656
14.122779
13.824115
13.490086
13.123456
12.727154
12.304317
11.858225
11.392242
10.909781
10.414299
9.9091949
9.397825
8.8833892
8.3690224
7.8576349
7.3520901
6.8550907
6.3690499
5.8956995
5.4345954
4.9872066
4.5555251
4.140963
3.7450433
3.3681273
3.0107495
2.6732433
2.3557735
2.0584018
1.7809593
1.5233405
1.2852201
1.0663597
0.86641025
0.68505256
0.52187659
0.37660452
0.24892502
0.13848199
0.045017692
-0.031719614
-0.091892093
-0.13564791
-0.16557197
-0.10979701
-0.084029208
-0.045811188
0.0087076791
0.080102747
0.16869367
0.2746423
0.39817628
0.53955248
0.69904189
0.87699169
1.0737493
1.2896455
1.525012
1.7801501
2.0553022
2.3506551
2.6663289
3.0023481
3.3585986
3.7347943
4.1304646
4.5449838
4.9772571
5.4259558
5.8894095
6.3676932
6.858451
7.3601988
7.8707776
8.3876358
8.9079766
9.4288008
9.9469131
10.45898
10.961589
11.451241
11.924384
12.377494
12.807104
13.209824
13.582417
13.921856
14.22533
14.49029
14.714518
14.89613
15.03358
15.125695
15.171689
15.171157
15.124095
15.030871
14.892293
14.709556
14.484184
14.21808
13.913479
13.572925
13.199195
12.795314
12.364533
11.910244
11.435902
10.945008
10.441174
9.9278809
9.4085263
8.8864423
8.36479
7.8465761
7.3346229
6.831468
6.3392002
5.8593496
5.394287
4.9438684
4.5098438
4.0935509
3.6960431
3.3179737
2.9598115
2.6218276
2.3041436
2.0067621
1.7295228
1.4722479
1.2346113
1.0163212
0.81702182
0.63635455
0.47387402
0.329278
0.20224614
0.092390112
-0.00055262937
-0.07685047
-0.13669716
-0.1802664
-0.21006143
-0.1796339
-0.1521906
-0.11241678
-0.056937704
0.014872907
0.10339208
0.20895816
0.33188775
0.47248094
0.63110398
0.80814803
1.0039931
1.2190421
1.4536871
1.7082658
1.9830718
2.2783523
2.5942816
2.9309424
3.2882915
3.6661193
4.0640272
4.4814124
4.9173869
5.3708428
5.8405415
6.3254501
6.8238655
7.3339526
7.8535097
8.3799888
8.9105619
9.4421713
9.9715459
10.495237
11.009695
11.511285
11.996301
12.461055
12.901934
13.315418
13.698122
14.046881
14.358777
14.631165
14.861727
15.048501
15.189882
15.284644
15.331965
15.331434
15.283058
15.187213
15.044735
14.856865
14.625175
14.351658
14.038593
13.688702
13.30487
12.890242
12.448174
11.982184
11.495974
10.993153
10.477445
9.952524
9.4218957
8.8890145
8.3571401
7.8293208
7.3084128
6.7969663
6.2970921
5.8106312
5.3393512
4.8842319
4.4465208
4.0273756
3.6276682
3.2479825
2.8887452
2.5501525
2.232267
1.9349794
1.6581307
1.401456
1.1646128
0.94723824
0.74892275
0.56930778
0.4079198
0.26433267
0.13823077
0.029280042
-0.062890834
-0.13853475
-0.19786087
-0.24108452
-0.27071663
-0.26337409
-0.23534002
-0.19493924
-0.13907685
-0.067301664
0.020831323
0.12571756
0.24770717
0.38719284
0.54459791
0.72034974
0.91490942
1.128756
1.3623339
1.616044
1.890254
2.1852886
2.5014079
2.8387837
3.197463
3.5773304
3.978084
4.3992149
4.8399795
5.299422
5.7764134
6.2696809
6.7775861
7.2981931
7.8292444
8.3681526
8.9120194
9.4576851
10.001759
10.540639
11.070589
11.587783
12.088333
12.568347
13.02401
13.451608
13.847575
14.208569
14.531513
14.81363
15.052483
15.246008
15.392521
15.490739
15.539798
15.53927
15.489178
15.38991
15.242315
15.047704
14.807711
14.524473
14.200356
13.838236
13.441137
13.01238
12.555548
12.074302
11.572508
11.054062
10.522872
9.9827829
9.4374923
8.8905692
8.3454148
7.8051906
7.2727884
6.7508136
6.2415043
5.7467576
5.2682073
4.807127
4.3646582
3.9417787
3.5392457
3.157546
2.7970234
2.4577456
2.1397011
1.8426944
1.5665164
1.3107714
1.0750727
0.85902743
0.66211674
0.48389495
0.32394379
0.18180228
0.056982654
-0.050812551
-0.14195043
-0.21672097
-0.27533903
-0.31806828
-0.34746374
-0.3616584
-0.33352132
-0.29303822
-0.23734017
-0.16601893
-0.078646085
0.025167988
0.14584459
0.28382947
0.43958131
0.61360689
0.80645562
1.0186687
1.2507588
1.5032145
1.7764976
2.0710369
2.3872058
2.7252847
3.0854296
3.4676402
3.8717363
4.2973364
4.7438386
5.2104123
5.6959897
6.1992483
6.7185459
7.2519076
7.7970259
8.3512498
8.9115776
9.4746989
10.03705
10.59484
11.144105
11.680782
12.20074
12.699836
13.173995
13.619249
14.031793
14.408071
14.744811
15.039068
15.288268
15.490224
15.643154
15.745693
15.79693
15.79641
15.74416
15.640604
15.486612
15.28358
15.033235
14.737839
14.399911
14.022475
13.608798
13.162408
12.687065
12.18678
11.665596
11.127665
10.577164
10.018182
9.4546315
8.8902955
8.3287142
7.7732021
7.2267636
6.6920398
6.1713283
5.6666134
5.1795174
4.7113485
4.2631791
3.8358337
3.429977
3.0459855
2.6840369
2.3440817
2.0260344
1.7295743
1.454366
1.1999519
0.96581771
0.75149341
0.5564738
0.38018013
0.22206161
0.081710567
-0.041425938
-0.14770465
-0.2375137
-0.31120206
-0.36899938
-0.41107871
-0.44015479
-0.47465563
-0.44664512
-0.4065186
-0.35139177
-0.2809331
-0.19475703
-0.092432972
0.026495204
0.16249775
0.31610532
0.48791487
0.67854388
0.88860474
1.1187005
1.3694241
1.6413574
1.9350595
2.2510335
2.5896856
2.9513018
3.3360281
3.7438391
4.1745124
4.6275974
5.1023808
5.5978577
6.112723
6.6453581
7.1937833
7.7556369
8.3281698
8.9082431
9.4923652
10.076758
10.657397
11.230046
11.790345
12.33385
12.856093
13.352682
13.819347
14.251991
14.646792
15.000257
15.309238
15.570983
15.783161
15.94387
16.051657
16.105538
16.105026
16.050154
15.941371
15.779624
15.566382
15.303517
14.993369
14.638713
14.24271
13.808878
13.341096
12.843358
12.319956
11.775258
11.213734
10.639859
10.058048
9.4724845
8.8871793
8.3059017
7.7321232
7.1689669
6.6191891
6.0851414
5.5688336
5.0718637
4.5954931
4.1407752
3.7084041
3.2988342
2.9123363
2.5489703
2.2085205
1.8907205
1.5951447
1.3213012
1.0686878
0.83667256
0.62458987
0.43189712
0.25801765
0.10227293
-0.035847515
-0.15686819
-0.26126597
-0.34940518
-0.42169561
-0.47846584
-0.51977676
-0.54840362
-0.60226083
-0.57459225
-0.53509764
-0.48090804
-0.41174425
-0.32719929
-0.22682841
-0.11016673
0.023316701
0.1742366
0.34325782
0.53106611
0.73836315
0.96585806
1.2142692
1.4843226
1.7767227
2.0921136
2.431053
2.7939939
3.1812638
3.5930299
4.0292547
4.4896474
4.9736211
5.4802674
6.0083564
6.5563263
7.1222
7.7035478
8.297497
8.900749
9.5096123
10.12006
10.727768
11.328165
11.916516
12.488001
13.03776
13.561004
14.053111
14.50965
14.926483
15.299838
15.626328
15.902987
16.127301
16.297223
16.411211
16.468215
16.467699
16.409727
16.294757
16.123815
15.898429
15.620693
15.293029
14.91849
14.500471
14.042758
13.549491
13.025082
12.474171
11.901533
11.312007
10.710428
10.101546
9.4899628
8.8799515
8.275532
7.6803673
7.0977237
6.5305151
5.981145
5.4516003
4.9434818
4.4579617
3.9959577
3.5580781
3.1445878
2.7555397
2.3908451
2.0501648
1.7330039
1.4387938
1.1668866
0.91662665
0.68733165
0.47819369
0.28846785
0.1175479
-0.035280173
-0.17063492
-0.28907042
-0.39117876
-0.4773796
-0.54800828
-0.60346146
-0.64388341
-0.67202846
-0.74425952
-0.71706414
-0.67846714
-0.62558332
-0.55811583
-0.47565805
-0.37776848
-0.2639343
-0.13355042
0.01406081
0.17962926
0.36392343
0.56774226
0.79191853
1.0373178
1.3048214
1.5952897
1.909532
2.2482959
2.6122429
3.0019204
3.4177193
3.8598076
4.3280757
4.8221026
5.3411337
5.884062
6.4493983
7.035157
7.6388382
8.2574504
8.8875207
9.5251257
10.165937
10.805264
11.438112
12.059303
12.663567
13.245587
13.800107
14.322066
14.806644
15.24932
15.645982
15.99296
16.287049
16.525548
16.706228
16.827424
16.88805
16.887518
16.825927
16.703744
16.522078
16.282504
15.987347
15.639235
15.241447
14.797623
14.311903
13.78877
13.233065
12.649884
12.044482
11.422136
10.788156
10.147681
9.5057362
8.8669827
8.2357624
7.6159704
7.0110141
6.4239294
5.8572122
5.3128341
4.7923428
4.2968129
3.8269501
3.3832219
2.9657634
2.5743454
2.2086131
1.8680987
1.5521687
1.2599997
0.9907542
0.74356202
0.51765425
0.31213687
0.12609986
-0.041163468
-0.19046647
-0.32247574
-0.43790467
-0.53726138
-0.62106294
-0.68972422
-0.74364083
-0.78292557
-0.81052794
-0.90028456
-0.87370505
-0.83628581
-0.785036
-0.71967578
-0.63980726
-0.5449513
-0.43453365
-0.30789478
-0.16429766
-0.0029375647
0.17704392
0.37655685
0.59657131
0.83810906
1.1022147
1.3899273
1.7022604
2.0401894
2.404626
2.7963724
3.2160665
3.6641164
4.1406459
4.6454618
5.1780151
5.7373495
6.3220687
6.9301841
7.5591456
8.2058504
8.8666356
9.5372931
10.213122
10.888995
11.559433
12.218721
12.861038
13.480536
14.071416
14.628079
15.145219
15.617868
16.041522
16.412195
16.72641
16.981258
17.17435
17.30388
17.368686
17.368138
17.302348
17.171828
16.97778
16.721893
16.40659
16.034806
15.610051
15.136335
14.61811
14.060333
13.46827
12.847586
12.204113
11.543693
10.872133
10.195147
9.5182181
8.8464355
8.1844922
7.5365749
6.9063082
6.2968614
5.7108099
5.1500851
4.6160815
4.1097895
3.6317344
3.182075
2.7607283
2.3672806
2.0011236
1.661457
1.3474827
1.0581453
0.79238925
0.54915101
0.32751448
0.12642073
-0.055145223
-0.21800943
-0.3630843
-0.49111151
-0.60293924
-0.69911616
-0.78013125
-0.84645377
-0.89852209
-0.93651466
-0.96339751
-1.069898
-1.0441047
-1.0080935
-0.95881781
-0.89601092
-0.81924176
-0.7279854
-0.62162562
-0.49945063
-0.36065549
-0.20435723
-0.029600733
0.16464882
0.37950612
0.61615143
0.8758103
1.1597363
1.4691861
1.805397
2.1695647
2.5627782
2.9859635
3.4398263
3.9247961
4.4409702
4.9880421
5.565232
6.1713036
6.8042894
7.4616194
8.1400707
8.8357552
9.544128
10.260047
10.97788
11.691583
12.394804
13.081047
13.743805
14.376641
14.973313
15.527934
16.035044
16.4897
16.887563
17.224849
17.498392
17.705628
17.844671
17.914276
17.913748
17.843164
17.703107
17.494855
17.220331
16.881981
16.483036
16.027272
15.519123
14.963434
14.365721
13.731799
13.06792
12.380502
11.676156
10.961342
10.242389
9.5253344
8.8158278
8.1189833
7.4393186
6.7807059
6.1464021
5.538992
4.9604323
4.4119415
3.8943135
3.4078646
2.9524491
2.5276496
2.1327953
1.7670217
1.4291614
1.1181073
0.83261783
0.57141231
0.33316302
0.11677398
-0.078911513
-0.25504966
-0.41271191
-0.55282145
-0.676289
-0.78386291
-0.87624715
-0.95401343
-1.017742
-1.0676931
-1.1041969
-1.1302058
-1.2525698
-1.2277039
-1.1933552
-1.1464157
-1.0866005
-1.0134457
-0.92639738
-0.82479809
-0.70787717
-0.57476124
-0.42448468
-0.2559866
-0.068105618
0.14041886
0.37094271
0.62489956
0.9037848
1.2091314
1.5424729
1.9053114
2.2990723
2.7250356
3.1842782
3.6776048
4.2054599
4.7678295
5.3641549
5.9935093
6.6539301
7.3428575
8.056937
8.7920276
9.5432064
10.304826
11.070641
11.833926
12.587577
13.324289
14.036738
14.717707
15.360223
15.957737
16.504242
16.994299
17.423143
17.786664
18.081464
18.304761
18.454564
18.529562
18.529059
18.453071
18.30225
18.077889
17.782131
17.417609
16.987687
16.496528
15.948983
15.35046
14.706946
14.024921
13.311402
12.573583
11.818803
11.054402
10.287464
9.5246974
8.7723714
8.0361065
7.3208087
6.6305973
5.968857
5.338172
4.7405235
4.1768117
3.6475545
3.1527744
2.6920434
2.2645446
1.8692159
1.5048224
1.1699575
0.86310744
0.58269845
0.32725346
0.095259445
-0.11473009
-0.30396381
-0.47366722
-0.6251826
-0.75944935
-0.87755675
-0.98024129
-1.0682802
-1.1422763
-1.2028953
-1.2504599
-1.2852281
-1.3102722
-1.4476363
-1.4238542
-1.3914391
-1.3471859
-1.2908028
-1.2218123
-1.1396299
-1.0435503
-0.93274757
-0.8062814
-0.66309808
-0.50202791
-0.32178482
-0.12095576
0.10201369
0.34879149
0.62113076
0.92086314
1.2498501
1.6099466
2.0029737
2.4306419
2.8944748
3.3957214
3.9352508
4.5134404
5.1300278
5.7845029
6.4749242
7.1987951
7.9526309
8.7320149
9.5316037
10.345161
11.1657
11.985647
12.796995
13.591478
14.360788
15.096787
15.791671
16.43812
17.029464
17.559712
18.023645
18.416801
18.73557
18.976992
19.138941
19.219985
19.219475
19.13741
18.974478
18.732059
18.412289
18.018135
17.553159
17.021876
16.429485
15.782031
15.086169
14.349175
13.578831
12.783289
11.970817
11.149729
10.328032
9.5133204
8.7125855
7.9320074
7.1769582
6.4518379
5.7601337
5.1043434
4.4864508
3.9069691
3.3661278
2.863483
2.3982077
1.9690863
1.5746456
1.2130833
0.88261837
0.58144349
0.30768214
0.059467561
-0.16487735
-0.36708112
-0.54861346
-0.71079173
-0.85507988
-0.982592
-1.0944445
-1.1914976
-1.2745593
-1.3443392
-1.4013923
-1.4461968
-1.478966
-1.5029073
-1.6543248
-1.6318018
-1.6015712
-1.5603576
-1.5078805
-1.4436423
-1.3670247
-1.2772824
-1.1735379
-1.0547822
-0.91987763
-0.76755219
-0.59638633
-0.40479666
-0.19102718
0.046838389
0.31083399
0.60309874
0.92586369
1.2814028
1.671995
2.0998532
2.5670276
3.0753056
3.6261022
4.220352
4.8583856
5.5393858
6.2622924
7.0245589
7.8225662
8.6515837
9.5057738
10.378212
11.261034
12.145639
13.0229
13.8834
14.71768
15.516506
16.27107
16.973158
17.615325
18.190981
18.694459
19.120948
19.466575
19.728239
19.903764
19.991609
19.991091
19.902252
19.725736
19.463071
19.116468
18.688986
18.184522
17.60787
16.964714
16.261656
15.506102
14.706263
13.870959
13.009403
12.131048
11.245322
10.36133
9.4877322
8.6323916
7.8021575
7.0029308
6.2394549
5.5153363
4.8330966
4.193769
3.598221
3.0461729
2.5366085
2.0680804
1.6388106
1.2468837
0.89004679
0.56593755
0.27225171
0.0068751893
-0.23234489
-0.44745258
-0.64033475
-0.81270291
-0.96607245
-1.1019609
-1.2217115
-1.3263817
-1.416995
-1.4943849
-1.5592889
-1.6123434
-1.6540384
-1.6845874
-1.7072676
-1.8717439
-1.8506363
-1.8228576
-1.7850675
-1.7369955
-1.678125
-1.6078125
-1.5252798
-1.4296028
-1.3197083
-1.1943839
-1.0522578
-0.89177135
-0.71116093
-0.50846415
-0.28152841
-0.028018796
0.25454666
0.56880093
0.9175015
1.3034537
1.7294387
2.1981366
2.7120074
3.2731492
3.8831441
4.5428577
5.2521349
6.0100562
6.8143041
7.6612094
8.5457063
9.4613745
10.400486
11.354134
12.312486
13.265056
14.201022
15.109544
15.980033
16.80246
17.56759
18.267159
18.893934
19.441755
19.90549
20.281054
20.565218
20.75576
20.851156
20.850644
20.754285
20.562744
20.277508
19.900994
19.436291
18.887548
18.259835
17.559317
16.793213
15.969818
15.098372
14.18887
13.251816
12.298147
11.338689
10.383866
9.4435622
8.5267295
7.6410648
6.792994
5.9875587
5.2284426
4.5179832
3.8570714
3.2458168
2.683408
2.1682701
1.6983208
1.271061
0.88383277
0.53386015
0.21834645
-0.065491127
-0.32028103
-0.54850224
-0.7525476
-0.93438604
-1.0959778
-1.2391159
-1.3653281
-1.4761622
-1.5727098
-1.6559631
-1.7269649
-1.7864412
-1.8350345
-1.8732094
-1.9012403
-1.9224804
-2.0988717
-2.0793414
-2.0543056
-2.0203419
-1.9771901
-1.9243281
-1.8610991
-1.7866947
-1.7001538
-1.6003571
-1.4860226
-1.3556788
-1.2076291
-1.0399397
-0.85044955
-0.63676272
-0.3962444
-0.12603003
0.17695471
0.51599615
0.89449024
1.315886
1.7836222
2.3009937
2.8709393
3.4958384
4.1772996
4.9159076
5.7111707
6.5610459
7.4618668
8.4082398
9.3930877
10.40772
11.441971
12.484525
13.52325
14.545571
15.538902
16.491048
17.39056
18.227032
18.991253
19.6753
20.272549
20.777623
21.18631
21.495362
21.702449
21.806105
21.805606
21.700942
21.492832
21.182771
20.773134
20.267121
19.668933
18.983972
18.218866
17.381508
16.481056
15.527967
14.533665
13.510299
12.47048
11.426801
10.391388
9.37557
8.389545
7.442028
6.540089
5.689069
4.8926393
4.1528627
3.4702557
2.8441798
2.2730344
1.7544
1.2854271
0.86282579
0.48318094
0.1429764
-0.16121962
-0.43265818
-0.67435237
-0.88920603
-1.0799832
-1.2488847
-1.3979693
-1.5292918
-1.6445266
-1.7451662
-1.8325332
-1.9075845
-1.9713653
-2.0247425
-2.0683709
-2.1026812
-2.127918
-2.1475543
-2.334585
-2.3168144
-2.2948101
-2.265075
-2.2273754
-2.1811856
-2.1258436
-2.0605255
-1.984247
-1.8958578
-1.7940144
-1.6771548
-1.5434578
-1.3908359
-1.2169415
-1.0191479
-0.7945019
-0.53974202
-0.25131432
0.074613709
0.44212234
0.85545874
1.3189644
1.8369188
2.4132869
3.0514665
3.7540551
4.5225786
5.357243
6.2563987
7.2164632
8.2317469
9.2944411
10.394714
11.520887
12.659799
13.797251
14.918481
16.008769
17.053994
18.041027
18.958076
19.794874
20.542797
21.194854
21.745549
22.190576
22.526825
22.752027
22.864708
22.86421
22.750545
22.524345
22.187117
21.741107
21.189496
20.536476
19.787632
18.949974
18.032103
17.044201
15.998056
14.90678
13.784558
12.646056
11.506034
10.378735
9.2773089
8.2134538
7.1970496
6.2358843
5.3356072
4.4998287
3.7301547
3.0264063
2.38705
1.8095608
1.2904335
0.82577035
0.41128648
0.042672544
-0.28435277
-0.57389795
-0.82982759
-1.0556187
-1.2545301
-1.429569
-1.5832969
-1.7180358
-1.8358255
-1.9385944
-2.0278034
-2.1048179
-2.1707308
-2.2265798
-2.2732201
-2.3112944
-2.341314
-2.3634874
-2.3813488
-2.5776608
-2.5618246
-2.5431381
-2.5180365
-2.4863255
-2.4474851
-2.4008534
-2.3456096
-2.2807655
-2.2051517
-2.117378
-2.0158094
-1.8985286
-1.763321
-1.6076698
-1.4287177
-1.2232197
-0.98750455
-0.71752823
-0.40885817
-0.056648355
0.34427855
0.79931008
1.3138753
1.8932105
2.5420301
3.2642261
4.0625402
4.9382499
5.890274
6.9152395
8.0072054
9.1575517
10.355115
11.586381
12.835843
14.086684
15.321477
16.522877
17.674349
18.760704
19.768545
20.686535
21.505384
22.217794
22.818379
23.303019
23.668781
23.913561
24.036009
24.035524
23.912113
23.666361
23.299617
22.814032
22.212529
21.499156
20.679419
19.760565
18.751864
17.664684
16.512329
15.309972
14.074229
12.822374
11.571846
10.339502
9.1408164
7.9893495
6.8963163
5.8702991
4.9171755
4.0403661
3.2409066
2.5175535
1.8675854
1.2871579
0.77149013
0.31538267
-0.08660858
-0.4399127
-0.74967432
-1.0207302
-1.2575363
-1.4641036
-1.644102
-1.8008372
-1.937077
-2.055369
-2.1578464
-2.2464774
-2.322867
-2.3884043
-2.4442034
-2.4912878
-2.5305207
-2.5625354
-2.5878595
-2.6066997
-2.6226336
-2.8267464
-2.8130134
-2.7979329
-2.7778716
-2.7526854
-2.7218707
-2.6847807
-2.640614
-2.5883992
-2.5269663
-2.4549037
-2.3705236
-2.2718476
-2.1565765
-2.0220571
-1.8652157
-1.682525
-1.4699584
-1.2229628
-0.93644176
-0.60472512
-0.22160776
0.21949519
0.72539675
1.3028995
1.9584159
2.6975045
3.5244871
4.4422652
5.4505269
6.5463108
7.7235154
8.9726786
10.281043
11.632796
13.009529
14.391147
15.756835
17.085893
18.358776
19.557871
20.667924
21.676398
22.573473
23.351852
24.006456
24.533699
24.931096
25.196847
25.329732
25.32923
25.195364
24.928682
24.530358
24.00221
23.346699
22.567402
21.669474
20.660118
19.549161
18.349212
17.075442
15.745492
14.378903
12.996301
11.618556
10.265781
8.9563465
7.7061183
6.527888
5.4311109
4.4218116
3.5029605
2.6748464
1.9345975
1.2779665
0.69938376
0.19240152
-0.24974113
-0.63385551
-0.96663517
-1.2542559
-1.5022969
-1.7158602
-1.8995713
-2.0574368
-2.1929361
-2.3091721
-2.4087613
-2.494051
-2.56696
-2.6291475
-2.6819724
-2.7266574
-2.7641597
-2.7953055
-2.8207429
-2.8409785
-2.856193
-2.8700379
-3.0803929
-3.0689208
-3.0577239
-3.0430993
-3.0249621
-3.0028341
-2.9761048
-2.9440133
-2.9056259
-2.8597934
-2.8051098
-2.7398789
-2.6621054
-2.5694476
-2.4591496
-2.3279833
-2.1721698
-1.987352
-1.7684929
-1.5098169
-1.2047949
-0.84612412
-0.42584849
0.064513287
0.63370757
1.2902794
2.0419563
2.8950844
3.8550886
4.9224612
6.0950952
7.3669236
8.7276159
10.16252
11.653002
13.17707
14.710355
16.227542
17.703736
19.1157
20.442845
21.667752
22.77663
23.759285
24.608871
25.32114
25.893556
26.32439
26.612322
26.756313
26.755843
26.610917
26.322021
25.89027
25.316984
24.603826
23.753355
22.769844
21.660103
20.434327
19.106314
17.693466
16.216413
14.698351
13.164161
11.639151
10.147655
8.7116977
7.3499936
6.0771715
4.9035702
3.8352223
2.8742353
2.0200363
1.2672059
0.60950176
0.039253663
-0.45216864
-0.8735072
-1.2331906
-1.5391812
-1.7988656
-2.0187714
-2.2045902
-2.3613631
-2.4935114
-2.6047416
-2.6983084
-2.7768976
-2.8429659
-2.8984376
-2.9450103
-2.9840017
-3.0165717
-3.0436645
-3.0660878
-3.0844564
-3.0992301
-3.1105305
-3.1220849
-3.3370552
-3.3279988
-3.3209442
-3.3121264
-3.3015268
-3.2887118
-3.273128
-3.2540826
-3.2306958
-3.2018588
-3.1662175
-3.1221269
-3.0676262
-3.0003692
-2.9175529
-2.8158663
-2.6913559
-2.5393607
-2.3544254
-2.1301575
-1.8591653
-1.5329944
-1.1421342
-0.67613349
-0.12387748
0.52591257
1.2838651
2.1590648
3.1597132
4.2881557
5.5436177
6.920292
8.4069882
9.9869601
11.638153
13.333876
15.044101
16.737625
18.384183
19.955931
21.428606
22.782255
24.001836
25.077081
26.002291
26.774935
27.394313
27.859968
28.171164
28.326874
28.326434
28.169827
27.857718
27.391173
26.770929
25.997392
25.071338
23.99521
22.774784
21.42027
19.946741
18.374168
16.726794
15.03243
13.321385
11.624788
9.972595
8.3915659
6.9038567
5.5262118
4.2698361
3.1404579
2.1388736
1.2626711
0.50363056
-0.14730308
-0.70067327
-1.1677245
-1.5596184
-1.8868082
-2.1587597
-2.3839602
-2.5698762
-2.7228445
-2.8482835
-2.9508675
-3.0345695
-3.1026644
-3.1579099
-3.2027454
-3.2391721
-3.2687125
-3.2927147
-3.3122177
-3.3281382
-3.3412227
-3.352034
-3.3609976
-3.3681521
-3.3772546
-3.5951108
-3.5886097
-3.5859331
-3.5832515
-3.5806252
-3.5776932
-3.5739876
-3.5688941
-3.5616053
-3.5511021
-3.5361385
-3.5151775
-3.4863281
-3.4473079
-3.395344
-3.3271094
-3.2385917
-3.1249133
-2.9803067
-2.7979047
-2.5694942
-2.2854315
-1.9345409
-1.5041188
-0.98016177
-0.34787985
0.4073283
1.2987352
2.3355046
3.5256096
4.8695554
6.3620744
7.9913487
9.7384651
11.577104
13.474281
15.39249
17.292711
19.137504
20.893294
22.531524
24.029255
25.369953
26.543766
27.547254
28.381259
29.048124
29.549481
29.885008
30.05319
30.052798
29.883763
29.547382
29.045189
28.377438
27.542572
26.538231
25.363501
24.02198
22.523436
20.884416
19.127835
17.282267
15.381285
13.462283
11.564242
9.7246706
7.9765541
6.3462521
4.8527803
3.5079526
2.3169286
1.2792073
0.3868394
-0.36945668
-1.0028764
-1.5279492
-1.9594137
-2.3113215
-2.5963869
-2.8257503
-3.0090606
-3.1545561
-3.2691643
-3.3585855
-3.4276681
-3.480452
-3.5202615
-3.5498256
-3.5714284
-3.5870768
-3.5982557
-3.6061607
-3.6116946
-3.6157167
-3.6189128
-3.6217499
-3.6245896
-3.6273636
-3.6338984
-3.8528737
-3.8490467
-3.8509336
-3.8546508
-3.8603771
-3.8678279
-3.8766417
-3.8862998
-3.8961057
-3.9051907
-3.9124671
-3.9165465
-3.9156678
-3.9076909
-3.8899749
-3.8592561
-3.8115667
-3.7420316
-3.6447197
-3.5124453
-3.3363673
-3.1057226
-2.8076325
-2.4268938
-1.946034
-1.3459077
-0.60699
0.2888971
1.356665
2.6076896
4.0451603
5.665179
7.4559004
9.3963734
11.455233
13.591251
15.756366
17.900635
19.977297
21.945826
23.772677
25.431303
26.903166
28.179477
29.260646
30.153907
30.866923
31.404366
31.765819
31.9479
31.947517
31.764647
31.402411
30.864145
30.150268
29.256206
28.174176
26.897039
25.424341
23.764914
21.937327
19.968058
17.890638
15.745632
13.579751
11.442912
9.3831946
7.4418066
5.6500838
4.0291099
2.5907407
1.3387679
0.26996699
-0.62692052
-1.3668488
-1.9680375
-2.4499747
-2.8317586
-3.1308726
-3.3624971
-3.5394778
-3.6726546
-3.7708433
-3.8412511
-3.8897626
-3.9212901
-3.9397717
-3.9484825
-3.9500181
-3.9466016
-3.9399397
-3.9314712
-3.9222039
-3.9129727
-3.9044766
-3.8972762
-3.8917514
-3.8882054
-3.8864225
-3.8902869
-4.1085798
-4.1075151
-4.1140914
-4.1244032
-4.1387737
-4.1570179
-4.1788653
-4.203939
-4.2317178
-4.2615228
-4.2924633
-4.3233398
-4.3526182
-4.3783752
-4.3982023
-4.4090335
-4.4070584
-4.3876375
-4.344957
-4.2717452
-4.1588234
-3.9946341
-3.7647233
-3.451191
-3.0326076
-2.4843878
-1.780362
-0.89516663
0.19300452
1.5013931
3.036076
4.7953597
6.7684384
8.9332258
11.253146
13.675952
16.137871
18.572893
20.921905
23.13679
25.17907
27.01759
28.629903
30.008557
31.160927
32.105953
32.860882
33.434954
33.825733
34.024844
34.024508
33.824691
33.43313
32.85824
32.102513
31.156681
30.003551
28.624147
27.01103
25.171789
23.128781
20.913154
18.563386
16.127651
13.665017
11.241445
8.9206729
6.755005
4.7810106
3.0207282
1.4850665
0.17570103
-0.91350187
-1.7997537
-2.5047764
-3.0539437
-3.473484
-3.7880336
-4.0189872
-4.1841527
-4.2979879
-4.3720676
-4.4156019
-4.4358311
-4.4385841
-4.4285163
-4.4094276
-4.3843706
-4.3556845
-4.3253998
-4.2950408
-4.265817
-4.238506
-4.2138129
-4.1922911
-4.1743106
-4.1601439
-4.1500005
-4.1435475
-4.1446661
-4.3603892
-4.3621232
-4.3734576
-4.390499
-4.4137048
-4.4430059
-4.4782639
-4.519268
-4.5657318
-4.6172071
-4.6730264
-4.732266
-4.793688
-4.8556575
-4.9160833
-4.9722752
-5.0208004
-5.0573877
-5.0766984
-5.071831
-5.0337352
-4.9506187
-4.8069309
-4.5821893
-4.250551
-3.7807369
-3.137398
-2.2849122
-1.1925748
0.16646388
1.7999037
3.7089825
5.8861413
8.3115127
10.944425
13.717436
16.542007
19.326791
21.996319
24.496247
26.785377
28.826293
30.587519
32.061727
33.267494
34.247442
35.035676
35.648678
36.077262
36.301055
36.300743
36.076284
35.646951
35.033167
34.244207
33.2635
32.057044
30.582163
28.820239
26.778584
24.488688
21.988061
19.317848
16.532397
13.707159
10.933404
8.2995883
5.8732906
3.6952993
1.7852853
0.1507716
-1.2092945
-2.3026348
-3.1561773
-3.8005606
-4.271318
-4.6038306
-4.8295003
-4.974201
-5.0583123
-5.0973164
-5.1030367
-5.0845576
-5.0487359
-5.0009168
-4.9454356
-4.8856825
-4.8243498
-4.7634839
-4.7047692
-4.6495097
-4.5985649
-4.5525358
-4.5118652
-4.4769049
-4.447885
-4.4249184
-4.4080466
-4.3968414
-4.3951711
-4.6064062
-4.6109368
-4.6270317
-4.6508388
-4.6829553
-4.7234276
-4.7722968
-4.8295801
-4.8952323
-4.969068
-5.0507182
-5.1396057
-5.2348577
-5.3352202
-5.4389951
-5.5439747
-5.6473504
-5.7454773
-5.8338003
-5.9063605
-5.9550418
-5.9687016
-5.9316947
-5.8219159
-5.6089619
-5.2531519
-4.706531
-3.9181934
-2.8429958
-1.4456423
0.28484538
2.3509096
4.7515323
7.4777445
10.490763
13.702088
16.980263
20.190134
23.234559
26.060874
28.634454
30.909152
32.82845
34.380115
35.599757
36.580169
37.386452
38.04673
38.533704
38.800933
38.80061
38.532714
38.045065
37.38409
36.577162
35.596072
34.375765
32.823471
30.903536
28.628172
26.053831
23.226812
20.181753
16.971274
13.692497
10.480492
7.466588
4.7393569
2.3378031
0.27085673
-1.460605
-2.8589757
-3.9352756
-4.7246963
-5.2724211
-5.6292068
-5.8430069
-5.9536468
-5.9915793
-5.9788432
-5.9310407
-5.8593809
-5.771819
-5.6743995
-5.5716826
-5.467411
-5.3642685
-5.2645049
-5.1697594
-5.0813348
-5.0001715
-4.9268124
-4.8615734
-4.8046116
-4.756005
-4.7157956
-4.6839308
-4.6603299
-4.644391
-4.6399317
-4.8447089
-4.8519888
-4.8727887
-4.9032895
-4.9442417
-4.9958405
-5.0583406
-5.1320128
-5.2170793
-5.3136672
-5.4217728
-5.5412333
-5.6716181
-5.8121211
-5.9615486
-6.1182732
-6.2801637
-6.4445488
-6.6080515
-6.766242
-6.9129042
-7.039119
-7.1311103
-7.1669945
-7.1129583
-6.919698
-6.5215316
-5.8428601
-4.8137455
-3.3946843
-1.570146
0.65359679
3.2862608
6.3516359
9.8327135
13.612497
17.478387
21.210815
24.683313
27.870841
30.774811
33.337922
35.43219
37.024693
38.17269
39.088017
39.884466
40.618241
41.210272
41.567971
41.567629
41.209305
40.616632
39.882252
39.085211
38.169321
37.020729
35.427637
33.332754
30.769004
27.864329
24.676085
21.202972
17.470041
13.603629
9.8231646
6.3413114
3.2749958
0.64131813
-1.5834239
-3.4089602
-4.8291253
-5.8593349
-6.5391362
-6.9384046
-7.1326241
-7.1875034
-7.1524515
-7.0613276
-6.935982
-6.7901816
-6.6328942
-6.4701613
-6.3064173
-6.145136
-5.9890125
-5.8402007
-5.7002232
-5.5703061
-5.4512845
-5.3435991
-5.2474519
-5.1627867
-5.08943
-5.0271736
-4.9758367
-4.9351366
-4.9048754
-4.8842457
-4.8770494
-5.0733922
-5.0833327
-5.1086872
-5.1456967
-5.1952666
-5.2577678
-5.3336939
-5.4235796
-5.5279492
-5.6473136
-5.7821238
-5.9326666
-6.0990137
-6.2809118
-6.4777235
-6.6884554
-6.9117456
-7.1459528
-7.3891839
-7.6392041
-7.8930122
-8.1458919
-8.3890532
-8.6047314
-8.759415
-8.7953413
-8.6225676
-8.1246463
-7.189357
-5.7544411
-3.8299272
-1.458319
1.3823365
4.803272
8.8685946
13.427095
18.097551
22.479914
26.406936
29.95553
33.247702
36.215766
38.531183
40.097313
40.989445
41.715147
42.450063
43.317149
44.144486
44.682442
44.682141
44.143542
43.315662
42.448014
41.712545
40.986398
40.09376
38.527152
36.211036
33.242288
29.949454
26.400193
22.472638
18.089817
13.4189
8.859831
4.7938867
1.3722294
-1.4694103
-3.8422303
-5.7679825
-7.2040706
-8.1404896
-8.6395162
-8.8133674
-8.7784591
-8.624698
-8.4098851
-8.167612
-7.9155049
-7.6624999
-7.4132883
-7.1707739
-6.9371509
-6.7144645
-6.5042538
-6.3080236
-6.1265864
-5.9606648
-5.8105318
-5.6761329
-5.5571817
-5.4531862
-5.363609
-5.2879432
-5.2257145
-5.176413
-5.1396622
-5.1144735
-5.1046094
-5.290597
-5.3030637
-5.3327378
-5.3759403
-5.4337504
-5.5067302
-5.5956067
-5.7011988
-5.8244035
-5.9661617
-6.1274546
-6.3091102
-6.5117367
-6.7356828
-6.9809283
-7.2471604
-7.5338027
-7.8400404
-8.1653889
-8.5102422
-8.8761244