/*--------------------------------*- C++ -*----------------------------------*\
  =========                 |
  \\      /  F ield         | OpenFOAM: The Open Source CFD Toolbox
   \\    /   O peration     | Website:  https://openfoam.org
    \\  /    A nd           | Version:  9
     \\/     M anipulation  |
\*---------------------------------------------------------------------------*/
FoamFile
{
    format      ascii;
    class       volVectorField;
    location    "0.03";
    object      U;
}
// * * * * * * * * * * * * * * * * * * * * * * * * * * * * * * * * * * * * * //

dimensions      [0 1 -1 0 0 0 0];

internalField   nonuniform List<vector> 
10000
(
(-0.0024671426 0.0028389576 0)
(-0.0064946416 0.0027127818 0)
(-0.0096049093 0.0026616388 0)
(-0.012695294 0.0026143326 0)
(-0.015762571 0.0025721381 0)
(-0.018784338 0.0025238612 0)
(-0.021760651 0.0024679283 0)
(-0.024686918 0.0024065302 0)
(-0.027556189 0.0023405214 0)
(-0.030361147 0.0022672271 0)
(-0.033094777 0.0021829424 0)
(-0.03574844 0.0020945134 0)
(-0.038313282 0.0019949504 0)
(-0.040783335 0.001886169 0)
(-0.043142555 0.0017734797 0)
(-0.045380065 0.0016532181 0)
(-0.047491321 0.0015201884 0)
(-0.04946319 0.0013823157 0)
(-0.051281807 0.0012393871 0)
(-0.052933804 0.0010896404 0)
(-0.054407696 0.00092789091 0)
(-0.055694798 0.00076183471 0)
(-0.056770541 0.00059058427 0)
(-0.057629823 0.00040205766 0)
(-0.058285969 0.00019948023 0)
(-0.058758504 -1.2722487e-05 0)
(-0.059038108 -0.00020725236 0)
(-0.059066265 -0.00038796363 0)
(-0.058810783 -0.00056255789 0)
(-0.058275861 -0.00074019833 0)
(-0.057474989 -0.0009206964 0)
(-0.05641387 -0.0010984769 0)
(-0.05509546 -0.0012780185 0)
(-0.053522144 -0.0014529178 0)
(-0.051698533 -0.001621743 0)
(-0.049629973 -0.0017834178 0)
(-0.047325746 -0.0019383226 0)
(-0.044795811 -0.0020836309 0)
(-0.042049959 -0.0022188933 0)
(-0.039101457 -0.002343157 0)
(-0.035965164 -0.0024603441 0)
(-0.032656805 -0.0025652117 0)
(-0.029191658 -0.0026559467 0)
(-0.025585775 -0.0027319446 0)
(-0.021856825 -0.002797722 0)
(-0.018022089 -0.0028587586 0)
(-0.014105026 -0.0029088782 0)
(-0.010124053 -0.0029440305 0)
(-0.0060931925 -0.0029668174 0)
(-0.0020333277 -0.0029779279 0)
(0.0020373895 -0.0029779184 0)
(0.0060977002 -0.0029667834 0)
(0.010129087 -0.0029439263 0)
(0.01411055 -0.0029087777 0)
(0.018027379 -0.0028588965 0)
(0.021861501 -0.0027974708 0)
(0.025590159 -0.0027323677 0)
(0.029195967 -0.0026561669 0)
(0.032661331 -0.0025653733 0)
(0.03597013 -0.0024605008 0)
(0.039106629 -0.0023433503 0)
(0.042055155 -0.0022190618 0)
(0.044801175 -0.0020837755 0)
(0.047331644 -0.0019384648 0)
(0.049635692 -0.0017837678 0)
(0.051703727 -0.0016219651 0)
(0.053527534 -0.0014531231 0)
(0.055101221 -0.0012783464 0)
(0.05642008 -0.0010989492 0)
(0.057481877 -0.00092122499 0)
(0.058283465 -0.0007408033 0)
(0.058818919 -0.00056319013 0)
(0.059075204 -0.00038863589 0)
(0.059048024 -0.0002079468 0)
(0.058769599 -1.3548127e-05 0)
(0.058298498 0.00019850124 0)
(0.057643422 0.0004012131 0)
(0.056785479 0.00058981629 0)
(0.055711363 0.00076080209 0)
(0.054425475 0.00092681107 0)
(0.052952857 0.0010884587 0)
(0.051302676 0.0012379134 0)
(0.049485855 0.0013812652 0)
(0.047515632 0.0015189133 0)
(0.045406816 0.001651507 0)
(0.043170224 0.0017710379 0)
(0.040813256 0.0018844435 0)
(0.038347498 0.0019928576 0)
(0.035786222 0.0020919797 0)
(0.033136916 0.0021797012 0)
(0.030408335 0.0022630209 0)
(0.027609062 0.0023350411 0)
(0.024747118 0.0024009827 0)
(0.021831296 0.0024615774 0)
(0.018868541 0.0025140869 0)
(0.015865652 0.0025582914 0)
(0.012828401 0.0025932459 0)
(0.0097728778 0.0026203283 0)
(0.006769517 0.0026422365 0)
(0.0026493258 0.0026603806 0)
(-0.0025935851 0.0070842068 0)
(-0.0066729604 0.0069008309 0)
(-0.0097038027 0.0068041906 0)
(-0.012784626 0.0067072252 0)
(-0.01585247 0.0066067557 0)
(-0.018887644 0.0064975221 0)
(-0.021876803 0.0063755326 0)
(-0.024812945 0.0062377232 0)
(-0.027693951 0.0060813649 0)
(-0.030517066 0.0059068099 0)
(-0.03326573 0.0057155288 0)
(-0.03593463 0.0055019248 0)
(-0.03851983 0.0052701027 0)
(-0.041003043 0.0050185905 0)
(-0.043373786 0.0047463662 0)
(-0.045631704 0.0044476032 0)
(-0.047760676 0.0041321747 0)
(-0.049742593 0.0037936305 0)
(-0.051573224 0.0034309582 0)
(-0.05324418 0.0030478812 0)
(-0.054734543 0.0026464634 0)
(-0.05603131 0.0022187857 0)
(-0.057129676 0.0017713775 0)
(-0.058020435 0.0012912174 0)
(-0.058700405 0.00078584339 0)
(-0.059164885 0.00025941821 0)
(-0.05941286 -0.00026071697 0)
(-0.059420922 -0.00075985704 0)
(-0.059162209 -0.0012505466 0)
(-0.058633033 -0.0017452043 0)
(-0.057832182 -0.0022437862 0)
(-0.056769995 -0.0027425122 0)
(-0.055448627 -0.0032380165 0)
(-0.053864552 -0.0037246931 0)
(-0.052027694 -0.0041984234 0)
(-0.049945186 -0.004655673 0)
(-0.047624602 -0.0050940281 0)
(-0.045075066 -0.0055090273 0)
(-0.042308245 -0.0058988525 0)
(-0.039341703 -0.0062621972 0)
(-0.036186058 -0.0065934752 0)
(-0.03285136 -0.0068936229 0)
(-0.029357484 -0.007163635 0)
(-0.025726748 -0.0074029813 0)
(-0.021982842 -0.0076069095 0)
(-0.018132498 -0.0077739521 0)
(-0.014189696 -0.0079104717 0)
(-0.010181526 -0.0080119982 0)
(-0.006126744 -0.008079761 0)
(-0.0020442692 -0.0081136037 0)
(0.0020484521 -0.0081135145 0)
(0.0061314182 -0.008079619 0)
(0.010186688 -0.0080118976 0)
(0.01419503 -0.0079105505 0)
(0.018137975 -0.0077745602 0)
(0.021987249 -0.0076074903 0)
(0.025730665 -0.0074035609 0)
(0.029362044 -0.0071640189 0)
(0.032855931 -0.0068939865 0)
(0.036190964 -0.0065937568 0)
(0.039346828 -0.0062626109 0)
(0.042313458 -0.0058992925 0)
(0.045080441 -0.0055094697 0)
(0.047630277 -0.0050944563 0)
(0.049950815 -0.0046563937 0)
(0.052033021 -0.0041989622 0)
(0.053869812 -0.0037255048 0)
(0.055454086 -0.003238868 0)
(0.056775979 -0.0027435457 0)
(0.057838903 -0.0022449622 0)
(0.05864048 -0.0017465934 0)
(0.05917021 -0.0012521131 0)
(0.059429765 -0.00076165419 0)
(0.059422606 -0.00026261563 0)
(0.059175667 0.00025746996 0)
(0.058712868 0.00078364021 0)
(0.058034179 0.0012888683 0)
(0.057144338 0.0017690444 0)
(0.056047443 0.0022160197 0)
(0.054752006 0.0026434858 0)
(0.053262618 0.0030448795 0)
(0.05159397 0.0034279557 0)
(0.049765188 0.0037900658 0)
(0.047784036 0.0041284069 0)
(0.045656979 0.004443304 0)
(0.043401122 0.0047409504 0)
(0.041032981 0.0050134117 0)
(0.038552889 0.0052639236 0)
(0.035970898 0.0054947631 0)
(0.033305795 0.0057069584 0)
(0.030561556 0.0058964643 0)
(0.027744975 0.0060695686 0)
(0.024871748 0.0062229784 0)
(0.021942684 0.0063564339 0)
(0.018963769 0.00647255 0)
(0.015943572 0.0065712319 0)
(0.012889425 0.0066535538 0)
(0.0098210798 0.0067201024 0)
(0.0068090068 0.0067663252 0)
(0.0026672994 0.0068041804 0)
(-0.0026507605 0.01004209 0)
(-0.0067758514 0.0099389596 0)
(-0.0097993767 0.0098424636 0)
(-0.012893047 0.0097308561 0)
(-0.015972134 0.0096030869 0)
(-0.019015097 0.0094607477 0)
(-0.02201969 0.0093006687 0)
(-0.024980067 0.0091179857 0)
(-0.027885874 0.0089091532 0)
(-0.030725621 0.0086747642 0)
(-0.033498181 0.0084178748 0)
(-0.036192275 0.0081289328 0)
(-0.038795044 0.0078141411 0)
(-0.041305489 0.0074705337 0)
(-0.043711934 0.0070938077 0)
(-0.045992662 0.006678917 0)
(-0.048143753 0.006238931 0)
(-0.050162927 0.0057621481 0)
(-0.052026151 0.0052486536 0)
(-0.053716981 0.0047002051 0)
(-0.055235569 0.0041225604 0)
(-0.056568738 0.003505794 0)
(-0.057697064 0.0028544836 0)
(-0.058614399 0.0021677338 0)
(-0.059316937 0.001450804 0)
(-0.059804213 0.00070792055 0)
(-0.060056281 -5.2109504e-05 0)
(-0.060054696 -0.00081298453 0)
(-0.059794446 -0.001576341 0)
(-0.059267158 -0.0023440604 0)
(-0.05847012 -0.0031138981 0)
(-0.057405706 -0.0038870077 0)
(-0.056075074 -0.0046500751 0)
(-0.054479831 -0.0054026361 0)
(-0.052626668 -0.0061353075 0)
(-0.050522616 -0.0068472969 0)
(-0.04817607 -0.0075297224 0)
(-0.045597589 -0.0081784885 0)
(-0.042800107 -0.00878974 0)
(-0.039793118 -0.0093604023 0)
(-0.036593697 -0.0098825538 0)
(-0.033224201 -0.010354905 0)
(-0.029698414 -0.010783893 0)
(-0.026026642 -0.011164619 0)
(-0.022225623 -0.011491014 0)
(-0.018323739 -0.011756968 0)
(-0.014341475 -0.011970903 0)
(-0.010292062 -0.012132452 0)
(-0.0061938527 -0.012240763 0)
(-0.0020666838 -0.012295178 0)
(0.0020710635 -0.012295021 0)
(0.0061984541 -0.012240568 0)
(0.01029694 -0.01213248 0)
(0.014346335 -0.011971232 0)
(0.018328546 -0.011757739 0)
(0.022230309 -0.011492315 0)
(0.026031173 -0.011165265 0)
(0.029702858 -0.010784472 0)
(0.033228729 -0.01035542 0)
(0.036598498 -0.0098829517 0)
(0.039798015 -0.009360924 0)
(0.042805156 -0.0087902755 0)
(0.04560287 -0.0081790256 0)
(0.048181613 -0.0075302498 0)
(0.050528178 -0.0068480018 0)
(0.052631737 -0.0061356421 0)
(0.054484885 -0.0054042113 0)
(0.056080566 -0.0046513403 0)
(0.057411535 -0.0038883703 0)
(0.05847656 -0.0031154695 0)
(0.059274277 -0.0023457575 0)
(0.059802067 -0.0015783142 0)
(0.060063221 -0.00081533572 0)
(0.060065988 -5.4857564e-05 0)
(0.05981493 0.00070510111 0)
(0.05932895 0.0014477009 0)
(0.058627707 0.0021639728 0)
(0.057711386 0.0028504492 0)
(0.056584401 0.0035014563 0)
(0.055252774 0.004117848 0)
(0.053735601 0.0046954058 0)
(0.052046012 0.0052438679 0)
(0.05018436 0.0057563474 0)
(0.048166835 0.0062328092 0)
(0.046017236 0.0066726413 0)
(0.043738187 0.007085936 0)
(0.041334107 0.0074620913 0)
(0.038826725 0.0078044133 0)
(0.0362271 0.0081179601 0)
(0.033536535 0.0084055485 0)
(0.030768915 0.0086606464 0)
(0.027933641 0.0088924111 0)
(0.025032244 0.0090966592 0)
(0.022079339 0.0092737695 0)
(0.019082031 0.0094261801 0)
(0.016045557 0.0095560737 0)
(0.01297635 0.0096655536 0)
(0.0098849421 0.0097536747 0)
(0.0068530786 0.0098161487 0)
(0.002687118 0.00986533 0)
(-0.0026965362 0.013141638 0)
(-0.0068722953 0.013051501 0)
(-0.0099115031 0.012945888 0)
(-0.013023274 0.012815075 0)
(-0.016121566 0.01266367 0)
(-0.01918879 0.012484362 0)
(-0.02221805 0.012276725 0)
(-0.02520274 0.01204196 0)
(-0.028135305 0.011777932 0)
(-0.031006371 0.01148014 0)
(-0.033809508 0.011145984 0)
(-0.036536237 0.010777847 0)
(-0.039176106 0.010368869 0)
(-0.041721261 0.0099186455 0)
(-0.044163332 0.0094287433 0)
(-0.046484559 0.0088972501 0)
(-0.048675479 0.0083164096 0)
(-0.050730963 0.0076922678 0)
(-0.052633388 0.007025059 0)
(-0.05436862 0.0063088149 0)
(-0.05592738 0.0055433363 0)
(-0.057297917 0.0047350969 0)
(-0.058466399 0.0038812069 0)
(-0.05942287 0.0029827238 0)
(-0.060159061 0.0020424603 0)
(-0.060666665 0.0010684876 0)
(-0.060932421 7.4321283e-05 0)
(-0.060943538 -0.00094000196 0)
(-0.060691402 -0.0019682984 0)
(-0.06016847 -0.003006461 0)
(-0.059372795 -0.0040463814 0)
(-0.058303676 -0.0050878266 0)
(-0.056961634 -0.0061186133 0)
(-0.055347111 -0.00713281 0)
(-0.053469649 -0.0081226239 0)
(-0.051336908 -0.0090812782 0)
(-0.048953146 -0.010000953 0)
(-0.046332526 -0.010875069 0)
(-0.043487711 -0.011697878 0)
(-0.040432173 -0.012463582 0)
(-0.037178333 -0.013171605 0)
(-0.0337506 -0.013815147 0)
(-0.030165256 -0.014389888 0)
(-0.026432075 -0.014893364 0)
(-0.02257353 -0.015328271 0)
(-0.018610874 -0.015694974 0)
(-0.014563866 -0.015988207 0)
(-0.010450267 -0.016207663 0)
(-0.0062885442 -0.016353846 0)
(-0.0020981202 -0.016427073 0)
(0.0021026904 -0.01642695 0)
(0.0062930629 -0.016353721 0)
(0.010454919 -0.016207743 0)
(0.014568452 -0.015988529 0)
(0.018615347 -0.015695522 0)
(0.022578001 -0.015329041 0)
(0.02643662 -0.014894228 0)
(0.030169805 -0.014390616 0)
(0.033755188 -0.013815761 0)
(0.037183046 -0.013172274 0)
(0.040436969 -0.01246419 0)
(0.043492722 -0.011698441 0)
(0.046337727 -0.010875618 0)
(0.048958519 -0.010001345 0)
(0.051342635 -0.0090819282 0)
(0.053474039 -0.0081235192 0)
(0.055351403 -0.007134058 0)
(0.05696727 -0.0061200998 0)
(0.058309294 -0.0050895505 0)
(0.059379081 -0.0040485078 0)
(0.060175409 -0.0030083909 0)
(0.060698646 -0.0019707252 0)
(0.060951508 -0.00094273874 0)
(0.060941604 7.0939692e-05 0)
(0.060676976 0.0010644582 0)
(0.060170433 0.0020379522 0)
(0.059435466 0.0029775991 0)
(0.058480213 0.0038757067 0)
(0.057313072 0.0047294394 0)
(0.055944042 0.0055372824 0)
(0.054386603 0.0063023588 0)
(0.052652733 0.007018062 0)
(0.050751811 0.0076849852 0)
(0.048697942 0.0083082875 0)
(0.046507648 0.0088884635 0)
(0.044188072 0.009418675 0)
(0.041748948 0.0099077233 0)
(0.039206262 0.01035648 0)
(0.036569546 0.010763658 0)
(0.033846066 0.011130038 0)
(0.031046078 0.011462077 0)
(0.028178729 0.011755166 0)
(0.025250964 0.012014811 0)
(0.022270237 0.012247265 0)
(0.019244331 0.012443568 0)
(0.016181447 0.012610329 0)
(0.013085763 0.012749561 0)
(0.0099706388 0.012858286 0)
(0.0069198205 0.012942418 0)
(0.0027163198 0.013007824 0)
(-0.0027404867 0.016290154 0)
(-0.0069705588 0.016202179 0)
(-0.010034897 0.01608656 0)
(-0.013174181 0.015939427 0)
(-0.016301561 0.01576112 0)
(-0.019400583 0.015549501 0)
(-0.022460445 0.015303302 0)
(-0.025477014 0.015021634 0)
(-0.028445682 0.014702148 0)
(-0.031355508 0.014338595 0)
(-0.034198327 0.013934512 0)
(-0.036967177 0.013484741 0)
(-0.03965203 0.012986213 0)
(-0.042243385 0.012437221 0)
(-0.044731106 0.011836279 0)
(-0.047102833 0.011183519 0)
(-0.049346624 0.010470482 0)
(-0.051452174 0.0097014692 0)
(-0.053407599 0.0088752991 0)
(-0.055196828 0.0079856374 0)
(-0.056807471 0.0070386835 0)
(-0.05822916 0.0060337818 0)
(-0.05944785 0.0049714144 0)
(-0.060451638 0.0038542394 0)
(-0.061229714 0.0026863242 0)
(-0.06177095 0.0014745511 0)
(-0.062063208 0.00022760965 0)
(-0.062095492 -0.0010485351 0)
(-0.061858815 -0.0023468044 0)
(-0.061342914 -0.0036599421 0)
(-0.060548949 -0.004980298 0)
(-0.059475251 -0.0062990603 0)
(-0.058117275 -0.007606548 0)
(-0.056480994 -0.008892226 0)
(-0.054572252 -0.010150241 0)
(-0.052398079 -0.011365692 0)
(-0.049967009 -0.012532244 0)
(-0.047291718 -0.013640458 0)
(-0.04438591 -0.014683696 0)
(-0.041264218 -0.015656064 0)
(-0.037942725 -0.016551463 0)
(-0.034440065 -0.017368095 0)
(-0.030774357 -0.01809535 0)
(-0.026962889 -0.018734722 0)
(-0.023025228 -0.019285201 0)
(-0.018981845 -0.019745889 0)
(-0.014852528 -0.020115004 0)
(-0.010656267 -0.020391908 0)
(-0.0064120332 -0.020576524 0)
(-0.0021392337 -0.020669095 0)
(0.0021439159 -0.020669054 0)
(0.0064164821 -0.020576494 0)
(0.010660735 -0.020391994 0)
(0.01485694 -0.02011537 0)
(0.018986198 -0.019746459 0)
(0.023029559 -0.019285768 0)
(0.026967384 -0.018735301 0)
(0.030778927 -0.018095858 0)
(0.034444498 -0.01736845 0)
(0.037947349 -0.016552008 0)
(0.041269008 -0.015656709 0)
(0.044390809 -0.014684333 0)
(0.047296946 -0.013641285 0)
(0.04997226 -0.012532688 0)
(0.052402962 -0.011366401 0)
(0.054576594 -0.010151692 0)
(0.056485365 -0.0088931402 0)
(0.058122247 -0.0076082585 0)
(0.05948038 -0.0063012193 0)
(0.06055511 -0.0049826481 0)
(0.061349621 -0.0036627341 0)
(0.061865497 -0.0023501295 0)
(0.062102922 -0.0010521686 0)
(0.062071498 0.00022359199 0)
(0.061780421 0.0014697706 0)
(0.061240471 0.0026808157 0)
(0.060463703 0.0038480958 0)
(0.059461329 0.0049647674 0)
(0.058243946 0.0060270304 0)
(0.056823535 0.0070316483 0)
(0.05521413 0.0079778194 0)
(0.053426253 0.0088669225 0)
(0.051472081 0.0096926375 0)
(0.049367773 0.010460775 0)
(0.047125038 0.011172506 0)
(0.044754825 0.011824776 0)
(0.042269313 0.0124242 0)
(0.03968008 0.012971741 0)
(0.0369981 0.013468331 0)
(0.034232452 0.013915562 0)
(0.031391621 0.014317305 0)
(0.028483983 0.014675681 0)
(0.025522091 0.01499087 0)
(0.02250603 0.015266569 0)
(0.019443231 0.015505556 0)
(0.016349944 0.015707565 0)
(0.013222941 0.015874548 0)
(0.01007668 0.016007654 0)
(0.0070017451 0.01611023 0)
(0.0027524012 0.01618794 0)
(-0.0027839002 0.019483764 0)
(-0.0070743218 0.019388513 0)
(-0.01017286 0.019258083 0)
(-0.013347278 0.019094523 0)
(-0.016509951 0.018890605 0)
(-0.019644911 0.018648254 0)
(-0.022744054 0.018364932 0)
(-0.025801881 0.018037475 0)
(-0.02881622 0.017663291 0)
(-0.0317718 0.017241226 0)
(-0.034661119 0.016768018 0)
(-0.037482248 0.016239589 0)
(-0.040221297 0.015653364 0)
(-0.042868874 0.015007444 0)
(-0.045414749 0.014298553 0)
(-0.047848108 0.013524321 0)
(-0.050155323 0.012681156 0)
(-0.052323974 0.01176702 0)
(-0.054347134 0.010781803 0)
(-0.056203234 0.0097239515 0)
(-0.05787731 0.008592586 0)
(-0.059363362 0.0073895107 0)
(-0.060644194 0.0061161123 0)
(-0.061706253 0.0047760033 0)
(-0.062537067 0.0033735632 0)
(-0.063123758 0.0019155607 0)
(-0.063453728 0.00041003997 0)
(-0.063515904 -0.0011349741 0)
(-0.063300505 -0.0027104611 0)
(-0.062799425 -0.0043064926 0)
(-0.062009195 -0.0059162436 0)
(-0.060927087 -0.0075218268 0)
(-0.059551876 -0.0091146236 0)
(-0.057887807 -0.01068343 0)
(-0.055940108 -0.012215423 0)
(-0.053715938 -0.013698066 0)
(-0.051224957 -0.01512089 0)
(-0.048481076 -0.016468643 0)
(-0.045500478 -0.017741483 0)
(-0.042297192 -0.01892574 0)
(-0.038887706 -0.020015002 0)
(-0.035291946 -0.021004099 0)
(-0.031529454 -0.02188793 0)
(-0.027619625 -0.022664058 0)
(-0.023582536 -0.023331067 0)
(-0.019438673 -0.023887928 0)
(-0.015208045 -0.024333743 0)
(-0.010910122 -0.02466817 0)
(-0.006564243 -0.024891177 0)
(-0.0021899634 -0.025002947 0)
(0.0021946694 -0.025002897 0)
(0.0065686959 -0.024891187 0)
(0.010914429 -0.024668234 0)
(0.015212188 -0.024334002 0)
(0.019442962 -0.02388842 0)
(0.023586986 -0.023331655 0)
(0.027624174 -0.022664393 0)
(0.031534144 -0.021888272 0)
(0.035296384 -0.021004208 0)
(0.038891982 -0.020015136 0)
(0.04230172 -0.018926233 0)
(0.045505103 -0.017742369 0)
(0.048486244 -0.016470079 0)
(0.051230216 -0.015121348 0)
(0.05372043 -0.013698986 0)
(0.055944099 -0.012216678 0)
(0.05789169 -0.010684767 0)
(0.05955616 -0.009116553 0)
(0.060931968 -0.0075243862 0)
(0.062014751 -0.0059191052 0)
(0.062805267 -0.0043103177 0)
(0.063306775 -0.0027146111 0)
(0.063523042 -0.0011396567 0)
(0.063461635 0.00040501433 0)
(0.063132455 0.0019100303 0)
(0.062546911 0.0033672791 0)
(0.061717469 0.0047690876 0)
(0.060657104 0.0061084507 0)
(0.059377788 0.007381331 0)
(0.057892539 0.0085841568 0)
(0.056219516 0.0097148963 0)
(0.054365116 0.01077189 0)
(0.052343112 0.011756302 0)
(0.050175185 0.012669631 0)
(0.047868977 0.013511619 0)
(0.045437074 0.01428507 0)
(0.042893205 0.014992507 0)
(0.04024768 0.015636799 0)
(0.037510719 0.016221002 0)
(0.034692443 0.016747436 0)
(0.03180364 0.017217267 0)
(0.028849795 0.017635736 0)
(0.025839454 0.018005396 0)
(0.022782687 0.018324496 0)
(0.019683321 0.018603819 0)
(0.01654872 0.018839786 0)
(0.013384386 0.019032822 0)
(0.010205076 0.01918801 0)
(0.0070990942 0.019307094 0)
(0.0027938777 0.019399006 0)
(-0.002835017 0.022723914 0)
(-0.0071943328 0.022611509 0)
(-0.010327116 0.022472774 0)
(-0.013539912 0.02228941 0)
(-0.016746022 0.022061715 0)
(-0.019924332 0.021788539 0)
(-0.023069176 0.021467651 0)
(-0.026176499 0.021095869 0)
(-0.029239678 0.020672136 0)
(-0.032248426 0.020195313 0)
(-0.03519758 0.019655507 0)
(-0.038079399 0.01905342 0)
(-0.040881717 0.01838036 0)
(-0.043595746 0.01764076 0)
(-0.046211802 0.016826324 0)
(-0.048717829 0.015934104 0)
(-0.051101559 0.014961642 0)
(-0.053349205 0.013904244 0)
(-0.05544843 0.012760861 0)
(-0.057383853 0.011534812 0)
(-0.059139803 0.010218315 0)
(-0.060703612 0.0088149889 0)
(-0.062059382 0.0073278222 0)
(-0.063192249 0.005759984 0)
(-0.064088244 0.004116493 0)
(-0.064732625 0.0024043608 0)
(-0.06511173 0.00063206756 0)
(-0.0652137 -0.0011909551 0)
(-0.065027804 -0.003053868 0)
(-0.064545951 -0.0049443815 0)
(-0.06376139 -0.006850565 0)
(-0.062670634 -0.0087565957 0)
(-0.061275767 -0.010647846 0)
(-0.05957862 -0.012510902 0)
(-0.057583721 -0.014329507 0)
(-0.055300406 -0.016089625 0)
(-0.052734488 -0.017776603 0)
(-0.04990923 -0.019380225 0)
(-0.046839981 -0.02088847 0)
(-0.043534811 -0.022289981 0)
(-0.040018258 -0.023577696 0)
(-0.036310268 -0.024745302 0)
(-0.032431705 -0.025787897 0)
(-0.02840354 -0.026702415 0)
(-0.02424675 -0.027487142 0)
(-0.01998232 -0.028141117 0)
(-0.015630718 -0.02866397 0)
(-0.011211801 -0.02905574 0)
(-0.0067450574 -0.029316876 0)
(-0.0022501311 -0.029447763 0)
(0.0022549256 -0.029447585 0)
(0.0067494592 -0.029316777 0)
(0.01121607 -0.029055704 0)
(0.015634741 -0.028663941 0)
(0.019986365 -0.028141051 0)
(0.024251251 -0.027487515 0)
(0.028408266 -0.026702633 0)
(0.032436463 -0.025788151 0)
(0.036314841 -0.024745576 0)
(0.040022392 -0.023577879 0)
(0.043538743 -0.022290315 0)
(0.046843791 -0.020889174 0)
(0.049914712 -0.019381076 0)
(0.052740023 -0.017777933 0)
(0.055304249 -0.016091042 0)
(0.057587406 -0.014331181 0)
(0.059582134 -0.012512712 0)
(0.061279355 -0.010650148 0)
(0.0626747 -0.0087594304 0)
(0.063766146 -0.0068539467 0)
(0.064551225 -0.0049486549 0)
(0.065033491 -0.0030585165 0)
(0.065220111 -0.0011962768 0)
(0.065119027 0.00062608429 0)
(0.064740686 0.0023979423 0)
(0.064097428 0.0041094439 0)
(0.063202684 0.0057523728 0)
(0.062071304 0.0073195042 0)
(0.060717267 0.0088055376 0)
(0.059154583 0.010208377 0)
(0.05739928 0.011524558 0)
(0.055465051 0.012749746 0)
(0.053367105 0.013891983 0)
(0.051120282 0.014948426 0)
(0.048737615 0.015919904 0)
(0.04623285 0.016811197 0)
(0.043618191 0.017624498 0)
(0.040905726 0.018362757 0)
(0.038105923 0.019032059 0)
(0.035225988 0.019632689 0)
(0.032277259 0.020169386 0)
(0.029269552 0.020644433 0)
(0.026208387 0.021064167 0)
(0.023102119 0.021429978 0)
(0.019956427 0.021745089 0)
(0.016777097 0.022012244 0)
(0.013569557 0.022232487 0)
(0.010349566 0.022408931 0)
(0.0072115665 0.022540086 0)
(0.0028441196 0.022647961 0)
(-0.0028956321 0.026004913 0)
(-0.0073233176 0.025879014 0)
(-0.010492933 0.025730841 0)
(-0.013756307 0.025528134 0)
(-0.01700876 0.025278478 0)
(-0.020236837 0.02497668 0)
(-0.02343449 0.024621116 0)
(-0.026595091 0.02420955 0)
(-0.02971438 0.023740103 0)
(-0.032785956 0.023207049 0)
(-0.035800497 0.022604918 0)
(-0.038754833 0.021931571 0)
(-0.041631375 0.02118121 0)
(-0.044420358 0.020349019 0)
(-0.047118857 0.019431962 0)
(-0.04971025 0.018425266 0)
(-0.052182679 0.017325205 0)
(-0.054522303 0.016128395 0)
(-0.056714177 0.014829348 0)
(-0.058743433 0.013431435 0)
(-0.060594858 0.011930108 0)
(-0.062251636 0.010323744 0)
(-0.063697001 0.0086204676 0)
(-0.064915438 0.0068198685 0)
(-0.065890559 0.0049284616 0)
(-0.0666061 0.0029536386 0)
(-0.067046785 0.00090470612 0)
(-0.067199297 -0.0012073728 0)
(-0.067051169 -0.0033695393 0)
(-0.066593169 -0.0055676485 0)
(-0.065818303 -0.0077855658 0)
(-0.064721143 -0.010001394 0)
(-0.063302876 -0.012209523 0)
(-0.061566121 -0.014382045 0)
(-0.059515485 -0.016501741 0)
(-0.057159736 -0.018552317 0)
(-0.054512273 -0.020518456 0)
(-0.051589688 -0.022388726 0)
(-0.048407057 -0.024140338 0)
(-0.044983322 -0.025767174 0)
(-0.041340039 -0.027260015 0)
(-0.037499271 -0.028611353 0)
(-0.033483806 -0.029816089 0)
(-0.029316227 -0.030870982 0)
(-0.025018726 -0.031774332 0)
(-0.020613126 -0.032525455 0)
(-0.016120424 -0.033125145 0)
(-0.01156091 -0.033573877 0)
(-0.006954263 -0.033872579 0)
(-0.0023197198 -0.034022332 0)
(0.0023247776 -0.034022185 0)
(0.0069586347 -0.033872385 0)
(0.011565185 -0.033573433 0)
(0.016124618 -0.033124776 0)
(0.020617027 -0.032524835 0)
(0.025022917 -0.031774209 0)
(0.029320902 -0.030870997 0)
(0.033488423 -0.029816165 0)
(0.037503733 -0.028611737 0)
(0.041344203 -0.027260503 0)
(0.044987303 -0.025767665 0)
(0.048411118 -0.024140812 0)
(0.051594134 -0.022389054 0)
(0.054516797 -0.020520417 0)
(0.05716367 -0.018554285 0)
(0.059518859 -0.016503804 0)
(0.061569168 -0.014384422 0)
(0.06330595 -0.012212336 0)
(0.06472481 -0.010004823 0)
(0.065822286 -0.0077887163 0)
(0.0665976 -0.0055720993 0)
(0.067056234 -0.0033747411 0)
(0.067204953 -0.001213206 0)
(0.067053471 0.00089807397 0)
(0.06661358 0.0029465058 0)
(0.06589898 0.0049207833 0)
(0.064925093 0.0068114565 0)
(0.063707778 0.0086113536 0)
(0.062264084 0.010313226 0)
(0.060608852 0.011919285 0)
(0.0587581 0.01341936 0)
(0.056729716 0.01481667 0)
(0.05453888 0.016115238 0)
(0.052200115 0.017310848 0)
(0.049728711 0.0184097 0)
(0.047138651 0.019414963 0)
(0.044441775 0.020330839 0)
(0.041652258 0.021161674 0)
(0.038777706 0.021909937 0)
(0.035826938 0.022580621 0)
(0.032812668 0.02318051 0)
(0.029741984 0.023710699 0)
(0.026622557 0.024177213 0)
(0.023461261 0.024584263 0)
(0.020263378 0.024934461 0)
(0.017034102 0.025230811 0)
(0.013779291 0.025475097 0)
(0.01051114 0.025672013 0)
(0.0073367582 0.025817878 0)
(0.0029015386 0.025938486 0)
(-0.002960255 0.029332778 0)
(-0.0074659616 0.029198438 0)
(-0.01067571 0.029031998 0)
(-0.013990004 0.028814261 0)
(-0.017295181 0.028542 0)
(-0.020579359 0.028216829 0)
(-0.023833906 0.027832074 0)
(-0.027055049 0.027385391 0)
(-0.030239648 0.026871779 0)
(-0.033381019 0.026286566 0)
(-0.036470413 0.025626788 0)
(-0.039500458 0.024885366 0)
(-0.042461589 0.024062051 0)
(-0.045342341 0.023143199 0)
(-0.048132901 0.022127441 0)
(-0.050821936 0.021010065 0)
(-0.053395816 0.01978596 0)
(-0.055842488 0.01845091 0)
(-0.058142867 0.017000353 0)
(-0.060280622 0.015430951 0)
(-0.062245052 0.013742922 0)
(-0.064010835 0.011935118 0)
(-0.065560859 0.010010221 0)
(-0.066881919 0.0079711705 0)
(-0.067952117 0.0058242039 0)
(-0.068754058 0.0035770611 0)
(-0.06927024 0.0012400947 0)
(-0.069485159 -0.001174037 0)
(-0.069385081 -0.0036495956 0)
(-0.06895878 -0.0061706482 0)
(-0.068191821 -0.0087161805 0)
(-0.067091123 -0.0112678 0)
(-0.06565287 -0.013805182 0)
(-0.063867298 -0.016305894 0)
(-0.061750454 -0.018740833 0)
(-0.059313627 -0.021102351 0)
(-0.056567446 -0.023364117 0)
(-0.05352773 -0.025507438 0)
(-0.05021511 -0.027516436 0)
(-0.04665126 -0.029378542 0)
(-0.042859322 -0.031084061 0)
(-0.03886335 -0.032624403 0)
(-0.034688465 -0.033994283 0)
(-0.030359033 -0.035191224 0)
(-0.025898592 -0.036213816 0)
(-0.021330619 -0.037061193 0)
(-0.01667673 -0.037736854 0)
(-0.011956907 -0.038241789 0)
(-0.007191265 -0.038577398 0)
(-0.0023986651 -0.038745431 0)
(0.002403871 -0.038745331 0)
(0.0071960196 -0.038577185 0)
(0.01196138 -0.038241143 0)
(0.016680923 -0.037736248 0)
(0.021334401 -0.037060054 0)
(0.025902462 -0.036213558 0)
(0.030363562 -0.035190983 0)
(0.034692854 -0.033994143 0)
(0.038867491 -0.032624441 0)
(0.04286335 -0.031084376 0)
(0.046655215 -0.029379064 0)
(0.050219112 -0.027517113 0)
(0.053531733 -0.025508336 0)
(0.056571295 -0.02336555 0)
(0.059317225 -0.021104226 0)
(0.06175355 -0.018742914 0)
(0.063869858 -0.016308342 0)
(0.065655259 -0.013808116 0)
(0.067094749 -0.011271304 0)
(0.068195458 -0.0087202838 0)
(0.0689619 -0.0061753799 0)
(0.069389265 -0.0036550604 0)
(0.069490041 -0.0011800371 0)
(0.069276139 0.0012331171 0)
(0.068760901 0.0035691618 0)
(0.067959751 0.0058157359 0)
(0.066890601 0.0079619142 0)
(0.065570362 0.010000044 0)
(0.064022391 0.011924176 0)
(0.062257806 0.013730924 0)
(0.060293702 0.015417949 0)
(0.058157885 0.016986259 0)
(0.055858159 0.018435995 0)
(0.053411578 0.019770044 0)
(0.050838544 0.020993004 0)
(0.048150833 0.02210896 0)
(0.045361795 0.023123071 0)
(0.042481732 0.024040064 0)
(0.039521819 0.024863512 0)
(0.036493599 0.025602011 0)
(0.033404545 0.026258655 0)
(0.030263596 0.026841004 0)
(0.027079446 0.027351211 0)
(0.023856973 0.027795399 0)
(0.020600688 0.02817663 0)
(0.01731556 0.028498224 0)
(0.014008762 0.02876546 0)
(0.01069063 0.028978775 0)
(0.0074764575 0.029142093 0)
(0.0029644736 0.029273147 0)
(-0.0030292046 0.032711337 0)
(-0.0076213909 0.03256535 0)
(-0.01087453 0.032388555 0)
(-0.014243749 0.032155471 0)
(-0.017603668 0.031864462 0)
(-0.020944266 0.031516391 0)
(-0.024263361 0.031104915 0)
(-0.027552774 0.030625185 0)
(-0.030810542 0.030072378 0)
(-0.034028225 0.029442904 0)
(-0.037198979 0.028731439 0)
(-0.040316831 0.027927992 0)
(-0.043370797 0.027031587 0)
(-0.046352253 0.02603315 0)
(-0.049249265 0.024925205 0)
(-0.052049 0.023702049 0)
(-0.054739131 0.022358241 0)
(-0.057305243 0.020888259 0)
(-0.059731476 0.019290084 0)
(-0.061998261 0.017547658 0)
(-0.064088095 0.015674897 0)
(-0.065981727 0.013664489 0)
(-0.067658358 0.011514312 0)
(-0.069098924 0.0092309212 0)
(-0.070282084 0.0068201194 0)
(-0.071187661 0.0042900752 0)
(-0.071795152 0.0016522985 0)
(-0.072085955 -0.0010790712 0)
(-0.072044521 -0.0038844596 0)
(-0.071656323 -0.0067477657 0)
(-0.070911851 -0.0096380863 0)
(-0.06980648 -0.012548813 0)
(-0.068337237 -0.015437637 0)
(-0.066498033 -0.018284699 0)
(-0.064308184 -0.021064883 0)
(-0.06177933 -0.023753872 0)
(-0.058913784 -0.026325704 0)
(-0.055738497 -0.028760478 0)
(-0.052274752 -0.031039588 0)
(-0.048547665 -0.033148195 0)
(-0.044582733 -0.035073593 0)
(-0.040406436 -0.0368081 0)
(-0.03604768 -0.038345194 0)
(-0.031532923 -0.039685215 0)
(-0.026885956 -0.040826284 0)
(-0.022133505 -0.04177021 0)
(-0.017298428 -0.04251992 0)
(-0.012398907 -0.043078814 0)
(-0.007455394 -0.04344993 0)
(-0.0024864547 -0.043635622 0)
(0.0024918773 -0.043635592 0)
(0.0074603649 -0.043449831 0)
(0.012403596 -0.043078484 0)
(0.01730308 -0.042519202 0)
(0.022137008 -0.04176968 0)
(0.026889226 -0.040825493 0)
(0.031537488 -0.039684558 0)
(0.036052053 -0.038344807 0)
(0.040410446 -0.036807413 0)
(0.044586396 -0.035073149 0)
(0.048551281 -0.03314812 0)
(0.052278494 -0.031040014 0)
(0.055742258 -0.028761428 0)
(0.058917363 -0.02632696 0)
(0.061782574 -0.023755437 0)
(0.064310887 -0.021066849 0)
(0.066500092 -0.018286913 0)
(0.068339157 -0.015440298 0)
(0.069808886 -0.012552016 0)
(0.070914542 -0.009642784 0)
(0.07165934 -0.0067526555 0)
(0.072048241 -0.003890144 0)
(0.072090003 -0.0010851166 0)
(0.071799822 0.0016451994 0)
(0.071193442 0.004281775 0)
(0.070288826 0.006811021 0)
(0.069106496 0.0092210952 0)
(0.067667073 0.011503444 0)
(0.065991901 0.013652991 0)
(0.064099514 0.01566173 0)
(0.06201029 0.017533951 0)
(0.059744534 0.019274884 0)
(0.057319395 0.020871281 0)
(0.054753807 0.022340493 0)
(0.052064309 0.023683527 0)
(0.049265426 0.024905608 0)
(0.046369661 0.026012194 0)
(0.043389532 0.027008995 0)
(0.04033653 0.027904051 0)
(0.037219024 0.028705017 0)
(0.034048733 0.029414162 0)
(0.030831782 0.030041647 0)
(0.027574333 0.030591354 0)
(0.024284174 0.03106807 0)
(0.020963746 0.031477347 0)
(0.017620539 0.031822533 0)
(0.014257609 0.032110132 0)
(0.010885786 0.032339687 0)
(0.0076292644 0.032513752 0)
(0.0030322718 0.032657195 0)