/*--------------------------------*- C++ -*----------------------------------*\
  =========                 |
  \\      /  F ield         | OpenFOAM: The Open Source CFD Toolbox
   \\    /   O peration     | Website:  https://openfoam.org
    \\  /    A nd           | Version:  9
     \\/     M anipulation  |
\*---------------------------------------------------------------------------*/
FoamFile
{
    format      ascii;
    class       volScalarField;
    location    "9";
    object      p;
}
// * * * * * * * * * * * * * * * * * * * * * * * * * * * * * * * * * * * * * //

dimensions      [0 2 -2 0 0 0 0];

internalField   nonuniform List<scalar> 
400
(
-1.2138379e-06
-0.00066333179
-0.0013592226
-0.0018991872
-0.0021599787
-0.0020822602
-0.0016427634
-0.00083486446
0.00032790656
0.0017960964
0.0034686655
0.0051854907
0.0067412878
0.0079172795
0.0085347348
0.0085156602
0.0079257534
0.0069781407
0.0060088414
0.0054514093
0.00064560338
-4.1104461e-05
-0.00055716965
-0.00091393821
-0.0010693614
-0.00098391011
-0.00063664521
-1.5882177e-05
0.00087560752
0.0020055281
0.00329839
0.0046413379
0.0058674267
0.0068042103
0.0073102119
0.0073233881
0.0068950806
0.0061939143
0.0054628247
0.0048961482
0.0013933975
0.00042807456
-0.00011546872
-0.00043819699
-0.00058428017
-0.00053768872
-0.00028287346
0.0001983956
0.00091877446
0.0018675383
0.0029949048
0.0041990531
0.0053290571
0.0062141937
0.0067040178
0.0067196288
0.0062928053
0.0055738717
0.0047580372
0.0039193597
0.0019669301
0.0006587818
9.6154154e-06
-0.0003506801
-0.00054534481
-0.00057977329
-0.00044156471
-0.00010149034
0.00047471311
0.0013022679
0.0023534845
0.0035421241
0.0047150331
0.0056808215
0.0062517427
0.0063043932
0.0058355136
0.0049846087
0.0039289482
0.0026668255
0.0021103341
0.00046930275
-0.0003049491
-0.00073944126
-0.001026627
-0.0011870141
-0.0012055552
-0.0010359882
-0.00061586255
0.00010285803
0.0011212117
0.0023756924
0.0037064283
0.0048899299
0.0056779429
0.0058707955
0.0054013361
0.0043888992
0.0030098582
0.0012047839
0.0016005985
-0.00033404151
-0.0012378934
-0.0017767232
-0.0022016613
-0.0025421732
-0.0027746136
-0.0028294717
-0.0026086218
-0.0020209174
-0.0010238948
0.00035986948
0.0019658846
0.0035364687
0.0047406468
0.0052607473
0.0049172031
0.0037784655
0.0020196045
-0.00047290249
0.00025466766
-0.0019172816
-0.0029482355
-0.003620309
-0.0042332625
-0.0048215179
-0.0053488708
-0.0057176549
-0.0057861391
-0.0054032914
-0.0044538657
-0.0029381138
-0.00095951972
0.0011923166
0.0030847907
0.004230712
0.0042623678
0.0031309505
0.00097552558
-0.0023919914
-0.0020686417
-0.0044111303
-0.0055628263
-0.006396902
-0.0072530763
-0.0081701871
-0.0090991595
-0.0099120771
-0.010416887
-0.010390478
-0.0096273685
-0.0080247317
-0.0056221272
-0.0026974083
0.00022008565
0.0024228708
0.003250462
0.0024162328
-7.3023165e-05
-0.0045474263
-0.0054583866
-0.0078997182
-0.0091610783
-0.01018053
-0.011331861
-0.012662397
-0.014114743
-0.015533284
-0.016672896
-0.017226485
-0.016870958
-0.015349672
-0.012575122
-0.0087466055
-0.0044494124
-0.00063724669
0.0016169513
0.0016015604
-0.001007426
-0.0068422055
-0.0099396643
-0.012409973
-0.013757955
-0.014965068
-0.016439479
-0.018247218
-0.020332713
-0.022520788
-0.024516815
-0.025923521
-0.026273721
-0.025111423
-0.022169431
-0.017448453
-0.011493522
-0.0054696741
-0.00095597366
0.00066998007
-0.0015901166
-0.0089963782
-0.015469796
-0.017910693
-0.019295131
-0.020642822
-0.02240972
-0.024699081
-0.027472578
-0.030547911
-0.033589763
-0.036113011
-0.037494438
-0.037031354
-0.034288859
-0.028881058
-0.021177484
-0.012426756
-0.0047100567
-0.00030632613
-0.0013853665
-0.010395519
-0.021952633
-0.024328734
-0.025646157
-0.026996494
-0.028922177
-0.031593026
-0.035006535
-0.038985929
-0.043164692
-0.046978216
-0.049679171
-0.050399375
-0.048143358
-0.042386616
-0.03308809
-0.021332035
-0.0095306859
-0.00098558953
0.00037334402
-0.009842298
-0.029285722
-0.031589018
-0.032637541
-0.033707158
-0.03550927
-0.038320795
-0.042190882
-0.046952918
-0.052212431
-0.057332595
-0.061434554
-0.063433244
-0.062088959
-0.056392569
-0.045833746
-0.031086006
-0.014553621
-0.00045196811
0.0050060698
-0.0051837636
-0.037465723
-0.039682185
-0.040079775
-0.04037359
-0.04158975
-0.044154973
-0.048171046
-0.053467542
-0.059606729
-0.065873931
-0.071265669
-0.074508123
-0.074116039
-0.068655328
-0.057097003
-0.039504202
-0.017853199
0.0031306498
0.014741575
0.0071646175
-0.046812952
-0.048761798
-0.04778955
-0.046530331
-0.046521521
-0.048350626
-0.052135173
-0.057656681
-0.064388438
-0.071510728
-0.077884208
-0.082053683
-0.082307422
-0.076838436
-0.064150164
-0.043637647
-0.016501782
0.01271851
0.033129334
0.032556193
-0.058496456
-0.059292086
-0.055575566
-0.051651488
-0.049664536
-0.050263437
-0.053475533
-0.058955106
-0.066001525
-0.073644073
-0.080568158
-0.085123109
-0.085379313
-0.079191981
-0.064662791
-0.040564358
-0.0071701821
0.032197262
0.065035669
0.077772966
-0.075883513
-0.072326254
-0.06328595
-0.055240896
-0.050520722
-0.049515834
-0.05195523
-0.05721037
-0.064361673
-0.072210932
-0.07923464
-0.083564153
-0.08303236
-0.075126642
-0.05751377
-0.028393651
0.012845581
0.06531491
0.11547169
0.15141011
-0.10783709
-0.089356741
-0.071104313
-0.057147722
-0.048975958
-0.046166334
-0.047811438
-0.05282952
-0.05997713
-0.067798099
-0.074544636
-0.078114
-0.076088288
-0.065648242
-0.043844941
-0.0079151011
0.044222873
0.11280864
0.18820025
0.27167118
-0.17667445
-0.10815907
-0.076158525
-0.054651365
-0.04297787
-0.038910893
-0.040375387
-0.045619558
-0.053042083
-0.060991097
-0.067587106
-0.070584891
-0.067285962
-0.05459611
-0.02913873
0.013455934
0.077959373
0.16984033
0.28926814
0.47399888
-0.37191432
-0.12459656
-0.054946692
-0.03199227
-0.022088659
-0.02026071
-0.024215768
-0.031700193
-0.040906657
-0.050226906
-0.057893642
-0.061805494
-0.059485024
-0.047889415
-0.022621936
0.021397021
0.092657481
0.20994847
0.40267483
0.77620016
)
;

boundaryField
{
    movingWall
    {
        type            zeroGradient;
    }
    fixedWalls
    {
        type            zeroGradient;
    }
    frontAndBack
    {
        type            empty;
    }
}


// ************************************************************************* //
