/*--------------------------------*- C++ -*----------------------------------*\
  =========                 |
  \\      /  F ield         | OpenFOAM: The Open Source CFD Toolbox
   \\    /   O peration     | Website:  https://openfoam.org
    \\  /    A nd           | Version:  9
     \\/     M anipulation  |
\*---------------------------------------------------------------------------*/
FoamFile
{
    format      ascii;
    class       surfaceScalarField;
    location    "9";
    object      phi;
}
// * * * * * * * * * * * * * * * * * * * * * * * * * * * * * * * * * * * * * //

dimensions      [0 3 -1 0 0 0 0];

internalField   nonuniform List<scalar> 
760
(
1.2231467e-05
-1.2216861e-05
-2.8871586e-05
4.1102928e-05
-0.00012126749
9.2395954e-05
-0.00024759806
0.00012633042
-0.00039117736
0.00014357924
-0.00053830269
0.00014712534
-0.00067711756
0.00013881488
-0.00079602527
0.00011890767
-0.0008829634
8.6938083e-05
-0.00092608242
4.3118997e-05
-0.00091558795
-1.0494464e-05
-0.00084672926
-6.8858666e-05
-0.0007226094
-0.00012411985
-0.00055624807
-0.00016636132
-0.00037034114
-0.00018590692
-0.00019419348
-0.00017614766
-5.7480748e-05
-0.00013671276
1.8408831e-05
-7.5889619e-05
2.9749798e-05
-1.1340999e-05
2.9749797e-05
-4.2761762e-05
3.0544707e-05
-0.00020190736
0.00020024843
-0.00046168372
0.00035217241
-0.00078892985
0.00045357653
-0.0011498961
0.00050454555
-0.0015133621
0.00051059138
-0.0018501105
0.00047556328
-0.0021316823
0.00040047944
-0.0023303049
0.00028556066
-0.0024208828
0.00013369681
-0.0023856114
-4.5765932e-05
-0.0022168011
-0.000237669
-0.0019245645
-0.00041635653
-0.0015379036
-0.00055302229
-0.0011041306
-0.0006196799
-0.00068268205
-0.00059759629
-0.00033343223
-0.00048596263
-0.00010148845
-0.00030783344
-2.1326881e-06
-0.00011069676
2.7617113e-05
-0.00010829666
0.00013884134
-0.00039648763
0.00048843925
-0.000817786
0.00077347081
-0.0013236447
0.00095943506
-0.0018678394
0.0010487402
-0.0024074514
0.0010502035
-0.0029017304
0.00096984222
-0.0033110558
0.00080980481
-0.0035975662
0.00057207106
-0.0037281072
0.00026423794
-0.0036787048
-9.5168322e-05
-0.0034404806
-0.00047589312
-0.0030258349
-0.00083100226
-0.0024716534
-0.0011072038
-0.0018390997
-0.0012522336
-0.0012071766
-0.0012295196
-0.00065893535
-0.0010342039
-0.0002619409
-0.00070482794
-4.8115777e-05
-0.00032452189
-2.0498669e-05
-0.00017033623
0.00030917768
-0.00058283087
0.00090093381
-0.0011572674
0.0013479075
-0.0018267306
0.0016288983
-0.0025339575
0.001755967
-0.0032279392
0.0017441852
-0.0038607853
0.0016026883
-0.0043860217
0.0013350412
-0.0047591377
0.00094518701
-0.0049405117
0.00044561189
-0.0049003573
-0.00013532286
-0.0046244268
-0.00075182367
-0.0041216964
-0.0013337327
-0.0034293971
-0.0017995033
-0.0026156551
-0.0020659757
-0.00177543
-0.0020697447
-0.0010166922
-0.0017929419
-0.00043687405
-0.0012846461
-9.6236482e-05
-0.00066515948
-0.00011673519
-0.00022553117
0.00053470891
-0.00075134887
0.0014267514
-0.0014654841
0.0020620428
-0.0022832061
0.0024466202
-0.0031377327
0.0026104935
-0.003972697
0.0025791496
-0.0047364286
0.0023664198
-0.0053788035
0.0019774162
-0.0058508585
0.001417242
-0.0061069207
0.00070167401
-0.0061095152
-0.00013272833
-0.0058338652
-0.0010274738
-0.0052785782
-0.0018890198
-0.0044731147
-0.0026049669
-0.003485785
-0.0030533054
-0.0024251586
-0.0031303712
-0.0014287973
-0.0027893033
-0.00063553079
-0.0020779127
-0.00014765962
-0.0011530307
-0.00026439493
-0.00027227829
0.0008069872
-0.00089574825
0.0020502213
-0.0017312893
0.002897584
-0.0026788795
0.0033942103
-0.003664401
0.003596015
-0.004628693
0.0035434416
-0.0055191996
0.0032569264
-0.0062848754
0.002743092
-0.0068741642
0.0020065308
-0.0072354279
0.0010629377
-0.0073217625
-4.6393734e-05
-0.0070925809
-0.0012566555
-0.0065291625
-0.0024524382
-0.0056436334
-0.003490496
-0.0044952299
-0.004201709
-0.0032008101
-0.004424791
-0.0019307642
-0.0040593493
-0.00087917335
-0.0031295036
-0.00020970193
-0.0018225023
-0.00047409698
-0.00030888475
0.001115872
-0.0010100401
0.0027513766
-0.0019433838
0.0038309276
-0.0029971655
0.0044479919
-0.0040925058
0.0046913553
-0.0051699867
0.0046209224
-0.0061789379
0.0042658777
-0.0070701755
0.0036343296
-0.0077919021
0.0027282574
-0.0082883535
0.0015593891
-0.0084994291
0.00016468178
-0.0083708404
-0.0013852442
-0.0078569569
-0.0029663217
-0.0069427241
-0.0044047289
-0.0056651885
-0.0054792446
-0.0041374945
-0.0059524851
-0.0025595501
-0.0056372937
-0.001193636
-0.0044954177
-0.00029186623
-0.0027242723
-0.00076596331
-0.00033342796
0.0014493
-0.0010881552
0.0035061038
-0.0020899259
0.0048326983
-0.0032190153
0.0055770813
-0.0043943203
0.0058666603
-0.0055585628
0.0057851648
-0.0066656875
0.0053730024
-0.0076715057
0.0046401478
-0.0085273173
0.003584069
-0.0091759525
0.0022080242
-0.0095495368
0.00053826605
-0.0095754309
-0.00135935
-0.0091808073
-0.0033609454
-0.0083134165
-0.0052721198
-0.0069714523
-0.0068212088
-0.0052432767
-0.0076806608
-0.0033425046
-0.0075380658
-0.0016048375
-0.0062330848
-0.00040487789
-0.0039242322
-0.0011708412
-0.00034437313
0.0017936731
-0.0011252818
0.0042870125
-0.0021606069
0.0058680234
-0.0033258376
0.0067423119
-0.004539798
0.0070806206
-0.0057494918
0.0069948586
-0.0069161679
0.0065396784
-0.008004175
0.0057281548
-0.0089724645
0.0045523585
-0.0097680926
0.0030036522
-0.010321556
0.0010917296
-0.010546762
-0.0011341442
-0.010345788
-0.0035619198
-0.0096238699
-0.0059940376
-0.0083234891
-0.0081215897
-0.0064788995
-0.0095252504
-0.0042840549
-0.0097329104
-0.002134472
-0.0083826678
-0.0005608524
-0.005497852
-0.0017316935
-0.00034173752
0.0021354106
-0.0011205955
0.0050658704
-0.0021508201
0.0068982479
-0.003305105
0.0078965969
-0.0045038933
0.008279409
-0.0057004319
0.008191397
-0.0068659097
0.0077051561
-0.0079769799
0.006839225
-0.009005643
0.0055810217
-0.0099107329
0.0039087421
-0.010630198
0.0018111943
-0.011073854
-0.0006904876
-0.011130552
-0.003505222
-0.010664143
-0.0064604467
-0.009550304
-0.0092354288
-0.0077373972
-0.011338157
-0.0053484096
-0.012121898
-0.0027933695
-0.010937708
-0.00077383862
-0.0075173829
-0.0025055319
-0.00032869043
0.002464101
-0.0010810035
0.0058181835
-0.00206726
0.0078845042
-0.0031577369
0.0089870739
-0.00427618
0.0093978521
-0.0053843577
0.0092995747
-0.006466137
0.0087869353
-0.007514126
0.0078872139
-0.0085186803
0.0065855759
-0.0094582203
0.0048482821
-0.010290819
0.0026437928
-0.010931186
-5.0120719e-05
-0.011279357
-0.0031570507
-0.011165931
-0.0065738726
-0.010403413
-0.0099979468
-0.0088309356
-0.012910635
-0.0064397478
-0.014513086
-0.0035698566
-0.013807599
-0.0010596915
-0.010027548
-0.0035652233
-0.00031373557
0.0027778365
-0.0010257206
0.0065301686
-0.001934085
0.0087928684
-0.0029055944
0.0099585834
-0.003870264
0.010362522
-0.004802097
0.010231408
-0.0057009507
0.009685789
-0.0065785663
0.0087648294
-0.0074477256
0.0074547352
-0.0083125187
0.0057130752
-0.0091567265
0.0034880006
-0.0099405918
0.00073374442
-0.010554941
-0.0025427012
-0.010847988
-0.0062808259
-0.010585723
-0.010260212
-0.0094958818
-0.014000476
-0.0073865459
-0.016622422
-0.0044120051
-0.01678214
-0.0014334178
-0.013006135
-0.004998641
-0.00031412888
0.0030919654
-0.00099183136
0.0072078711
-0.0017985527
0.0095995896
-0.0025965737
0.010756604
-0.0033289991
0.011094947
-0.0039890214
0.01089143
-0.0045972927
0.01029406
-0.00518758
0.0093551166
-0.0057971161
0.0080642713
-0.0064586146
0.0063745737
-0.0071911647
0.0042205508
-0.0079899149
0.0015324946
-0.0087938978
-0.0017387184
-0.0094775346
-0.0055971892
-0.0098046009
-0.0099331465
-0.0094230124
-0.014382065
-0.0079401465
-0.018105288
-0.0052064939
-0.019515793
-0.0019005314
-0.016312098
-0.0068991725
-0.00036199505
0.0034539603
-0.0010411523
0.0078870286
-0.0017340518
0.010292489
-0.0023029174
0.01132547
-0.0027189615
0.011510991
-0.003006818
0.011179286
-0.0032148475
0.01050209
-0.0034013402
0.0095416093
-0.0036274968
0.0082904279
-0.0039530681
0.0067001451
-0.004430752
0.0046982348
-0.0050972552
0.0021989978
-0.0059502254
-0.00088574836
-0.0069233216
-0.0046240932
-0.0078303631
-0.0090261052
-0.0083053708
-0.013907057
-0.0077920889
-0.01861857
-0.0057599506
-0.021547931
-0.0024372817
-0.019634767
-0.0093364544
-0.00051552711
0.0039694874
-0.0012668827
0.0086383843
-0.0018333678
0.010858974
-0.0021014022
0.011593504
-0.0021000456
0.011509635
-0.0019044738
0.010983714
-0.0015996204
0.010197236
-0.0012705697
0.0092125584
-0.00099961398
0.0080194721
-0.00086810245
0.0065686337
-0.00095515999
0.0047852924
-0.0013345221
0.00257836
-0.0020637672
-0.00015650336
-0.00315474
-0.0035331204
-0.0045224926
-0.0076583527
-0.0058765906
-0.012552959
-0.0065992536
-0.017895907
-0.0057848744
-0.022362311
-0.0029550196
-0.022464621
-0.012291474
-0.00087606786
0.0048455552
-0.0017854533
0.0095477699
-0.0021617642
0.011235285
-0.0019951602
0.011426901
-0.0014251088
0.010939583
-0.00060284679
0.010161452
0.00034167448
0.0092527146
0.0012998199
0.0082544129
0.0021719044
0.0071473875
0.0028629769
0.005877561
0.003276237
0.0043720323
0.003310612
0.0025439851
0.0028601519
0.00029395675
0.001839683
-0.0025126516
0.00020921369
-0.0060278835
-0.0019037137
-0.010440032
-0.0039879699
-0.01581165
-0.0048813458
-0.021468935
-0.0032610328
-0.024084934
-0.015552507
-0.0015969079
0.0064424632
-0.0026298536
0.010580716
-0.0025488955
0.011154327
-0.0016431367
0.010521142
-0.0002412445
0.0095376909
0.0014108595
0.008509348
0.0031422537
0.0075213203
0.004828157
0.0065685093
0.006367668
0.0056078763
0.0076655513
0.0045796775
0.0086217447
0.0034158388
0.0091237852
0.0020419446
0.0090347221
0.00038301991
0.0082155491
-0.0016934786
0.0065148889
-0.0043272232
0.0038630071
-0.0077881501
0.00052870019
-0.012477343
-0.0024875473
-0.018452687
-0.0030346508
-0.023537831
-0.018587158
-0.0027205854
0.0091630486
-0.0031596765
0.011019807
-0.0018251342
0.0098197841
0.0004301148
0.0082658926
0.0030384617
0.0069293438
0.0057104187
0.0058373908
0.0082902147
0.0049415242
0.010682283
0.0041764412
0.012814028
0.0034761307
0.014613685
0.0027800208
0.015997057
0.0020324672
0.016859885
0.0011791164
0.017065576
0.0001773293
0.016446047
-0.0010739495
0.014780766
-0.0026619422
0.011818114
-0.0048254984
0.0074134604
-0.0080726903
0.0022484312
-0.013287658
-0.0012791263
-0.020010273
-0.019866284
-0.0024113994
0.011574448
2.8609671e-05
0.008579798
0.0042500513
0.0055983425
0.0084015698
0.0041143741
0.012205693
0.0031252204
0.015619495
0.0024235888
0.018640674
0.0019203453
0.021277191
0.0015399246
0.023528934
0.0012243871
0.025375758
0.00093319754
0.026771094
0.0006371313
0.027635184
0.00031502579
0.027865188
-5.2674558e-05
0.027320861
-0.00052962304
0.025752755
-0.0010938361
0.02282985
-0.0019025942
0.018045466
-0.0032883057
0.01110743
-0.0063496225
0.0033860748
-0.012288918
-0.016480209
0.011574448
0.020154246
0.025752588
0.029866962
0.032992182
0.035415771
0.037336116
0.038876041
0.040100428
0.041033626
0.041670757
0.041985783
0.041933108
0.041403485
0.040309649
0.038407055
0.035118749
0.028769127
0.016480209
)
;

boundaryField
{
    movingWall
    {
        type            calculated;
        value           uniform 0;
    }
    fixedWalls
    {
        type            calculated;
        value           uniform 0;
    }
    frontAndBack
    {
        type            empty;
        value           nonuniform List<scalar> 0();
    }
}


// ************************************************************************* //
