/*--------------------------------*- C++ -*----------------------------------*\
  =========                 |
  \\      /  F ield         | OpenFOAM: The Open Source CFD Toolbox
   \\    /   O peration     | Website:  https://openfoam.org
    \\  /    A nd           | Version:  9
     \\/     M anipulation  |
\*---------------------------------------------------------------------------*/
FoamFile
{
    format      ascii;
    class       surfaceScalarField;
    location    "9";
    object      phi_0;
}
// * * * * * * * * * * * * * * * * * * * * * * * * * * * * * * * * * * * * * //

dimensions      [0 3 -1 0 0 0 0];

internalField   nonuniform List<scalar> 
760
(
1.2227084e-05
-1.2216207e-05
-2.8873593e-05
4.1100192e-05
-0.0001212628
9.2389222e-05
-0.00024758322
0.00012632073
-0.00039115111
0.00014356788
-0.00053826455
0.0001471135
-0.00067706821
0.00013880369
-0.00079596662
0.00011889839
-0.00088289863
8.6932007e-05
-0.0009260159
4.3117274e-05
-0.00091552477
-1.0491115e-05
-0.0008466745
-6.8850304e-05
-0.00072256716
-0.00012410741
-0.00055622056
-0.00016634666
-0.00037032807
-0.00018589255
-0.00019419196
-0.00017613617
-5.7485905e-05
-0.00013670611
1.8402339e-05
-7.5888326e-05
2.9746235e-05
-1.1344014e-05
2.9746093e-05
-4.2760426e-05
3.0543826e-05
-0.00020189377
0.00020023366
-0.0004616486
0.00035214409
-0.00078886665
0.00045353897
-0.0011498022
0.00050450337
-0.0015132378
0.00051054897
-0.0018499589
0.00047552482
-0.0021315096
0.00040044913
-0.0023301201
0.00028554246
-0.0024206966
0.00013369384
-0.0023854356
-4.5752126e-05
-0.0022166468
-0.00023763916
-0.0019244403
-0.00041631402
-0.0015378141
-0.00055297291
-0.0011040756
-0.00061963111
-0.00068265616
-0.0005975557
-0.00033342632
-0.00048593611
-0.00010149167
-0.00030782321
-2.1359304e-06
-0.0001107
2.7610131e-05
-0.00010828791
0.00013883172
-0.00039645268
0.00048839901
-0.00081771313
0.00077340463
-0.0013235265
0.00095935237
-0.0018676737
0.0010486505
-0.0024072405
0.0010501158
-0.0029014805
0.00096976495
-0.0033107773
0.00080974597
-0.0035972727
0.00057203777
-0.0037278143
0.00026423537
-0.0036784285
-9.513801e-05
-0.0034402356
-0.00047583217
-0.0030256326
-0.00083091719
-0.0024715002
-0.0011071053
-0.0018389963
-0.001252135
-0.0012071173
-0.0012294348
-0.00065890941
-0.0010341441
-0.00026193474
-0.00070479802
-4.8116713e-05
-0.00032451813
-2.0506537e-05
-0.00017031979
0.00030915159
-0.00058277466
0.000900854
-0.0011571577
0.0013477875
-0.0018265603
0.001628755
-0.002533726
0.0017558161
-0.0032276513
0.0017440412
-0.0038604504
0.0016025642
-0.0043856536
0.0013349493
-0.0047587532
0.00094513734
-0.0049401293
0.0004456114
-0.0048999954
-0.0001352719
-0.0046241022
-0.00075172545
-0.0041214224
-0.001333597
-0.0034291822
-0.0017993456
-0.0026155017
-0.0020658156
-0.0017753339
-0.0020696026
-0.0010166427
-0.0017928354
-0.00043685605
-0.0012845847
-9.62339e-05
-0.00066514027
-0.00011674038
-0.00022550834
0.00053466002
-0.00075127501
0.0014266207
-0.0014653442
0.0020618566
-0.0022829941
0.0024464049
-0.0031374499
0.002610272
-0.0039723508
0.002578942
-0.0047360308
0.0023662443
-0.00537837
0.0019772884
-0.0058504077
0.0014171749
-0.006106472
0.0007016756
-0.0061090883
-0.00013265577
-0.005833477
-0.0010273368
-0.0052782434
-0.0018888306
-0.004472844
-0.0026047451
-0.0034855837
-0.0030530758
-0.0024250252
-0.0031301611
-0.001428723
-0.0027891377
-0.00063550004
-0.0020778077
-0.00014765326
-0.001152987
-0.00026439364
-0.00027225138
0.00080691132
-0.0008956632
0.0020500325
-0.0017311308
0.0028973242
-0.0026786426
0.0033939167
-0.0036640889
0.0035957184
-0.0046283147
0.003543168
-0.0055187686
0.0032566982
-0.0062844082
0.0027429281
-0.0068736792
0.0020064458
-0.0072349434
0.0010629398
-0.0073212982
-4.6301025e-05
-0.0070921521
-0.0012564829
-0.0065287846
-0.0024521982
-0.0056433189
-0.0034902108
-0.0044949872
-0.0042014075
-0.0032006421
-0.0044245064
-0.0019306654
-0.0040591144
-0.0008791295
-0.0031293435
-0.00020969162
-0.0018224247
-0.00047408536
-0.00030885669
0.0011157679
-0.0010099523
0.0027511282
-0.0019432214
0.0038305933
-0.0029969249
0.0044476202
-0.0040921913
0.004690985
-0.0051696083
0.0046205851
-0.0061785096
0.0042655994
-0.0070697132
0.0036341317
-0.0077914226
0.0027281552
-0.0082878738
0.0015593909
-0.0084989627
0.00016478783
-0.0083704038
-0.0013850419
-0.0078565634
-0.0029660386
-0.0069423865
-0.0044043878
-0.0056649182
-0.0054788759
-0.0041372989
-0.0059521257
-0.0025594294
-0.005636984
-0.0011935794
-0.0044951935
-0.00029185183
-0.0027241523
-0.00076593735
-0.00033340207
0.00144917
-0.0010880742
0.0035058005
-0.0020897764
0.0048322955
-0.0032187946
0.0055766384
-0.0043940332
0.0058662238
-0.0055582196
0.0057847714
-0.0066653014
0.0053726812
-0.0076710911
0.0046399214
-0.0085268884
0.0035839525
-0.009175522
0.0022080244
-0.009549116
0.00053838174
-0.0095750302
-0.0013591278
-0.0091804371
-0.0033606319
-0.0083130878
-0.0052717371
-0.0069711775
-0.0068207862
-0.0052430675
-0.0076802357
-0.0033423681
-0.0075376834
-0.0016047696
-0.0062327921
-0.00040485935
-0.0039240626
-0.0011707969
-0.00034435275
0.0017935228
-0.0011252174
0.0042866652
-0.002160487
0.0058675653
-0.0033256604
0.0067418117
-0.0045395682
0.0070801317
-0.0057492191
0.0069944222
-0.0069158641
0.0065393262
-0.008003852
0.0057279094
-0.0089721332
0.0045522337
-0.0097677615
0.0030036527
-0.010321231
0.0010918515
-0.010546448
-0.0011339115
-0.010345488
-0.0035615913
-0.0096235923
-0.0059936332
-0.0083232434
-0.0081211351
-0.0064786996
-0.0095247795
-0.0042839146
-0.0097324684
-0.0021343967
-0.00838231
-0.00056083012
-0.0054976294
-0.0017316272
-0.00034172563
0.0021352485
-0.0011205562
0.0050654958
-0.0021507448
0.0068977539
-0.0033049925
0.0078960593
-0.0045037475
0.0082788869
-0.005700261
0.0081909356
-0.0068657234
0.0077047884
-0.0079767874
0.0068389733
-0.0090054514
0.0055808977
-0.0099105463
0.0039087475
-0.010630017
0.0018113218
-0.011073675
-0.00069025368
-0.011130373
-0.0035048932
-0.010663963
-0.0064600428
-0.0095501279
-0.0092349702
-0.0077372371
-0.01133767
-0.0053482839
-0.012121422
-0.0027932944
-0.0109373
-0.00077381382
-0.0075171099
-0.0025054411
-0.00032868918
0.0024639377
-0.0010809959
0.0058178023
-0.0020672407
0.0078839988
-0.0031577051
0.0089865235
-0.0042761381
0.00939732
-0.0053843115
0.0092991089
-0.0064660933
0.0087865701
-0.0075140907
0.0078869707
-0.0085186567
0.0065854637
-0.0094582082
0.004848299
-0.010290816
0.0026439297
-0.010931173
-4.9897282e-05
-0.011279335
-0.0031567311
-0.011165888
-0.0065734894
-0.010403346
-0.0099975129
-0.008830849
-0.012910167
-0.0064396604
-0.01451261
-0.003569793
-0.013807167
-0.0010596667
-0.010027236
-0.0035651079
-0.00031374601
0.0027776837
-0.0010257479
0.006529804
-0.001934128
0.0087923789
-0.002905652
0.0099580473
-0.0038703364
0.010362004
-0.0048021864
0.010230959
-0.00570106
0.0096854436
-0.0065786967
0.0087646075
-0.0074478762
0.0074546432
-0.0083126847
0.0057131075
-0.0091568965
0.0034881415
-0.0099407658
0.00073397198
-0.010555091
-0.0025424056
-0.010848102
-0.0062804792
-0.010585788
-0.010259827
-0.0094958955
-0.014000059
-0.0073865203
-0.016621985
-0.0044119673
-0.01678172
-0.001433397
-0.013005806
-0.0049985049
-0.00031415086
0.0030918345
-0.00099189352
0.0072075464
-0.0017986581
0.0095991436
-0.002596721
0.01075611
-0.0033291855
0.011094469
-0.0039892444
0.010891018
-0.0045975493
0.010293749
-0.0051878663
0.0093549245
-0.0057974263
0.0080642032
-0.0064589406
0.0063746217
-0.0071914959
0.0042206967
-0.0079902389
0.0015327151
-0.0087941969
-0.0017384476
-0.0094777905
-0.0055968856
-0.0098047959
-0.0099328214
-0.0094231349
-0.01438172
-0.007940198
-0.018104922
-0.0052064955
-0.019515423
-0.00190052
-0.016311781
-0.0068990249
-0.00036202714
0.0034538615
-0.0010412453
0.0078867643
-0.0017342132
0.010292111
-0.0023031455
0.011325042
-0.0027192501
0.011510573
-0.0030071586
0.011178926
-0.0032152305
0.01050182
-0.0034017552
0.0095414492
-0.0036279328
0.0082903808
-0.0039535136
0.0067002026
-0.0044311953
0.0046983785
-0.005097684
0.0021992038
-0.0059506255
-0.00088550605
-0.0069236774
-0.0046238337
-0.0078306566
-0.0090258421
-0.0083055852
-0.013906791
-0.0077922154
-0.018618292
-0.0057599984
-0.02154764
-0.002437285
-0.019634495
-0.0093363099
-0.00051556633
0.0039694278
-0.0012669979
0.0086381955
-0.0018335707
0.010858684
-0.0021016914
0.011593163
-0.0021004115
0.011509293
-0.0019049023
0.010983417
-0.0016000945
0.010197013
-0.0012710727
0.0092124275
-0.0010001292
0.0080194373
-0.00086861516
0.0065686886
-0.00095565824
0.0047854215
-0.0013349961
0.0025785417
-0.0020642073
-0.0001562949
-0.0031551363
-0.0035329048
-0.0045228321
-0.0076581463
-0.0058768573
-0.012552766
-0.0065994332
-0.017895716
-0.0057849634
-0.02236211
-0.0029550403
-0.022464418
-0.01229135
-0.00087610846
0.0048455362
-0.001785575
0.0095476619
-0.0021619827
0.011235092
-0.0019954758
0.011426656
-0.0014255104
0.010939328
-0.0006033162
0.010161223
0.00034115757
0.0092525389
0.0012992789
0.0082543062
0.0021713594
0.0071473567
0.0028624454
0.0058776025
0.0032757324
0.0043721344
0.0033101437
0.0025441303
0.0028597256
0.00029412303
0.0018393028
-0.0025124821
0.00020888496
-0.0060277286
-0.001903983
-0.010439898
-0.0039881675
-0.015811532
-0.0048814571
-0.02146882
-0.0032610672
-0.024084808
-0.015552417
-0.0015969394
0.0064424755
-0.0026299564
0.010580679
-0.0025490887
0.011154224
-0.0016434244
0.010520992
-0.00024161811
0.0095375216
0.0014104163
0.0085091882
0.0031417632
0.0075211919
0.0048276423
0.0065684271
0.0063671516
0.0056078473
0.0076650529
0.004579701
0.0086212795
0.0034159076
0.0091233634
0.0020420462
0.0090343494
0.00038313699
0.0082152256
-0.0016933583
0.006514614
-0.004327117
0.0038627831
-0.0077880672
0.00052853609
-0.012477285
-0.0024876531
-0.018452631
-0.0030346907
-0.023537771
-0.018587108
-0.0027205973
0.0091630729
-0.0031597295
0.011019811
-0.0018252535
0.0098197483
0.00042991744
0.0082658204
0.0030381867
0.0069292522
0.0057100765
0.0058372983
0.008289822
0.0049414463
0.010681861
0.0041763886
0.012813599
0.0034761092
0.014613268
0.0027800311
0.015996671
0.0020325055
0.016859541
0.0011791756
0.017065282
0.00017739635
0.016445804
-0.0010738799
0.01478057
-0.0026618832
0.011817959
-0.0048254562
0.0074133407
-0.0080726666
0.0022483524
-0.013287643
-0.0012791625
-0.020010256
-0.01986627
-0.0024113891
0.011574462
2.8612607e-05
0.008579809
0.004250024
0.0055983369
0.0084014915
0.0041143529
0.012205554
0.0031251892
0.015619297
0.0024235554
0.018640427
0.0019203165
0.02127691
0.0015399051
0.02352864
0.0012243796
0.025375469
0.00093320214
0.026770828
0.00063714609
0.027634957
0.00031504702
0.027864998
-5.2644769e-05
0.027320718
-0.00052959983
0.025752652
-0.0010938173
0.022829779
-0.0019025826
0.018045415
-0.003288303
0.011107397
-0.0063496244
0.0033860606
-0.01228892
-0.01648021
0.011574462
0.020154271
0.025752608
0.02986696
0.03299215
0.035415705
0.037336022
0.038875927
0.040100307
0.041033509
0.041670655
0.041985702
0.041933057
0.041403457
0.04030964
0.038407057
0.035118754
0.02876913
0.01648021
)
;

boundaryField
{
    movingWall
    {
        type            calculated;
        value           uniform 0;
    }
    fixedWalls
    {
        type            calculated;
        value           uniform 0;
    }
    frontAndBack
    {
        type            empty;
        value           nonuniform List<scalar> 0();
    }
}


// ************************************************************************* //
