/*--------------------------------*- C++ -*----------------------------------*\
  =========                 |
  \\      /  F ield         | OpenFOAM: The Open Source CFD Toolbox
   \\    /   O peration     | Website:  https://openfoam.org
    \\  /    A nd           | Version:  9
     \\/     M anipulation  |
\*---------------------------------------------------------------------------*/
FoamFile
{
    format      ascii;
    class       volVectorField;
    location    "9";
    object      U_0;
}
// * * * * * * * * * * * * * * * * * * * * * * * * * * * * * * * * * * * * * //

dimensions      [0 1 -1 0 0 0 0];

internalField   nonuniform List<vector> 
400
(
(0.00027778213 -0.00027454405 0)
(0.00010047403 8.2191179e-05 0)
(-0.0013217369 0.00047397016 0)
(-0.0035853814 0.00072730648 0)
(-0.0063469962 0.00085621765 0)
(-0.0093105999 0.00089468775 0)
(-0.012223269 0.00086221224 0)
(-0.014852694 0.00076019268 0)
(-0.016961389 0.00058013667 0)
(-0.018304593 0.0003164215 0)
(-0.018657283 -2.2482969e-05 0)
(-0.017863192 -0.00040954464 0)
(-0.015896978 -0.00078556303 0)
(-0.012918353 -0.0010758844 0)
(-0.0092919675 -0.0012044442 0)
(-0.0055534334 -0.0011168607 0)
(-0.0023116021 -0.00080714653 0)
(-0.0001083842 -0.00033962985 0)
(0.0007396837 0.00014471639 0)
(0.000402217 0.00038233026 0)
(-8.7444167e-05 -0.00011289044 0)
(-0.0018484259 0.001769977 0)
(-0.0062203323 0.0035781281 0)
(-0.012271502 0.0047928967 0)
(-0.01930771 0.0054172322 0)
(-0.026697401 0.0055365407 0)
(-0.033839364 0.0052074168 0)
(-0.040157233 0.0044399142 0)
(-0.045083006 0.0032246486 0)
(-0.048074861 0.0015785697 0)
(-0.04868299 -0.0004115885 0)
(-0.046631207 -0.0025599996 0)
(-0.041928151 -0.0045787288 0)
(-0.034962008 -0.0061180923 0)
(-0.026512001 -0.0068384138 0)
(-0.017682846 -0.0065119379 0)
(-0.0097251556 -0.0051312805 0)
(-0.0037501941 -0.0029867808 0)
(-0.00040834578 -0.00068176121 0)
(0.00028038316 0.00076311383 0)
(-0.00057956144 0.0014235803 0)
(-0.0041749657 0.0062897255 0)
(-0.011565836 0.010480776 0)
(-0.021115309 0.01327563 0)
(-0.031835764 0.014667539 0)
(-0.042880851 0.014787468 0)
(-0.0534201 0.013729639 0)
(-0.062646988 0.011523203 0)
(-0.069777385 0.0081862601 0)
(-0.074082477 0.0038152632 0)
(-0.074966749 -0.0013304287 0)
(-0.072076678 -0.006776227 0)
(-0.065426877 -0.011846249 0)
(-0.055505122 -0.015738671 0)
(-0.04330581 -0.01768308 0)
(-0.030273815 -0.017161048 0)
(-0.018103103 -0.014142086 0)
(-0.0083703261 -0.0092474741 0)
(-0.0021515408 -0.0037668292 0)
(-7.9338737e-06 0.00028783233 0)
(-0.0010338918 0.0042408383 0)
(-0.0063984078 0.013354063 0)
(-0.016699717 0.020530464 0)
(-0.029510777 0.025152681 0)
(-0.043548271 0.027324226 0)
(-0.057808471 0.02726461 0)
(-0.071315764 0.025118105 0)
(-0.083123583 0.020940252 0)
(-0.092312032 0.014790948 0)
(-0.098020795 0.0068711854 0)
(-0.099530649 -0.0023535472 0)
(-0.096373937 -0.012087143 0)
(-0.08847133 -0.021201361 0)
(-0.076269069 -0.028356891 0)
(-0.060821523 -0.032235522 0)
(-0.043796484 -0.031890179 0)
(-0.027303017 -0.02714883 0)
(-0.013470719 -0.018921362 0)
(-0.0040024311 -0.0092349845 0)
(-0.00026957346 -0.0011347062 0)
(-0.0014276014 0.0082299851 0)
(-0.0083916783 0.022797446 0)
(-0.02135847 0.033490555 0)
(-0.037137325 0.040103459 0)
(-0.054169637 0.043015257 0)
(-0.071337714 0.042609457 0)
(-0.087585108 0.039107007 0)
(-0.101895 0.032594543 0)
(-0.11326972 0.023168349 0)
(-0.1207472 0.011119937 0)
(-0.12347209 -0.0028994427 0)
(-0.12079195 -0.017782044 0)
(-0.11240832 -0.031939097 0)
(-0.098567408 -0.043430928 0)
(-0.080222429 -0.050248495 0)
(-0.059159076 -0.050796289 0)
(-0.037915936 -0.044519237 0)
(-0.019341225 -0.032456869 0)
(-0.0060421126 -0.017382335 0)
(-0.00050868343 -0.0035318358 0)
(-0.0017546862 0.013245105 0)
(-0.010085991 0.034369359 0)
(-0.025362232 0.04908193 0)
(-0.043729353 0.057850372 0)
(-0.063397947 0.061496409 0)
(-0.083180316 0.060657256 0)
(-0.10199552 0.055666282 0)
(-0.11881628 0.046641778 0)
(-0.1326168 0.033690324 0)
(-0.14235681 0.017143066 0)
(-0.14702694 -0.0022298717 0)
(-0.14572247 -0.023055974 0)
(-0.13780354 -0.04334047 0)
(-0.12314264 -0.060497573 0)
(-0.1023933 -0.0716564 0)
(-0.077294667 -0.074259739 0)
(-0.050773644 -0.066971337 0)
(-0.026560909 -0.050641507 0)
(-0.0085346032 -0.028747941 0)
(-0.00078036227 -0.0070311254 0)
(-0.0020059995 0.019100795 0)
(-0.011415088 0.047712866 0)
(-0.028540082 0.066889799 0)
(-0.049005606 0.077985044 0)
(-0.070849874 0.082414168 0)
(-0.0928603 0.081159647 0)
(-0.11398478 0.074707634 0)
(-0.13324374 0.063206136 0)
(-0.14963877 0.046732181 0)
(-0.16208996 0.025581544 0)
(-0.16942467 0.00053647631 0)
(-0.17046946 -0.026903508 0)
(-0.1641667 -0.054412944 0)
(-0.14982776 -0.078771818 0)
(-0.12756645 -0.096098601 0)
(-0.098802743 -0.10249954 0)
(-0.066658798 -0.095277585 0)
(-0.03580457 -0.07451345 0)
(-0.01182365 -0.044179753 0)
(-0.0011591317 -0.011934784 0)
(-0.0021682849 0.025574154 0)
(-0.012309531 0.062384652 0)
(-0.030720422 0.086383462 0)
(-0.052663276 0.099965976 0)
(-0.076064211 0.10526944 0)
(-0.09972764 0.10371014 0)
(-0.12268066 0.095972096 0)
(-0.14405074 0.082234274 0)
(-0.1629316 0.062500761 0)
(-0.1782718 0.03694343 0)
(-0.18881319 0.0062203952 0)
(-0.19312677 -0.02822918 0)
(-0.18970163 -0.063891643 0)
(-0.17718795 -0.097027397 0)
(-0.154899 -0.12268964 0)
(-0.1235411 -0.13529231 0)
(-0.086003998 -0.13003757 0)
(-0.047694987 -0.10527383 0)
(-0.016295368 -0.064859967 0)
(-0.0017362078 -0.0187506 0)
(-0.002230566 0.032405249 0)
(-0.012716221 0.077864281 0)
(-0.031764541 0.10691782 0)
(-0.054427094 0.12309587 0)
(-0.078569712 0.12936087 0)
(-0.10304869 0.12764914 0)
(-0.12701675 0.11889616 0)
(-0.14977001 0.10332515 0)
(-0.17057475 0.080834391 0)
(-0.18851133 0.051385592 0)
(-0.20235886 0.015369718 0)
(-0.21054502 -0.026014036 0)
(-0.21118876 -0.070317133 0)
(-0.20226814 -0.11353756 0)
(-0.18208818 -0.14978959 0)
(-0.15018349 -0.17159503 0)
(-0.10852691 -0.17127222 0)
(-0.062629492 -0.14402717 0)
(-0.022367132 -0.09224964 0)
(-0.0026345606 -0.028218169 0)
(-0.0021954737 0.039314481 0)
(-0.012636866 0.093583003 0)
(-0.031635442 0.12774856 0)
(-0.054146082 0.14650965 0)
(-0.078012351 0.15374112 0)
(-0.10217206 0.15198772 0)
(-0.12594715 0.14250301 0)
(-0.14886453 0.12558911 0)
(-0.17045324 0.10103363 0)
(-0.19005449 0.06853463 0)
(-0.20665044 0.028100488 0)
(-0.21871647 -0.019510325 0)
(-0.22423023 -0.072218122 0)
(-0.2206466 -0.12615833 0)
(-0.20519534 -0.17489019 0)
(-0.17584601 -0.20917662 0)
(-0.13280416 -0.21787564 0)
(-0.080519698 -0.19131008 0)
(-0.030470789 -0.12792463 0)
(-0.0040385068 -0.041344429 0)
(-0.0020949522 0.046047719 0)
(-0.012180991 0.1089914 0)
(-0.030491426 0.14808298 0)
(-0.051921977 0.16919769 0)
(-0.074321867 0.1772155 0)
(-0.096747391 0.17538641 0)
(-0.11873819 0.16536225 0)
(-0.14011326 0.14758241 0)
(-0.1607505 0.12175665 0)
(-0.18038109 0.087319988 0)
(-0.19838189 0.043851767 0)
(-0.21352004 -0.0084901978 0)
(-0.2239677 -0.068455197 0)
(-0.22697584 -0.13264779 0)
(-0.21889188 -0.19476443 0)
(-0.19597754 -0.24443951 0)
(-0.15588257 -0.26705221 0)
(-0.10040913 -0.24639419 0)
(-0.040981537 -0.17323167 0)
(-0.0062330058 -0.059447085 0)
(-0.0020137607 0.052458901 0)
(-0.011635199 0.12367406 0)
(-0.028794705 0.16716909 0)
(-0.048244349 0.19006518 0)
(-0.067876366 0.19838741 0)
(-0.086938437 0.19620162 0)
(-0.10525863 0.18564162 0)
(-0.12301042 0.16735421 0)
(-0.14048574 0.14103298 0)
(-0.15788949 0.10589544 0)
(-0.17515218 0.061093006 0)
(-0.1917372 0.0061033641 0)
(-0.20621797 -0.058773254 0)
(-0.21601171 -0.13124205 0)
(-0.21724455 -0.20598826 0)
(-0.20472673 -0.27264535 0)
(-0.1731415 -0.31398711 0)
(-0.12002985 -0.30645899 0)
(-0.054019839 -0.22866721 0)
(-0.009635042 -0.084178689 0)
(-0.002132185 0.058646914 0)
(-0.011561873 0.13751243 0)
(-0.0274276 0.18440817 0)
(-0.044097298 0.20800761 0)
(-0.059601004 0.2157326 0)
(-0.073535523 0.21258689 0)
(-0.086137421 0.20124885 0)
(-0.098007733 0.18262655 0)
(-0.10989775 0.15646374 0)
(-0.12253673 0.12184039 0)
(-0.13648309 0.077550651 0)
(-0.15193312 0.022448488 0)
(-0.16829606 -0.044059726 0)
(-0.18378836 -0.12131287 0)
(-0.19490676 -0.20580821 0)
(-0.19583291 -0.28869224 0)
(-0.17861116 -0.35207573 0)
(-0.13547917 -0.36593919 0)
(-0.069034834 -0.29292445 0)
(-0.014760574 -0.11744713 0)
(-0.0028130346 0.065185221 0)
(-0.01295567 0.15088526 0)
(-0.027801399 0.19944347 0)
(-0.040973498 0.22194783 0)
(-0.050892454 0.22764827 0)
(-0.057814019 0.22259281 0)
(-0.062577583 0.20999933 0)
(-0.066299584 0.19103182 0)
(-0.070204042 0.16551474 0)
(-0.075516748 0.13247821 0)
(-0.08338556 0.090504583 0)
(-0.094749148 0.03799279 0)
(-0.11002065 -0.026528252 0)
(-0.12863233 -0.10394364 0)
(-0.1482756 -0.19314649 0)
(-0.16375811 -0.28836784 0)
(-0.16572396 -0.37390972 0)
(-0.14120488 -0.41648606 0)
(-0.084111965 -0.36169861 0)
(-0.021993962 -0.16101993 0)
(-0.0047729715 0.073536415 0)
(-0.017484587 0.16487314 0)
(-0.031872495 0.21212187 0)
(-0.040605256 0.23072744 0)
(-0.043109134 0.23237781 0)
(-0.040834185 0.22416475 0)
(-0.035495766 0.20969658 0)
(-0.028822333 0.19027558 0)
(-0.022491716 0.16575592 0)
(-0.018135089 0.13515985 0)
(-0.017365352 0.096988456 0)
(-0.0217414 0.049416228 0)
(-0.032624574 -0.0095723105 0)
(-0.050796956 -0.082049504 0)
(-0.075776901 -0.16929339 0)
(-0.10441303 -0.269678 0)
(-0.12808831 -0.37285163 0)
(-0.13022089 -0.44778765 0)
(-0.095076297 -0.42661985 0)
(-0.030940966 -0.21561968 0)
(-0.0093524479 0.086808326 0)
(-0.027705034 0.18130169 0)
(-0.041610485 0.22213082 0)
(-0.043681477 0.23269082 0)
(-0.035749814 0.22768439 0)
(-0.021253248 0.21493682 0)
(-0.0030793951 0.19803613 0)
(0.016373811 0.17812608 0)
(0.035046082 0.15496863 0)
(0.051049179 0.12754803 0)
(0.062491981 0.09437634 0)
(0.067420413 0.053630593 0)
(0.0637522 0.0031680467 0)
(0.049547266 -0.059627161 0)
(0.023320521 -0.13771968 0)
(-0.014818589 -0.2335903 0)
(-0.059626 -0.34463219 0)
(-0.094078165 -0.44898554 0)
(-0.094708018 -0.47499339 0)
(-0.039256113 -0.2800822 0)
(-0.018616313 0.11086912 0)
(-0.04626239 0.20151694 0)
(-0.055776586 0.22738703 0)
(-0.044886807 0.22428086 0)
(-0.02061422 0.20981694 0)
(0.010801564 0.19154814 0)
(0.045245559 0.17221256 0)
(0.079873548 0.15229845 0)
(0.11250916 0.13123979 0)
(0.14125618 0.10791742 0)
(0.16421701 0.080913253 0)
(0.179326 0.048577209 0)
(0.1840965 0.0089884775 0)
(0.17586998 -0.04027686 0)
(0.15164746 -0.10269503 0)
(0.10855952 -0.18351838 0)
(0.046489028 -0.28825127 0)
(-0.021963703 -0.41022604 0)
(-0.072498087 -0.49069999 0)
(-0.041201835 -0.35029079 0)
(-0.033353742 0.1556989 0)
(-0.068699354 0.22035923 0)
(-0.055502847 0.21704907 0)
(-0.016667759 0.19491755 0)
(0.033630232 0.17043856 0)
(0.087353453 0.1480213 0)
(0.14039197 0.12822207 0)
(0.19044078 0.11031825 0)
(0.23594152 0.093194671 0)
(0.27553131 0.075629842 0)
(0.30771181 0.056374462 0)
(0.33067561 0.034119184 0)
(0.34198484 0.0073818195 0)
(0.33882722 -0.025557587 0)
(0.31731783 -0.067435817 0)
(0.27262929 -0.12388134 0)
(0.19993941 -0.20570818 0)
(0.10177297 -0.32496428 0)
(-0.012576975 -0.45445807 0)
(-0.023805168 -0.40853964 0)
(-0.033055303 0.23915673 0)
(-0.042602972 0.21797552 0)
(0.042179895 0.16421957 0)
(0.12741734 0.12769085 0)
(0.2073006 0.10123103 0)
(0.27965597 0.081441796 0)
(0.34403917 0.066460976 0)
(0.40059003 0.054574635 0)
(0.44946594 0.044346 0)
(0.49051867 0.034663919 0)
(0.52311459 0.024642168 0)
(0.54605604 0.013520982 0)
(0.55743813 0.00055886253 0)
(0.55508768 -0.014977091 0)
(0.53507046 -0.034831608 0)
(0.49212977 -0.062393645 0)
(0.4177555 -0.10690242 0)
(0.30395566 -0.19316073 0)
(0.12305069 -0.3369097 0)
(0.052345667 -0.39437047 0)
(0.24302881 0.15260373 0)
(0.30537606 0.11858327 0)
(0.45490197 0.076124371 0)
(0.56005099 0.050828327 0)
(0.63217753 0.035092863 0)
(0.68636984 0.024769876 0)
(0.72913866 0.017920713 0)
(0.76340306 0.013229043 0)
(0.79083333 0.0097532523 0)
(0.8122991 0.0068645058 0)
(0.82799558 0.0041446254 0)
(0.83759861 0.0013127571 0)
(0.84031832 -0.0018133731 0)
(0.83482606 -0.0052940806 0)
(0.81880069 -0.0098005067 0)
(0.78942035 -0.016215297 0)
(0.73786263 -0.026930647 0)
(0.65318731 -0.05129006 0)
(0.45610578 -0.11375301 0)
(0.31789011 -0.17206597 0)
)
;

boundaryField
{
    movingWall
    {
        type            fixedValue;
        value           uniform (1 0 0);
    }
    fixedWalls
    {
        type            fixedValue;
        value           uniform (0 0 0);
    }
    frontAndBack
    {
        type            empty;
    }
}


// ************************************************************************* //
