/*--------------------------------*- C++ -*----------------------------------*\
  =========                 |
  \\      /  F ield         | OpenFOAM: The Open Source CFD Toolbox
   \\    /   O peration     | Website:  https://openfoam.org
    \\  /    A nd           | Version:  9
     \\/     M anipulation  |
\*---------------------------------------------------------------------------*/
FoamFile
{
    format      ascii;
    class       surfaceScalarField;
    location    "0.45";
    object      alphaPhi0.phase1;
}
// * * * * * * * * * * * * * * * * * * * * * * * * * * * * * * * * * * * * * //

dimensions      [0 3 -1 0 0 0 0];

internalField   nonuniform List<scalar> 
8032
(
-1.10846e-254
1.0314e-260
-1.18781e-248
1.07039e-254
-6.13953e-243
5.33351e-249
-2.1654e-237
1.69956e-243
-5.91869e-232
3.8986e-238
-1.35787e-226
6.78604e-233
-2.77461e-221
8.75116e-228
-5.30923e-216
6.06385e-223
-8.1931e-211
-1.77482e-211
-7.43043e-206
-8.37152e-206
-3.24357e-201
-1.21735e-200
-4.56998e-197
-7.13422e-196
-1.07326e-193
-1.26822e-191
-2.09479e-191
-3.96773e-188
-1.81157e-190
-1.09181e-185
4.77139e-193
-1.88558e-184
1.82212e-190
-1.88649e-184
2.10437e-191
-1.0937e-185
9.41345e-194
-3.47784e-188
2.21202e-197
-6.15928e-192
5.57723e-202
-1.08539e-196
7.60422e-207
-1.01602e-201
6.73709e-212
-5.46744e-207
4.13879e-217
-1.10966e-212
2.16913e-222
4.68821e-224
1.06968e-227
6.86874e-229
4.67316e-233
5.3551e-234
1.70486e-238
3.07825e-239
4.78942e-244
1.33813e-244
9.06699e-250
4.18853e-250
8.54192e-256
8.37632e-256
7.93629e-262
-3.57286e-248
6.93986e-254
-3.50857e-242
6.75437e-248
-1.705e-236
3.11076e-242
-5.61732e-231
9.2023e-237
-1.43493e-225
1.96744e-231
-3.08527e-220
3.19816e-226
-5.93623e-215
3.86233e-221
-1.07658e-209
2.51527e-216
-1.56329e-204
-3.67249e-205
-1.30084e-199
-1.60037e-199
-5.07021e-195
-2.10243e-194
-6.27269e-191
-1.08484e-189
-1.34923e-187
-1.6747e-185
-2.35418e-185
-4.77995e-182
-1.9903e-184
-1.18015e-179
4.08795e-187
-2.00631e-178
1.99933e-184
-2.00706e-178
2.36264e-185
-1.18181e-179
1.18383e-187
-4.19327e-182
3.04764e-191
-8.15009e-186
7.71209e-196
-1.43914e-190
1.08451e-200
-1.38025e-195
1.01801e-205
-7.94535e-201
6.65204e-211
-1.7458e-206
3.7104e-216
1.55979e-217
1.9563e-221
2.44388e-222
9.16035e-227
2.04222e-227
3.58655e-232
1.25987e-232
1.08184e-237
5.88074e-238
2.19868e-243
1.97644e-243
2.22191e-249
4.24154e-249
4.30679e-255
-7.08529e-242
2.17809e-247
-6.30885e-236
1.92581e-241
-2.79926e-230
8.07822e-236
-8.41856e-225
2.17327e-230
-1.96745e-219
4.23426e-225
-3.88799e-214
6.2923e-220
-6.92084e-209
6.97962e-215
-1.17033e-203
4.19664e-210
-1.57365e-198
-3.98217e-199
-1.18345e-193
-1.57522e-193
-4.06191e-189
-1.83885e-188
-4.36441e-185
-8.23114e-184
-8.56537e-182
-1.08956e-179
-1.34121e-179
-2.81837e-176
-1.11691e-178
-6.2852e-174
8.2222e-182
-1.05563e-172
1.11889e-178
-1.05593e-172
1.34377e-179
-6.29233e-174
7.51446e-182
-2.47474e-176
2.12326e-185
-5.29573e-180
5.38414e-190
-9.36858e-185
7.75748e-195
-9.06667e-190
7.78938e-200
-5.63017e-195
5.5088e-205
-1.36454e-200
3.33703e-210
2.01495e-211
1.92173e-215
3.44915e-216
9.86453e-221
3.15981e-221
4.24356e-226
2.1418e-226
1.408e-231
1.0997e-231
3.1489e-237
4.06707e-237
3.50151e-243
9.60344e-243
1.07238e-248
-1.14454e-235
4.99373e-241
-9.05541e-230
3.92183e-235
-3.57799e-224
1.46105e-229
-9.6101e-219
3.4958e-224
-2.01491e-213
6.07669e-219
-3.59557e-208
8.09619e-214
-5.82468e-203
8.10461e-209
-9.03162e-198
4.42665e-204
-1.10523e-192
-2.97485e-193
-7.3892e-188
-1.04926e-187
-2.20056e-183
-1.07e-182
-2.02769e-179
-4.09671e-178
-3.60688e-176
-4.59439e-174
-5.10237e-174
-1.06839e-170
-4.20004e-173
-2.17219e-168
-1.32602e-176
-3.60267e-167
4.19824e-173
-3.60345e-167
5.10522e-174
-2.17419e-168
3.16498e-176
-9.39171e-171
9.84683e-180
-2.22109e-174
2.50168e-184
-3.93986e-179
3.63711e-189
-3.72565e-184
3.93946e-194
-2.50536e-189
3.07203e-199
-6.82439e-195
2.06482e-204
1.56719e-205
1.32725e-209
2.99513e-210
7.64109e-215
3.07753e-215
3.69897e-220
2.34746e-220
1.3839e-225
1.35909e-225
3.49332e-231
5.67324e-231
4.38573e-237
1.51237e-236
1.90635e-242
-1.6233e-229
9.50161e-235
-1.1185e-223
6.48657e-229
-3.86393e-218
2.1046e-223
-9.11848e-213
4.39947e-218
-1.69085e-207
6.71464e-213
-2.68916e-202
7.90788e-208
-3.9112e-197
7.05158e-203
-5.47173e-192
3.45304e-198
-5.98407e-187
-1.6899e-187
-3.49642e-182
-5.21708e-182
-8.90802e-178
-4.57306e-177
-6.95505e-174
-1.48032e-172
-1.11233e-170
-1.39361e-168
-1.43477e-168
-2.88765e-165
-1.16669e-167
-5.41521e-163
-1.19228e-170
-8.8304e-162
1.16446e-167
-8.83185e-162
1.43426e-168
-5.41931e-163
9.7671e-171
-2.54205e-165
3.35844e-174
-6.67194e-169
8.55554e-179
-1.19213e-173
1.2154e-183
-1.03449e-178
1.42553e-188
-7.46935e-184
1.24898e-193
-2.32812e-189
9.50797e-199
8.39911e-200
6.95244e-204
1.82639e-204
4.57801e-209
2.14652e-209
2.54571e-214
1.88081e-214
1.09727e-219
1.25452e-219
3.19644e-225
6.04343e-225
4.63479e-231
1.86066e-230
2.70903e-236
-2.04708e-223
1.5542e-228
-1.21169e-217
9.0798e-223
-3.61602e-212
2.5305e-217
-7.42285e-207
4.56756e-212
-1.20663e-201
6.06108e-207
-1.69439e-196
6.25515e-202
-2.18565e-191
4.9229e-197
-2.71263e-186
2.13598e-192
-2.60106e-181
-7.60688e-182
-1.30681e-176
-2.01851e-176
-2.81538e-172
-1.50109e-171
-1.84542e-168
-4.0762e-167
-2.63004e-165
-3.20525e-163
-3.12934e-163
-5.85929e-160
-2.50241e-162
-1.02588e-157
-3.53925e-165
-1.60004e-156
2.49557e-162
-1.60024e-156
3.12661e-163
-1.02653e-157
2.31225e-165
-5.16802e-160
8.82399e-169
-1.51371e-163
2.26432e-173
-2.77268e-168
2.9518e-178
-1.98268e-173
3.71718e-183
-1.47694e-178
3.72571e-188
-5.31318e-184
3.28156e-193
3.21172e-194
2.77727e-198
8.08451e-199
2.12737e-203
1.10533e-203
1.3825e-208
1.13188e-208
6.98844e-214
8.85419e-214
2.39293e-219
5.0136e-219
4.08321e-225
1.81654e-224
3.11382e-230
-2.28251e-217
2.19493e-222
-1.15169e-211
1.08677e-216
-2.95194e-206
2.58203e-211
-5.24642e-201
4.00202e-206
-7.43588e-196
4.59672e-201
-9.1408e-191
4.13518e-196
-1.03183e-185
2.84827e-191
-1.11557e-180
1.0809e-186
-9.20434e-176
-2.75395e-176
-3.92424e-171
-6.18228e-171
-7.09304e-167
-3.86927e-166
-3.88369e-163
-8.78102e-162
-4.87964e-160
-5.76118e-158
-2.12295e-158
-3.68367e-155
-2.19395e-157
-5.75956e-156
-3.31925e-160
-8.60625e-155
2.18748e-157
-8.60712e-155
2.30875e-158
-5.76282e-156
4.29997e-160
-3.55191e-155
1.83192e-163
-2.67892e-158
4.81909e-168
-5.28153e-163
5.17681e-173
-2.62528e-168
6.72555e-178
-1.85456e-173
7.77868e-183
-7.62792e-179
8.09883e-188
8.49822e-189
8.08607e-193
2.52386e-193
7.33397e-198
4.08593e-198
5.66485e-203
4.97311e-203
3.41409e-208
4.6382e-208
1.39669e-213
3.13782e-213
2.85054e-219
1.35982e-218
2.78883e-224
-2.22805e-211
2.66257e-216
-9.56884e-206
1.11344e-210
-2.10466e-200
2.25151e-205
-3.23194e-195
2.99434e-200
-3.97161e-190
2.97122e-195
-4.22846e-185
2.31717e-190
-4.11243e-180
1.38214e-185
-3.80191e-175
4.51812e-181
-2.65533e-170
-8.02709e-171
-9.52902e-166
-1.50681e-165
-1.43955e-161
-7.92658e-161
-6.43418e-158
-1.47257e-156
-2.4395e-157
-3.74764e-156
-3.95224e-154
-4.83966e-153
-4.15554e-152
-9.60194e-151
-6.39946e-155
-1.42334e-149
4.14335e-152
-1.42346e-149
3.91912e-154
-9.60687e-151
6.26698e-157
-4.23345e-153
3.05199e-158
-3.45068e-155
8.64977e-163
-8.8542e-158
6.45894e-168
-2.7679e-163
7.95741e-173
-1.42451e-168
1.05212e-177
-6.39923e-174
1.31707e-182
1.44913e-183
1.58371e-187
5.18341e-188
1.73362e-192
1.0128e-192
1.61975e-197
1.49109e-197
1.18293e-202
1.6852e-202
5.87034e-208
1.38296e-207
1.45378e-213
7.27234e-213
1.80931e-218
-1.89301e-205
2.76299e-210
-6.93447e-200
9.77539e-205
-1.30946e-194
1.68614e-199
-1.73112e-189
1.92515e-194
-1.82781e-184
1.64449e-189
-1.66207e-179
1.10187e-184
-1.36955e-174
5.61316e-180
-1.06419e-169
1.55465e-175
-6.21625e-165
-1.86576e-165
-1.87514e-160
-2.91548e-160
-1.92161e-156
-1.07855e-155
-5.78923e-156
-7.64667e-155
-4.46409e-152
-5.20588e-151
-6.79331e-149
-7.26853e-148
-6.58283e-147
-1.32878e-145
-9.35877e-150
-1.89337e-144
6.56497e-147
-1.89351e-144
6.73512e-149
-1.32942e-145
1.48538e-151
-6.35789e-148
1.40822e-153
-6.77343e-150
1.39404e-157
-4.17213e-153
6.54266e-163
-4.54457e-158
5.87234e-168
-1.34853e-163
8.47961e-173
-4.88056e-169
1.28121e-177
1.45598e-178
1.88784e-182
6.38162e-183
2.53676e-187
1.53064e-187
2.9124e-192
2.76905e-192
2.61483e-197
3.84733e-197
1.59515e-202
3.88127e-202
4.85349e-208
2.50757e-207
7.65782e-213
-1.39626e-199
2.4525e-204
-4.37125e-194
7.37291e-199
-7.06628e-189
1.08686e-193
-7.97245e-184
1.06232e-188
-7.13472e-179
7.7443e-184
-5.45173e-174
4.39802e-179
-3.74351e-169
1.88269e-174
-2.40738e-164
4.34604e-170
-1.17052e-159
-3.34676e-160
-1.30334e-155
-2.14545e-155
-1.29584e-154
-6.56778e-154
-1.09519e-150
-1.24455e-149
-7.09833e-147
-7.19198e-146
-9.50991e-144
-8.84825e-143
-8.4922e-142
-1.49064e-140
-1.07001e-144
-2.04177e-139
8.47184e-142
-2.0419e-139
9.43818e-144
-1.49133e-140
2.32033e-146
-7.74866e-143
2.34005e-148
-9.85097e-145
1.97812e-152
-6.90298e-148
1.04591e-157
-6.6593e-153
5.41108e-163
-2.19701e-158
6.29516e-168
-6.14714e-164
1.01119e-172
1.17476e-173
1.69028e-177
5.84077e-178
2.60684e-182
1.60784e-182
3.48454e-187
3.38655e-187
3.69613e-192
5.55898e-192
2.69837e-197
6.71122e-197
9.92425e-203
5.24117e-202
1.9486e-207
-8.89191e-194
1.864e-198
-2.36814e-188
4.76659e-193
-3.24188e-183
5.97781e-188
-3.07275e-178
4.94806e-183
-2.28855e-173
3.0304e-178
-1.44234e-168
1.4323e-173
-8.10693e-164
5.05738e-169
-4.24085e-159
9.55939e-165
-2.94317e-155
-9.19632e-156
-1.55999e-153
-2.44508e-153
-2.10897e-149
-1.04327e-148
-1.69258e-145
-1.64862e-144
-9.22475e-142
-8.09182e-141
-1.08805e-138
-8.77624e-138
-8.95323e-137
-1.36267e-135
-9.75739e-140
-1.79427e-134
8.93476e-137
-1.79437e-134
1.09831e-138
-1.36328e-135
2.96884e-141
-7.81811e-138
3.18413e-143
-1.17052e-139
3.17872e-147
-9.31659e-143
1.54122e-152
-1.10087e-147
8.65602e-158
-3.26088e-153
7.78681e-163
-9.92056e-159
1.2673e-167
1.49475e-168
2.35197e-172
8.24983e-173
3.97694e-177
2.48979e-177
5.80306e-182
5.72464e-182
6.75612e-187
1.03138e-186
5.48781e-192
1.3854e-191
2.2865e-197
1.22567e-196
5.2583e-202
-4.79419e-188
1.20428e-192
-1.0707e-182
2.59642e-187
-1.21927e-177
2.73059e-182
-9.52955e-173
1.88018e-177
-5.80754e-168
9.49556e-173
-2.97805e-163
3.67244e-168
-1.3576e-158
1.05536e-163
-2.56566e-155
1.83647e-159
-9.78316e-153
-2.97585e-153
-2.47116e-148
-3.82798e-148
-2.81892e-144
-1.35298e-143
-2.14123e-140
-1.78338e-139
-9.81961e-137
-7.44033e-136
-1.01971e-133
-7.11753e-133
-7.73159e-132
-1.01869e-130
-7.19363e-135
-1.28949e-129
7.71807e-132
-1.28956e-129
1.04552e-133
-1.01913e-130
3.11596e-136
-6.44128e-133
3.55495e-138
-1.13885e-134
4.18259e-142
-1.02866e-137
2.53414e-147
-1.48765e-142
1.02342e-152
-5.40421e-148
1.24066e-157
-1.17383e-153
2.14537e-162
2.56063e-163
4.6578e-167
1.65057e-167
9.09618e-172
5.75295e-172
1.51274e-176
1.50752e-176
1.98506e-181
3.06125e-181
1.80675e-186
4.60758e-186
8.44657e-192
4.57385e-191
2.22003e-196
-2.12513e-182
6.45084e-187
-3.9322e-177
1.1589e-181
-3.69002e-172
1.00981e-176
-2.36895e-167
5.7301e-172
-1.18619e-162
2.37711e-167
-5.0187e-158
7.55986e-163
-1.14449e-155
1.87896e-158
-3.78965e-152
3.28021e-154
-1.5273e-147
-4.61361e-148
-3.21478e-143
-4.9038e-143
-3.09998e-139
-1.43547e-138
-2.22034e-135
-1.57893e-134
-8.57429e-132
-5.60424e-131
-7.83948e-129
-4.73121e-128
-5.47672e-127
-6.2429e-126
-4.32768e-130
-7.59733e-125
5.46865e-127
-7.59773e-125
8.16942e-129
-6.24551e-126
2.68515e-131
-4.35258e-128
3.25888e-133
-9.08563e-130
4.51198e-137
-9.30652e-133
3.41792e-142
-1.6463e-137
1.68763e-147
-7.34723e-143
6.23235e-153
-1.93757e-148
3.42777e-157
7.21822e-158
9.00009e-162
3.22825e-162
2.10767e-166
1.34231e-166
4.18166e-171
4.19616e-171
6.50499e-176
1.01011e-175
6.97318e-181
1.7906e-180
3.82042e-186
2.08307e-185
1.18283e-190
-7.76927e-177
2.84499e-181
-1.19557e-171
4.25686e-176
-9.33443e-167
3.08486e-171
-5.00067e-162
1.45643e-166
-2.09454e-157
5.05764e-162
-4.66465e-156
1.36258e-157
-1.33137e-151
3.89346e-153
-5.87565e-147
6.15174e-149
-1.95854e-142
-5.86131e-143
-3.43812e-138
-5.14606e-138
-2.80848e-134
-1.24768e-133
-1.88883e-130
-1.14592e-129
-6.14711e-127
-3.4637e-126
-4.94875e-124
-2.58216e-123
-3.18529e-122
-3.14183e-121
-2.13772e-125
-3.67603e-120
3.18133e-122
-3.67621e-120
5.2437e-124
-3.1431e-121
1.90099e-126
-2.41599e-123
2.45419e-128
-5.94907e-125
3.99354e-132
-6.90634e-128
3.78405e-137
-1.49375e-132
2.28855e-142
-8.20166e-138
1.02412e-147
-2.62857e-143
1.79615e-155
1.43789e-152
1.42532e-156
5.23634e-157
4.11515e-161
2.68892e-161
9.83948e-166
9.92055e-166
1.83741e-170
2.86667e-170
2.35437e-175
6.07416e-175
1.53579e-180
8.4133e-180
5.67416e-185
-2.43469e-171
1.06529e-175
-3.14144e-166
1.33828e-170
-2.05439e-161
8.13196e-166
-9.09595e-157
3.25844e-161
-1.25547e-155
9.35887e-157
-5.30514e-151
3.00533e-152
-2.05826e-146
7.26173e-148
-7.48765e-142
9.46217e-144
-2.06393e-137
-6.10488e-138
-3.02524e-133
-4.42711e-133
-2.09826e-129
-8.89273e-129
-1.3189e-125
-6.82496e-125
-3.62055e-122
-1.75866e-121
-2.56669e-119
-1.15853e-118
-1.52204e-117
-1.30013e-116
-8.70471e-121
-1.46262e-115
1.52044e-117
-1.46269e-115
2.76629e-119
-1.30064e-116
1.10609e-121
-1.10285e-118
1.51876e-123
-3.19894e-120
2.90158e-127
-4.20672e-123
3.44027e-132
-1.11207e-127
2.5527e-137
-7.52176e-133
1.38496e-142
-2.93187e-138
2.94787e-150
2.36523e-147
7.61921e-155
1.04043e-151
6.09298e-156
4.30957e-156
1.92865e-160
2.1234e-160
4.35386e-165
6.81488e-165
6.70231e-170
1.73476e-169
5.21677e-175
2.86705e-174
2.29273e-179
-6.59253e-166
3.45402e-170
-7.08146e-161
3.63177e-165
-3.65117e-156
1.93332e-160
-5.41847e-155
6.05861e-156
-2.29033e-150
2.0975e-151
-8.18329e-146
5.58235e-147
-2.61693e-141
1.11132e-142
-7.84342e-137
1.1937e-138
-1.78803e-132
-5.21444e-133
-2.19162e-128
-3.12385e-128
-1.29382e-124
-5.20097e-124
-7.56176e-121
-3.33847e-120
-1.75258e-117
-7.34233e-117
-1.0942e-114
-4.27729e-114
-5.97763e-113
-4.42826e-112
-2.92887e-116
-4.79024e-111
5.97227e-113
-4.79043e-111
1.19958e-114
-4.42995e-112
5.29071e-117
-4.14291e-114
7.725e-119
-1.41315e-115
1.73114e-122
-2.10405e-118
2.56904e-127
-6.79648e-123
2.34225e-132
-5.6694e-128
1.54157e-137
-2.68916e-133
4.0268e-145
3.20548e-142
1.26271e-149
1.71067e-146
3.52569e-154
8.59257e-151
2.12755e-155
3.22882e-155
8.45513e-160
1.71473e-159
1.58987e-164
4.12435e-164
1.4991e-169
8.25719e-169
7.91989e-174
-1.49119e-160
9.47406e-165
-1.11791e-155
9.5097e-160
-2.26094e-154
3.48238e-155
-1.01084e-149
1.35965e-150
-3.52465e-145
3.88188e-146
-1.03831e-140
8.5087e-142
-2.73621e-136
1.39515e-137
-6.75441e-132
1.23508e-133
-1.27386e-127
-3.65304e-128
-1.30799e-123
-1.80858e-123
-7.14685e-120
-2.49728e-119
-3.56039e-116
-1.34206e-115
-6.97411e-113
-2.52238e-112
-3.83521e-110
-1.30049e-109
-1.93008e-108
-1.24245e-107
-8.15303e-112
-1.29246e-106
1.9286e-108
-1.29251e-106
4.27558e-110
-1.24291e-107
2.08073e-112
-1.28132e-109
3.22984e-114
-5.12979e-111
8.48257e-118
-8.6437e-114
1.57595e-122
-3.41079e-118
1.76802e-127
-3.51277e-123
1.41207e-132
-2.0285e-128
4.54279e-140
3.57858e-137
1.72873e-144
2.31716e-141
5.85437e-149
1.41315e-145
1.67885e-153
6.4467e-150
3.87113e-155
2.25786e-154
2.92494e-159
1.01134e-158
3.42619e-164
1.89023e-163
2.23001e-168
-1.98885e-155
2.7098e-159
-7.77378e-154
1.57185e-154
-4.20281e-149
7.79618e-150
-1.55091e-144
2.50717e-145
-4.46116e-140
5.8941e-141
-1.08353e-135
1.0638e-136
-2.35279e-131
1.43639e-132
-4.78259e-127
1.04796e-128
-7.46595e-123
-2.09919e-123
-6.43446e-119
-8.5936e-119
-3.34843e-115
-9.84818e-115
-1.37681e-111
-4.43609e-111
-2.28175e-108
-7.13481e-108
-1.1054e-105
-3.25853e-105
-5.1244e-104
-2.8737e-103
-1.87854e-107
-2.87497e-102
5.12098e-104
-2.87506e-102
1.25231e-105
-2.87473e-103
6.72881e-108
-3.26368e-105
1.1101e-109
-1.53036e-106
3.41403e-113
-2.91698e-109
7.94188e-118
-1.40576e-113
1.0979e-122
-1.7894e-118
1.0643e-127
-1.25845e-123
4.23281e-135
3.29074e-132
1.95494e-139
2.58514e-136
8.02966e-144
1.91455e-140
2.7913e-148
1.06072e-144
7.56371e-153
4.51172e-149
3.00639e-155
1.40285e-153
5.9742e-159
3.87379e-158
4.87355e-163
-1.62224e-153
4.12386e-154
-1.43773e-148
3.50638e-149
-6.4211e-144
1.43199e-144
-1.95637e-139
3.79158e-140
-4.6435e-135
7.33886e-136
-9.29987e-131
1.09056e-131
-1.66397e-126
1.2125e-127
-2.78499e-122
7.29093e-124
-3.60098e-118
-9.89497e-119
-2.61042e-114
-3.35191e-114
-1.2866e-110
-3.19079e-110
-4.37276e-107
-1.20625e-106
-6.13837e-104
-1.66263e-103
-2.62024e-101
-6.7328e-101
-1.11886e-99
-5.48297e-99
-3.58235e-103
-5.27603e-98
1.11821e-99
-5.27617e-98
3.01348e-101
-5.48486e-99
1.78937e-103
-6.84818e-101
3.1365e-105
-3.75232e-102
1.12868e-108
-8.08702e-105
3.28777e-113
-4.75854e-109
5.60853e-118
-7.49423e-114
6.59995e-123
-6.42082e-119
3.25827e-130
2.49251e-127
1.82634e-134
2.37518e-131
9.09705e-139
2.1363e-135
3.8325e-143
1.43756e-139
1.25782e-147
7.42667e-144
2.8162e-152
2.80473e-148
1.89072e-155
6.86727e-153
9.64683e-158
-2.97915e-148
9.16016e-149
-2.18355e-143
6.41255e-144
-8.06082e-139
2.15614e-139
-2.02875e-134
4.70026e-135
-3.97474e-130
7.49018e-131
-6.56563e-126
9.16386e-127
-9.68083e-122
8.38936e-123
-1.33407e-117
4.15854e-119
-1.42984e-113
-3.82601e-114
-8.73774e-110
-1.07343e-109
-4.05389e-106
-8.49643e-106
-1.14058e-102
-2.69948e-102
-1.35786e-99
-3.1937e-99
-5.1083e-97
-1.1479e-96
-2.00912e-95
-8.63559e-95
-5.6519e-99
-7.99341e-94
2.00809e-95
-7.9936e-94
5.95559e-97
-8.63846e-95
3.91302e-99
-1.18405e-96
7.28498e-101
-7.56168e-98
3.06503e-104
-1.8419e-100
1.11801e-108
-1.32295e-104
2.35682e-113
-2.58046e-109
3.36689e-118
-2.69405e-114
2.07285e-125
1.5551e-122
1.40997e-129
1.79705e-126
8.51495e-134
1.96296e-130
4.3459e-138
1.6044e-134
1.72668e-142
1.00676e-138
4.6771e-147
4.61806e-143
6.381e-152
1.37338e-147
1.96175e-152
-4.48734e-143
1.66705e-143
-2.72243e-138
9.60821e-139
-8.3136e-134
2.65991e-134
-1.72945e-129
4.77406e-130
-2.79817e-125
6.26371e-126
-3.81342e-121
6.3095e-122
-4.63437e-117
4.75648e-118
-5.25838e-113
1.94416e-114
-4.67574e-109
-1.21351e-109
-2.41405e-105
-2.82292e-105
-1.04729e-101
-1.86e-101
-2.44316e-98
-4.97429e-98
-2.46986e-95
-5.05965e-95
-8.1911e-93
-1.61592e-92
-2.96717e-91
-1.12347e-90
-7.37272e-95
-1.00047e-89
2.96582e-91
-1.0005e-89
9.66376e-93
-1.12383e-90
7.03663e-95
-1.68742e-92
1.3909e-96
-1.25238e-93
6.83677e-100
-3.44631e-96
3.12258e-104
-3.02058e-100
8.14636e-109
-7.30441e-105
1.41277e-113
-9.29464e-110
1.09041e-120
7.99268e-118
8.99926e-125
1.11961e-121
6.58716e-129
1.48519e-125
4.07112e-133
1.47437e-129
1.95693e-137
1.12369e-133
6.40807e-142
6.2605e-138
1.05619e-146
2.26134e-142
3.92331e-147
-5.54145e-138
2.48404e-138
-2.78591e-133
1.17883e-133
-7.04389e-129
2.68712e-129
-1.21205e-124
3.97117e-125
-1.62035e-120
4.2901e-121
-1.82258e-116
3.5583e-117
-1.82599e-112
2.20911e-113
-1.70601e-108
7.44846e-110
-1.25971e-104
-3.15718e-105
-5.62759e-101
-6.09781e-101
-2.21794e-97
-3.34873e-97
-4.29724e-94
-7.55088e-94
-3.69396e-91
-6.61496e-91
-1.08029e-88
-1.87945e-88
-3.60405e-87
-1.20817e-86
-7.94644e-91
-1.03521e-85
3.60258e-87
-1.03523e-85
1.28706e-88
-1.20854e-86
1.04051e-90
-1.98278e-88
2.18285e-92
-1.70462e-89
1.25256e-95
-5.29687e-92
7.1622e-100
-5.66335e-96
2.31586e-104
-1.69957e-100
4.87527e-109
-2.63631e-105
4.74587e-116
3.38449e-113
4.75128e-120
5.74411e-117
4.21362e-124
9.25238e-121
3.15172e-128
1.1155e-124
1.83158e-132
1.03254e-128
7.24379e-137
6.98651e-133
1.44081e-141
3.06485e-137
6.45802e-142
-5.60839e-133
3.02883e-133
-2.33952e-128
1.18364e-128
-4.90284e-124
2.22186e-124
-6.98404e-120
2.70402e-120
-7.7196e-116
2.40555e-116
-7.1697e-112
1.64305e-112
-5.92326e-108
8.40192e-109
-4.55729e-104
2.33797e-105
-2.79716e-100
-6.73756e-101
-1.18513e-96
-1.08212e-96
-3.84978e-93
-4.96018e-93
-6.20553e-90
-9.44714e-90
-4.54246e-87
-7.14128e-87
-1.17184e-84
-1.80728e-84
-3.60036e-83
-1.07469e-82
-7.07125e-87
-8.86146e-82
3.59904e-83
-8.86158e-82
1.40657e-84
-1.07502e-82
1.26512e-86
-1.92176e-84
2.81567e-88
-1.90656e-85
1.88471e-91
-6.68685e-88
1.34889e-95
-8.7183e-92
5.41397e-100
-3.25005e-96
1.38333e-104
-6.14611e-101
1.71014e-111
1.18094e-108
2.07629e-115
2.42684e-112
2.22995e-119
4.74592e-116
2.0174e-123
6.94826e-120
1.41618e-127
7.81015e-124
6.75747e-132
6.41729e-128
1.61987e-136
3.41854e-132
8.74744e-137
-4.65026e-128
3.02009e-128
-1.61205e-123
9.72036e-124
-2.80352e-119
1.50284e-119
-3.3092e-115
1.5064e-115
-3.02631e-111
1.10375e-111
-2.32199e-107
6.20924e-108
-1.58234e-103
2.61581e-104
-1.00267e-99
6.01085e-101
-5.1203e-96
-1.17934e-96
-2.04303e-92
-1.57801e-92
-5.47548e-89
-6.04702e-89
-7.35624e-86
-9.74695e-86
-4.59239e-83
-6.36991e-83
-1.04548e-80
-1.43779e-80
-2.95797e-79
-7.91286e-79
-5.19146e-83
-6.27959e-78
2.957e-79
-6.27965e-78
1.26104e-80
-7.91518e-79
1.26472e-82
-1.53709e-80
2.98493e-84
-1.75208e-81
2.32893e-87
-6.93278e-84
2.0856e-91
-1.10178e-87
1.04064e-95
-5.10677e-92
3.22663e-100
-1.17739e-96
5.10554e-107
3.39607e-104
7.51507e-111
8.44396e-108
9.76984e-115
2.0044e-111
1.06828e-118
3.56294e-115
9.05004e-123
4.8626e-119
5.20369e-127
4.85098e-123
1.50107e-131
3.13751e-127
9.74786e-132
-3.15785e-123
2.46092e-123
-9.11317e-119
6.52482e-119
-1.31703e-114
8.31042e-115
-1.2895e-110
6.86233e-111
-9.76437e-107
4.14205e-107
-6.19243e-103
1.91959e-103
-3.48194e-99
6.66389e-100
-1.81743e-95
1.26543e-96
-7.72853e-92
-1.69318e-92
-2.88182e-88
-1.89141e-88
-6.3797e-85
-6.07004e-85
-7.15721e-82
-8.29728e-82
-3.81677e-79
-4.69746e-79
-7.67115e-77
-9.46933e-77
-1.99857e-75
-4.82572e-75
-3.14224e-79
-3.68628e-74
1.99797e-75
-3.68631e-74
9.27312e-77
-4.82709e-75
1.03943e-78
-1.01506e-76
2.60039e-80
-1.32275e-77
2.36315e-83
-5.90217e-80
2.64678e-87
-1.14282e-83
1.6443e-91
-6.59173e-88
6.18498e-96
-1.85269e-92
1.26374e-102
8.05074e-100
2.25445e-106
2.41973e-103
3.5458e-110
6.97033e-107
4.68252e-114
1.50402e-110
4.78233e-118
2.49173e-114
3.30905e-122
3.01746e-118
1.1466e-126
2.36905e-122
8.93493e-127
-1.75561e-118
1.63753e-118
-4.22626e-114
3.57748e-114
-5.08312e-110
3.75464e-110
-4.13282e-106
2.55477e-106
-2.59326e-102
1.27063e-102
-1.36011e-98
4.85229e-99
-6.31258e-95
1.38853e-95
-2.71456e-91
2.18082e-92
-1.00259e-87
-1.99382e-88
-3.32489e-84
-1.86388e-84
-6.08763e-81
-5.01916e-81
-5.71425e-78
-5.83081e-78
-2.60745e-75
-2.86561e-75
-4.62896e-73
-5.1661e-73
-1.11044e-71
-2.43909e-71
-1.56701e-75
-1.79362e-70
1.11013e-71
-1.79363e-70
5.59227e-73
-2.43977e-71
7.0225e-75
-5.53739e-73
1.86141e-76
-8.20255e-74
1.96879e-79
-4.12534e-76
2.75642e-83
-9.72721e-80
2.13526e-87
-6.98741e-84
9.73934e-92
-2.39356e-88
2.59528e-98
1.57369e-95
5.60924e-102
5.71135e-99
1.06673e-105
1.99588e-102
1.69998e-109
5.22638e-106
2.09082e-113
1.05081e-109
1.73833e-117
1.5443e-113
7.22094e-122
1.47139e-117
6.73488e-122
-9.14317e-114
8.89152e-114
-1.6557e-109
1.60098e-109
-1.61177e-105
1.38499e-105
-1.08945e-101
7.76783e-102
-5.66944e-98
3.18438e-98
-2.4605e-94
1.00236e-94
-9.4295e-91
2.36533e-91
-3.3415e-87
3.07574e-88
-1.14818e-83
-1.92531e-84
-3.1363e-80
-1.51049e-80
-4.75589e-77
-3.42005e-77
-3.74289e-74
-3.38422e-74
-1.46402e-71
-1.44683e-71
-2.29696e-69
-2.33589e-69
-5.07326e-68
-1.02224e-67
-6.43439e-72
-7.23714e-67
5.072e-68
-7.23716e-67
2.76553e-69
-1.02252e-67
3.89967e-71
-2.49664e-69
1.09468e-72
-4.17712e-70
1.34657e-75
-2.3668e-72
2.35508e-79
-6.7922e-76
2.27813e-83
-6.0805e-80
1.25926e-87
-2.53744e-84
4.42476e-94
2.5372e-91
1.15822e-97
1.11046e-94
2.66178e-101
4.70588e-98
5.11481e-105
1.49498e-101
7.56684e-109
3.6467e-105
7.73648e-113
6.50184e-109
4.27654e-117
7.51562e-113
4.17392e-117
-4.04766e-109
3.93596e-109
-6.04725e-105
5.84323e-105
-4.35516e-101
4.1678e-101
-2.36186e-97
1.92748e-97
-1.02018e-93
6.51534e-94
-3.66574e-90
1.69113e-90
-1.16043e-86
3.29232e-87
-3.38941e-83
3.54876e-84
-1.07381e-79
-1.52419e-80
-2.41762e-76
-1.00686e-76
-3.04092e-73
-1.92107e-73
-2.01087e-70
-1.62293e-70
-6.75504e-68
-6.04848e-68
-9.37209e-66
-8.75731e-66
-1.90571e-64
-3.55398e-64
-2.17424e-68
-2.42254e-63
1.90528e-64
-2.42254e-63
1.12143e-65
-3.55493e-64
1.77969e-67
-9.30763e-66
5.28822e-69
-1.74647e-66
7.56004e-72
-1.11434e-68
1.65039e-75
-3.88962e-72
1.99624e-79
-4.3419e-76
1.33604e-83
-2.20565e-80
6.26626e-90
3.37516e-87
1.98577e-93
1.7787e-90
5.51179e-97
9.13652e-94
1.27604e-100
3.51995e-97
2.3383e-104
1.04131e-100
3.25159e-108
2.25157e-104
2.17822e-112
3.15662e-108
2.12623e-112
-1.45931e-104
1.41889e-104
-1.79841e-100
1.73755e-100
-1.06858e-96
1.02236e-96
-4.2099e-93
3.90003e-93
-1.51052e-89
1.08751e-89
-4.49635e-86
2.3287e-86
-1.17621e-82
3.74232e-83
-2.92604e-79
3.34859e-80
-8.19551e-76
-9.88836e-77
-1.5222e-72
-5.52115e-73
-1.59078e-69
-8.8975e-70
-8.8587e-67
-6.43241e-67
-2.56071e-64
-2.09432e-64
-3.14396e-62
-2.77938e-62
-5.88581e-61
-1.09088e-60
-6.04316e-65
-7.30846e-60
5.88459e-61
-7.30846e-60
3.72006e-62
-1.09116e-60
6.67369e-64
-2.92199e-62
2.09811e-65
-5.99355e-63
3.48348e-68
-4.3044e-65
9.48332e-72
-1.82616e-68
1.43609e-75
-2.54283e-72
1.16226e-79
-1.5706e-76
7.37388e-86
3.70586e-83
2.82795e-89
2.34732e-86
9.47485e-93
1.46066e-89
2.64063e-96
6.82125e-93
6.65994e-100
2.44618e-96
1.12239e-103
6.4123e-100
9.1155e-108
1.08978e-103
8.899e-108
-4.27987e-100
4.1608e-100
-4.35302e-96
4.20509e-96
-2.13479e-92
2.04216e-92
-6.8259e-89
6.42972e-89
-1.83947e-85
1.4797e-85
-4.58491e-82
2.61539e-82
-1.00375e-78
3.47187e-79
-2.21669e-75
2.58337e-76
-5.10102e-72
-5.25387e-73
-7.82393e-69
-2.49051e-69
-6.80531e-66
-3.39821e-66
-3.19931e-63
-2.10747e-63
-7.97577e-61
-6.41806e-61
-8.67129e-59
-7.93276e-59
-1.49432e-57
-2.87832e-57
-1.38073e-61
-1.85313e-56
1.49403e-57
-1.85313e-56
9.95719e-59
-2.87906e-57
2.05395e-60
-8.09906e-59
6.83531e-62
-1.68794e-59
1.31709e-64
-1.36367e-61
4.46673e-68
-7.02666e-65
8.47761e-72
-1.22068e-68
8.28207e-76
-9.1514e-73
7.21156e-82
3.35973e-79
3.37982e-85
2.55236e-82
1.35236e-88
1.92278e-85
4.97333e-92
1.08783e-88
1.55889e-95
4.7268e-92
3.18327e-99
1.50126e-95
3.13268e-103
3.09124e-99
3.05862e-103
-1.01976e-95
9.91231e-96
-8.56551e-92
8.27291e-92
-3.46937e-88
3.31819e-88
-9.16163e-85
8.62843e-85
-1.98503e-81
1.63994e-81
-4.18314e-78
2.39425e-78
-7.55165e-75
2.62737e-75
-1.36819e-71
1.62863e-72
-2.58725e-68
-2.28389e-69
-3.28071e-65
-9.23979e-66
-2.38015e-62
-1.08752e-62
-9.47002e-60
-6.29642e-60
-2.04033e-57
-1.68176e-57
-1.96576e-55
-1.86023e-55
-3.11797e-54
-6.2409e-54
-2.59146e-58
-3.86083e-53
3.11742e-54
-3.86081e-53
2.19014e-55
-6.2425e-54
5.18829e-57
-1.84381e-55
1.82785e-58
-3.89958e-56
4.08552e-61
-3.54224e-58
1.72394e-64
-2.21486e-61
4.10442e-68
-4.79985e-65
4.82817e-72
-4.35686e-69
5.86147e-78
2.51613e-75
3.65054e-81
2.28692e-78
1.72812e-84
2.08439e-81
7.90046e-88
1.42768e-84
2.99886e-91
7.51143e-88
7.41507e-95
2.88857e-91
8.83662e-99
7.20165e-95
8.62859e-99
-1.97091e-91
1.91537e-91
-1.36818e-87
1.32114e-87
-4.58055e-84
4.37985e-84
-9.998e-81
9.41385e-81
-1.78509e-77
1.4788e-77
-3.10558e-74
1.78465e-74
-4.62532e-71
1.62047e-71
-6.87302e-68
8.3864e-69
-1.06843e-64
-8.111e-66
-1.12176e-61
-2.91355e-62
-6.8021e-59
-3.13655e-59
-2.29635e-56
-1.55139e-56
-4.28573e-54
-3.61403e-54
-3.66215e-52
-3.58213e-52
-5.34565e-51
-1.1116e-50
-3.99299e-55
-6.6072e-50
5.34478e-51
-6.60716e-50
3.95847e-52
-1.11188e-50
1.07603e-53
-3.44673e-52
4.01128e-55
-7.38669e-53
1.03943e-57
-7.54102e-55
5.44991e-61
-5.71644e-58
1.62864e-64
-1.54467e-61
2.29885e-68
-1.69159e-65
4.29383e-74
1.55736e-71
3.24723e-77
1.68895e-74
1.86097e-80
1.86052e-77
1.03185e-83
1.54164e-80
4.73919e-87
9.81354e-84
1.41782e-90
4.56573e-87
2.04454e-94
1.37718e-90
1.99658e-94
-3.08436e-87
2.9967e-87
-1.77117e-83
1.70977e-83
-4.90605e-80
4.68961e-80
-8.8591e-77
8.33889e-77
-1.30386e-73
1.08366e-73
-1.87414e-70
1.08207e-70
-2.30423e-67
8.13877e-68
-2.80714e-64
3.52556e-65
-3.58958e-61
-2.46003e-62
-3.12512e-58
-8.10989e-59
-1.58745e-55
-7.38024e-56
-4.55976e-53
-3.12582e-53
-7.38971e-51
-6.36574e-51
-5.60542e-49
-5.66249e-49
-7.5287e-48
-1.62597e-47
-5.04715e-52
-9.28491e-47
7.52757e-48
-9.28485e-47
5.87474e-49
-1.62639e-47
1.8317e-50
-5.28637e-49
7.22211e-52
-1.14666e-49
2.16845e-54
-1.31506e-51
1.41058e-57
-1.20734e-54
5.29236e-61
-4.06444e-58
8.91935e-65
-5.34241e-62
2.6051e-70
7.97057e-68
2.37683e-73
1.02807e-70
1.64754e-76
1.36722e-73
1.10747e-79
1.36922e-76
6.14914e-83
1.05358e-79
2.22369e-86
5.925e-83
3.87665e-90
2.16014e-86
3.78597e-90
-3.90057e-83
3.78852e-83
-1.85494e-79
1.79e-79
-4.2556e-76
4.06627e-76
-6.36446e-73
5.98837e-73
-7.72483e-70
6.44489e-70
-9.18129e-67
5.33062e-67
-9.32501e-64
3.32567e-64
-9.3115e-61
1.20929e-61
-9.80074e-58
-6.43199e-59
-7.08782e-55
-1.8341e-55
-3.02358e-52
-1.41503e-52
-7.41084e-50
-5.14681e-50
-1.04561e-47
-9.186e-48
-7.04746e-46
-7.34515e-46
-8.70758e-45
-1.95246e-44
-5.22936e-49
-1.07101e-43
8.70637e-45
-1.071e-43
7.11986e-46
-1.95295e-44
2.55826e-47
-6.61539e-46
1.06641e-48
-1.45784e-46
3.70832e-51
-1.8775e-48
2.98775e-54
-2.08526e-51
1.4071e-57
-8.73386e-55
2.8115e-61
-1.36789e-58
1.30185e-66
3.37458e-64
1.4309e-69
5.15743e-67
1.1984e-72
8.26938e-70
9.76174e-76
9.99773e-73
6.54526e-79
9.2891e-76
2.85804e-82
6.30742e-79
6.01686e-86
2.77652e-82
5.87636e-86
-3.97701e-79
3.8613e-79
-1.5683e-75
1.51273e-75
-2.98394e-72
2.84981e-72
-3.70088e-69
3.48048e-69
-3.70616e-66
3.10622e-66
-3.64611e-63
2.131e-63
-3.06171e-60
1.10449e-60
-2.50534e-57
3.38216e-58
-2.1723e-54
-1.34716e-55
-1.30758e-51
-3.36419e-52
-4.69697e-49
-2.20854e-49
-9.85366e-47
-6.92025e-47
-1.21366e-44
-1.08538e-44
-7.2757e-43
-7.81484e-43
-8.26746e-42
-1.92382e-41
-4.43683e-46
-1.01359e-40
8.2664e-42
-1.01358e-40
7.16659e-43
-1.9243e-41
2.93018e-44
-6.86905e-43
1.29085e-45
-1.51696e-43
5.19671e-48
-2.19307e-45
5.17592e-51
-2.94286e-48
3.05767e-54
-1.53058e-51
7.1702e-58
-2.82635e-55
5.35733e-63
1.18229e-60
7.08164e-66
2.13199e-63
7.15685e-69
4.11498e-66
7.06076e-72
5.99799e-69
5.70952e-75
6.72029e-72
3.00644e-78
5.50243e-75
7.63332e-82
2.92073e-78
7.45511e-82
-3.26086e-75
3.16454e-75
-1.06787e-71
1.02949e-71
-1.68768e-68
1.61087e-68
-1.73859e-65
1.63407e-65
-1.43733e-62
1.21121e-62
-1.1719e-59
6.90328e-60
-8.14428e-57
2.97794e-57
-5.46025e-54
7.70712e-55
-3.904e-51
-2.24539e-52
-1.96031e-48
-4.99619e-49
-5.94668e-46
-2.80276e-46
-1.07125e-43
-7.59173e-44
-1.15513e-41
-1.04935e-41
-6.16557e-40
-6.81596e-40
-6.44092e-39
-1.55462e-38
-3.07913e-43
-7.86567e-38
6.44016e-39
-7.86558e-38
6.07257e-40
-1.555e-38
2.75062e-41
-5.99821e-40
1.28028e-42