/*--------------------------------*- C++ -*----------------------------------*\
  =========                 |
  \\      /  F ield         | OpenFOAM: The Open Source CFD Toolbox
   \\    /   O peration     | Website:  https://openfoam.org
    \\  /    A nd           | Version:  9
     \\/     M anipulation  |
\*---------------------------------------------------------------------------*/
FoamFile
{
    format      ascii;
    class       volScalarField;
    location    "0.45";
    object      p;
}
// * * * * * * * * * * * * * * * * * * * * * * * * * * * * * * * * * * * * * //

dimensions      [1 -1 -2 0 0 0 0];

internalField   nonuniform List<scalar> 
4096
(
-7.30119e-07
0
9.92684e-07
2.66989e-06
5.07692e-06
8.11165e-06
1.15968e-05
1.53615e-05
1.92387e-05
2.30651e-05
2.66838e-05
2.99493e-05
3.27314e-05
3.49197e-05
3.64275e-05
3.71948e-05
3.71909e-05
3.64149e-05
3.48964e-05
3.26938e-05
2.9892e-05
2.65996e-05
2.29439e-05
1.90666e-05
1.51178e-05
1.12505e-05
7.61453e-06
4.3507e-06
1.58523e-06
-5.73828e-07
-2.03952e-06
-2.77904e-06
-0.0519334
-0.0519327
-0.0519315
-0.0519297
-0.0519271
-0.0519239
-0.0519203
-0.0519164
-0.0519124
-0.0519084
-0.0519047
-0.0519013
-0.0518984
-0.0518961
-0.0518946
-0.0518938
-0.0518938
-0.0518946
-0.0518961
-0.0518984
-0.0519013
-0.0519047
-0.0519085
-0.0519125
-0.0519166
-0.0519206
-0.0519244
-0.0519278
-0.0519307
-0.0519329
-0.0519344
-0.0519352
-0.103867
-0.103866
-0.103865
-0.103863
-0.10386
-0.103856
-0.103852
-0.103848
-0.103844
-0.10384
-0.103836
-0.103832
-0.103829
-0.103826
-0.103825
-0.103824
-0.103824
-0.103825
-0.103826
-0.103829
-0.103832
-0.103836
-0.10384
-0.103844
-0.103848
-0.103853
-0.103857
-0.10386
-0.103864
-0.103866
-0.103868
-0.103868
-0.155801
-0.1558
-0.155799
-0.155796
-0.155793
-0.155789
-0.155785
-0.15578
-0.155775
-0.155771
-0.155766
-0.155762
-0.155759
-0.155756
-0.155754
-0.155753
-0.155753
-0.155754
-0.155756
-0.155759
-0.155762
-0.155766
-0.155771
-0.155776
-0.15578
-0.155785
-0.15579
-0.155794
-0.155797
-0.1558
-0.155801
-0.155802
-0.207736
-0.207735
-0.207733
-0.207731
-0.207727
-0.207722
-0.207717
-0.207712
-0.207707
-0.207701
-0.207696
-0.207692
-0.207688
-0.207685
-0.207683
-0.207682
-0.207682
-0.207683
-0.207685
-0.207688
-0.207692
-0.207696
-0.207701
-0.207707
-0.207712
-0.207718
-0.207723
-0.207727
-0.207731
-0.207734
-0.207736
-0.207737
-0.259673
-0.259671
-0.259669
-0.259666
-0.259661
-0.259656
-0.25965
-0.259644
-0.259638
-0.259632
-0.259626
-0.259621
-0.259616
-0.259613
-0.25961
-0.259609
-0.259609
-0.25961
-0.259613
-0.259616
-0.259621
-0.259626
-0.259632
-0.259638
-0.259645
-0.259651
-0.259657
-0.259662
-0.259666
-0.25967
-0.259672
-0.259673
-0.31161
-0.311609
-0.311606
-0.311602
-0.311597
-0.311591
-0.311584
-0.311577
-0.311569
-0.311562
-0.311555
-0.311549
-0.311543
-0.311539
-0.311536
-0.311535
-0.311535
-0.311536
-0.311539
-0.311544
-0.311549
-0.311555
-0.311562
-0.311569
-0.311577
-0.311584
-0.311591
-0.311597
-0.311602
-0.311606
-0.311609
-0.311611
-0.363549
-0.363547
-0.363544
-0.363539
-0.363533
-0.363526
-0.363518
-0.363509
-0.3635
-0.363491
-0.363483
-0.363476
-0.36347
-0.363465
-0.363461
-0.36346
-0.36346
-0.363461
-0.363465
-0.36347
-0.363476
-0.363483
-0.363492
-0.3635
-0.363509
-0.363518
-0.363526
-0.363533
-0.363539
-0.363544
-0.363548
-0.363549
-0.415489
-0.415487
-0.415483
-0.415478
-0.41547
-0.415461
-0.415452
-0.415441
-0.415431
-0.415421
-0.415411
-0.415402
-0.415395
-0.415389
-0.415385
-0.415383
-0.415383
-0.415385
-0.415389
-0.415395
-0.415402
-0.415411
-0.415421
-0.415431
-0.415442
-0.415452
-0.415462
-0.415471
-0.415478
-0.415484
-0.415488
-0.41549
-0.467432
-0.467429
-0.467425
-0.467418
-0.467409
-0.467398
-0.467387
-0.467374
-0.467362
-0.467349
-0.467337
-0.467327
-0.467318
-0.467311
-0.467306
-0.467303
-0.467303
-0.467306
-0.467311
-0.467318
-0.467327
-0.467338
-0.467349
-0.467362
-0.467374
-0.467387
-0.467399
-0.467409
-0.467418
-0.467425
-0.46743
-0.467432
-0.519377
-0.519374
-0.519368
-0.51936
-0.519349
-0.519336
-0.519322
-0.519307
-0.519292
-0.519277
-0.519263
-0.51925
-0.519239
-0.519231
-0.519225
-0.519222
-0.519222
-0.519225
-0.519231
-0.519239
-0.51925
-0.519263
-0.519277
-0.519292
-0.519308
-0.519323
-0.519337
-0.519349
-0.51936
-0.519368
-0.519374
-0.519377
-0.571324
-0.571321
-0.571314
-0.571304
-0.571291
-0.571276
-0.571259
-0.571241
-0.571222
-0.571204
-0.571187
-0.571171
-0.571158
-0.571148
-0.571141
-0.571137
-0.571137
-0.571141
-0.571148
-0.571158
-0.571172
-0.571187
-0.571204
-0.571222
-0.571241
-0.571259
-0.571276
-0.571291
-0.571304
-0.571314
-0.571321
-0.571325
-0.623276
-0.623272
-0.623263
-0.623251
-0.623235
-0.623217
-0.623196
-0.623174
-0.623152
-0.62313
-0.623109
-0.623091
-0.623075
-0.623062
-0.623054
-0.623049
-0.623049
-0.623054
-0.623062
-0.623075
-0.623091
-0.623109
-0.62313
-0.623152
-0.623175
-0.623197
-0.623217
-0.623236
-0.623251
-0.623264
-0.623272
-0.623276
-0.675232
-0.675226
-0.675216
-0.675202
-0.675183
-0.67516
-0.675135
-0.675109
-0.675081
-0.675055
-0.67503
-0.675007
-0.674988
-0.674972
-0.674962
-0.674957
-0.674957
-0.674962
-0.674972
-0.674988
-0.675007
-0.67503
-0.675055
-0.675082
-0.675109
-0.675135
-0.67516
-0.675183
-0.675202
-0.675217
-0.675227
-0.675232
-0.727193
-0.727186
-0.727174
-0.727156
-0.727133
-0.727106
-0.727076
-0.727043
-0.72701
-0.726978
-0.726947
-0.72692
-0.726897
-0.726878
-0.726865
-0.726859
-0.726859
-0.726865
-0.726878
-0.726897
-0.72692
-0.726948
-0.726978
-0.72701
-0.727043
-0.727076
-0.727106
-0.727133
-0.727156
-0.727174
-0.727187
-0.727193
-0.77916
-0.779152
-0.779138
-0.779116
-0.779088
-0.779055
-0.779018
-0.778979
-0.778939
-0.778899
-0.778862
-0.778829
-0.778801
-0.778778
-0.778763
-0.778755
-0.778755
-0.778763
-0.778778
-0.778801
-0.778829
-0.778862
-0.7789
-0.778939
-0.778979
-0.779018
-0.779055
-0.779088
-0.779116
-0.779138
-0.779153
-0.77916
-0.831135
-0.831126
-0.831108
-0.831081
-0.831047
-0.831007
-0.830963
-0.830915
-0.830866
-0.830819
-0.830774
-0.830733
-0.830699
-0.830671
-0.830653
-0.830643
-0.830643
-0.830653
-0.830671
-0.830699
-0.830733
-0.830774
-0.830819
-0.830866
-0.830915
-0.830963
-0.831007
-0.831047
-0.831081
-0.831108
-0.831126
-0.831135
-0.883119
-0.883108
-0.883086
-0.883054
-0.883013
-0.882964
-0.88291
-0.882852
-0.882793
-0.882735
-0.882681
-0.882631
-0.882589
-0.882556
-0.882534
-0.882522
-0.882522
-0.882534
-0.882556
-0.882589
-0.882631
-0.882681
-0.882735
-0.882793
-0.882852
-0.88291
-0.882964
-0.883013
-0.883054
-0.883087
-0.883108
-0.883119
-0.935115
-0.935102
-0.935075
-0.935036
-0.934986
-0.934927
-0.934861
-0.934791
-0.934719
-0.934649
-0.934582
-0.934522
-0.934471
-0.934431
-0.934403
-0.934389
-0.934389
-0.934403
-0.934431
-0.934471
-0.934522
-0.934582
-0.934649
-0.934719
-0.934791
-0.934861
-0.934927
-0.934986
-0.935036
-0.935075
-0.935102
-0.935115
-0.987125
-0.987108
-0.987076
-0.987029
-0.986968
-0.986896
-0.986816
-0.986731
-0.986644
-0.986558
-0.986477
-0.986404
-0.986342
-0.986294
-0.98626
-0.986243
-0.986243
-0.98626
-0.986294
-0.986342
-0.986404
-0.986477
-0.986558
-0.986644
-0.986731
-0.986816
-0.986896
-0.986968
-0.987029
-0.987076
-0.987108
-0.987125
-1.03915
-1.03913
-1.03909
-1.03903
-1.03896
-1.03887
-1.03878
-1.03867
-1.03857
-1.03846
-1.03836
-1.03828
-1.0382
-1.03814
-1.0381
-1.03808
-1.03808
-1.0381
-1.03814
-1.0382
-1.03828
-1.03836
-1.03846
-1.03857
-1.03867
-1.03878
-1.03887
-1.03896
-1.03903
-1.03909
-1.03913
-1.03915
-1.0912
-1.09117
-1.09113
-1.09106
-1.09097
-1.09086
-1.09074
-1.09062
-1.09049
-1.09036
-1.09024
-1.09013
-1.09004
-1.08997
-1.08992
-1.0899
-1.0899
-1.08992
-1.08997
-1.09004
-1.09013
-1.09024
-1.09036
-1.09049
-1.09062
-1.09074
-1.09086
-1.09097
-1.09106
-1.09113
-1.09117
-1.0912
-1.14327
-1.14324
-1.14318
-1.1431
-1.14299
-1.14286
-1.14272
-1.14256
-1.14241
-1.14225
-1.14211
-1.14198
-1.14187
-1.14178
-1.14172
-1.14169
-1.14169
-1.14172
-1.14178
-1.14187
-1.14198
-1.14211
-1.14225
-1.14241
-1.14256
-1.14272
-1.14286
-1.14299
-1.1431
-1.14318
-1.14324
-1.14327
-1.19537
-1.19533
-1.19526
-1.19516
-1.19503
-1.19487
-1.1947
-1.19451
-1.19432
-1.19414
-1.19396
-1.1938
-1.19367
-1.19356
-1.19349
-1.19345
-1.19345
-1.19349
-1.19356
-1.19367
-1.1938
-1.19396
-1.19414
-1.19432
-1.19451
-1.1947
-1.19487
-1.19503
-1.19516
-1.19526
-1.19533
-1.19537
-1.24751
-1.24746
-1.24738
-1.24726
-1.2471
-1.24691
-1.24669
-1.24647
-1.24624
-1.24601
-1.2458
-1.2456
-1.24544
-1.24531
-1.24522
-1.24517
-1.24517
-1.24522
-1.24531
-1.24544
-1.2456
-1.2458
-1.24601
-1.24624
-1.24647
-1.24669
-1.24691
-1.2471
-1.24726
-1.24738
-1.24746
-1.24751
-1.29969
-1.29964
-1.29953
-1.29938
-1.29919
-1.29896
-1.2987
-1.29843
-1.29815
-1.29787
-1.29761
-1.29738
-1.29717
-1.29702
-1.29691
-1.29685
-1.29685
-1.29691
-1.29702
-1.29717
-1.29738
-1.29761
-1.29787
-1.29815
-1.29843
-1.2987
-1.29896
-1.29919
-1.29938
-1.29953
-1.29964
-1.29969
-1.35192
-1.35186
-1.35174
-1.35155
-1.35132
-1.35104
-1.35073
-1.3504
-1.35006
-1.34972
-1.3494
-1.34912
-1.34887
-1.34868
-1.34854
-1.34848
-1.34848
-1.34854
-1.34868
-1.34887
-1.34912
-1.3494
-1.34972
-1.35006
-1.3504
-1.35073
-1.35104
-1.35132
-1.35155
-1.35174
-1.35186
-1.35192
-1.40422
-1.40415
-1.404
-1.40378
-1.40349
-1.40315
-1.40278
-1.40237
-1.40196
-1.40155
-1.40116
-1.40081
-1.40052
-1.40028
-1.40012
-1.40003
-1.40003
-1.40012
-1.40028
-1.40052
-1.40081
-1.40116
-1.40155
-1.40196
-1.40237
-1.40278
-1.40315
-1.40349
-1.40378
-1.404
-1.40415
-1.40422
-1.4566
-1.45651
-1.45633
-1.45606
-1.45572
-1.45531
-1.45485
-1.45436
-1.45386
-1.45336
-1.45289
-1.45246
-1.4521
-1.45181
-1.45161
-1.45151
-1.45151
-1.45161
-1.45181
-1.4521
-1.45246
-1.45289
-1.45336
-1.45386
-1.45436
-1.45485
-1.45531
-1.45572
-1.45606
-1.45633
-1.45651
-1.4566
-1.50908
-1.50897
-1.50875
-1.50842
-1.508
-1.50751
-1.50695
-1.50636
-1.50575
-1.50514
-1.50457
-1.50405
-1.50361
-1.50326
-1.50301
-1.50289
-1.50289
-1.50301
-1.50326
-1.50361
-1.50405
-1.50457
-1.50514
-1.50575
-1.50636
-1.50695
-1.50751
-1.508
-1.50842
-1.50875
-1.50897
-1.50908
-1.56167
-1.56153
-1.56127
-1.56087
-1.56037
-1.55977
-1.5591
-1.55838
-1.55763
-1.5569
-1.5562
-1.55557
-1.55502
-1.5546
-1.5543
-1.55415
-1.55415
-1.5543
-1.5546
-1.55502
-1.55557
-1.5562
-1.5569
-1.55763
-1.55838
-1.5591
-1.55977
-1.56037
-1.56087
-1.56127
-1.56153
-1.56167
-1.6144
-1.61423
-1.61391
-1.61344
-1.61283
-1.6121
-1.61129
-1.61042
-1.60951
-1.60862
-1.60777
-1.607
-1.60633
-1.60581
-1.60544
-1.60526
-1.60526
-1.60544
-1.60581
-1.60633
-1.607
-1.60777
-1.60862
-1.60951
-1.61042
-1.61129
-1.6121
-1.61283
-1.61344
-1.61391
-1.61423
-1.6144
-1.66729
-1.6671
-1.66671
-1.66614
-1.66541
-1.66453
-1.66354
-1.66248
-1.66139
-1.6603
-1.65926
-1.65832
-1.65751
-1.65686
-1.65642
-1.65619
-1.65619
-1.65642
-1.65686
-1.65751
-1.65832
-1.65926
-1.6603
-1.66139
-1.66248
-1.66354
-1.66453
-1.66541
-1.66614
-1.66671
-1.6671
-1.66729
-1.72039
-1.72016
-1.7197
-1.71901
-1.71812
-1.71707
-1.71588
-1.71459
-1.71326
-1.71194
-1.71067
-1.70951
-1.70852
-1.70773
-1.70718
-1.7069
-1.7069
-1.70718
-1.70773
-1.70852
-1.70951
-1.71067
-1.71194
-1.71326
-1.71459
-1.71588
-1.71707
-1.71812
-1.71901
-1.7197
-1.72016
-1.72039
-1.77374
-1.77346
-1.77291
-1.77208
-1.77102
-1.76974
-1.7683
-1.76675
-1.76513
-1.76352
-1.76197
-1.76056
-1.75934
-1.75837
-1.75769
-1.75734
-1.75734
-1.75769
-1.75837
-1.75934
-1.76056
-1.76197
-1.76352
-1.76513
-1.76675
-1.7683
-1.76974
-1.77102
-1.77208
-1.77291
-1.77346
-1.77374
-1.82738
-1.82705
-1.82638
-1.8254
-1.82412
-1.82259
-1.82085
-1.81897
-1.81701
-1.81505
-1.81316
-1.81142
-1.80992
-1.80872
-1.80788
-1.80746
-1.80746
-1.80788
-1.80872
-1.80992
-1.81142
-1.81316
-1.81505
-1.81701
-1.81897
-1.82085
-1.82259
-1.82412
-1.8254
-1.82638
-1.82705
-1.82738
-1.88138
-1.88098
-1.88019
-1.87901
-1.87748
-1.87565
-1.87356
-1.87128
-1.86891
-1.86651
-1.8642
-1.86207
-1.86022
-1.85873
-1.8577
-1.85716
-1.85716
-1.8577
-1.85873
-1.86022
-1.86207
-1.8642
-1.86651
-1.86891
-1.87128
-1.87356
-1.87565
-1.87748
-1.87901
-1.88019
-1.88098
-1.88138
-1.93581
-1.93534
-1.93439
-1.93299
-1.93117
-1.92897
-1.92646
-1.92372
-1.92084
-1.91792
-1.91509
-1.91246
-1.91017
-1.90833
-1.90704
-1.90637
-1.90637
-1.90704
-1.90833
-1.91017
-1.91246
-1.91509
-1.91792
-1.92084
-1.92372
-1.92646
-1.92897
-1.93117
-1.93299
-1.93439
-1.93534
-1.93581
-1.99074
-1.99019
-1.98907
-1.98741
-1.98524
-1.98262
-1.97962
-1.97631
-1.97282
-1.96927
-1.9658
-1.96256
-1.95971
-1.95742
-1.9558
-1.95497
-1.95497
-1.9558
-1.95742
-1.95971
-1.96256
-1.9658
-1.96927
-1.97282
-1.97631
-1.97962
-1.98262
-1.98524
-1.98741
-1.98907
-1.99019
-1.99074
-2.04629
-2.04563
-2.04433
-2.04237
-2.0398
-2.03669
-2.0331
-2.02913
-2.02491
-2.02058
-2.01631
-2.01231
-2.00877
-2.00589
-2.00385
-2.0028
-2.0028
-2.00385
-2.00589
-2.00877
-2.01231
-2.01631
-2.02058
-2.02491
-2.02913
-2.0331
-2.03669
-2.0398
-2.04237
-2.04433
-2.04563
-2.04629
-2.10256
-2.1018
-2.10027
-2.09797
-2.09496
-2.09128
-2.08701
-2.08226
-2.07716
-2.07189
-2.06664
-2.06167
-2.05724
-2.05361
-2.05103
-2.04969
-2.04969
-2.05103
-2.05361
-2.05724
-2.06167
-2.06664
-2.07188
-2.07716
-2.08226
-2.08701
-2.09128
-2.09496
-2.09797
-2.10027
-2.1018
-2.10256
-2.15968
-2.1588
-2.15703
-2.15437
-2.15085
-2.14652
-2.14147
-2.13581
-2.12967
-2.12325
-2.1168
-2.11061
-2.10504
-2.10043
-2.09712
-2.0954
-2.0954
-2.09712
-2.10043
-2.10504
-2.11061
-2.1168
-2.12325
-2.12967
-2.13581
-2.14147
-2.14652
-2.15085
-2.15437
-2.15703
-2.1588
-2.15968
-2.21782
-2.21681
-2.21478
-2.21171
-2.20763
-2.20259
-2.19666
-2.18994
-2.18257
-2.17477
-2.16683
-2.15911
-2.15205
-2.14615
-2.14188
-2.13964
-2.13964
-2.14188
-2.14615
-2.15205
-2.15911
-2.16683
-2.17477
-2.18257
-2.18994
-2.19666
-2.20259
-2.20763
-2.21171
-2.21478
-2.21681
-2.21782
-2.27714
-2.276
-2.2737
-2.2702
-2.26553
-2.25971
-2.2528
-2.24487
-2.23608
-2.22663
-2.21686
-2.20719
-2.19821
-2.19057
-2.18498
-2.18202
-2.18202
-2.18498
-2.19057
-2.19821
-2.20719
-2.21686
-2.22663
-2.23608
-2.24487
-2.25279
-2.25971
-2.26552
-2.2702
-2.27369
-2.276
-2.27714
-2.33784
-2.33657
-2.33398
-2.33005
-2.32477
-2.31813
-2.31016
-2.30091
-2.29049
-2.27911
-2.26709
-2.25496
-2.24345
-2.23347
-2.22604
-2.22207
-2.22207
-2.22604
-2.23347
-2.24345
-2.25496
-2.26709
-2.27911
-2.29049
-2.30091
-2.31016
-2.31813
-2.32477
-2.33005
-2.33398
-2.33657
-2.33784
-2.40012
-2.39872
-2.39588
-2.39153
-2.38565
-2.3782
-2.36914
-2.35847
-2.34626
-2.33264
-2.31792
-2.30269
-2.28784
-2.27464
-2.2646
-2.25919
-2.25919
-2.2646
-2.27464
-2.28784
-2.30269
-2.31792
-2.33264
-2.34626
-2.35847
-2.36914
-2.37819
-2.38565
-2.39153
-2.39588
-2.39872
-2.40012
-2.4642
-2.4627
-2.45964
-2.45493
-2.44851
-2.44029
-2.43019
-2.4181
-2.40398
-2.3879
-2.36999
-2.35089
-2.33165
-2.31397
-2.30016
-2.2926
-2.2926
-2.30016
-2.31397
-2.33165
-2.35089
-2.36999
-2.3879
-2.40398
-2.4181
-2.43019
-2.44029
-2.44851
-2.45493
-2.45963
-2.4627
-2.4642
-2.5303
-2.52874
-2.52552
-2.52055
-2.51372
-2.50489
-2.49388
-2.48048
-2.46452
-2.44596
-2.42437
-2.40059
-2.37561
-2.35162
-2.33222
-2.32148
-2.32148
-2.33222
-2.35162
-2.37562
-2.40059
-2.42437
-2.44596
-2.46452
-2.48048
-2.49388
-2.50489
-2.51372
-2.52054
-2.52552
-2.52874
-2.5303
-2.59865
-2.59707
-2.59379
-2.58871
-2.58168
-2.57249
-2.56088
-2.54649
-2.5289
-2.50758
-2.48266
-2.45361
-2.4213
-2.3883
-2.36038
-2.34486
-2.34486
-2.36038
-2.3883
-2.4213
-2.45361
-2.48266
-2.50758
-2.5289
-2.54649
-2.56088
-2.57249
-2.58168
-2.58871
-2.59379
-2.59707
-2.59865
-2.66944
-2.66789
-2.6647
-2.65971
-2.65278
-2.64364
-2.63193
-2.61718
-2.59876
-2.57586
-2.54771
-2.5132
-2.47187
-2.42584
-2.38468
-2.36173
-2.36173
-2.38468
-2.42584
-2.47187
-2.5132
-2.54771
-2.57586
-2.59876
-2.61718
-2.63193
-2.64363
-2.65278
-2.65971
-2.6647
-2.66789
-2.66944
-2.74281
-2.74138
-2.73843
-2.73381
-2.72735
-2.71879
-2.70772
-2.69359
-2.67559
-2.65263
-2.62319
-2.5849
-2.53431
-2.47107
-2.40959
-2.37526
-2.37526
-2.40959
-2.47108
-2.53431
-2.5849
-2.62319
-2.65263
-2.67559
-2.69359
-2.70772
-2.71879
-2.72735
-2.73381
-2.73843
-2.74138
-2.74281
-2.81884
-2.81763
-2.8151
-2.81114
-2.80561
-2.79826
-2.78875
-2.77654
-2.76086
-2.74059
-2.71404
-2.67733
-2.62078
-2.53883
-2.45734
-2.40959
-2.40959
-2.45734
-2.53883
-2.62078
-2.67733
-2.71404
-2.74059
-2.76086
-2.77654
-2.78875
-2.79826
-2.80561
-2.81114
-2.8151
-2.81763
-2.81884
-2.89755
-2.89663
-2.89471
-2.89171
-2.88755
-2.88207
-2.87509
-2.86625
-2.85508
-2.84108
-2.82328
-2.79519
-2.73741
-2.64721
-2.54706
-2.50031
-2.50032
-2.54706
-2.64722
-2.73741
-2.79519
-2.82328
-2.84107
-2.85508
-2.86625
-2.87508
-2.88207
-2.88754
-2.89171
-2.89471
-2.89663
-2.89755
-2.97885
-2.97829
-2.97713
-2.97533
-2.9729
-2.96983
-2.96611
-2.96178
-2.95695
-2.95216
-2.94756
-2.93426
-2.88291
-2.79159
-2.69719
-2.65146
-2.65146
-2.69719
-2.79159
-2.88291
-2.93426
-2.94756
-2.95216
-2.95695
-2.96178
-2.96611
-2.96983
-2.9729
-2.97533
-2.97712
-2.97829
-2.97884
-3.06255
-3.06241
-3.0621
-3.06166
-3.06116
-3.0607
-3.06049
-3.06097
-3.06282
-3.06721
-3.07379
-3.07348
-3.06076
-2.98839
-2.90041
-2.85874
-2.85874
-2.90041
-2.98839
-3.06076
-3.07348
-3.07379
-3.0672
-3.06281
-3.06096
-3.06049
-3.06069
-3.06116
-3.06166
-3.0621
-3.0624
-3.06254
-3.1484
-3.1487
-3.14929
-3.15024
-3.15163
-3.15362
-3.15656
-3.16097
-3.16753
-3.17719
-3.18934
-3.19809
-3.20459
-3.16923
-3.06535
-3.02447
-3.02447
-3.06535
-3.16923
-3.20459
-3.19809
-3.18934
-3.17719
-3.16752
-3.16097
-3.15655
-3.15362
-3.15163
-3.15023
-3.14929
-3.14869
-3.14839
-3.23609
-3.23683
-3.23832
-3.24059
-3.2437
-3.24774
-3.25293
-3.25924
-3.26672
-3.27562
-3.28563
-3.29797
-3.31482
-3.27787
-3.18927
-3.1512
-3.1512
-3.18927
-3.27787
-3.31482
-3.29797
-3.28562
-3.27562
-3.26671
-3.25924
-3.25293
-3.24774
-3.24369
-3.24059
-3.23831
-3.23683
-3.23609
-3.32529
-3.32648
-3.32884
-3.33237
-3.33699
-3.34265
-3.34899
-3.35509
-3.35999
-3.3634
-3.36465
-3.36372
-3.41625
-3.35435
-3.283
-3.25294
-3.25294
-3.283
-3.35435
-3.41624
-3.36372
-3.36465
-3.3634
-3.35998
-3.35509
-3.34899
-3.34265
-3.33699
-3.33237
-3.32884
-3.32648
-3.32529
-3.41564
-3.41729
-3.42055
-3.42534
-3.43146
-3.43849
-3.44526
-3.44999
-3.45061
-3.44559
-3.43667
-3.46117
-3.48565
-3.41386
-3.35675
-3.33349
-3.33349
-3.35675
-3.41386
-3.48565
-3.46116
-3.43666
-3.44558
-3.4506
-3.44999
-3.44526
-3.43848
-3.43146
-3.42534
-3.42055
-3.41729
-3.41564
-3.5067
-3.50887
-3.51313
-3.51935
-3.52718
-3.5357
-3.54304
-3.54633
-3.54223
-3.52855
-3.50794
-3.54301
-3.52705
-3.46682
-3.42332
-3.40348
-3.40348
-3.42332
-3.46682
-3.52705
-3.543
-3.50793
-3.52855
-3.54223
-3.54632
-3.54303
-3.53569
-3.52718
-3.51935
-3.51313
-3.50887
-3.5067
-3.59792
-3.60069
-3.60614
-3.61415
-3.62414
-3.63476
-3.64343
-3.64588
-3.63512
-3.60698
-3.62515
-3.62274
-3.57765
-3.52734
-3.49223
-3.47496
-3.47496
-3.49223
-3.52734
-3.57765
-3.62274
-3.62515
-3.60698
-3.63512
-3.64588
-3.64342
-3.63475
-3.62414
-3.61414
-3.60614
-3.60068
-3.59792
-3.68858
-3.69205
-3.69895
-3.70918
-3.72198
-3.73546
-3.74657
-3.74838
-3.72771
-3.71871
-3.72177
-3.68818
-3.63932
-3.5962
-3.56674
-3.55235
-3.55235
-3.56674
-3.5962
-3.63932
-3.68817
-3.72176
-3.71871
-3.7277
-3.74837
-3.74656
-3.73546
-3.72197
-3.70917
-3.69895
-3.69205
-3.68858
-3.77775
-3.78199
-3.79058
-3.80345
-3.81954
-3.83649
-3.85061
-3.8533
-3.823
-3.83375
-3.80802
-3.75873
-3.71226
-3.67494
-3.65009
-3.63801
-3.63801
-3.65009
-3.67494
-3.71225
-3.75873
-3.80802
-3.83375
-3.82299
-3.8533
-3.85061
-3.83648
-3.81953
-3.80345
-3.79058
-3.78199
-3.77775
-3.86419
-3.86926
-3.8797
-3.89537
-3.91481
-3.93548
-3.95144
-3.94516
-3.95017
-3.93529
-3.88874
-3.83878
-3.79618
-3.7642
-3.74346
-3.73331
-3.73331
-3.74346
-3.7642
-3.79617
-3.83878
-3.88874
-3.93529
-3.95017
-3.94516
-3.95143
-3.93548
-3.91481
-3.89536
-3.8797
-3.86926
-3.86419
-3.94655
-3.95246
-3.96478
-3.98295
-4.00546
-4.02924
-4.04793
-4.03612
-4.07967
-4.02991
-3.97139
-3.92482
-3.88948
-3.86386
-3.84742
-3.83937
-3.83937
-3.84742
-3.86386
-3.88948
-3.92482
-3.97138
-4.02991
-4.07967
-4.03612
-4.04793
-4.02923
-4.00545
-3.98295
-3.96478
-3.95246
-3.94655
-4.02338
-4.03024
-4.04397
-4.06399
-4.08931
-4.11678
-4.13804
-4.14303
-4.15886
-4.10744
-4.05574
-4.01938
-3.9935
-3.97509
-3.96339
-3.95772
-3.95772
-3.96339
-3.97509
-3.9935
-4.01938
-4.05574
-4.10744
-4.15885
-4.14302
-4.13803
-4.11678
-4.08931
-4.06398
-4.04396
-4.03024
-4.02337
-4.09394
-4.10134
-4.11559
-4.13649
-4.16247
-4.18848
-4.20801
-4.24996
-4.23097
-4.18395
-4.14774
-4.1255
-4.11037
-4.09987
-4.09337
-4.09025
-4.09025
-4.09337
-4.09987
-4.11037
-4.1255
-4.14774
-4.18395
-4.23096
-4.24996
-4.20801
-4.18848
-4.16247
-4.13649
-4.11559
-4.10134
-4.09394
-4.15758
-4.16471
-4.17898
-4.19977
-4.22476
-4.24773
-4.25247
-4.31321
-4.30031
-4.27081
-4.25456
-4.24722
-4.24303
-4.24065
-4.23945
-4.23894
-4.23894
-4.23945
-4.24065
-4.24303
-4.24722
-4.25456
-4.2708
-4.30031
-4.3132
-4.25247
-4.24773
-4.22476
-4.19977
-4.17897
-4.16471
-4.15758
-4.21369
-4.22065
-4.23459
-4.25465
-4.27803
-4.30223
-4.34286
-4.38912
-4.38409
-4.37712
-4.38057
-4.38747
-4.39417
-4.39972
-4.40362
-4.4056
-4.4056
-4.40362
-4.39972
-4.39417
-4.38747
-4.38057
-4.37712
-4.38409
-4.38912
-4.34286
-4.30223
-4.27803
-4.25465
-4.23459
-4.22065
-4.21369
-4.26409
-4.27077
-4.28399
-4.30258
-4.32164
-4.34056
-4.43864
-4.47663
-4.48764
-4.50647
-4.52917
-4.54961
-4.56634
-4.579
-4.58743
-4.59162
-4.59162
-4.58743
-4.579
-4.56634
-4.54961
-4.52917
-4.50648
-4.48764
-4.47663
-4.43864
-4.34056
-4.32164
-4.30258
-4.28399
-4.27077
-4.26409
-4.31168
-4.31796
-4.33041
-4.34828
-4.36675
-4.40865
-4.52545
-4.58323
-4.62436
-4.66658
-4.70483
-4.73644
-4.76135
-4.77973
-4.79181
-4.79778
-4.79778
-4.79181
-4.77973
-4.76135
-4.73644
-4.70483
-4.66658
-4.62437
-4.58323
-4.52545
-4.40865
-4.36675
-4.34828
-4.33041
-4.31796
-4.31168
-4.35989
-4.36547
-4.37634
-4.39449
-4.44306
-4.55534
-4.663
-4.73839
-4.80307
-4.86102
-4.90982
-4.94923
-4.97985
-5.00225
-5.01691
-5.02414
-5.02414
-5.01691
-5.00225
-4.97985
-4.94924
-4.90983
-4.86102
-4.80308
-4.73839
-4.66301
-4.55535
-4.44306
-4.39449
-4.37634
-4.36547
-4.35989
-4.41373
-4.42422
-4.45618
-4.52432
-4.624
-4.75123
-4.85762
-4.94757
-5.02465
-5.08997
-5.14404
-5.18754
-5.22128
-5.24595
-5.2621
-5.27007
-5.27007
-5.2621
-5.24595
-5.22128
-5.18754
-5.14404
-5.08997
-5.02465
-4.94757
-4.85763
-4.75123
-4.62401
-4.52432
-4.45618
-4.42422
-4.41373
-4.61464
-4.6432
-4.69965
-4.78581
-4.89769
-5.01115
-5.11469
-5.20589
-5.28407
-5.35016
-5.40507
-5.44947
-5.48406
-5.50945
-5.52611
-5.53435
-5.53435
-5.52611
-5.50946
-5.48407
-5.44947
-5.40507
-5.35017
-5.28407
-5.20589
-5.1147
-5.01115
-4.89769
-4.78581
-4.69965
-4.6432
-4.61464
-4.99087
-5.01661
-5.06703
-5.13963
-5.2314
-5.32745
-5.41863
-5.50124
-5.57412
-5.63676
-5.68935
-5.73228
-5.76598
-5.79086
-5.80724
-5.81536
-5.81536
-5.80724
-5.79086
-5.76598
-5.73228
-5.68935
-5.63676
-5.57412
-5.50124
-5.41863
-5.32745
-5.2314
-5.13963
-5.06703
-5.01661
-4.99088
-5.40422
-5.42486
-5.46517
-5.52399
-5.59655
-5.6742
-5.75097
-5.82282
-5.88773
-5.94456
-5.99295
-6.03289
-6.06451
-6.088
-6.10354
-6.11127
-6.11127
-6.10354
-6.088
-6.06451
-6.03289
-5.99295
-5.94456
-5.88773
-5.82283
-5.75098
-5.6742
-5.59655
-5.52399
-5.46518
-5.42486
-5.40423
-5.82223
-5.8389
-5.87141
-5.91818
-5.97541
-6.0381
-6.1017
-6.16263
-6.21882
-6.2689
-6.31216
-6.34827
-6.37712
-6.39869
-6.41303
-6.42017
-6.42017
-6.41303
-6.39869
-6.37712
-6.34827
-6.31216
-6.2689
-6.21882
-6.16263
-6.1017
-6.0381
-5.97541
-5.91818
-5.87141
-5.8389
-5.82223
-6.2393
-6.2526
-6.27849
-6.31553
-6.36106
-6.41161
-6.46377
-6.51473
-6.56256
-6.60585
-6.64374
-6.67571
-6.70146
-6.72085
-6.73379
-6.74025
-6.74025
-6.73379
-6.72085
-6.70146
-6.67571
-6.64374
-6.60585
-6.56256
-6.51473
-6.46377
-6.41161
-6.36106
-6.31553
-6.27849
-6.2526
-6.2393
-6.65254
-6.66312
-6.68371
-6.71316
-6.7495
-6.79023
-6.83283
-6.87511
-6.91536
-6.9523
-6.98499
-7.01285
-7.03546
-7.05258
-7.06406
-7.06981
-7.06981
-7.06406
-7.05258
-7.03546
-7.01285
-6.985
-6.9523
-6.91536
-6.87511
-6.83283
-6.79023
-6.7495
-6.71317
-6.68371
-6.66312
-6.65254
-7.06108
-7.06951
-7.08592
-7.10941
-7.13849
-7.17135
-7.20609
-7.24095
-7.27463
-7.30585
-7.33376
-7.35773
-7.37733
-7.39225
-7.40229
-7.40733
-7.40733
-7.40229
-7.39225
-7.37733
-7.35774
-7.33376
-7.30585
-7.27463
-7.24095
-7.20609
-7.17135
-7.1385
-7.10941
-7.08592
-7.06951
-7.06108
-7.46491
-7.47165
-7.48476
-7.50355
-7.5269
-7.55346
-7.58181
-7.61061
-7.63852
-7.6647
-7.68833
-7.70877
-7.72559
-7.73845
-7.74714
-7.75151
-7.75151
-7.74714
-7.73845
-7.72559
-7.70878
-7.68833
-7.6647
-7.63852
-7.61061
-7.58181
-7.55346
-7.5269
-7.50355
-7.48476
-7.47165
-7.46491
-7.86439
-7.86978
-7.88029
-7.89537
-7.91418
-7.93569
-7.95881
-7.98246
-8.00563
-8.02751
-8.04738
-8.0647
-8.07901
-8.09
-8.09745
-8.1012
-8.1012
-8.09745
-8.09
-8.07901
-8.0647
-8.04738
-8.02751
-8.00563
-7.98247
-7.95881
-7.93569
-7.91418
-7.89537
-7.88029
-7.86978
-7.86439
-8.26001
-8.26434
-8.27279
-8.28493
-8.30012
-8.31758
-8.33645
-8.35588
-8.37505
-8.39326
-8.40991
-8.42449
-8.4366
-8.44593
-8.45226
-8.45546
-8.45546
-8.45226
-8.44593
-8.4366
-8.42449
-8.40991
-8.39326
-8.37505
-8.35588
-8.33645
-8.31758
-8.30013
-8.28493
-8.27279
-8.26434
-8.26001
-8.6523
-8.65579
-8.6626
-8.67241
-8.68472
-8.69891
-8.71432
-8.73028
-8.74612
-8.76124
-8.77514
-8.78736
-8.79755
-8.80542
-8.81078
-8.8135
-8.8135
-8.81078
-8.80542
-8.79755
-8.78736
-8.77514
-8.76124
-8.74612
-8.73028
-8.71433
-8.69891
-8.68472
-8.67241
-8.6626
-8.65579
-8.6523
-9.04176
-9.04458
-9.05009
-9.05803
-9.06802
-9.07958
-9.09219
-9.10529
-9.11836
-9.1309
-9.14246
-9.15267
-9.16121
-9.16783
-9.17235
-9.17463
-9.17463
-9.17235
-9.16783
-9.16121
-9.15267
-9.14246
-9.1309
-9.11836
-9.1053
-9.09219
-9.07959
-9.06802
-9.05804
-9.05009
-9.04458
-9.04176
-9.42884
-9.43113
-9.43559
-9.44204
-9.45017
-9.4596
-9.46992
-9.48068
-9.49145
-9.50183
-9.51143
-9.51994
-9.52708
-9.53262
-9.53641
-9.53832
-9.53832
-9.53641
-9.53262
-9.52708
-9.51994
-9.51144
-9.50183
-9.49145
-9.48068
-9.46992
-9.4596
-9.45017
-9.44204
-9.43559
-9.43113
-9.42884
-9.81393
-9.81579
-9.81941
-9.82466
-9.83129
-9.83899
-9.84744
-9.85628
-9.86516
-9.87374
-9.8817
-9.88878
-9.89472
-9.89935
-9.90251
-9.90412
-9.90412
-9.90251
-9.89935
-9.89472
-9.88878
-9.8817
-9.87374
-9.86516
-9.85628
-9.84744
-9.83899
-9.83129
-9.82466
-9.81942
-9.81579
-9.81393
-10.1974
-10.1989
-10.2018
-10.2061
-10.2115
-10.2178
-10.2247
-10.232
-10.2393
-10.2464
-10.253
-10.2589
-10.2638
-10.2677
-10.2703
-10.2716
-10.2716
-10.2703
-10.2677
-10.2638
-10.2589
-10.253
-10.2464
-10.2393
-10.232
-10.2247
-10.2178
-10.2115
-10.2061
-10.2018
-10.1989
-10.1974
-10.5794
-10.5806
-10.5831
-10.5865
-10.591
-10.5961
-10.6018
-10.6078
-10.6138
-10.6197
-10.6251
-10.63
-10.6341
-10.6373
-10.6395
-10.6406
-10.6406
-10.6395
-10.6373
-10.6341
-10.63
-10.6251
-10.6197
-10.6138
-10.6078
-10.6018
-10.5961
-10.591
-10.5865
-10.5831
-10.5806
-10.5794
-10.9603
-10.9613
-10.9633
-10.9662
-10.9698
-10.974
-10.9787
-10.9836
-10.9885
-10.9934
-10.9979
-11.0019
-11.0053
-11.008
-11.0098
-11.0107
-11.0107
-11.0098
-11.008
-11.0053
-11.0019
-10.9979
-10.9934
-10.9885
-10.9836
-10.9787
-10.974
-10.9698
-10.9662
-10.9633
-10.9613
-10.9603
-11.3403
-11.3411
-11.3427
-11.3451
-11.348
-11.3515
-11.3553
-11.3594
-11.3634
-11.3674
-11.3711
-11.3745
-11.3773
-11.3795
-11.381
-11.3818
-11.3818
-11.381
-11.3795
-11.3773
-11.3745
-11.3711
-11.3674
-11.3634
-11.3594
-11.3553
-11.3515
-11.348
-11.3451
-11.3427
-11.3411
-11.3403
-11.7195
-11.7202
-11.7215
-11.7234
-11.7258
-11.7287
-11.7318
-11.7351
-11.7385
-11.7418
-11.7449
-11.7476
-11.7499
-11.7518
-11.753
-11.7536
-11.7536
-11.753
-11.7518
-11.7499
-11.7476
-11.7449
-11.7418
-11.7385
-11.7351
-11.7318
-11.7287
-11.7258
-11.7234
-11.7215
-11.7202
-11.7195
-12.098
-12.0986
-12.0997
-12.1012
-12.1032
-12.1056
-12.1082
-12.1109
-12.1137
-12.1164
-12.1189
-12.1212
-12.1231
-12.1246
-12.1256
-12.1262
-12.1262
-12.1256
-12.1246
-12.1231
-12.1212
-12.1189
-12.1164
-12.1137
-12.1109
-12.1082
-12.1056
-12.1032
-12.1012
-12.0997
-12.0986
-12.098
-12.4761
-12.4765
-12.4774
-12.4787
-12.4803
-12.4822
-12.4844
-12.4866
-12.4889
-12.4911
-12.4932
-12.4951
-12.4967
-12.4979
-12.4988
-12.4992
-12.4992
-12.4988
-12.4979
-12.4967
-12.4951
-12.4932
-12.4911
-12.4889
-12.4866
-12.4844
-12.4822
-12.4803
-12.4787
-12.4774
-12.4765
-12.4761
-12.8536
-12.854
-12.8547
-12.8558
-12.8571
-12.8587
-12.8605
-12.8623
-12.8642
-12.866
-12.8677
-12.8693
-12.8706
-12.8716
-12.8723
-12.8727
-12.8727
-12.8723
-12.8716
-12.8706
-12.8693
-12.8677
-12.866
-12.8642
-12.8623
-12.8605
-12.8587
-12.8571
-12.8558
-12.8547
-12.854
-12.8536
-13.2309
-13.2312
-13.2318
-13.2326
-13.2337
-13.235
-13.2365
-13.238
-13.2395
-13.241
-13.2425
-13.2437
-13.2448
-13.2457
-13.2463
-13.2466
-13.2466
-13.2463
-13.2457
-13.2448
-13.2437
-13.2425
-13.241
-13.2395
-13.238
-13.2365
-13.235
-13.2337
-13.2326
-13.2318
-13.2312
-13.2309
-13.6078
-13.608
-13.6085
-13.6092
-13.6101
-13.6112
-13.6124
-13.6136
-13.6149
-13.6162
-13.6173
-13.6184
-13.6193
-13.62
-13.6205
-13.6207
-13.6207
-13.6205
-13.62
-13.6193
-13.6184
-13.6173
-13.6162
-13.6149
-13.6136
-13.6124
-13.6112
-13.6101
-13.6092
-13.6085
-13.608
-13.6078
-13.9845
-13.9847
-13.9851
-13.9857
-13.9864
-13.9873
-13.9883
-13.9893
-13.9903
-13.9914
-13.9923
-13.9932
-13.9939
-13.9945
-13.9949
-13.9951
-13.9951
-13.9949
-13.9945
-13.9939
-13.9932
-13.9923
-13.9914
-13.9903
-13.9893
-13.9883
-13.9873
-13.9864
-13.9857
-13.9851
-13.9847
-13.9845
-14.3609
-14.3611
-14.3614
-14.3619
-14.3625
-14.3633
-14.3641
-14.3649
-14.3658
-14.3666
-14.3674
-14.3681
-14.3687
-14.3692
-14.3695
-14.3697
-14.3697
-14.3695
-14.3692
-14.3687
-14.3681
-14.3674
-14.3666
-14.3658
-14.3649
-14.3641
-14.3633
-14.3625
-14.3619
-14.3614
-14.3611
-14.3609
-14.7373
-14.7374
-14.7377
-14.7381
-14.7386
-14.7392
-14.7398
-14.7405
-14.7412
-14.7419
-14.7426
-14.7432
-14.7437
-14.7441
-14.7443
-14.7445
-14.7445
-14.7443
-14.7441
-14.7437
-14.7432
-14.7426
-14.7419
-14.7412
-14.7405
-14.7398
-14.7392
-14.7386
-14.7381
-14.7377
-14.7374
-14.7373
-15.1134
-15.1135
-15.1138
-15.1141
-15.1145
-15.115
-15.1155
-15.1161
-15.1167
-15.1173
-15.1178
-15.1183
-15.1187
-15.119