/*--------------------------------*- C++ -*----------------------------------*\
  =========                 |
  \\      /  F ield         | OpenFOAM: The Open Source CFD Toolbox
   \\    /   O peration     | Website:  https://openfoam.org
    \\  /    A nd           | Version:  9
     \\/     M anipulation  |
\*---------------------------------------------------------------------------*/
FoamFile
{
    format      ascii;
    class       volScalarField;
    location    "0.45";
    object      p_rgh;
}
// * * * * * * * * * * * * * * * * * * * * * * * * * * * * * * * * * * * * * //

dimensions      [1 -1 -2 0 0 0 0];

internalField   nonuniform List<scalar> 
4096
(
-3.29766
-3.29766
-3.29766
-3.29766
-3.29766
-3.29765
-3.29765
-3.29765
-3.29764
-3.29764
-3.29764
-3.29763
-3.29763
-3.29763
-3.29763
-3.29762
-3.29762
-3.29763
-3.29763
-3.29763
-3.29763
-3.29764
-3.29764
-3.29764
-3.29765
-3.29765
-3.29765
-3.29766
-3.29766
-3.29766
-3.29766
-3.29766
-3.29766
-3.29766
-3.29766
-3.29766
-3.29766
-3.29765
-3.29765
-3.29765
-3.29764
-3.29764
-3.29764
-3.29763
-3.29763
-3.29763
-3.29763
-3.29762
-3.29762
-3.29763
-3.29763
-3.29763
-3.29763
-3.29764
-3.29764
-3.29764
-3.29765
-3.29765
-3.29765
-3.29766
-3.29766
-3.29766
-3.29766
-3.29767
-3.29767
-3.29766
-3.29766
-3.29766
-3.29766
-3.29766
-3.29765
-3.29765
-3.29764
-3.29764
-3.29763
-3.29763
-3.29763
-3.29763
-3.29762
-3.29762
-3.29762
-3.29762
-3.29763
-3.29763
-3.29763
-3.29763
-3.29764
-3.29764
-3.29765
-3.29765
-3.29766
-3.29766
-3.29766
-3.29766
-3.29767
-3.29767
-3.29767
-3.29767
-3.29767
-3.29766
-3.29766
-3.29766
-3.29765
-3.29765
-3.29764
-3.29764
-3.29763
-3.29763
-3.29763
-3.29762
-3.29762
-3.29762
-3.29762
-3.29762
-3.29762
-3.29763
-3.29763
-3.29763
-3.29764
-3.29764
-3.29765
-3.29765
-3.29766
-3.29766
-3.29766
-3.29767
-3.29767
-3.29767
-3.29767
-3.29767
-3.29767
-3.29767
-3.29766
-3.29766
-3.29765
-3.29765
-3.29764
-3.29764
-3.29763
-3.29763
-3.29762
-3.29762
-3.29762
-3.29762
-3.29762
-3.29762
-3.29762
-3.29762
-3.29763
-3.29763
-3.29764
-3.29764
-3.29765
-3.29765
-3.29766
-3.29766
-3.29767
-3.29767
-3.29767
-3.29767
-3.29768
-3.29768
-3.29767
-3.29767
-3.29767
-3.29766
-3.29765
-3.29765
-3.29764
-3.29764
-3.29763
-3.29762
-3.29762
-3.29762
-3.29761
-3.29761
-3.29761
-3.29761
-3.29762
-3.29762
-3.29762
-3.29763
-3.29764
-3.29764
-3.29765
-3.29765
-3.29766
-3.29767
-3.29767
-3.29767
-3.29768
-3.29768
-3.29768
-3.29768
-3.29768
-3.29767
-3.29767
-3.29766
-3.29766
-3.29765
-3.29764
-3.29763
-3.29763
-3.29762
-3.29762
-3.29761
-3.29761
-3.29761
-3.29761
-3.29761
-3.29761
-3.29762
-3.29762
-3.29763
-3.29763
-3.29764
-3.29765
-3.29766
-3.29766
-3.29767
-3.29767
-3.29768
-3.29768
-3.29768
-3.29769
-3.29769
-3.29768
-3.29768
-3.29767
-3.29767
-3.29766
-3.29765
-3.29764
-3.29763
-3.29762
-3.29762
-3.29761
-3.29761
-3.2976
-3.2976
-3.2976
-3.2976
-3.29761
-3.29761
-3.29762
-3.29762
-3.29763
-3.29764
-3.29765
-3.29766
-3.29767
-3.29767
-3.29768
-3.29768
-3.29769
-3.29769
-3.2977
-3.2977
-3.29769
-3.29769
-3.29768
-3.29767
-3.29766
-3.29765
-3.29764
-3.29763
-3.29762
-3.29761
-3.2976
-3.2976
-3.29759
-3.29759
-3.29759
-3.29759
-3.2976
-3.2976
-3.29761
-3.29762
-3.29763
-3.29764
-3.29765
-3.29766
-3.29767
-3.29768
-3.29769
-3.29769
-3.2977
-3.2977
-3.29771
-3.29771
-3.2977
-3.29769
-3.29769
-3.29768
-3.29766
-3.29765
-3.29764
-3.29763
-3.29761
-3.2976
-3.29759
-3.29759
-3.29758
-3.29758
-3.29758
-3.29758
-3.29759
-3.29759
-3.2976
-3.29761
-3.29763
-3.29764
-3.29765
-3.29766
-3.29768
-3.29769
-3.2977
-3.2977
-3.29771
-3.29771
-3.29772
-3.29772
-3.29771
-3.2977
-3.29769
-3.29768
-3.29767
-3.29765
-3.29764
-3.29762
-3.29761
-3.2976
-3.29758
-3.29758
-3.29757
-3.29757
-3.29757
-3.29757
-3.29758
-3.29758
-3.2976
-3.29761
-3.29762
-3.29764
-3.29765
-3.29767
-3.29768
-3.29769
-3.29771
-3.29771
-3.29772
-3.29772
-3.29774
-3.29773
-3.29773
-3.29772
-3.2977
-3.29769
-3.29767
-3.29765
-3.29764
-3.29762
-3.2976
-3.29759
-3.29757
-3.29756
-3.29755
-3.29755
-3.29755
-3.29755
-3.29756
-3.29757
-3.29759
-3.2976
-3.29762
-3.29764
-3.29765
-3.29767
-3.29769
-3.2977
-3.29772
-3.29773
-3.29773
-3.29774
-3.29776
-3.29775
-3.29775
-3.29773
-3.29772
-3.2977
-3.29768
-3.29766
-3.29763
-3.29761
-3.29759
-3.29757
-3.29756
-3.29754
-3.29754
-3.29753
-3.29753
-3.29754
-3.29754
-3.29756
-3.29757
-3.29759
-3.29761
-3.29763
-3.29766
-3.29768
-3.2977
-3.29772
-3.29773
-3.29775
-3.29775
-3.29776
-3.29778
-3.29778
-3.29777
-3.29775
-3.29773
-3.29771
-3.29769
-3.29766
-3.29763
-3.2976
-3.29758
-3.29756
-3.29754
-3.29752
-3.29751
-3.29751
-3.29751
-3.29751
-3.29752
-3.29754
-3.29756
-3.29758
-3.29761
-3.29763
-3.29766
-3.29769
-3.29771
-3.29773
-3.29775
-3.29777
-3.29778
-3.29778
-3.29781
-3.2978
-3.29779
-3.29777
-3.29775
-3.29772
-3.29769
-3.29766
-3.29763
-3.2976
-3.29757
-3.29754
-3.29752
-3.2975
-3.29748
-3.29748
-3.29748
-3.29748
-3.2975
-3.29752
-3.29754
-3.29757
-3.2976
-3.29763
-3.29766
-3.29769
-3.29772
-3.29775
-3.29777
-3.29779
-3.29781
-3.29781
-3.29785
-3.29784
-3.29782
-3.2978
-3.29777
-3.29774
-3.2977
-3.29767
-3.29763
-3.29759
-3.29755
-3.29752
-3.29749
-3.29747
-3.29745
-3.29744
-3.29744
-3.29745
-3.29747
-3.29749
-3.29752
-3.29755
-3.29759
-3.29763
-3.29767
-3.2977
-3.29774
-3.29777
-3.2978
-3.29782
-3.29784
-3.29785
-3.29789
-3.29788
-3.29786
-3.29784
-3.2978
-3.29776
-3.29772
-3.29767
-3.29762
-3.29757
-3.29753
-3.29749
-3.29745
-3.29743
-3.29741
-3.2974
-3.2974
-3.29741
-3.29743
-3.29745
-3.29749
-3.29753
-3.29757
-3.29762
-3.29767
-3.29772
-3.29776
-3.2978
-3.29784
-3.29786
-3.29788
-3.29789
-3.29794
-3.29793
-3.29791
-3.29788
-3.29784
-3.29779
-3.29773
-3.29768
-3.29762
-3.29756
-3.2975
-3.29745
-3.29741
-3.29738
-3.29736
-3.29735
-3.29735
-3.29736
-3.29738
-3.29741
-3.29745
-3.2975
-3.29756
-3.29762
-3.29768
-3.29773
-3.29779
-3.29784
-3.29788
-3.29791
-3.29793
-3.29794
-3.29801
-3.29799
-3.29797
-3.29793
-3.29788
-3.29782
-3.29775
-3.29768
-3.29761
-3.29754
-3.29747
-3.29741
-3.29736
-3.29732
-3.2973
-3.29728
-3.29728
-3.2973
-3.29732
-3.29736
-3.29741
-3.29747
-3.29754
-3.29761
-3.29768
-3.29775
-3.29782
-3.29788
-3.29793
-3.29797
-3.29799
-3.29801
-3.29808
-3.29807
-3.29804
-3.29799
-3.29793
-3.29786
-3.29778
-3.29769
-3.2976
-3.29752
-3.29744
-3.29736
-3.2973
-3.29725
-3.29722
-3.2972
-3.2972
-3.29722
-3.29725
-3.2973
-3.29736
-3.29744
-3.29752
-3.2976
-3.29769
-3.29778
-3.29786
-3.29793
-3.29799
-3.29804
-3.29807
-3.29808
-3.29818
-3.29816
-3.29812
-3.29806
-3.29799
-3.2979
-3.2978
-3.2977
-3.2976
-3.29749
-3.29739
-3.2973
-3.29723
-3.29717
-3.29713
-3.29711
-3.29711
-3.29713
-3.29717
-3.29723
-3.2973
-3.29739
-3.29749
-3.2976
-3.2977
-3.2978
-3.2979
-3.29799
-3.29806
-3.29812
-3.29816
-3.29818
-3.29829
-3.29827
-3.29822
-3.29815
-3.29806
-3.29796
-3.29784
-3.29771
-3.29758
-3.29746
-3.29734
-3.29723
-3.29714
-3.29707
-3.29702
-3.29699
-3.29699
-3.29702
-3.29707
-3.29714
-3.29723
-3.29734
-3.29746
-3.29758
-3.29771
-3.29784
-3.29796
-3.29806
-3.29815
-3.29822
-3.29827
-3.29829
-3.29843
-3.2984
-3.29835
-3.29826
-3.29815
-3.29802
-3.29788
-3.29773
-3.29757
-3.29742
-3.29727
-3.29714
-3.29703
-3.29694
-3.29688
-3.29685
-3.29685
-3.29688
-3.29694
-3.29703
-3.29714
-3.29727
-3.29742
-3.29757
-3.29773
-3.29788
-3.29803
-3.29815
-3.29826
-3.29835
-3.2984
-3.29843
-3.2986
-3.29857
-3.2985
-3.2984
-3.29826
-3.29811
-3.29793
-3.29775
-3.29756
-3.29737
-3.29719
-3.29704
-3.2969
-3.29679
-3.29672
-3.29668
-3.29668
-3.29672
-3.29679
-3.2969
-3.29704
-3.29719
-3.29737
-3.29756
-3.29775
-3.29793
-3.29811
-3.29826
-3.2984
-3.2985
-3.29857
-3.2986
-3.29881
-3.29877
-3.29868
-3.29856
-3.2984
-3.29821
-3.298
-3.29777
-3.29754
-3.29731
-3.2971
-3.2969
-3.29674
-3.29661
-3.29652
-3.29647
-3.29647
-3.29652
-3.29661
-3.29674
-3.2969
-3.2971
-3.29731
-3.29754
-3.29777
-3.298
-3.29821
-3.2984
-3.29856
-3.29868
-3.29877
-3.29881
-3.29906
-3.29901
-3.2989
-3.29875
-3.29856
-3.29833
-3.29807
-3.2978
-3.29752
-3.29724
-3.29698
-3.29675
-3.29654
-3.29639
-3.29628
-3.29622
-3.29622
-3.29628
-3.29639
-3.29654
-3.29675
-3.29698
-3.29724
-3.29752
-3.2978
-3.29807
-3.29833
-3.29856
-3.29875
-3.2989
-3.29901
-3.29906
-3.29936
-3.2993
-3.29918
-3.29899
-3.29876
-3.29848
-3.29817
-3.29783
-3.29749
-3.29716
-3.29684
-3.29655
-3.29631
-3.29612
-3.29598
-3.29591
-3.29591
-3.29598
-3.29612
-3.29631
-3.29655
-3.29684
-3.29716
-3.29749
-3.29783
-3.29817
-3.29848
-3.29876
-3.29899
-3.29918
-3.2993
-3.29936
-3.29973
-3.29966
-3.2995
-3.29928
-3.299
-3.29866
-3.29828
-3.29788
-3.29746
-3.29706
-3.29667
-3.29632
-3.29602
-3.29579
-3.29562
-3.29554
-3.29554
-3.29562
-3.29579
-3.29602
-3.29632
-3.29667
-3.29706
-3.29746
-3.29788
-3.29828
-3.29866
-3.299
-3.29928
-3.2995
-3.29966
-3.29973
-3.30018
-3.30009
-3.2999
-3.29964
-3.29929
-3.29888
-3.29842
-3.29793
-3.29743
-3.29693
-3.29646
-3.29604
-3.29567
-3.29539
-3.29519
-3.29509
-3.29509
-3.29519
-3.29539
-3.29567
-3.29604
-3.29646
-3.29693
-3.29743
-3.29793
-3.29842
-3.29888
-3.29929
-3.29964
-3.2999
-3.30009
-3.30018
-3.30072
-3.30061
-3.30039
-3.30006
-3.29965
-3.29915
-3.2986
-3.298
-3.29739
-3.29679
-3.29621
-3.29569
-3.29525
-3.2949
-3.29466
-3.29453
-3.29453
-3.29466
-3.2949
-3.29525
-3.29569
-3.29621
-3.29679
-3.29739
-3.298
-3.2986
-3.29915
-3.29965
-3.30006
-3.30039
-3.30061
-3.30072
-3.30138
-3.30124
-3.30098
-3.30059
-3.30008
-3.29948
-3.29881
-3.29809
-3.29735
-3.29661
-3.29591
-3.29528
-3.29474
-3.29431
-3.29401
-3.29386
-3.29386
-3.29401
-3.29431
-3.29474
-3.29528
-3.29591
-3.29661
-3.29735
-3.29809
-3.29881
-3.29948
-3.30008
-3.30059
-3.30098
-3.30124
-3.30138
-3.30218
-3.30201
-3.30169
-3.30122
-3.30061
-3.29988
-3.29907
-3.2982
-3.29729
-3.2964
-3.29555
-3.29478
-3.29411
-3.29359
-3.29322
-3.29304
-3.29304
-3.29322
-3.29359
-3.29411
-3.29478
-3.29555
-3.2964
-3.29729
-3.2982
-3.29907
-3.29988
-3.30061
-3.30122
-3.30169
-3.30201
-3.30218
-3.30314
-3.30295
-3.30256
-3.30199
-3.30125
-3.30038
-3.29939
-3.29833
-3.29724
-3.29615
-3.29511
-3.29417
-3.29335
-3.29271
-3.29227
-3.29204
-3.29204
-3.29227
-3.29271
-3.29335
-3.29417
-3.29511
-3.29615
-3.29724
-3.29833
-3.29939
-3.30038
-3.30125
-3.30199
-3.30256
-3.30295
-3.30314
-3.30431
-3.30408
-3.30361
-3.30293
-3.30204
-3.30098
-3.29979
-3.29851
-3.29718
-3.29585
-3.29459
-3.29343
-3.29244
-3.29165
-3.2911
-3.29082
-3.29082
-3.2911
-3.29165
-3.29244
-3.29343
-3.29459
-3.29585
-3.29718
-3.29851
-3.29979
-3.30098
-3.30204
-3.30293
-3.30361
-3.30408
-3.30431
-3.30573
-3.30545
-3.30489
-3.30407
-3.303
-3.30173
-3.30029
-3.29873
-3.29712
-3.29551
-3.29396
-3.29254
-3.29132
-3.29035
-3.28967
-3.28933
-3.28933
-3.28967
-3.29035
-3.29132
-3.29254
-3.29396
-3.29551
-3.29712
-3.29873
-3.30029
-3.30173
-3.303
-3.30407
-3.30489
-3.30545
-3.30573
-3.30744
-3.3071
-3.30644
-3.30545
-3.30417
-3.30264
-3.30091
-3.29903
-3.29707
-3.2951
-3.29321
-3.29147
-3.28997
-3.28877
-3.28794
-3.28751
-3.28751
-3.28794
-3.28877
-3.28997
-3.29147
-3.29321
-3.2951
-3.29707
-3.29903
-3.30091
-3.30264
-3.30417
-3.30545
-3.30644
-3.3071
-3.30744
-3.3095
-3.30911
-3.30831
-3.30713
-3.3056
-3.30377
-3.30168
-3.29941
-3.29703
-3.29464
-3.29232
-3.29019
-3.28834
-3.28685
-3.28582
-3.28529
-3.28529
-3.28582
-3.28685
-3.28834
-3.29019
-3.29232
-3.29464
-3.29703
-3.29941
-3.30168
-3.30377
-3.3056
-3.30713
-3.30831
-3.30911
-3.3095
-3.312
-3.31153
-3.31058
-3.30918
-3.30736
-3.30516
-3.30265
-3.29991
-3.29703
-3.29411
-3.29128
-3.28865
-3.28636
-3.28452
-3.28323
-3.28256
-3.28256
-3.28323
-3.28452
-3.28636
-3.28865
-3.29128
-3.29411
-3.29703
-3.29991
-3.30265
-3.30516
-3.30736
-3.30918
-3.31058
-3.31153
-3.312
-3.315
-3.31444
-3.31333
-3.31167
-3.3095
-3.30688
-3.30387
-3.30057
-3.29708
-3.29353
-3.29005
-3.28681
-3.28397
-3.28167
-3.28006
-3.27923
-3.27923
-3.28006
-3.28167
-3.28397
-3.28681
-3.29005
-3.29353
-3.29708
-3.30057
-3.30387
-3.30688
-3.3095
-3.31167
-3.31333
-3.31444
-3.315
-3.31861
-3.31796
-3.31665
-3.31469
-3.31213
-3.30902
-3.30543
-3.30146
-3.29724
-3.29291
-3.28864
-3.28463
-3.28109
-3.27821
-3.27618
-3.27513
-3.27513
-3.27618
-3.27821
-3.28109
-3.28463
-3.28864
-3.29291
-3.29724
-3.30146
-3.30543
-3.30902
-3.31213
-3.31469
-3.31665
-3.31796
-3.31861
-3.32295
-3.32219
-3.32066
-3.31837
-3.31535
-3.31167
-3.3074
-3.30265
-3.29755
-3.29228
-3.28704
-3.28207
-3.27763
-3.274
-3.27142
-3.27008
-3.27008
-3.27142
-3.274
-3.27763
-3.28207
-3.28704
-3.29228
-3.29755
-3.30265
-3.3074
-3.31167
-3.31535
-3.31837
-3.32066
-3.32219
-3.32295
-3.32815
-3.32727
-3.3255
-3.32283
-3.31931
-3.31499
-3.30994
-3.30427
-3.29813
-3.29171
-3.28526
-3.27908
-3.2735
-3.26889
-3.26559
-3.26386
-3.26386
-3.26559
-3.26889
-3.2735
-3.27908
-3.28526
-3.29171
-3.29813
-3.30427
-3.30994
-3.31499
-3.31931
-3.32283
-3.3255
-3.32727
-3.32815
-3.33435
-3.33335
-3.33131
-3.32824
-3.32416
-3.31913
-3.31319
-3.30647
-3.2991
-3.2913
-3.28336
-3.27564
-3.26859
-3.26268
-3.25841
-3.25617
-3.25617
-3.25841
-3.26268
-3.26859
-3.27564
-3.28336
-3.2913
-3.2991
-3.30647
-3.31319
-3.31913
-3.32416
-3.32824
-3.33131
-3.33335
-3.33435
-3.34174
-3.3406
-3.33829
-3.3348
-3.33013
-3.32431
-3.31739
-3.30947
-3.30068
-3.29123
-3.28146
-3.27179
-3.26281
-3.25517
-3.24958
-3.24662
-3.24662
-3.24958
-3.25517
-3.26281
-3.27179
-3.28145
-3.29123
-3.30068
-3.30947
-3.31739
-3.32431
-3.33012
-3.3348
-3.33829
-3.3406
-3.34174
-3.35051
-3.34923
-3.34665
-3.34272
-3.33743
-3.3308
-3.32283
-3.31358
-3.30316
-3.29178
-3.27976
-3.26763
-3.25612
-3.24614
-3.23871
-3.23474
-3.23474
-3.23871
-3.24614
-3.25612
-3.26763
-3.27976
-3.29178
-3.30316
-3.31358
-3.32283
-3.3308
-3.33743
-3.34272
-3.34665
-3.34923
-3.35051
-3.36085
-3.35946
-3.35662
-3.35227
-3.34639
-3.33893
-3.32987
-3.31921
-3.30699
-3.29337
-3.27865
-3.26342
-3.24858
-3.23537
-3.22534
-3.21992
-3.21992
-3.22534
-3.23537
-3.24858
-3.26342
-3.27865
-3.29337
-3.30699
-3.31921
-3.32987
-3.33893
-3.34638
-3.35227
-3.35661
-3.35946
-3.36085
-3.373
-3.3715
-3.36844
-3.36373
-3.35731
-3.3491
-3.33899
-3.3269
-3.31279
-3.29671
-3.27879
-3.2597
-3.24046
-3.22277
-3.20896
-3.20141
-3.20141
-3.20896
-3.22277
-3.24046
-3.2597
-3.27879
-3.29671
-3.31279
-3.3269
-3.33899
-3.3491
-3.35731
-3.36373
-3.36844
-3.3715
-3.373
-3.38718
-3.38561
-3.38239
-3.37742
-3.37059
-3.36176
-3.35075
-3.33736
-3.3214
-3.30283
-3.28124
-3.25746
-3.23249
-3.20849
-3.18909
-3.17835
-3.17835
-3.18909
-3.20849
-3.23249
-3.25746
-3.28124
-3.30283
-3.3214
-3.33736
-3.35075
-3.36176
-3.37059
-3.37742
-3.38239
-3.38561
-3.38718
-3.4036
-3.40201
-3.39873
-3.39365
-3.38662
-3.37743
-3.36582
-3.35143
-3.33384
-3.31252
-3.2876
-3.25855
-3.22624
-3.19324
-3.16532
-3.1498
-3.1498
-3.16532
-3.19324
-3.22624
-3.25855
-3.2876
-3.31252
-3.33384
-3.35143
-3.36582
-3.37743
-3.38662
-3.39365
-3.39873
-3.40201
-3.40359
-3.42245
-3.4209
-3.41771
-3.41272
-3.40579
-3.39665
-3.38494
-3.37019
-3.35177
-3.32887
-3.30072
-3.26621
-3.22488
-3.17886
-3.1377
-3.11477
-3.11477
-3.1377
-3.17886
-3.22488
-3.26621
-3.30072
-3.32887
-3.35176
-3.37019
-3.38494
-3.39664
-3.40579
-3.41272
-3.41771
-3.4209
-3.42245
-3.44388
-3.44246
-3.43951
-3.43489
-3.42843
-3.41987
-3.4088
-3.39467
-3.37667
-3.35371
-3.32427
-3.28598
-3.23542
-3.17247
-3.11106
-3.07718
-3.07718
-3.11106
-3.17247
-3.23541
-3.28598
-3.32427
-3.35371
-3.37667
-3.39466
-3.4088
-3.41986
-3.42843
-3.43489
-3.43951
-3.44246
-3.44388
-3.46799
-3.46678
-3.46425
-3.46029
-3.45475
-3.44741
-3.43789
-3.42569
-3.41001
-3.38973
-3.36318
-3.32648
-3.27042
-3.19655
-3.20909
-3.31461
-3.31461
-3.20909
-3.19655
-3.27041
-3.32648
-3.36318
-3.38973
-3.41001
-3.42569
-3.43789
-3.44741
-3.45475
-3.46029
-3.46424
-3.46677
-3.46799
-3.49477
-3.49385
-3.49192
-3.48892
-3.48476
-3.47929
-3.4723
-3.46347
-3.4523
-3.43829
-3.4205
-3.39245
-3.33625
-3.74148
-5.44969
-5.89072
-5.89071
-5.44966
-3.74142
-3.33625
-3.39245
-3.4205
-3.43829
-3.4523
-3.46346
-3.4723
-3.47929
-3.48476
-3.48892
-3.49192
-3.49384
-3.49476
-3.52413
-3.52357
-3.52241
-3.52061
-3.51819
-3.51511
-3.51139
-3.50706
-3.50224
-3.49745
-3.49286
-3.47993
-3.62204
-5.92142
-6.64035
-6.59462
-6.59462
-6.64035
-5.92133
-3.62199
-3.47993
-3.49286
-3.49744
-3.50223
-3.50706
-3.51139
-3.51511
-3.51818
-3.52061
-3.52241
-3.52357
-3.52413
-3.5559
-3.55576
-3.55545
-3.55501
-3.55451
-3.55405
-3.55384
-3.55432
-3.55617
-3.56056
-3.56718
-3.56851
-4.42408
-6.55602
-6.46803
-6.42636
-6.42636
-6.46803
-6.55602
-4.42397
-3.5685
-3.56717
-3.56055
-3.55617
-3.55431
-3.55384
-3.55404
-3.55451
-3.55501
-3.55545
-3.55576
-3.55589
-3.58981
-3.59012
-3.59071
-3.59166
-3.59305
-3.59504
-3.59798
-3.60239
-3.60895
-3.61861
-3.6308
-3.67473
-5.24473
-6.36131
-6.25743
-6.21656
-6.21656
-6.25743
-6.36131
-5.24459
-3.67471
-3.6308
-3.61861
-3.60894
-3.60238
-3.59797
-3.59504
-3.59305
-3.59165
-3.59071
-3.59011
-3.58981
-3.62558
-3.62632
-3.62781
-3.63008
-3.63318
-3.63723
-3.64242
-3.64873
-3.65621
-3.66511
-3.67521
-3.78763
-5.8018
-6.09441
-6.00581
-5.96775
-5.96775
-6.00581
-6.09441
-5.80173
-3.7876
-3.6752
-3.66511
-3.6562
-3.64873
-3.64241
-3.63722
-3.63318
-3.63008
-3.6278
-3.62632
-3.62557
-3.66285
-3.66404
-3.6664
-3.66992
-3.67455
-3.68021
-3.68655
-3.69265
-3.69754
-3.70096
-3.70234
-3.82613
-5.76784
-5.79535
-5.72401
-5.69394
-5.69394
-5.72401
-5.79535
-5.76782
-3.82611
-3.70233
-3.70095
-3.69754
-3.69264
-3.68654
-3.68021
-3.67455
-3.66992
-3.66639
-3.66403
-3.66284
-3.70126
-3.70292
-3.70618
-3.71097
-3.71709
-3.72411
-3.73089
-3.73562
-3.73623
-3.73121
-3.72233
-4.58854
-5.52228
-5.47933
-5.42222
-5.39896
-5.39896
-5.42222
-5.47932
-5.52227
-4.58849
-3.72233
-3.73121
-3.73623
-3.73561
-3.73088
-3.72411
-3.71709
-3.71096
-3.70617
-3.70292
-3.70126
-3.74039
-3.74256
-3.74682
-3.75305
-3.76087
-3.76939
-3.77673
-3.78002
-3.77592
-3.76227
-3.89837
-5.13107
-5.21697
-5.15674
-5.11324
-5.09341
-5.09341
-5.11324
-5.15674
-5.21696
-5.13106
-3.89836
-3.76226
-3.77592
-3.78002
-3.77673
-3.76938
-3.76087
-3.75304
-3.74682
-3.74256
-3.74039
-3.77968
-3.78245
-3.7879
-3.79591
-3.8059
-3.81652
-3.82519
-3.82764
-3.81689
-3.81395
-4.64437
-4.93708
-4.89204
-4.84173
-4.80661
-4.78935
-4.78935
-4.80661
-4.84173
-4.89204
-4.93708
-4.64436
-3.81395
-3.81688
-3.82764
-3.82518
-3.81651
-3.8059
-3.7959
-3.7879
-3.78244
-3.77968
-3.81841
-3.82188
-3.82878
-3.83901
-3.85181
-3.86529
-3.87639
-3.87821
-3.85755
-4.28641
-4.66056
-4.62702
-4.57817
-4.53505
-4.50558
-4.4912
-4.4912
-4.50558
-4.53505
-4.57817
-4.62702
-4.66055
-4.2864
-3.85755
-3.8782
-3.87639
-3.86529
-3.8518
-3.839
-3.82878
-3.82187
-3.81841
-3.85565
-3.85989
-3.86848
-3.88135
-3.89743
-3.91438
-3.92851
-3.9312
-4.02731
-4.38211
-4.37133
-4.32204
-4.27557
-4.23825
-4.2134
-4.20132
-4.20132
-4.21339
-4.23824
-4.27556
-4.32204
-4.37132
-4.3821
-4.02731
-3.9312
-3.92851
-3.91438
-3.89743
-3.88135
-3.86848
-3.85989
-3.85564
-3.89016
-3.89523
-3.90567
-3.92133
-3.94078
-3.96145
-3.9774
-3.97113
-4.09658
-4.12305
-4.07651
-4.02655
-3.98395
-3.95197
-3.93123
-3.92108
-3.92108
-3.93123
-3.95197
-3.98394
-4.02655
-4.07651
-4.12305
-4.09658
-3.97112
-3.9774
-3.96145
-3.94077
-3.92133
-3.90567
-3.89523
-3.89016
-3.92059
-3.92649
-3.93881
-3.95698
-3.97949
-4.00327
-4.02197
-3.97592
-3.90225
-3.84215
-3.78362
-3.73705
-3.70171
-3.67609
-3.65965
-3.6516
-3.6516
-3.65965
-3.67609
-3.70171
-3.73705
-3.78361
-3.84214
-3.90225
-3.97592
-4.02196
-4.00326
-3.97948
-3.95698
-3.93881
-3.92649
-3.92058
-3.94548
-3.95235
-3.96607
-3.98608
-4.01139
-4.03888
-4.06014
-3.77406
-3.59574
-3.54414
-3.49243
-3.45607
-3.43019
-3.41178
-3.40009
-3.39441
-3.39441
-3.40009
-3.41178
-3.43019
-3.45607
-3.49243
-3.54413
-3.59574
-3.77405
-4.06013
-4.03887
-4.01139
-3.98608
-3.96607
-3.95234
-3.94548
-3.96411
-3.97151
-3.98576
-4.00662
-4.0326
-4.05865
-3.97231
-3.41134
-3.29222
-3.24511
-3.20889
-3.18666
-3.17152
-3.16102
-3.15452
-3.1514
-3.1514
-3.15452
-3.16102
-3.17152
-3.18665
-3.20889
-3.2451
-3.29221
-3.41133
-3.97229
-4.05865
-4.0326
-4.00662
-3.98576
-3.97151
-3.96411
-3.97582
-3.98295
-3.99721
-4.01797
-4.04299
-4.06596
-3.75324
-3.05393
-2.986
-2.95642
-2.94017
-2.93284
-2.92864
-2.92626
-2.92507
-2.92456
-2.92456
-2.92507
-2.92626
-2.92864
-2.93284
-2.94017
-2.95642
-2.986
-3.05392
-3.75322
-4.06596
-4.04299
-4.01797
-3.99721
-3.98295
-3.97581
-3.97999
-3.98696
-4.00089
-4.02095
-4.04433
-4.06854
-3.43444
-2.71171
-2.69421
-2.68719
-2.69064
-2.69754
-2.70424
-2.70979
-2.71369
-2.71568
-2.71568
-2.71369
-2.70979
-2.70424
-2.69754
-2.69064
-2.68719
-2.6942
-2.71171
-3.43441
-4.06854
-4.04433
-4.02095
-4.00089
-3.98695
-3.97999
-3.97847
-3.98515
-3.99836
-4.01696
-4.03602
-3.96146
-2.80759
-2.41175
-2.42219
-2.44101
-2.46371
-2.48414
-2.50088
-2.51353
-2.52196
-2.52616
-2.52616
-2.52197
-2.51353
-2.50088
-2.48414
-2.46371
-2.44101
-2.4222
-2.41175
-2.80756
-3.96144
-4.03602
-4.01696
-3.99837
-3.98515
-3.97847
-3.97412
-3.9804
-3.99285
-4.01072
-4.02919
-3.22743
-2.12948
-2.14232
-2.18336
-2.22557
-2.26382
-2.29544
-2.32035
-2.33873
-2.35081
-2.35678
-2.35678
-2.35081
-2.33873
-2.32035
-2.29544
-2.26382
-2.22557
-2.18336
-2.14232
-2.12948
-3.22738
-4.02919
-4.01072
-3.99285
-3.9804
-3.97412
-3.9704
-3.97598
-3.98685
-4.005
-3.37858
-1.90031
-1.84662
-1.92185
-1.98653
-2.04447
-2.09328
-2.13269
-2.1633
-2.18571
-2.20037
-2.2076
-2.2076
-2.20037
-2.18571
-2.1633
-2.13269
-2.09328
-2.04448
-1.98653
-1.92185
-1.84663
-1.90029
-3.37854
-4.005
-3.98686
-3.97598
-3.9704
-3.80159
-3.7552
-3.5689
-2.81526
-1.61554
-1.55934
-1.66555
-1.75548
-1.83257
-1.89788
-1.95196
-1.99546
-2.02919
-2.05387
-2.07002
-2.07799
-2.07799
-2.07002
-2.05387
-2.0292
-1.99546
-1.95196
-1.89789
-1.83257
-1.75549
-1.66555
-1.55934
-1.61553
-2.81524
-3.5689
-3.7552
-3.8016
-1.71887
-1.64574
-1.45764
-1.26025
-1.33164
-1.44354
-1.54707
-1.63827
-1.71644
-1.78254
-1.83745
-1.88185
-1.91644
-1.94183
-1.95849
-1.96673
-1.96673
-1.95849
-1.94183
-1.91644
-1.88185
-1.83745
-1.78254
-1.71645
-1.63827
-1.54708
-1.44354
-1.33164
-1.26025
-1.45764
-1.64574
-1.71887
-1.04828
-1.07388
-1.12428
-1.19677
-1.28828
-1.38429
-1.47547
-1.55807
-1.63096
-1.6936
-1.74619
-1.78912
-1.82282
-1.8477
-1.86408
-1.8722
-1.8722
-1.86408
-1.8477
-1.82282
-1.78912
-1.74619
-1.6936
-1.63096
-1.55808
-1.47547
-1.38429
-1.28828
-1.19677
-1.12428
-1.07388
-1.04828
-1.08554
-1.10617
-1.14648
-1.20529
-1.27785
-1.3555
-1.43228
-1.50413
-1.56903
-1.62586
-1.67425
-1.71419
-1.74581
-1.7693
-1.78484
-1.79257
-1.79257
-1.78484
-1.7693
-1.74581
-1.71419
-1.67425
-1.62586
-1.56904
-1.50413
-1.43228
-1.3555
-1.27785
-1.20529
-1.14648
-1.10617
-1.08554
-1.12799
-1.14466
-1.17717
-1.22394
-1.28117
-1.34386
-1.40746
-1.46839
-1.52458
-1.57466
-1.61792
-1.65403
-1.68288
-1.70445
-1.71879
-1.72594
-1.72594
-1.71879
-1.70445
-1.68288
-1.65404
-1.61792
-1.57467
-1.52458
-1.46839
-1.40747
-1.34386
-1.28117
-1.22395
-1.17718
-1.14466
-1.12799
-1.16953
-1.18282
-1.20871
-1.24575
-1.29128
-1.34183
-1.39399
-1.44495
-1.49278
-1.53607
-1.57396
-1.60593
-1.63169
-1.65107
-1.66401
-1.67048
-1.67048
-1.66401
-1.65107
-1.63169
-1.60593
-1.57397
-1.53607
-1.49278
-1.44496
-1.394
-1.34183
-1.29129
-1.24575
-1.20871
-1.18282
-1.16953
-1.20722
-1.2178
-1.23839
-1.26785
-1.30419
-1.34491
-1.38752
-1.42979
-1.47005
-1.50698
-1.53968
-1.56753
-1.59015
-1.60727
-1.61874
-1.62449
-1.62449
-1.61874
-1.60727
-1.59015
-1.56753
-1.53968
-1.50698
-1.47005
-1.42979
-1.38752
-1.34491
-1.30419
-1.26785
-1.23839
-1.2178
-1.20722
-1.24022
-1.24866
-1.26506
-1.28856
-1.31764
-1.35049
-1.38523
-1.42009
-1.45377
-1.48499
-1.5129
-1.53688
-1.55648
-1.5714
-1.58144
-1.58648
-1.58648
-1.58144
-1.5714
-1.55648
-1.53688
-1.5129
-1.48499
-1.45377
-1.4201
-1.38523
-1.35049
-1.31764
-1.28856
-1.26507
-1.24866
-1.24023
-1.26852
-1.27525
-1.28836
-1.30715
-1.3305
-1.35706
-1.38541
-1.41422
-1.44213
-1.46831
-1.49193
-1.51238
-1.5292
-1.54206
-1.55074
-1.55511
-1.55511
-1.55074
-1.54206
-1.5292
-1.51238
-1.49193
-1.46831
-1.44213
-1.41422
-1.38541
-1.35707
-1.33051
-1.30716
-1.28836
-1.27525
-1.26852
-1.29245
-1.29785
-1.30835
-1.32344
-1.34224
-1.36376
-1.38687
-1.41053
-1.4337
-1.45557
-1.47545
-1.49276
-1.50708
-1.51807
-1.52551
-1.52927
-1.52927
-1.52551
-1.51807
-1.50708
-1.49276
-1.47545
-1.45557
-1.4337
-1.41053
-1.38688
-1.36376
-1.34225
-1.32344
-1.30836
-1.29785
-1.29246
-1.31253
-1.31687
-1.32531
-1.33746
-1.35265
-1.37011
-1.38898
-1.40841
-1.42758
-1.44579
-1.46244
-1.47702
-1.48912
-1.49846
-1.50479
-1.50799
-1.50799
-1.50479
-1.49846
-1.48912
-1.47702
-1.46244
-1.44579
-1.42758
-1.40841
-1.38898
-1.37011
-1.35265
-1.33746
-1.32532
-1.31687
-1.31254
-1.32929
-1.33278
-1.33959
-1.3494
-1.3617
-1.3759
-1.39131
-1.40727
-1.4231
-1.43823
-1.45212
-1.46435
-1.47453
-1.48241
-1.48777
-1.49048
-1.49048
-1.48777
-1.48241
-1.47454
-1.46435
-1.45213
-1.43823
-1.4231
-1.40727
-1.39131
-1.3759
-1.3617
-1.3494
-1.33959
-1.33278
-1.32929
-1.34321
-1.34603
-1.35154
-1.35948
-1.36947
-1.38103
-1.39364
-1.40674
-1.41981
-1.43235
-1.44391
-1.45412
-1.46266
-1.46928
-1.4738
-1.47608
-1.47608
-1.4738
-1.46928
-1.46266
-1.45412
-1.44391
-1.43235
-1.41981
-1.40674
-1.39364
-1.38103
-1.36947
-1.35948
-1.35154
-1.34603
-1.34321
-1.35475
-1.35704
-1.3615
-1.36795
-1.37608
-1.38551
-1.39583
-1.40659
-1.41736
-1.42774
-1.43734
-1.44585
-1.45299
-1.45853
-1.46232
-1.46423
-1.46423
-1.46232
-1.45853
-1.45299
-1.44585
-1.43735
-1.42774
-1.41736
-1.40659
-1.39583
-1.38551
-1.37608
-1.36795
-1.3615
-1.35704
-1.35475
-1.3643
-1.36616
-1.36979
-1.37503
-1.38166
-1.38936
-1.39781
-1.40665
-1.41553
-1.42411
-1.43207
-1.43915
-1.44509
-1.44972
-1.45288
-1.45449
-1.45449
-1.45288
-1.44972
-1.44509
-1.43915
-1.43208
-1.42411
-1.41553
-1.40665
-1.39781
-1.38936
-1.38166
-1.37503
-1.36979
-1.36616
-1.3643
-1.37219
-1.3737
-1.37666
-1.38093
-1.38634
-1.39264
-1.39957
-1.40683
-1.41415
-1.42124
-1.42783
-1.4337
-1.43864
-1.4425
-1.44513
-1.44647
-1.44647
-1.44514
-1.4425
-1.43864
-1.4337
-1.42783
-1.42124
-1.41415
-1.40683
-1.39957
-1.39264
-1.38634
-1.38093
-1.37666
-1.3737
-1.37219
-1.3787
-1.37994
-1.38235
-1.38584
-1.39026
-1.39542
-1.4011
-1.40707
-1.4131
-1.41895
-1.4244
-1.42926
-1.43337
-1.43657
-1.43877
-1.43988
-1.43988
-1.43877
-1.43657
-1.43337
-1.42926
-1.4244
-1.41895
-1.4131
-1.40707
-1.4011
-1.39542
-1.39026
-1.38584
-1.38235
-1.37994
-1.37871
-1.38408
-1.38509
-1.38705
-1.38991
-1.39353
-1.39775
-1.40241
-1.40732
-1.41229
-1.41711
-1.42162
-1.42565
-1.42905
-1.43171
-1.43353
-1.43446
-1.43446
-1.43353
-1.43171
-1.42905
-1.42565
-1.42162
-1.41711
-1.41229
-1.40733
-1.40242
-1.39775
-1.39353
-1.38991
-1.38706
-1.38509
-1.38408
-1.38851
-1.38933
-1.39094
-1.39328
-1.39624
-1.39971
-1.40354
-1.40757
-1.41166
-1.41564
-1.41936
-1.42269
-1.42551
-1.42771
-1.42922
-1.42999
-1.42999
-1.42922
-1.42771
-1.42551
-1.42269
-1.41936
-1.41564
-1.41166
-1.40757
-1.40354
-1.39971
-1.39624
-1.39328
-1.39094
-1.38933
-1.38851
-1.39216
-1.39284
-1.39416
-1.39607
-1.3985
-1.40134
-1.40449
-1.40781
-1.41117
-1.41445
-1.41753
-1.42028
-1.42261
-1.42443
-1.42568
-1.42632
-1.42632
-1.42568
-1.42443
-1.42261
-1.42028
-1.41753
-1.41445
-1.41117
-1.40781
-1.40449
-1.40134
-1.3985
-1.39607
-1.39416
-1.39284
-1.39216
-1.39517
-1.39573
-1.39681
-1.39838
-1.40037
-1.4027
-1.40529
-1.40802
-1.41079
-1.41349
-1.41603
-1.4183
-1.42023
-1.42173
-1.42277
-1.4233
-1.4233
-1.42277
-1.42173
-1.42023
-1.4183
-1.41603
-1.41349
-1.41079
-1.40802
-1.40529
-1.4027
-1.40037
-1.39838
-1.39681
-1.39573
-1.39517
-1.39765
-1.39811
-1.39899
-1.40028
-1.40192
-1.40383
-1.40596
-1.4082
-1.41049
-1.41271
-1.41481
-1.41668
-1.41827
-1.41952
-1.42037
-1.42081
-1.42081
-1.42037
-1.41952
-1.41827
-1.41668
-1.41481
-1.41271
-1.41049
-1.4082
-1.40596
-1.40383
-1.40192
-1.40028
-1.39899
-1.39811
-1.39765
-1.3997
-1.40007
-1.4008
-1.40185
-1.4032
-1.40477
-1.40652
-1.40837
-1.41024
-1.41208
-1.4138
-1.41535
-1.41666
-1.41769
-1.4184
-1.41876
-1.41876
-1.4184
-1.41769
-1.41666
-1.41535
-1.4138
-1.41208
-1.41024
-1.40837
-1.40652
-1.40477
-1.4032
-1.40185
-1.4008
-1.40007
-1.3997
-1.40138
-1.40168
-1.40228
-1.40315
-1.40425
-1.40555
-1.40698
-1.40851
-1.41005
-1.41156
-1.41299
-1.41426
-1.41534
-1.41619
-1.41678
-1.41707
-1.41707
-1.41678
-1.41619
-1.41534
-1.41426
-1.41299
-1.41156
-1.41005
-1.40851
-1.40698
-1.40555
-1.40425
-1.40315
-1.40228
-1.40168
-1.40138
-1.40276
-1.40301
-1.40351
-1.40422
-1.40513
-1.40619
-1.40737
-1.40862
-1.4099
-1.41114
-1.41231
-1.41337
-1.41426
-1.41496
-1.41544
-1.41569
-1.41569
-1.41544
-1.41496
-1.41426
-1.41337
-1.41231
-1.41114
-1.4099
-1.40862
-1.40737
-1.40619
-1.40513
-1.40422
-1.40351
-1.40302
-1.40276
-1.40391
-1.40411
-1.40451
-1.4051
-1.40585
-1.40672
-1.40769
-1.40872
-1.40977
-1.4108
-1.41176
-1.41263
-1.41337
-1.41394
-1.41434
-1.41454
-1.41454
-1.41434
-1.41394
-1.41337
-1.41263
-1.41176
-1.4108
-1.40977
-1.40872
-1.40769
-1.40672
-1.40585
-1.4051
-1.40451
-1.40411
-1.40391
-1.40484
-1.40501
-1.40535
-1.40583
-1.40644
-1.40716
-1.40796
-1.40881
-1.40967
-1.41052
-1.41131
-1.41203
-1.41263
-1.41311
-1.41344
-1.4136
-1.4136
-1.41344
-1.41311
-1.41263
-1.41203
-1.41131
-1.41052
-1.40967
-1.40881
-1.40796
-1.40716
-1.40644
-1.40583
-1.40535
-1.40501
-1.40485
-1.40562
-1.40576
-1.40603
-1.40643
-1.40693
-1.40752
-1.40818
-1.40888
-1.40959
-1.41029
-1.41094
-1.41153
-1.41203
-1.41242
-1.41269
-1.41283
-1.41283
-1.41269
-1.41242
-1.41203
-1.41153
-1.41094
-1.41029
-1.40959
-1.40888
-1.40818
-1.40752
-1.40693
-1.40643
-1.40603
-1.40576
-1.40562
-1.40626
-1.40637
-1.40659
-1.40692
-1.40733
-1.40782
-1.40836
-1.40894
-1.40952
-1.4101
-1.41064
-1.41112
-1.41153
-1.41186
-1.41208
-1.41219
-1.41219
-1.41208
-1.41186
-1.41153
-1.41112
-1.41064
-1.4101
-1.40952
-1.40894
-1.40836
-1.40782
-1.40734
-1.40692
-1.40659
-1.40637
-1.40626
-1.40678
-1.40687
-1.40706
-1.40733
-1.40767
-1.40807
-1.40851
-1.40899
-1.40947
-1.40994
-1.41039
-1.41078
-1.41112
-1.41139
-1.41157
-1.41167
-1.41167
-1.41157
-1.41139
-1.41112
-1.41078
-1.41039
-1.40994
-1.40947
-1.40899
-1.40851
-1.40807
-1.40767
-1.40733
-1.40706
-1.40687
-1.40678
-1.40721
-1.40729
-1.40744
-1.40766
-1.40794
-1.40827
-1.40864
-1.40903
-1.40942
-1.40981
-1.41018
-1.41051
-1.41079
-1.41101
-1.41116
-1.41124
-1.41124
-1.41116
-1.41101
-1.41079
-1.41051
-1.41018
-1.40981
-1.40942
-1.40903
-1.40864
-1.40827
-1.40794
-1.40766
-1.40744