/*--------------------------------*- C++ -*----------------------------------*\
  =========                 |
  \\      /  F ield         | OpenFOAM: The Open Source CFD Toolbox
   \\    /   O peration     | Website:  https://openfoam.org
    \\  /    A nd           | Version:  9
     \\/     M anipulation  |
\*---------------------------------------------------------------------------*/
FoamFile
{
    format      ascii;
    class       surfaceScalarField;
    location    "0.45";
    object      phi;
}
// * * * * * * * * * * * * * * * * * * * * * * * * * * * * * * * * * * * * * //

dimensions      [0 3 -1 0 0 0 0];

internalField   nonuniform List<scalar> 
8032
(
-3.58778e-08
3.62335e-08
-7.26051e-08
3.4804e-08
-1.05291e-07
3.28893e-08
-1.3428e-07
2.92551e-08
-1.58275e-07
2.42137e-08
-1.76283e-07
1.8159e-08
-1.87552e-07
1.13627e-08
-1.91592e-07
4.09649e-09
-1.88212e-07
-3.3455e-09
-1.77523e-07
-1.06664e-08
-1.59929e-07
-1.75775e-08
-1.36108e-07
-2.3807e-08
-1.06986e-07
-2.91112e-08
-7.36941e-08
-3.32826e-08
-3.75271e-08
-3.61586e-08
1.07633e-10
-3.76271e-08
3.77456e-08
-3.7631e-08
7.39223e-08
-3.61703e-08
1.0723e-07
-3.33019e-08
1.36374e-07
-2.91377e-08
1.60219e-07
-2.38401e-08
1.7784e-07
-1.76158e-08
1.88554e-07
-1.07081e-08
1.91946e-07
-3.38739e-09
1.87893e-07
4.05841e-09
1.76564e-07
1.13346e-08
1.58419e-07
1.81501e-08
1.34198e-07
2.42265e-08
1.04899e-07
2.93042e-08
7.17579e-08
3.31457e-08
3.62352e-08
3.5531e-08
3.62377e-08
-3.83884e-08
7.44408e-08
-7.63633e-08
7.27639e-08
-1.11294e-07
6.79627e-08
-1.42049e-07
6.02062e-08
-1.67471e-07
4.98122e-08
-1.86532e-07
3.73468e-08
-1.98439e-07
2.33542e-08
-2.02692e-07
8.40341e-09
-1.99098e-07
-6.90501e-09
-1.87777e-07
-2.19635e-08
-1.69158e-07
-3.61782e-08
-1.43961e-07
-4.8991e-08
-1.13159e-07
-5.99003e-08
-7.79521e-08
-6.84797e-08
-3.9707e-08
-7.43945e-08
8.82754e-11
-7.74141e-08
3.98859e-08
-7.74209e-08
7.81376e-08
-7.44149e-08
1.13356e-07
-6.85133e-08
1.44171e-07
-5.99462e-08
1.69384e-07
-4.90476e-08
1.88017e-07
-3.62427e-08
1.99346e-07
-2.20319e-08
2.02937e-07
-6.97169e-09
1.98655e-07
8.34594e-09
1.86681e-07
2.33148e-08
1.67501e-07
3.7336e-08
1.41896e-07
4.98372e-08
1.10919e-07
6.02872e-08
7.58724e-08
6.81979e-08
3.82991e-08
7.31092e-08
7.45422e-08
-4.1699e-08
1.15979e-07
-8.25907e-08
1.13573e-07
-1.20572e-07
1.0598e-07
-1.5401e-07
9.37498e-08
-1.81618e-07
7.75337e-08
-2.02291e-07
5.8114e-08
-2.1519e-07
3.63209e-08
-2.19783e-07
1.30432e-08
-2.15868e-07
-1.07877e-08
-2.03582e-07
-3.42271e-08
-1.8339e-07
-5.63521e-08
-1.56073e-07
-7.62945e-08
-1.22687e-07
-9.32737e-08
-8.45306e-08
-1.06626e-07
-4.30849e-08
-1.15831e-07
3.85085e-11
-1.20529e-07
4.31629e-08
-1.20538e-07
8.46113e-08
-1.15856e-07
1.22772e-07
-1.06667e-07
1.56161e-07
-9.33292e-08
1.83482e-07
-7.63619e-08
2.03672e-07
-5.64272e-08
2.1595e-07
-3.43042e-08
2.19843e-07
-1.08589e-08
2.15208e-07
1.29869e-08
2.02239e-07
3.62898e-08
1.81464e-07
5.81176e-08
1.53727e-07
7.75799e-08
1.2017e-07
9.38491e-08
8.22042e-08
1.06169e-07
4.1501e-08
1.13823e-07
1.16045e-07
-4.63096e-08
1.6217e-07
-9.17453e-08
1.58926e-07
-1.33988e-07
1.48224e-07
-1.71225e-07
1.31043e-07
-2.01962e-07
1.08344e-07
-2.24966e-07
8.11847e-08
-2.39309e-07
5.07172e-08
-2.44408e-07
1.81816e-08
-2.40045e-07
-1.5122e-08
-2.26375e-07
-4.78757e-08
-2.0392e-07
-7.87907e-08
-1.73546e-07
-1.06655e-07
-1.3643e-07
-1.30378e-07
-9.40124e-08
-1.49033e-07
-4.79414e-08
-1.61893e-07
-7.43969e-12
-1.68455e-07
4.79262e-08
-1.68464e-07
9.39961e-08
-1.61919e-07
1.36411e-07
-1.49076e-07
1.73522e-07
-1.30434e-07
2.03888e-07
-1.06722e-07
2.2633e-07
-7.88627e-08
2.39977e-07
-4.7946e-08
2.44306e-07
-1.51819e-08
2.39157e-07
1.81415e-08
2.24746e-07
5.07062e-08
2.01661e-07
8.12095e-08
1.70838e-07
1.08407e-07
1.33548e-07
1.31146e-07
9.13593e-08
1.48364e-07
4.61252e-08
1.5906e-07
1.62176e-07
-5.26086e-08
2.14652e-07
-1.04199e-07
2.10442e-07
-1.52227e-07
1.96235e-07
-1.94605e-07
1.73444e-07
-2.2959e-07
1.43372e-07
-2.55771e-07
1.0741e-07
-2.72093e-07
6.70784e-08
-2.77896e-07
2.40162e-08
-2.72936e-07
-2.00572e-08
-2.57392e-07
-6.33992e-08
-2.31861e-07
-1.04306e-07
-1.97328e-07
-1.41174e-07
-1.55132e-07
-1.72563e-07
-1.06911e-07
-1.97245e-07
-5.45375e-08
-2.14257e-07
-4.71425e-11
-2.22937e-07
5.4442e-08
-2.22946e-07
1.06812e-07
-2.14282e-07
1.55026e-07
-1.97284e-07
1.97211e-07
-1.72613e-07
2.31728e-07
-1.41233e-07
2.57237e-07
-1.04366e-07
2.72751e-07
-6.34537e-08
2.77672e-07
-2.00975e-08
2.7182e-07
2.39985e-08
2.55442e-07
6.70899e-08
2.29204e-07
1.07454e-07
1.94173e-07
1.43444e-07
1.51791e-07
1.73532e-07
1.03839e-07
1.9632e-07
5.2429e-08
2.10482e-07
2.14606e-07
-6.08441e-08
2.75448e-07
-1.20508e-07
2.70058e-07
-1.76101e-07
2.5181e-07
-2.25188e-07
2.22541e-07
-2.65725e-07
1.83936e-07
-2.96065e-07
1.37781e-07
-3.14983e-07
8.60268e-08
-3.21716e-07
3.07755e-08
-3.15984e-07
-2.57679e-08
-2.97996e-07
-8.13696e-08
-2.68442e-07
-1.33845e-07
-2.28466e-07
-1.81138e-07
-1.79617e-07
-2.214e-07
-1.23793e-07
-2.53059e-07
-6.31618e-08
-2.7488e-07
-7.99974e-11
-2.86011e-07
6.30001e-08
-2.86018e-07
1.23626e-07
-2.74901e-07
1.79441e-07
-2.53092e-07
2.28276e-07
-2.21442e-07
2.68233e-07
-1.81184e-07
2.97762e-07
-1.3389e-07
3.1572e-07
-8.14059e-08
3.21416e-07
-2.57882e-08
3.14642e-07
3.07776e-08
2.95684e-07
8.60541e-08
2.65312e-07
1.37831e-07
2.24762e-07
1.83998e-07
1.75704e-07
2.22597e-07
1.202e-07
2.5183e-07
6.06881e-08
2.69995e-07
2.75301e-07
-7.13775e-08
3.46758e-07
-1.41361e-07
3.40001e-07
-2.06604e-07
3.17036e-07
-2.64238e-07
2.80177e-07
-3.1185e-07
2.31563e-07
-3.47494e-07
1.73446e-07
-3.69728e-07
1.08283e-07
-3.77653e-07
3.87216e-08
-3.70939e-07
-3.24631e-08
-3.49834e-07
-1.02459e-07
-3.15147e-07
-1.68517e-07
-2.68222e-07
-2.28051e-07
-2.10878e-07
-2.78733e-07
-1.45343e-07
-3.18585e-07
-7.41631e-08
-3.46051e-07
-1.05851e-10
-3.60061e-07
7.39496e-08
-3.60067e-07
1.45124e-07
-3.46068e-07
2.10649e-07
-3.18611e-07
2.67979e-07
-2.78766e-07
3.14886e-07
-2.28086e-07
3.4955e-07
-1.68548e-07
3.70629e-07
-1.0248e-07
3.77314e-07
-3.24678e-08
3.69361e-07
3.87364e-08
3.47104e-07
1.08317e-07
3.11449e-07
1.73492e-07
2.63848e-07
2.31605e-07
2.06258e-07
2.8019e-07
1.41102e-07
3.1699e-07
7.12442e-08
3.39865e-07
3.46545e-07
-8.46094e-08
4.31352e-07
-1.67576e-07
4.22945e-07
-2.44941e-07
3.94388e-07
-3.13302e-07
3.48538e-07
-3.69791e-07
2.88061e-07
-4.12091e-07
2.15761e-07
-4.38487e-07
1.34696e-07
-4.4791e-07
4.8161e-08
-4.39965e-07
-4.03917e-08
-4.14946e-07
-1.27465e-07
-3.73813e-07
-2.09638e-07
-3.18158e-07
-2.83694e-07
-2.50142e-07
-3.46739e-07
-1.72407e-07
-3.96311e-07
-8.79733e-08
-4.30476e-07
-1.25153e-10
-4.47901e-07
8.77213e-08
-4.47906e-07
1.7215e-07
-4.3049e-07
2.49877e-07
-3.96332e-07
3.17881e-07
-3.46764e-07
3.7352e-07
-2.83719e-07
4.14636e-07
-2.09658e-07
4.39636e-07
-1.27475e-07
4.47561e-07
-4.03883e-08
4.38123e-07
4.81795e-08
4.1172e-07
1.34726e-07
3.69425e-07
2.15791e-07
3.12962e-07
2.88073e-07
2.44652e-07
3.48506e-07
1.67369e-07
3.9428e-07
8.45047e-08
4.22729e-07
4.31057e-07
-1.01072e-07
5.32383e-07
-2.00178e-07
5.22028e-07
-2.92605e-07
4.86803e-07
-3.74291e-07
4.30222e-07
-4.41803e-07
3.55579e-07
-4.92369e-07
2.66337e-07
-5.23933e-07
1.66273e-07
-5.35215e-07
5.94561e-08
-5.25741e-07
-4.98525e-08
-4.95858e-07
-1.57335e-07
-4.46714e-07
-2.5877e-07
-3.80213e-07
-3.50186e-07
-2.98933e-07
-4.28009e-07
-2.06034e-07
-4.89202e-07
-1.05128e-07
-5.31375e-07
-1.38913e-10
-5.52883e-07
1.04849e-07
-5.52888e-07
2.05751e-07
-5.31387e-07
2.98644e-07
-4.89219e-07
3.79915e-07
-4.2803e-07
4.46406e-07
-3.50206e-07
4.95538e-07
-2.58785e-07
5.25409e-07
-1.57342e-07
5.34874e-07
-4.98486e-08
5.23589e-07
5.94697e-08
4.9203e-07
1.6629e-07
4.41482e-07
2.66345e-07
3.74003e-07
3.55557e-07
2.92369e-07
4.30143e-07
2.00011e-07
4.8664e-07
1.00989e-07
5.21765e-07
5.32045e-07
-1.21385e-07
6.53765e-07
-2.40415e-07
6.41047e-07
-3.5143e-07
5.97809e-07
-4.49554e-07
5.28344e-07
-5.30662e-07
4.3669e-07
-5.91421e-07
3.27103e-07
-6.29359e-07
2.04221e-07
-6.42933e-07
7.30409e-08
-6.31571e-07
-6.12028e-08
-5.95689e-07
-1.93207e-07
-5.36662e-07
-3.17786e-07
-4.56777e-07
-4.30062e-07
-3.59132e-07
-5.25645e-07
-2.47523e-07
-6.00803e-07
-1.26289e-07
-6.52601e-07
-1.48499e-10
-6.79018e-07
1.25992e-07
-6.79021e-07
2.47222e-07
-6.52612e-07
3.58828e-07
-6.00819e-07
4.56467e-07
-5.25664e-07
5.36347e-07
-4.30081e-07
5.95369e-07
-3.17802e-07
6.31248e-07
-1.93217e-07
6.42609e-07
-6.12057e-08
6.29042e-07
7.3042e-08
5.91118e-07
2.04219e-07
5.30384e-07
3.27083e-07
4.49313e-07
4.36632e-07
3.51239e-07
5.28223e-07
2.40287e-07
5.976e-07
1.21322e-07
6.40727e-07
6.53374e-07
-1.46339e-07
8.00076e-07
-2.89833e-07
7.84526e-07
-4.23671e-07
7.31639e-07
-5.41976e-07
6.46646e-07
-6.39775e-07
5.34492e-07
-7.13048e-07
4.00381e-07
-7.58811e-07
2.49991e-07
-7.75199e-07
8.94379e-08
-7.6152e-07
-7.48718e-08
-7.18272e-07
-2.36446e-07
-6.47111e-07
-3.88937e-07
-5.50792e-07
-5.26372e-07
-4.33052e-07
-6.43377e-07
-2.98467e-07
-7.35381e-07
-1.52271e-07
-7.9879e-07
-1.55361e-10
-8.31127e-07
1.5196e-07
-8.31131e-07
2.98155e-07
-7.988e-07
4.32739e-07
-7.35398e-07
5.50477e-07
-6.43398e-07
6.46796e-07
-5.26394e-07
7.17957e-07
-3.88958e-07
7.61209e-07
-2.36464e-07
7.74894e-07
-7.48874e-08
7.5852e-07
8.94209e-08
7.12779e-07
2.49964e-07
6.39536e-07
4.0033e-07
5.41775e-07
5.34398e-07
4.23516e-07
6.46484e-07
2.89729e-07
7.31388e-07
1.46289e-07
7.84181e-07
7.99662e-07
-1.76874e-07
9.76952e-07
-3.50314e-07
9.5796e-07
-5.12084e-07
8.93404e-07
-6.55088e-07
7.89647e-07
-7.73315e-07
6.52719e-07
-8.61903e-07
4.88973e-07
-9.17243e-07
3.05337e-07
-9.37078e-07
1.0928e-07
-9.20567e-07
-9.13744e-08
-8.68307e-07
-2.88698e-07
-7.82298e-07
-4.74938e-07
-6.65867e-07
-6.42796e-07
-5.23531e-07
-7.85706e-07
-3.60823e-07
-8.98082e-07
-1.84072e-07
-9.75533e-07
-1.60799e-10
-1.01503e-06
1.83751e-07
-1.01504e-06
3.60502e-07
-9.75546e-07
5.23211e-07
-8.98102e-07
6.65549e-07
-7.85731e-07
7.81983e-07
-6.42824e-07
8.67997e-07
-4.74968e-07
9.20267e-07
-2.8873e-07
9.36791e-07
-9.14076e-08
9.16975e-07
1.09241e-07
8.61661e-07
3.05283e-07
7.73105e-07
4.8889e-07
6.54917e-07
6.52589e-07
5.11956e-07
7.8945e-07
3.50232e-07
8.9312e-07
1.76835e-07
9.57573e-07
9.76504e-07
-2.14164e-07
1.19109e-06
-4.24166e-07
1.16795e-06
-6.20044e-07
1.08928e-06
-7.93207e-07
9.62808e-07
-9.36379e-07
7.95892e-07
-1.04367e-06
5.96269e-07
-1.11071e-06
3.72383e-07
-1.13476e-06
1.33337e-07
-1.1148e-06
-1.1133e-07
-1.05154e-06
-3.51951e-07
-9.47403e-07
-5.79068e-07
-8.06413e-07
-7.83779e-07
-6.3404e-07
-9.58073e-07
-4.36984e-07
-1.09513e-06
-2.22914e-07
-1.1896e-06
-1.65861e-10
-1.23778e-06
2.22582e-07
-1.23778e-06
4.36654e-07
-1.18961e-06
6.33713e-07
-1.09516e-06
8.06091e-07
-9.58105e-07
9.47088e-07
-7.83817e-07
1.05123e-06
-5.79111e-07
1.11451e-06
-3.51999e-07
1.13449e-06
-1.11385e-07
1.11046e-06
1.33272e-07
1.04345e-06
3.72298e-07
9.3619e-07
5.96152e-07
7.93057e-07
7.95727e-07
6.19934e-07
9.62574e-07
4.24094e-07
1.08896e-06
2.14132e-07
1.16755e-06
1.19063e-06
-2.5962e-07
1.45072e-06
-5.14198e-07
1.42253e-06
-7.51659e-07
1.32673e-06
-9.61595e-07
1.17274e-06
-1.13519e-06
9.69483e-07
-1.26529e-06
7.26377e-07
-1.34661e-06
4.53703e-07
-1.37581e-06
1.62544e-07
-1.35165e-06
-1.35485e-07
-1.27499e-06
-4.28606e-07
-1.14875e-06
-7.05296e-07
-9.7782e-07
-9.54706e-07
-7.68818e-07
-1.16707e-06
-5.29873e-07
-1.33407e-06
-2.70286e-07
-1.44918e-06
-1.71331e-10
-1.50789e-06
2.69944e-07
-1.50789e-06
5.29534e-07
-1.4492e-06
7.68484e-07
-1.3341e-06
9.77493e-07
-1.16711e-06
1.14844e-06
-9.54757e-07
1.27468e-06
-7.05356e-07
1.35136e-06
-4.28674e-07
1.37554e-06
-1.35563e-07
1.34637e-06
1.62451e-07
1.26508e-06
4.53588e-07
1.13501e-06
7.26227e-07
9.61458e-07
9.69282e-07
7.5156e-07
1.17248e-06
5.14137e-07
1.32639e-06
2.59591e-07
1.42209e-06
1.45023e-06
-3.14978e-07
1.76568e-06
-6.23837e-07
1.73138e-06
-9.11941e-07
1.61483e-06
-1.16667e-06
1.42746e-06
-1.37731e-06
1.18013e-06
-1.53522e-06
8.84284e-07
-1.63394e-06
5.52428e-07
-1.66943e-06
1.98043e-07
-1.64018e-06
-1.64736e-07
-1.54721e-06
-5.21572e-07
-1.39407e-06
-8.58433e-07
-1.18666e-06
-1.16211e-06
-9.33039e-07
-1.42069e-06
-6.43057e-07
-1.62405e-06
-3.2801e-07
-1.76422e-06
-1.77772e-10
-1.83571e-06
3.27656e-07
-1.83572e-06
6.42706e-07
-1.76425e-06
9.32694e-07
-1.62409e-06
1.18633e-06
-1.42074e-06
1.39374e-06
-1.16217e-06
1.5469e-06
-8.58511e-07
1.63989e-06
-5.21662e-07
1.66917e-06
-1.64839e-07
1.6337e-06
1.97921e-07
1.53501e-06
5.5228e-07
1.37714e-06
8.841e-07
1.16653e-06
1.1799e-06
9.11848e-07
1.42716e-06
6.23776e-07
1.61446e-06
3.14951e-07
1.73093e-06
1.76518e-06
-3.82334e-07
2.14802e-06
-7.57248e-07
2.10629e-06
-1.10698e-06
1.96457e-06
-1.41622e-06
1.7367e-06
-1.67198e-06
1.43589e-06
-1.86374e-06
1.07605e-06
-1.98367e-06
6.72362e-07
-2.02686e-06
2.4123e-07
-1.99143e-06
-2.00161e-07
-1.87863e-06
-6.34367e-07
-1.69275e-06
-1.04431e-06
-1.44095e-06
-1.41389e-06
-1.13301e-06
-1.72863e-06
-7.80886e-07
-1.97617e-06
-3.98304e-07
-2.1468e-06
-1.85587e-10
-2.23383e-06
3.97934e-07
-2.23384e-06
7.8052e-07
-2.14683e-06
1.13265e-06
-1.97621e-06
1.44061e-06
-1.72869e-06
1.69241e-06
-1.41398e-06
1.87831e-06
-1.04441e-06
1.99113e-06
-6.3448e-07
2.02659e-06
-2.00292e-07
1.98344e-06
2.41076e-07
1.86354e-06
6.72181e-07
1.67181e-06
1.07583e-06
1.41609e-06
1.43562e-06
1.10689e-06
1.73637e-06
7.57191e-07
1.96416e-06
3.82307e-07
2.10581e-06
2.14749e-06
-4.64251e-07
2.61226e-06
-9.19498e-07
2.56153e-06
-1.34419e-06
2.38926e-06
-1.71975e-06
2.11226e-06
-2.03041e-06
1.74654e-06
-2.26338e-06
1.30902e-06
-2.40915e-06
8.18136e-07
-2.46173e-06
2.93811e-07
-2.41883e-06
-2.43057e-07
-2.28194e-06
-7.71253e-07
-2.05625e-06
-1.26999e-06
-1.75046e-06
-1.71968e-06
-1.37641e-06
-2.10267e-06
-9.4866e-07
-2.40392e-06
-4.83873e-07
-2.61158e-06
-1.95074e-10
-2.7175e-06
4.83485e-07
-2.71751e-06
9.48277e-07
-2.61162e-06
1.37604e-06
-2.40397e-06
1.7501e-06
-2.10275e-06
2.05591e-06
-1.71978e-06
2.28162e-06
-1.27011e-06
2.41853e-06
-7.71392e-07
2.46146e-06
-2.43218e-07
2.40891e-06
2.93625e-07
2.26317e-06
8.1792e-07
2.03024e-06
1.30876e-06
1.71962e-06
1.74624e-06
1.3441e-06
2.11189e-06
9.19436e-07
2.38883e-06
4.64224e-07
2.56103e-06
2.61171e-06
-5.63828e-07
3.17609e-06
-1.11674e-06
3.11444e-06
-1.63258e-06
2.9051e-06
-2.08878e-06
2.56846e-06
-2.46622e-06
2.12398e-06
-2.74936e-06
1.59215e-06
-2.92661e-06
9.95391e-07
-2.99068e-06
3.5788e-07
-2.93875e-06
-2.94978e-07
-2.77261e-06
-9.37388e-07
-2.49854e-06
-1.54406e-06
-2.12708e-06
-2.09114e-06
-1.67262e-06
-2.55713e-06
-1.15284e-06
-2.92369e-06
-5.88015e-07
-3.17641e-06
-2.06469e-10
-3.30531e-06
5.87604e-07
-3.30532e-06
1.15244e-06
-3.17645e-06
1.67223e-06
-2.92376e-06
2.1267e-06
-2.55722e-06
2.49818e-06
-2.09126e-06
2.77227e-06
-1.5442e-06
2.93844e-06
-9.37554e-07
2.99039e-06
-2.9517e-07
2.92636e-06
3.5766e-07
2.74914e-06
9.95138e-07
2.46604e-06
1.59186e-06
2.08865e-06
2.12364e-06
1.63248e-06
2.56806e-06
1.11667e-06
2.90463e-06
5.63798e-07
3.1139e-06
3.17552e-06
-6.84839e-07
3.86092e-06
-1.35643e-06
3.78603e-06
-1.98306e-06
3.53172e-06
-2.53732e-06
3.12273e-06
-2.99598e-06
2.58264e-06
-3.34017e-06
1.93634e-06
-3.55578e-06
1.211e-06
-3.6339e-06
4.36009e-07
-3.57109e-06
-3.57785e-07
-3.36947e-06
-1.13901e-06
-3.03661e-06
-1.87691e-06
-2.58531e-06
-2.54244e-06
-2.03305e-06
-3.10939e-06
-1.40131e-06
-3.55543e-06
-7.14749e-07
-3.86296e-06
-2.19967e-10
-4.01984e-06
7.14311e-07
-4.01985e-06
1.40088e-06
-3.86301e-06
2.03263e-06
-3.55551e-06
2.58491e-06
-3.1095e-06
3.03623e-06
-2.54257e-06
3.3691e-06
-1.87708e-06
3.57076e-06
-1.13921e-06
3.6336e-06
-3.58009e-07
3.55551e-06
4.35752e-07
3.33994e-06
1.21071e-06
2.9958e-06
1.936e-06
2.53718e-06
2.58226e-06
1.98295e-06
3.12229e-06
1.35636e-06
3.53122e-06
6.84807e-07
3.78547e-06
3.86032e-06
-8.31847e-07
4.69277e-06
-1.64764e-06
4.60182e-06
-2.40889e-06
4.29297e-06
-3.08235e-06
3.79619e-06
-3.6398e-06
3.14008e-06
-4.05828e-06
2.35482e-06
-4.32063e-06
1.47336e-06
-4.41599e-06
5.31363e-07
-4.34008e-06
-4.33693e-07
-4.09541e-06
-1.38368e-06
-3.69116e-06
-2.28116e-06
-3.14282e-06
-3.09078e-06
-2.47161e-06
-3.7806e-06
-1.70366e-06
-4.32338e-06
-8.68975e-07
-4.69765e-06
-2.35752e-10
-4.88857e-06
8.68506e-07
-4.88859e-06
1.7032e-06
-4.6977e-06
2.47116e-06
-4.32347e-06
3.14238e-06
-3.78072e-06
3.69075e-06
-3.09094e-06
4.09502e-06
-2.28135e-06
4.33972e-06
-1.38391e-06
4.41566e-06
-4.33953e-07
4.32035e-06
5.31068e-07
4.05803e-06
1.47303e-06
3.6396e-06
2.35444e-06
3.0822e-06
3.13966e-06
2.40878e-06
3.79571e-06
1.64757e-06
4.29243e-06
8.31811e-07
4.60122e-06
4.69214e-06
-1.0104e-06
5.70316e-06
-2.00135e-06
5.59277e-06
-2.92616e-06
5.21778e-06
-3.74449e-06
4.61452e-06
-4.42206e-06
3.81765e-06
-4.93097e-06
2.86373e-06
-5.25032e-06
1.79271e-06
-5.36681e-06
6.47849e-07
-5.27517e-06
-5.25337e-07
-4.97834e-06
-1.6805e-06
-4.4874e-06
-2.7721e-06
-3.82112e-06
-3.75706e-06
-3.00526e-06
-4.59645e-06
-2.07161e-06
-5.25703e-06
-1.05667e-06
-5.71258e-06
-2.53999e-10
-5.94499e-06
1.05617e-06
-5.94501e-06
2.07111e-06
-5.71265e-06
3.00478e-06
-5.25714e-06
3.82065e-06
-4.5966e-06
4.48695e-06
-3.75724e-06
4.97792e-06
-2.77232e-06
5.27478e-06
-1.68076e-06
5.36646e-06
-5.25634e-07
5.25002e-06
6.47514e-07
4.93071e-06
1.79233e-06
4.42184e-06
2.86331e-06
3.74432e-06
3.81718e-06
2.92603e-06
4.61399e-06
2.00126e-06
5.21719e-06
1.01036e-06
5.59214e-06
5.70249e-06
-1.22719e-06
6.93036e-06
-2.43084e-06
6.79642e-06
-3.55433e-06
6.34126e-06
-4.54872e-06
5.6089e-06
-5.37238e-06
4.64131e-06
-5.99137e-06
3.48272e-06
-6.38024e-06
2.18157e-06
-6.5227e-06
7.90306e-07
-6.41221e-06
-6.35827e-07
-6.05222e-06
-2.0405e-06
-5.45605e-06
-3.36826e-06
-4.64645e-06
-4.56666e-06
-3.65471e-06
-5.5882e-06
-2.51945e-06
-6.39229e-06
-1.28514e-06
-6.94689e-06
-2.74895e-10
-7.22986e-06
1.28459e-06
-7.22988e-06
2.51891e-06
-6.94696e-06
3.65418e-06
-6.39241e-06
4.64595e-06
-5.58836e-06
5.45557e-06
-4.56687e-06
6.05176e-06
-3.36852e-06
6.41179e-06
-2.04079e-06
6.52232e-06
-6.36164e-07
6.3799e-06
7.89928e-07
5.99108e-06
2.18115e-06
5.37214e-06
3.48225e-06
4.54853e-06
4.64079e-06
3.55419e-06
5.60833e-06
2.43075e-06
6.34064e-06
1.22715e-06
6.79573e-06
6.92964e-06
-1.49035e-06
8.4207e-06
-2.95223e-06
8.2583e-06
-4.317e-06
7.70603e-06
-5.52531e-06
6.81721e-06
-6.52662e-06
5.64261e-06
-7.27965e-06
4.23576e-06
-7.75336e-06
2.65528e-06
-7.9278e-06
9.64739e-07
-7.79481e-06
-7.68813e-07
-7.35839e-06
-2.47691e-06
-6.63457e-06
-4.09209e-06
-5.65084e-06
-5.55039e-06
-4.44519e-06
-6.79384e-06
-3.06463e-06
-7.77285e-06
-1.56329e-06
-8.44823e-06
-2.98625e-10
-8.79285e-06
1.5627e-06
-8.79288e-06
3.06404e-06
-8.44831e-06
4.44462e-06
-7.77299e-06
5.65029e-06
-6.79403e-06
6.63404e-06
-5.55062e-06
7.3579e-06
-4.09238e-06
7.79436e-06
-2.47725e-06
7.92739e-06
-7.69191e-07
7.753e-06
9.64315e-07
7.27934e-06
2.65481e-06
6.52635e-06
4.23524e-06
5.5251e-06
5.64204e-06
4.31685e-06
6.81658e-06
2.95213e-06
7.70535e-06
1.4903e-06
8.25757e-06
8.41994e-06
-1.80968e-06
1.02304e-05
-3.58497e-06
1.00336e-05
-5.24269e-06
9.36376e-06
-6.71091e-06
8.28542e-06
-7.92826e-06
6.85996e-06
-8.84455e-06
5.15205e-06
-9.42188e-06
3.23262e-06
-9.63578e-06
1.17864e-06
-9.47606e-06
-9.28537e-07
-8.94726e-06
-3.00571e-06
-8.0686e-06
-4.97075e-06
-6.87334e-06
-6.74565e-06
-5.40757e-06
-8.25961e-06
-3.72847e-06
-9.45196e-06
-1.90202e-06
-1.02747e-05
-3.25402e-10
-1.06946e-05
1.90137e-06
-1.06946e-05
3.72784e-06
-1.02748e-05
5.40695e-06
-9.4521e-06
6.87274e-06
-8.25982e-06
8.06803e-06
-6.74592e-06
8.94673e-06
-4.97107e-06
9.47557e-06
-3.00609e-06
9.63533e-06
-9.28962e-07
9.42148e-06
1.17816e-06
8.8442e-06
3.23209e-06
7.92797e-06
5.15147e-06
6.71068e-06
6.85933e-06
5.24252e-06
8.28474e-06
3.58486e-06
9.36302e-06
1.80963e-06
1.00328e-05
1.02296e-05
-2.19704e-06
1.24274e-05
-4.35256e-06
1.21891e-05
-6.36589e-06
1.13771e-05
-8.14983e-06
1.00694e-05
-9.62993e-06
8.34005e-06
-1.07451e-05
6.26725e-06
-1.14491e-05
3.93663e-06
-1.17119e-05
1.44138e-06
-1.15205e-05
-1.11988e-06
-1.08802e-05
-3.64604e-06
-9.81389e-06
-6.03709e-06
-8.36169e-06
-8.19785e-06
-6.57957e-06
-1.00417e-05
-4.53708e-06
-1.14944e-05
-2.31467e-06
-1.24971e-05
-3.55443e-10
-1.30089e-05
2.31396e-06
-1.30089e-05
4.53639e-06
-1.24972e-05
6.57889e-06
-1.14946e-05
8.36104e-06
-1.0042e-05
9.81326e-06
-8.19814e-06
1.08796e-05
-6.03745e-06
1.152e-05
-3.64646e-06
1.17114e-05
-1.12035e-06
1.14487e-05
1.44085e-06
1.07447e-05
3.93605e-06
9.62961e-06
6.26661e-06
8.14958e-06
8.33936e-06
6.3657e-06
1.00686e-05
4.35243e-06
1.13763e-05
2.19698e-06
1.21883e-05
1.24265e-05
-2.66669e-06
1.50941e-05
-5.28337e-06
1.48058e-05
-7.72821e-06
1.38219e-05
-9.89563e-06
1.22368e-05
-1.16953e-05
1.01397e-05
-1.30529e-05
7.62488e-06
-1.3912e-05
4.79567e-06
-1.42354e-05
1.76475e-06
-1.40069e-05
-1.34835e-06
-1.32321e-05
-4.42081e-06
-1.19384e-05
-7.33079e-06
-1.01742e-05
-9.96205e-06
-8.00735e-06
-1.22086e-05
-5.52242e-06
-1.39794e-05
-2.81759e-06
-1.52019e-05
-3.89002e-10
-1.58261e-05
2.81681e-06
-1.58261e-05
5.52166e-06
-1.5202e-05
8.0066e-06
-1.39796e-05
1.01735e-05
-1.22089e-05
1.19378e-05
-9.96238e-06
1.32315e-05
-7.33118e-06
1.40063e-05
-4.42127e-06
1.42348e-05
-1.34888e-06
1.39115e-05
1.76416e-06
1.30525e-05
4.79503e-06
1.1695e-05
7.62418e-06
9.89535e-06
1.0139e-05
7.72799e-06
1.2236e-05
5.28323e-06
1.3821e-05
2.66662e-06
1.48048e-05
1.50932e-05
-3.23584e-06
1.833e-05
-6.41153e-06
1.79814e-05
-9.37981e-06
1.67902e-05
-1.20129e-05
1.48699e-05
-1.42013e-05
1.23281e-05
-1.58546e-05
9.27818e-06
-1.69036e-05
5.84467e-06
-1.73026e-05
2.16367e-06
-1.70309e-05
-1.62007e-06
-1.60943e-05
-5.35734e-06
-1.45254e-05
-8.89969e-06
-1.23824e-05
-1.21051e-05
-9.74749e-06
-1.48436e-05
-6.7237e-06
-1.70032e-05
-3.43084e-06
-1.84948e-05
-4.26333e-10
-1.92565e-05
3.42999e-06
-1.92565e-05
6.72286e-06
-1.84949e-05
9.74668e-06
-1.70034e-05
1.23816e-05
-1.48439e-05
1.45247e-05
-1.21054e-05
1.60936e-05
-8.90013e-06
1.70302e-05
-5.35785e-06
1.7302e-05
-1.62065e-06
1.69031e-05
2.16302e-06
1.58542e-05
5.84396e-06
1.42009e-05
9.2774e-06
1.20126e-05
1.23273e-05
9.37957e-06
1.4869e-05
6.41137e-06
1.67892e-05
3.23577e-06
1.79805e-05
1.83289e-05
-3.92514e-06
2.22551e-05
-7.77808e-06
2.18344e-05
-1.13811e-05
2.03932e-05
-1.45796e-05
1.80684e-05
-1.72409e-05
1.49894e-05
-1.9255e-05
1.12922e-05
-2.05371e-05
7.12678e-06
-2.10305e-05
2.65711e-06
-2.0709e-05
-1.94156e-06
-1.95783e-05
-6.48806e-06
-1.76766e-05
-1.08014e-05
-1.50738e-05
-1.47078e-05
-1.18695e-05
-1.80479e-05
-8.18913e-06
-2.06835e-05
-4.17911e-06
-2.25048e-05
-4.67732e-10
-2.34351e-05
4.17818e-06
-2.34352e-05
8.18821e-06
-2.2505e-05
1.18686e-05
-2.06838e-05
1.50729e-05
-1.80482e-05
1.76757e-05
-1.47083e-05
1.95775e-05
-1.08019e-05
2.07083e-05
-6.48863e-06
2.10298e-05
-1.94221e-06
2.05365e-05
2.65639e-06
1.92544e-05
7.12598e-06
1.72405e-05
1.12914e-05
1.45792e-05
1.49885e-05
1.13808e-05
1.80674e-05
7.77791e-06
2.03921e-05
3.92505e-06
2.18333e-05
2.2254e-05
-4.75933e-06
2.70144e-05
-9.43226e-06
2.65073e-05
-1.38044e-05
2.47653e-05
-1.76892e-05
2.19533e-05
-2.09259e-05
1.82261e-05
-2.33805e-05
1.37468e-05
-2.49491e-05
8.69541e-06
-2.55614e-05
3.26938e-06
-2.51835e-05
-2.31951e-06
-2.38203e-05
-7.85126e-06
-2.15165e-05
-1.31052e-05
-1.83558e-05
-1.78685e-05
-1.44588e-05
-2.19449e-05
-9.9781e-06
-2.51642e-05
-5.09284e-06
-2.73901e-05
-5.13485e-10
-2.85275e-05
5.09182e-06
-2.85275e-05
9.97709e-06
-2.73902e-05
1.44578e-05
-2.51645e-05
1.83549e-05
-2.19453e-05
2.15156e-05
-1.78689e-05
2.38194e-05
-1.31058e-05
2.51827e-05
-7.85189e-06
2.55607e-05
-2.32022e-06
2.49485e-05
3.26858e-06
2.33799e-05
8.69453e-06
2.09254e-05
1.37459e-05
1.76888e-05
1.82251e-05
1.38041e-05
2.19522e-05
9.43206e-06
2.47642e-05
4.75924e-06
2.65061e-05
2.70132e-05
-5.76799e-06
3.27824e-05
-1.14329e-05
3.21722e-05
-1.67366e-05
3.0069e-05
-2.14542e-05
2.66708e-05
-2.5391e-05
2.21629e-05
-2.83839e-05
1.67398e-05
-3.03055e-05
1.06169e-05
-3.10679e-05
4.03178e-06
-3.06273e-05
-2.76012e-06
-2.89868e-05
-9.49178e-06
-2.6198e-05
-1.5894e-05
-2.23608e-05
-2.17057e-05
-1.76208e-05
-2.6685e-05
-1.2164e-05
-3.0621e-05
-6.20967e-06
-3.33444e-05
-5.63915e-10
-3.47366e-05
6.20855e-06
-3.47366e-05
1.21629e-05
-3.33445e-05
1.76197e-05
-3.06213e-05
2.23598e-05
-2.66854e-05
2.6197e-05
-2.17062e-05
2.89858e-05
-1.58946e-05
3.06264e-05
-9.49248e-06
3.10671e-05
-2.76091e-06
3.03048e-05
4.0309e-06
2.83833e-05
1.0616e-05
2.53905e-05
1.67387e-05
2.14538e-05
2.21617e-05
1.67363e-05
2.66697e-05
1.14327e-05
3.00678e-05
5.76788e-06
3.21709e-05
3.27811e-05
-6.98633e-06
3.97687e-05
-1.38502e-05
3.9036e-05
-2.02814e-05
3.65002e-05
-2.60091e-05
3.23986e-05
-3.07979e-05
2.69516e-05
-3.44493e-05
2.03912e-05
-3.68065e-05
1.29741e-05
-3.77597e-05
4.98501e-06
-3.72517e-05
-3.26819e-06
-3.52818e-05
-1.14616e-05
-3.1909e-05
-1.92668e-05
-2.72518e-05
-2.63629e-05
-2.14857e-05
-3.24511e-05
-1.48376e-05
-3.72691e-05
-7.5763e-06
-4.06057e-05
-6.19312e-10
-4.23123e-05
7.57507e-06
-4.23123e-05
1.48364e-05
-4.06059e-05
2.14845e-05
-3.72694e-05
2.72506e-05
-3.24515e-05
3.19079e-05
-2.63635e-05
3.52808e-05
-1.92675e-05
3.72507e-05
-1.14624e-05
3.77588e-05
-3.26906e-06
3.68057e-05
4.98404e-06
3.44486e-05
1.29731e-05
3.07973e-05
2.039e-05
2.60086e-05
2.69504e-05
2.0281e-05
3.23973e-05
1.38499e-05
3.64989e-05
6.98621e-06
3.90346e-05
3.97673e-05
-8.45608e-06
4.82248e-05
-1.67673e-05
4.73472e-05
-2.45618e-05
4.42948e-05
-3.15142e-05
3.93509e-05
-3.734e-05
3.27774e-05
-4.17977e-05
2.48489e-05
-4.46942e-05
1.58706e-05
-4.58914e-05
6.18229e-06
-4.53141e-05
-3.8455e-06
-4.29554e-05
-1.38204e-05
-3.88809e-05
-2.33413e-05
-3.32304e-05
-3.20134e-05
-2.62154e-05
-3.94661e-05
-1.81121e-05
-4.53724e-05
-9.25092e-06
-4.94669e-05
-6.79988e-10
-5.15625e-05
9.24956e-06
-5.15626e-05
1.81108e-05
-4.94671e-05
2.62141e-05
-4.53727e-05
3.32291e-05
-3.94666e-05
3.88796e-05
-3.2014e-05
4.29542e-05
-2.3342e-05
4.5313e-05
-1.38213e-05
4.58904e-05
-3.84646e-06
4.46933e-05
6.18122e-06
4.1797e-05
1.58694e-05
3.73394e-05
2.48476e-05
3.15137e-05
3.27761e-05
2.45614e-05
3.93495e-05
1.6767e-05
4.42933e-05
8.45595e-06
4.73457e-05
4.82233e-05
-1.02265e-05
5.84513e-05
-2.02826e-05
5.74034e-05
-2.9724e-05
5.37361e-05
-3.81602e-05
4.77871e-05
-4.52484e-05
3.98656e-05
-5.06945e-05
3.0295e-05
-5.42603e-05
1.94363e-05
-5.57718e-05
7.69378e-06
-5.5129e-05
-4.48831e-06
-5.23143e-05
-1.66351e-05
-4.73992e-05
-2.82565e-05
-4.05468e-05
-3.88657e-05
-3.20111e-05
-4.80019e-05
-2.21288e-05
-5.52547e-05
-1.13064e-05
-6.02893e-05
-7.46191e-10
-6.28681e-05
1.13049e-05
-6.28682e-05
2.21273e-05
-6.02895e-05
3.20096e-05
-5.52551e-05
4.05454e-05
-4.80024e-05
4.73978e-05
-3.88664e-05
5.2313e-05
-2.82573e-05
5.51278e-05
-1.6636e-05
5.57707e-05
-4.48936e-06
5.42593e-05
7.6926e-06
5.06936e-05
1.9435e-05
4.52476e-05
3.02936e-05
3.81596e-05
3.98641e-05
2.97235e-05
4.77855e-05
2.02823e-05
5.37345e-05
1.02263e-05
5.74017e-05
5.84496e-05
-1.23552e-05
7.08065e-05
-2.45116e-05
6.95597e-05
-3.59395e-05
6.5164e-05
-4.61724e-05
5.802e-05
-5.47973e-05
4.84906e-05
-6.14568e-05
3.69545e-05
-6.58561e-05
2.38356e-05
-6.7775e-05
9.61272e-06
-6.708e-05
-5.18338e-06
-6.37361e-05
-1.99789e-05
-5.78175e-05
-3.41752e-05
-4.95126e-05
-4.71706e-05
-3.91249e-05
-5.83895e-05
-2.7065e-05
-6.73146e-05
-1.38343e-05
-7.352e-05
-8.18153e-10
-7.67017e-05
1.38327e-05
-7.67018e-05
2.70634e-05
-7.35202e-05
3.91234e-05
-6.7315e-05
4.95111e-05
-5.83901e-05
5.7816e-05
-4.71713e-05
6.37347e-05
-3.4176e-05
6.70787e-05
-1.99799e-05
6.77738e-05
-5.18454e-06
6.5855e-05
9.61143e-06
6.14558e-05
2.38342e-05
5.47965e-05
3.69529e-05
4.61717e-05
4.84889e-05
3.5939e-05
5.80182e-05
2.45113e-05
6.51622e-05
1.23551e-05
6.95579e-05
7.08046e-05
-1.49094e-05
8.57159e-05
-2.95887e-05
8.4239e-05
-4.34094e-05
7.89847e-05
-5.58155e-05
7.04261e-05
-6.63114e-05
5.89865e-05
-7.44623e-05
4.51053e-05
-7.99035e-05
2.92768e-05
-8.23546e-05
1.20638e-05
-8.1636e-05
-5.90192e-06
-7.76858e-05
-2.39292e-05
-7.05749e-05
-4.12861e-05
-6.05174e-05
-5.72281e-05
-4.78742e-05
-7.10328e-05
-3.31453e-05
-8.20435e-05
-1.69512e-05
-8.97141e-05
-8.95966e-10
-9.3652e-05
1.69494e-05
-9.36521e-05
3.31435e-05
-8.97144e-05
4.78724e-05
-8.20439e-05
6.05157e-05
-7.10334e-05
7.05732e-05
-5.72288e-05
7.76843e-05
-4.12871e-05
8.16346e-05
-2.39303e-05
8.23532e-05
-5.90319e-06
7.99022e-05
1.20624e-05
7.44612e-05
2.92752e-05
6.63105e-05
4.51036e-05
5.58148e-05
5.89847e-05
4.34088e-05
7.04242e-05
2.95883e-05
7.89827e-05
1.49092e-05
8.4237e-05
8.57138e-05
-1.79662e-05
0.000103682
-3.56691e-05
0.000101942
-5.23663e-05
9.56819e-05
-6.73985e-05
8.54583e-05
-8.01721e-05
7.17601e-05
-9.0159e-05
5.50922e-05
-9.69072e-05
3.6025e-05
-0.000100059
1.52152e-05
-9.93701e-05
-6.59037e-06
-9.47376e-05
-2.85617e-05
-8.62189e-05
-4.98048e-05
-7.40514e-05
-6.93956e-05
-5.86607e-05
-8.64235e-05
-4.06555e-05
-0.000100049
-2.08055e-05
-0.000109564
-9.79587e-10
-0.000114457
2.08036e-05
-0.000114457
4.06536e-05
-0.000109564
5.86588e-05
-0.000100049
7.40496e-05
-8.64241e-05
8.62171e-05
-6.93964e-05
9.47359e-05
-4.98058e-05
9.93685e-05
-2.85629e-05
0.000100057
-6.59176e-06
9.69058e-05
1.52137e-05
9.01577e-05
3.60233e-05
8.0171e-05
5.50903e-05
6.73976e-05
7.17581e-05
5.23657e-05
8.54561e-05
3.56687e-05
9.56797e-05
1.7966e-05
0.00010194
0.00010368
-2.16135e-05
0.000125296
-4.29299e-05
0.000123258
-6.30775e-05
0.000115829
-8.12781e-05
0.000103659
-9.68238e-05
8.73058e-05
-0.000109074
6.73428e-05
-0.000117469
4.44197e-05
-0.000121549
1.92946e-05
-0.000120983
-7.15641e-06
-0.000115602
-3.39423e-05
-0.000105435
-5.99717e-05
-9.07348e-05
-8.40958e-05
-7.19975e-05
-0.000105161
-4.99629e-05
-0.000122083
-2.55892e-05
-0.000133938
-1.0686e-09
-0.000140045
2.55871e-05
-0.000140045
4.99608e-05
-0.000133938
7.19954e-05
-0.000122084
9.07327e-05
-0.000105161
0.000105433
-8.40967e-05
0.0001156
-5.99728e-05
0.000120981
-3.39436e-05
0.000121547
-7.15793e-06
0.000117468
1.92929e-05
0.000109073
4.44178e-05
9.68226e-05
6.73407e-05
8.12771e-05
8.73036e-05
6.30768e-05
0.000103656
4.29295e-05
0.000115827
2.16133e-05
0.000123256
0.000125293
-2.59498e-05
0.000151245
-5.15703e-05
0.000148879
-7.5845e-05
0.000140104
-9.78616e-05
0.000125675
-0.00011678
0.000106224
-0.000131826
8.23884e-05
-0.000142303
5.4897e-05
-0.000147621
2.46125e-05
-0.000147329
-7.4481e-06
-0.00014116
-4.01113e-05
-0.000129085
-7.20464e-05
-0.000111358
-0.000101824
-8.85454e-05
-0.000127973
-6.15447e-05
-0.000149084
-3.15527e-05
-0.00016393
-1.16211e-09
-0.000171596