/*--------------------------------*- C++ -*----------------------------------*\
  =========                 |
  \\      /  F ield         | OpenFOAM: The Open Source CFD Toolbox
   \\    /   O peration     | Website:  https://openfoam.org
    \\  /    A nd           | Version:  9
     \\/     M anipulation  |
\*---------------------------------------------------------------------------*/
FoamFile
{
    format      ascii;
    class       volVectorField;
    location    "0.45";
    object      U;
}
// * * * * * * * * * * * * * * * * * * * * * * * * * * * * * * * * * * * * * //

dimensions      [0 1 -1 0 0 0 0];

internalField   nonuniform List<vector> 
4096
(
(-5.68767e-06 5.66828e-06 0)
(-1.74622e-05 5.46334e-06 0)
(-2.87707e-05 5.15289e-06 0)
(-3.86866e-05 4.59616e-06 0)
(-4.7197e-05 3.8122e-06 0)
(-5.39824e-05 2.8604e-06 0)
(-5.87177e-05 1.79027e-06 0)
(-6.11936e-05 6.45407e-07 0)
(-6.13032e-05 -5.27253e-07 0)
(-5.9034e-05 -1.68104e-06 0)
(-5.44696e-05 -2.77017e-06 0)
(-4.77852e-05 -3.75199e-06 0)
(-3.92397e-05 -4.5879e-06 0)
(-2.91651e-05 -5.24537e-06 0)
(-1.79533e-05 -5.69863e-06 0)
(-6.04055e-06 -5.93011e-06 0)
(6.10969e-06 -5.93073e-06 0)
(1.80246e-05 -5.70057e-06 0)
(2.92405e-05 -5.24853e-06 0)
(3.93211e-05 -4.59232e-06 0)
(4.78743e-05 -3.75745e-06 0)
(5.45676e-05 -2.77657e-06 0)
(5.9141e-05 -1.68796e-06 0)
(6.14175e-05 -5.34285e-07 0)
(6.13101e-05 6.39112e-07 0)
(5.88259e-05 1.78577e-06 0)
(5.40664e-05 2.85981e-06 0)
(4.72247e-05 3.81735e-06 0)
(3.8579e-05 4.61742e-06 0)
(2.84893e-05 5.22286e-06 0)
(1.74099e-05 5.5983e-06 0)
(5.79446e-06 5.7052e-06 0)
(-6.10175e-06 1.74829e-05 0)
(-1.84964e-05 1.698e-05 0)
(-3.03216e-05 1.59344e-05 0)
(-4.08807e-05 1.4161e-05 0)
(-4.99269e-05 1.17289e-05 0)
(-5.71089e-05 8.79785e-06 0)
(-6.21108e-05 5.50442e-06 0)
(-6.47223e-05 1.98359e-06 0)
(-6.48315e-05 -1.62226e-06 0)
(-6.24265e-05 -5.16945e-06 0)
(-5.75964e-05 -8.51802e-06 0)
(-5.05265e-05 -1.15364e-05 0)
(-4.14905e-05 -1.41063e-05 0)
(-3.08391e-05 -1.61275e-05 0)
(-1.89864e-05 -1.7521e-05 0)
(-6.39339e-06 -1.82324e-05 0)
(6.45018e-06 -1.82343e-05 0)
(1.90447e-05 -1.75264e-05 0)
(3.09002e-05 -1.61365e-05 0)
(4.15557e-05 -1.41188e-05 0)
(5.05967e-05 -1.15518e-05 0)
(5.76718e-05 -8.53588e-06 0)
(6.25064e-05 -5.18875e-06 0)
(6.49135e-05 -1.64153e-06 0)
(6.48011e-05 1.96634e-06 0)
(6.21767e-05 5.49206e-06 0)
(5.71474e-05 8.79457e-06 0)
(4.9917e-05 1.1739e-05 0)
(4.07797e-05 1.42001e-05 0)
(3.01159e-05 1.60626e-05 0)
(1.84057e-05 1.72194e-05 0)
(6.12662e-06 1.7549e-05 0)
(-6.65621e-06 3.01824e-05 0)
(-2.0047e-05 2.95183e-05 0)
(-3.27917e-05 2.75783e-05 0)
(-4.43022e-05 2.44128e-05 0)
(-5.41482e-05 2.01933e-05 0)
(-6.19395e-05 1.51385e-05 0)
(-6.73593e-05 9.46468e-06 0)
(-7.01845e-05 3.4031e-06 0)
(-7.02963e-05 -2.80321e-06 0)
(-6.76835e-05 -8.90793e-06 0)
(-6.24436e-05 -1.46705e-05 0)
(-5.47777e-05 -1.98647e-05 0)
(-4.49826e-05 -2.42872e-05 0)
(-3.34382e-05 -2.77651e-05 0)
(-2.0593e-05 -3.01628e-05 0)
(-6.94632e-06 -3.13867e-05 0)
(6.97127e-06 -3.13893e-05 0)
(2.06186e-05 -3.01704e-05 0)
(3.34649e-05 -2.77777e-05 0)
(4.50107e-05 -2.43043e-05 0)
(5.48072e-05 -1.98857e-05 0)
(6.24738e-05 -1.46943e-05 0)
(6.77128e-05 -8.93293e-06 0)
(7.03218e-05 -2.82717e-06 0)
(7.02011e-05 3.38293e-06 0)
(6.7359e-05 9.45166e-06 0)
(6.19115e-05 1.51362e-05 0)
(5.40794e-05 2.02047e-05 0)
(4.41807e-05 2.44416e-05 0)
(3.26291e-05 2.76498e-05 0)
(1.99431e-05 2.96423e-05 0)
(6.63854e-06 3.02121e-05 0)
(-7.40685e-06 4.41175e-05 0)
(-2.22665e-05 4.32411e-05 0)
(-3.64141e-05 4.03351e-05 0)
(-4.9243e-05 3.56625e-05 0)
(-6.02116e-05 2.94879e-05 0)
(-6.88838e-05 2.20991e-05 0)
(-7.49119e-05 1.38091e-05 0)
(-7.80512e-05 4.9552e-06 0)
(-7.81718e-05 -4.10832e-06 0)
(-7.52632e-05 -1.30227e-05 0)
(-6.94346e-05 -2.14368e-05 0)
(-6.09101e-05 -2.90208e-05 0)
(-5.00197e-05 -3.54778e-05 0)
(-3.71857e-05 -4.05556e-05 0)
(-2.29066e-05 -4.40559e-05 0)
(-7.73724e-06 -4.58423e-05 0)
(7.73276e-06 -4.58452e-05 0)
(2.2902e-05 -4.40645e-05 0)
(3.71806e-05 -4.05695e-05 0)
(5.00136e-05 -3.54965e-05 0)
(6.09022e-05 -2.90433e-05 0)
(6.94234e-05 -2.14616e-05 0)
(7.52466e-05 -1.30476e-05 0)
(7.81468e-05 -4.13087e-06 0)
(7.80135e-05 4.93824e-06 0)
(7.48556e-05 1.38009e-05 0)
(6.88024e-05 2.21025e-05 0)
(6.00989e-05 2.95046e-05 0)
(4.90994e-05 3.56928e-05 0)
(3.62622e-05 4.03789e-05 0)
(2.21646e-05 4.32904e-05 0)
(7.379e-06 4.41239e-05 0)
(-8.41569e-06 5.97727e-05 0)
(-2.52873e-05 5.86123e-05 0)
(-4.13566e-05 5.46554e-05 0)
(-5.59543e-05 4.83109e-05 0)
(-6.84426e-05 3.99377e-05 0)
(-7.83144e-05 2.99231e-05 0)
(-8.51743e-05 1.86902e-05 0)
(-8.8746e-05 6.69603e-06 0)
(-8.88834e-05 -5.58053e-06 0)
(-8.55759e-05 -1.76539e-05 0)
(-7.89486e-05 -2.90492e-05 0)
(-6.92567e-05 -3.93197e-05 0)
(-5.68754e-05 -4.80638e-05 0)
(-4.22851e-05 -5.49398e-05 0)
(-2.60523e-05 -5.96795e-05 0)
(-8.80787e-06 -6.20979e-05 0)
(8.778e-06 -6.21007e-05 0)
(2.60217e-05 -5.96878e-05 0)
(4.22528e-05 -5.49532e-05 0)
(5.68404e-05 -4.80815e-05 0)
(6.92176e-05 -3.93404e-05 0)
(7.89037e-05 -2.90711e-05 0)
(8.5523e-05 -1.76747e-05 0)
(8.88198e-05 -5.59741e-06 0)
(8.86685e-05 6.68606e-06 0)
(8.50796e-05 1.86898e-05 0)
(7.81998e-05 2.99338e-05 0)
(6.8308e-05 3.99595e-05 0)
(5.58058e-05 4.83412e-05 0)
(4.12161e-05 5.46892e-05 0)
(2.5193e-05 5.86335e-05 0)
(8.3868e-06 5.97644e-05 0)
(-9.7344e-06 7.77443e-05 0)
(-2.92421e-05 7.62449e-05 0)
(-4.78309e-05 7.10932e-05 0)
(-6.47368e-05 6.28312e-05 0)
(-7.92072e-05 5.19337e-05 0)
(-9.06475e-05 3.89042e-05 0)
(-9.8598e-05 2.4293e-05 0)
(-0.000102739 8.69381e-06 0)
(-0.000102902 -7.27083e-06 0)
(-9.90749e-05 -2.297e-05 0)
(-9.14038e-05 -3.77868e-05 0)
(-8.01844e-05 -5.11405e-05 0)
(-6.58512e-05 -6.25092e-05 0)
(-4.89604e-05 -7.14489e-05 0)
(-3.01682e-05 -7.76106e-05 0)
(-1.02048e-05 -8.07541e-05 0)
(1.01539e-05 -8.07566e-05 0)
(3.01162e-05 -7.7618e-05 0)
(4.89061e-05 -7.14606e-05 0)
(6.57933e-05 -6.25244e-05 0)
(8.01214e-05 -5.11577e-05 0)
(9.1334e-05 -3.78039e-05 0)
(9.89964e-05 -2.29849e-05 0)
(0.000102813 -7.28073e-06 0)
(0.000102637 8.69128e-06 0)
(9.84828e-05 2.42994e-05 0)
(9.05191e-05 3.89196e-05 0)
(7.90688e-05 5.19558e-05 0)
(6.45978e-05 6.28547e-05 0)
(4.77092e-05 7.11093e-05 0)
(2.9162e-05 7.62395e-05 0)
(9.70897e-06 7.77121e-05 0)
(-1.14185e-05 9.87028e-05 0)
(-3.42999e-05 9.6805e-05 0)
(-5.6109e-05 9.02634e-05 0)
(-7.59544e-05 7.97688e-05 0)
(-9.2949e-05 6.59285e-05 0)
(-0.000106389 4.93829e-05 0)
(-0.000115731 3.08311e-05 0)
(-0.0001206 1.10268e-05 0)
(-0.000120797 -9.24012e-06 0)
(-0.000116308 -2.91689e-05 0)
(-0.000107306 -4.79768e-05 0)
(-9.41366e-05 -6.49271e-05 0)
(-7.73111e-05 -7.93574e-05 0)
(-5.74824e-05 -9.07042e-05 0)
(-3.54209e-05 -9.85247e-05 0)
(-1.19841e-05 -0.000102514 0)
(1.19167e-05 -0.000102516 0)
(3.53523e-05 -9.85308e-05 0)
(5.74114e-05 -9.07138e-05 0)
(7.72364e-05 -7.93695e-05 0)
(9.40568e-05 -6.49402e-05 0)
(0.00010722 -4.79889e-05 0)
(0.000116214 -2.9178e-05 0)
(0.000120693 -9.24389e-06 0)
(0.000120487 1.10298e-05 0)
(0.00011561 3.08414e-05 0)
(0.00010626 4.93989e-05 0)
(9.28189e-05 6.59458e-05 0)
(7.58307e-05 7.97801e-05 0)
(5.60061e-05 9.02586e-05 0)
(3.42336e-05 9.67713e-05 0)
(1.13967e-05 9.86435e-05 0)
(-1.35359e-05 0.000123435 0)
(-4.06582e-05 0.000121066 0)
(-6.65144e-05 0.000112889 0)
(-9.00513e-05 9.97628e-05 0)
(-0.000110213 8.24516e-05 0)
(-0.000126161 6.17569e-05 0)
(-0.00013725 3.85538e-05 0)
(-0.000143033 1.37851e-05 0)
(-0.000143273 -1.15611e-05 0)
(-0.000137954 -3.64839e-05 0)
(-0.00012728 -6.00042e-05 0)
(-0.000111662 -8.12013e-05 0)
(-9.17056e-05 -9.92467e-05 0)
(-6.81859e-05 -0.000113436 0)
(-4.20168e-05 -0.000123215 0)
(-1.42158e-05 -0.000128203 0)
(1.4136e-05 -0.000128205 0)
(4.1936e-05 -0.00012322 0)
(6.81029e-05 -0.000113443 0)
(9.16193e-05 -9.92559e-05 0)
(0.000111571 -8.12107e-05 0)
(0.000127184 -6.00122e-05 0)
(0.000137852 -3.64885e-05 0)
(0.000143164 -1.15609e-05 0)
(0.000142918 1.3791e-05 0)
(0.000137132 3.85646e-05 0)
(0.000126041 6.17696e-05 0)
(0.000110097 8.24606e-05 0)
(8.99468e-05 9.97597e-05 0)
(6.64311e-05 0.000112863 0)
(4.06058e-05 0.000121008 0)
(1.35193e-05 0.000123352 0)
(-1.61687e-05 0.000152882 0)
(-4.85668e-05 0.000149951 0)
(-7.94551e-05 0.000139828 0)
(-0.000107577 0.000123572 0)
(-0.000131671 0.000102131 0)
(-0.000150734 7.64968e-05 0)
(-0.000163992 4.77555e-05 0)
(-0.000170909 1.7075e-05 0)
(-0.000171202 -1.43208e-05 0)
(-0.000164853 -4.51919e-05 0)
(-0.000152101 -7.43257e-05 0)
(-0.00013344 -0.000100582 0)
(-0.000109593 -0.000122934 0)
(-8.1486e-05 -0.000140509 0)
(-5.02117e-05 -0.000152622 0)
(-1.69863e-05 -0.0001588 0)
(1.68977e-05 -0.000158801 0)
(5.01223e-05 -0.000152626 0)
(8.13949e-05 -0.000140515 0)
(0.000109499 -0.000122941 0)
(0.000133343 -0.000100589 0)
(0.000152001 -7.43311e-05 0)
(0.000164749 -4.51942e-05 0)
(0.000171095 -1.43191e-05 0)
(0.000170799 1.70807e-05 0)
(0.000163881 4.77635e-05 0)
(0.000150626 7.65033e-05 0)
(0.000131571 0.000102129 0)
(0.000107489 0.000123554 0)
(7.93881e-05 0.000139783 0)
(4.85259e-05 0.000149873 0)
(1.61551e-05 0.000152779 0)
(-1.94189e-05 0.000188165 0)
(-5.83278e-05 0.00018456 0)
(-9.54257e-05 0.000172107 0)
(-0.000129205 0.000152104 0)
(-0.000158149 0.000125715 0)
(-0.000181054 9.41643e-05 0)
(-0.000196987 5.87874e-05 0)
(-0.000205303 2.10226e-05 0)
(-0.000205662 -1.76234e-05 0)
(-0.00019804 -5.5624e-05 0)
(-0.000182726 -9.14866e-05 0)
(-0.00016031 -0.000123807 0)
(-0.000131663 -0.000151322 0)
(-9.78955e-05 -0.000172957 0)
(-6.03217e-05 -0.000187868 0)
(-2.04028e-05 -0.000195472 0)
(2.0308e-05 -0.000195473 0)
(6.02264e-05 -0.000187871 0)
(9.77992e-05 -0.000172962 0)
(0.000131565 -0.000151328 0)
(0.000160211 -0.000123813 0)
(0.000182625 -9.14912e-05 0)
(0.000197937 -5.56262e-05 0)
(0.000205559 -1.76227e-05 0)
(0.0002052 2.10254e-05 0)
(0.000196886 5.87902e-05 0)
(0.000180959 9.41626e-05 0)
(0.000158065 0.000125702 0)
(0.000129134 0.000152072 0)
(9.5373e-05 0.000172046 0)
(5.82965e-05 0.000184465 0)
(1.94094e-05 0.000188047 0)
(-2.34103e-05 0.00023063 0)
(-7.03168e-05 0.000226213 0)
(-0.000115041 0.000210957 0)
(-0.000155765 0.000186446 0)
(-0.000190665 0.000154104 0)
(-0.000218284 0.000115434 0)
(-0.000237501 7.20712e-05 0)
(-0.000247535 2.57796e-05 0)
(-0.000247976 -2.15938e-05 0)
(-0.000238791 -6.81775e-05 0)
(-0.000220331 -0.000112141 0)
(-0.000193305 -0.000151764 0)
(-0.000158763 -0.000185496 0)
(-0.000118045 -0.00021202 0)
(-7.27355e-05 -0.0002303 0)
(-2.45967e-05 -0.000239623 0)
(2.44975e-05 -0.000239624 0)
(7.26361e-05 -0.000230303 0)
(0.000117945 -0.000212025 0)
(0.000158663 -0.000185502 0)
(0.000193205 -0.00015177 0)
(0.00022023 -0.000112147 0)
(0.000238691 -6.81815e-05 0)
(0.000247877 -2.15963e-05 0)
(0.000247439 2.57775e-05 0)
(0.00023741 7.20669e-05 0)
(0.000218201 0.000115423 0)
(0.000190593 0.00015408 0)
(0.000155707 0.0001864 0)
(0.000114999 0.000210883 0)
(7.02925e-05 0.000226106 0)
(2.34021e-05 0.0002305 0)
(-2.82958e-05 0.000281898 0)
(-8.49895e-05 0.000276502 0)
(-0.000139046 0.000257862 0)
(-0.000188272 0.000227909 0)
(-0.000230459 0.000188383 0)
(-0.000263849 0.000141119 0)
(-0.000287085 8.81156e-05 0)
(-0.000299222 3.15294e-05 0)
(-0.000299763 -2.63819e-05 0)
(-0.000288668 -8.33303e-05 0)
(-0.000266357 -0.000137078 0)
(-0.00023369 -0.00018552 0)
(-0.000191934 -0.000226761 0)
(-0.000142709 -0.000259191 0)
(-8.793e-05 -0.000281541 0)
(-2.97295e-05 -0.00029294 0)
(2.96268e-05 -0.000292941 0)
(8.78274e-05 -0.000281545 0)
(0.000142606 -0.000259196 0)
(0.000191832 -0.000226768 0)
(0.000233589 -0.000185528 0)
(0.000266257 -0.000137086 0)
(0.00028857 -8.33378e-05 0)
(0.000299668 -2.63894e-05 0)
(0.000299133 3.15207e-05 0)
(0.000287002 8.81028e-05 0)
(0.000263776 0.000141097 0)
(0.000230397 0.000188347 0)
(0.000188223 0.000227851 0)
(0.000139012 0.000257776 0)
(8.49702e-05 0.000276384 0)
(2.82905e-05 0.000281759 0)
(-3.42609e-05 0.000343927 0)
(-0.000102907 0.000337344 0)
(-0.00016836 0.000314612 0)
(-0.000227965 0.000278077 0)
(-0.000279051 0.000229861 0)
(-0.000319489 0.000172201 0)
(-0.000347633 0.000107536 0)
(-0.00036234 3.84942e-05 0)
(-0.000363006 -3.21679e-05 0)
(-0.00034958 -0.000101659 0)
(-0.000322569 -0.000167248 0)
(-0.000283014 -0.000226364 0)
(-0.000232447 -0.000276696 0)
(-0.000172833 -0.000316274 0)
(-0.000106488 -0.000343552 0)
(-3.59983e-05 -0.000357464 0)
(3.58924e-05 -0.000357466 0)
(0.000106383 -0.000343557 0)
(0.000172728 -0.000316281 0)
(0.000232344 -0.000276705 0)
(0.000282912 -0.000226375 0)
(0.00032247 -0.000167259 0)
(0.000349484 -0.000101671 0)
(0.000362915 -3.21816e-05 0)
(0.000362256 3.84778e-05 0)
(0.000347557 0.000107514 0)
(0.000319422 0.000172169 0)
(0.000278996 0.000229814 0)
(0.000227922 0.000278008 0)
(0.000168331 0.000314516 0)
(0.000102891 0.000337218 0)
(3.42553e-05 0.000343781 0)
(-4.15334e-05 0.000419083 0)
(-0.000124749 0.000411063 0)
(-0.000204095 0.000383373 0)
(-0.000276356 0.000338866 0)
(-0.000338293 0.000280124 0)
(-0.000387325 0.000209871 0)
(-0.000421458 0.000131077 0)
(-0.000439302 4.69446e-05 0)
(-0.000440123 -3.91685e-05 0)
(-0.000423858 -0.00012386 0)
(-0.00039112 -0.000203801 0)
(-0.000343167 -0.000275857 0)
(-0.000281858 -0.000337209 0)
(-0.000209572 -0.000385454 0)
(-0.000129123 -0.000418707 0)
(-4.3644e-05 -0.000435666 0)
(4.35346e-05 -0.000435668 0)
(0.000129015 -0.000418713 0)
(0.000209465 -0.000385463 0)
(0.000281752 -0.00033722 0)
(0.000343064 -0.000275871 0)
(0.00039102 -0.000203817 0)
(0.000423763 -0.000123878 0)
(0.000440034 -3.91894e-05 0)
(0.000439221 4.69196e-05 0)
(0.000421385 0.000131045 0)
(0.000387264 0.000209828 0)
(0.000338243 0.000280066 0)
(0.000276318 0.000338786 0)
(0.000204069 0.000383267 0)
(0.000124735 0.000410929 0)
(4.15299e-05 0.000418931 0)
(-5.0389e-05 0.000510233 0)
(-0.000151347 0.000500469 0)
(-0.000247615 0.000466769 0)
(-0.000335288 0.000412597 0)
(-0.000410442 0.000341094 0)
(-0.000469946 0.000255571 0)
(-0.000511376 0.000159644 0)
(-0.000533048 5.72101e-05 0)
(-0.000534064 -4.76446e-05 0)
(-0.000514346 -0.000150776 0)
(-0.000474635 -0.000248131 0)
(-0.000416456 -0.000335889 0)
(-0.000342061 -0.000410614 0)
(-0.000254339 -0.000469379 0)
(-0.000156704 -0.000509884 0)
(-5.29604e-05 -0.000530543 0)
(5.28468e-05 -0.000530545 0)
(0.000156591 -0.000509891 0)
(0.000254228 -0.00046939 0)
(0.000341952 -0.000410629 0)
(0.000416351 -0.000335907 0)
(0.000474534 -0.000248152 0)
(0.000514251 -0.000150801 0)
(0.000533975 -4.76735e-05 0)
(0.000532968 5.71758e-05 0)
(0.000511306 0.000159602 0)
(0.000469886 0.000255518 0)
(0.000410395 0.000341024 0)
(0.000335251 0.000412506 0)
(0.00024759 0.000466654 0)
(0.000151335 0.000500327 0)
(5.03841e-05 0.000510075 0)
(-6.1165e-05 0.000620851 0)
(-0.000183713 0.000608971 0)
(-0.00030057 0.000567981 0)
(-0.000407002 0.000502085 0)
(-0.000498245 0.000415101 0)
(-0.000570499 0.000311054 0)
(-0.000620819 0.000194338 0)
(-0.000647157 6.96928e-05 0)
(-0.00064842 -5.79099e-05 0)
(-0.000624509 -0.000183428 0)
(-0.000576316 -0.000301925 0)
(-0.000505692 -0.000408751 0)
(-0.000415368 -0.000499719 0)
(-0.000308852 -0.000571263 0)
(-0.000190291 -0.000620577 0)
(-6.43057e-05 -0.000645729 0)
(6.41871e-05 -0.000645732 0)
(0.000190173 -0.000620585 0)
(0.000308736 -0.000571276 0)
(0.000415255 -0.000499738 0)
(0.000505583 -0.000408775 0)
(0.000576213 -0.000301953 0)
(0.000624411 -0.00018346 0)
(0.00064833 -5.79474e-05 0)
(0.000647076 6.96489e-05 0)
(0.000620749 0.000194285 0)
(0.000570439 0.000310989 0)
(0.000498198 0.000415021 0)
(0.000406967 0.000501984 0)
(0.000300546 0.000567856 0)
(0.0001837 0.000608822 0)
(6.11619e-05 0.000620686 0)
(-7.42694e-05 0.00075515 0)
(-0.000223074 0.000740703 0)
(-0.000364974 0.000690868 0)
(-0.000494224 0.000610747 0)
(-0.000605042 0.000504977 0)
(-0.000692813 0.000378447 0)
(-0.000753959 0.000236496 0)
(-0.000785988 8.48849e-05 0)
(-0.000787565 -7.03417e-05 0)
(-0.000758563 -0.00022305 0)
(-0.000700062 -0.000367232 0)
(-0.000614301 -0.000497226 0)
(-0.000504596 -0.000607932 0)
(-0.000375208 -0.000695006 0)
(-0.000231175 -0.000755029 0)
(-7.81165e-05 -0.000785643 0)
(7.79918e-05 -0.000785647 0)
(0.000231052 -0.000755039 0)
(0.000375087 -0.000695023 0)
(0.000504478 -0.000607955 0)
(0.000614187 -0.000497255 0)
(0.000699954 -0.000367266 0)
(0.000758462 -0.00022309 0)
(0.000787472 -7.03883e-05 0)
(0.000785905 8.48308e-05 0)
(0.000753887 0.000236432 0)
(0.000692752 0.000378371 0)
(0.000604994 0.000504886 0)
(0.000494187 0.000610636 0)
(0.000364949 0.000690735 0)
(0.000223061 0.000740547 0)
(7.42641e-05 0.000754979 0)
(-9.01998e-05 0.000918242 0)
(-0.000270922 0.000900682 0)
(-0.000443267 0.000840114 0)
(-0.000600263 0.000742731 0)
(-0.000734891 0.000614161 0)
(-0.000841543 0.000460338 0)
(-0.000915871 0.000287748 0)
(-0.000954839 0.000103389 0)
(-0.000956819 -8.53928e-05 0)
(-0.000921645 -0.000271137 0)
(-0.000850619 -0.000446533 0)
(-0.000746455 -0.00060469 0)
(-0.000613178 -0.000739394 0)
(-0.000455962 -0.000845352 0)
(-0.000280933 -0.000918397 0)
(-9.4925e-05 -0.000955655 0)
(9.4793e-05 -0.000955659 0)
(0.000280803 -0.000918409 0)
(0.000455834 -0.000845371 0)
(0.000613053 -0.000739421 0)
(0.000746336 -0.000604724 0)
(0.000850506 -0.000446575 0)
(0.000921539 -0.000271186 0)
(0.000956722 -8.54491e-05 0)
(0.000954753 0.000103324 0)
(0.000915796 0.000287673 0)
(0.00084148 0.000460251 0)
(0.00073484 0.000614057 0)
(0.000600226 0.000742609 0)
(0.000443241 0.00083997 0)
(0.000270907 0.000900517 0)
(9.01963e-05 0.000918063 0)
(-0.000109558 0.00111633 0)
(-0.000329068 0.00109499 0)
(-0.000538417 0.0010214 0)
(-0.000729142 0.000903072 0)
(-0.000892722 0.000746829 0)
(-0.00102235 0.000559875 0)
(-0.00111272 0.00035008 0)
(-0.00116016 0.000125944 0)
(-0.00116266 -0.000103606 0)
(-0.00112 -0.000329499 0)
(-0.00103377 -0.000542841 0)
(-0.000907237 -0.000735242 0)
(-0.000745294 -0.000899133 0)
(-0.000554227 -0.00102806 0)
(-0.000341485 -0.00111695 0)
(-0.00011538 -0.00116229 0)
(0.00011524 -0.0011623 0)
(0.000341346 -0.00111697 0)
(0.000554091 -0.00102809 0)
(0.000745162 -0.000899165 0)
(0.000907111 -0.000735283 0)
(0.00103365 -0.00054289 0)
(0.00111989 -0.000329556 0)
(0.00116255 -0.000103672 0)
(0.00116007 0.000125868 0)
(0.00111264 0.000349993 0)
(0.00102228 0.000559775 0)
(0.000892669 0.000746713 0)
(0.000729101 0.000902938 0)
(0.000538389 0.00102125 0)
(0.000329053 0.00109482 0)
(0.000109552 0.00111614 0)
(-0.000133076 0.00135694 0)
(-0.000399709 0.00133102 0)
(-0.000654018 0.00124164 0)
(-0.000885737 0.00109789 0)
(-0.00108452 0.000908059 0)
(-0.00124209 0.000680885 0)
(-0.00135201 0.000425912 0)
(-0.00140978 0.000153459 0)
(-0.00141295 -0.000125629 0)
(-0.00136125 -0.000400325 0)
(-0.00125655 -0.000659808 0)
(-0.00110284 -0.000893861 0)
(-0.000906043 -0.00109326 0)
(-0.000673801 -0.00125015 0)
(-0.000415171 -0.00135832 0)
(-0.000140273 -0.0014135 0)
(0.000140122 -0.00141351 0)
(0.000415022 -0.00135834 0)
(0.000673654 -0.00125018 0)
(0.000905901 -0.0010933 0)
(0.0011027 -0.000893909 0)
(0.00125642 -0.000659865 0)
(0.00136113 -0.000400392 0)
(0.00141284 -0.000125706 0)
(0.00140968 0.000153371 0)
(0.00135193 0.000425812 0)
(0.00124202 0.000680772 0)
(0.00108446 0.00090793 0)
(0.000885694 0.00109774 0)
(0.000653987 0.00124147 0)
(0.000399691 0.00133084 0)
(0.000133071 0.00135674 0)
(-0.000161638 0.0016492 0)
(-0.000485505 0.00161773 0)
(-0.000794433 0.00150919 0)
(-0.00107596 0.00133461 0)
(-0.00131754 0.00110403 0)
(-0.00150911 0.000828031 0)
(-0.00164284 0.0005182 0)
(-0.00171322 0.000187055 0)
(-0.00171728 -0.000152233 0)
(-0.00165463 -0.000486261 0)
(-0.00152753 -0.000801862 0)
(-0.00134081 -0.00108659 0)
(-0.00110164 -0.00132922 0)
(-0.000819311 -0.00152014 0)
(-0.000504848 -0.00165179 0)
(-0.000170569 -0.00171896 0)
(0.000170407 -0.00171896 0)
(0.000504688 -0.00165181 0)
(0.000819153 -0.00152017 0)
(0.00110148 -0.00132926 0)
(0.00134066 -0.00108665 0)
(0.0015274 -0.000801929 0)
(0.0016545 -0.000486339 0)
(0.00171716 -0.000152322 0)
(0.00171312 0.000186955 0)
(0.00164274 0.000518087 0)
(0.00150903 0.000827904 0)
(0.00131748 0.00110388 0)
(0.00107592 0.00133445 0)
(0.0007944 0.00150901 0)
(0.000485487 0.00161754 0)
(0.00016163 0.00164899 0)
(-0.000196319 0.00200418 0)
(-0.000589682 0.001966 0)
(-0.000964942 0.00183423 0)
(-0.00130699 0.00162225 0)
(-0.00160059 0.00134223 0)
(-0.00183352 0.00100699 0)
(-0.00199625 0.000630556 0)
(-0.00208207 0.000228118 0)
(-0.00208729 -0.000184333 0)
(-0.00201142 -0.000590504 0)
(-0.00185716 -0.000974373 0)
(-0.00163033 -0.00132078 0)
(-0.00133965 -0.00161603 0)
(-0.000996405 -0.00184841 0)
(-0.000614002 -0.00200867 0)
(-0.000207447 -0.00209043 0)
(0.000207271 -0.00209044 0)
(0.000613828 -0.00200869 0)
(0.000996235 -0.00184844 0)
(0.00133949 -0.00161608 0)
(0.00163018 -0.00132085 0)
(0.00185701 -0.000974448 0)
(0.00201128 -0.000590592 0)
(0.00208716 -0.000184434 0)
(0.00208195 0.000228004 0)
(0.00199615 0.000630429 0)
(0.00183344 0.00100685 0)
(0.00160052 0.00134207 0)
(0.00130694 0.00162208 0)
(0.000964905 0.00183403 0)
(0.00058966 0.00196579 0)
(0.000196313 0.00200396 0)
(-0.000238415 0.00243531 0)
(-0.000716139 0.002389 0)
(-0.00117194 0.00222909 0)
(-0.00158751 0.00197178 0)
(-0.00194434 0.00163181 0)
(-0.0022276 0.00122468 0)
(-0.00242568 0.000767396 0)
(-0.00253037 0.000278364 0)
(-0.00253714 -0.000223004 0)
(-0.00244533 -0.000716906 0)
(-0.00225815 -0.00118384 0)
(-0.00198263 -0.00160535 0)
(-0.00162934 -0.00196469 0)
(-0.00121198 -0.00224758 0)
(-0.000746889 -0.00244271 0)
(-0.000252345 -0.00254227 0)
(0.000252154 -0.00254228 0)
(0.0007467 -0.00244273 0)
(0.0012118 -0.00224762 0)
(0.00162916 -0.00196475 0)
(0.00198246 -0.00160542 0)
(0.00225799 -0.00118393 0)
(0.00244518 -0.000717006 0)
(0.002537 -0.000223118 0)
(0.00253024 0.000278236 0)
(0.00242557 0.000767253 0)
(0.00222751 0.00122452 0)
(0.00194427 0.00163163 0)
(0.00158745 0.00197159 0)
(0.0011719 0.00222888 0)
(0.000716116 0.00238877 0)
(0.000238405 0.00243508 0)
(-0.000289496 0.00295887 0)
(-0.000869593 0.00290273 0)
(-0.00142316 0.00270873 0)
(-0.00192801 0.0023965 0)
(-0.00236171 0.00198385 0)
(-0.00270621 0.00148954 0)
(-0.00294739 0.000934127 0)
(-0.00307521 0.000339929 0)
(-0.00308407 -0.000269504 0)
(-0.00297306 -0.000870108 0)
(-0.00274601 -0.00143815 0)
(-0.00241139 -0.00195111 0)
(-0.00198198 -0.00238856 0)
(-0.00147446 -0.00273303 0)
(-0.000908713 -0.00297068 0)
(-0.000307025 -0.00309196 0)
(0.000306816 -0.00309197 0)
(0.000908507 -0.00297071 0)
(0.00147426 -0.00273307 0)
(0.00198179 -0.00238862 0)
(0.0024112 -0.00195118 0)
(0.00274584 -0.00143824 0)
(0.0029729 -0.00087022 0)
(0.00308392 -0.000269632 0)
(0.00307507 0.000339786 0)
(0.00294727 0.000933968 0)
(0.00270611 0.00148936 0)
(0.00236163 0.00198366 0)
(0.00192795 0.00239629 0)
(0.00142312 0.0027085 0)
(0.000869567 0.00290248 0)
(0.000289489 0.00295862 0)
(-0.000351455 0.00359456 0)
(-0.00105574 0.00352654 0)
(-0.00172795 0.0032913 0)
(-0.00234122 0.00291257 0)
(-0.00286833 0.00241186 0)
(-0.00328738 0.00181185 0)
(-0.00358114 0.00113738 0)
(-0.00373733 0.000415483 0)
(-0.00374901 -0.000325288 0)
(-0.00361495 -0.00105569 0)
(-0.00333965 -0.00174681 0)
(-0.00293329 -0.0023712 0)
(-0.00241138 -0.00290389 0)
(-0.00179416 -0.00332349 0)
(-0.00110584 -0.00361305 0)
(-0.000373639 -0.00376084 0)
(0.000373412 -0.00376085 0)
(0.00110562 -0.00361308 0)
(0.00179394 -0.00332354 0)
(0.00241117 -0.00290396 0)
(0.00293309 -0.00237129 0)
(0.00333946 -0.00174692 0)
(0.00361477 -0.00105581 0)
(0.00374885 -0.000325431 0)
(0.00373718 0.000415322 0)
(0.00358101 0.00113721 0)
(0.00328727 0.00181165 0)
(0.00286824 0.00241165 0)
(0.00234114 0.00291234 0)
(0.0017279 0.00329106 0)
(0.00105571 0.00352628 0)
(0.000351443 0.00359429 0)
(-0.000426577 0.00436623 0)
(-0.00128144 0.00428391 0)
(-0.00209758 0.0039988 0)
(-0.00284245 0.0035396 0)
(-0.0034831 0.00293228 0)
(-0.0039929 0.00220417 0)
(-0.00435087 0.00138531 0)
(-0.00454192 0.000508371 0)
(-0.00455747 -0.000392017 0)
(-0.00439577 -0.00128032 0)
(-0.00406214 -0.00212135 0)
(-0.00356877 -0.00288158 0)
(-0.00293442 -0.00353047 0)
(-0.00218369 -0.00404179 0)
(-0.00134609 -0.00439476 0)
(-0.00045483 -0.00457493 0)
(0.000454581 -0.00457494 0)
(0.00134584 -0.00439479 0)
(0.00218345 -0.00404185 0)
(0.00293418 -0.00353054 0)
(0.00356854 -0.00288168 0)
(0.00406192 -0.00212147 0)
(0.00439557 -0.00128046 0)
(0.00455728 -0.000392177 0)
(0.00454176 0.000508193 0)
(0.00435072 0.00138511 0)
(0.00399278 0.00220396 0)
(0.003483 0.00293205 0)
(0.00284237 0.00353935 0)
(0.00209752 0.00399853 0)
(0.00128141 0.00428363 0)
(0.000426568 0.00436594 0)
(-0.000517609 0.00530276 0)
(-0.00155497 0.0052032 0)
(-0.00254562 0.00485786 0)
(-0.00345022 0.0043014 0)
(-0.00422884 0.00356508 0)
(-0.00484916 0.00268186 0)
(-0.00528558 0.00168794 0)
(-0.00551956 0.000622817 0)
(-0.00554042 -0.000471553 0)
(-0.00534573 -0.00155201 0)
(-0.00494164 -0.00257567 0)
(-0.00434277 -0.00350157 0)
(-0.00357177 -0.00429234 0)
(-0.00265853 -0.00491576 0)
(-0.00163902 -0.00534625 0)
(-0.00055384 -0.00556606 0)
(0.000553567 -0.00556607 0)
(0.00163875 -0.00534629 0)
(0.00265826 -0.00491582 0)
(0.00357151 -0.00429243 0)
(0.00434253 -0.00350168 0)
(0.00494141 -0.0025758 0)
(0.00534551 -0.00155216 0)
(0.00554021 -0.00047173 0)
(0.00551938 0.000622619 0)
(0.00528542 0.00168772 0)
(0.00484903 0.00268162 0)
(0.00422873 0.00356483 0)
(0.00345013 0.00430112 0)
(0.00254555 0.00485757 0)
(0.00155493 0.0052029 0)
(0.000517594 0.00530245 0)
(-0.000627852 0.00643901 0)
(-0.00188625 0.00631875 0)
(-0.0030884 0.00590075 0)
(-0.00418678 0.00522683 0)
(-0.00513308 0.0043346 0)
(-0.00588803 0.00326367 0)
(-0.00642039 0.00205764 0)
(-0.00670737 0.000764176 0)
(-0.00673557 -0.000565924 0)
(-0.00650164 -0.00188024 0)
(-0.0060126 -0.0031265 0)
(-0.00528589 -0.00425464 0)
(-0.00434882 -0.00521879 0)
(-0.0032377 -0.00597935 0)
(-0.00199643 -0.00650476 0)
(-0.000674661 -0.0067731 0)
(0.000674361 -0.00677311 0)
(0.00199613 -0.0065048 0)
(0.00323741 -0.00597941 0)
(0.00434853 -0.00521889 0)
(0.00528562 -0.00425477 0)
(0.00601235 -0.00312665 0)
(0.0065014 -0.00188041 0)
(0.00673535 -0.000566121 0)
(0.00670717 0.000763956 0)
(0.00642021 0.0020574 0)
(0.00588788 0.00326341 0)
(0.00513295 0.00433432 0)
(0.00418668 0.00522653 0)
(0.00308833 0.00590044 0)
(0.00188621 0.00631841 0)
(0.000627841 0.00643867 0)
(-0.00076126 0.00781706 0)
(-0.00228719 0.00767198 0)
(-0.00374551 0.00716649 0)
(-0.0050789 0.00635093 0)
(-0.00622893 0.00527045 0)
(-0.00714794 0.00397258 0)
(-0.00779778 0.0025097 0)
(-0.00815035 0.000939278 0)
(-0.00818881 -0.000677264 0)
(-0.00790843 -0.00227626 0)
(-0.00731714 -0.00379401 0)
(-0.00643561 -0.0051692 0)
(-0.00529674 -0.00634548 0)
(-0.00394462 -0.00727401 0)
(-0.00243283 -0.00791581 0)
(-0.000822213 -0.0082437 0)
(0.000821885 -0.00824371 0)
(0.0024325 -0.00791586 0)
(0.0039443 -0.00727409 0)
(0.00529643 -0.00634558 0)
(0.00643531 -0.00516933 0)
(0.00731686 -0.00379418 0)
(0.00790816 -0.00227646 0)
(0.00818856 -0.000677482 0)
(0.00815013 0.000939035 0)
(0.00779758 0.00250944 0)
(0.00714777 0.00397229 0)
(0.00622879 0.00527014 0)
(0.00507879 0.0063506 0)
(0.00374543 0.00716614 0)
(0.00228714 0.00767162 0)
(0.000761242 0.0078167 0)
(-0.00092256 0.00948764 0)
(-0.00277201 0.0093129 0)
(-0.00454039 0.00870222 0)
(-0.00615864 0.00771613 0)
(-0.00755619 0.00640868 0)
(-0.00867522 0.00483674 0)
(-0.00946909 0.00306311 0)
(-0.00990309 0.0011569 0)
(-0.00995594 -0.000807666 0)
(-0.00962096 -0.00275332 0)
(-0.00890686 -0.00460237 0)
(-0.00783801 -0.00627965 0)
(-0.00645395 -0.00771579 0)
(-0.00480818 -0.00885042 0)
(-0.00296618 -0.00963517 0)
(-0.00100259 -0.0100362 0)
(0.00100223 -0.0100363 0)
(0.00296582 -0.00963522 0)
(0.00480783 -0.0088505 0)
(0.00645361 -0.0077159 0)
(0.00783768 -0.0062798 0)
(0.00890655 -0.00460255 0)
(0.00962066 -0.00275354 0)
(0.00995567 -0.000807907 0)
(0.00990285 0.00115663 0)
(0.00946887 0.00306281 0)
(0.00867503 0.00483642 0)
(0.00755604 0.00640834 0)
(0.00615852 0.00771577 0)
(0.0045403 0.00870184 0)
(0.00277196 0.00931251 0)
(0.000922545 0.00948724 0)
(-0.00111737 0.0115118 0)
(-0.00335766 0.0113017 0)
(-0.00550098 0.0105649 0)
(-0.00746433 0.00937384 0)
(-0.00916256 0.00779319 0)
(-0.0105256 0.00589071 0)
(-0.0114963 0.00374146 0)
(-0.0120317 0.0014284 0)
(-0.0121049 -0.000958954 0)
(-0.0117062 -0.00332686 0)
(-0.0108451 -0.00558048 0)
(-0.00954983 -0.0076276 0)
(-0.0078679 -0.00938258 0)
(-0.00586419 -0.0107705 0)
(-0.00361875 -0.0117313 0)
(-0.00122334 -0.0122225 0)
(0.00122294 -0.0122225 0)
(0.00361835 -0.0117313 0)
(0.0058638 -0.0107706 0)
(0.00786752 -0.00938271 0)
(0.00954947 -0.00762776 0)
(0.0108447 -0.00558068 0)
(0.0117059 -0.00332709 0)
(0.0121046 -0.000959219 0)
(0.0120315 0.0014281 0)
(0.011496 0.00374114 0)
(0.0105254 0.00589036 0)
(0.00916239 0.00779282 0)
(0.00746419 0.00937345 0)
(0.00550088 0.0105644 0)
(0.0033576 0.0113013 0)
(0.00111735 0.0115113 0)
(-0.00135236 0.0139627 0)
(-0.00406421 0.0137108 0)
(-0.00666049 0.012823 0)
(-0.00904161 0.0113863 0)
(-0.011105 0.00947745 0)
(-0.0127658 0.00717696 0)
(-0.013954 0.00457425 0)
(-0.0146164 0.00176857 0)
(-0.0147183 -0.00113228 0)
(-0.0142463 -0.00401467 0)
(-0.0132096 -0.00676281 0)
(-0.0116411 -0.00926332 0)
(-0.00959737 -0.0114102 0)
(-0.0071571 -0.0131103 0)
(-0.00441825 -0.0142882 0)
(-0.0014939 -0.0148908 0)
(0.00149346 -0.0148908 0)
(0.00441782 -0.0142882 0)
(0.00715668 -0.0131104 0)
(0.00959696 -0.0114104 0)
(0.0116407 -0.0092635 0)
(0.0132092 -0.00676303 0)
(0.0142459 -0.00401492 0)
(0.0147179 -0.00113257 0)
(0.014616 0.00176824 0)
(0.0139537 0.00457389 0)
(0.0127655 0.00717658 0)
(0.0111048 0.00947704 0)
(0.00904145 0.0113859 0)
(0.00666038 0.0128225 0)
(0.00406415 0.0137103 0)
(0.00135234 0.0139622 0)
(-0.00163538 0.0169282 0)
(-0.00491538 0.0166269 0)
(-0.00805817 0.0155591 0)
(-0.0109446 0.0138287 0)
(-0.0134514 0.0115266 0)
(-0.0154757 0.00874781 0)
(-0.016932 0.00559844 0)
(-0.0177538 0.00219684 0)
(-0.0178967 -0.0013275 0)
(-0.0173413 -0.00483698 0)
(-0.0160961 -0.00819018 0)
(-0.0141984 -0.0112474 0)
(-0.0117155 -0.0138772 0)
(-0.00874243 -0.0159628 0)
(-0.0053994 -0.0174095 0)
(-0.00182606 -0.0181502 0)
(0.00182559 -0.0181502 0)
(0.00539892 -0.0174096 0)
(0.00874196 -0.0159629 0)
(0.011715 -0.0138773 0)
(0.014198 -0.0112476 0)
(0.0160957 -0.00819042 0)
(0.0173409 -0.00483726 0)