/*--------------------------------*- C++ -*----------------------------------*\
  =========                 |
  \\      /  F ield         | OpenFOAM: The Open Source CFD Toolbox
   \\    /   O peration     | Website:  https://openfoam.org
    \\  /    A nd           | Version:  9
     \\/     M anipulation  |
\*---------------------------------------------------------------------------*/
FoamFile
{
    format      ascii;
    class       volScalarField;
    location    "39";
    object      p;
}
// * * * * * * * * * * * * * * * * * * * * * * * * * * * * * * * * * * * * * //

dimensions      [0 2 -2 0 0 0 0];

internalField   nonuniform List<scalar> 
400
(
7.0735482e-09
-0.00067286813
-0.001385346
-0.0019427041
-0.002219997
-0.0021564938
-0.0017277896
-0.00092619955
0.00023542034
0.0017074039
0.0033872821
0.0051121891
0.0066734702
0.0078490979
0.0084583918
0.008423695
0.0078134143
0.0068445365
0.0058613162
0.0052989594
0.00065784661
-4.0520533e-05
-0.00056965452
-0.00094062048
-0.001110858
-0.0010399154
-0.00070578475
-9.554037e-05
0.00078910229
0.001916188
0.0032095857
0.0045547018
0.0057819584
0.0067162542
0.0072144271
0.0072145362
0.006769962
0.0060527741
0.0053105349
0.0047384963
0.001423704
0.00044065473
-0.00011659513
-0.00045323859
-0.00061480393
-0.00058480608
-0.00034657431
0.00011974887
0.00082846406
0.0017699102
0.0028942952
0.0040981676
0.0052282381
0.0061109657
0.0065938586
0.0065976531
0.0061557248
0.0054214997
0.0045937433
0.0037482384
0.0020141986
0.00068168883
1.677296e-05
-0.0003588494
-0.00057154595
-0.0006265568
-0.00051007938
-0.00019062664
0.00036850599
0.0011843892
0.002229917
0.0034174313
0.0045913664
0.005556935
0.0061235434
0.0061665474
0.0056836058
0.0048170393
0.00374729
0.0024736012
0.0021672694
0.00049611799
-0.00029625819
-0.0007487035
-0.0010582515
-0.0012452703
-0.0012927504
-0.0011513045
-0.00075505273
-5.3103164e-05
0.00095702257
0.0022102842
0.0035447148
0.0047326702
0.0055218471
0.0057098806
0.0052292777
0.0042015968
0.0028061819
0.00098396129
0.0016539605
-0.00031448031
-0.0012387887
-0.0017993014
-0.0022526617
-0.0026279103
-0.0028986259
-0.0029910912
-0.0028025475
-0.0022376876
-0.0012511051
0.00013088779
0.001744651
0.0033271224
0.004541655
0.0050657802
0.0047174878
0.0035661897
0.0017895881
-0.00072592569
0.00028702279
-0.0019195719
-0.0029730002
-0.0036713841
-0.0043202966
-0.0049531991
-0.0055301212
-0.0059479609
-0.0060590169
-0.0057073966
-0.0047757311
-0.0032587105
-0.0012665188
0.00090717708
0.0028231302
0.0039868349
0.0040250858
0.0028876975
0.00071537078
-0.0026805071
-0.0020764326
-0.0044511938
-0.0056268054
-0.0064923247
-0.0073929214
-0.0083657599
-0.0093569147
-0.01023178
-0.010790979
-0.010804859
-0.010063382
-0.008461785
-0.0060407895
-0.0030832328
-0.00012631587
0.002112615
0.0029638165
0.0021355701
-0.00036604412
-0.0048726195
-0.0055241715
-0.0079921179
-0.0092779233
-0.010333792
-0.011538003
-0.012935419
-0.014462702
-0.015956308
-0.017162463
-0.017766047
-0.017438104
-0.015919499
-0.013122983
-0.0092517783
-0.0048990222
-0.0010300281
0.0012693976
0.0012777518
-0.0013339688
-0.0072016879
-0.010076917
-0.012565102
-0.013936671
-0.015184009
-0.016718388
-0.018602637
-0.020774207
-0.023048759
-0.025121678
-0.026586356
-0.026969367
-0.025812965
-0.022845699
-0.018074466
-0.012051106
-0.0059519672
-0.001370753
0.00030058114
-0.0019472145
-0.0093822362
-0.01568499
-0.01813242
-0.019537567
-0.020926819
-0.022757751
-0.025129897
-0.027997034
-0.031166419
-0.03429147
-0.036876848
-0.038294185
-0.037844302
-0.035065879
-0.029601489
-0.021822513
-0.012985591
-0.0051849898
-0.00071576389
-0.0017642114
-0.010792267
-0.022243604
-0.02461304
-0.0259456
-0.027334972
-0.029324179
-0.032079247
-0.035588975
-0.039664691
-0.043927299
-0.047801314
-0.0505302
-0.051236501
-0.048956904
-0.043143571
-0.033769035
-0.021926359
-0.010036897
-0.0014154572
-9.8789934e-06
-0.010225631
-0.02964123
-0.031923898
-0.032978741
-0.034079878
-0.035939535
-0.038831533
-0.042795637
-0.047651628
-0.052990581
-0.058163621
-0.062284269
-0.064265553
-0.062875182
-0.05711221
-0.046476762
-0.031649104
-0.015037876
-0.00086440219
0.0046467523
-0.0055215479
-0.037866033
-0.04004853
-0.040440125
-0.040752506
-0.042015072
-0.04465309
-0.048758207
-0.054144083
-0.060356071
-0.066665386
-0.072060719
-0.075268308
-0.074811385
-0.069269288
-0.057628326
-0.039961525
-0.018247985
0.0027890272
0.014445148
0.006907539
-0.047230621
-0.049134397
-0.048140586
-0.04688227
-0.046905501
-0.048798717
-0.052668313
-0.058276032
-0.065076122
-0.072232022
-0.078595795
-0.082712347
-0.082880232
-0.077309411
-0.064523957
-0.04393497
-0.016748
0.012502938
0.032938777
0.032408947
-0.058896815
-0.059639923
-0.055883961
-0.051941046
-0.049972296
-0.050629881
-0.053928674
-0.059495371
-0.066611884
-0.074285318
-0.081191191
-0.085679429
-0.085831821
-0.079522215
-0.064876118
-0.040689281
-0.0072409307
0.032139365
0.064981445
0.077749177
-0.076226532
-0.072613737
-0.063516251
-0.055435429
-0.05072502
-0.049781588
-0.05231235
-0.05766439
-0.064891847
-0.072774996
-0.07977939
-0.084036771
-0.083391678
-0.075348983
-0.057602691
-0.028375154
0.012933319
0.065396471
0.11555151
0.15150622
-0.10809227
-0.089556308
-0.071233874
-0.057233079
-0.04907218
-0.046330236
-0.048077279
-0.053202626
-0.060434647
-0.06829589
-0.075027419
-0.078526939
-0.076389031
-0.065809697
-0.043865498
-0.0078184619
0.044393661
0.11299815
0.18838042
0.27186076
-0.17684562
-0.10828967
-0.07620245
-0.05465125
-0.042992409
-0.038998058
-0.040570534
-0.045928066
-0.053441562
-0.061438384
-0.068027611
-0.070962584
-0.067551158
-0.054739858
-0.029148833
0.013563587
0.078146948
0.17006435
0.28949546
0.47421821
-0.37208369
-0.12470858
-0.054973097
-0.031962527
-0.022063572
-0.020300543
-0.024359481
-0.031958025
-0.041261585
-0.050640912
-0.058316927
-0.06218749
-0.059782579
-0.048056834
-0.022658548
0.021474192
0.092818711
0.21015276
0.40288842
0.77640928
)
;

boundaryField
{
    movingWall
    {
        type            zeroGradient;
    }
    fixedWalls
    {
        type            zeroGradient;
    }
    frontAndBack
    {
        type            empty;
    }
}


// ************************************************************************* //
