/*--------------------------------*- C++ -*----------------------------------*\
  =========                 |
  \\      /  F ield         | OpenFOAM: The Open Source CFD Toolbox
   \\    /   O peration     | Website:  https://openfoam.org
    \\  /    A nd           | Version:  9
     \\/     M anipulation  |
\*---------------------------------------------------------------------------*/
FoamFile
{
    format      ascii;
    class       volScalarField;
    location    "0.49";
    object      p_rgh;
}
// * * * * * * * * * * * * * * * * * * * * * * * * * * * * * * * * * * * * * //

dimensions      [1 -1 -2 0 0 0 0];

internalField   nonuniform List<scalar> 
10000
(
0
-0.021732472
-0.050211165
-0.087342706
-0.13329489
-0.18800215
-0.25148291
-0.32366837
-0.40453454
-0.49410686
-0.59228477
-0.69888571
-0.81357529
-0.93614372
-1.0666531
-1.2051569
-1.3512389
-1.5044959
-1.6646221
-1.8312514
-2.0039595
-2.1822886
-2.3657321
-2.5537128
-2.7456075
-2.9407719
-3.1385269
-3.3381468
-3.5388449
-3.7397995
-3.9401773
-4.1391192
-4.3357459
-4.5291461
-4.7183743
-4.9024369
-5.0802233
-5.2501794
-5.411993
-5.5631858
-5.7053006
-5.8372781
-5.9584187
-6.0682868
-6.1666415
-6.2534134
-6.3287124
-6.3927909
-6.4460173
-6.488845
-6.5217734
-6.5453638
-6.5602106
-6.5668951
-6.5659884
-6.5580739
-6.5436924
-6.5234649
-6.4984732
-6.4699891
-6.4369618
-6.3999605
-6.3589351
-6.3135584
-6.2632397
-6.2072467
-6.1447704
-6.0749811
-5.9970988
-5.9105025
-5.8147181
-5.7093469
-5.5942041
-5.4709122
-5.3391703
-5.1991725
-5.0518877
-4.8984846
-4.7403519
-4.57894
-4.4156683
-4.2519011
-4.0889579
-3.9280695
-3.770408
-3.6170768
-3.469104
-3.3273975
-3.1928229
-3.0662038
-2.9483401
-2.8399711
-2.7416665
-2.6538779
-2.5769591
-2.5111866
-2.4567073
-2.414325
-2.3813507
-2.3613183
0.020032068
-0.0013265966
-0.029702704
-0.066722004
-0.11256706
-0.16715785
-0.23048606
-0.30255599
-0.38329363
-0.47275032
-0.57085332
-0.67740998
-0.79226912
-0.91530685
-1.0464174
-1.1854607
-1.3321354
-1.4861118
-1.6470303
-1.8145421
-1.9882409
-2.1676543
-2.3522401
-2.5414492
-2.7346803
-2.9312827
-3.1305856
-3.3318406
-3.5342926
-3.7371428
-3.9395588
-4.1406923
-4.3396586
-4.5355186
-4.7272663
-4.913862
-5.0942855
-5.2675726
-5.4320583
-5.5870078
-5.7323398
-5.8673353
-5.9912756
-6.103619
-6.2040224
-6.2922924
-6.3684394
-6.4326454
-6.485256
-6.5267057
-6.557526
-6.578363
-6.5899463
-6.5930214
-6.5883272
-6.5765927
-6.5583795
-6.5343753
-6.5079373
-6.4771328
-6.4426885
-6.4048704
-6.3636275
-6.3185728
-6.2690143
-6.2140788
-6.1528342
-6.0843129
-6.0075756
-5.9218885
-5.8266984
-5.7217216
-5.6072183
-5.4831721
-5.3502969
-5.2092219
-5.0608456
-4.9063718
-4.7471056
-4.5844642
-4.4198616
-4.2546744
-4.0902668
-3.9279238
-3.7688493
-3.6141582
-3.4648977
-3.3220107
-3.1863737
-3.0588244
-2.9401076
-2.8308904
-2.7317363
-2.6430985
-2.5653708
-2.4988334
-2.4436583
-2.4007512
-2.3671736
-2.34669
0.046665317
0.025393245
-0.0028935998
-0.039885674
-0.085746271
-0.14036371
-0.2037805
-0.27594831
-0.35687406
-0.44651951
-0.54481574
-0.65168079
-0.76698428
-0.89056288
-1.0223173
-1.1620605
-1.3095295
-1.4644165
-1.6264324
-1.7951892
-1.9702645
-2.1512006
-2.337497
-2.5285482
-2.7237409
-2.9224508
-3.1239869
-3.3276225
-3.5325803
-3.7380527
-3.9432074
-4.1471895
-4.3490986
-4.5479562
-4.7427481
-4.9324456
-5.1160111
-5.2923713
-5.4603698
-5.618618
-5.7672186
-5.9051555
-6.0316698
-6.146151
-6.2481474
-6.337405
-6.4138715
-6.4776842
-6.5291541
-6.5687714
-6.5971217
-6.6149418
-6.6230811
-6.6224784
-6.6141258
-6.598952
-6.5772151
-6.5526941
-6.5221942
-6.4892204
-6.453728
-6.4158152
-6.3752483
-6.3315015
-6.283723
-6.2308201
-6.1716408
-6.1050039
-6.029843
-5.9452649
-5.8506473
-5.7456451
-5.6301
-5.50461
-5.3697251
-5.2263003
-5.0753815
-4.918215
-4.7561495
-4.5906211
-4.4230933
-4.255006
-4.0877558
-3.9226725
-3.760992
-3.603865
-3.4523277
-3.3073691
-3.1698744
-3.0406507
-2.9204188
-2.8098052
-2.7093778
-2.6195452
-2.5407688
-2.4732813
-2.4173543
-2.3739427
-2.3395882
-2.318731
0.082083647
0.060871942
0.032637304
-0.0043319769
-0.050176171
-0.10484199
-0.16831443
-0.24061684
-0.32171945
-0.41158793
-0.51019126
-0.61745503
-0.73326161
-0.85750246
-0.99004098
-1.1306895
-1.279223
-1.4353726
-1.598829
-1.7692394
-1.9461919
-2.1292112
-2.3177656
-2.5112825
-2.7091446
-2.9106925
-3.1152251
-3.3220128
-3.5302769
-3.739213
-3.9479799
-4.1557007
-4.3614501
-4.5642282
-4.7630187
-4.956778
-5.1443896
-5.3246378
-5.4960404
-5.6600311
-5.8130826
-5.9548505
-6.0846415
-6.2017548
-6.3056372
-6.3959763
-6.4726474
-6.5357291
-6.5855314
-6.6226063
-6.6476646
-6.6615504
-6.6652561
-6.6599533
-6.6469693
-6.62813
-6.5990129
-6.5697603
-6.5379713
-6.5034204
-6.4670939
-6.4294192
-6.3901341
-6.348548
-6.3035647
-6.2537988
-6.1977631
-6.1340136
-6.0612309
-5.9782995
-5.884471
-5.7793741
-5.662916
-5.5356221
-5.3982383
-5.2516838
-5.0971529
-4.9360214
-4.7697822
-4.5999692
-4.4281268
-4.255779
-4.0843883
-3.9153417
-3.7499098
-3.5892769
-3.4344936
-3.2865699
-3.1463928
-3.0147573
-2.8923823
-2.77982
-2.6776685
-2.5863007
-2.5061883
-2.4375694
-2.3807274
-2.3370061
-2.3016496
-2.2805676
0.12629053
0.10513914
0.076953475
0.040041734
-0.0058054361
-0.060475962
-0.12401385
-0.19643379
-0.27771351
-0.36785269
-0.46682812
-0.57456929
-0.69100296
-0.81603768
-0.94953601
-1.0913343
-1.2412365
-1.3989897
-1.5642962
-1.7368119
-1.9161279
-2.1017599
-2.2931821
-2.4898199
-2.6910379
-2.8961639
-3.1044905
-3.3152714
-3.527723
-3.7410296
-3.9543349
-4.1667464
-4.3773122
-4.5850394
-4.7889367
-4.9879625
-5.1810183
-5.3670605
-5.5452271
-5.7132051
-5.8711194
-6.0176175
-6.1516126
-6.2721902
-6.3786294
-6.4704498
-6.5474275
-6.6095934
-6.6572738
-6.6910953
-6.7118665
-6.720562
-6.7183851
-6.7069519
-6.6872408
-6.6611432
-6.6291027
-6.5946247
-6.5582825
-6.5211199
-6.4835395
-6.4462927
-6.4089755
-6.3705789
-6.3296145
-6.2843229
-6.2327555
-6.1730249
-6.1034741
-6.0227396
-5.9299055
-5.8245444
-5.7066987
-5.5768869
-5.4359857
-5.2851052
-5.1256319
-4.959115
-4.7871985
-4.6115851
-4.4339408
-4.2559022
-4.0790036
-3.9046971
-3.7343006
-3.5690348
-3.4099838
-3.258163
-3.1144652
-2.9796595
-2.85445
-2.7393868
-2.6350266
-2.5417311
-2.4598813
-2.3897984
-2.3316923
-2.2882451
-2.2513018
-2.2301841
0.17920131
0.15813201
0.13002783
0.093157745
0.047360431
-0.0073152922
-0.070905337
-0.14342798
-0.22490347
-0.3153443
-0.41472687
-0.52302259
-0.64018625
-0.76613281
-0.90075992
-1.0439349
-1.1954753
-1.3551524
-1.5226884
-1.6977416
-1.8798996
-2.0686899
-2.2635848
-2.463998
-2.6692847
-2.8787541
-3.0916826
-3.3073071
-3.5248298
-3.7434196
-3.9621973
-4.1802517
-4.3966351
-4.6103479
-4.8204176
-5.025788
-5.2253329
-5.4179171
-5.6023439
-5.7772027
-5.9414799
-6.0938842
-6.2331341
-6.3580721
-6.4677345
-6.5614319
-6.6388136
-6.6998552
-6.7449099
-6.7746715
-6.7900751
-6.7922866
-6.782713
-6.7634088
-6.735703
-6.7015576
-6.6628147
-6.6219678
-6.5805564
-6.5401229
-6.5016067
-6.4652003
-6.4308007
-6.3970037
-6.3617753
-6.322736
-6.2773164
-6.2230557
-6.1578464
-6.0800296
-5.9885233
-5.882835
-5.762971
-5.6296881
-5.4840408
-5.3274052
-5.1614193
-4.9878742
-4.8086167
-4.625542
-4.4404768
-4.2551816
-4.0713059
-3.8903773
-3.7137657
-3.542733
-3.3783969
-3.2217678
-3.0737222
-2.9350514
-2.8063845
-2.6882777
-2.5812472
-2.485668
-2.4018443
-2.3300109
-2.2695798
-2.2262979
-2.1899715
-2.1678922
0.24081565
0.21986803
0.19183388
0.15506893
0.10933334
0.054682303
-0.0089165284
-0.081530391
-0.16319639
-0.25392975
-0.35374819
-0.46265174
-0.5806119
-0.70758058
-0.84349243
-0.98824118
-1.141668
-1.3035697
-1.4736919
-1.6516993
-1.8371832
-2.0296841
-2.2286702
-2.4335373
-2.6436337
-2.858247
-3.0766175
-3.2979623
-3.5214619
-3.7462655
-3.9714829
-4.1961877
-4.4194218
-4.6402117
-4.8575565
-5.0703943
-5.277608
-5.4780229
-5.670363
-5.8532215
-6.0253214
-6.1850792
-6.3309167
-6.4613565
-6.5751079
-6.6712215
-6.7491753
-6.8088594
-6.8506738
-6.8754204
-6.8842623
-6.8787496
-6.859685
-6.8308261
-6.793144
-6.749182
-6.7014243
-6.6524873
-6.6046579
-6.5599653
-6.5199972
-6.485066
-6.4548437
-6.4275084
-6.4002534
-6.3697983
-6.3326835
-6.2856943
-6.2261618
-6.1521078
-6.0622625
-5.9560764
-5.8333855
-5.6954802
-5.5436739
-5.379656
-5.2053816
-5.0229393
-4.8344511
-4.6420546
-4.4477843
-4.2535524
-4.0611275
-3.8721356
-3.6880204
-3.5100688
-3.3394046
-3.1770646
-3.0238902
-2.880639
-2.7479196
-2.6262648
-2.5161473
-2.4179443
-2.3319542
-2.2587038
-2.1969718
-2.1504187
-2.1148844
-2.092583
0.31114369
0.29031804
0.26243305
0.22579497
0.18016687
0.12560466
0.062028827
-0.010642886
-0.092455083
-0.18346172
-0.28371646
-0.39324196
-0.51204388
-0.64012057
-0.77743586
-0.92391828
-1.0794509
-1.2438609
-1.4169072
-1.5982738
-1.7875717
-1.9843461
-2.1880607
-2.398097
-2.6137741
-2.8343529
-3.0590427
-3.2870242
-3.5174505
-3.749449
-3.9821274
-4.2145481
-4.4457425
-4.674725
-4.9004885
-5.1219981
-5.3381652
-5.5478163
-5.7496131
-5.9420813
-6.1237852
-6.2927273
-6.4469217
-6.5844307
-6.7035198
-6.8028964
-6.8817687
-6.939935
-6.9778308
-6.9964599
-6.9972223
-6.981822
-6.9522166
-6.9111193
-6.8609854
-6.8047129
-6.7453484
-6.6859954
-6.6297764
-6.5795105
-6.5374462
-6.5044964
-6.4801448
-6.461853
-6.4455943
-6.4267785
-6.4007402
-6.36329
-6.3110677
-6.2416929
-6.1537285
-6.0467223
-5.9200699
-5.7760675
-5.6163538
-5.442976
-5.258297
-5.0648035
-4.8649538
-4.6611525
-4.4557031
-4.2507324
-4.0481265
-3.8495713
-3.6565975
-3.4705375
-3.2925191
-3.123522
-2.9644076
-2.815897
-2.6785542
-2.5528947
-2.4391961
-2.3381224
-2.2494225
-2.1740575
-2.1115454
-2.0628204
-2.0268086
-2.0042808
0.39013285
0.36951374
0.34180523
0.30534812
0.2599107
0.20548854
0.14199478
0.069340699
-0.012559965
-0.10379816
-0.20444713
-0.31457229
-0.43422838
-0.56345122
-0.70224677
-0.85059035
-1.0084136
-1.1755787
-1.3518687
-1.5369964
-1.7305978
-1.9322258
-2.1413343
-2.3572865
-2.5793606
-2.8067744
-3.0387022
-3.2742884
-3.5126428
-3.7528803
-3.9941088
-4.2353942
-4.4757355
-4.7140843
-4.9494567
-5.1809309
-5.4074569
-5.6278869
-5.8409016
-6.0448562
-6.2383948
-6.4188415
-6.5837253
-6.7304226
-6.8565413
-6.9602767
-7.0405399
-7.0970696
-7.1303813
-7.1416213
-7.1326283
-7.1054144
-7.0624728
-7.0066284
-6.9412263
-6.8696412
-6.7955727
-6.7228076
-6.6555429
-6.597663
-6.552457
-6.5219901
-6.5057348
-6.5000842
-6.4989474
-6.4957881
-6.4843428
-6.4591997
-6.4161609
-6.3523559
-6.2662738
-6.1581403
-6.0256247
-5.8737256
-5.7039122
-5.5187335
-5.3210977
-5.1139784
-4.9002825
-4.6827652
-4.4639867
-4.2462821
-4.0317148
-3.8220455
-3.6188457
-3.4234325
-3.2370051
-3.0605025
-2.8946827
-2.7402351
-2.5977146
-2.4677433
-2.3497658
-2.2454951
-2.1543544
-2.0766594
-2.0125142
-1.962205
-1.9254167
-1.9025643
0.47777926
0.45740379
0.42994217
0.39375912
0.34857403
0.29437167
0.23106287
0.15851744
0.076612734
-0.014766272
-0.11573113
-0.22639783
-0.34686765
-0.47722129
-0.6175281
-0.76782235
-0.9280783
-1.0982055
-1.2780389
-1.4673251
-1.6657227
-1.8727917
-2.0879824
-2.3106314
-2.5399677
-2.775158
-3.0153192
-3.2595276
-3.5068696
-3.756454
-4.0074117
-4.2588116
-4.5096099
-4.7586108
-5.0048563
-5.2476463
-5.4860685
-5.7189666
-5.9452241
-6.1633925
-6.3711158
-6.5660494
-6.744753
-6.9035317
-7.039001
-7.1486183
-7.2309712
-7.285766
-7.3137017
-7.3161859
-7.2954487
-7.2540456
-7.1949225
-7.1213345
-7.0371882
-6.9466534
-6.8542189
-6.7642827
-6.6822602
-6.6136035
-6.5635733
-6.5359251
-6.5305791
-6.5428998
-6.5625412
-6.5803171
-6.5878649
-6.5782822
-6.5464697
-6.4889862
-6.4038687
-6.2899076
-6.1529755
-5.9912996
-5.8086014
-5.6085283
-5.3948051
-5.171031
-4.9406092
-4.7067218
-4.47224
-4.2396643
-4.0112082
-3.788737
-3.5739056
-3.3679861
-3.172084
-2.9871769
-2.8139492
-2.6529491
-2.5047014
-2.3696614
-2.2479379
-2.139986
-2.0458845
-1.9657673
-1.8997314
-1.847914
-1.810205
-1.7869553
0.57399967
0.55396575
0.52684654
0.49100721
0.44617244
0.39231143
0.3293017
0.2569827
0.17520832
0.083821404
-0.017340713
-0.12843651
-0.24961926
-0.3810407
-0.52283925
-0.67511152
-0.83789185
-1.0111541
-1.1947968
-1.3886163
-1.5923003
-1.8054167
-2.0274082
-2.2575824
-2.4951149
-2.7391052
-2.988589
-3.2425314
-3.4999768
-3.7600751
-4.0220398
-4.2849597
-4.5477818
-4.8088655
-5.0673385
-5.322861
-5.574743
-5.8219155
-6.063448
-6.2982426
-6.52409
-6.7377689
-6.9347072
-7.1096389
-7.2576806
-7.375283
-7.460649
-7.5135899
-7.5352039
-7.5273657
-7.492649
-7.4343648
-7.3558632
-7.2610153
-7.1543094
-7.0406652
-6.9253861
-6.8135676
-6.7117878
-6.6275774
-6.5694022
-6.5445835
-6.5541262
-6.5924763
-6.6405586
-6.6860008
-6.7178781
-6.7275577
-6.7091121
-6.6587343
-6.5745628
-6.4565502
-6.3085329
-6.132724
-5.9331256
-5.7142113
-5.4805394
-5.2364687
-4.985993
-4.7326985
-4.4798085
-4.2300463
-3.9857393
-3.7487751
-3.5208011
-3.3031415
-3.0968193
-2.9027503
-2.7214947
-2.5530461
-2.3988792
-2.2586294
-2.132554
-2.0208233
-1.9235578
-1.8408645
-1.7728091
-1.7194411
-1.6807026
-1.6569483
0.6787298
0.65918005
0.63247546
0.59707698
0.55272984
0.49934206
0.43677253
0.36484498
0.28337495
0.1921535
0.090972375
-0.020377619
-0.14212119
-0.2744882
-0.41769184
-0.57190075
-0.73723231
-0.91374917
-1.1014253
-1.3001182
-1.5095591
-1.7293376
-1.9588907
-2.1974998
-2.4442832
-2.6982242
-2.958209
-3.223091
-3.491836
-3.7636633
-4.0380236
-4.3140412
-4.5910043
-4.8658685
-5.1380869
-5.4079496
-5.6748986
-5.937937
-6.1968778
-6.451661
-6.7003084
-6.9386729
-7.1602586
-7.3572237
-7.5223197
-7.65064
-7.7401167
-7.7910223
-7.80516
-7.7852099
-7.7338879
-7.6557632
-7.5543475
-7.4342396
-7.300727
-7.1594771
-7.0165104
-6.8771967
-6.7490259
-6.641835
-6.5696063
-6.5469616
-6.5771898
-6.6537262
-6.7402545
-6.8217053
-6.8842323
-6.9170964
-6.9138428
-6.8705404
-6.7852116
-6.6590067
-6.4966302
-6.3019999
-6.0804576
-5.8377305
-5.5793964
-5.3106482
-5.036204
-4.7601167
-4.4858855
-4.216425
-3.9541362
-3.7009538
-3.4584336
-3.2278311
-3.0100649
-2.8059688
-2.6158889
-2.4403103
-2.2796096
-2.1337938
-2.0030576
-1.8873936
-1.7868481
-1.7014532
-1.6312472
-1.5762612
-1.5364395
-1.5120732
0.79190391
0.77297677
0.74679241
0.71196851
0.66824012
0.61548009
0.55353628
0.48220193
0.40124811
0.31042216
0.20946206
0.098090683
-0.023996696
-0.157109
-0.30154434
-0.45756966
-0.62540879
-0.80522563
-0.99708962
-1.200943
-1.4165806
-1.6436397
-1.8815735
-2.1296363
-2.3868632
-2.6520719
-2.9239292
-3.201102
-3.4824109
-3.7671221
-4.0553955
-4.3463079
-4.6404338
-4.931031
-5.2181591
-5.5048092
-5.7888416
-6.0687813
-6.3468337
-6.6255806
-6.9034523
-7.1750964
-7.4308714
-7.6586476
-7.8471148
-7.9895834
-8.0842709
-8.1326198
-8.1377291
-8.1033038
-8.0332296
-7.9318117
-7.8036072
-7.6540281
-7.4891892
-7.3156494
-7.1398676
-6.9670316
-6.8043774
-6.6634586
-6.5666191
-6.5439501
-6.6043848
-6.7385271
-6.8759569
-7.0019602
-7.1018464
-7.1613841
-7.1742469
-7.136925
-7.0451305
-6.9064502
-6.7239849
-6.50405
-6.2539311
-5.9810211
-5.6922167
-5.3936716
-5.09077
-4.7880501
-4.4892564
-4.1974495
-3.9149958
-3.6437955
-3.3852975
-3.1406129
-2.9104827
-2.6958339
-2.4966961
-2.3132978
-2.145845
-1.9943297
-1.8587674
-1.739068
-1.6351816
-1.5470432
-1.4746026
-1.4178826
-1.3769774
-1.3519222
0.91344078
0.89531669
0.86976984
0.83563063
0.79267404
0.74073278
0.67962847
0.60912125
0.52894669
0.43880936
0.33837081
0.22727854
0.1051534
-0.028407949
-0.17380752
-0.33143346
-0.50163627
-0.68470234
-0.88081733
-1.0900444
-1.3122773
-1.5472384
-1.7944287
-2.0530801
-2.3221248
-2.6001661
-2.8855921
-3.1767131
-3.4719632
-3.7702334
-4.0741675
-4.3822047
-4.6977798
-5.0064143
-5.308878
-5.6155833
-5.920086
-6.2166304
-6.5143293
-6.8218657
-7.1384021
-7.4560654
-7.7607408
-8.0326914
-8.2533804
-8.4139491
-8.5143569
-8.5587881
-8.5527181
-8.5013948
-8.4095217
-8.2816854
-8.1230953
-7.9400213
-7.739321
-7.5289011
-7.3157419
-7.104027
-6.8983732
-6.7092448
-6.5684968
-6.5370606
-6.6488216
-6.8640559
-7.0711431
-7.2497858
-7.3942693
-7.4816645
-7.5092149
-7.4763597
-7.3720113
-7.2110175
-6.999016
-6.7445152
-6.4570546
-6.1459745
-5.8196037
-5.4851647
-5.1487003
-4.8151173
-4.4882917
-4.1713125
-3.8664942
-3.5755469
-3.2997494
-3.0397279
-2.7969695
-2.5711565
-2.362521
-2.1710519
-1.9966916
-1.8394128
-1.6989946
-1.5752551
-1.4680165
-1.3771268
-1.302416
-1.243823
-1.2019223
-1.1762787
1.0433215
1.0261319
1.0013202
0.96799196
0.92598096
0.87506424
0.81503828
0.74564159
0.66656339
0.57745669
0.477914
0.36749703
0.24574335
0.11214203
-0.033843393
-0.19273558
-0.36502891
-0.55116495
-0.75148265
-0.96619392
-1.1953608
-1.4388345
-1.6961956
-1.9666822
-2.249135
-2.5419457
-2.843091
-3.1504778
-3.4616961
-3.7723063
-4.0941855
-4.4213833
-4.7675294
-5.1011173
-5.4296207
-5.7533799
-6.0768707
-6.3826086
-6.697987
-7.0413647
-7.4104284
-7.7948635
-8.1723429
-8.5094882
-8.7743078
-8.9560302
-9.0603349
-9.0977146
-9.0775978
-9.0067142
-8.8903448
-8.7331892
-8.5412636
-8.321385
-8.0805401
-7.8289779
-7.5755895
-7.3225239
-7.0671229
-6.8115735
-6.5930662
-6.5425624
-6.770762
-7.0666367
-7.357157
-7.5902288
-7.7954754
-7.9093143
-7.944352
-7.9165806
-7.7809873
-7.5853543
-7.331154
-7.0296242
-6.6933828
-6.3340765
-5.9616014
-5.5841506
-5.2083044
-4.8391919
-4.480723
-4.1357933
-3.8064986
-3.4941446
-3.1993224
-2.9240777
-2.6678119
-2.4304825
-2.2121066
-2.0124821
-1.8312328
-1.6682022
-1.5230208
-1.3953401
-1.2848615
-1.1913153
-1.1143395
-1.0534057
-1.0114598
-0.98481853
1.1815373
1.1652893
1.1413311
1.1089503
1.0680501
1.0183813
0.95971038
0.89175413
0.8141482
0.72648155
0.62828866
0.5190486
0.398191
0.26507918
0.11902636
-0.040648487
-0.21460595
-0.40346749
-0.6077803
-0.82797162
-1.0643102
-1.3168391
-1.5852853
-1.8689694
-2.166689
-2.4766843
-2.7962852
-3.1234515
-3.4564288
-3.7707562
-4.1150995
-4.4588447
-4.8536836
-5.2273148
-5.5827164
-5.9389408
-6.2820473
-6.5696303
-6.8925588
-7.2817318
-7.725289
-8.2118038
-8.7029539
-9.1390088
-9.4627966
-9.6663515
-9.7688268
-9.7902872
-9.7488047
-9.6549166
-9.5119313
-9.3253393
-9.1021301
-8.8455259
-8.559904
-8.2613237
-7.9669975
-7.6750258
-7.3699849
-7.0396144
-6.7155011
-6.5306401
-6.900395
-7.4542958
-7.8515634
-8.0415262
-8.3480336
-8.4852392
-8.509813
-8.4296846
-8.2885788
-8.0461145
-7.731713
-7.3660207
-6.9660027
-6.5459243
-6.1171358
-5.6885348
-5.2669666
-4.8574729
-4.4636593
-4.088062
-3.7323587
-3.3962008
-3.083012
-2.7913863
-2.5212578
-2.2723008
-2.0441701
-1.8364201
-1.6484933
-1.479892
-1.3301515
-1.1987487
-1.0852609
-0.98932077
-0.91051808
-0.85076457
-0.80519403
-0.77687403
1.3280244
1.3126365
1.2896407
1.2583298
1.218715
1.1705428
1.1135382
1.0473872
0.97168421
0.88595913
0.78967349
0.68221653
0.56289682
0.43093173
0.28549036
0.12570929
-0.049285669
-0.24033784
-0.4482524
-0.67373354
-0.91730808
-1.1792854
-1.4596457
-1.7579454
-2.0730423
-2.4027242
-2.7439827
-3.0928055
-3.4433251
-3.786476
-4.1357012
-4.4844885
-4.9310101
-5.3575953
-5.3508877
-6.015295
-6.5539114
-6.7668061
-7.0919136
-7.5435993
-8.0916752
-8.7301271
-9.4163506
-10.009374
-10.405383
-10.613823
-10.692624
-10.686431
-10.621587
-10.502374
-10.333051
-10.117451
-9.8657047
-9.5822912
-9.2514681
-8.8889794
-8.5503059
-8.2394511
-7.8973939
-7.552427
-7.0313345
-6.5662693
-6.5327211
-6.5600236
-7.2053848
-8.4256516
-9.1349467
-9.2785581
-9.2980313
-9.1867016
-8.9564279
-8.6208445
-8.2146222
-7.7602374
-7.2767717
-6.7805285
-6.2836152
-5.7949336
-5.320925
-4.8660956
-4.4333704
-4.0246231
-3.6396411
-3.2810107
-2.9477931
-2.6394799
-2.3554197
-2.0949487
-1.8573381
-1.6417564
-1.4474773
-1.2736678
-1.1197044
-0.98490462
-0.86871731
-0.77070936
-0.69124273
-0.62792592
-0.58170289
-0.5520159
1.4826408
1.4679637
1.4460027
1.4158905
1.377751
1.3313456
1.2763448
1.2124089
1.1391068
1.0559111
0.96219468
0.85723797
0.74021991
0.61021218
0.46624514
0.30724857
0.13208639
-0.060376599
-0.27126091
-0.50158693
-0.75220163
-1.0237543
-1.3166486
-1.6311037
-1.9660673
-2.3194421
-2.6875994
-3.0654715
-3.4453923
-3.8167312
-4.1772244
-4.5237844
-4.8868965
-3.9626384
-2.3671595
-3.126374
-6.2610225
-6.8550464
-7.244708
-7.8278902
-8.5511946
-9.4474001
-10.438909
-11.271266
-11.746801
-11.938019
-11.955942
-11.871675
-11.745747
-11.593691
-11.400978
-11.181266
-10.94762
-10.679747
-10.293773
-9.799134
-9.3968827
-9.1082005
-8.6707723
-8.1696383
-7.2451852
-7.5048606
-8.0617479
-8.4516779
-9.0300419
-9.1678149
-9.6739742
-10.26224
-10.405706
-10.211677
-9.8257902
-9.3339984
-8.7913019
-8.2156581
-7.6244545
-7.0341926
-6.4561219
-5.8979372
-5.3648349
-4.8600246
-4.3851991
-3.9404668
-3.5271673
-3.1442295
-2.7908416
-2.4659508
-2.1683205
-1.8967991
-1.6502077
-1.4273603
-1.2272498
-1.0487841
-0.89106461
-0.75328258
-0.63477195
-0.5350579
-0.45308383
-0.38857432
-0.34147838
-0.31012317
1.6451445
1.6309687
1.6100956
1.5813208
1.5448589
1.5004958
1.4478719
1.3866223
1.3162863
1.2362792
1.1458901
1.0442709
0.93045915
0.8034012
0.66197079
0.50489427
0.3307229
0.13792781
-0.074984568
-0.30938971
-0.56650683
-0.84735002
-1.1528828
-1.4846808
-1.8423487
-2.2240958
-2.6265284
-3.0454229
-3.4739195
-3.8962254
-4.3004399
-4.7478857
-4.6906731
-2.8580204
-2.7993774
-3.0604477
-5.140865
-6.8468671
-7.3184776
-8.1095095
-9.1179866
-10.523993
-12.091983
-13.24853
-13.713239
-13.772359
-13.632239
-13.407331
-13.207734
-13.028385
-12.81692
-12.600167
-12.431321
-12.310516
-11.93886
-11.204976
-10.614771
-10.305491
-9.57645
-8.527445
-7.4387614
-8.4707216
-9.2250535
-9.7723882
-10.533729
-11.570414
-11.882568
-11.515725
-11.876536
-11.667697
-10.965499
-10.208916
-9.4664557
-8.7292242
-8.0024677
-7.2989276
-6.6264514
-5.9897533
-5.3915374
-4.8328544
-4.3130969
-3.8326409
-3.3896026
-2.9823788
-2.6092657
-2.2684068
-1.9579524
-1.6762074
-1.4214583
-1.1921746
-0.98697923
-0.80457369
-0.64373668
-0.50349801
-0.38306624
-0.28158825
-0.19821266
-0.13265272
-0.08466392
-0.05153306
1.8151635
1.8012613
1.7815273
1.7542195
1.719636
1.6776084
1.6277641
1.5697253
1.5029892
1.4268998
1.3406839
1.243377
1.1338644
1.0109057
0.87327026
0.71956412
0.54788899
0.35620203
0.1425689
-0.094800993
-0.35748464
-0.64679511
-0.96365634
-1.3136214
-1.6964264
-2.1113002
-2.5563781
-3.0328001
-3.5387942
-4.0411774
-4.5345832
-5.1179322
-4.9339595
-2.8813846
-3.1756628
-3.7245634
-5.8553883
-6.9411281
-7.5123164
-8.6457691
-9.9735367
-12.097227
-14.974675
-16.584938
-16.756368
-16.490423
-16.006372
-15.528282
-15.181868
-14.901624
-14.668586
-14.583588
-14.633554
-15.016716
-15.109853
-13.64876
-11.959913
-12.16857
-11.148695
-8.5960647
-8.7739087
-9.9803831
-11.734186
-12.322588
-13.310017
-14.27605
-14.619811
-14.06682
-13.171418
-13.491727
-12.354265
-11.241531
-10.226715
-9.2849244
-8.3956755
-7.560932
-6.7823409
-6.0597136
-5.3919089
-4.7764758
-4.2118668
-3.6948642
-3.2224886
-2.7918086
-2.4000444
-2.0444143
-1.7223641
-1.431588
-1.1698567
-0.9352439
-0.72597914
-0.54052125
-0.37738972
-0.23537813
-0.1136318
-0.01099415
0.073368136
0.13972726
0.18848832
0.22341355
1.9921609
1.9783686
1.9598109
1.9340846
1.9015736
1.8621935
1.8155519
1.7612606
1.698807
1.6274847
1.5464008
1.454509
1.3505333
1.2329721
1.1005191
0.95214985
0.78498602
0.59631056
0.38361449
0.14472263
-0.12242445
-0.41959766
-0.74302528
-1.1111562
-1.5211876
-1.9731549
-2.4688165
-3.0192821
-3.6225919
-4.2202313
-4.8368806
-5.5692267
-6.1585043
-3.6228543
-3.6316172
-5.7531452
-6.8419466
-7.0956046
-7.9132028
-9.880046
-12.290736
-15.831061
-20.812476
-22.495014
-22.007986
-20.899964
-19.295887
-18.009467
-17.370612
-16.975507
-16.594364
-16.698346
-17.494297
-19.59457
-22.031617
-19.226568
-14.653141
-16.925927
-15.315191
-10.308231
-10.581468
-13.804261
-16.21249
-17.641669
-18.600326
-18.844333
-18.387955
-17.597056
-16.063592
-15.248396
-13.824808
-12.348806
-11.02836
-9.850643
-8.7785401
-7.79965
-6.9071305
-6.0942041
-5.3544849
-4.6829016
-4.0735477
-3.5212308
-3.0211015
-2.5687543
-2.1601518
-1.7915932
-1.459725
-1.1615406
-0.89434214
-0.65577995
-0.4437169
-0.2563035
-0.091887558
0.050894991
0.17339489
0.27659065
0.36146585
0.42829048
0.47758405
0.51428698
2.1754995
2.1616929
2.1443379
2.1203036
2.0900491
2.053612
2.0106003
1.96062
1.9031607
1.8375035
1.7626896
1.6775404
1.5804925
1.4697074
1.3434418
1.2051574
1.0444581
0.86032382
0.65055089
0.41215297
0.14168486
-0.16465305
-0.50065552
-0.88569951
-1.3163089
-1.8011485
-2.3473803
-2.9766967
-3.6959004
-4.4197331
-5.1700727
-5.9896645
-6.8240745
-7.3830774
-7.6482509
-7.4994559
-7.1197336
-6.4741841
-7.9579664
-11.933317
-16.978896
-24.188001
-29.044859
-27.690298
-28.298526
-27.584635
-24.179504
-21.876043
-20.701139
-19.660356
-18.960935
-19.940925
-22.092433
-27.677467
-36.115175
-30.40742
-24.41662
-24.168916
-24.064718
-17.452299
-15.485223
-20.280701
-26.100961
-30.50012
-30.548627
-27.274337
-23.663718
-21.193061
-19.329749
-17.290162
-15.365475
-13.459047
-11.810391
-10.380807
-9.1161988
-7.9882175
-6.9800523
-6.0765221
-5.2674403
-4.541689
-3.8903356
-3.3056288
-2.7806505
-2.3094891
-1.8867795
-1.5078065
-1.1684157
-0.86491222
-0.59411865
-0.35326149
-0.13987744
0.048191765
0.21278149
0.35551626
0.47778479
0.58080548
0.66564665
0.73252084
0.78203094
0.82048623
2.3644788
2.3505067
2.334387
2.3121256
2.2842882
2.2510565
2.2120774
2.1669816
2.1152724
2.0562262
1.9889142
1.9120813
1.8238725
1.7215089
1.6126176
1.4789745
1.3259138
1.1493822
0.94577909
0.71140077
0.44205368
0.13380504
-0.20646573
-0.60238299
-1.0526972
-1.5716706
-2.1673749
-2.8752278
-3.7266744
-4.6118178
-5.5340772
-6.4891894
-7.367808
-8.1774283
-8.7325315
-8.5549642
-7.421971
-6.2257502
-8.0478919
-12.83337
-18.041441
-26.340383
-2.7980399
-42.094153
-44.237489
-41.997496
-33.764256
-26.809825
-22.775169
-21.718362
-19.122899
-23.251648
-30.782497
-41.910734
-60.822601
-68.112912
-46.137139
-1.1175019
-24.94839
-23.892833
-20.439086
-28.402242
-41.018605
-51.05952
-49.529086
-40.3888
-30.747261
-25.253504
-22.237017
-19.452187
-16.83047
-14.477739
-12.497586
-10.819411
-9.3669842
-8.0952014
-6.9768839
-5.9899965
-5.116784
-4.3423325
-3.65425
-3.0419743
-2.4966179
-2.0106356
-1.5774417
-1.1912725
-0.84718667
-0.54088758
-0.26871173
-0.027483376
0.1855607
0.37281711
0.53633297
0.67788895
0.79900329
0.90106761
0.98525914
1.0516931
1.101097
1.141231
2.5583125
2.5440009
2.5290884
2.5086471
2.483331
2.4535397
2.4189679
2.3792925
2.3340904
2.2826642
2.2241252
2.157354
2.0813086
1.9969939
1.8924517
1.7712813
1.6301244
1.4649445
1.2714122
1.04519
0.7810647
0.47312296
0.13793622
-0.26615812
-0.72225266
-1.2665297
-1.9080362
-2.6827095
-3.6374471
-4.7062963
-5.8524399
-6.9467506
-7.8755255
-9.1742142
-10.914231
-11.574754
-11.221059
-11.558422
-10.013417
-8.7218306
-11.308864
27.627338
3.6744879
-30.241384
-58.145924
-50.308906
-42.17091
-25.041377
5.9706475
94.959574
23.86456
-21.44271
-42.407748
-46.16742
-61.502142
-67.467454
-37.232492
77.842191
-21.31198
-10.165832
-15.457008
-31.634414
-53.899487
-67.964339
-65.592676
-52.266929
-37.143108
-28.994683
-24.836863
-21.279727
-18.046732
-15.286827
-13.008142
-11.106838
-9.4873598
-8.0880682
-6.8740594
-5.8155274
-4.8887398
-4.0746711
-3.3577266
-2.7247278
-2.1649779
-1.6693867
-1.2302046
-0.84074572
-0.49532657
-0.18912865
0.081942029
0.32139975
0.53225229
0.71708753
0.87814405
1.0173327
1.1362736
1.2365459
1.3194348
1.3849021
1.4338527
1.4755755
2.7561202
2.7412494
2.7274622
2.7088158
2.6860608
2.6598652
2.6300118
2.59625
2.5582525
2.5153861
2.4667565
2.4112665
2.3483364
2.2758812
2.1878063
2.0827952
1.9575815
1.8079873
1.6291612
1.4162148
1.1643141
0.87088644
0.53132229
0.12821865
-0.31600777
-0.87300626
-1.5366523
-2.3415675
-3.3473845
-4.543199
-5.8400867
-7.0905036
-8.1808355
-10.506275
-14.979251
-16.909136
-15.209376
-20.061726
-11.861893
3.6640924
-3.7632709
19.557807
44.770706
-28.690223
-19.500651
247.71682
1818.9106
4232.2508
5230.087
5211.3568
4492.0478
3857.453
1889.8854
237.84574
-168.45122
-92.928105
14.758101
77.968123
9.1384253
12.358255
-4.9534824
-30.837221
-58.591545
-70.188006
-66.534511
-53.460274
-38.018811
-30.76581
-26.3914
-22.40288
-18.80467
-15.758584
-13.264663
-11.187436
-9.4333244
-7.9353694
-6.6481655
-5.5361266
-4.5707836
-3.7296075
-2.9941471
-2.3492895
-1.7826323
-1.283785
-0.84395994
-0.45571141
-0.11276862
0.19010274
0.45735565
0.69274933
0.89944278
1.0801898
1.2373088
1.372845
1.4885508
1.5861723
1.6670445
1.7309769
1.7790801
1.8222736
2.9569227
2.941208
2.9283994
2.9114539
2.8911988
2.8686274
2.8436773
2.8162207
2.7860728
2.7526744
2.714984
2.6718049
2.6255234
2.5686083
2.4989391
2.4134429
2.3083318
2.1790002
2.0200228
1.8260364
1.5948691
1.3199565
0.98809752
0.59457128
0.13885475
-0.40331059
-1.046053
-1.8359962
-2.836432
-4.0946898
-5.5438369
-7.0334014
-8.4413318
-12.216996
-22.388923
-25.141339
-16.462226
-2.4150201
-15.339984
13.522315
24.355536
-32.782828
178.39469
734.23608
3526.7359
5317.0977
6205.3822
6799.7056
6637.4541
6302.9646
6141.0973
6215.3356
5517.0795
4237.0251
2698.2466
835.16472
165.92453
218.43539
37.529952
22.998298
-3.349034
-29.406981
-53.846481
-59.694728
-52.177416
-42.28019
-33.908654
-30.292589
-26.867431
-22.695144
-19.003219
-15.829261
-13.197729
-11.009126
-9.1697787
-7.6100705
-6.279139
-5.1371647
-4.1523804
-3.2996774
-2.5586089
-1.9125619
-1.3478349
-0.85305032
-0.41866274
-0.036652958
0.29964204
0.59576043
0.85640025
1.0853956
1.2860222
1.4608823
1.6125588
1.7431468
1.8545333
1.948591
2.0266892
2.088453
2.1352725
2.1797691
3.15971
3.1427633
3.1306907
3.1152312
3.0972637
3.078176
3.0581264
3.0372019
3.0154709
2.9925367
2.9669526
2.9343073
2.9091767
2.8722608
2.8242432
2.7621426
2.6817219
2.5778631
2.4442471
2.2732709
2.0766591
1.8190602
1.506592
1.1309212
0.69179457
0.18344905
-0.43464132
-1.1884921
-2.1685378
-3.5180901
-5.2136127
-7.320566
-9.8919599
-13.883474
-33.081273
-30.753898
-26.157494
-14.065115
-15.453032
12.333604
75.289513
419.90654
2051.4469
5158.9823
6181.2445
5977.256
6095.3828
6238.172
6190.795
6044.8082
5905.1077
5793.5959
5522.3854
5108.8897
5368.4291
5721.58
3117.5302
1016.1132
174.5026
30.680298
-17.450165
-36.76488
-48.800672
-39.128843
-36.236505
-34.710302
-30.469769
-29.834236
-27.252528
-22.40304
-18.707014
-15.476854
-12.777432
-10.540218
-8.6694289
-7.0913792
-5.7516049
-4.6076696
-3.6260382
-2.7800943
-2.0483993
-1.413376
-0.86057595
-0.37797483
0.04438419
0.41476871
0.74002223
1.0258704
1.277137
1.4975799
1.6900863
1.8574399
2.0022163