/*--------------------------------*- C++ -*----------------------------------*\
  =========                 |
  \\      /  F ield         | OpenFOAM: The Open Source CFD Toolbox
   \\    /   O peration     | Website:  https://openfoam.org
    \\  /    A nd           | Version:  9
     \\/     M anipulation  |
\*---------------------------------------------------------------------------*/
FoamFile
{
    format      ascii;
    class       surfaceScalarField;
    location    "0.49";
    object      phi;
}
// * * * * * * * * * * * * * * * * * * * * * * * * * * * * * * * * * * * * * //

dimensions      [0 3 -1 0 0 0 0];

internalField   nonuniform List<scalar> 
19800
(
4.5903456e-05
-2.9709823e-05
6.4829173e-05
-2.8907089e-05
8.3625363e-05
-2.85115e-05
0.00010211071
-2.7679629e-05
0.00012042319
-2.7092538e-05
0.0001385291
-2.6296285e-05
0.00015645329
-2.5588637e-05
0.00017424073
-2.4883833e-05
0.00019197195
-2.43177e-05
0.00020971211
-2.3880856e-05
0.00022747269
-2.3569468e-05
0.00024543686
-2.3567703e-05
0.00026365884
-2.3699798e-05
0.00028232744
-2.4305967e-05
0.00030151339
-2.5172636e-05
0.00032143503
-2.6495181e-05
0.00034224139
-2.8216621e-05
0.00036409892
-3.0389022e-05
0.00038724136
-3.3038268e-05
0.00041181703
-3.6138059e-05
0.00043792994
-3.969046e-05
0.00046569567
-4.3595697e-05
0.00049527446
-4.7802457e-05
0.00052669552
-5.2269866e-05
0.0005598945
-5.6776003e-05
0.00059480826
-6.1213306e-05
0.00063125462
-6.5245852e-05
0.00066896844
-6.864603e-05
0.00070756797
-7.1251163e-05
0.00074645777
-7.2650813e-05
0.00078491395
-7.2631239e-05
0.00082207553
-7.0931067e-05
0.00085690312
-6.7367689e-05
0.00088818857
-6.1536399e-05
0.00091462674
-5.3304598e-05
0.00093469981
-4.2444177e-05
0.0009466967
-2.8590599e-05
0.00094963397
-1.2238929e-05
0.00094752969
6.3532323e-06
0.00093497539
2.8165194e-05
0.00091248213
5.08479e-05
0.00088033486
7.4232156e-05
0.00083890878
9.7618233e-05
0.00078896492
0.00012016263
0.00073158815
0.00014070126
0.00066812814
0.00015828599
0.00060022641
0.00017195049
0.00052991516
0.00018090091
0.00045920921
0.00018470232
0.00039035909
0.0001829934
0.00032557152
0.00017561311
0.00026702577
0.00016280603
0.00021666383
0.00014488841
0.00017616175
0.00012260778
0.00014692597
9.6780151e-05
0.00012976376
6.8672757e-05
0.00012507201
3.9341325e-05
0.00013306637
9.7240033e-06
0.000151042
-1.6287285e-05
0.00017987515
-4.0587082e-05
0.00021866752
-6.0858691e-05
0.0002647017
-7.6418643e-05
0.00031537478
-8.7040721e-05
0.00036817682
-9.2828771e-05
0.00042065711
-9.3686671e-05
0.00047056917
-9.0115255e-05
0.00051591812
-8.2562001e-05
0.00055505303
-7.1714598e-05
0.00058679306
-5.8340689e-05
0.00061028854
-4.3172998e-05
0.0006250118
-2.6892005e-05
0.0006303187
-1.0105125e-05
0.00062791362
7.3935226e-06
0.0006196329
2.3210164e-05
0.00060599795
3.8442742e-05
0.00058676093
5.2427296e-05
0.00056237919
6.4452317e-05
0.00053398179
7.4074587e-05
0.00050248231
8.154961e-05
0.00046874428
8.7002404e-05
0.00043358906
9.0592434e-05
0.00039774765
9.2457733e-05
0.00036184139
9.2777155e-05
0.00032644065
9.175846e-05
0.00029201863
8.962838e-05
0.00025895215
8.6543815e-05
0.00022756542
8.2702565e-05
0.00019805853
7.8274207e-05
0.00017059583
7.3472191e-05
0.00014530696
6.844017e-05
0.00012222506
6.3371653e-05
0.00010133171
5.8315603e-05
8.2567061e-05
5.343249e-05
6.5814288e-05
4.8763559e-05
5.0898382e-05
4.443772e-05
3.7618928e-05
4.0507883e-05
2.5783049e-05
3.7101744e-05
1.5055976e-05
3.4188594e-05
5.240559e-06
3.1987293e-05
2.997286e-05
4.6610582e-05
-4.909322e-05
6.5736907e-05
-4.8029433e-05
8.4644588e-05
-4.7419424e-05
0.00010328605
-4.6319756e-05
0.00012166137
-4.5462993e-05
0.00013977174
-4.4408719e-05
0.00015768033
-4.3490998e-05
0.00017541984
-4.2626617e-05
0.00019293714
-4.1833038e-05
0.0002103878
-4.1329796e-05
0.00022787763
-4.1059852e-05
0.00024546261
-4.1148355e-05
0.00026322662
-4.1461101e-05
0.00028140571
-4.2484615e-05
0.0003001181
-4.388303e-05
0.00031953002
-4.5907084e-05
0.00033975071
-4.8439543e-05
0.00036110322
-5.1742198e-05
0.00038365796
-5.5592211e-05
0.00040762772
-6.0105795e-05
0.00043321138
-6.5269134e-05
0.0004606626
-7.1040666e-05
0.0004899317
-7.7067528e-05
0.00052115376
-8.3489553e-05
0.00055445502
-9.0074075e-05
0.00058969361
-9.6447993e-05
0.00062684498
-0.00010239417
0.0006655342
-0.00010733342
0.00070538442
-0.00011110043
0.00074588488
-0.0001131505
0.00078628859
-0.00011303273
0.00082577817
-0.00011041628
0.0008631625
-0.00010474774
0.0008971961
-9.5568335e-05
0.00092662787
-8.2736667e-05
0.00095005748
-6.5873562e-05
0.0009665542
-4.5085557e-05
0.00097468253
-2.0364718e-05
0.00097295621
8.0813291e-06
0.00096156963
3.9552148e-05
0.00093958004
7.2837876e-05
0.00090698969
0.00010682437
0.00086408669
0.00014052401
0.00081147535
0.0001727758
0.00075046691
0.00020171042
0.00068253415
0.00022621953
0.00060944976
0.00024503449
0.00053334437
0.00025700519
0.00045669564
0.00026135032
0.00038187665
0.00025781108
0.00031131757
0.00024617167
0.00024736376
0.00022676073
0.00019246337
0.00019979114
0.00014840364
0.00016666911
0.00011649641
0.00012868861
9.7906041e-05
8.7265376e-05
9.3096644e-05
4.4151823e-05
0.00010181677
1.0029901e-06
0.00012400839
-3.8478766e-05
0.00015772404
-7.43013e-05
0.0002011702
-0.00010430223
0.00025221954
-0.0001274648
0.00030821971
-0.00014303787
0.00036634267
-0.00015094927
0.00042391971
-0.00015126317
0.00047839905
-0.00014459191
0.00052762573
-0.00013178361
0.00056988409
-0.00011397325
0.00060375244
-9.2211602e-05
0.00062858248
-6.8004263e-05
0.00064408693
-4.2397758e-05
0.00065042607
-1.6444523e-05
0.00064906032
8.7637482e-06
0.0006390385
3.3234192e-05
0.00062224499
5.5234502e-05
0.00059989871
7.4771516e-05
0.00057295663
9.1394899e-05
0.00054211278
0.00010492184
0.0005082853
0.00011537914
0.00047236009
0.00012292713
0.00043519801
0.00012775472
0.00039755228
0.00013010501
0.00036008004
0.00013025161
0.00032333976
0.00012850067
0.00028782367
0.00012514655
0.00025390695
0.00012046261
0.00022187161
0.00011473709
0.00019189986
0.0001082444
0.00016417513
0.00010119767
0.00013879513
9.3820803e-05
0.00011579229
8.6373236e-05
9.5116142e-05
7.8991409e-05
7.6684324e-05
7.1865162e-05
6.0357658e-05
6.5090088e-05
4.5963636e-05
5.8830732e-05
3.3286353e-05
5.3183121e-05
2.2150842e-05
4.8245205e-05
1.2181389e-05
4.4156136e-05
3.2467137e-06
4.0922111e-05
3.8064623e-05
4.7210697e-05
-6.855979e-05
6.6393981e-05
-6.7213752e-05
8.534107e-05
-6.6366128e-05
0.00010402562
-6.5000024e-05
0.00012241278
-6.3852878e-05
0.00014053228
-6.2522567e-05
0.00015838714
-6.1348632e-05
0.00017591256
-6.0150698e-05
0.00019333668
-5.9255425e-05
0.00021056328
-5.8557652e-05
0.00022775121
-5.8244949e-05
0.00024493702
-5.8332057e-05
0.00026245428
-5.8978721e-05
0.00028016786
-6.0197019e-05
0.00029839613
-6.2111e-05
0.00031721501
-6.4727858e-05
0.00033691067
-6.8136239e-05
0.0003575729
-7.2404408e-05
0.00037956377
-7.7582585e-05
0.00040310439
-8.364344e-05
0.00042824607
-9.0405781e-05
0.00045510016
-9.7891038e-05
0.00048424691
-0.00010621263
0.00051558283
-0.00011482388
0.0005490538
-0.00012354284
0.00058477429
-0.00013216656
0.00062274427
-0.00014036264
0.00066268091
-0.00014726852
0.00070430368
-0.00015272159
0.00074698095
-0.00015582577
0.00078995893
-0.00015600773
0.00083246365
-0.0001529178
0.00087333491
-0.00014561787
0.00091121454
-0.0001334495
0.00094477831
-0.00011630191
0.00097256418
-9.3658814e-05
0.00099309869
-6.5619077e-05
0.0010050655
-3.233208e-05
0.0010067741
6.3719598e-06
0.00099773012
4.859679e-05
0.00097717088
9.3399046e-05
0.00094458453
0.00013941223
0.00090012534
0.00018498337
0.00084472033
0.00022817989
0.00077923345
0.0002671965
0.00070519515
0.00030025883
0.00062481701
0.00032541337
0.00054041426
0.0003414068
0.00045470264
0.00034706081
0.00037080173
0.00034171135
0.00029140182
0.00032557214
0.00021935519
0.00029880863
0.00015710858
0.00026203985
0.00010736567
0.00021641346
7.1865072e-05
0.00016418996
5.1457599e-05
0.000107674
4.679496e-05
4.8816718e-05
5.7192273e-05
-9.3928559e-06
8.3895521e-05
-6.5181086e-05
0.00012378313
-0.00011418813
0.00017464172
-0.00015515999
0.00023367435
-0.00018649659
0.00029785916
-0.00020721932
0.00036389645
-0.00021698129
0.00042868571
-0.0002160476
0.00048941168
-0.00020531587
0.0005436987
-0.00018607293
0.00058963999
-0.00015991653
0.00062623252
-0.00012880312
0.00065262274
-9.4391277e-05
0.0006687865
-5.8560011e-05
0.00067493985
-2.2601302e-05
0.00067163572
1.2066645e-05
0.00066024717
4.4624054e-05
0.00064133206
7.4151914e-05
0.00061630282
9.9801005e-05
0.00058631457
0.00012138465
0.00055245802
0.00013877928
0.00051573867
0.00015209767
0.00047714422
0.00016151984
0.00043756511
0.0001673353
0.00039779288
0.00016987916
0.00035843129
0.00016961316
0.00032013117
0.00016680116
0.0002832914
0.00016198786
0.00024830859
0.00015544312
0.00021551537
0.00014752976
0.0001850565
0.00013870342
0.00015707309
0.00012918082
0.00013159868
0.0001192954
0.00010864483
0.00010932607
8.8151253e-05
9.9484828e-05
7.0075308e-05
8.9936434e-05
5.4240401e-05
8.0932458e-05
4.0423221e-05
7.2645328e-05
2.842747e-05
6.518227e-05
1.8074218e-05
5.8596622e-05
8.9542519e-06
5.32726e-05
9.5351389e-07
4.892513e-05
4.5149473e-05
4.8034784e-05
-8.8272252e-05
6.7387216e-05
-8.6566588e-05
8.6481386e-05
-8.5456885e-05
0.00010524846
-8.3770178e-05
0.00012364992
-8.2249181e-05
0.0001416719
-8.05469e-05
0.00015932135
-7.8997392e-05
0.00017678349
-7.7610931e-05
0.00019383864
-7.6311804e-05
0.00021075936
-7.5476311e-05
0.00022751216
-7.4995763e-05
0.00024426498
-7.5085736e-05
0.00026111259
-7.5826162e-05
0.00027822654
-7.7310792e-05
0.00029574544
-7.9631508e-05
0.00031378841
-8.2771869e-05
0.00033266124
-8.7009087e-05
0.00035257804
-9.2321234e-05
0.00037370789
-9.8710761e-05
0.00039636208
-0.00010629348
0.00042077357
-0.00011481348
0.0004472781
-0.00012439401
0.00047594659
-0.00013488057
0.00050702293
-0.00014589952
0.00054077867
-0.00015729791
0.00057719619
-0.00016858326
0.00061617237
-0.00017933722
0.00065774342
-0.00018883732
0.00070144342
-0.00019641908
0.00074692451
-0.00020130424
0.0007936184
-0.00020269949
0.00084024999
-0.00019954881
0.00088561105
-0.0001909801
0.00092860992
-0.00017645019
0.00096735841
-0.00015505142
0.0010002417
-0.00012654239
0.0010253548
-9.0733382e-05
0.001040937
-4.7916735e-05
0.0010463116
9.9647584e-07
0.0010402655
5.4644783e-05
0.0010209343
0.00011273224
0.00098799297
0.00017235247
0.00094151622
0.00023145737
0.00088193009
0.00028776497
0.00081050158
0.00033862611
0.0007289349
0.00038182754
0.00063966696
0.00041468132
0.00054535579
0.00043571506
0.0004491265
0.00044328861
0.00035425005
0.00043658938
0.00026424004
0.00041558498
0.00018261539
0.0003804342
0.00011266861
0.00033198659
5.7212853e-05
0.00027186949
1.8239591e-05
0.00020316565
-2.7920956e-06
0.00012870842
-5.8462482e-06
5.187275e-05
8.7665274e-06
-2.4004971e-05
3.8949014e-05
-9.5364091e-05
8.5499935e-05
-0.00016074029
0.00014507251
-0.00021473198
0.00021409004
-0.00025551233
0.00028872254
-0.0002818444
0.00036504831
-0.00029330134
0.00043938131
-0.00029038088
0.0005084168
-0.00027435312
0.00056945207
-0.00024710641
0.00062050101
-0.00021096246
0.00066017382
-0.00016847541
0.00068814062
-0.00012235883
0.00070422529
-7.464542e-05
0.00070901118
-2.7389218e-05
0.00070295844
1.8119436e-05
0.00068814673
5.9437245e-05
0.00066576426
9.6535728e-05
0.00063690475
0.00012866206
0.00060296341
0.00015532479
0.00056515861
0.00017658237
0.00052471226
0.00019254345
0.00048264331
0.00020358833
0.00043990036
0.00021007771
0.0003972697
0.0002125101
0.00035556919
0.00021131507
0.00031518713
0.00020718274
0.00027672473
0.00020045084
0.00024053254
0.00019163341
0.00020672933
0.00018133235
0.00017559957
0.00016983216
0.00014722793
0.00015755152
0.00012165382
0.00014487163
9.8880094e-05
0.00013209487
7.8794216e-05
0.00011957778
6.1231025e-05
0.00010749566
4.6052343e-05
9.6117925e-05
3.3101095e-05
8.5595099e-05
2.2132978e-05
7.6146982e-05
1.2809874e-05
6.7913623e-05
4.7646258e-06
6.1313219e-05
-1.9310535e-06
5.561729e-05
5.0883039e-05
4.9159932e-05
-0.00010822544
6.8636543e-05
-0.00010604096
8.7950345e-05
-0.00010477504
0.00010678745
-0.00010260287
0.00012524261
-0.00010070691
0.00014320059
-9.8504666e-05
0.00016085081
-9.6645898e-05
0.00017790469
-9.4666221e-05
0.00019471354
-9.3119276e-05
0.00021116953
-9.1930408e-05
0.00022744672
-9.1273939e-05
0.00024358943
-9.1228882e-05
0.00025961162
-9.1848183e-05
0.0002759019
-9.36022e-05
0.00029247482
-9.6205074e-05
0.0003096156
-9.9912194e-05
0.00032762554
-0.00010501891
0.00034646166
-0.00011115641
0.00036649746
-0.00011874323
0.00038806439
-0.00012785665
0.00041157845
-0.0001383258
0.00043725343
-0.00015006887
0.00046519945
-0.00016282688
0.00049598018
-0.00017668071
0.0005297441
-0.00019106197
0.0005667298
-0.00020556784
0.00060699648
-0.00021960162
0.00065053573
-0.00023237407
0.00069712637
-0.00024300732
0.0007463315
-0.00025050718
0.00079741255
-0.00025377963
0.00084950568
-0.00025164273
0.00090119269
-0.00024266816
0.00095094735
-0.00022620516
0.00099684745
-0.00020095229
0.0010370518
-0.00016674914
0.0010693033
-0.00012298798
0.0010916902
-7.0305442e-05
0.0011021405
-9.4531078e-06
0.0010988292
5.7957736e-05
0.0010808298
0.00013073137
0.0010470782
0.00020610128
0.00099736239
0.00028117125
0.00093236941
0.00035275949
0.0008530947
0.0004179031
0.00076154396
0.00047337838
0.00066019612
0.00051602732
0.00055248743
0.00054342152
0.00044215679
0.00055361974
0.00033315155
0.00054559728
0.00022954921
0.00051918946
0.000135128
0.00047485485
5.4592977e-05
0.00041252136
-9.6124439e-06
0.00033607567
-5.5527582e-05
0.00024908305
-8.0659392e-05
0.00015384278
-8.411596e-05
5.5329681e-05
-6.4754748e-05
-4.3368514e-05
-2.4887043e-05
-0.00013523472
3.1480194e-05
-0.00021710837
0.00010359877
-0.00028684504
0.00018674935
-0.0003386595
0.00027603978
-0.00037113396
0.00036662797
-0.00038388897
0.00045403673
-0.00037778578
0.00053429192
-0.00035460761
0.00060427211
-0.00031708545
0.00066181321
-0.00026850199
0.00070565193
-0.0002123166
0.00073520957
-0.0001519192
0.00075077462
-9.0211178e-05
0.00075330694
-2.9920316e-05
0.0007442164
2.7210736e-05
0.00072500336
7.8651292e-05
0.0006974379
0.0001240992
0.00066324405
0.00016285608
0.00062387369
0.00019469466
0.00058084639
0.00021960798
0.00053543351
0.00023795721
0.00048885524
0.00025016832
0.00044209547
0.00025683879
0.00039599971
0.00025860616
0.00035121217
0.00025610276
0.00030839462
0.00024999908
0.00026791887
0.00024092536
0.00023007307
0.00022947594
0.00019517981
0.00021622585
0.00016334701
0.00020166805
0.00013463147
0.00018626665
0.00010902309
0.00017048223
8.6443196e-05
0.00015467282
6.680732e-05
0.00013921611
4.989736e-05
0.00012440082
3.560998e-05
0.00011040291
2.367217e-05
9.7539526e-05
1.3866313e-05
8.5958345e-05
6.0005629e-06
7.5783522e-05
-5.4219411e-07
6.7851451e-05
-5.8427028e-06
6.0919644e-05
5.4920296e-05
5.0601486e-05
-0.00012851348
7.0404339e-05
-0.00012584882
8.9864835e-05
-0.00012423177
0.00010878191
-0.00012152332
0.00012720163
-0.00011912677
0.00014520676
-0.00011650814
0.00016254601
-0.00011398655
0.00017950146
-0.00011162056
0.00019589783
-0.00010951365
0.00021187888
-0.00010791222
0.00022743913
-0.00010683475
0.0002427957
-0.00010658509
0.00025809281
-0.00010714584
0.00027332906
-0.00010883855
0.00028883292
-0.00011170783
0.00030483815
-0.00011591681
0.00032136607
-0.00012154617
0.00033892162
-0.0001287093
0.00035773433
-0.00013755234
0.0003780395
-0.00014815986
0.00040016471
-0.00016045099
0.00042460614
-0.00017451101
0.00045180137
-0.00019002303
0.00048205347
-0.00020693351
0.00051577101
-0.00022477908
0.00055319152
-0.00024298657
0.00059477696
-0.00026118489
0.0006405133
-0.0002781085
0.00069024623
-0.0002927384
0.00074369368
-0.00030395293
0.00080038755
-0.0003104727
0.00085901218
-0.00031026747
0.00091863935
-0.00030229506
0.00097706112
-0.00028462629
0.0010322976
-0.00025618997
0.0010816965
-0.00021615144
0.0011228884
-0.00016418269
0.001153284
-0.00010070114
0.0011703079
-2.6475576e-05
0.0011720136
5.6252241e-05
0.0011565183
0.0001462252
0.0011225988
0.00024001954
0.0010697474
0.00033402333
0.00099812114
0.0004243882
0.00090896281
0.00050706211
0.00080460715
0.00057773204
0.00068794001
0.00063269304
0.00056310286
0.00066825911
0.00043432288
0.00068240154
0.00030663874
0.00067328296
0.00018481218
0.00064101706
7.4159099e-05
0.00058550716
-2.1037612e-05
0.00050771758
-9.7943696e-05
0.00041298295
-0.00015173099
0.00030287171
-0.00018022395
0.00018233578
-0.00018193008
5.7034124e-05
-0.00015790338
-6.7397114e-05
-0.00010852935
-0.00018460875
-3.6782247e-05
-0.00028885478
5.1430477e-05
-0.00037505761
0.00015335116
-0.00044057797
0.00026205166
-0.00047983226
0.00037139765
-0.00049323706
0.00047577467
-0.00048216213
0.00057036429
-0.00044919618
0.00065153316
-0.00039825447
0.00071677311
-0.00033374117
0.00076485938
-0.00026040422
0.00079568535
-0.00018274697
0.00081000628
-0.00010453092
0.00080916168
-2.907272e-05
0.00079503935
4.1333952e-05
0.00076988393
0.00010380624
0.00073573505
0.00015824661
0.00069460661
0.00020398325
0.00064844504
0.00024085693
0.00059888702
0.00026916556
0.00054745116
0.00028939267
0.0004953634
0.00030225659
0.00044373125
0.00030847201
0.00039336661
0.00030897185
0.00034504701
0.00030442203
0.00029925773
0.00029578554
0.00025642053
0.00028376176
0.00021682055
0.00026907508
0.00018065627
0.0002523907
0.00014803705
0.0002342884
0.00011889924
0.00021540887
9.3270913e-05
0.0001961068
7.0972369e-05
0.00017697154
5.1925689e-05
0.00015826656
3.5933114e-05
0.00014039735
2.2737272e-05
0.00012359988
1.2082563e-05
0.00010820058
3.6413241e-06
9.4395495e-05
-2.7133547e-06
8.2142045e-05
-7.0280532e-06
7.2162968e-05
-1.0818812e-05
6.4705368e-05
5.6687102e-05
5.2394346e-05
-0.00014920139
7.251045e-05
-0.00014596105
9.2181851e-05
-0.00014390729
0.00011127888
-0.00014062035
0.00012976723
-0.0001376136
0.00014765738
-0.00013439963
0.00016484925
-0.00013117722
0.00018147773
-0.0001282467
0.00019739338
-0.00012542952
0.00021280415
-0.00012332316
0.00022766461
-0.00012169432
0.0002422059
-0.00012112621
0.00025639887
-0.00012133837
0.00027053729
-0.00012297539
0.00028477275
-0.00012594229
0.00029924608
-0.00013038973
0.0003143538
-0.00013665193
0.00033028943
-0.0001446417
0.00034737912
-0.00015464002
0.00036598966
-0.00016677039
0.00038661577
-0.00018107798
0.0004095156
-0.0001974118
0.00043555779
-0.00021606584
0.00046498763
-0.00023636301
0.0004982161
-0.00025800624
0.00053599961
-0.00028076868
0.0005786546
-0.00030383873
0.00062663058
-0.00032608306
0.00067994591
-0.00034605195
0.00073844272
-0.00036244817
0.00080153179
-0.0003735606
0.00086846549
-0.00037720003
0.00093745526
-0.0003712836
0.0010066347
-0.00035380521
0.0010733635
-0.00032292009
0.0011346278
-0.00027741836
0.001187219
-0.00021677508
0.0012278132
-0.00014129434
0.0012539296
-5.2590768e-05
0.0012623292
4.7852184e-05
0.0012505495
0.00015800385
0.0012169217
0.00027364747
0.001160334
0.00039061235
0.0010809651
0.00050375874
0.00097996188
0.00060806589
0.00085963622
0.00069805669
0.00072399034
0.00076833835
0.00057734577
0.00081490444
0.00042555951
0.00083418969
0.00027418021
0.00082466341
0.00012927705
0.00078592061
-2.4521862e-06
0.00071723614
-0.00011802546
0.00062329033
-0.00020928291
0.00050424124
-0.00027314818
0.00036673786
-0.00030625723
0.00021544394
-0.00030708878
5.7865027e-05
-0.00027563559
-9.8849006e-05
-0.00021378129
-0.000246465
-0.00012432344
-0.00037831245
-1.2590872e-05
-0.00048679098
0.00011319171
-0.00056636081
0.00024724335
-0.00061388374
0.00038096659
-0.00062695853
0.00050695881
-0.00060815306
0.00061944639
-0.00056168364
0.00071410482
-0.00049291512
0.00078828515
-0.00040792397
0.00084094197
-0.00031305919
0.00087241753
-0.00021422052
0.00088407482
-0.00011618588
0.0008780126
-2.3010758e-05
0.00085675489
6.2590181e-05
0.00082355604
0.00013700451
0.00078077673
0.00020102639
0.00073093016
0.00025382873
0.00067625342
0.00029553126
0.00061873024
0.00032668975
0.00055997207
0.00034815338
0.0005013789
0.00036084867
0.0004440072
0.00036584151
0.00038880111
0.00036417729
0.00033633345
0.00035688997
0.00028717992
0.00034493861
0.00024171396
0.0003292282
0.00020016008
0.00031062661
0.00016264467
0.00028990999
0.00012913628
0.0002677925
9.9695347e-05
0.0002448496
7.4095592e-05
0.00022170382
5.2311243e-05
0.00019875492
3.4095893e-05
0.00017648459
1.9174401e-05
0.00015531543
7.348615e-06
0.00013542474
-1.6933874e-06
0.00011724178
-8.3488643e-06
0.0001010485
-1.2952877e-05
8.674165e-05
-1.5245404e-05
7.4451139e-05
-1.680381e-05
6.6264322e-05
5.6131047e-05
5.457444e-05
-0.00017039658
7.5064166e-05
-0.00016645499
9.5048736e-05
-0.00016389082
0.00011440142
-0.00015997112
0.00013294579
-0.00015615914
0.00015076461
-0.00015221693
0.00016787051
-0.00014828043
0.00018411193
-0.00014448784
0.00019951116
-0.00014082839
0.00021426155
-0.00013807202
0.0002283732
-0.00013580511
0.0002418223
-0.00013457441
0.00025497446
-0.00013448873
0.00026761874
-0.00013561866
0.00028032129
-0.00013864492
0.00029324129
-0.00014330864
0.00030642673
-0.00014983474
0.00032050922
-0.00015872229
0.0003354357
-0.00016956652
0.00035195366
-0.00018328934
0.00037051449
-0.00019963972
0.00039178931
-0.00021868705
0.00041583326
-0.0002401093
0.00044376743
-0.00026429591
0.00047619964
-0.0002904375
0.00051384908
-0.00031841794
0.00055757718
-0.00034756636
0.00060761143
-0.00037611577
0.00066467113
-0.00040310996
0.00072872777
-0.00042650389
0.00079938701
-0.00044421891
0.00087582324
-0.00045363444
0.00095642759
-0.00045188634
0.0010389622
-0.0004363397
0.0011201934
-0.00040415257
0.0011964854
-0.00035371139
0.0012636625
-0.00028395185
0.0013179803
-0.00019561058
0.0013555456
-9.015534e-05
0.0013727815
3.0615492e-05
0.0013666772
0.00016410694
0.0013341722
0.00030615243
0.0012736344
0.00045115141
0.0011850844
0.00059231058
0.0010692933
0.00072385826
0.00092983828
0.00083751166
0.00077057203
0.00092760473
0.00059735325
0.00098812448
0.00041628113
0.0010152634
0.0002351302
0.0010058142
6.1045296e-05
0.00096000409
-9.8907637e-05
0.00087719009
-0.00023706614
0.00076145121
-0.000347587
0.00061476309
-0.00042430525
0.00044345585
-0.00046406066
0.00025519896
-0.00046427646
5.8079491e-05
-0.00042436167
-0.00013876076
-0.00034629237
-0.00032453194
-0.0002337311
-0.00049087595
-9.3797627e-05
-0.00062672884
6.4924218e-05
-0.00072507989
0.00023255704
-0.00078151285
0.00039765436
-0.00079205448
0.00055111204
-0.00076161109
0.00068571037
-0.00069628288
0.00079647622
-0.00060368216
0.00088076209
-0.00049221124
0.00093780366
-0.00037009829
0.00096864441
-0.00024505962
0.00097553502
-0.00012307459
0.00096144391
-8.9188466e-06
0.00093079964
9.3232753e-05
0.00088676107
0.00018104129
0.00083283057
0.00025495594
0.00077201425
0.00031464457
0.00070692919
0.00036061516
0.0006397797
0.00039383721
0.00057234368
0.00041558908
0.00050610179
0.00042709078
0.00044213667
0.0004298069
0.00038131402
0.00042499914
0.00032426864
0.00041393256
0.00027144277
0.0003977627
0.00022311423
0.00037755924
0.00017943765
0.00035430202
0.00014046983
0.00032887932
0.00010619303
0.00030206992
7.6488489e-05
0.00027455691
5.1211201e-05
0.00024698057
3.0108179e-05
0.00021986193
1.2923112e-05
0.00019367289
-5.7388089e-07
0.00016881683
-1.0715861e-05
0.00014557386
-1.7892909e-05
0.00012441637
-2.2374996e-05
0.00010553379
-2.4898215e-05
8.9264989e-05
-2.4942563e-05
7.4492043e-05
-2.3964515e-05
6.5288622e-05
5.3127705e-05
5.7281043e-05
-0.00019223812
7.8174836e-05
-0.0001873463
9.8628059e-05
-0.00018434174
0.0001181519
-0.00017949562
0.00013685972
-0.00017486488
0.00015469009
-0.00017004444
0.00017156871
-0.00016515856
0.00018751679
-0.00016043523
0.00020247878
-0.00015578851
0.00021640275
-0.00015199472
0.00022961278
-0.00014901404
0.0002419059
-0.00014686579
0.00025361691
-0.00014619906
0.00026497815
-0.00014698075
0.00027587098
-0.00014953775
0.00028666505
-0.00015410084
0.0002977483
-0.00016091626
0.00030938077
-0.0001703547
0.00032218431
-0.00018237104
0.0003363869
-0.00019749287
0.00035233873
-0.00021559192
0.00037066006
-0.00023700792
0.0003922796
-0.00026172781
0.00041817731
-0.00029019304
0.0004490895
-0.00032135001
0.00048616585
-0.00035549458
0.00053002692
-0.0003914267
0.00058198632
-0.00042807392
0.00064272017
-0.00046384337
0.00071272634
-0.00049651038
0.00079190513
-0.00052339723
0.00087955424
-0.00054128181
0.00097402745
-0.00054635834
0.001072784
-0.00053509684
0.0011721995
-0.00050356913
0.0012674531
-0.00044896466
0.0013531214
-0.00036961851
0.0014248672
-0.00026735526
0.0014776225
-0.00014291149
0.0015069719
1.2637035e-06
0.0015090648
0.00016201274
0.0014790589
0.0003361597
0.0014151757
0.00051503693
0.0013159228
0.00069156457
0.0011832044
0.00085657647
0.0010197646
0.0010009518
0.0008311097
0.0011162616
0.00062424149
0.0011949941
0.00040751842
0.0012319853
0.00018902638
0.001224305
-2.0986358e-05
0.0011700173
-0.00021571502
0.0010719207
-0.00038411537
0.00092985292
-0.00051890838
0.00074955724
-0.00061277817
0.00053732564
-0.00066092959
0.0003033506
-0.00066062228
5.7774836e-05
-0.00061042109
-0.00018896262
-0.00051196554
-0.00042298729
-0.0003706849
-0.00063215526
-0.00019301899
-0.00080439158
9.1081533e-06
-0.00092720371
0.00021992611
-0.00099232818
0.00042530267
-0.00099743186
0.00061317438
-0.00094948506
0.00077472872
-0.00085783653
0.0009045138
-0.00073346573
0.00099970356
-0.00058740217
0.0010601643
-0.00043055922
0.0010880816
-0.00027297512
0.0010873048
-0.00012229654
0.0010616225
1.6763445e-05
0.0010177791
0.0001370765
0.00095976244
0.00023905629
0.00089170677
0.0003230114
0.00081732892
0.00038902269
0.00073965198
0.00043829133
0.00066109198
0.00047239489
0.00058359665
0.00049308153
0.00050857477
0.00050211125
0.00043715682
0.00050122515
0.00037012744
0.00049202997
0.00030802404
0.00047603494
0.0002511997
0.00045458399
0.00019983198
0.00042892192
0.00015399932
0.00040013642
0.00011366327
0.00036921713
7.8706209e-05
0.00033702358
4.8934176e-05
0.00030433191
2.4104699e-05
0.00027180896
3.9661385e-06
0.00024001322
-1.1762951e-05
0.00020940058
-2.3586123e-05
0.00018063485
-3.1804377e-05
0.00015379645
-3.6849639e-05
0.00012945706
-3.8903751e-05
0.00010758738
-3.8722512e-05
8.9079944e-05
-3.6032885e-05
7.1796038e-05
-3.2502648e-05
6.1760939e-05
4.7401958e-05
6.0537389e-05
-0.00021482859
8.1988574e-05
-0.00020879475
0.00010291117
-0.00020526497
0.00012281907
-0.00019940092
0.00014175976
-0.00019380286
0.00015957173
-0.00018785618
0.00017627516
-0.00018186139
0.00019176248
-0.00017592077
0.00020619404
-0.0001702189
0.00021941203
-0.00016521172
0.00023151899
-0.00016111954
0.00024269232
-0.00015803895
0.00025293779
-0.00015644624
0.00026243678
-0.00015648086
0.00027134608
-0.00015844604
0.00028005107
-0.00016280426
0.00028861215
-0.00016947696
0.00029755965
-0.00017930279
0.00030746931
-0.00019228139
0.00031840595
-0.00020842989
0.00033110866
-0.00022829452
0.00034645006
-0.00025234889
0.00036516325
-0.0002804411
0.00038785418
-0.00031288492
0.00041614101
-0.00034963757
0.00045115682
-0.00039050993
0.00049462496
-0.00043489399
0.00054790909
-0.00048135832
0.00061197866
-0.00052791427
0.00068810107
-0.00057263366
0.00077665549
-0.00061195129
0.00087704596
-0.00064167171
0.00098780833
-0.00065712128
0.001106502
-0.00065379193
0.0012285999
-0.00062566711
0.0013472242
-0.0005675873
0.0014569168
-0.00047930955
0.00155062
-0.00036105915
0.0016233422
-0.00021563647
0.0016692999
-4.469675e-05
0.0016830158
0.00014829694
0.0016583718
0.000360806
0.0015913444
0.00058206576
0.0014806131
0.00080229573
0.0013270056
0.0010101842
0.0011344688
0.0011934895
0.00090966789
0.0013410625
0.00066133038
0.0014433305
0.00039948179
0.0014938325
0.00013522142
0.0014885653
-0.00012138772
0.0014266274
-0.00035830088
0.0013088359
-0.00056509814
0.0011366505
-0.00073076304
0.00091522133
-0.00084703525
0.00065360071
-0.0009068103
0.00036312538
-0.00090663321
5.7597864e-05
-0.00084408052
-0.00025151587
-0.00072136979
-0.00054569334
-0.00054224077
-0.00081128012
-0.0003164665
-0.0010301623
-5.8375762e-05
-0.0011852932
0.00021170103
-0.0012624053
0.0004693478
-0.0012550773
0.00070025358
-0.0011803884
0.00089439582
-0.0010519782
0.001045851
-0.00088492227
0.0011521732
-0.00069372482
0.001214174
-0.0004925602
0.0012355564
-0.00029435578
0.0012223363
-0.0001090761
0.0011807255
5.8372288e-05
0.0011189787
0.00019882355
0.0010427203
0.00031531515
0.00095692668
0.00040880431
0.0008659628
0.00047998835
0.00077323601
0.00053101879
0.00068136062
0.00056426789
0.00059229447
0.00058214476
0.00050744319
0.00058696115
0.00042779743
0.00058086911
0.0003540133
0.00056581413
0.00028650467
0.00054354238
0.00022549557
0.00051559742
0.0001710512
0.00048336417
0.00012310082
0.00044808244
8.1506306e-05
0.00041081336
4.6052064e-05
0.00037247921
1.6472274e-05
0.00033391565
-7.5516241e-06
0.00029582664
-2.6433228e-05
0.00025889434
-4.0582669e-05
0.00022355476
-5.0349976e-05
0.00019040284
-5.620118e-05
0.00015964618
-5.8592797e-05
0.00013184696
-5.792231e-05
0.00010691723
-5.4706186e-05
8.586096e-05
-4.9189075e-05
6.6277393e-05
-4.2250897e-05
5.4824588e-05
3.8788171e-05
6.4503884e-05
-0.00023829816
8.655131e-05
-0.00023084264
0.00010805097
-0.00022676206
0.00012842538
-0.00021977335
0.0001476002
-0.00021297818
0.00016557131
-0.0002058272
0.00018216304
-0.00019845194
0.00019741374
-0.0001911709
0.00021123024
-0.00018403485
0.00022352608
-0.00017750648
0.00023463422
-0.00017222798
0.000244252
-0.00016765917
0.00025288381
-0.00016508018
0.00026050948
-0.00016410637
0.00026713047
-0.00016506569
0.00027328597
-0.00016895897
0.00027928186
-0.00017547276
0.00028518533
-0.00018520629
0.00029152574
-0.00019862184
0.00029896159
-0.00021586589
0.00030787935
-0.00023721269
0.00031905287
-0.0002635235
0.00033342633
-0.00029481628
0.0003522664
-0.00033172619
0.00037689484
-0.00037426561
0.00040900276
-0.00042261669
0.00045034808
-0.00047623944
0.00050317279
-0.00053418492
0.00056984806
-0.00059459141
0.00065180806
-0.00065459419
0.00075030274
-0.00071044623
0.00086506986
-0.00075644037
0.00099466846
-0.00078672227
0.0011377039
-0.00079682862
0.0012886974
-0.00077665969
0.0014378148
-0.00071670288
0.0015761116
-0.00061760637
0.0016976955
-0.00048264526
0.0017963349
-0.00031427764
0.0018649518
-0.00011331395
0.0018952949