/*--------------------------------*- C++ -*----------------------------------*\
  =========                 |
  \\      /  F ield         | OpenFOAM: The Open Source CFD Toolbox
   \\    /   O peration     | Website:  https://openfoam.org
    \\  /    A nd           | Version:  9
     \\/     M anipulation  |
\*---------------------------------------------------------------------------*/
FoamFile
{
    format      ascii;
    class       volVectorField;
    location    "0.49";
    object      U;
}
// * * * * * * * * * * * * * * * * * * * * * * * * * * * * * * * * * * * * * //

dimensions      [0 1 -1 0 0 0 0];

internalField   nonuniform List<vector> 
10000
(
(0.0032275389 -0.0014217212 0)
(0.0053283662 -0.0013712356 0)
(0.0076735423 -0.0013391788 0)
(0.0091566197 -0.0012736165 0)
(0.011179106 -0.0012218097 0)
(0.012958927 -0.0011477954 0)
(0.014757997 -0.0010808274 0)
(0.016542661 -0.0010093851 0)
(0.018324104 -0.00094418007 0)
(0.020096672 -0.00088754845 0)
(0.021871399 -0.00084417078 0)
(0.023648902 -0.00081633365 0)
(0.02545512 -0.00079930153 0)
(0.027304588 -0.00081941554 0)
(0.029194148 -0.00086278237 0)
(0.031146646 -0.00093534127 0)
(0.033180642 -0.0010388276 0)
(0.035309461 -0.0011767533 0)
(0.037554946 -0.0013434789 0)
(0.039940862 -0.0015454882 0)
(0.042469724 -0.0017878999 0)
(0.045150511 -0.0020568558 0)
(0.048018148 -0.0023405373 0)
(0.051069619 -0.0026496928 0)
(0.054297204 -0.0029688183 0)
(0.057695968 -0.0032850472 0)
(0.061252487 -0.003571911 0)
(0.064962704 -0.0038121179 0)
(0.068777979 -0.0039999353 0)
(0.072646608 -0.0041114001 0)
(0.076514822 -0.0041363017 0)
(0.080300291 -0.004059487 0)
(0.083915451 -0.0038801738 0)
(0.08722881 -0.0035690975 0)
(0.090139949 -0.0031209181 0)
(0.092492519 -0.0025302807 0)
(0.094085664 -0.0017586157 0)
(0.094815 -0.00072312069 0)
(0.094865743 0.00062228169 0)
(0.094155225 0.0019949367 0)
(0.092413245 0.0034660883 0)
(0.089683 0.0050189212 0)
(0.085981195 0.0065980651 0)
(0.081394128 0.0081571369 0)
(0.076026552 0.0096059616 0)
(0.069987834 0.010870616 0)
(0.063425241 0.011878035 0)
(0.056510884 0.012584157 0)
(0.049441548 0.012940274 0)
(0.042464325 0.012932563 0)
(0.035784666 0.012539472 0)
(0.029601154 0.011785691 0)
(0.024131734 0.010681675 0)
(0.019575239 0.0092816953 0)
(0.016068261 0.0076472182 0)
(0.013734201 0.0058535134 0)
(0.012651368 0.0039721912 0)
(0.012844227 0.0020843151 0)
(0.014155154 0.00024451776 0)
(0.016499716 -0.001339169 0)
(0.01991477 -0.0026101698 0)
(0.024182234 -0.003628598 0)
(0.029043866 -0.0043560529 0)
(0.034239384 -0.0047952767 0)
(0.039514309 -0.0049290753 0)
(0.044645437 -0.0047953304 0)
(0.049406581 -0.00441849 0)
(0.053630091 -0.0038416783 0)
(0.057171932 -0.0031029206 0)
(0.059937529 -0.002249084 0)
(0.061864086 -0.0013184762 0)
(0.062872144 -0.00035377391 0)
(0.063003622 0.00067169104 0)
(0.062447356 0.001766161 0)
(0.061339987 0.0027863747 0)
(0.059692607 0.0036460859 0)
(0.057501538 0.0043502605 0)
(0.054850368 0.0049263228 0)
(0.051846665 0.0053745572 0)
(0.048574994 0.0056976625 0)
(0.045119505 0.0059051879 0)
(0.04156197 0.0060019357 0)
(0.037968068 0.0059966361 0)
(0.034393967 0.0059071052 0)
(0.030897051 0.0057481981 0)
(0.02752102 0.0055271266 0)
(0.024296116 0.0052597651 0)
(0.021250464 0.0049515022 0)
(0.018402053 0.0046212301 0)
(0.015759283 0.0042799686 0)
(0.013338765 0.0039389759 0)
(0.011142421 0.0036000415 0)
(0.009165649 0.0032768725 0)
(0.0073957239 0.0029691013 0)
(0.0057944297 0.0026849049 0)
(0.0043906803 0.0024286698 0)
(0.0031551774 0.0022124107 0)
(0.001701021 0.002021963 0)
(0.0016250333 0.0018833616 0)
(-0.0005651551 0.0017569777 0)
(0.0032757199 -0.0039628344 0)
(0.0054129509 -0.0038667301 0)
(0.0077709293 -0.0038199768 0)
(0.009270025 -0.0037198534 0)
(0.011298194 -0.0036488729 0)
(0.013090394 -0.0035593856 0)
(0.014884339 -0.0034781953 0)
(0.016664805 -0.0033988388 0)
(0.018430005 -0.0033361789 0)
(0.020180197 -0.0032947352 0)
(0.021926488 -0.0032747067 0)
(0.023679431 -0.0032942204 0)
(0.025441053 -0.0033302086 0)
(0.027235368 -0.0034255567 0)
(0.0290797 -0.0035558876 0)
(0.030981729 -0.0037440178 0)
(0.032960911 -0.0039783842 0)
(0.035036635 -0.0042664269 0)
(0.037228223 -0.0046143512 0)
(0.039549347 -0.0050134155 0)
(0.042021425 -0.0054637381 0)
(0.04466895 -0.0059560298 0)
(0.047500833 -0.0064887856 0)
(0.050517629 -0.0070484886 0)
(0.053734278 -0.0076101374 0)
(0.057157199 -0.0081631293 0)
(0.060775636 -0.0086713341 0)
(0.064565017 -0.0091065958 0)
(0.068487582 -0.0094470115 0)
(0.072505311 -0.0096409317 0)
(0.076558619 -0.0096571526 0)
(0.080551204 -0.0094622654 0)
(0.084405771 -0.0090213199 0)
(0.087991521 -0.0082886133 0)
(0.091179976 -0.0072501091 0)
(0.093839142 -0.0058855338 0)
(0.095838997 -0.0041847194 0)
(0.097084267 -0.0020822509 0)
(0.097409928 0.00044655435 0)
(0.096751309 0.0031169003 0)
(0.095094644 0.0059248421 0)
(0.092377443 0.0087796699 0)
(0.08859912 0.011604174 0)
(0.083821996 0.014290446 0)
(0.07813385 0.016707877 0)
(0.071672742 0.018752993 0)
(0.064610853 0.020316706 0)
(0.057143569 0.02129346 0)
(0.049493941 0.021649737 0)
(0.041917347 0.021333853 0)
(0.034644662 0.02033722 0)
(0.027896771 0.018681974 0)
(0.021923754 0.016418076 0)
(0.016954931 0.013629464 0)
(0.013133748 0.010410567 0)
(0.010590009 0.0069246562 0)
(0.009419197 0.0033012128 0)
(0.0096275605 -0.00031628412 0)
(0.011194799 -0.0037737956 0)
(0.014038927 -0.006774309 0)
(0.0179381 -0.0092179891 0)
(0.02267645 -0.011100255 0)
(0.028046822 -0.01235221 0)
(0.033775303 -0.012980322 0)
(0.039575214 -0.012977995 0)
(0.045188991 -0.012401826 0)
(0.050382107 -0.011312167 0)
(0.054967313 -0.0097969042 0)
(0.058784583 -0.0079605465 0)
(0.061730262 -0.0059022087 0)
(0.063749874 -0.0037133687 0)
(0.064833983 -0.0014770945 0)
(0.065076596 0.0007861406 0)
(0.064495544 0.0030023749 0)
(0.063137971 0.0050622778 0)
(0.061166962 0.00684735 0)
(0.0586921 0.0083391243 0)
(0.055791067 0.0095534057 0)
(0.052545557 0.010498116 0)
(0.049048179 0.011185403 0)
(0.045384202 0.011634736 0)
(0.04163232 0.011867458 0)
(0.037867637 0.01190804 0)
(0.034151648 0.011779081 0)
(0.030533386 0.011509022 0)
(0.027058438 0.011120795 0)
(0.023754479 0.010635879 0)
(0.020650311 0.010080086 0)
(0.017770996 0.0094755079 0)
(0.01511732 0.0088386159 0)
(0.012697906 0.0081955342 0)
(0.01051595 0.0075539211 0)
(0.0085658075 0.0069315565 0)
(0.0068291004 0.0063364528 0)
(0.0052738388 0.0057854749 0)
(0.003933381 0.0052846249 0)
(0.0027601569 0.0048467745 0)
(0.0013754613 0.0044763016 0)
(0.0013624988 0.0041915546 0)
(-0.00069502545 0.0039293251 0)
(0.0033324152 -0.0059721799 0)
(0.0054740658 -0.0058632267 0)
(0.0078394351 -0.0057903168 0)
(0.009350472 -0.0056783217 0)
(0.011369538 -0.0055835431 0)
(0.013166708 -0.0054727625 0)
(0.014959374 -0.0053746964 0)
(0.016728925 -0.0052865025 0)
(0.018475729 -0.0052091519 0)
(0.020208819 -0.0051592891 0)
(0.02192441 -0.0051365504 0)
(0.023647456 -0.005151957 0)
(0.025377688 -0.0052078619 0)
(0.027132385 -0.0053178816 0)
(0.028927102 -0.005481723 0)
(0.030772046 -0.0057165613 0)
(0.032701126 -0.006011969 0)
(0.03471065 -0.0063796395 0)
(0.036839346 -0.0068249449 0)
(0.039116403 -0.0073476562 0)
(0.041545602 -0.0079371815 0)
(0.044138435 -0.0085934232 0)
(0.046933285 -0.0092995066 0)
(0.049952092 -0.01004256 0)
(0.053184686 -0.01079044 0)
(0.056638289 -0.011517741 0)
(0.060318133 -0.012188855 0)
(0.064207812 -0.012767378 0)
(0.068283122 -0.013196769 0)
(0.072500439 -0.013421023 0)
(0.076784847 -0.013386406 0)
(0.081057314 -0.013051319 0)
(0.085245811 -0.012348789 0)
(0.089199728 -0.011225595 0)
(0.092796562 -0.0096710285 0)
(0.095877514 -0.0076326819 0)
(0.098286007 -0.0051285893 0)
(0.099927329 -0.0021825329 0)
(0.10062871 0.0011429112 0)
(0.10027041 0.0048343423 0)
(0.098781317 0.0087881778 0)
(0.096120266 0.012850034 0)
(0.092275031 0.016872279 0)
(0.08727889 0.02070022 0)
(0.081231317 0.024173538 0)
(0.074261351 0.027094982 0)
(0.066523753 0.029338295 0)
(0.058266197 0.030770379 0)
(0.04975237 0.031311744 0)
(0.041261532 0.030897753 0)
(0.033087933 0.029519517 0)
(0.025487316 0.027198819 0)
(0.01874117 0.024003974 0)
(0.013096565 0.020074795 0)
(0.0087833228 0.015520914 0)
(0.0059531913 0.010583074 0)
(0.0046705933 0.0054607263 0)
(0.0049786549 0.00046881917 0)
(0.0068996471 -0.0043142702 0)
(0.010295166 -0.0086036915 0)
(0.014885421 -0.01224392 0)
(0.020417457 -0.015061554 0)
(0.026609777 -0.016964932 0)
(0.033141317 -0.017933041 0)
(0.03969813 -0.017986666 0)
(0.045987729 -0.017194645 0)
(0.051750955 -0.015669088 0)
(0.056775805 -0.013548577 0)
(0.060908171 -0.010985174 0)
(0.064062739 -0.0081268669 0)
(0.066196027 -0.0051125166 0)
(0.067301286 -0.0020542989 0)
(0.067431978 0.00093027549 0)
(0.066688931 0.0036846571 0)
(0.065161186 0.0062023507 0)
(0.062948686 0.0084432469 0)
(0.060183512 0.01035304 0)
(0.056977569 0.01190653 0)
(0.053436449 0.013104902 0)
(0.049658283 0.013968038 0)
(0.045737456 0.014515231 0)
(0.041760697 0.014774856 0)
(0.037796492 0.014779956 0)
(0.033904806 0.014567563 0)
(0.030143425 0.014170437 0)
(0.026549145 0.013619312 0)
(0.023155937 0.0129506 0)
(0.019993026 0.012196478 0)
(0.017068446 0.011377486 0)
(0.014393522 0.010522107 0)
(0.01197564 0.0096570347 0)
(0.0098064983 0.0088021547 0)
(0.0078832373 0.0079779877 0)
(0.0061907315 0.0071968115 0)
(0.0046902503 0.0064751757 0)
(0.003408585 0.0058262916 0)
(0.002311731 0.0052561637 0)
(0.0010140248 0.0047940227 0)
(0.0010656863 0.0044175365 0)
(-0.00085493581 0.0040933894 0)
(0.0033961409 -0.0078422566 0)
(0.0055697416 -0.0076995104 0)
(0.007949349 -0.0075967021 0)
(0.0094657052 -0.0074504796 0)
(0.011493226 -0.0073136946 0)
(0.013290969 -0.0071585921 0)
(0.015062242 -0.0070213318 0)
(0.01682219 -0.006891052 0)
(0.01855033 -0.0067856828 0)
(0.020247558 -0.0067070662 0)
(0.021929874 -0.0066729096 0)
(0.023607109 -0.0066784096 0)
(0.025277903 -0.0067488549 0)
(0.026969312 -0.006886763 0)
(0.028694586 -0.0071038647 0)
(0.030470917 -0.0073940288 0)
(0.032323486 -0.0077788308 0)
(0.034256472 -0.0082625471 0)
(0.036300903 -0.0088309082 0)
(0.038485505 -0.009511371 0)
(0.040832098 -0.010285051 0)
(0.043371182 -0.011139893 0)
(0.046122781 -0.012070542 0)
(0.049103126 -0.013052143 0)
(0.052338777 -0.01406275 0)
(0.055839121 -0.015057767 0)
(0.059603056 -0.015992045 0)
(0.063626286 -0.016809106 0)
(0.067891083 -0.017442829 0)
(0.072361608 -0.017832736 0)
(0.076966822 -0.017898669 0)
(0.081622219 -0.01756818 0)
(0.086259862 -0.016759123 0)
(0.090693187 -0.015412114 0)
(0.094792806 -0.01348218 0)
(0.09839319 -0.01093573 0)
(0.10128731 -0.0077686814 0)
(0.10333913 -0.0040118692 0)
(0.10440363 0.00027685054 0)
(0.10437965 0.0050300288 0)
(0.10311577 0.010079168 0)
(0.10049913 0.015286543 0)
(0.096525822 0.020452293 0)
(0.091237478 0.025368467 0)
(0.08467651 0.029822581 0)
(0.077008701 0.033584556 0)
(0.068459168 0.036444107 0)
(0.059263752 0.038270199 0)
(0.049716486 0.038902151 0)
(0.040152021 0.038283262 0)
(0.030898481 0.036415062 0)
(0.022271913 0.033316083 0)
(0.014642622 0.029066546 0)
(0.0082781139 0.023781958 0)
(0.0034380656 0.01776852 0)
(0.00033953468 0.01128237 0)
(-0.00084168708 0.0045752744 0)
(-0.00024206455 -0.0020273466 0)
(0.002065401 -0.0082304273 0)
(0.0060718922 -0.013838538 0)
(0.011459805 -0.0185015 0)
(0.017946582 -0.022042422 0)
(0.025169449 -0.024357277 0)
(0.032744125 -0.025393207 0)
(0.040297818 -0.025189073 0)
(0.047486388 -0.023850343 0)
(0.054006097 -0.021534428 0)
(0.059624653 -0.018440382 0)
(0.064171885 -0.014776767 0)
(0.067551755 -0.010755346 0)
(0.069751578 -0.0065876753 0)
(0.07079059 -0.0024489297 0)
(0.070715946 0.0015107843 0)
(0.069657665 0.0051792965 0)
(0.067782329 0.0084522154 0)
(0.065205671 0.011297585 0)
(0.062049978 0.013682241 0)
(0.058447317 0.015592621 0)
(0.054522307 0.017039658 0)
(0.050385194 0.018049905 0)
(0.046129353 0.018656286 0)
(0.041847937 0.01889919 0)
(0.037622309 0.018821736 0)
(0.033513286 0.018470403 0)
(0.029564959 0.017888929 0)
(0.025825842 0.01712184 0)
(0.022326005 0.016211292 0)
(0.019078503 0.015192333 0)
(0.016102907 0.014101791 0)
(0.01340703 0.012976571 0)
(0.010990808 0.011843831 0)
(0.008850916 0.010728405 0)
(0.0069743328 0.0096465121 0)
(0.0053387478 0.0086306962 0)
(0.0039140514 0.0076957831 0)
(0.0027254586 0.0068551661 0)
(0.001738031 0.0061169815 0)
(0.00053868118 0.0055236792 0)
(0.00068221231 0.0050261298 0)
(-0.0010423673 0.004603818 0)
(0.0034923817 -0.0097564933 0)
(0.0056941619 -0.0095705336 0)
(0.0080842761 -0.0094483166 0)
(0.0096229562 -0.0092597398 0)
(0.011651307 -0.0090834671 0)
(0.013451058 -0.008905068 0)
(0.01521859 -0.0087285029 0)
(0.016956383 -0.0085669032 0)
(0.018652251 -0.0084337976 0)
(0.020314559 -0.0083330867 0)
(0.021948468 -0.00827926 0)
(0.023569442 -0.008285442 0)
(0.025170639 -0.0083663431 0)
(0.026781711 -0.0085228749 0)
(0.028428326 -0.0087720728 0)
(0.03011087 -0.0091187574 0)
(0.031851954 -0.0095868465 0)
(0.033683098 -0.010167143 0)
(0.035620412 -0.010878184 0)
(0.037698329 -0.011700896 0)
(0.039958179 -0.012647006 0)
(0.042397901 -0.013701532 0)
(0.045068594 -0.014868324 0)
(0.048008706 -0.016106401 0)
(0.051227104 -0.017392068 0)
(0.054754356 -0.018678406 0)
(0.058607829 -0.019917348 0)
(0.062793873 -0.021029862 0)
(0.067295428 -0.021938023 0)
(0.072085962 -0.022551478 0)
(0.07710058 -0.022763369 0)
(0.082260015 -0.022492482 0)
(0.087477887 -0.021600366 0)
(0.092566952 -0.02003368 0)
(0.097378576 -0.017691955 0)
(0.1017091 -0.01455096 0)
(0.10532968 -0.01056523 0)
(0.10807994 -0.0057835126 0)
(0.10975675 -0.00025629447 0)
(0.11013075 0.0058567973 0)
(0.10906153 0.012357475 0)
(0.10648256 0.019057489 0)
(0.10231516 0.02572277 0)
(0.096583542 0.032081814 0)
(0.089366001 0.03784269 0)
(0.080798648 0.042745881 0)
(0.071129323 0.046491748 0)
(0.060659807 0.048894894 0)
(0.049714113 0.049767469 0)
(0.038736464 0.049031913 0)
(0.028098018 0.046678396 0)
(0.018145265 0.042735554 0)
(0.0092435589 0.037241768 0)
(0.0018586602 0.03044192 0)
(-0.0036390334 0.02271088 0)
(-0.00716631 0.014291457 0)
(-0.0085901546 0.0055870988 0)
(-0.007812667 -0.0031522638 0)
(-0.0049206218 -0.011347367 0)
(-8.8644209e-06 -0.018719757 0)
(0.0066235507 -0.024897338 0)
(0.014481691 -0.029511392 0)
(0.023158786 -0.032454013 0)
(0.032194473 -0.033672484 0)
(0.041122645 -0.033236414 0)
(0.049531079 -0.031301034 0)
(0.057065045 -0.028095137 0)
(0.063457544 -0.023891793 0)
(0.068538095 -0.018987418 0)
(0.072208554 -0.013672164 0)
(0.074458649 -0.0082192174 0)
(0.075350986 -0.0028615016 0)
(0.075007317 0.0022083273 0)
(0.073575179 0.0068697689 0)
(0.071221368 0.011009361 0)
(0.068117814 0.014552988 0)
(0.064417218 0.017479074 0)
(0.060275729 0.019789671 0)
(0.055838352 0.021509857 0)
(0.051225657 0.022674156 0)
(0.046544205 0.023334418 0)
(0.04188999 0.023549365 0)
(0.037338224 0.023375737 0)
(0.03295029 0.022867157 0)
(0.028778738 0.022083634 0)
(0.024860819 0.021083608 0)
(0.021221737 0.0199102 0)
(0.017883032 0.018614339 0)
(0.014855753 0.01723949 0)
(0.012141091 0.015826733 0)
(0.0097342585 0.014410348 0)
(0.0076179623 0.013021232 0)
(0.0057952289 0.011678346 0)
(0.0042486965 0.010416338 0)
(0.0029214891 0.0092572114 0)
(0.0018388023 0.0082110671 0)
(0.00098968069 0.0072910493 0)
(-7.7706375e-05 0.0065657007 0)
(0.00016810129 0.0059408921 0)
(-0.0013038009 0.0054017794 0)
(0.0036122391 -0.011838452 0)
(0.0058581097 -0.011600886 0)
(0.0082680445 -0.011448275 0)
(0.0098314608 -0.011203032 0)
(0.011850161 -0.010983723 0)
(0.013651967 -0.010753647 0)
(0.01540663 -0.010527544 0)
(0.017123814 -0.010324041 0)
(0.01879358 -0.010140691 0)
(0.020412988 -0.010005394 0)
(0.021989798 -0.0099220554 0)
(0.023534284 -0.009907997 0)
(0.025057215 -0.0099808635 0)
(0.026583603 -0.01014085 0)
(0.028121788 -0.010414459 0)
(0.029682561 -0.010820625 0)
(0.03130464 -0.011352604 0)
(0.032998717 -0.012024743 0)
(0.034804927 -0.01286488 0)
(0.036757931 -0.013837911 0)
(0.038876468 -0.014976702 0)
(0.041198997 -0.016269445 0)
(0.043770567 -0.017686053 0)
(0.046633901 -0.019215623 0)
(0.049822436 -0.02083266 0)
(0.053370926 -0.022464627 0)
(0.057310182 -0.024061841 0)
(0.061666114 -0.025534944 0)
(0.066434822 -0.026790712 0)
(0.071610913 -0.027710901 0)
(0.077112633 -0.028176487 0)
(0.08288625 -0.028038116 0)
(0.088831578 -0.027160882 0)
(0.094729624 -0.025434626 0)
(0.10042625 -0.022730624 0)
(0.1056956 -0.0190082 0)
(0.11024903 -0.014219347 0)
(0.11385283 -0.0084145832 0)
(0.11625094 -0.0016656428 0)
(0.11720355 0.0058249885 0)
(0.1165282 0.013914265 0)
(0.11407322 0.022332244 0)
(0.10974479 0.030755592 0)
(0.10352691 0.03884324 0)
(0.095480285 0.046216142 0)
(0.085768215 0.052497999 0)
(0.074685702 0.057357014 0)
(0.06258323 0.06049036 0)
(0.049855131 0.061704781 0)
(0.03702229 0.060859064 0)
(0.024528788 0.057934943 0)
(0.012749541 0.052951881 0)
(0.0022425424 0.045944078 0)
(-0.0063784331 0.037415792 0)
(-0.012857887 0.027570277 0)
(-0.016948942 0.016793121 0)
(-0.018466988 0.0056442562 0)
(-0.017371114 -0.0054191141 0)
(-0.013707355 -0.015844928 0)
(-0.0076953684 -0.025109535 0)
(0.00044112906 -0.032884444 0)
(0.010160654 -0.03873037 0)
(0.02078252 -0.042299448 0)
(0.031742867 -0.043608518 0)
(0.042468864 -0.042759674 0)
(0.052451754 -0.039981411 0)
(0.061266641 -0.035600156 0)
(0.068607915 -0.02998895 0)
(0.074287609 -0.023552598 0)
(0.078227942 -0.016688618 0)
(0.080472881 -0.0097373262 0)
(0.081130073 -0.0029847186 0)
(0.080361007 0.0033324795 0)
(0.078375951 0.0090352085 0)
(0.075386312 0.014033535 0)
(0.071600183 0.018259428 0)
(0.067214268 0.021697709 0)
(0.062407749 0.024367337 0)
(0.057339836 0.026306616 0)
(0.052146453 0.027570289 0)
(0.04694583 0.028228141 0)
(0.041835707 0.028352116 0)
(0.036891633 0.028012747 0)
(0.032177388 0.02728592 0)
(0.02774221 0.026241094 0)
(0.023617403 0.024943173 0)
(0.019825775 0.023453436 0)
(0.016381519 0.021828153 0)
(0.013292356 0.020118683 0)
(0.010557478 0.01836752 0)
(0.0081670801 0.016620945 0)
(0.0061025825 0.014913859 0)
(0.0043549597 0.013281899 0)
(0.002904681 0.011742064 0)
(0.0016967155 0.010327216 0)
(0.00075098061 0.0090566036 0)
(8.6901642e-05 0.007935709 0)
(-0.0008261689 0.007039766 0)
(-0.00046760524 0.0063176445 0)
(-0.001621466 0.0056194685 0)
(0.0037633255 -0.013873353 0)
(0.0060588686 -0.01358149 0)
(0.0084874922 -0.013398464 0)
(0.010084034 -0.013098925 0)
(0.012098039 -0.012830854 0)
(0.013907963 -0.012539754 0)
(0.015648528 -0.012261012 0)
(0.017344684 -0.011993582 0)
(0.01897435 -0.011760119 0)
(0.020538437 -0.011571041 0)
(0.022053812 -0.011455306 0)
(0.023522667 -0.011409483 0)
(0.024954302 -0.011461058 0)
(0.026368821 -0.011616364 0)
(0.027774107 -0.01191312 0)
(0.029204569 -0.012352108 0)
(0.030686396 -0.012947735 0)
(0.032215497 -0.013712713 0)
(0.033858494 -0.014661214 0)
(0.035644685 -0.015798619 0)
(0.037591885 -0.017128615 0)
(0.039760463 -0.018651757 0)
(0.042200263 -0.020355528 0)
(0.044945073 -0.022203602 0)
(0.048065251 -0.024184881 0)
(0.05161456 -0.026226939 0)
(0.05562689 -0.028266434 0)
(0.060152039 -0.030208069 0)
(0.06520602 -0.031924116 0)
(0.070790308 -0.033282839 0)
(0.076872648 -0.034138114 0)
(0.083386052 -0.034273863 0)
(0.090202627 -0.033546043 0)
(0.097129916 -0.031772782 0)
(0.10395759 -0.028781634 0)
(0.1103985 -0.024486178 0)
(0.11611983 -0.018856366 0)
(0.1208394 -0.011915589 0)
(0.12420554 -0.0037826378 0)
(0.12592024 0.0053767595 0)
(0.1257767 0.015324859 0)
(0.12353249 0.025751226 0)
(0.11903327 0.036265167 0)
(0.11224271 0.046406929 0)
(0.10320708 0.055707082 0)
(0.092107218 0.06367108 0)
(0.079269558 0.069901656 0)
(0.065118144 0.073980629 0)
(0.050135498 0.075675647 0)
(0.0349475 0.074742591 0)
(0.020106682 0.071205139 0)
(0.0060281866 0.064982016 0)
(-0.0064454482 0.056413969 0)
(-0.016684151 0.045801532 0)
(-0.02445642 0.033433351 0)
(-0.029305794 0.019919253 0)
(-0.031039411 0.0058333353 0)
(-0.029549589 -0.0081592033 0)
(-0.02486666 -0.021360273 0)
(-0.017305683 -0.033112028 0)
(-0.0072531421 -0.042804542 0)
(0.0048151601 -0.05003021 0)
(0.018033499 -0.054337156 0)
(0.031500152 -0.055662818 0)
(0.044537999 -0.054192851 0)
(0.05650712 -0.050261303 0)
(0.0669018 -0.044328691 0)
(0.075371123 -0.036917922 0)
(0.08172175 -0.028571842 0)
(0.085915254 -0.019796809 0)
(0.088052328 -0.011032195 0)
(0.088307378 -0.0026489668 0)
(0.086911686 0.005060544 0)
(0.084161135 0.011932435 0)
(0.080332741 0.017853769 0)
(0.075673144 0.022779122 0)
(0.070422331 0.026710099 0)
(0.064788212 0.029689216 0)
(0.058952191 0.031782185 0)
(0.053066417 0.033068778 0)
(0.047253907 0.033641129 0)
(0.041610464 0.033592032 0)
(0.036215521 0.033013377 0)
(0.03113058 0.031995298 0)
(0.02639512 0.03062042 0)
(0.022039787 0.028965351 0)
(0.018081034 0.027103379 0)
(0.01452827 0.025099395 0)
(0.01137997 0.023014024 0)
(0.0086319208 0.020895121 0)
(0.0062726789 0.018793703 0)
(0.0042739665 0.016747993 0)
(0.0026217253 0.014797817 0)
(0.0012927336 0.012968355 0)
(0.00023549481 0.011289977 0)
(-0.00054923187 0.0097833082 0)
(-0.0010217995 0.0084550338 0)
(-0.0017028841 0.0073427345 0)
(-0.0012278003 0.0065577152 0)
(-0.0020408482 0.0056533832 0)
(0.0039430073 -0.015959067 0)
(0.0063066168 -0.015602636 0)
(0.0087573373 -0.015373369 0)
(0.010397495 -0.015015132 0)
(0.01240798 -0.014673127 0)
(0.014224387 -0.014317332 0)
(0.015955506 -0.013967803 0)
(0.017627574 -0.013628165 0)
(0.019221249 -0.013328333 0)
(0.020725413 -0.013071257 0)
(0.022162707 -0.01289161 0)
(0.023543926 -0.012798409 0)
(0.024870808 -0.012817807 0)
(0.026157345 -0.012964474 0)
(0.027418114 -0.013258538 0)
(0.028686227 -0.013715707 0)
(0.029989556 -0.014364723 0)
(0.031338312 -0.015213029 0)
(0.032780046 -0.016269945 0)
(0.034359016 -0.017561248 0)
(0.036099636 -0.019096302 0)
(0.038056127 -0.020872245 0)
(0.04030877 -0.022870431 0)
(0.042899338 -0.025090518 0)
(0.04589812 -0.027478576 0)
(0.049390883 -0.030009081 0)
(0.053432168 -0.032601277 0)
(0.058111571 -0.035125369 0)
(0.063466142 -0.037451454 0)
(0.069511745 -0.039412007 0)
(0.076250992 -0.0408159 0)
(0.083619542 -0.041428066 0)
(0.0914867 -0.041001756 0)
(0.099665334 -0.039308875 0)
(0.10790608 -0.036121225 0)
(0.11583721 -0.031308747 0)
(0.12305579 -0.0247874 0)
(0.12917195 -0.016607639 0)
(0.13379032 -0.00691741 0)
(0.13655282 0.004143183 0)
(0.13713746 0.016272027 0)
(0.13524188 0.029091215 0)
(0.13061935 0.042117168 0)
(0.12317726 0.054809607 0)
(0.11294281 0.066514679 0)
(0.10014386 0.076639469 0)
(0.085158782 0.084616633 0)
(0.068480151 0.089932132 0)
(0.050676937 0.092245529 0)
(0.032521905 0.091332045 0)
(0.01465887 0.087130067 0)
(-0.0022073941 0.079537 0)
(-0.017122219 0.069091583 0)
(-0.029571833 0.055887298 0)
(-0.038973996 0.040459608 0)
(-0.044799866 0.023527584 0)
(-0.046813825 0.0058823189 0)
(-0.044836293 -0.011662293 0)
(-0.038937376 -0.028275533 0)
(-0.029424462 -0.043128332 0)
(-0.016763759 -0.055267848 0)
(-0.0016655612 -0.064115107 0)
(0.014853443 -0.069290478 0)
(0.031604728 -0.070466915 0)
(0.047609777 -0.068041627 0)
(0.062085637 -0.06251939 0)
(0.074410804 -0.054531161 0)
(0.084192132 -0.044794617 0)
(0.091260364 -0.034033162 0)
(0.095634093 -0.022905198 0)
(0.097489854 -0.011973146 0)
(0.097090917 -0.0016805281 0)
(0.094809566 0.0076152821 0)
(0.091038196 0.015765774 0)
(0.086105524 0.022663692 0)
(0.08033356 0.02828931 0)
(0.074007367 0.032677493 0)
(0.067369397 0.035906769 0)
(0.060616824 0.038078286 0)
(0.053911849 0.039303587 0)
(0.047385637 0.039702376 0)
(0.04113437 0.039392614 0)
(0.035230993 0.038489442 0)
(0.029730555 0.037096409 0)
(0.0246674 0.035313747 0)
(0.020063811 0.033231992 0)
(0.015930566 0.030934246 0)
(0.012269064 0.028496216 0)
(0.0090705241 0.025980609 0)
(0.006324094 0.023449875 0)
(0.0040106129 0.020951183 0)
(0.0020997325 0.018531965 0)
(0.00057107794 0.016231476 0)
(-0.00060657624 0.014080771 0)
(-0.0014908841 0.012115109 0)
(-0.0020823407 0.01035317 0)
(-0.0023504536 0.0088235563 0)
(-0.002733027 0.0074710623 0)
(-0.0021340492 0.0066084909 0)
(-0.0025684398 0.0054847761 0)
(0.004164386 -0.018106018 0)
(0.0066169347 -0.017668451 0)
(0.0090823836 -0.017391867 0)
(0.010783808 -0.016955328 0)
(0.012795587 -0.016538339 0)
(0.014617617 -0.016097326 0)
(0.016342559 -0.015658543 0)
(0.017989311 -0.015235381 0)
(0.019538904 -0.014846552 0)
(0.0209864 -0.014518443 0)
(0.022341275 -0.014249515 0)
(0.023616021 -0.014097064 0)
(0.024813037 -0.014059172 0)
(0.025959149 -0.014171343 0)
(0.027060969 -0.014451318 0)
(0.028143384 -0.014912711 0)
(0.029242095 -0.015582964 0)
(0.030371922 -0.016505286 0)
(0.031581549 -0.017667997 0)
(0.032899366 -0.019109176 0)
(0.034370795 -0.020836475 0)
(0.036084348 -0.022865499 0)
(0.038088233 -0.025173311 0)
(0.040450217 -0.027807875 0)
(0.04326599 -0.030667454 0)
(0.046616543 -0.033764622 0)
(0.050638162 -0.036988691 0)
(0.055431601 -0.040233269 0)
(0.061054419 -0.043344186 0)
(0.06757322 -0.046113135 0)
(0.075024607 -0.048292265 0)
(0.083381863 -0.04959751 0)
(0.09251527 -0.049706109 0)
(0.10222258 -0.048306424 0)
(0.11219039 -0.045077382 0)
(0.1219908 -0.039819591 0)
(0.13110548 -0.03236245 0)
(0.13901465 -0.022843854 0)
(0.1452677 -0.011367528 0)
(0.14941459 0.0018794294 0)
(0.15101898 0.016570399 0)
(0.14965796 0.03226779 0)
(0.1450139 0.048375695 0)
(0.13688465 0.064202717 0)
(0.12526432 0.078936537 0)
(0.11041558 0.091787081 0)
(0.092746238 0.10199656 0)
(0.07288924 0.10891509 0)
(0.051600009 0.11208025 0)
(0.029786864 0.11122922 0)
(0.0081681249 0.10630469 0)
(-0.012211919 0.097282246 0)
(-0.030313581 0.084421559 0)
(-0.04556707 0.068095006 0)
(-0.057087803 0.049025195 0)
(-0.064174886 0.027978943 0)
(-0.066543752 0.0059280025 0)
(-0.064041804 -0.016093661 0)
(-0.056676057 -0.036994239 0)
(-0.044653228 -0.055674832 0)
(-0.028603646 -0.070992389 0)
(-0.0095818533 -0.081969076 0)
(0.011312975 -0.088002865 0)
(0.03238911 -0.088797135 0)
(0.052164532 -0.084932372 0)
(0.069735181 -0.077180087 0)
(0.084378011 -0.066452508 0)
(0.095653284 -0.053705737 0)
(0.10342559 -0.039877363 0)
(0.10780832 -0.025834791 0)
(0.10911432 -0.012301656 0)
(0.10773341 0.00019568989 0)
(0.10419734 0.011295275 0)
(0.099053203 0.02082118 0)
(0.09270542 0.028719775 0)
(0.085542966 0.035012351 0)
(0.077903613 0.039785949 0)
(0.070062209 0.043167461 0)
(0.062232322 0.045303233 0)
(0.054583732 0.046350027 0)
(0.047247081 0.046460681 0)
(0.040313046 0.045779361 0)
(0.033846213 0.044443691 0)
(0.02789257 0.042578195 0)
(0.022478784 0.040298553 0)
(0.017617261 0.037709493 0)
(0.013309573 0.034903832 0)
(0.009545528 0.031963788 0)
(0.0063102309 0.028960829 0)
(0.0035848579 0.025962149 0)
(0.0013411574 0.02301978 0)
(-0.00045564095 0.020182678 0)
(-0.0018357135 0.017502532 0)
(-0.0028283958 0.014999176 0)
(-0.0034959154 0.012723647 0)
(-0.0038403038 0.010684875 0)
(-0.0039013423 0.0089469827 0)
(-0.0039280167 0.0073416127 0)
(-0.0031939745 0.0063917742 0)
(-0.0032103699 0.0050504945 0)
(0.0044312124 -0.020321593 0)
(0.0069909925 -0.019783972 0)
(0.0094776247 -0.019458377 0)
(0.01125029 -0.018922525 0)
(0.013265889 -0.018418942 0)
(0.015109173 -0.01787971 0)
(0.016822953 -0.017334788 0)
(0.018446461 -0.01680567 0)
(0.019946423 -0.016307048 0)
(0.02133543 -0.015873589 0)
(0.022600943 -0.01551598 0)
(0.023756574 -0.015269096 0)
(0.024825279 -0.015157677 0)
(0.025800814 -0.015202816 0)
(0.026720492 -0.015444303 0)
(0.027607018 -0.015897629 0)
(0.028459056 -0.016588736 0)
(0.029325669 -0.017543113 0)
(0.030259157 -0.018804886 0)
(0.031284489 -0.020381995 0)
(0.032449011 -0.022289926 0)
(0.033835803 -0.024557139 0)
(0.035493325 -0.027204605 0)
(0.037542626 -0.030253484 0)
(0.040087204 -0.033639723 0)
(0.04322234 -0.037388777 0)
(0.047121394 -0.041373472 0)
(0.051918957 -0.045500259 0)
(0.057757728 -0.049595856 0)
(0.064752573 -0.053418727 0)
(0.072981409 -0.056655627 0)
(0.082439996 -0.058959457 0)
(0.093029446 -0.059907489 0)
(0.10456446 -0.05910383 0)
(0.1166802 -0.056060034 0)
(0.1288624 -0.050396962 0)
(0.14037364 -0.042031378 0)
(0.15054333 -0.031030721 0)
(0.15890383 -0.017556754 0)
(0.16487902 -0.0018050499 0)
(0.16790207 0.01591942 0)
(0.16740385 0.035089743 0)
(0.16288784 0.055010245 0)
(0.15404667 0.074743009 0)
(0.14081482 0.093290099 0)
(0.12346259 0.10956896 0)
(0.10251031 0.12262286 0)
(0.078736121 0.1316143 0)
(0.053073829 0.13597172 0)
(0.02669142 0.13530494 0)
(0.00052049686 0.1295506 0)
(-0.024329321 0.11880465 0)
(-0.046582968 0.10310062 0)
(-0.065277146 0.083056151 0)
(-0.079434078 0.059492334 0)
(-0.088269387 0.033402577 0)
(-0.091278681 0.0059401635 0)
(-0.088177656 -0.021624666 0)
(-0.078958218 -0.047914905 0)
(-0.063865743 -0.071500612 0)
(-0.043513496 -0.090911068 0)
(-0.019153581 -0.10467483 0)
(0.0075653918 -0.1117174 0)
(0.034236914 -0.11165916 0)
(0.058833771 -0.10563266 0)
(0.080216244 -0.094779969 0)
(0.097576984 -0.080382005 0)
(0.11049632 -0.063708139 0)
(0.11889447 -0.045979218 0)
(0.12299838 -0.028321506 0)
(0.12331911 -0.011650736 0)
(0.12048927 0.0033776317 0)
(0.115241 0.016476896 0)
(0.108275 0.027476878 0)
(0.10011727 0.036364042 0)
(0.09123043 0.043238393 0)
(0.082003705 0.048271662 0)
(0.072739355 0.051660006 0)
(0.063664261 0.053609353 0)
(0.054946596 0.054325642 0)
(0.046705731 0.054000046 0)
(0.039021804 0.052808876 0)
(0.031947493 0.05091478 0)
(0.025515316 0.048464158 0)
(0.019739925 0.045586011 0)
(0.014620389 0.042398719 0)
(0.010144676 0.039002447 0)
(0.0062933059 0.035486741 0)
(0.0030430267 0.03193292 0)
(0.00036343497 0.028408096 0)
(-0.0017835297 0.024976159 0)
(-0.0034278604 0.02168051 0)
(-0.0046182998 0.018585544 0)
(-0.0053899845 0.015706017 0)
(-0.0058080219 0.013098321 0)
(-0.005857431 0.010758103 0)
(-0.0056897165 0.0087810976 0)
(-0.0052948317 0.0069344469 0)
(-0.0044073074 0.0058729151 0)
(-0.003960079 0.0043346203 0)
(0.0047581278 -0.022619163 0)
(0.0074472406 -0.021953704 0)
(0.0099505591 -0.021572101 0)
(0.011821824 -0.020933701 0)
(0.013837741 -0.020315414 0)
(0.015707049 -0.019665327 0)
(0.017422438 -0.018994756 0)
(0.019024917 -0.018338681 0)
(0.020481562 -0.017706718 0)
(0.021792135 -0.017148624 0)
(0.022965562 -0.016674663 0)
(0.023999668 -0.01631277 0)
(0.024911635 -0.016097675 0)
(0.02571332 -0.016060498 0)
(0.026415969 -0.016234187 0)
(0.027058944 -0.01664284 0)