/*--------------------------------*- C++ -*----------------------------------*\
  =========                 |
  \\      /  F ield         | OpenFOAM: The Open Source CFD Toolbox
   \\    /   O peration     | Website:  https://openfoam.org
    \\  /    A nd           | Version:  9
     \\/     M anipulation  |
\*---------------------------------------------------------------------------*/
FoamFile
{
    format      ascii;
    class       volScalarField;
    location    "12";
    object      p;
}
// * * * * * * * * * * * * * * * * * * * * * * * * * * * * * * * * * * * * * //

dimensions      [0 2 -2 0 0 0 0];

internalField   nonuniform List<scalar> 
1000
(
1.6755977
1.5545198
1.4585394
1.3948833
1.3463737
1.3039017
1.2663665
1.2341947
1.2067943
1.1829568
1.1615624
1.1417986
1.1231215
1.1051819
1.0877666
1.0707524
1.0540715
1.0376874
1.0215792
1.0057333
0.99013827
0.97478316
0.95965647
0.94474623
0.93004022
0.91552623
0.90119226
0.88702676
0.8730187
0.8591577
0.84543399
0.83183844
0.81836254
0.80499837
0.79173854
0.77857617
0.76550486
0.75251866
0.73961199
0.72677968
0.71401688
0.70131907
0.68868203
0.67610181
0.66357472
0.65109733
0.63866639
0.62627891
0.61393206
0.6016232
0.58934988
0.57710979
0.56490076
0.55272077
0.54056794
0.5284405
0.51633679
0.50425527
0.4921945
0.48015312
0.46812988
0.45612359
0.44413314
0.4321575
0.42019569
0.40824681
0.39631001
0.38438451
0.37246957
0.3605645
0.34866865
0.33678142
0.32490225
0.31303061
0.30116599
0.28930793
0.27745601
0.26560981
0.25376898
0.24193316
0.23010203
0.21827528
0.20645261
0.19463376
0.18281846
0.17100649
0.15919763
0.14739168
0.13558845
0.12378778
0.11198948
0.10019342
0.088399436
0.076607398
0.064817175
0.05302865
0.041241749
0.029456294
0.017672475
0.0058896587
1.558378
1.503449
1.4424965
1.3909288
1.3476587
1.3086904
1.2731042
1.2413315
1.2133706
1.1885928
1.1661909
1.1454895
1.1260079
1.1074199
1.0895063
1.0721215
1.0551697
1.0385883
1.0223356
1.0063821
0.99070508
0.97528555
0.9601067
0.94515304
0.93040998
0.91586376
0.90150135
0.88731048
0.87327964
0.85939806
0.8456557
0.83204319
0.81855184
0.80517355
0.7919008
0.77872659
0.76564441
0.75264821
0.73973233
0.72689153
0.71412089
0.70141583
0.68877209
0.67618566
0.66365282
0.65117008
0.63873419
0.6263421
0.61399097
0.60167813
0.58940111
0.57715757
0.56494533
0.55276236
0.54060675
0.52847671
0.51637059
0.50428682
0.49222394
0.48018061
0.46815554
0.45614754
0.4441555
0.43217838
0.42021519
0.40826502
0.39632701
0.38440038
0.37248439
0.36057833
0.34868157
0.33679349
0.32491353
0.31304114
0.30117583
0.28931712
0.27746458
0.26561782
0.25377646
0.24194014
0.23010855
0.21828137
0.2064583
0.19463908
0.18282343
0.17101113
0.15920196
0.14739572
0.13559221
0.12379129
0.11199276
0.10019648
0.088402289
0.076610054
0.064819645
0.053030918
0.041243859
0.029458121
0.017674103
0.0058904651
1.4975568
1.4713817
1.4329848
1.391852
1.3527667
1.3161759
1.2818782
1.2501607
1.2213046
1.1952035
1.1714495
1.1495595
1.1291097
1.1097688
1.0912886
1.0734876
1.0562358
1.0394402
1.0230341
1.006969
0.99120859
0.9757249
0.96049503
0.94549953
0.93072127
0.91614478
0.90175595
0.88754177
0.87349023
0.85959016
0.84583124
0.83220387
0.81869913
0.80530878
0.79202512
0.77884103
0.7657499
0.75274555
0.73982225
0.72697467
0.71419784
0.70148711
0.68883816
0.67624696
0.66370972
0.65122293
0.6387833
0.62638776
0.61403343
0.60171764
0.58943788
0.57719181
0.56497722
0.55279207
0.54063443
0.52850251
0.51639464
0.50430924
0.49224485
0.4802001
0.46817372
0.4561645
0.44417133
0.43219314
0.42022897
0.40827788
0.39633902
0.38441159
0.37249485
0.36058809
0.34869068
0.336802
0.32492147
0.31304856
0.30118275
0.28932359
0.27747063
0.26562346
0.25378172
0.24194505
0.23011313
0.21828565
0.2064623
0.19464282
0.18282692
0.1710144
0.159205
0.14739856
0.13559486
0.12379376
0.11199506
0.10019864
0.088404286
0.076611917
0.06482135
0.053032487
0.041245219
0.029459287
0.017674792
0.0058909283
1.4681483
1.4526502
1.4257802
1.3918564
1.3560554
1.3211041
1.2878021
1.2564491
1.2273184
1.2005269
1.1759394
1.1532472
1.1320953
1.1121666
1.0932084
1.0750287
1.0574829
1.0404619
1.0238833
1.0076853
0.99182133
0.97625558
0.96095962
0.94590994
0.9310865
0.91647178
0.90205014
0.8878075
0.87373105
0.85980904
0.84603067
0.83238597
0.81886575
0.8054615
0.79216535
0.77896998
0.76586864
0.75285503
0.73992331
0.72706806
0.71428422
0.70156708
0.68891226
0.67631565
0.66377346
0.65128211
0.63883827
0.62643885
0.61408094
0.60176183
0.589479
0.57723008
0.56501285
0.55282525
0.54066534
0.52853132
0.51642149
0.50433427
0.49226819
0.48022187
0.46819402
0.45618343
0.44418898
0.43220961
0.42024433
0.40829222
0.39635241
0.38442409
0.37250652
0.36059899
0.34870085
0.33681148
0.32493031
0.31305681
0.30119046
0.28933079
0.27747736
0.26562976
0.2537876
0.24195054
0.23011825
0.21829042
0.20646675
0.19464697
0.1828308
0.17101803
0.1592084
0.14740175
0.13559784
0.12379654
0.11199764
0.10020104
0.088406503
0.076614007
0.064823237
0.053034281
0.041246709
0.029460721
0.017675665
0.0058919573
1.4554167
1.4434634
1.421229
1.3909414
1.3570803
1.3230847
1.2903871
1.2593815
1.2302842
1.2032723
1.1783452
1.1552957
1.1338141
1.1135965
1.0943929
1.0760107
1.0583018
1.0411513
1.0244705
1.0081914
0.99226237
0.97664381
0.96130429
0.94621813
0.93136367
0.91672219
0.90227721
0.88801402
0.87391933
0.85998104
0.84618807
0.83253024
0.81899817
0.80558321
0.79227734
0.77907316
0.76596379
0.75294287
0.74000448
0.72714313
0.7143537
0.70163143
0.6889719
0.67637097
0.66382479
0.65132977
0.63888256
0.62648001
0.61411921
0.60179743
0.58951212
0.5772609
0.56504154
0.55285197
0.54069023
0.52855452
0.51644311
0.50435443
0.49228699
0.4802394
0.46821036
0.45619867
0.44420318
0.43222286
0.42025669
0.40830376
0.39636318
0.38443415
0.37251591
0.36060776
0.34870903
0.33681911
0.32493742
0.31306344
0.30119665
0.28933658
0.27748277
0.26563482
0.25379234
0.24195496
0.23012237
0.21829425
0.20647031
0.19465029
0.18283391
0.17102095
0.15921114
0.14740432
0.13560024
0.12379879
0.11199971
0.10020298
0.088408281
0.076615692
0.064824754
0.053035748
0.041247938
0.029461966
0.017676512
0.0058929708
1.4554167
1.4434634
1.421229
1.3909414
1.3570803
1.3230847
1.2903871
1.2593815
1.2302842
1.2032723
1.1783452
1.1552957
1.1338141
1.1135965
1.0943929
1.0760107
1.0583018
1.0411513
1.0244705
1.0081914
0.99226237
0.97664381
0.96130429
0.94621813
0.93136367
0.91672219
0.90227721
0.88801402
0.87391933
0.85998104
0.84618807
0.83253024
0.81899817
0.80558321
0.79227734
0.77907316
0.7659638
0.75294288
0.74000449
0.72714313
0.7143537
0.70163143
0.6889719
0.67637097
0.66382479
0.65132978
0.63888256
0.62648002
0.61411922
0.60179743
0.58951212
0.5772609
0.56504154
0.55285197
0.54069023
0.52855452
0.51644312
0.50435444
0.49228699
0.4802394
0.46821036
0.45619866
0.44420318
0.43222285
0.42025669
0.40830376
0.39636319
0.38443416
0.37251592
0.36060776
0.34870902
0.3368191
0.32493742
0.31306344
0.30119665
0.28933658
0.27748278
0.26563483
0.25379234
0.24195496
0.23012236
0.21829424
0.2064703
0.19465029
0.18283391
0.17102096
0.15921115
0.14740433
0.13560024
0.12379878
0.1119997
0.10020297
0.088408273
0.07661569
0.064824761
0.05303576
0.041247952
0.029461974
0.017676512
0.005892966
1.4681483
1.4526502
1.4257802
1.3918564
1.3560554
1.3211041
1.2878021
1.2564491
1.2273184
1.2005269
1.1759394
1.1532472
1.1320953
1.1121666
1.0932084
1.0750287
1.0574829
1.0404619
1.0238833
1.0076853
0.99182133
0.97625558
0.96095961
0.94590994
0.93108651
0.91647178
0.90205014
0.88780751
0.87373105
0.85980904
0.84603066
0.83238596
0.81886575
0.8054615
0.79216535
0.77896999
0.76586864
0.75285503
0.73992331
0.72706806
0.71428421
0.70156707
0.68891225
0.67631565
0.66377346
0.65128212
0.63883828
0.62643886
0.61408094
0.60176183
0.58947899
0.57723006
0.56501284
0.55282525
0.54066535
0.52853133
0.5164215
0.50433428
0.4922682
0.48022187
0.46819401
0.45618342
0.44418897
0.43220961
0.42024434
0.40829224
0.39635243
0.38442411
0.37250653
0.36059898
0.34870083
0.33681146
0.3249303
0.3130568
0.30119047
0.28933081
0.27747739
0.26562978
0.2537876
0.24195053
0.23011822
0.21829039
0.20646672
0.19464696
0.18283081
0.17101805
0.15920843
0.14740177
0.13559784
0.12379653
0.11199761
0.10020102
0.088406488
0.076614011
0.064823261
0.053034317
0.041246745
0.029460745
0.017675662
0.0058919459
1.4975568
1.4713817
1.4329849
1.391852
1.3527667
1.3161759
1.2818782
1.2501607
1.2213046
1.1952035
1.1714495
1.1495595
1.1291097
1.1097688
1.0912886
1.0734876
1.0562358
1.0394402
1.0230341
1.0069689
0.99120858
0.97572489
0.96049503
0.94549953
0.93072127
0.91614478
0.90175595
0.88754178
0.87349023
0.85959016
0.84583124
0.83220386
0.81869913
0.80530878
0.79202512
0.77884104
0.7657499
0.75274555
0.73982225
0.72697467
0.71419783
0.7014871
0.68883816
0.67624696
0.66370973
0.65122294
0.63878331
0.62638776
0.61403343
0.60171764
0.58943787
0.5771918
0.56497721
0.55279207
0.54063444
0.52850253
0.51639465
0.50430924
0.49224484
0.48020009
0.4681737
0.45616449
0.44417132
0.43219315
0.42022898
0.4082779
0.39633904
0.3844116
0.37249485
0.36058808
0.34869066
0.33680198
0.32492146
0.31304856
0.30118277
0.28932361
0.27747065
0.26562347
0.25378171
0.24194503
0.2301131
0.21828562
0.20646229
0.19464282
0.18282694
0.17101442
0.15920502
0.14739857
0.13559485
0.12379374
0.11199503
0.10019862
0.088404284
0.076611936
0.064821385
0.053032528
0.041245252
0.029459305
0.01767479
0.0058909212
1.558378
1.503449
1.4424965
1.3909288
1.3476587
1.3086904
1.2731042
1.2413315
1.2133706
1.1885928
1.1661909
1.1454895
1.1260079
1.1074199
1.0895063
1.0721215
1.0551697
1.0385883
1.0223356
1.0063821
0.99070508
0.97528555
0.9601067
0.94515304
0.93040999
0.91586377
0.90150135
0.88731048
0.87327964
0.85939806
0.84565569
0.83204319
0.81855184
0.80517356
0.79190081
0.77872659
0.76564441
0.75264821
0.73973233
0.72689152
0.71412088
0.70141583
0.68877209
0.67618566
0.66365282
0.65117008
0.63873419
0.6263421
0.61399096
0.60167813
0.5894011
0.57715757
0.56494533
0.55276237
0.54060676
0.52847672
0.51637059
0.50428681
0.49222393
0.48018059
0.46815553
0.45614754
0.44415551
0.43217839
0.4202152
0.40826503
0.39632702
0.38440038
0.37248438
0.36057832
0.34868157
0.3367935
0.32491354
0.31304116
0.30117584
0.28931713
0.27746458
0.26561781
0.25377644
0.24194013
0.23010854
0.21828136
0.2064583
0.19463908
0.18282344
0.17101114
0.15920195
0.14739571
0.1355922
0.12379128
0.11199275
0.10019649
0.088402303
0.076610077
0.064819674
0.053030943
0.041243877
0.02945813
0.017674107
0.0058904668
1.6755977
1.5545198
1.4585394
1.3948833
1.3463737
1.3039017
1.2663665
1.2341947
1.2067943
1.1829568
1.1615624
1.1417986
1.1231215
1.1051819
1.0877666
1.0707524
1.0540715
1.0376874
1.0215792
1.0057332
0.99013827
0.97478316
0.95965647
0.94474623
0.93004023
0.91552623
0.90119226
0.88702675
0.8730187
0.8591577
0.84543399
0.83183844
0.81836255
0.80499838
0.79173854
0.77857617
0.76550486
0.75251865
0.73961199
0.72677968
0.71401688
0.70131907
0.68868203
0.67610181
0.66357473
0.65109733
0.63866639
0.6262789
0.61393205
0.6016232
0.58934988
0.57710979
0.56490076
0.55272078
0.54056795
0.5284405
0.51633678
0.50425526
0.49219449
0.48015312
0.46812988
0.4561236
0.44413315
0.43215751
0.4201957
0.40824681
0.39631001
0.3843845
0.37246956
0.36056449
0.34866865
0.33678144
0.32490227
0.31303062
0.301166
0.28930793
0.277456
0.2656098
0.25376897
0.24193315
0.23010203
0.21827528
0.20645261
0.19463376
0.18281846
0.17100648
0.15919762
0.14739167
0.13558844
0.12378777
0.11198949
0.10019344
0.088399455
0.07660742
0.064817194
0.053028662
0.041241754
0.029456301
0.017672481
0.005889663
)
;

boundaryField
{
    top
    {
        type            zeroGradient;
    }
    inlet
    {
        type            zeroGradient;
    }
    outlet
    {
        type            fixedValue;
        value           uniform 0;
    }
    bottom
    {
        type            zeroGradient;
    }
    back
    {
        type            empty;
    }
    front
    {
        type            empty;
    }
}


// ************************************************************************* //
