/*--------------------------------*- C++ -*----------------------------------*\
  =========                 |
  \\      /  F ield         | OpenFOAM: The Open Source CFD Toolbox
   \\    /   O peration     | Website:  https://openfoam.org
    \\  /    A nd           | Version:  9
     \\/     M anipulation  |
\*---------------------------------------------------------------------------*/
FoamFile
{
    format      ascii;
    class       surfaceScalarField;
    location    "12";
    object      phi;
}
// * * * * * * * * * * * * * * * * * * * * * * * * * * * * * * * * * * * * * //

dimensions      [0 3 -1 0 0 0 0];

internalField   nonuniform List<scalar> 
1890
(
0.0093061957
0.00069380425
0.0082843931
0.0010218027
0.0073298986
0.00095449449
0.0064869552
0.00084294335
0.0057695844
0.00071737081
0.00518986
0.00057972444
0.004738168
0.00045169204
0.00439519
0.00034297799
0.0041390268
0.00025616316
0.003949107
0.00018991982
0.003807888
0.00014121897
0.0037013782
0.0001065098
0.0036190579
8.2320231e-05
0.0035534117
6.5646254e-05
0.0034992845
5.4127258e-05
0.0034532444
4.6040045e-05
0.0034130502
4.0194283e-05
0.0033772574
3.5792744e-05
0.0033449387
3.2318749e-05
0.0033154894
2.9449277e-05
0.0032885008
2.6988579e-05
0.0032636805
2.4820309e-05
0.003240805
2.287549e-05
0.0032196926
2.1112425e-05
0.0032001879
1.9504659e-05
0.0031821539
1.8034016e-05
0.0031654672
1.6686725e-05
0.0031500158
1.5451363e-05
0.003135698
1.4317865e-05
0.0031224209
1.3277078e-05
0.0031101003
1.2320599e-05
0.0030986595
1.1440727e-05
0.0030880291
1.0630436e-05
0.0030781457
9.8833618e-06
0.003068952
9.1937641e-06
0.0030603955
8.5564881e-06
0.0030524286
7.9669159e-06
0.0030450077
7.4209073e-06
0.0030380929
6.9147574e-06
0.0030316478
6.4451397e-06
0.0030256387
6.0090658e-06
0.0030200348
5.603849e-06
0.0030148078
5.2270626e-06
0.0030099312
4.8765178e-06
0.003005381
4.5502267e-06
0.0030011347
4.2463821e-06
0.0029971714
3.9633359e-06
0.0029934718
3.6995734e-06
0.0029900181
3.4537081e-06
0.0029867936
3.2244592e-06
0.0029837829
3.0106467e-06
0.0029809717
2.8111874e-06
0.0029783466
2.6250781e-06
0.0029758952
2.4514022e-06
0.0029736059
2.2893101e-06
0.0029714679
2.1380181e-06
0.0029694712
1.9968011e-06
0.0029676062
1.8649767e-06
0.0029658643
1.7419121e-06
0.0029642373
1.6270089e-06
0.0029627175
1.5197067e-06
0.002961298
1.4194927e-06
0.0029599721
1.3258832e-06
0.0029587336
1.2384473e-06
0.0029575769
1.1567811e-06
0.0029564964
1.0805131e-06
0.0029554872
1.0093023e-06
0.0029545444
9.428082e-07
0.0029536636
8.807222e-07
0.0029528408
8.2273271e-07
0.0029520722
7.6855211e-07
0.0029513543
7.1791816e-07
0.0029506836
6.7059034e-07
0.0029500573
6.2636222e-07
0.0029494723
5.8505455e-07
0.0029489258
5.4648234e-07
0.0029484154
5.1050244e-07
0.0029479385
4.7691254e-07
0.0029474929
4.4557294e-07
0.0029470765
4.162739e-07
0.0029466876
3.8889623e-07
0.0029463243
3.6325264e-07
0.002945985
3.3930377e-07
0.0029456682
3.1686215e-07
0.0029453723
2.9600058e-07
0.002945096
2.7644539e-07
0.0029448377
2.5837647e-07
0.0029445964
2.4134237e-07
0.0029443707
2.2567626e-07
0.0029441601
2.1070489e-07
0.0029439631
1.9706968e-07
0.0029437794
1.8380924e-07
0.0029436074
1.7203946e-07
0.0029434473
1.6038355e-07
0.002943297
1.5042531e-07
0.002943157
1.4046449e-07
0.0029430252
1.322224e-07
0.0029429007
1.2493264e-07
0.0029427816
1.192763e-07
1.2480788e-07
0.010339525
0.00035427932
0.010570754
0.00079057335
0.010606301
0.00091894822
0.010547572
0.00090167139
0.010422317
0.00084262625
0.010244356
0.0007576856
0.01003942
0.00065662744
0.0098287426
0.00055365585
0.009625135
0.00045977081
0.0094353013
0.00037975351
0.0092624277
0.00031409257
0.0091075333
0.00026140425
0.008970154
0.00021969949
0.0088489023
0.00018689788
0.0087419715
0.00016105804
0.0086474926
0.00014051896
0.008563694
0.00012399297
0.0084890108
0.00011047599
0.0084221097
9.9219848e-05
0.0083618776
8.9681377e-05
0.0083073955
8.1470647e-05
0.008257908
7.4307837e-05
0.0082127929
6.7990502e-05
0.0081715353
6.2370009e-05
0.0081337049
5.7335041e-05
0.0080989388
5.2800211e-05
0.0080669272
4.8698286e-05
0.0080374037
4.4974963e-05
0.0080101362
4.1585386e-05
0.0079849214
3.8491833e-05
0.0079615799
3.5662137e-05
0.0079399519
3.3068597e-05
0.0079198952
3.0687166e-05
0.0079012817
2.8496856e-05
0.0078839961
2.647926e-05
0.0078679345
2.4618171e-05
0.0078530022
2.289927e-05
0.0078391133
2.1309865e-05
0.0078261894
1.9838667e-05
0.0078141589
1.8475601e-05
0.0078029563
1.7211645e-05
0.0077925214
1.6038698e-05
0.007782799
1.4949457e-05
0.0077737381
1.3937326e-05
0.007765292
1.2996326e-05
0.0077574174
1.2121026e-05
0.0077500743
1.1306482e-05
0.0077432258
1.0548179e-05
0.0077368375
9.841993e-06
0.0077308779
9.1841358e-06
0.0077253173
8.5711315e-06
0.0077201287
7.9997801e-06
0.0077152866
7.4671284e-06
0.0077107675
6.9704544e-06
0.0077065495
6.5072395e-06
0.0077026124
6.0751562e-06
0.0076989372
5.6720582e-06
0.0076955063
5.2959521e-06
0.0076923033
4.9450002e-06
0.0076893129
4.6174869e-06
0.0076865207
4.3118225e-06
0.0076839136
4.0265244e-06
0.0076814791
3.7602106e-06
0.0076792059
3.5115968e-06
0.0076770832
3.2794864e-06
0.007675101
3.062769e-06
0.00767325
2.8604175e-06
0.0076715214
2.6714737e-06
0.0076699072
2.4950537e-06
0.0076683996
2.330322e-06
0.0076669916
2.1765022e-06
0.0076656765
2.0328636e-06
0.0076644482
1.8987273e-06
0.007663301
1.7734492e-06
0.0076622296
1.6564523e-06
0.007661229
1.5471666e-06
0.0076602945
1.4451174e-06
0.0076594218
1.3497852e-06
0.0076586067
1.2607933e-06
0.0076578453
1.1776382e-06
0.007657134
1.1000411e-06
0.0076564695
1.0274806e-06
0.0076558488
9.598161e-07
0.0076552691
8.9644721e-07
0.0076547277
8.3746479e-07
0.0076542222
7.8208099e-07
0.0076537499
7.3073892e-07
0.0076533091
6.8226613e-07
0.007652897
6.3767294e-07
0.0076525124
5.9508864e-07
0.0076521526
5.5652061e-07
0.0076518173
5.1885537e-07
0.007651503
4.8587514e-07
0.0076512108
4.5224305e-07
0.007650936
4.2482758e-07
0.007650682
3.9435562e-07
0.0076504406
3.7321305e-07
0.0076502198
3.4556516e-07
0.0076500043
3.341902e-07
3.0796627e-07
0.010188704
0.00016557515
0.010530487
0.000448791
0.010851453
0.00059798178
0.011124174
0.00062895026
0.011350581
0.00061621888
0.011524486
0.00058378057
0.01164633
0.00053478421
0.011724155
0.00047583049
0.011767999
0.00041592663
0.011786639
0.00036111396
0.011787114
0.00031361708
0.011775058
0.00027346024
0.011754861
0.00023989719
0.011729768
0.00021199034
0.011702054
0.00018877265
0.011673239
0.00016933392
0.011644339
0.00015289299
0.011616003
0.00013881183
0.011588629
0.00012659376
0.011562446
0.0001158644
0.011537572
0.00010634489
0.011514052
9.7826966e-05
0.01149189
9.0153358e-05
0.011471056
8.3203397e-05
0.011451509
7.6882669e-05
0.011433193
7.1115625e-05
0.011416051
6.5840343e-05
0.011400021
6.1004927e-05
0.011385042
5.6565051e-05
0.011371051
5.2482287e-05
0.01135799
4.8722966e-05
0.011345801
4.525734e-05
0.01133443
4.205898e-05
0.011323822
3.9104301e-05
0.011313929
3.6372185e-05
0.011304704
3.3843685e-05
0.011296101
3.1501755e-05
0.01128808
2.9331041e-05
0.011280601
2.7317678e-05
0.011273628
2.5449115e-05
0.011267125
2.371397e-05
0.011261062
2.2101886e-05
0.011255408
2.0603428e-05
0.011250135
1.9209975e-05
0.011245218
1.791364e-05
0.011240632
1.670721e-05
0.011236354
1.5584068e-05
0.011232364
1.4538159e-05
0.011228642
1.3563917e-05
0.01122517
1.2656228e-05
0.011221931
1.181038e-05
0.011218909
1.1022011e-05
0.011216089
1.0287082e-05
0.011213457
9.6018445e-06
0.011211002
8.9628125e-06
0.01120871
8.36677e-06
0.011206572
7.8107297e-06
0.011204576
7.2919535e-06
0.011202713
6.8079056e-06
0.011200974
6.3562452e-06
0.011199351
5.934801e-06
0.011197836
5.5415349e-06
0.011196422
5.1745419e-06
0.011195101
4.8320237e-06
0.011193868
4.5122906e-06
0.011192717
4.2137774e-06
0.011191643
3.9350335e-06
0.01119064
3.6747346e-06
0.011189703
3.4316818e-06
0.011188829
3.2047544e-06
0.011188012
2.9929391e-06
0.01118725
2.7952314e-06
0.011186538
2.6107082e-06
0.011185873
2.4384332e-06
0.011185251
2.2775527e-06
0.011184671
2.1272275e-06
0.01118413
1.9867772e-06
0.011183624
1.8554924e-06
0.011183152
1.7329154e-06
0.011182711
1.6184005e-06
0.0111823
1.5116488e-06
0.011181915
1.4119147e-06
0.011181556
1.3190355e-06
0.01118122
1.2320486e-06
0.011180906
1.1510945e-06
0.011180614
1.0748944e-06
0.01118034
1.0042684e-06
0.011180085
9.3730229e-07
0.011179847
8.7599408e-07
0.011179624
8.1705715e-07
0.011179416
7.6445189e-07
0.011179223
7.1219379e-07
0.01117904
6.6782803e-07
0.011178872
6.2044789e-07
0.011178712
5.8439491e-07
0.011178566
5.3983189e-07
0.011178425
5.1359024e-07
0.011178301
4.6974992e-07
0.011178178
4.5620582e-07
4.1259298e-07
0.010097182
6.8393557e-05
0.010346961
0.00019901112
0.010662469
0.00028247388
0.010982753
0.0003086665
0.011290229
0.00030874343
0.011575251
0.00029875789
0.011829022
0.00028101346
0.012047865
0.00025698754
0.012233272
0.00023051979
0.01238924
0.00020514587
0.012520295
0.00018256233
0.012630755
0.00016299956
0.012724428
0.00014622492
0.012804515
0.00013190315
0.012873613
0.0001196743
0.012933772
0.00010917465
0.012986596
0.00010006909
0.013033332
9.2076362e-05
0.01307495
8.4975222e-05
0.013112216
7.8598565e-05
0.013145739
7.2822255e-05
0.013176012
6.7553908e-05
0.013203441
6.2723925e-05
0.013228366
5.827893e-05
0.013251071
5.4177048e-05
0.013271803
5.0384498e-05
0.01329077
4.6873211e-05
0.013308155
4.3619192e-05
0.013324119
4.0601432e-05
0.0133388
3.7801221e-05
0.013352321
3.5201685e-05
0.013364791
3.2787483e-05
0.013376306
3.0544588e-05
0.01338695
2.8460131e-05
0.0133968
2.6522299e-05
0.013405923
2.4720222e-05
0.013414381
2.3043905e-05
0.013422228
2.148416e-05
0.013429513
2.0032521e-05
0.013436281
1.8681189e-05
0.013442572
1.7422968e-05
0.013448423
1.6251208e-05
0.013453866
1.5159747e-05
0.013458933
1.4142877e-05
0.013463652
1.3195319e-05
0.013468047
1.2312186e-05
0.013472142
1.148896e-05
0.013475958
1.0721475e-05
0.013479517
1.0005872e-05
0.013482834
9.338587e-06
0.013485928
8.716311e-06
0.013488814
8.1359663e-06
0.013491507
7.5946735e-06
0.013494019
7.0897317e-06
0.013496363
6.6186383e-06
0.013498551
6.179054e-06
0.013500593
5.7688278e-06
0.013502499
5.3859728e-06
0.013504278
5.0286525e-06
0.013505939
4.6951808e-06
0.01350749
4.3839832e-06
0.013508938
4.0935849e-06
0.01351029
3.8225845e-06
0.013511552
3.569636e-06
0.013512731
3.333494e-06
0.013513832
3.1129821e-06
0.01351486
2.9070319e-06
0.01351582
2.714679e-06
0.013516716
2.5350399e-06
0.013517554
2.3673271e-06
0.013518336
2.210804e-06
0.013519066
2.0647628e-06
0.013519749
1.9285032e-06
0.013520386
1.8012934e-06
0.013520981
1.6824927e-06
0.013521536
1.5714465e-06
0.013522056
1.4676347e-06
0.01352254
1.3705603e-06
0.013522994
1.2799126e-06
0.013523417
1.1952369e-06
0.013523812
1.1163683e-06
0.013524181
1.0427251e-06
0.013524526
9.7422692e-07
0.013524848
9.1003812e-07
0.013525148
8.5036233e-07
0.013525429
7.9402911e-07
0.013525692
7.4186306e-07
0.013525937
6.9216744e-07
0.013526166
6.4689627e-07
0.01352638
6.0308725e-07
0.01352658
5.6450712e-07
0.013526766
5.2559474e-07
0.01352694
4.9343316e-07
0.013527103
4.5786344e-07
0.013527255
4.3208354e-07
0.013527396
3.9805687e-07
0.01352753
3.795871e-07
0.013527654
3.452181e-07
0.013527775
3.3586457e-07
3.0320536e-07
0.010068394
8.2375103e-13
0.010267405
3.0040964e-12
0.010549879
3.6051598e-12
0.010858545
1.0268661e-12
0.011167288
-4.9191603e-12
0.011466046
-1.4779376e-11
0.01174706
-2.3997303e-11
0.012004047
-2.8654164e-11
0.012234567
-2.4604409e-11
0.012439713
-1.2228136e-11
0.012622275
4.7947742e-12
0.012785275
2.310294e-11
0.0129315
3.4207936e-11
0.013063403
3.5469535e-11
0.013183077
2.4771148e-11
0.013292252
7.4549063e-12
0.013392321
-1.2600671e-11
0.013484397
-2.8870756e-11
0.013569373
-3.4164327e-11
0.013647971
-2.5916059e-11
0.013720794
-8.7180063e-12
0.013788347
1.3264156e-11
0.013851071
3.3574285e-11
0.01390935
4.354837e-11
0.013963527
3.8124743e-11
0.014013912
1.9645197e-11
0.014060785
-3.8832139e-12
0.014104404
-2.9013364e-11
0.014145006
-4.2856886e-11
0.014182807
-3.9307678e-11
0.014218009
-2.0472262e-11
0.014250796
5.1117959e-12
0.014281341
2.9912741e-11
0.014309801
4.6535809e-11
0.014336323
4.4549914e-11
0.014361043
2.5091485e-11
0.014384087
-1.0534198e-12
0.014405571
-3.0867354e-11
0.014425604
-4.8553626e-11
0.014444285
-4.6115094e-11
0.014461708
-2.419841e-11
0.014477959
5.5803277e-12
0.014493119
3.6113165e-11
0.014507262
5.5621577e-11
0.014520457
5.6731765e-11
0.014532769
3.5208279e-11
0.014544258
2.6125363e-12
0.01455498
-3.5388033e-11
0.014564985
-5.8098964e-11
0.014574324
-5.4000988e-11
0.014583041
-2.4891798e-11
0.014591177
1.6570377e-11
0.014598771
5.4477305e-11
0.014605861
7.9100592e-11
0.014612479
7.7920384e-11
0.014618658
4.8084346e-11
0.014624427
2.0347036e-12
0.014629813
-4.9114575e-11
0.014634842
-7.7376502e-11
0.014639537
-6.8665507e-11
0.014643921
-2.6341799e-11
0.014648015
3.3949683e-11
0.014651837
8.7491157e-11
0.014655407
1.222777e-10
0.01465874
1.1796581e-10
0.014661853
6.9723386e-11
0.01466476
-4.6407637e-12
0.014667475
-8.964333e-11
0.01467001
-1.4286136e-10
0.014672377
-1.4084499e-10
0.014674588
-8.3238622e-11
0.014676653
-2.1075377e-13
0.014678582
8.2823381e-11
0.014680383
1.3716448e-10
0.014682065
1.3978293e-10
0.014683636
7.4234119e-11
0.014685104
-9.8389659e-12
0.014686474
-1.0378202e-10
0.014687755
-1.6243105e-10
0.01468895
-1.49362e-10
0.014690067
-7.7474758e-11
0.014691109
3.2320181e-11
0.014692083
1.4941721e-10
0.014692993
2.2099785e-10
0.014693843
2.0698805e-10
0.014694637
1.2038939e-10
0.014695379
1.0786342e-11
0.014696071
-1.0003215e-10
0.014696718
-1.6631188e-10
0.014697321
-1.5653813e-10
0.014697886
-1.001404e-10
0.014698412
8.0342285e-12
0.014698905
9.5060673e-11
0.014699362
1.2826316e-10
0.014699794
7.3967884e-11
0.014700192
-1.9589661e-11
0.014700572
-1.7332263e-10
0.014700918
-2.2781023e-10
0.014701254
-3.0231644e-10
-2.0271562e-10
0.010068394
-6.8393555e-05
0.010267405
-0.00019901112
0.010549879
-0.00028247387
0.010858545
-0.0003086665
0.011167288
-0.00030874345
0.011466046
-0.00029875793
0.01174706
-0.0002810135
0.012004047
-0.00025698759
0.012234567
-0.00023051982
0.012439713
-0.00020514587
0.012622275
-0.0001825623
0.012785275
-0.00016299951
0.0129315
-0.00014622486
0.013063403
-0.0001319031
0.013183077
-0.00011967428
0.013292252
-0.00010917466
0.013392321
-0.00010006913
0.013484397
-9.2076413e-05
0.013569373
-8.4975265e-05
0.013647971
-7.8598583e-05
0.013720794
-7.2822236e-05
0.013788347
-6.7553857e-05
0.013851071
-6.2723859e-05
0.01390935
-5.8278871e-05
0.013963527
-5.4177014e-05
0.014013912
-5.0384503e-05
0.014060785
-4.6873254e-05
0.014104404
-4.3619254e-05
0.014145006
-4.060149e-05
0.014182807
-3.7801254e-05
0.014218009
-3.5201679e-05
0.014250796
-3.2787436e-05
0.014281341
-3.0544517e-05
0.014309801
-2.8460066e-05
0.014336323
-2.6522262e-05
0.014361043
-2.4720227e-05
0.014384087
-2.3043954e-05
0.014405571
-2.1484231e-05
0.014425604
-2.0032586e-05
0.014444285
-1.8681226e-05
0.014461708
-1.742296e-05
0.014477959
-1.6251148e-05
0.014493119
-1.5159657e-05
0.014507262
-1.4142789e-05
0.014520457
-1.3195268e-05
0.014532769
-1.2312188e-05
0.014544258
-1.1489016e-05
0.01455498
-1.0721558e-05
0.014564986
-1.0005946e-05
0.014574324
-9.338623e-06
0.014583041
-8.7162863e-06
0.014591176
-8.1358765e-06
0.014598771
-7.5945432e-06
0.014605861
-7.0896091e-06
0.014612479
-6.6185679e-06
0.014618658
-6.1790608e-06
0.014624427
-5.7689032e-06
0.014629813
-5.3860805e-06
0.014634842
-5.0287447e-06
0.014639537
-4.6952155e-06
0.014643921
-4.383929e-06
0.014648015
-4.0934375e-06
0.014651837
-3.8223785e-06
0.014655407
-3.5694433e-06
0.01465874
-3.3333837e-06
0.014661853
-3.1129949e-06
0.01466476
-2.9071633e-06
0.014667475
-2.7148751e-06
0.01467001
-2.5352302e-06
0.014672377
-2.3674462e-06
0.014674588
-2.2108056e-06
0.014676653
-2.0646293e-06
0.014678581
-1.928287e-06
0.014680383
-1.8010899e-06
0.014682065
-1.6823904e-06
0.014683636
-1.5714821e-06
0.014685104
-1.4678188e-06
0.014686475
-1.370816e-06
0.014687755
-1.2801307e-06
0.01468895
-1.1953406e-06
0.014690067
-1.1162954e-06
0.014691109
-1.042495e-06
0.014692083
-9.7391766e-07
0.014692993
-9.0975254e-07
0.014693843
-8.5016356e-07
0.014694637
-7.9398245e-07
0.014695379
-7.4195997e-07
0.014696071
-6.9237387e-07
0.014696718
-6.4708746e-07
0.014697321
-6.0319497e-07
0.014697886
-5.6446016e-07
0.014698411
-5.2547064e-07
0.014698905
-4.9326479e-07
0.014699362
-4.5776994e-07
0.014699795
-4.3212371e-07
0.014700192
-3.9829091e-07
0.014700572
-3.7998379e-07
0.014700918
-3.4574449e-07
0.014701255
-3.3632931e-07
-3.0354139e-07
0.010097182
-0.00016557515
0.010346961
-0.000448791
0.010662469
-0.00059798179
0.010982753
-0.00062895028
0.011290229
-0.00061621892
0.011575251
-0.00058378061
0.011829022
-0.00053478424
0.012047865
-0.00047583049
0.012233272
-0.00041592661
0.01238924
-0.00036111392
0.012520295
-0.00031361704
0.012630755
-0.00027346021
0.012724428
-0.00023989718
0.012804515
-0.00021199035
0.012873613
-0.00018877268
0.012933772
-0.00016933395
0.012986596
-0.000152893
0.013033332
-0.00013881182
0.01307495
-0.00012659373
0.013112216
-0.00011586436
0.013145739
-0.00010634485
0.013176012
-9.7826944e-05
0.013203441
-9.0153361e-05
0.013228366
-8.3203424e-05
0.013251071
-7.6882709e-05
0.013271803
-7.111566e-05
0.01329077
-6.5840359e-05
0.013308155
-6.1004915e-05
0.013324119
-5.6565014e-05
0.0133388
-5.2482239e-05
0.013352321
-4.8722926e-05
0.013364791
-4.5257325e-05
0.013376306
-4.2058996e-05
0.01338695
-3.9104343e-05
0.0133968
-3.6372238e-05
0.013405923
-3.3843726e-05
0.013414381
-3.150177e-05
0.013422228
-2.9331019e-05
0.013429513
-2.7317627e-05
0.013436281
-2.5449051e-05
0.013442572
-2.3713917e-05
0.013448422
-2.2101867e-05
0.013453866
-2.0603447e-05
0.013458933
-1.9210028e-05
0.013463652
-1.7913706e-05
0.013468047
-1.670726e-05
0.013472142
-1.5584082e-05
0.013475959
-1.453812e-05
0.013479517
-1.3563837e-05
0.013482834
-1.2656131e-05
0.013485928
-1.1810299e-05
0.013488814
-1.1021979e-05
0.013491507
-1.0287107e-05
0.013494019
-9.6019192e-06
0.013496363
-8.9629052e-06
0.013498551
-8.3668361e-06
0.013500593
-7.8107409e-06
0.013502499
-7.2918856e-06
0.013504278
-6.8077771e-06
0.013505939
-6.3560906e-06
0.01350749
-5.9346699e-06
0.013508938
-5.541477e-06
0.01351029
-5.1745695e-06
0.013511552
-4.8321278e-06
0.013512731
-4.5124262e-06
0.013513832
-4.2138834e-06
0.01351486
-3.935066e-06
0.01351582
-3.6746666e-06
0.013516716
-3.4315374e-06
0.013517554
-3.2045884e-06
0.013518336
-2.9928173e-06
0.013519066
-2.7952207e-06
0.013519749
-2.6108114e-06
0.013520386
-2.4386198e-06
0.013520981
-2.2777539e-06
0.013521537
-2.1273589e-06
0.013522056
-1.9867906e-06
0.013522541
-1.8553743e-06
0.013522994
-1.7327126e-06
0.013523417
-1.6181862e-06
0.013523812
-1.511499e-06
0.013524181
-1.4118852e-06
0.013524526
-1.3191194e-06
0.013524848
-1.2321958e-06
0.013525149
-1.1512357e-06
0.01352543
-1.0749389e-06
0.013525692
-1.0041947e-06
0.013525937
-9.3711563e-07
0.013526166
-8.7576743e-07
0.01352638
-8.1687278e-07
0.013526579
-7.6437596e-07
0.013526766
-7.1226001e-07
0.01352694
-6.6802213e-07
0.013527103
-6.2072532e-07
0.013527255
-5.8469737e-07
0.013527397
-5.4009941e-07
0.01352753
-5.1377289e-07
0.013527655
-4.6980979e-07
0.013527774
-4.5636552e-07
-4.128055e-07
0.010188704
-0.00035427932
0.010530487
-0.00079057336
0.010851453
-0.00091894824
0.011124174
-0.00090167141
0.011350581
-0.00084262628
0.011524486
-0.00075768562
0.01164633
-0.00065662743
0.011724155
-0.00055365582
0.011767999
-0.00045977077
0.011786639
-0.00037975348
0.011787114
-0.00031409256
0.011775058
-0.00026140427
0.011754861
-0.00021969954
0.011729768
-0.00018689793
0.011702054
-0.00016105807
0.011673239
-0.00014051896
0.011644339
-0.00012399293
0.011616003
-0.00011047593
0.011588629
-9.9219788e-05
0.011562446
-8.9681338e-05
0.011537572
-8.1470644e-05
0.011514053
-7.4307873e-05
0.01149189
-6.7990564e-05
0.011471056
-6.2370073e-05
0.011451509
-5.7335082e-05
0.011433193
-5.280021e-05
0.011416051
-4.8698241e-05
0.011400021
-4.4974889e-05
0.011385041
-4.158531e-05
0.011371051
-3.8491785e-05
0.01135799
-3.5662139e-05
0.011345801
-3.3068648e-05
0.01133443
-3.0687251e-05
0.011323822
-2.8496942e-05
0.011313929
-2.6479312e-05
0.011304704
-2.4618167e-05
0.011296101
-2.2899209e-05
0.01128808
-2.1309769e-05
0.011280601
-1.9838569e-05
0.011273628
-1.847554e-05
0.011267125
-1.7211647e-05
0.011261062
-1.6038763e-05
0.011255408
-1.4949565e-05
0.011250135
-1.3937434e-05
0.011245218
-1.2996391e-05
0.011240632
-1.2121019e-05
0.011236354
-1.1306397e-05
0.011232364
-1.0548046e-05
0.011228642
-9.8418565e-06
0.01122517
-9.1840492e-06
0.011221931
-8.5711321e-06
0.011218909
-7.9998702e-06
0.011216089
-7.4672781e-06
0.011213458
-6.9706024e-06
0.011211002
-6.5073235e-06
0.01120871
-6.0751362e-06
0.011206572
-5.671927e-06
0.011204576
-5.2957526e-06
0.011202713
-4.9447976e-06
0.011200974
-4.6173582e-06
0.011199351
-4.3118206e-06
0.011197836
-4.0266529e-06
0.011196422
-3.7604261e-06
0.011195101
-3.5118124e-06
0.011193868
-3.2796132e-06
0.011192717
-3.062748e-06
0.011191643
-2.860242e-06
0.01119064
-2.6712052e-06
0.011189703
-2.4947903e-06
0.011188829
-2.3301703e-06
0.011188012
-2.1765367e-06
0.01118725
-2.0330785e-06
0.011186538
-1.8990533e-06
0.011185873
-1.7737569e-06
0.011185252
-1.6566196e-06
0.011184672
-1.5471208e-06
0.01118413
-1.4448663e-06
0.011183624
-1.3494261e-06
0.011183152
-1.2604628e-06
0.011182711
-1.1774645e-06
0.0111823
-1.1000944e-06
0.011181915
-1.0277269e-06
0.011181556
-9.6015509e-07
0.01118122
-8.9672899e-07
0.011180907
-8.3756515e-07
0.011180614
-7.8194532e-07
0.01118034
-7.3040868e-07
0.011180085
-6.8185926e-07
0.011179847
-6.3735267e-07
0.011179625
-5.9495745e-07
0.011179416
-5.5664758e-07
0.011179223
-5.1916945e-07
0.011179041
-4.8629934e-07
0.011178872
-4.5260572e-07
0.011178712
-4.2505158e-07
0.011178566
-3.9433888e-07
0.011178425
-3.7307918e-07
0.0111783
-3.4536681e-07
0.011178178
-3.3413913e-07
-3.0808185e-07
0.010339525
-0.00069380425
0.010570754
-0.0010218027
0.0106063
-0.00095449451
0.010547572
-0.00084294336
0.010422317
-0.00071737081
0.010244356
-0.00057972443
0.01003942
-0.00045169202
0.0098287426
-0.00034297797
0.009625135
-0.00025616315
0.0094353014
-0.00018991982
0.0092624278
-0.00014121898
0.0091075333
-0.00010650982
0.008970154
-8.2320259e-05
0.0088489023
-6.5646276e-05
0.0087419715
-5.4127265e-05
0.0086474926
-4.604003e-05
0.008563694
-4.019425e-05
0.0084890108
-3.5792705e-05
0.0084221098
-3.2318718e-05
0.0083618777
-2.9449266e-05
0.0083073956
-2.6988593e-05
0.008257908
-2.4820343e-05
0.0082127929
-2.2875533e-05
0.0081715352
-2.111246e-05
0.0081337048
-1.9504671e-05
0.0080989387
-1.8033999e-05
0.0080669272
-1.6686683e-05
0.0080374037
-1.5451312e-05
0.0080101363
-1.4317824e-05
0.0079849215
-1.3277063e-05
0.0079615799
-1.2320619e-05
0.007939952
-1.1440775e-05
0.0079198951
-1.0630495e-05
0.0079012815
-9.883409e-06
0.007883996
-9.1937806e-06
0.0078679344
-8.5564665e-06
0.0078530022
-7.9668617e-06
0.0078391133
-7.420842e-06
0.0078261895
-6.9147046e-06
0.0078141591
-6.4451209e-06
0.0078029564
-6.0090909e-06
0.0077925214
-5.6039091e-06
0.0077827989
-5.2271378e-06
0.007773738
-4.8765776e-06
0.0077652919
-4.550247e-06
0.0077574173
-4.2463526e-06
0.0077500743
-3.9632631e-06
0.0077432259
-3.6994853e-06
0.0077368377
-3.4536365e-06
0.0077308781
-3.2244342e-06
0.0077253175
-3.0106822e-06
0.0077201287
-2.8112709e-06
0.0077152865
-2.6251813e-06
0.0077107673
-2.4514818e-06
0.0077065494
-2.2893325e-06
0.0077026124
-2.1379697e-06
0.0076989373
-1.9966926e-06
0.0076955066
-1.8648482e-06
0.0076923037
-1.7418087e-06
0.0076893132
-1.6269727e-06
0.0076865209
-1.519758e-06
0.0076839136
-1.4196132e-06
0.007681479
-1.3260341e-06
0.0076792057
-1.2385667e-06
0.007677083
-1.1568201e-06
0.0076751009
-1.0804518e-06
0.0076732501
-1.0091529e-06
0.0076715218
-9.4262992e-07
0.0076699077
-8.805794e-07
0.0076684001
-8.226872e-07
0.0076669919
-7.6863165e-07
0.0076656766
-7.1809571e-07
0.0076644481
-6.708068e-07
0.0076633008
-6.2653039e-07
0.0076622294
-5.8510482e-07
0.007661229
-5.4639362e-07
0.0076602948
-5.1029583e-07
0.0076594223
-4.7667337e-07
0.0076586073
-4.4538719e-07
0.0076578459
-4.1621554e-07
0.0076571344
-3.8898988e-07
0.0076564697
-3.6345451e-07
0.0076558488
-3.3953273e-07
0.007655269
-3.1702172e-07
0.0076547276
-2.9601218e-07
0.0076542222
-2.7630507e-07
0.0076537502
-2.581139e-07
0.0076533095
-2.4106871e-07
0.0076528976
-2.2547694e-07
0.0076525129
-2.1066841e-07
0.0076521529
-1.9719425e-07
0.0076518171
-1.8406234e-07
0.0076515026
-1.7230574e-07
0.0076512102
-1.6057796e-07
0.0076509355
-1.5045915e-07
0.0076506816
-1.4034244e-07
0.0076504404
-1.3198235e-07
0.0076502198
-1.2475189e-07
0.0076500042
-1.1919425e-07
-1.2485044e-07
0.0093061957
0.0082843931
0.0073298985
0.0064869552
0.0057695844
0.00518986
0.004738168
0.0043951901
0.0041390269
0.003949107
0.003807888
0.0037013781
0.0036190579
0.0035534117
0.0034992845
0.0034532445
0.0034130503
0.0033772575
0.0033449387
0.0033154894
0.0032885007
0.0032636804
0.0032408049
0.0032196925
0.0032001879
0.003182154
0.0031654673
0.0031500159
0.003135698
0.0031224209
0.0031101002
0.0030986594
0.003088029
0.0030781457
0.003068952
0.0030603956
0.0030524287
0.0030450078
0.003038093
0.0030316478
0.0030256386
0.0030200347
0.0030148077
0.0030099312
0.0030053811
0.0030011348
0.0029971715
0.0029934719
0.0029900182
0.0029867936
0.0029837828
0.0029809716
0.0029783465
0.0029758952
0.002973606
0.0029714681
0.0029694714
0.0029676064
0.0029658644
0.0029642373
0.0029627174
0.0029612978
0.0029599719
0.0029587336
0.002957577
0.0029564967
0.0029554875
0.0029545447
0.0029536638
0.0029528409
0.0029520721
0.002951354
0.0029506834
0.0029500572
0.0029494724
0.0029489262
0.0029484158
0.0029479389
0.0029474931
0.0029470766
0.0029466875
0.0029463241
0.0029459849
0.0029456682
0.0029453725
0.0029450963
0.002944838
0.0029445967
0.0029443709
0.00294416
0.0029439628
0.0029437789
0.002943607
0.002943447
0.002943297
0.0029431571
0.0029430253
0.0029429008
0.0029427816
)
;

boundaryField
{
    top
    {
        type            calculated;
        value           uniform 0;
    }
    inlet
    {
        type            calculated;
        value           nonuniform List<scalar> 10(-0.01 -0.01 -0.01 -0.01 -0.01 -0.01 -0.01 -0.01 -0.01 -0.01);
    }
    outlet
    {
        type            calculated;
        value           nonuniform List<scalar> 10(0.0029426575 0.0076498207 0.011178073 0.013527884 0.014701558 0.014701558 0.013527883 0.011178072 0.0076498206 0.0029426574);
    }
    bottom
    {
        type            calculated;
        value           uniform 0;
    }
    back
    {
        type            empty;
        value           nonuniform List<scalar> 0();
    }
    front
    {
        type            empty;
        value           nonuniform List<scalar> 0();
    }
}


// ************************************************************************* //
