/*--------------------------------*- C++ -*----------------------------------*\
  =========                 |
  \\      /  F ield         | OpenFOAM: The Open Source CFD Toolbox
   \\    /   O peration     | Website:  https://openfoam.org
    \\  /    A nd           | Version:  9
     \\/     M anipulation  |
\*---------------------------------------------------------------------------*/
FoamFile
{
    format      ascii;
    class       volVectorField;
    location    "12";
    object      U;
}
// * * * * * * * * * * * * * * * * * * * * * * * * * * * * * * * * * * * * * //

dimensions      [0 1 -1 0 0 0 0];

internalField   nonuniform List<vector> 
1000
(
(0.91890839 0.035821913 0)
(0.86271384 0.062195638 0)
(0.7870597 0.062510091 0)
(0.69536033 0.054550396 0)
(0.61089744 0.044531652 0)
(0.54411591 0.034015971 0)
(0.49343012 0.024187539 0)
(0.45479414 0.016144229 0)
(0.42544583 0.010265785 0)
(0.40347314 0.0063041449 0)
(0.38715767 0.0037976298 0)
(0.3749622 0.002310339 0)
(0.36566192 0.0014930158 0)
(0.35836272 0.0010851188 0)
(0.35244267 0.0009060723 0)
(0.34748201 0.00084105112 0)
(0.34320348 0.00082372321 0)
(0.33942726 0.00081930952 0)
(0.33603794 0.00081185156 0)
(0.33296115 0.00079580144 0)
(0.33014779 0.00077081222 0)
(0.32756384 0.0007387105 0)
(0.3251842 0.00070189012 0)
(0.32298902 0.00066256596 0)
(0.32096172 0.00062249925 0)
(0.31908785 0.00058295667 0)
(0.31735449 0.00054477079 0)
(0.31574996 0.00050843371 0)
(0.31426361 0.00047419181 0)
(0.31288575 0.00044212546 0)
(0.31160756 0.00041221062 0)
(0.31042101 0.00038436268 0)
(0.30931882 0.00035846539 0)
(0.30829438 0.00033438993 0)
(0.30734164 0.00031200559 0)
(0.30645515 0.00029118617 0)
(0.30562991 0.00027181313 0)
(0.30486137 0.00025377636 0)
(0.30414536 0.00023697493 0)
(0.30347807 0.00022131629 0)
(0.30285601 0.00020671593 0)
(0.30227596 0.00019309694 0)
(0.30173496 0.00018038896 0)
(0.30123028 0.00016852801 0)
(0.30075941 0.00015745524 0)
(0.30032002 0.00014711658 0)
(0.29990993 0.00013746214 0)
(0.29952716 0.00012844527 0)
(0.29916984 0.00012002284 0)
(0.29883624 0.00011215437 0)
(0.29852478 0.00010480226 0)
(0.29823396 9.7931887e-05 0)
(0.2979624 9.1511008e-05 0)
(0.29770881 8.5510348e-05 0)
(0.297472 7.9902636e-05 0)
(0.29725084 7.4662652e-05 0)
(0.29704429 6.9766893e-05 0)
(0.29685139 6.5192722e-05 0)
(0.29667121 6.091893e-05 0)
(0.29650291 5.6925035e-05 0)
(0.29634572 5.3191735e-05 0)
(0.29619889 4.9701614e-05 0)
(0.29606174 4.6438248e-05 0)
(0.29593364 4.3387607e-05 0)
(0.29581399 4.0536559e-05 0)
(0.29570223 3.7873093e-05 0)
(0.29559784 3.5386096e-05 0)
(0.29550033 3.306369e-05 0)
(0.29540923 3.0894974e-05 0)
(0.29532414 2.8868326e-05 0)
(0.29524464 2.697306e-05 0)
(0.29517037 2.519987e-05 0)
(0.29510101 2.3540512e-05 0)
(0.29503622 2.1988783e-05 0)
(0.2949757 2.0539576e-05 0)
(0.29491918 1.9187241e-05 0)
(0.29486639 1.7927447e-05 0)
(0.29481706 1.6752349e-05 0)
(0.29477098 1.5656347e-05 0)
(0.29472792 1.463063e-05 0)
(0.29468769 1.3670293e-05 0)
(0.29465012 1.276863e-05 0)
(0.29461502 1.1925204e-05 0)
(0.29458225 1.1134509e-05 0)
(0.29455163 1.0401149e-05 0)
(0.29452305 9.7153693e-06 0)
(0.29449633 9.0845017e-06 0)
(0.29447139 8.4901626e-06 0)
(0.29444805 7.9438876e-06 0)
(0.29442627 7.4196486e-06 0)
(0.29440589 6.9405601e-06 0)
(0.29438689 6.4742669e-06 0)
(0.29436911 6.0596908e-06 0)
(0.29435251 5.6569713e-06 0)
(0.29433706 5.3092362e-06 0)
(0.29432243 4.9872139e-06 0)
(0.29430914 4.704624e-06 0)
(0.29429572 4.5427112e-06 0)
(0.29428504 4.4083664e-06 0)
(0.29426894 5.0110252e-06 0)
(1.0016583 0.05381943 0)
(1.0359761 0.10128444 0)
(1.0597199 0.11073663 0)
(1.0628947 0.10592202 0)
(1.0515569 0.09622873 0)
(1.0340529 0.083934062 0)
(1.0142795 0.070327062 0)
(0.99360702 0.056981332 0)
(0.97292577 0.045107477 0)
(0.9531074 0.035236748 0)
(0.93479539 0.027401649 0)
(0.91829012 0.021387228 0)
(0.90362379 0.0168845 0)
(0.89068067 0.013569711 0)
(0.87928174 0.01114775 0)
(0.86923241 0.0093736595 0)
(0.86034423 0.0080569275 0)
(0.85244667 0.0070571257 0)
(0.84539242 0.0062752362 0)
(0.83905793 0.0056438269 0)
(0.83334127 0.0051180903 0)
(0.82815885 0.0046686728 0)
(0.82344213 0.0042764187 0)
(0.81913467 0.0039287404 0)
(0.81518962 0.0036172047 0)
(0.81156765 0.0033359708 0)
(0.80823544 0.0030808035 0)
(0.8051644 0.0028484678 0)
(0.80232979 0.0026363681 0)
(0.79971 0.0024423379 0)
(0.79728598 0.0022645189 0)
(0.79504087 0.0021012908 0)
(0.79295963 0.0019512266 0)
(0.79102881 0.0018130643 0)
(0.78923627 0.0016856842 0)
(0.7875711 0.0015680924 0)
(0.78602338 0.0014594049 0)
(0.78458411 0.0013588347 0)
(0.78324511 0.0012656796 0)
(0.78199889 0.0011793115 0)
(0.78083861 0.0010991677 0)
(0.77975799 0.0010247423 0)
(0.77875128 0.00095557974 0)
(0.77781318 0.00089126869 0)
(0.77693881 0.00083143668 0)
(0.77612367 0.00077574552 0)
(0.77536362 0.00072388747 0)
(0.7746548 0.00067558102 0)
(0.77399367 0.00063056864 0)
(0.77337694 0.00058861334 0)
(0.77280154 0.00054949694 0)
(0.77226465 0.0005130186 0)
(0.77176364 0.00047899265 0)
(0.77129606 0.00044724837 0)
(0.77085966 0.00041762807 0)
(0.77045233 0.0003899862 0)
(0.7700721 0.00036418867 0)
(0.76971716 0.00034011044 0)
(0.76938581 0.00031763572 0)
(0.76907645 0.00029665577 0)
(0.76878761 0.00027706888 0)
(0.76851792 0.00025878053 0)
(0.7682661 0.00024170209 0)
(0.76803095 0.00022575236 0)
(0.76781137 0.00021085607 0)
(0.76760633 0.00019694388 0)
(0.76741486 0.00018395227 0)
(0.76723606 0.00017182075 0)
(0.76706909 0.00016049351 0)
(0.76691316 0.00014991628 0)
(0.76676753 0.00014003784 0)
(0.76663151 0.00013081006 0)
(0.76650446 0.00012218829 0)
(0.7663858 0.00011413171 0)
(0.76627498 0.000106605 0)
(0.76617148 9.9573541e-05 0)
(0.76607482 9.3009745e-05 0)
(0.76598456 8.688073e-05 0)
(0.76590024 8.1162196e-05 0)
(0.7658215 7.5819946e-05 0)
(0.76574793 7.0832882e-05 0)
(0.76567923 6.6166254e-05 0)
(0.76561502 6.1809416e-05 0)
(0.76555508 5.7726152e-05 0)
(0.76549904 5.3923641e-05 0)
(0.76544678 5.035618e-05 0)
(0.76539789 4.7051208e-05 0)
(0.76535234 4.3938762e-05 0)
(0.76530967 4.1073193e-05 0)
(0.76526996 3.8345224e-05 0)
(0.7652327 3.5858898e-05 0)
(0.76519804 3.3447614e-05 0)
(0.76516557 3.1301702e-05 0)
(0.7651352 2.916619e-05 0)
(0.76510715 2.7353618e-05 0)
(0.76508007 2.5478934e-05 0)
(0.76505677 2.4018023e-05 0)
(0.76503086 2.2459689e-05 0)
(0.76501478 2.1500224e-05 0)
(0.76498406 2.080174e-05 0)
(1.0014244 0.026824855 0)
(1.0291272 0.062791352 0)
(1.0654292 0.077736553 0)
(1.098962 0.080597202 0)
(1.1253149 0.078285173 0)
(1.145053 0.073153901 0)
(1.1594858 0.066111279 0)
(1.1694287 0.058162062 0)
(1.1755354 0.050296752 0)
(1.1785738 0.043150705 0)
(1.1793571 0.036972822 0)
(1.178595 0.03177163 0)
(1.1768304 0.02745184 0)
(1.1744518 0.02388677 0)
(1.1717287 0.020947623 0)
(1.1688444 0.018515783 0)
(1.1659195 0.016488087 0)
(1.1630317 0.014779502 0)
(1.1602295 0.013322983 0)
(1.1575415 0.012067129 0)
(1.1549828 0.010972997 0)
(1.1525601 0.010011059 0)
(1.1502747 0.0091587465 0)
(1.1481246 0.0083986064 0)
(1.1461059 0.0077169545 0)
(1.1442134 0.0071028926 0)
(1.1424414 0.0065475952 0)
(1.1407838 0.0060437965 0)
(1.1392344 0.0055854247 0)
(1.1377869 0.0051673412 0)
(1.1364353 0.004785153 0)
(1.1351738 0.0044350731 0)
(1.1339968 0.004113816 0)
(1.1328987 0.0038185149 0)
(1.1318746 0.0035466573 0)
(1.1309195 0.0032960323 0)
(1.1300289 0.0030646873 0)
(1.1291985 0.0028508922 0)
(1.1284242 0.0026531087 0)
(1.1277022 0.0024699643 0)
(1.1270291 0.0023002302 0)
(1.1264014 0.0021428025 0)
(1.1258161 0.0019966862 0)
(1.1252703 0.0018609823 0)
(1.1247612 0.0017348758 0)
(1.1242865 0.0016176271 0)
(1.1238437 0.0015085633 0)
(1.1234307 0.0014070711 0)
(1.1230455 0.0013125908 0)
(1.1226861 0.0012246097 0)
(1.1223509 0.0011426574 0)
(1.1220381 0.0010663011 0)
(1.1217462 0.00099514137 0)
(1.1214739 0.00092880919 0)
(1.1212198 0.00086696312 0)
(1.1209827 0.0008092882 0)
(1.1207614 0.00075549349 0)
(1.1205548 0.00070531092 0)
(1.120362 0.00065849329 0)
(1.1201821 0.00061481149 0)
(1.1200142 0.00057405326 0)
(1.1198574 0.00053602031 0)
(1.1197111 0.00050052723 0)
(1.1195745 0.00046740045 0)
(1.1194469 0.00043647752 0)
(1.1193278 0.00040760773 0)
(1.1192166 0.00038065194 0)
(1.1191128 0.00035548183 0)
(1.1190159 0.00033198052 0)
(1.1189255 0.00031003849 0)
(1.118841 0.0002895552 0)
(1.1187621 0.0002704337 0)
(1.1186885 0.0002525836 0)
(1.1186197 0.00023591616 0)
(1.1185554 0.00022035082 0)
(1.1184954 0.00020580848 0)
(1.1184394 0.00019222414 0)
(1.1183871 0.00017952965 0)
(1.1183382 0.00016767794 0)
(1.1182926 0.00015660603 0)
(1.11825 0.00014628025 0)
(1.1182103 0.00013663157 0)
(1.1181731 0.0001276397 0)
(1.1181384 0.00011922016 0)
(1.1181059 0.00011138071 0)
(1.1180757 0.00010401184 0)
(1.1180473 9.7175615e-05 0)
(1.118021 9.0712355e-05 0)
(1.1179962 8.4774245e-05 0)
(1.1179734 7.9095881e-05 0)
(1.1179516 7.3980762e-05 0)
(1.1179319 6.8957732e-05 0)
(1.1179128 6.4609228e-05 0)
(1.1178955 6.0086965e-05 0)
(1.117879 5.650006e-05 0)
(1.1178635 5.2309412e-05 0)
(1.11785 4.9595726e-05 0)
(1.1178349 4.55805e-05 0)
(1.1178262 4.4060497e-05 0)
(1.1178085 4.0218469e-05 0)
(1.0007347 0.011814722 0)
(1.0178472 0.030860927 0)
(1.0462163 0.041434442 0)
(1.0799018 0.045193571 0)
(1.1132664 0.045502352 0)
(1.143782 0.044080309 0)
(1.1708941 0.041439983 0)
(1.1945687 0.037973677 0)
(1.2148582 0.034195727 0)
(1.2319652 0.030536884 0)
(1.2462683 0.027222042 0)
(1.2582339 0.024313918 0)
(1.2683135 0.021797888 0)
(1.2768875 0.019633661 0)
(1.2842554 0.01777383 0)
(1.2906479 0.016169656 0)
(1.296243 0.014775593 0)
(1.3011791 0.013552298 0)
(1.3055645 0.012467862 0)
(1.3094838 0.011497462 0)
(1.3130042 0.010622156 0)
(1.3161792 0.0098275089 0)
(1.3190526 0.0091024093 0)
(1.3216607 0.0084381785 0)
(1.3240343 0.0078279087 0)
(1.3261995 0.0072659809 0)
(1.3281786 0.0067477146 0)
(1.3299913 0.0062691199 0)
(1.3316544 0.0058267267 0)
(1.3331829 0.0054174689 0)
(1.3345896 0.0050386057 0)
(1.3358862 0.0046876676 0)
(1.3370827 0.0043624163 0)
(1.3381883 0.0040608158 0)
(1.3392108 0.0037810098 0)
(1.3401576 0.0035213031 0)
(1.3410349 0.0032801461 0)
(1.3418486 0.0030561219 0)
(1.3426038 0.0028479333 0)
(1.3433051 0.002654392 0)
(1.3439569 0.0024744075 0)
(1.3445629 0.0023069778 0)
(1.3451267 0.002151181 0)
(1.3456513 0.0020061676 0)
(1.3461398 0.0018711544 0)
(1.3465947 0.0017454196 0)
(1.3470185 0.0016282977 0)
(1.3474135 0.0015191755 0)
(1.3477816 0.0014174878 0)
(1.3481249 0.0013227129 0)
(1.3484449 0.0012343686 0)
(1.3487435 0.001152008 0)
(1.349022 0.0010752158 0)
(1.3492818 0.0010036054 0)
(1.3495242 0.0009368167 0)
(1.3497505 0.00087451545 0)
(1.3499616 0.00081639155 0)
(1.3501587 0.00076215915 0)
(1.3503427 0.000711554 0)
(1.3505145 0.00066433216 0)
(1.3506748 0.00062026761 0)
(1.3508245 0.000579149 0)
(1.3509643 0.00054077856 0)
(1.3510948 0.00050496897 0)
(1.3512167 0.00047154431 0)
(1.3513305 0.00044033991 0)
(1.3514368 0.00041120316 0)
(1.3515361 0.00038399443 0)
(1.3516287 0.00035858674 0)
(1.3517153 0.00033486342 0)
(1.3517962 0.00031271835 0)
(1.3518717 0.00029204926 0)
(1.3519422 0.00027276088 0)
(1.3520081 0.00025475608 0)
(1.3520696 0.00023794613 0)
(1.3521271 0.00022224138 0)
(1.3521807 0.00020756846 0)
(1.3522309 0.00019385086 0)
(1.3522777 0.00018103998 0)
(1.3523215 0.00016906793 0)
(1.3523623 0.00015790706 0)
(1.3524005 0.00014748006 0)
(1.352436 0.00013777592 0)
(1.3524695 0.00012868866 0)
(1.3525004 0.00012024092 0)
(1.3525296 0.00011228368 0)
(1.3525565 0.00010491565 0)
(1.3525822 9.7912356e-05 0)
(1.3526053 9.1512649e-05 0)
(1.3526281 8.5334019e-05 0)
(1.3526479 7.9850525e-05 0)
(1.3526683 7.436246e-05 0)
(1.3526849 6.9761353e-05 0)
(1.3527036 6.4772306e-05 0)
(1.3527169 6.1052421e-05 0)
(1.3527346 5.6329365e-05 0)
(1.3527444 5.360226e-05 0)
(1.3527624 4.8922858e-05 0)
(1.3527679 4.7439475e-05 0)
(1.3527883 4.2620559e-05 0)
(1.0005903 0.0034629159 0)
(1.0136865 0.00936602 0)
(1.0370283 0.013046807 0)
(1.0674202 0.014563262 0)
(1.1000315 0.014854525 0)
(1.1316428 0.01456499 0)
(1.1610745 0.013888337 0)
(1.1880674 0.012919243 0)
(1.2125205 0.011806504 0)
(1.2343939 0.010696425 0)
(1.2538077 0.0096727407 0)
(1.2710339 0.008762822 0)
(1.286401 0.0079659752 0)
(1.3002111 0.0072722174 0)
(1.3127102 0.0066688118 0)
(1.3240903 0.006141928 0)
(1.3345036 0.0056780734 0)
(1.3440716 0.0052653202 0)
(1.3528927 0.0048939325 0)
(1.3610463 0.0045563922 0)
(1.3685975 0.0042470665 0)
(1.3756004 0.0039617741 0)
(1.3821012 0.0036973982 0)
(1.3881402 0.0034515855 0)
(1.3937533 0.0032225231 0)
(1.3989728 0.0030087745 0)
(1.403828 0.0028091611 0)
(1.4083456 0.0026226797 0)
(1.4125503 0.0024484472 0)
(1.4164646 0.0022856662 0)
(1.4201095 0.0021336025 0)
(1.423504 0.0019915726 0)
(1.4266661 0.0018589355 0)
(1.4296121 0.0017350885 0)
(1.4323573 0.0016194638 0)
(1.4349159 0.0015115274 0)
(1.4373007 0.0014107776 0)
(1.4395241 0.0013167435 0)
(1.441597 0.001228984 0)
(1.4435301 0.0011470855 0)
(1.4453329 0.0010706605 0)
(1.4470143 0.00099934529 0)
(1.4485827 0.00093279921 0)
(1.4500459 0.00087070259 0)
(1.451411 0.0008127568 0)
(1.4526846 0.00075868249 0)
(1.4538731 0.00070821981 0)
(1.4549822 0.00066112678 0)
(1.4560172 0.00061717844 0)
(1.4569831 0.00057616562 0)
(1.4578847 0.00053789283 0)
(1.4587262 0.00050217693 0)
(1.4595117 0.00046884609 0)
(1.460245 0.00043773891 0)
(1.4609295 0.0004087047 0)
(1.4615685 0.00038160253 0)
(1.4621651 0.0003563021 0)
(1.4627221 0.00033268285 0)
(1.4632422 0.00031063363 0)
(1.4637278 0.00029005184 0)
(1.4641812 0.00027084135 0)
(1.4646045 0.00025291162 0)
(1.4649998 0.00023617663 0)
(1.4653689 0.00022055472 0)
(1.4657136 0.00020596915 0)
(1.4660355 0.00019234792 0)
(1.4663361 0.00017962522 0)
(1.4666168 0.00016774134 0)
(1.466879 0.00015664257 0)
(1.4671238 0.00014628024 0)
(1.4673524 0.00013660927 0)
(1.467566 0.00012758489 0)
(1.4677654 0.00011916459 0)
(1.4679516 0.00011130392 0)
(1.4681255 0.00010396348 0)
(1.468288 9.7101873e-05 0)
(1.4684397 9.0688352e-05 0)
(1.4685815 8.4690312e-05 0)
(1.4687138 7.908867e-05 0)
(1.4688375 7.3855301e-05 0)
(1.4689529 6.8980646e-05 0)
(1.4690608 6.4428428e-05 0)
(1.4691614 6.0196221e-05 0)
(1.4692556 5.6230524e-05 0)
(1.4693433 5.2545205e-05 0)
(1.4694257 4.9064558e-05 0)
(1.4695019 4.584421e-05 0)
(1.4695741 4.277212e-05 0)
(1.4696402 3.9976861e-05 0)
(1.4697038 3.7264183e-05 0)
(1.4697606 3.4881505e-05 0)
(1.4698171 3.2471308e-05 0)
(1.4698652 3.0488288e-05 0)
(1.4699164 2.8287061e-05 0)
(1.4699558 2.6693207e-05 0)
(1.4700041 2.4589191e-05 0)
(1.4700336 2.3426204e-05 0)
(1.4700824 2.1323264e-05 0)
(1.4700994 2.0689585e-05 0)
(1.4701546 1.8506414e-05 0)
(1.0005903 -0.0034629158 0)
(1.0136865 -0.0093660195 0)
(1.0370283 -0.013046806 0)
(1.0674202 -0.014563262 0)
(1.1000315 -0.014854526 0)
(1.1316428 -0.014564993 0)
(1.1610745 -0.013888341 0)
(1.1880674 -0.012919249 0)
(1.2125205 -0.011806508 0)
(1.2343939 -0.010696427 0)
(1.2538077 -0.0096727397 0)
(1.2710339 -0.0087628179 0)
(1.286401 -0.0079659691 0)
(1.3002111 -0.0072722111 0)
(1.3127102 -0.0066688073 0)
(1.3240903 -0.0061419266 0)
(1.3345036 -0.0056780755 0)
(1.3440716 -0.0052653251 0)
(1.3528927 -0.0048939384 0)
(1.3610463 -0.0045563969 0)
(1.3685975 -0.004247068 0)
(1.3756004 -0.0039617716 0)
(1.3821012 -0.0036973923 0)
(1.3881402 -0.0034515779 0)
(1.3937533 -0.0032225163 0)
(1.3989728 -0.0030087709 0)
(1.403828 -0.0028091619 0)
(1.4083456 -0.0026226846 0)
(1.4125503 -0.0024484545 0)
(1.4164646 -0.0022856731 0)
(1.4201095 -0.0021336063 0)
(1.423504 -0.0019915717 0)
(1.426666 -0.0018589302 0)
(1.4296121 -0.0017350805 0)
(1.4323573 -0.0016194561 0)
(1.4349159 -0.0015115229 0)
(1.4373007 -0.0014107779 0)
(1.4395241 -0.0013167487 0)
(1.4415971 -0.0012289921 0)
(1.4435301 -0.0011470935 0)
(1.4453329 -0.0010706649 0)
(1.4470143 -0.00099934427 0)
(1.4485827 -0.00093279271 0)
(1.4500459 -0.00087069277 0)
(1.451411 -0.00081274691 0)
(1.4526846 -0.0007586763 0)
(1.4538731 -0.0007082194 0)
(1.4549822 -0.00066113247 0)
(1.4560172 -0.00061718795 0)
(1.4569831 -0.00057617484 0)
(1.4578847 -0.00053789747 0)
(1.4587262 -0.00050217419 0)
(1.4595117 -0.00046883628 0)
(1.460245 -0.00043772492 0)
(1.4609295 -0.00040869104 0)
(1.4615685 -0.00038159409 0)
(1.4621651 -0.00035630159 0)
(1.4627222 -0.00033269052 0)
(1.4632422 -0.00031064615 0)
(1.4637278 -0.00029006343 0)
(1.4641812 -0.00027084617 0)
(1.4646045 -0.00025290575 0)
(1.4649998 -0.00023616069 0)
(1.4653689 -0.00022053291 0)
(1.4657136 -0.00020594836 0)
(1.4660355 -0.00019233561 0)
(1.4663361 -0.00017962605 0)
(1.4666168 -0.00016775596 0)
(1.466879 -0.00015666634 0)
(1.4671238 -0.00014630463 0)
(1.4673524 -0.00013662491 0)
(1.4675659 -0.00012758562 0)
(1.4677653 -0.00011915016 0)
(1.4679516 -0.00011128018 0)
(1.4681255 -0.00010393936 0)
(1.468288 -9.7088125e-05 0)
(1.4684398 -9.0690743e-05 0)
(1.4685815 -8.4708532e-05 0)
(1.4687139 -7.9116363e-05 0)
(1.4688375 -7.3881261e-05 0)
(1.4689529 -6.8993936e-05 0)
(1.4690608 -6.442239e-05 0)
(1.4691614 -6.0170812e-05 0)
(1.4692556 -5.6193027e-05 0)
(1.4693433 -5.2507798e-05 0)
(1.4694257 -4.9040192e-05 0)
(1.4695019 -4.5840392e-05 0)
(1.4695742 -4.2788039e-05 0)
(1.4696402 -4.0004872e-05 0)
(1.4697038 -3.7291952e-05 0)
(1.4697606 -3.4898884e-05 0)
(1.469817 -3.247166e-05 0)
(1.4698651 -3.0473787e-05 0)
(1.4699164 -2.8266731e-05 0)
(1.4699557 -2.6680543e-05 0)
(1.4700041 -2.4593869e-05 0)
(1.4700336 -2.3455891e-05 0)
(1.4700825 -2.1369581e-05 0)
(1.4700994 -2.0749038e-05 0)
(1.4701546 -1.8548333e-05 0)
(1.0007347 -0.011814721 0)
(1.0178472 -0.030860927 0)
(1.0462163 -0.041434442 0)
(1.0799018 -0.045193572 0)
(1.1132664 -0.045502355 0)
(1.143782 -0.044080313 0)
(1.1708941 -0.041439987 0)
(1.1945687 -0.03797368 0)
(1.2148582 -0.034195728 0)
(1.2319652 -0.030536882 0)
(1.2462683 -0.027222038 0)
(1.2582339 -0.024313914 0)
(1.2683135 -0.021797884 0)
(1.2768875 -0.019633659 0)
(1.2842554 -0.01777383 0)
(1.2906479 -0.016169658 0)
(1.296243 -0.014775596 0)
(1.3011791 -0.013552301 0)
(1.3055645 -0.012467863 0)
(1.3094838 -0.011497461 0)
(1.3130042 -0.010622154 0)
(1.3161792 -0.0098275048 0)
(1.3190526 -0.009102405 0)
(1.3216607 -0.0084381754 0)
(1.3240343 -0.0078279079 0)
(1.3261995 -0.0072659825 0)
(1.3281786 -0.0067477179 0)
(1.3299913 -0.0062691237 0)
(1.3316544 -0.0058267295 0)
(1.3331829 -0.0054174695 0)
(1.3345896 -0.0050386039 0)
(1.3358862 -0.004687664 0)
(1.3370827 -0.0043624121 0)
(1.3381883 -0.0040608127 0)
(1.3392108 -0.003781009 0)
(1.3401576 -0.0035213048 0)
(1.3410349 -0.0032801497 0)
(1.3418486 -0.003056126 0)
(1.3426038 -0.0028479362 0)
(1.3433051 -0.0026543924 0)
(1.3439569 -0.002474405 0)
(1.3445629 -0.0023069732 0)
(1.3451267 -0.0021511757 0)
(1.3456513 -0.0020061634 0)
(1.3461398 -0.001871153 0)
(1.3465947 -0.0017454212 0)
(1.3470185 -0.0016283017 0)
(1.3474135 -0.00151918 0)
(1.3477816 -0.0014174904 0)
(1.3481248 -0.0013227121 0)
(1.3484449 -0.0012343641 0)
(1.3487435 -0.0011520009 0)
(1.349022 -0.0010752081 0)
(1.3492818 -0.0010035996 0)
(1.3495242 -0.00093681486 0)
(1.3497505 -0.00087451775 0)
(1.3499617 -0.0008163969 0)
(1.3501587 -0.00076216451 0)
(1.3503427 -0.0007115563 0)
(1.3505145 -0.00066432943 0)
(1.3506748 -0.00062025936 0)
(1.3508245 -0.00057913717 0)
(1.3509643 -0.00054076599 0)
(1.3510949 -0.0005049595 0)
(1.3512167 -0.00047154112 0)
(1.3513306 -0.00044034374 0)
(1.3514368 -0.00041121272 0)
(1.3515361 -0.00038400569 0)
(1.3516288 -0.00035859519 0)
(1.3517153 -0.00033486591 0)
(1.3517962 -0.00031271388 0)
(1.3518717 -0.00029203981 0)
(1.3519422 -0.00027275001 0)
(1.3520081 -0.00025474823 0)
(1.3520696 -0.00023794537 0)
(1.3521271 -0.00022224778 0)
(1.3521808 -0.00020758039 0)
(1.3522309 -0.00019386388 0)
(1.3522777 -0.00018104843 0)
(1.3523214 -0.00016906843 0)
(1.3523622 -0.00015789805 0)
(1.3524005 -0.000147464 0)
(1.3524361 -0.00013775734 0)
(1.3524695 -0.00012867323 0)
(1.3525004 -0.00012023238 0)
(1.3525297 -0.00011228297 0)
(1.3525565 -0.00010492073 0)
(1.3525822 -9.7920338e-05 0)
(1.3526054 -9.1518279e-05 0)
(1.3526281 -8.5335429e-05 0)
(1.3526479 -7.9845364e-05 0)
(1.3526683 -7.4355026e-05 0)
(1.3526849 -6.9755288e-05 0)
(1.3527036 -6.4774101e-05 0)
(1.3527169 -6.1064809e-05 0)
(1.3527347 -5.6354194e-05 0)
(1.3527444 -5.3636236e-05 0)
(1.3527624 -4.8959087e-05 0)
(1.3527679 -4.747655e-05 0)
(1.3527882 -4.2649524e-05 0)
(1.0014244 -0.026824855 0)
(1.0291272 -0.062791353 0)
(1.0654292 -0.077736555 0)
(1.098962 -0.080597204 0)
(1.1253149 -0.078285176 0)
(1.145053 -0.073153904 0)
(1.1594858 -0.06611128 0)
(1.1694287 -0.058162061 0)
(1.1755354 -0.050296748 0)
(1.1785738 -0.043150701 0)
(1.1793571 -0.036972818 0)
(1.178595 -0.031771629 0)
(1.1768304 -0.027451841 0)
(1.1744518 -0.023886773 0)
(1.1717287 -0.020947627 0)
(1.1688444 -0.018515787 0)
(1.1659195 -0.016488087 0)
(1.1630317 -0.0147795 0)
(1.1602295 -0.013322978 0)
(1.1575415 -0.012067123 0)
(1.1549828 -0.010972993 0)
(1.1525601 -0.010011058 0)
(1.1502747 -0.0091587486 0)
(1.1481246 -0.0083986112 0)
(1.1461059 -0.0077169602 0)
(1.1442134 -0.0071028968 0)
(1.1424414 -0.0065475962 0)
(1.1407838 -0.0060437936 0)
(1.1392343 -0.0055854188 0)
(1.1377869 -0.0051673345 0)
(1.1364353 -0.0047851481 0)
(1.1351738 -0.0044350722 0)
(1.1339968 -0.0041138194 0)
(1.1328987 -0.0038185216 0)
(1.1318746 -0.0035466647 0)
(1.1309195 -0.0032960374 0)
(1.1300289 -0.0030646881 0)
(1.1291985 -0.002850888 0)
(1.1284242 -0.0026531009 0)
(1.1277022 -0.0024699557 0)
(1.1270291 -0.0023002239 0)
(1.1264014 -0.0021428011 0)
(1.1258161 -0.0019966904 0)
(1.1252703 -0.0018609905 0)
(1.1247612 -0.001734885 0)
(1.1242865 -0.0016176334 0)
(1.1238437 -0.0015085639 0)
(1.1234307 -0.001407065 0)
(1.1230455 -0.0013125796 0)
(1.1226861 -0.0012245973 0)
(1.1223509 -0.0011426484 0)
(1.1220381 -0.0010662991 0)
(1.1217463 -0.00099514718 0)
(1.1214739 -0.00092882073 0)
(1.1212198 -0.00086697583 0)
(1.1209827 -0.00080929648 0)
(1.1207613 -0.00075549333 0)
(1.1205548 -0.00070530094 0)
(1.120362 -0.00065847604 0)
(1.1201821 -0.0006147926 0)
(1.1200142 -0.00057403932 0)
(1.1198574 -0.00053601663 0)
(1.1197111 -0.00050053513 0)
(1.1195745 -0.00046741702 0)
(1.1194469 -0.00043649631 0)
(1.1193278 -0.00040762082 0)
(1.1192166 -0.00038065351 0)
(1.1191128 -0.00035547008 0)
(1.1190159 -0.00033195916 0)
(1.1189255 -0.00031001568 0)
(1.118841 -0.00028954026 0)
(1.1187622 -0.00027043364 0)
(1.1186885 -0.00025259943 0)
(1.1186197 -0.00023594239 0)
(1.1185554 -0.00022037775 0)
(1.1184954 -0.00020582498 0)
(1.1184394 -0.00019222347 0)
(1.1183871 -0.0001795114 0)
(1.1183382 -0.00016764869 0)
(1.1182926 -0.00015657685 0)
(1.11825 -0.00014626211 0)
(1.1182103 -0.00013663081 0)
(1.1181731 -0.00012765583 0)
(1.1181385 -0.00011924516 0)
(1.1181059 -0.00011140353 0)
(1.1180757 -0.00010402101 0)
(1.1180473 -9.716658e-05 0)
(1.118021 -9.0687028e-05 0)
(1.1179962 -8.4742585e-05 0)
(1.1179734 -7.9069166e-05 0)
(1.1179517 -7.3970018e-05 0)
(1.1179319 -6.8966729e-05 0)
(1.1179128 -6.4636877e-05 0)
(1.1178955 -6.0123666e-05 0)
(1.117879 -5.6537155e-05 0)
(1.1178635 -5.2334522e-05 0)
(1.11785 -4.9608274e-05 0)
(1.1178349 -4.5577448e-05 0)
(1.1178262 -4.4057146e-05 0)
(1.1178084 -4.0228884e-05 0)
(1.0016583 -0.05381943 0)
(1.0359761 -0.10128444 0)
(1.0597199 -0.11073663 0)
(1.0628947 -0.10592202 0)
(1.0515569 -0.096228731 0)
(1.0340529 -0.083934062 0)
(1.0142795 -0.070327061 0)
(0.99360702 -0.056981328 0)
(0.97292577 -0.045107473 0)
(0.9531074 -0.035236745 0)
(0.93479539 -0.027401649 0)
(0.91829012 -0.02138723 0)
(0.90362379 -0.016884505 0)
(0.89068067 -0.013569716 0)
(0.87928174 -0.011147753 0)
(0.86923241 -0.0093736591 0)
(0.86034423 -0.0080569237 0)
(0.85244667 -0.0070571196 0)
(0.84539242 -0.0062752301 0)
(0.83905794 -0.005643823 0)
(0.83334128 -0.0051180903 0)
(0.82815885 -0.0046686768 0)
(0.82344213 -0.0042764253 0)
(0.81913467 -0.0039287472 0)
(0.81518961 -0.003617209 0)
(0.81156764 -0.0033359706 0)
(0.80823543 -0.0030807986 0)
(0.8051644 -0.0028484599 0)
(0.8023298 -0.0026363601 0)
(0.79971001 -0.0024423329 0)
(0.79728599 -0.0022645192 0)
(0.79504087 -0.0021012964 0)
(0.79295963 -0.0019512357 0)
(0.7910288 -0.0018130733 0)
(0.78923626 -0.0016856896 0)
(0.78757109 -0.0015680919 0)
(0.78602337 -0.0014593984 0)
(0.78458412 -0.0013588245 0)
(0.78324512 -0.0012656694 0)
(0.78199891 -0.0011793053 0)
(0.78083863 -0.0010991681 0)
(0.779758 -0.0010247494 0)
(0.77875128 -0.00095559122 0)
(0.77781317 -0.00089128013 0)
(0.77693879 -0.00083144349 0)
(0.77612366 -0.00077574475 0)
(0.77536361 -0.00072387865 0)
(0.77465481 -0.00067556719 0)
(0.77399369 -0.00063055472 0)
(0.77337696 -0.00058860479 0)
(0.77280156 -0.00054949763 0)
(0.77226466 -0.00051302859 0)
(0.77176363 -0.00047900866 0)
(0.77129605 -0.00044726407 0)
(0.77085964 -0.00041763691 0)
(0.77045231 -0.00038998411 0)
(0.7700721 -0.00036417512 0)
(0.76971718 -0.00034008995 0)
(0.76938584 -0.00031761538 0)
(0.76907649 -0.00029664335 0)
(0.76878764 -0.00027706988 0)
(0.76851794 -0.00025879498 0)
(0.7682661 -0.00024172539 0)
(0.76803093 -0.0002257755 0)
(0.76781135 -0.00021086966 0)
(0.76760631 -0.00019694193 0)
(0.76741486 -0.00018393394 0)
(0.76723609 -0.00017179263 0)
(0.76706913 -0.00016046595 0)
(0.76691321 -0.00014990044 0)
(0.76676757 -0.00014004144 0)
(0.76663153 -0.00013083257 0)
(0.76650446 -0.00012222234 0)
(0.76638579 -0.0001141641 0)
(0.76627496 -0.00010662259 0)
(0.76617147 -9.9568994e-05 0)
(0.76607483 -9.2983418e-05 0)
(0.76598459 -8.6842871e-05 0)
(0.7659003 -8.1127085e-05 0)
(0.76582157 -7.5801238e-05 0)
(0.76574799 -7.0838267e-05 0)
(0.76567926 -6.6192778e-05 0)
(0.76561503 -6.1846265e-05 0)
(0.76555506 -5.7757886e-05 0)
(0.76549902 -5.393602e-05 0)
(0.76544677 -5.0343708e-05 0)
(0.76539791 -4.7016808e-05 0)
(0.76535238 -4.3895789e-05 0)
(0.76530973 -4.1037503e-05 0)
(0.76527001 -3.8330287e-05 0)
(0.76523274 -3.5870311e-05 0)
(0.76519805 -3.3480976e-05 0)
(0.76516553 -3.1344954e-05 0)
(0.76513515 -2.9203594e-05 0)
(0.76510708 -2.7372877e-05 0)
(0.76508002 -2.5473162e-05 0)
(0.76505673 -2.3992892e-05 0)
(0.76503084 -2.2430522e-05 0)
(0.76501479 -2.1485417e-05 0)
(0.76498405 -2.0807979e-05 0)
(0.91890839 -0.035821913 0)
(0.86271384 -0.062195639 0)
(0.7870597 -0.062510092 0)
(0.69536032 -0.054550397 0)
(0.61089744 -0.044531652 0)
(0.54411591 -0.03401597 0)
(0.49343012 -0.024187537 0)
(0.45479414 -0.016144227 0)
(0.42544583 -0.010265784 0)
(0.40347314 -0.0063041453 0)
(0.38715766 -0.0037976312 0)
(0.37496219 -0.002310341 0)
(0.36566192 -0.0014930178 0)
(0.35836271 -0.0010851198 0)
(0.35244267 -0.00090607187 0)
(0.34748201 -0.00084104928 0)
(0.34320349 -0.00082372051 0)
(0.33942727 -0.00081930698 0)
(0.33603794 -0.00081185009 0)
(0.33296115 -0.00079580166 0)
(0.33014778 -0.00077081415 0)
(0.32756384 -0.00073871341 0)
(0.32518419 -0.000701893 0)
(0.32298901 -0.00066256762 0)
(0.32096172 -0.00062249899 0)
(0.31908785 -0.0005829545 0)
(0.3173545 -0.00054476736 0)
(0.31574997 -0.00050843038 0)
(0.31426362 -0.00047418982 0)
(0.31288575 -0.00044212569 0)
(0.31160755 -0.00041221314 0)
(0.310421 -0.00038436654 0)
(0.30931881 -0.00035846923 0)
(0.30829437 -0.00033439216 0)
(0.30734164 -0.00031200529 0)
(0.30645516 -0.00029118338 0)
(0.30562992 -0.00027180875 0)
(0.30486138 -0.00025377215 0)
(0.30414537 -0.00023697245 0)
(0.30347807 -0.00022131662 0)
(0.302856 -0.00020671913 0)
(0.30227595 -0.00019310184 0)
(0.30173495 -0.00018039385 0)
(0.30123027 -0.00016853085 0)
(0.30075941 -0.00015745483 0)
(0.30032002 -0.0001471129 0)
(0.29990994 -0.00013745632 0)
(0.29952717 -0.00012843963 0)
(0.29916985 -0.00012001951 0)
(0.29883625 -0.0001121549 0)
(0.29852478 -0.00010480677 0)
(0.29823395 -9.7938704e-05 0)
(0.29796239 -9.1517689e-05 0)
(0.2977088 -8.5514015e-05 0)
(0.297472 -7.990163e-05 0)
(0.29725085 -7.4657041e-05 0)
(0.29704432 -6.975839e-05 0)
(0.29685141 -6.5184613e-05 0)
(0.29667123 -6.0914238e-05 0)
(0.29650292 -5.6925882e-05 0)
(0.29634571 -5.319829e-05 0)
(0.29619887 -4.9711481e-05 0)
(0.29606172 -4.6448045e-05 0)
(0.29593363 -4.3393229e-05 0)
(0.29581399 -4.0535572e-05 0)
(0.29570225 -3.7865537e-05 0)
(0.29559787 -3.5374267e-05 0)
(0.29550036 -3.3052396e-05 0)
(0.29540926 -3.0888501e-05 0)
(0.29532415 -2.886975e-05 0)
(0.29524463 -2.6982507e-05 0)
(0.29517036 -2.521384e-05 0)
(0.29510098 -2.3554049e-05 0)
(0.2950362 -2.1996284e-05 0)
(0.29497571 -2.0537772e-05 0)
(0.29491921 -1.9176724e-05 0)
(0.29486643 -1.7911582e-05 0)
(0.29481711 -1.6737685e-05 0)
(0.29477101 -1.5648254e-05 0)
(0.29472794 -1.4632389e-05 0)
(0.29468769 -1.36813e-05 0)
(0.2946501 -1.2784099e-05 0)
(0.29461499 -1.1938939e-05 0)
(0.29458223 -1.1140697e-05 0)
(0.29455164 -1.0396445e-05 0)
(0.29452308 -9.7017126e-06 0)
(0.29449637 -9.0658137e-06 0)
(0.29447143 -8.4742676e-06 0)
(0.29444807 -7.9356964e-06 0)
(0.29442627 -7.4229253e-06 0)
(0.29440587 -6.9531677e-06 0)
(0.29438685 -6.4922645e-06 0)
(0.29436907 -6.0751784e-06 0)
(0.29435248 -5.6648749e-06 0)
(0.29433704 -5.3054611e-06 0)
(0.29432243 -4.974037e-06 0)
(0.29430916 -4.6865784e-06 0)
(0.29429573 -4.5320853e-06 0)
(0.29428505 -4.4070673e-06 0)
(0.29426893 -5.0156176e-06 0)
)
;

boundaryField
{
    top
    {
        type            fixedValue;
        value           uniform (0 0 0);
    }
    inlet
    {
        type            fixedValue;
        value           uniform (1 0 0);
    }
    outlet
    {
        type            zeroGradient;
    }
    bottom
    {
        type            fixedValue;
        value           uniform (0 0 0);
    }
    back
    {
        type            empty;
    }
    front
    {
        type            empty;
    }
}


// ************************************************************************* //
