/*--------------------------------*- C++ -*----------------------------------*\
  =========                 |
  \\      /  F ield         | OpenFOAM: The Open Source CFD Toolbox
   \\    /   O peration     | Website:  https://openfoam.org
    \\  /    A nd           | Version:  9
     \\/     M anipulation  |
\*---------------------------------------------------------------------------*/
FoamFile
{
    format      ascii;
    class       volScalarField;
    location    "37";
    object      p;
}
// * * * * * * * * * * * * * * * * * * * * * * * * * * * * * * * * * * * * * //

dimensions      [0 2 -2 0 0 0 0];

internalField   nonuniform List<scalar> 
918
(
0.53535094
1.7768347
0.012346992
0.51028888
-0.0086538647
1.7475058
-0.91482112
1.2708572
0.56122898
-0.16730355
-0.052299255
0.70186161
1.6188808
1.3775717
-0.67306572
-0.023216692
1.1065088
-0.74895979
0.56833644
-0.066702324
1.3550679
0.50621337
0.53270068
0.5066212
0.86610297
1.3413097
1.4819899
0.0063251992
0.0014177209
-0.011860309
-0.0051888821
-0.052118572
-0.034899872
1.6237824
1.6778032
1.7014874
0.51889249
0.58882404
-0.71969409
-0.79773176
-0.79087673
-0.98671779
1.255114
1.2465444
-0.39138072
1.2814439
1.2942379
0.51786924
0.55745719
0.56959556
0.50222907
0.53472851
0.54985566
0.48046703
-0.18262329
-0.24353693
-0.12354345
-0.10439087
0.065623769
-0.045085266
-0.048720093
-0.042317558
-0.038904013
0.51745596
0.67862831
0.6570961
0.71933401
0.7521318
1.7139304
1.6773766
1.7043525
1.6511725
1.6414784
1.5987126
1.5618559
1.4166926
1.4242259
1.3746106
1.3375215
-1.1979286
-2.231857
-0.10025585
0.20139676
-0.0049571655
-0.0072569164
0.0058379899
1.0848508
1.0692623
1.1284653
1.1529664
1.2981997
-0.70353452
-0.94315318
0.57175832
0.56756826
0.55218324
0.53398286
0.58064812
0.6258629
-0.047188309
-0.043087197
-0.08216872
-0.06087279
-0.065802934
1.3370944
1.3343
0.52118088
0.52559314
0.76987814
0.82599417
0.8060506
0.3386422
0.87687058
0.89205099
1.1586526
1.3446112
1.3501264
1.3342889
1.4683064
1.4238484
1.5286064
1.5541581
0.027781303
0.0021003816
-0.0071431764
-0.026027486
-0.0072205454
0.52719613
0.52367267
0.57602796
0.52102237
0.52737929
0.53290963
0.39259922
0.67693489
0.69462592
-0.58417131
-0.63546164
-0.81981964
-0.8446649
-1.0096764
0.9290755
1.229761
1.2173982
-0.45096619
-0.33309273
-0.50090673
-0.24429775
-0.28877862
0.5244999
0.52898462
0.5246287
0.52055923
0.52166442
0.52303406
0.54739222
0.5458944
0.56187387
0.55179507
0.6924128
0.42811475
0.37224374
-0.46377922
-0.27627148
-0.44562215
-0.085511692
-0.075642281
0.091423441
0.14002135
0.069056116
0.066793555
-0.064389639
-0.051697132
-0.058939947
-0.039988942
-0.037308305
0.50758603
0.50284624
0.51915131
0.52478427
0.60870574
0.6143313
0.6398341
0.62872185
1.4878369
1.5114919
1.5561725
1.5190868
-3.6106875
-6.2764513
0.52354878
0.70106379
-0.0095442691
-0.0091928565
0.0041347362
-0.00042356189
0.0011942204
-0.0090945093
0.024040989
0.016682827
0.0088258293
0.016300605
1.0366786
1.0207129
1.2459071
1.2831787
1.1625757
1.1521605
0.57671429
0.57365332
0.58020521
0.57146138
-0.039070267
-0.040088268
-0.03610493
1.3034167
1.3244943
1.3154117
0.25351242
0.16210764
0.38158925
0.42545138
0.98814743
0.93325296
0.96754748
1.2321509
1.2651431
1.5435837
1.5555996
1.5935196
1.5902676
1.6385506
1.6308591
1.5893455
0.5202134
0.52447062
0.52711345
0.57368756
0.57809536
0.57791836
0.59631741
0.58918277
0.58931355
0.22791087
-0.1080676
0.76430343
0.76046861
0.7408407
0.73387361
1.0011104
1.0883289
1.1643919
1.1981978
1.1857159
-0.14222114
-0.16500056
0.30333165
0.27703101
0.45013869
0.48571207
0.47554224
1.4619068
1.4620876
1.5085992
1.4708007
1.4121392
1.4349944
-0.13416314
-1.2895915
-0.67941425
1.0938497
0.87933553
0.98101188
0.027690018
0.02603932
0.0048174072
1.2556748
1.3186404
0.75238329
1.0024991
1.0039181
1.310459
1.3326622
1.4051095
1.331899
1.3576005
1.3808354
1.3637189
0.8805462
0.79503781
0.81457782
1.1333823
1.184763
0.082055563
-0.032533486
-0.038193937
0.15126296
0.20885667
0.17532175
1.2871698
1.2271541
1.2966095
0.53265657
0.52509682
0.00040549618
0.00457551
0.57306792
0.54878565
-0.025108111
-0.0040824734
0.95845049
-0.41481505
0.090980785
0.58168737
0.54194126
0.55125244
-0.16027961
0.4429307
-0.041247436
0.068128362
0.0041945523
0.68473682
0.53940265
0.50508443
-0.0078156088
-0.029841003
-0.038223025
-0.38217393
0.53983398
0.51830919
0.53944415
0.52152031
0.55570875
-0.021569709
-0.015421047
-0.005973228
-0.042939567
-0.039363238
-0.050446713
0.53395767
0.59356815
-0.31972029
0.55747495
0.54730224
0.56246913
0.53001287
0.58590115
0.54085951
-0.0088959643
-0.0097781412
-0.0018781338
0.27781322
0.44035437
1.2655818
1.3985703
1.2969514
0.91286408
0.58802725
1.1273908
1.2203851
1.0918897
1.2578863
1.225391
1.2695612
0.184902
-0.039510369
0.20881194
0.095833807
0.57620227
0.57948425
0.53678691
0.52985165
0.55904869
0.53153513
0.56177377
0.56770699
0.56608234
0.58098058
-0.089760451
-0.12275375
-0.15558107
-0.24396249
0.45722554
0.73410225
0.35605675
0.39552367
0.19416162
-0.033761035
-0.04037347
-0.038516735
-0.051975103
0.035291184
-0.026521186
0.088868874
0.083962334
0.058820034
0.0086764524
0.0014506833
-0.023858114
0.017042352
0.63781655
0.62528052
0.68015889
0.72503817
0.53508592
0.52368196
0.51231058
0.53838716
0.5158331
0.44857254
0.50749452
0.46822253
-0.011175483
-0.011804447
-0.012701985
-0.016050254
0.001865682
-0.014684365
-0.021376956
-0.018144414
-0.020457567
-0.027481683
-0.037133285
-0.038216809
-0.33652496
-0.50194922
1.2013166
1.0595883
0.24404093
0.51465868
0.51660794
0.50168724
0.54717988
0.53509884
0.53709461
0.53670037
0.53303851
0.54626762
0.55292636
0.59066806
0.59919182
-0.23435375
-0.45400371
-0.20932106
-0.3020289
0.45664624
1.0019356
0.44979205
0.34915421
0.35126749
0.80821598
1.5154903
1.3644176
1.3364698
1.3497422
-0.063662288
0.40040461
0.12295741
0.79675223
1.0327405
1.2375639
1.2922133
1.2955818
1.2660439
1.2068603
0.033943386
1.054196
-0.17117454
-0.12198595
0.26254189
0.022389155
1.2761273
1.1904309
1.1833567
1.2584617
1.2900097
1.2172789
1.1828808
1.1938495
1.2405213
1.2389845
0.91796941
0.32564038
0.21821615
0.18082815
1.1255049
0.9773687
1.0696245
0.85090011
0.56340037
0.5840462
0.56794143
0.50680009
0.53127081
0.50673585
0.55934881
0.59096624
0.57418144
0.55060744
0.57244
0.54666609
-0.080055996
-0.083802638
-0.040624523
-0.2620989
-0.23638182
-0.34552698
-0.1231613
0.10702725
0.073082775
0.28925059
0.42465057
0.058168436
-0.14470099
-0.080463872
-0.012704493
0.20530765
0.25603154
0.13109548
0.19181731
0.18211986
0.15621075
0.29858158
0.30257441
-0.0051331959
0.00081456114
-0.023651714
-0.020755974
0.054186267
0.16238586
0.16442945
0.021869726
0.010760439
-0.033616761
-0.035876504
0.021248055
-0.012176801
0.0086706553
0.030895442
-0.01885744
0.013928871
0.011397075
0.0053330009
0.028434381
0.024420584
0.61423135
0.6154764
0.60850721
0.75799356
0.74882927
0.78137803
0.75986187
0.53471567
0.53063863
0.52911754
0.56017002
0.53959526
0.56805236
0.59247076
0.64165386
0.65565011
0.59283139
0.57125236
0.62395589
0.58275222
0.57251882
0.58383888
0.59032116
0.52501755
0.53552531
-0.024246074
-0.002661486
0.015424321
-0.060021236
0.0013073955
-0.018442964
0.0077016563
0.043178507
-0.0028853326
0.018778785
0.010853291
-0.016572516
-0.0078792349
-0.1511486
0.016899032
-0.39865008
-0.42848789
-0.53375598
1.0949237
1.2538783
0.9934739
0.71178342
0.74642447
1.0321702
1.1744085
0.68638733
0.81859693
0.93177846
0.89640268
1.120906
0.54038372
0.53122128
0.54301138
0.51760955
0.55069278
-0.028225525
0.20594257
0.11029432
0.31103567
0.57305796
0.62353874
0.41145564
0.35230136
0.50775938
0.40613264
1.0065382
1.0387501
0.89841623
0.95935254
0.93855125
0.61125215
0.84286331
0.98001973
0.85453458
0.90570069
0.94421772
0.89670574
0.95296992
0.84738761
0.73064265
0.7626178
0.54347071
0.62758254
0.57736069
0.52600727
0.67182729
0.62609967
0.67150545
0.64879277
0.71524532
0.81188313
0.79392473
0.8026521
0.84905468
0.70120981
0.62285623
0.64631291
0.72190476
0.59144778
0.61434347
0.65749605
0.43355369
0.44691318
0.32926897
0.24391424
0.31324707
0.1582693
0.13435656
0.17427709
0.48059001
-0.13457798
-0.13195075
-0.49937183
0.9224366
1.5317845
1.1918869
1.172742
1.2916222
1.2632623
1.2568368
1.3062897
1.3077173
1.1204237
1.1671111
1.159154
1.1153604
1.1605617
1.2460763
1.2257407
0.99214574
0.66231658
0.63444498
0.56299189
0.26508389
0.36644637
0.77747535
0.61576009
0.44852021
0.42252306
0.75229081
0.48407163
0.62147154
0.768598
0.58409259
0.47684246
0.94042729
1.06705
1.0569311
1.0053342
0.84472923
0.90009986
0.98220188
1.054676
1.0903834
1.1650674
0.53312211
0.55063639
0.54387926
0.52311831
0.54933718
0.56323459
0.56290234
0.55388257
0.55984663
0.5659595
0.57668918
-0.048648324
-0.034832391
-0.056900431
-0.065817356
-0.013650334
-0.035558866
0.041630814
0.016255817
-5.9789282e-05
0.0071776221
-0.033400079
-0.048313652
-0.028534023
-0.01104474
0.16326616
0.19708961
0.14264243
0.12847079
0.32990634
0.47155648
0.52741174
0.44320493
0.26034822
0.28576828
0.35400577
0.046384638
0.061980116
0.075274492
0.096227493
0.10154611
-0.025512959
-0.030786198
-0.022864154
-0.017118807
-0.0036025851
-0.026209119
-0.033321089
-0.024665952
-0.024236951
-0.030188449
-0.037347349
0.53345976
0.54533047
0.59059329
0.55107962
0.55072626
0.58822487
0.56731916
0.58353088
0.59072707
0.61476457
0.59290166
0.62548398
0.6203052
-0.013792515
-0.019042925
-0.036541629
-0.023273101
-0.019271201
-0.018160685
-0.025656534
0.25479468
0.10591212
0.14214322
0.018412967
-0.2322582
-0.12301112
0.63789763
0.7758405
0.77804895
0.99237155
0.77881281
0.73253162
0.88158611
0.99974685
0.42215599
0.65485787
0.46664845
1.1188889
1.0253813
1.1975543
0.74278739
0.44520987
0.69939689
0.78617667
0.47488149
0.58801786
0.54245943
0.35666068
0.42133848
0.47374657
0.65198076
0.45688783
0.50673476
0.43630689
0.45108718
0.51682107
0.53229269
0.63942943
0.70062029
0.36427825
0.34005557
0.26852488
1.0226205
1.0428877
1.075639
1.0698544
1.0943852
0.86976216
0.86081245
0.90199564
0.89437829
0.86576382
-0.32364135
-0.41261545
-0.76420774
-0.22138234
0.39730963
0.97670849
0.85099666
1.4049329
1.1370586
1.3203979
1.2577723
1.2095862
1.1211468
1.1312793
1.2010964
0.583337
0.78864288
0.76592547
0.71568511
0.51015072
0.41065015
1.0455969
1.0207056
1.0996088
1.1326886
1.0669187
1.1458774
0.55374297
0.5713866
0.5501027
0.56298041
0.54301287
0.55419691
0.087996971
0.033264992
0.14456984
0.1243866
0.044670231
0.02003273
-0.006155835
-0.002221988
-0.018657954
-0.013073844
0.00013895033
0.007892321
0.28300051
0.24276882
0.035193743
0.15099956
-0.04619942
-0.13992004
-0.20306768
-0.0035031417
0.13985872
0.1499101
0.55186801
0.83557927
0.68030037
0.78968039
0.61450597
0.72612666
0.72918873
0.69275772
0.73146271
0.60214745
0.61300676
0.66454672
-0.13142742
0.19935904
1.4595769
1.4027074
1.0131874
0.86713634
0.80440414
1.111724
1.0167306
0.84886147
0.95705945
1.0772542
1.0580533
0.43178065
0.3984134
0.78617181
0.92220992
0.52355877
0.40708219
0.37045214
0.54968511
0.60246338
)
;

boundaryField
{
    wall-4
    {
        type            zeroGradient;
    }
    velocity-inlet-5
    {
        type            zeroGradient;
    }
    velocity-inlet-6
    {
        type            zeroGradient;
    }
    pressure-outlet-7
    {
        type            fixedValue;
        value           uniform 0;
    }
    wall-8
    {
        type            zeroGradient;
    }
    frontAndBackPlanes
    {
        type            empty;
    }
}


// ************************************************************************* //
