/*--------------------------------*- C++ -*----------------------------------*\
  =========                 |
  \\      /  F ield         | OpenFOAM: The Open Source CFD Toolbox
   \\    /   O peration     | Website:  https://openfoam.org
    \\  /    A nd           | Version:  9
     \\/     M anipulation  |
\*---------------------------------------------------------------------------*/
FoamFile
{
    format      ascii;
    class       surfaceScalarField;
    location    "37";
    object      phi;
}
// * * * * * * * * * * * * * * * * * * * * * * * * * * * * * * * * * * * * * //

dimensions      [0 3 -1 0 0 0 0];

internalField   nonuniform List<scalar> 
1300
(
1.7582594
5.6264299
-5.1006814
1.7582594
-8.5057396
5.6264299
-5.5149683
5.5149683
-0.97599302
0.97599302
3.7325087
3.6521806
-4.235047
4.235047
-3.5915251
3.5915251
-0.99063093
0.99063093
-5.2377212
5.2377212
-5.0575112
5.0575112
4.7349753
-4.7349752
-6.9120921
6.9120921
-1.007149
1.007149
-5.2689719
5.2689719
1.497934
-1.497934
-3.5441836
3.5441836
-0.085296725
0.085296722
-0.57085972
5.142334
1.1873996
1.1873996
-0.9818695
0.9818695
-4.8607925
4.8607925
6.2141494
-6.2141494
7.9004673
-7.9004673
-2.7997859
-3.3738766
1.9677155
-12.513072
-6.5380241
-6.5380241
-8.4382644
8.4382644
-2.8118344
2.8145956
1.4525796
-1.4525796
-1.7840658
1.7840658
-5.3936246
-0.12134373
-5.3936246
5.6351588
-0.12019058
5.6351588
-1.0715441
0.095551096
-1.0715441
4.6961703
-4.6961703
0.83637185
0.13962118
0.83637186
1.2642654
-1.2642654
-3.7393163
7.471825
3.645373
-3.0538753
8.1962093
-3.3930757
7.0452563
-6.5282104
6.5282104
-4.5060318
0.27098479
-4.5060318
4.0229228
0.21212425
4.0229228
-7.440701
7.440701
-3.6486582
0.057133101
-3.6486582
3.5614599
0.030065187
3.5614599
2.0821988
-2.0821988
-0.97474154
-0.015889362
-0.97474154
1.0036009
-0.012969944
1.0036009
0.35898224
5.2674477
-5.9854123
8.8000079
-5.2674477
0.029726503
5.2000869
0.037634342
5.2000869
-5.0937715
0.036260246
-5.0937715
5.01531
0.042201145
5.01531
4.8279615
-0.092986335
4.8279615
-4.8397629
0.1047876
-4.8397628
-3.9977349
-4.514149
-7.0844259
0.17233385
-7.0844259
-0.93658701
-0.070561972
-0.93658701
1.0924317
-0.085282708
1.0924317
-4.1069813
4.1069813
-5.5971219
0.32815003
-5.5971219
1.3676239
0.13031019
1.3676239
2.009427
2.5620473
3.7676864
-3.7676864
2.2697523
-3.535946
-0.0082375615
-3.535946
-3.6071351
-4.2933322
3.6071351
-0.062951529
-0.46966766
0.38437096
-0.46966765
1.2420251
-0.05462546
1.2420251
1.0039784
-0.00037749395
-1.0039784
0.022108971
3.3353999
-3.3353999
0.55970143
0.42216811
0.55970145
-5.5718592
5.5718592
4.956574
0.058735978
-4.956574
0.095781554
6.1534723
0.060677109
6.1534723
-6.1926637
-0.021485713
-6.1926637
3.4260682
-6.7999448
-3.4903964
6.7283713
0.18372077
-6.7283713
0.19034721
1.5660353
-0.11345574
1.5660353
-1.0838268
1.0838268
-1.4139912
-0.038588385
-1.4139912
-2.1108577
0.32679189
-2.1108577
1.5191899
0.26487591
1.5191899
-5.1561311
-0.23749349
-5.1561311
-5.6829792
0.085857254
5.6829792
-0.047820358
1.4127993
-1.4127993
-1.1264471
0.054902985
-1.1264471
-4.8968246
-0.25930655
4.8968246
-0.20065426
-4.56309
-0.13308028
-4.56309
-1.3293779
-0.084613275
1.3293779
-0.065112533
1.2708958
-0.028870661
-1.2708958
0.0066304266
-3.0505804
5.6126277
-3.3963706
7.0417436
-6.1521131
-0.37609731
-6.152113
6.8631239
-0.3349135
6.863124
4.9216618
0.34731016
-4.9216617
0.41562998
3.8579259
0.16499689
3.8579259
-7.4012973
-0.039403721
-7.4012973
7.4596561
-0.018955044
7.4596561
3.7369549
0.12097102
-3.7369549
0.088296765
3.5454259
0.016034075
3.5454259
2.2941568
-0.21195805
2.2941568
-1.8851825
-0.19701628
-1.8851825
1.0261342
-1.0261342
1.0121797
0.013954475
-1.0121797
0.0374382
-11.148734
11.127248
-0.035764202
-11.112969
5.1643227
5.1643227
4.0428488
0.78511252
4.0428488
-5.0348618
0.195099
-5.0348618
3.4808215
-6.971218
3.8382648
-7.8359997
5.0632072
-17.576279
4.6923908
-9.2065398
7.3259935
-7.3259935
7.214592
0.1114015
-7.214592
0.13016605
-0.8501928
-0.086394198
-0.8501928
-3.4873152
-0.6196661
-3.4873152
4.7706762
-0.66369487
4.7706762
-1.2847341
1.2847341
-1.3095682
0.024834058
1.3095681
0.058055718
3.5390616
0.0063643138
-3.5390616
0.0031155722
0.67024401
0.16612785
-0.670244
0.20057635
3.7781349
-0.44273501
3.7781349
-2.8734258
-0.46197407
-2.8734258
-0.71561327
-0.13457953
0.71561324
-0.15591179
-5.8183782
0.24651904
-5.8183782
-11.213439
0.10046985
-11.175805
-6.0921938
-6.0921938
2.3460705
11.146078
-1.7164797
-0.16870285
1.7164797
-0.15044436
1.2311638
0.0535703
-1.2311638
0.14733709
-1.036304
0.010169841
1.036304
0.047522751
-2.530543
0.4196853
-2.530543
-1.2388651
1.2388651
-1.3316513
0.092786175
1.3316512
0.18753869
1.7128525
-0.30005317
1.7128525
1.1259428
-0.033511083
-1.1259428
-0.00050426788
-4.3740933
-0.18899673
-4.3740933
7.1243228
-0.26119883
7.1243228
-2.5666031
-0.30682269
2.5666031
-0.27244626
-0.035177048
11.162425
-5.1291457
0.035374186
5.1291457
-11.223102
11.258476
-3.1026459
0.57210295
3.102646
0.94020278
5.301774
0.27008518
-5.301774
0.26691216
7.4043985
0.055257626
-7.4043985
0.078405013
-2.977864
-0.50945119
-2.9778641
-5.5145987
-0.63751436
5.5145986
-0.74392248
-11.475219
-0.19681268
11.672031
-11.433018
6.0151909
0.13828131
-6.0151909
11.396757
-1.2533698
-0.15942953
1.2533698
-0.014504682
2.0564627
-0.3436102
2.0564627
4.1481955
-0.37006059
-4.1481955
-0.22589776
-7.2849587
-0.11633854
7.2849587
-0.16063586
-2.4948376
-0.48302644
2.4948376
-0.43837488
-5.3378631
5.2832377
2.8583462
-3.3191982
-3.4807465
-7.6125305
2.5409581
3.0716696
4.8107105
-11.032056
-6.5442231
-10.841709
7.2674627
-7.0005506
-9.461494
9.3685076
10.430924
-10.564004
-7.2901168
7.3481725
8.7351601
-8.8002726
3.7927376
3.6790873
10.844939
-10.573954
-16.813624
16.437527
10.30791
-10.250776
16.98838
-17.027783
-19.244807
19.300065
-7.2876111
7.2717217
-9.3882524
9.1912361
-9.7148593
9.442413
-3.6244534
-4.2115462
14.237301
-14.064967
11.723601
-11.731838
-11.466886
11.795036
4.0452725
1.2379652
4.0164019
-3.6127295
7.4054671
-3.4325268
6.290873
3.5791294
-7.2035829
3.3920886
-6.8728351
6.0100899
5.7135109
-5.9471384
-1.665392
-8.2059553
8.0924995
-7.431392
7.4789148
11.899467
-12.020811
-3.6101968
7.2892842
-3.4315468
6.5032164
-3.6826209
-3.6074959
3.5523107
1.2583998
8.7755478
5.461753
-8.9592686
-1.8824405
-11.044887
10.674826
-11.610443
11.148469
-0.44250747
5.7851102
-5.3426026
4.4182851
-1.480276
7.2653862
5.7871869
5.9822859
5.8663462
-5.596261
1.1342044
-6.4768069
-6.3810254
-2.7524152
2.8073182
2.7841381
-2.6445169
7.9549784
2.4759457
7.7543241
-7.5459751
-3.0180293
-7.7349719
4.3901838
2.9579887
4.4150179
5.2571991
3.477961
5.1725858
5.8522361
-5.9663652
0.11412904
-5.4770393
11.329275
1.322919
-9.0845352
-7.8261354
6.8877232
3.957216
7.0998474
-7.4531237
-3.1208306
-7.0374937
-10.242995
-6.5706294
-10.880509
10.96176
5.4757668
10.626847
-12.875724
12.715088
6.719026
3.5888835
6.7490913
-6.8391213
-3.4116552
-6.7508245
13.278597
-3.1872881
-10.091309
-11.122868
-8.1219393
11.141823
5.8465568
11.860268
7.4397963
11.938673
4.8667014
8.4118953
-10.713258
2.5913189
-4.4811071
-2.806504
-4.4436688
4.4422567
2.8294651
4.4292867
-5.5075854
-3.8806669
-5.6762883
-5.5387423
-4.176117
5.7507004
3.4405357
-5.7702054
-5.8402378
6.0770281
3.365385
4.4010956
-10.945319
4.8054441
-9.0169904
-9.9686388
-4.0963281
-9.8384728
4.525136
3.1122365
-7.6373725
-2.6784468
11.216674
-5.5031631
9.5512819
-7.2349101
-4.4969283
-7.2317945
-8.961313
-2.5055731
-8.8754557
-9.5473615
9.0379103
-9.9277316
9.2640367
13.998893
-6.8330494
-7.1658432
-4.8833158
-3.9169568
4.8766854
-0.86028356
-7.2049311
7.3190602
0.20053604
6.4914091
7.7293742
6.8690907
-4.4727953
-2.9585967
-4.3254582
4.5134372
2.9654776
4.5236071
9.0125774
2.8868898
8.8923868
-8.4511436
-3.5696674
-8.6886371
9.530108
-9.2033161
2.862097
-2.9966765
7.3179644
3.8305048
-6.8752293
-4.1696574
9.4046089
-4.4104136
-4.9941952
-12.065679
10.604066
1.461614
-4.8002934
-0.38200828
-0.29671164
-5.5616361
-3.8998575
5.4568487
0.52543714
11.129503
7.2296447
-5.5159618
5.7624808
6.1560696
6.2148056
-0.16621984
6.0585871
-5.4864841
7.1958141
-3.6164974
-3.5793167
6.9346997
-7.1940062
-1.7539375
-7.6742682
5.9203308
0.56031788
2.0353346
-1.6509636
-1.9901088
-0.76230634
-1.990613
1.6625066
1.1216315
1.8286344
0.996367
1.8109512
-3.5924028
0.73801458
2.8543882
-2.5960357
-1.9065023
-5.1665679
-2.0018327
7.1684006
7.71157
2.9632562
-7.4856722
-0.24929963
2.6749742
-2.7602569
-0.73382715
-4.4327407
3.033005
-3.7668321
-5.8972017
-2.4964216
8.3936233
-3.6934813
-0.63197686
3.639911
0.77510695
-4.8096672
-3.3962881
4.8482556
0.32433025
-5.4171395
11.052762
-5.635622
-8.3757363
4.4905037
6.8387717
7.4484924
-9.1699345
4.7954291
4.3745054
-2.3311628
5.910752
1.1890954
6.0757489
-9.1698192
6.0489885
7.8088435
3.9861927
-8.1561537
1.11866
-8.0511591
10.661003
-9.2793477
-1.3816556
5.3126642
5.3483392
7.6166192
6.3822737
-6.0546729
13.671292
-1.4174813
-7.8618663
9.4686404
-5.4824478
6.193736
-11.676184
-12.57601
4.7141432
-9.8731381
11.922737
-2.0495988
-3.8505078
-9.0252158
13.723646
-1.3404323
-12.383213
9.2864146
-5.5737669
-5.6475939
11.221361
-8.761055
9.059249
-2.5963596
-6.4628893
-10.850263
-6.1775206
10.966601
1.7484867
-11.830285
14.421604
-3.4183896
5.8091926
0.93989868
5.8252267
4.1932874
-6.7908928
2.5976055
4.5677676
-7.1641272
2.6324453
-9.4233381
-7.201021
13.27076
-6.0697391
-11.297349
-10.230124
-1.0672253
2.7932856
11.628318
-10.233082
8.0185216
2.2145603
3.7537331
0.76987396
-3.7676876
-0.67598129
0.54041375
6.7785671
-7.3189808
4.9697005
4.969323
5.054483
1.724084
5.1456732
2.9468263
-4.9952289
-0.68105944
-6.5221035
2.3459865
-3.0815678
-6.4806568
8.8266433
-7.1643001
0.68364327
-4.3723981
-6.1686952
10.541093
-7.1789021
5.2541249
5.7986366
8.2196025
-8.7564149
2.5877197
-4.3867282
-4.3696867
4.5765804
-7.6581482
3.3816751
5.4449682
6.7470601
0.90682224
6.5265393
6.7442208
-9.6387758
0.62178542
12.205974
-10.323533
2.6512884
9.287385
-10.66981
0.43968625
-9.3987865
1.2561868
-6.7593499
-6.3811857
6.7651674
-9.2707406
-4.9110162
8.201098
0.6912888
-8.1532777
-0.72217807
-6.5170826
-3.0302789
-7.0001091
-3.2984111
-6.6293205
-9.3530839
-1.7889237
-7.5641602
7.2489866
-7.2232996
-3.6572096
7.967222
1.2968147
-8.0063641
7.8469345
-8.0588448
7.7152346
0.28143189
7.0376283
7.1505226
3.2335658
-4.7064655
7.9400313
-7.0537023
9.9405921
-11.998159
4.9444564
5.821067
-9.3907344
-6.1770916
5.4601886
4.0699193
5.7250645
9.3756253
-10.788475
1.4128495
-11.03934
12.628995
-1.5896552
-17.091957
6.0526178
-7.7163319
2.6839508
0.17814619
2.5975566
0.81394094
2.9050814
-3.7190224
-2.1827355
-2.3386473
-3.714067
-5.5879041
9.3019712
1.8244089
-5.2637728
3.439364
-4.7477808
6.5721897
0.066120785
-5.3298936
7.1555733
-4.2504918
7.3337195
-4.68166
2.6520596
5.154117
9.0439606
-3.8898435
6.7578112
-2.9273064
2.9997503
-6.8895938
-2.5881538
-4.9112916
7.7407566
-5.6298017
6.313445
-0.4217759
6.7352208
-5.812893
1.4024794
-0.75840998
4.210913
4.233022
6.9628995
-5.2388155
4.9208895
-7.8481959
-1.9687043
-6.9413736
-1.4964054
-0.42138891
-5.2299468
5.6513358
6.7346459
-7.1560348
-5.3200471
9.7157209
-4.3956738
8.0450908
-5.510853
-2.5342378
-4.5431272
-4.660189
4.1234418
1.9351453
9.980236
0.28078973
-5.7916428
-5.2056943
-4.2654915
4.3519106
2.8439035
-2.1844085
3.6460224
2.48112
-0.44578548
0.65043427
1.1782001
2.2804531
-1.6300189
0.27218715
2.008266
-1.3787764
1.9808684
0.69410584
-1.9473574
-0.043255679
-1.5103097
4.5433147
1.3440785
-2.46571
0.83569116
1.4068553
-5.0233527
7.2395696
-3.881348
-3.3582216
8.646425
1.5229663
-5.4043142
6.1513019
-5.590984
3.3022563
-5.3040889
-2.102058
-7.6930421
-5.2170963
-4.1786127
7.6179767
-5.1233585
8.0866147
1.7207751
-7.8373151
9.5580902
-4.8484874
2.3520659
-4.1424996
4.8366054
-1.7237023
-2.4187973
4.2954069
4.0982163
-4.3156485
-0.11709222
-0.020241537
3.1546889
-3.1749304
-0.61214323
-3.208179
-7.609715
7.9340453
-3.8082773
8.6037064
4.131754
-3.5903917
12.194098
3.1966963
-6.787088
-5.1790399
-5.8110168
-2.4125826
5.0359098
-0.81683615
-5.9339883
-7.2797255
5.8130173
0.26273166
-9.2499805
10.35958
-1.1095996
-5.2927644
-0.75622417
6.0688884
-7.8070584
0.64293129
-5.1746131
5.184967
6.3740625
6.6367942
-12.182082
-0.20113117
-6.7063154
1.3664398
-8.0727552
6.714779
-3.8367825
8.5509256
-11.131324
7.4741146
-9.8345094
7.16927
-0.90348515
7.1466228
-4.5490173
2.9446857
-9.1222063
-7.3737196
7.2378556
-3.6489721
8.1777543
-4.1539991
12.331753
-7.5723886
7.0234995
5.3082539
-1.3712273
-5.8605673
-6.9945232
5.6232959
0.028976293
5.8542029
7.9301017
-4.9832753
7.2490423
4.2897728
-8.6765011
-3.3683753
-11.911595
3.2350936
-6.112958
-3.2009221
6.4360157
5.0186804
5.7885544
2.066329
-5.1125731
8.3559381
-9.4231634
-2.2861989
-4.0949868
6.9229552
-1.2996593
4.333323
-8.4283098
-2.4260269
5.824524
-0.68611713
-5.1384068
1.0085255
-5.9195416
2.4270948
-8.3466365
6.8436457
-7.5658238
2.3412908
-10.057623
-5.6650733
-5.679578
-2.4192845
-5.6395603
-7.9599388
5.5406543
-1.9073211
5.9396134
-8.9113613
8.2252441
-3.7176334
9.2582877
-5.8644926
-1.1356164
6.3028676
1.412367
10.670655
0.47396273
-6.6510545
-2.8768776
5.5688982
-2.6920207
1.475033
-4.755984
0.81291415
3.4933479
5.153077
-9.4136786
0.022944158
-6.6281101
-4.1607289
8.2306483
5.554992
12.289638
1.5011631
9.3774863
-1.146838
10.878649
4.5782265
4.7657652
-4.2055697
5.6184193
1.4457661
6.3902224
-0.86163354
3.5136931
1.7359231
1.6653611
1.0948958
2.6373659
1.5956561
4.0398454
0.32082305
-2.0178242
4.6764718
-8.9419633
-1.1151711
-8.1568506
1.211657
5.8457271
-4.6340701
4.2107167
-1.3668132
1.5186959
-0.14861485
-2.0003809
2.1489961
-3.7279319
-2.4461664
-0.43790039
-2.1219739
2.9576651
2.4213408
-2.5197647
-1.2081672
0.68706236
-5.9041587
4.6170265
-4.7341187
-0.63590232
8.9221879
-3.6700346
0.49510423
-1.3179687
-2.7130747
-3.4753811
3.5186367
11.572321
0.62177674
5.9366994
8.555822
5.159534
0.17625861
4.8669178
-6.9165165
-4.5564203
-7.1176476
-0.40286857
5.6660199
2.2009915
9.4273267
7.5092454
6.2095861
-2.2187237
-11.641887
8.3895702
-2.7711509
6.799915
-1.6615081
-6.6851285
6.7829694
3.1576226
-7.4742582
-0.09156563
-6.7766941
-9.5478451
-0.49794799
8.7231921
-10.172707
9.0370903
6.0068114
1.5573489
-4.8194791
-0.8600989
4.726693
0.039072224
10.917722
-1.1900615
-7.02378
8.2138419
-4.6556655
3.5404945
0.91388874
2.7321338
3.0628847
1.6960717
-5.3277085
-9.9617789
-3.0452481
-1.9781046
-6.4034697
0.76493093
-3.1862717
6.2574108
-2.7169163
3.7231729
5.4969255
7.0156214
-2.0049752
-5.1510596
6.4006489
-2.677476
4.3381454
)
;

boundaryField
{
    wall-4
    {
        type            calculated;
        value           uniform 0;
    }
    velocity-inlet-5
    {
        type            calculated;
        value           nonuniform List<scalar> 8(-1.7582594 -1.7582594 -7.3846893 -4.5714743 -7.3846893 -6.446951 -4.5714743 -6.446951);
    }
    velocity-inlet-6
    {
        type            calculated;
        value           uniform -5.6264299;
    }
    pressure-outlet-7
    {
        type            calculated;
        value           nonuniform List<scalar> 8(5.1006814 8.5057396 6.1736625 10.545357 8.5118838 6.9164646 7.3190864 9.755598);
    }
    wall-8
    {
        type            calculated;
        value           uniform 0;
    }
    frontAndBackPlanes
    {
        type            empty;
        value           nonuniform List<scalar> 0();
    }
}


// ************************************************************************* //
