/*--------------------------------*- C++ -*----------------------------------*\
  =========                 |
  \\      /  F ield         | OpenFOAM: The Open Source CFD Toolbox
   \\    /   O peration     | Website:  https://openfoam.org
    \\  /    A nd           | Version:  9
     \\/     M anipulation  |
\*---------------------------------------------------------------------------*/
FoamFile
{
    format      ascii;
    class       volVectorField;
    location    "37";
    object      U;
}
// * * * * * * * * * * * * * * * * * * * * * * * * * * * * * * * * * * * * * //

dimensions      [0 1 -1 0 0 0 0];

internalField   nonuniform List<vector> 
918
(
(0.40905669 -0.00019409164 0)
(0.0090456773 2.9576278 0)
(-0.008026232 1.3490336 0)
(0.29030663 -0.0084237404 0)
(-0.011854603 2.2613833 4.0234977e-20)
(-0.01174399 2.9485785 -3.4284535e-18)
(0.94059563 1.4814435 7.7099929e-19)
(0.29445225 0.18066628 -2.7479105e-20)
(1.9883478 0.003773062 0)
(0.026119644 1.2025772 0)
(0.0022451896 0.98113398 0)
(0.19024885 -0.0075144819 0)
(0.01283625 2.9163553 0)
(0.013696961 2.7911168 0)
(0.09978888 3.1704255 3.1660206e-19)
(-0.010566489 2.1275242 1.2856445e-20)
(0.25053407 0.05317494 1.7039872e-18)
(0.20943958 1.6498395 5.8400544e-19)
(0.37186966 0.0057622343 0)
(-0.0080131007 0.95690514 0)
(-0.01585474 0.17757953 -1.3674402e-18)
(1.0477884 -0.021831075 0)
(0.54329484 -0.027987522 0)
(0.24796153 -0.0069910887 0)
(0.25629562 0.0010167161 0)
(0.022056487 2.6214605 0)
(-0.0099775357 2.9058422 1.263757e-18)
(-0.020660128 1.4015652 0)
(-0.034702266 1.6478287 0)
(-0.01686351 1.3768733 0)
(-0.010121975 2.8144573 0)
(-0.0038817353 2.3171702 -3.1629866e-20)
(-0.0061861235 2.1027927 0)
(-0.01816207 2.9813204 -1.2775551e-22)
(-0.018376091 3.0070222 2.6618105e-18)
(0.00085894755 3.0015933 0)
(0.28766592 -0.0023478926 0)
(0.43696402 0.91749196 3.4059933e-19)
(1.0398783 1.4901164 -9.3266772e-19)
(1.0720845 1.3224223 9.5583288e-19)
(0.88079737 1.6419042 -1.7802851e-19)
(0.77940284 1.6198833 1.0224308e-18)
(0.38365694 0.22026774 2.6760752e-20)
(0.31198591 0.15484272 0)
(1.2762115 0.74268296 0)
(0.33871758 0.2261157 1.2303342e-19)
(0.26441913 0.18325985 -1.280213e-19)
(0.24859435 -0.013784498 0)
(1.9896345 0.00073477513 0)
(1.988719 -0.0020258392 0)
(1.3548168 0.0016516508 0)
(1.8676295 0.0055502471 0)
(1.7381186 0.0032301215 0)
(0.02623441 2.0174282 -8.5157273e-19)
(0.047339864 1.4339678 0)
(0.047266267 1.2988323 0)
(0.031766983 1.3837107 0)
(0.020374507 1.1173836 0)
(-0.00080369745 2.2236214 0)
(0.010965112 1.2310982 0)
(0.011283748 1.0046246 0)
(0.0013759554 1.2338871 0)
(-0.00020566772 0.95963196 0)
(0.49789149 0.025453022 0)
(0.41780492 -0.0096083205 0)
(0.1806636 0.006641146 0)
(0.41738969 -0.010815351 0)
(0.20941616 -0.00029886274 0)
(0.016738619 3.0145161 1.3130088e-18)
(0.012390406 3.0113845 0)
(0.0077274245 3.0035754 0)
(0.013324975 3.0004907 1.3993063e-23)
(0.010556352 2.9476306 -1.875211e-18)
(0.016839428 2.9848943 0)
(0.013433503 2.8938496 0)
(0.017588073 2.9240674 3.0227996e-24)
(0.013836342 2.818265 0)
(0.017426333 2.9106767 0)
(0.011016157 2.7547647 0)
(0.24982565 3.6271311 0)
(0.17774312 3.5636585 0)
(0.13294297 3.3041062 -2.9609288e-19)
(0.048660643 2.9965098 0)
(-0.025134578 2.2705744 0)
(-0.015591376 2.3477246 -1.2670087e-20)
(-0.010269214 2.1506929 -5.9878728e-21)
(0.40147836 0.081875022 -5.8410102e-19)
(0.22462555 0.030112763 -5.5532655e-19)
(0.42446725 0.098574719 -1.7867299e-18)
(0.28208119 0.073767485 -1.1955163e-18)
(0.17830974 1.1487099 0)
(0.31994296 1.7815324 -6.5115449e-19)
(0.40242688 1.7398871 1.0881865e-18)
(0.54271406 0.03964141 0)
(0.3187458 0.027907779 0)
(1.2189694 -0.0013836949 0)
(0.73708197 -0.035270735 0)
(0.64722269 0.017034221 -2.9423062e-18)
(0.64934209 -0.026055543 2.3069423e-18)
(-0.0011824985 1.2105763 0)
(0.003404026 0.9673978 0)
(-0.04150798 1.4300317 0)
(-0.018787274 1.2473521 0)
(-0.014685888 0.95652148 0)
(0.033007261 0.2290819 4.1657794e-19)
(0.14829501 0.15103224 0)
(0.50488055 0.019590267 0)
(0.24590272 0.013904881 0)
(0.39498909 -0.0055928426 0)
(0.3633693 -0.012301791 0)
(0.23963303 0.0046261498 0)
(0.91953924 0.05335706 0)
(0.31953317 0.022663179 0)
(0.11203857 -0.0028575325 2.2205443e-18)
(0.0015544087 2.8593999 1.1134359e-18)
(0.020824334 2.9002284 0)
(0.034173357 2.8768149 0)
(0.015335671 2.7050614 0)
(-0.010478749 2.9857092 1.221966e-18)
(-0.0091344097 2.8906309 0)
(-0.011779408 2.9907433 -3.7514358e-18)
(-0.0095981956 2.915842 1.2830296e-18)
(-0.019206337 1.8330999 0)
(-0.0075831476 1.8451745 0)
(-0.0090195482 2.3316166 1.2119069e-22)
(-0.0082936161 2.2982355 0)
(-0.0094136285 2.1052472 0)
(0.62586394 0.021633946 0)
(0.31263387 0.014091478 0)
(0.22548122 0.026768465 0)
(0.59720246 0.0025750582 0)
(0.28309992 0.014923273 0)
(0.52363929 1.0957642 -4.1767477e-19)
(0.55649573 1.1310142 0)
(0.4147669 0.90315766 5.4364434e-20)
(0.32346701 0.69502493 0)
(1.1549536 1.3150962 -2.724838e-19)
(1.1506434 1.1195924 5.2537209e-19)
(0.51308393 1.8088684 0)
(0.70646778 1.7572851 0)
(0.60102215 1.7145392 0)
(0.15054119 0.25838719 -4.3121193e-19)
(0.41443042 0.19325667 0)
(0.31149639 0.13536382 3.4415579e-19)
(1.2487589 1.1216504 0)
(1.3239995 0.92331787 0)
(1.2170548 0.92600296 -4.213062e-19)
(1.3855521 0.72957669 0)
(1.3195847 0.57061002 6.1047974e-20)
(0.57472766 0.02195008 0)
(0.53919888 0.01218927 0)
(0.26009225 0.010448785 0)
(0.52348208 0.0077093147 0)
(0.53122062 -0.014203963 0)
(0.25578662 0.0071194338 0)
(1.498596 -0.0017055511 0)
(1.8698387 -0.0017170724 0)
(1.7318227 0.00050719844 0)
(0.040492337 2.2428734 4.6177657e-19)
(0.05026682 1.9426271 0)
(0.032893758 2.331654 7.4565229e-19)
(0.02014739 2.0784256 -6.2416408e-19)
(0.15156673 1.6519899 -4.7944362e-19)
(0.072582365 1.5172647 0)
(0.090808145 1.4654118 0)
(0.02636771 1.3341606 0)
(0.016651346 1.0638869 0)
(-0.0031238572 2.4082791 -1.021892e-21)
(0.002781335 2.2182991 0)
(0.0028557748 2.4142915 -5.2969274e-20)
(-0.00099881945 2.2270526 8.9602969e-20)
(0.021182836 1.2914219 0)
(0.016486767 1.2567777 0)
(0.014050008 1.0277028 0)
(-7.2515412e-06 1.2296594 0)
(-0.00034509475 0.95646207 0)
(0.81698013 0.046554648 0)
(0.56330999 0.026092451 0)
(0.75637798 0.041409967 0)
(0.42506379 0.014771125 0)
(0.19596245 -0.0080643289 0)
(0.43330109 0.0018701843 0)
(0.42561259 0.013736358 0)
(0.19326729 -0.0032284485 0)
(0.0036895879 3.0720211 -1.1273627e-20)
(0.010780725 3.0616171 0)
(0.016163842 2.9688142 0)
(0.013250541 2.8677406 0)
(0.72901256 4.2110853 0)
(1.2277474 3.2802446 8.7023677e-19)
(0.070747007 3.1291386 0)
(0.029217167 2.9022045 0)
(-0.014669958 1.8435655 0)
(-0.024383168 2.079846 0)
(-0.021381611 1.9468603 0)
(-0.023236784 2.7571207 -1.1045447e-20)
(-0.019143278 2.4581296 0)
(-0.021607794 2.6041201 0)
(-0.0033668861 2.1749044 3.6954015e-21)
(-0.0073365962 2.3975651 1.5979888e-20)
(-0.0093422905 2.3762419 6.0607599e-21)
(-0.0067672037 2.1586962 0)
(0.40035887 0.045361189 8.4251581e-19)
(0.19290085 0.0039192466 -8.3549949e-19)
(0.3047039 1.6951669 0)
(0.20566235 0.92703091 -3.7595844e-19)
(0.2255402 1.8364391 -1.1727079e-18)
(0.13736176 1.3906003 1.1766523e-18)
(0.2843381 -0.0024220575 0)
(0.51217102 0.00032054373 0)
(0.51257677 0.017244415 0)
(0.2935441 0.0058231342 0)
(9.1321465e-05 1.2237067 0)
(0.0020003958 1.2137777 0)
(0.0022827768 0.96009773 0)
(0.28678731 0.2246485 1.1406329e-18)
(0.21542045 0.21521247 -1.3589102e-18)
(0.21567501 0.17780719 0)
(1.2150979 0.13611233 2.9505609e-20)
(1.1186547 0.11554008 0)
(1.0708082 0.092556716 0)
(0.75634075 0.035977035 0)
(0.37880938 0.0077206829 0)
(0.3395453 -0.014534794 -3.5824515e-18)
(0.14516812 -0.0060003566 1.3711839e-18)
(0.0025389403 2.9845677 1.1103007e-18)
(-0.0036010548 2.864565 4.5588814e-20)
(0.0038370178 3.0539687 -2.3570603e-20)
(0.012750622 3.0472379 8.4866835e-19)
(-0.0093977793 2.9952556 4.1670246e-20)
(-0.0083913368 2.9361685 -1.6724134e-22)
(-0.013160715 3.0201636 -7.8450746e-19)
(0.0012138198 3.0231386 5.654515e-19)
(0.0066739468 3.0398343 -8.4927899e-19)
(0.71840634 0.034059469 0)
(0.67728619 0.034522475 0)
(0.35750104 0.01778318 0)
(0.49629955 0.012687431 0)
(0.46577535 0.041816809 0)
(0.27531928 0.0049591644 0)
(0.43555411 -0.0069809963 0)
(0.4312536 0.01159372 0)
(0.20471647 -0.00023766563 0)
(0.7088673 1.3779984 -1.4394838e-19)
(0.77533748 1.4579242 0)
(0.16673918 0.35917646 1.0549344e-19)
(0.33502751 0.77059718 8.0872309e-19)
(0.35658408 0.80095555 -4.7741518e-19)
(0.23275711 0.49530808 9.3160282e-19)
(0.41721575 0.96227371 2.1986228e-18)
(0.16641599 0.33781477 4.8808287e-19)
(0.43030271 0.13382103 1.2654598e-18)
(0.42963008 0.16963345 3.3449113e-19)
(0.30366196 0.1011166 6.3891423e-19)
(1.4158383 0.54871476 1.7687561e-19)
(1.3075966 0.39488771 1.4197339e-19)
(0.023488543 2.3872631 2.8103811e-19)
(0.011162418 2.1509985 0)
(0.96652569 0.064102 0)
(0.88417468 0.054838965 0)
(0.65828365 0.031937989 0)
(0.010002262 3.0770083 0)
(0.016954355 2.9387736 1.658263e-18)
(0.016533015 2.9537226 0)
(0.013498416 2.8434055 -1.6553246e-18)
(0.0094568093 3.0917608 3.8013138e-19)
(0.0037033418 3.0888009 0)
(0.86499978 1.744811 -8.7932894e-20)
(1.1275519 2.3508826 3.2206736e-20)
(0.84368485 1.8599951 -7.8542435e-19)
(0.014125469 2.9970226 -1.0211127e-18)
(0.035111874 3.0357873 0)
(0.01215962 2.8714205 0)
(-0.0090247523 2.3982128 -2.409071e-20)
(-0.0041935156 2.4056911 -3.1866124e-20)
(-0.001836082 2.2103748 -6.193971e-22)
(0.34381523 1.5325849 1.1859198e-18)
(0.20980268 0.74317369 -8.1376443e-19)
(0.088152069 2.1544945 8.2262219e-19)
(0.16656091 2.016138 -1.0096433e-18)
(0.082431652 1.6787852 1.2292254e-19)
(0.013807685 3.1143882 -2.5190783e-18)
(0.016529808 3.1195862 2.8516642e-18)
(-0.0087294045 2.9801796 1.1702786e-18)
(-0.0054929245 2.9770901 -1.1510442e-18)
(-0.0076625356 2.875905 -1.1921702e-18)
(0.0045246952 3.1055191 -2.9579377e-18)
(0.0093962534 3.1048876 2.9372759e-18)
(0.37575918 0.83410668 0)
(0.33078935 0.77778584 -1.7849131e-18)
(0.13589103 0.28666696 7.9217358e-19)
(0.4122481 1.0822815 1.4006935e-18)
(0.18958433 0.42798673 -2.1754623e-18)
(1.3493135 0.22217823 5.8147673e-20)
(1.4086827 0.37542962 0)
(1.2599571 0.2364509 1.6355908e-20)
(0.0086525623 2.4153423 -1.9534626e-21)
(0.008588562 2.4010059 0)
(0.005326625 2.1892187 0)
(0.39167043 1.395796 -4.2746059e-19)
(0.42107485 1.2505583 -9.5839038e-19)
(0.19937818 0.56655788 1.7272424e-18)
(1.1918102 0.0064955567 0)
(1.3370257 0.0024263459 4.6996818e-19)
(-0.023816443 1.8025278 0)
(-0.037203691 1.8270243 0)
(1.5127269 -0.00032353521 4.0081074e-21)
(1.1000223 0.01551478 1.0495859e-18)
(-0.020482978 2.7615307 1.4323655e-20)
(-0.019700026 2.8039857 0)
(0.060475475 3.1769978 8.2552813e-19)
(0.53331236 3.542636 0)
(1.5339487 0.88531174 -5.5984934e-20)
(1.2740735 0.012053221 2.3479006e-20)
(1.3727897 0.025034687 0)
(1.9988822 0.0090372812 9.134453e-21)
(0.10670896 1.8651962 0)
(0.11875481 2.755502 0)
(0.020664913 1.7999426 0)
(0.0048444441 2.8193335 4.9721726e-20)
(-0.01608732 2.7682954 2.4453309e-20)
(1.2665734 0.007956418 2.1055144e-20)
(1.4497475 0.066420753 0)
(1.5009735 0.099551525 0)
(-0.02260227 2.0979764 0)
(-0.013341611 2.7955449 0)
(-0.0050952672 1.7907322 0)
(0.31536453 1.9734133 -2.9033682e-19)
(1.2991493 0.010432893 0)
(1.0937487 0.0091836624 0)
(1.9712482 0.011983576 6.1410747e-19)
(1.6582471 0.016533214 -7.0300174e-19)
(1.9059006 0.010974548 0)
(-0.015931806 1.9138753 0)
(-0.016796409 1.8177379 0)
(-0.015665498 1.8667388 0)
(-0.0082268792 1.7846153 0)
(-0.011639272 1.7671961 0)
(-0.015529605 1.7748885 0)
(1.4151524 0.043365991 0)
(1.29529 0.016799025 2.2044054e-20)
(1.0107281 1.6963933 4.5618203e-19)
(1.9566093 0.0025193326 -6.2616966e-19)
(1.7067903 -0.0037959034 7.5013099e-19)
(1.8970462 -0.0053946944 0)
(1.3051447 0.0043049977 6.2408711e-19)
(1.1800871 0.0023448418 -7.8178769e-19)
(0.92545055 0.0208046 0)
(-0.018354287 2.8341713 0)
(-0.021907663 2.8087577 -8.8883658e-21)
(-0.018678625 2.8271074 4.4413697e-21)
(1.6644659 0.37556901 6.6970367e-19)
(1.60667 0.17423042 0)
(0.074262867 3.0550151 -1.5109045e-18)
(0.042669989 2.8501129 -1.0533944e-19)
(0.17855502 3.1780333 2.3055203e-18)
(0.1644675 3.2425669 -3.7127764e-19)
(0.16213516 3.2865817 0)
(0.030910555 3.1342704 4.3126151e-19)
(0.083088707 3.1732987 1.4851631e-18)
(0.079445998 3.1989918 -8.0265558e-19)
(0.048291266 3.1092392 0)
(0.69823715 0.31478383 0)
(0.64131005 0.39964651 0)
(1.5042122 0.95933142 1.0475208e-19)
(1.4396029 1.0929427 -5.759565e-20)
(1.6053968 0.77935154 0)
(1.5958554 0.70823041 0)
(1.2738238 0.019379742 -1.2517591e-18)
(1.0851086 0.015218981 1.6053143e-18)
(1.3952081 0.022489576 0)
(1.2339984 0.021679416 0)
(2.004183 0.015745256 0)
(1.8772977 0.0064968896 0)
(1.9367151 0.01053286 0)
(1.727087 -0.0031737787 0)
(1.6658734 0.00025739396 0)
(1.7977233 7.740311e-05 0)
(0.094868559 1.8554447 0)
(0.076784239 1.8452867 0)
(0.12839948 1.8916367 0)
(0.13941049 1.913645 0)
(0.13939254 2.7844833 0)
(0.18053438 2.8614809 -5.0151512e-19)
(0.096284539 2.854765 0)
(0.079011881 2.8678378 2.2539716e-19)
(0.028169581 2.8811462 -1.9960345e-19)
(0.018260077 1.8041801 0)
(0.014376242 1.7720175 0)
(0.025998423 1.8112452 0)
(0.029545865 1.7890805 0)
(0.0071164489 2.2633252 -1.1399625e-20)
(-0.014776573 2.8163484 -2.1999641e-20)
(-0.00057282161 2.8632309 4.761229e-20)
(-0.004917001 2.8979501 0)
(-0.014579932 2.8229865 -6.2423032e-20)
(-0.014081419 2.819365 -9.4344036e-21)
(0.0096121272 2.2580339 1.3842506e-20)
(-0.009068116 2.5809842 2.9054784e-20)
(-0.016074864 2.6186185 -6.0486155e-20)
(1.301777 0.0076224435 1.3967372e-18)
(1.0836691 0.0034270429 -1.730074e-18)
(1.2480852 0.013202856 -1.502499e-18)
(1.1372773 0.0072760555 1.9934748e-18)
(1.4838245 0.059809605 0)
(1.345439 0.056439908 0)
(1.5257744 0.091114131 0)
(1.4914948 0.070031575 0)
(1.3376777 0.06660998 0)
(1.6115384 0.15952837 0)
(1.5430177 0.11032179 0)
(1.412947 0.09950131 0)
(-0.01972618 2.6298393 7.6865032e-22)
(-0.01927361 2.2860122 0)
(-0.020012497 2.4552761 0)
(-0.012115086 2.8224536 -3.5558503e-22)
(-0.012045723 2.8327044 -1.2275305e-22)
(-0.0048283601 1.9946946 -1.9826318e-20)
(-0.013443263 1.9377819 1.9987311e-20)
(-0.014799072 1.8379578 0)
(-0.01799541 1.8448096 0)
(-0.018600248 1.8423792 0)
(-0.0030528991 1.7914934 0)
(-0.0006561837 1.758818 0)
(0.45440125 1.982534 4.9636515e-19)
(0.46964002 1.9938974 2.5271091e-19)
(0.59225609 2.6419859 -2.7298306e-19)
(0.38085568 2.7707486 7.1764454e-19)
(0.40720537 2.2669649 9.6409958e-20)
(1.4074469 0.023984752 0)
(1.3347743 0.023598806 0)
(1.1445876 0.014935853 0)
(1.9818818 0.019087981 0)
(1.9614061 0.013824186 0)
(1.7253161 0.019414513 0)
(1.6331903 0.017946073 0)
(1.6481898 0.022494366 0)
(1.3369227 0.014478137 1.2085583e-18)
(1.0332046 0.029456516 -1.5328521e-18)
(1.2946144 0.021715775 -1.2833305e-18)
(1.1272896 0.014530275 1.6618932e-18)
(0.96728821 1.7329246 0)
(0.84518778 1.8460242 4.5575838e-19)
(1.1257271 1.6044662 2.0751791e-19)
(1.1638359 1.5599389 -2.7651827e-19)
(1.2756148 2.7045822 8.7002334e-19)
(0.82056422 0.075061261 9.0384526e-19)
(1.621748 0.19722825 0)
(1.6718301 0.29164936 -5.2066405e-19)
(1.5801223 0.23877163 -2.067583e-20)
(1.5327465 0.172568 0)
(0.21461256 2.9243075 1.0352288e-18)
(0.099850764 2.8155252 -2.1903913e-18)
(0.0279463 2.3883282 1.364507e-18)
(0.074270966 -0.12549457 -6.6817706e-19)
(0.36607755 3.4591983 2.0078009e-20)
(0.2351329 3.367655 0)
(0.24847987 3.4276806 -2.8284966e-20)
(0.26241032 3.0838384 -2.5339918e-18)
(0.39616123 3.1717131 0)
(0.013619539 3.1195405 7.7645931e-20)
(0.016672123 3.132399 -8.2750435e-19)
(0.030961458 3.1181704 1.2861876e-18)
(0.037448156 3.1484644 0)
(0.035108845 3.1560862 0)
(1.3563561 2.7966309 0)
(0.78941027 1.0428418 -9.0233373e-19)
(1.3303404 1.3119709 -5.0381626e-20)
(1.2594196 1.4128131 0)
(1.1753674 1.352443 -1.6612851e-19)
(1.3970116 1.1870641 3.8854045e-20)
(0.38823358 0.44901249 -1.589888e-18)
(0.77327059 0.31774148 -2.601338e-20)
(0.65404462 0.22948698 7.2494845e-19)
(0.67267497 0.44974204 5.3081607e-20)
(0.55469895 0.40019728 -2.1760047e-18)
(0.74073602 0.35614154 0)
(0.88714046 0.48359069 1.2076368e-18)
(0.88827453 0.45049928 0)
(0.71635303 0.40609903 0)
(0.62094135 0.32035952 0)
(1.2302609 0.85018488 7.0837845e-19)
(1.6745725 0.41134489 -5.9637298e-19)
(1.659364 0.58328298 0)
(1.6401875 0.51250274 0)
(0.75750428 0.17374372 1.0470992e-18)
(1.2377909 0.72207565 -6.761202e-19)
(1.0236407 0.63555859 1.2185349e-18)
(1.450831 0.55813906 -1.2148664e-18)
(1.2544625 0.01221328 8.2496534e-19)
(1.2338809 0.015155136 -8.5868075e-19)
(0.99543918 0.013914793 0)
(1.4443269 0.041783746 0)
(1.387081 0.031428588 -7.3829671e-19)
(1.200492 0.022370761 7.294722e-19)
(1.8299835 0.023405203 0)
(1.7052318 0.010138756 0)
(1.9107417 0.0060668413 0)
(1.6747659 0.011612453 0)
(1.9568387 0.020162339 0)
(1.9415317 0.017454955 0)
(0.068064818 1.8418133 0)
(0.057682348 1.8190155 0)
(0.1610567 1.8271027 1.1368365e-20)
(0.29693166 1.9615888 1.5020105e-19)
(0.18096902 1.9474537 3.3152931e-19)
(0.20487718 1.9650935 -5.3527358e-19)
(0.19807954 1.8612799 0)
(0.16617212 1.9892837 -8.3814658e-20)
(0.14682985 1.9756629 0)
(0.37594346 2.2263879 -1.3356714e-19)
(0.35964435 2.5182467 6.6989186e-19)
(0.22420671 1.9279482 7.5125611e-20)
(0.29801787 1.8708679 5.6789967e-20)
(0.24116937 1.8522884 -4.6251337e-20)
(0.3334912 1.8139974 -1.0535381e-19)
(0.26591742 1.973805 0)
(0.31608468 1.9903545 1.1513437e-19)
(0.03775657 2.4797388 -4.3794198e-20)
(0.033613229 2.8727693 0)
(0.062138978 2.5840702 1.7237345e-19)
(0.053818399 2.5887551 0)
(0.057639825 2.8876991 -2.5064481e-19)
(0.044500698 2.9262701 0)
(0.025525474 1.8684887 1.2735611e-20)
(0.030068172 1.9142857 0)
(0.036437758 1.8481553 0)
(0.028255009 1.8380523 -1.4443748e-20)
(0.0072815301 2.8503607 -1.8220251e-21)
(0.015917872 2.8838322 2.3129699e-19)
(0.0097177978 2.9206673 1.6105947e-21)
(0.0094784677 2.1571969 8.8038154e-21)
(0.0055468185 2.0650493 1.7040074e-21)
(0.013249702 1.7911663 0)
(0.009116856 1.7577218 0)
(0.044756464 1.9874038 3.3234468e-20)
(0.038509823 1.8833089 -3.125645e-21)
(0.03879914 1.9434793 -6.3559855e-21)
(0.051544845 2.0047571 0)
(-0.030265308 2.4840599 3.0316843e-20)
(-0.026202523 2.7294442 2.8551738e-21)
(-0.024722983 2.6466011 -3.4380199e-21)
(0.0068881921 2.1602359 -1.0417935e-20)
(-0.019318386 2.6722571 -6.1055809e-21)
(-0.01972351 2.6429236 4.9497589e-20)
(1.2517436 0.011510712 -8.944538e-19)
(1.2598443 0.002578519 9.149435e-19)
(1.0399827 0.0045501853 0)
(1.5060939 0.073961907 1.4991226e-18)
(1.1883749 0.013940773 -1.6643404e-18)
(1.1395342 0.0079272656 1.8886773e-18)
(1.5302199 0.10672957 -2.050588e-19)
(1.4318743 0.043772367 0)
(1.4439056 0.051765338 7.4936697e-19)
(1.3206955 0.044991056 -7.4288076e-19)
(1.6969697 0.10255433 -4.6653322e-20)
(1.6710307 0.083880449 4.0007204e-19)
(1.7974293 0.10716214 0)
(1.8586041 0.10232275 -1.5639831e-19)
(1.7398867 0.045558803 0)
(1.6145733 0.028511463 0)
(1.8579882 0.023097682 0)
(1.663696 0.01757265 0)
(1.865068 0.059919825 3.0896847e-19)
(1.8496547 0.041293871 -6.4865936e-19)
(1.845605 0.088191261 -3.1289762e-19)
(1.8496444 0.082339425 -3.6368584e-19)
(1.8206788 0.12899719 7.271959e-19)
(1.6857346 0.12738447 0)
(1.7318973 0.17444068 0)
(-0.024237548 2.4813052 4.9511505e-20)
(-0.018635227 2.2960992 1.0583679e-22)
(-0.017882275 2.2885344 0)
(-0.026095535 2.6692482 -5.0868534e-20)
(-0.020850817 2.6304557 -8.2765847e-22)
(-0.023809207 2.6624259 3.6960501e-21)
(-0.016391229 2.836351 9.8792387e-21)
(-0.013256268 2.7535025 -2.3553212e-21)
(-0.0156547 2.7193337 8.1071086e-22)
(-0.01063627 2.8298378 -7.827863e-21)
(-0.017178934 2.830695 1.1173261e-20)
(-0.0072460622 1.9074358 -1.9808244e-21)
(0.004645397 2.017656 -1.4292085e-20)
(0.46935503 1.9268449 -2.1538018e-19)
(0.43770061 1.8521903 5.4659197e-20)
(0.80986111 1.8803585 -4.4242496e-19)
(0.63522155 1.9670429 -2.4380096e-19)
(0.66364372 1.9522781 0)
(0.64231664 2.6052545 2.5120612e-19)
(0.69816333 2.6191933 3.9787372e-19)
(0.44706549 2.7023067 1.1246642e-19)
(0.45634778 2.7092373 -6.9091726e-19)
(0.54356453 2.6404394 6.7613084e-19)
(0.55346005 2.659114 0)
(0.4848759 2.7154872 -6.3571204e-19)
(0.22653299 2.7857417 1.2801397e-18)
(0.33372333 2.7714167 -5.0407669e-20)
(0.26928305 2.8598839 -1.7496129e-18)
(1.0211719 2.5472153 1.0308862e-18)
(0.89196413 2.562265 0)
(1.9555368 0.025720234 2.4113695e-20)
(1.661465 0.024390393 -2.0619643e-20)
(1.6815355 0.024214771 -3.6243448e-19)
(1.8820083 0.030927627 3.6326007e-19)
(1.9906065 0.031873224 0)
(0.89782931 1.74245 0)
(0.91136473 1.6542607 0)
(1.087313 1.5431396 0)
(0.94568674 1.5613698 0)
(1.2823141 2.739512 -6.2151803e-22)
(1.1938021 2.5697903 0)
(0.94135433 2.2684088 6.2721652e-21)
(0.88148387 2.5427803 0)
(0.99630452 2.6103842 -5.3008636e-19)
(1.0255061 2.5975182 3.6223597e-19)
(0.83282157 0.11368027 0)
(0.7897933 0.11808319 2.5113934e-19)
(1.0874262 0.12078913 1.3818639e-18)
(0.87106995 0.076189692 -5.4107569e-19)
(0.81787078 0.021474211 -1.6069361e-18)
(1.7147194 0.34216265 -1.1787319e-18)
(1.5637476 0.41619609 -2.9635401e-20)
(1.2785765 0.33224093 1.4021092e-18)
(1.5356992 0.29651328 1.1326784e-18)
(1.3003624 0.1735015 -1.8538877e-18)
(1.2434995 0.18842512 2.3580684e-19)
(1.2825444 0.25999048 -5.2235742e-19)
(1.2744066 0.22914862 0)
(1.5294549 0.21517802 9.0961223e-19)
(1.6558365 0.25567238 0)
(1.6508106 0.30624368 0)
(1.7022836 0.21568815 3.5953773e-19)
(1.7779871 0.26562829 -2.3110353e-20)
(1.7412451 0.34279218 -2.0762314e-19)
(1.7143574 0.3065314 0)
(1.5636156 0.033675189 7.61997e-19)
(1.8170648 0.084173089 9.2409437e-19)
(1.7697107 0.0569112 -7.2423223e-19)
(1.764249 0.10301371 -6.3021004e-19)
(1.5546939 0.069768115 -1.0753447e-18)
(1.4064479 0.13528959 0)
(1.4302872 0.12184293 0)
(1.1415419 0.032157377 -6.8498788e-19)
(1.0442952 0.03187532 2.8056684e-19)
(1.685541 0.13353748 9.3583147e-19)
(1.7970152 0.20364133 -1.0583703e-18)
(1.769888 0.21881948 9.7074566e-19)
(1.7072882 0.19953684 0)
(1.7900002 0.16900726 0)
(1.8220156 0.14915944 -4.1204565e-19)
(1.7888286 0.13697793 -7.6245856e-19)
(0.7628471 1.5076028 2.5352184e-19)
(0.82948617 1.8240208 -2.8180408e-19)
(1.1842405 2.7647298 -3.211307e-19)
(1.301795 3.1179355 6.3291891e-20)
(1.3452055 2.8172343 -6.780677e-19)
(1.3982344 2.8830554 9.7333066e-20)
(1.2712597 2.5620631 2.5493594e-20)
(1.3341155 3.0429254 -2.4354361e-19)
(1.3419298 3.062673 4.5919715e-19)
(1.3183749 3.3261084 -4.6749886e-20)
(1.4341173 3.0949974 4.8234861e-20)
(1.449718 3.0237347 0)
(0.79424113 1.1285761 -8.1336004e-20)
(0.23305956 1.3213036 9.0220318e-19)
(0.65852929 0.63471405 1.0507914e-18)
(0.43361938 0.21045064 1.1916878e-18)
(0.59820146 0.46056081 1.2243508e-18)
(0.68885334 0.57316003 -2.0272701e-18)
(0.67673917 0.58169285 1.6470387e-18)
(0.57629975 0.48978602 -6.2809278e-19)
(0.44218252 0.37829852 1.4224604e-18)
(0.79866436 0.22409149 -5.9243709e-19)
(0.76446095 0.25533877 0)
(0.66595277 0.20074656 1.2530788e-20)
(0.9545766 0.62569562 6.4589778e-19)
(0.89023246 0.56026563 -2.355551e-18)
(0.74401253 0.57147017 1.9811022e-20)
(0.76194877 0.53726154 0)
(0.95712739 1.0255099 7.0755362e-19)
(1.234939 1.0968137 6.1969978e-19)
(1.132078 1.2199415 -7.1395164e-19)
(1.291736 1.1284951 -2.4315048e-19)
(1.3318929 1.1882634 -5.1348478e-20)
(1.3169319 1.1860189 5.1831316e-20)
(1.3273446 0.9103091 -1.1657968e-18)
(1.3576795 1.0157293 2.2825013e-19)
(1.4369421 1.018452 0)
(1.4654858 0.96671257 -2.9183179e-19)
(1.6134439 0.44923734 3.3702882e-19)
(1.7074428 0.44342751 3.6833263e-19)
(1.7082971 0.40893204 5.0078473e-19)
(1.5977924 0.53949182 -6.8301466e-19)
(1.6082875 0.60042907 0)
(1.6377267 0.57432268 0)
(1.2597744 0.46232696 2.5102575e-20)
(1.0909891 0.31736639 0)
(1.1579158 0.29686427 6.8155868e-19)
(1.2610949 0.3430986 -1.8445674e-20)
(1.4469961 0.6049491 3.1527702e-18)
(1.3581987 0.70352499 8.8222e-19)
(1.327754 0.60969937 -9.9955526e-19)
(1.1086016 0.54126652 1.0890869e-18)
(1.0547058 0.53432621 6.4744242e-19)
(0.97472124 0.47134805 -6.3526906e-19)
(1.6769336 0.038593575 6.1446136e-19)
(1.9509561 0.034887948 0)
(1.9169296 0.041260306 4.1734749e-19)
(1.6956915 0.038016362 -9.3322089e-19)
(1.9342746 0.032081128 4.6316544e-19)
(1.8751426 0.015289352 -9.8317479e-19)
(1.6926071 0.015045547 0)
(1.5778154 0.019698703 -2.0468451e-19)
(1.8412404 0.014067055 5.1088039e-19)
(1.6688227 0.015772324 -2.6403244e-19)
(1.6067078 0.020906799 1.9325144e-19)
(0.035850281 1.8148737 0)
(0.039156948 1.8272327 0)
(0.04954546 1.8228124 0)
(0.039700781 1.8012836 0)
(0.080616822 1.837112 -4.9460126e-20)
(0.095661224 1.8180649 2.4368643e-20)
(0.12947049 1.9159259 -2.3687973e-20)
(0.11068763 1.8062128 -5.9344936e-21)
(0.04540353 1.8906454 -4.26593e-21)
(0.047741577 1.8843445 3.288638e-21)
(0.075571585 1.8276819 -1.9173051e-20)
(0.068130321 1.8335321 5.3324921e-20)
(0.055136891 1.8191913 6.9294023e-21)
(0.044694926 1.8295877 9.3097875e-22)
(0.088588095 2.5280401 -1.8532208e-19)
(0.092970599 2.5617041 0)
(0.15754876 2.2756489 1.1009674e-19)
(0.14248454 2.0637813 6.097741e-20)
(0.26589347 2.2461782 -1.013626e-19)
(0.23243119 2.6124655 0)
(0.27607087 2.599102 -6.6237269e-19)
(0.32558793 2.5019189 4.762553e-19)
(0.22670068 2.2080048 -2.5584742e-19)
(0.17495624 2.3661235 1.7677035e-19)
(0.16516705 2.5002254 0)
(0.019479397 2.2186549 -7.6760087e-20)
(0.018889658 2.5903809 -1.0366901e-19)
(0.014714197 2.3611251 0)
(0.016283222 2.6496614 -1.6020158e-20)
(0.033968919 2.4851182 4.9377692e-20)
(0.013003746 1.8527193 -4.7623085e-21)
(0.010943601 1.844952 7.6551964e-20)
(0.013874247 1.8505756 -2.8815129e-20)
(0.019360028 1.8475093 -1.8727646e-20)
(0.024961195 1.8753846 0)
(0.0080103671 1.8293883 0)
(0.0014912164 1.7831273 -3.4493543e-20)
(0.0044827611 1.8213365 9.5455528e-21)
(0.0066705901 1.8239124 0)
(0.0067537692 1.78153 -2.5812201e-20)
(0.0030992281 1.7526313 5.3162733e-20)
(1.6519134 0.05231024 0)
(1.6448229 0.055040387 -6.9356769e-20)
(1.9337947 0.056153286 -5.3889834e-19)
(1.8125128 0.066089368 0)
(1.6604859 0.058663816 0)
(1.9036194 0.04507239 3.473128e-21)
(1.9061191 0.04566968 8.0781077e-19)
(1.7794197 0.026678021 1.0352976e-18)
(1.6577448 0.020774547 0)
(1.5803483 0.022974373 0)
(1.7658061 0.03871426 5.3644363e-19)
(1.6075991 0.031028174 0)
(1.578291 0.016818621 0)
(-0.012373853 2.2833237 0)
(0.0041706684 2.0469459 -8.6669024e-21)
(-0.0068824165 2.167113 -1.4108452e-20)
(0.002688651 1.8316701 0)
(-0.0033415008 1.9601532 -1.0121574e-20)
(-0.0045817707 1.8928034 6.8225398e-21)
(-0.0016084955 1.8320661 0)
(0.50585669 1.9346936 0)
(0.45082292 1.7525896 -1.2978567e-19)
(0.41410102 1.7514475 0)
(0.54383875 1.797629 1.0381964e-20)
(0.61406403 1.9362059 0)
(0.55889782 1.8920942 4.5516013e-20)
(1.1117489 2.8009201 -2.1289188e-20)
(1.042667 2.5666898 -1.1862356e-18)
(1.0378053 2.4578152 1.3783331e-18)
(0.91919801 2.549456 3.3653015e-19)
(0.91014163 2.6063833 0)
(0.97503471 2.5860932 0)
(0.99649573 2.5524284 0)
(0.97643238 2.5494519 -1.2172897e-18)
(0.73794633 2.5558588 -5.4073018e-19)
(0.86082566 2.5790123 -1.2745358e-19)
(0.862811 2.5335034 1.019669e-19)
(0.74801332 2.5824941 0)
(0.84848186 2.5746753 0)
(0.80373049 2.592873 -4.352064e-19)
(0.80578238 2.6018112 0)
(0.898585 1.513396 0)
(0.73541153 1.2625272 -8.2979462e-19)
(0.83084277 1.2874553 -5.0641549e-20)
(0.77964743 1.4107784 0)
(0.76120721 1.3638977 1.265859e-18)
(1.1466637 1.2662708 -1.9507511e-19)
(1.1082083 1.399511 0)
(1.1256174 1.3383369 2.8567834e-19)
(0.95332692 1.4579654 0)
(0.97730479 1.3336 0)
(1.2520621 2.8116124 -3.7921718e-19)
(1.2121784 2.8465375 -2.7178471e-19)
(1.0063464 2.357966 4.7236437e-19)
(1.0064532 2.3927812 -1.584699e-19)
(1.2209838 2.8035126 0)
(1.1780888 2.7601951 2.0127937e-19)
(1.2063739 2.6421483 -3.7606761e-19)
(1.1168849 2.4869937 -2.941163e-20)
(0.69676697 1.7060802 0)
(0.71899024 1.5187035 -2.2320281e-19)
(0.7876082 1.619033 0)
(1.0906879 0.23259593 0)
(0.80158692 0.13732612 0)
(0.65402618 0.11612385 0)
(1.0713287 0.24056357 -1.0622003e-18)
(0.82076479 0.17509421 6.1794731e-19)
(1.0549163 0.030708729 -5.5559571e-19)
(1.1546161 0.094223517 0)
(1.1320277 0.11145482 2.4697237e-19)
(0.90982079 0.033621032 9.9989933e-19)
(0.83822469 0.012968997 -6.3150519e-19)
(1.3240152 3.4499685 -2.5576793e-19)
(1.3085752 3.3813328 0)
(1.3434657 3.4053462 -5.9403001e-19)
(0.53105435 3.5060782 5.6183773e-19)
(0.77658562 3.0365897 -4.0321567e-19)
(0.67060913 1.1129003 1.0229545e-18)
(0.64000151 1.1580164 0)
(0.52745005 0.62004664 -2.7711521e-19)
(0.65212837 0.92768575 1.497721e-18)
(0.67645214 0.57024586 -3.7147631e-19)
(0.64782075 0.66331132 4.2798634e-19)
(0.82161991 0.63587686 8.825116e-19)
(0.91269545 0.67171373 0)
(0.85804793 0.76817873 0)
(0.76369954 0.70702535 0)
(1.4988354 0.85234269 9.1151111e-20)
(1.3975354 0.77293832 -8.3854415e-19)
(1.404202 0.82139608 6.2450827e-19)
(1.4673836 0.72354813 -6.3553315e-19)
(1.584883 0.71855779 0)
(1.589247 0.78462109 -1.446339e-19)
(1.1032776 0.48239463 -1.437583e-18)
(1.1373023 0.47783763 -1.7123501e-18)
(1.0253499 0.43342126 1.1257144e-18)
(1.009607 0.39652887 -1.1451766e-18)
(1.0893354 0.3534191 -8.8839313e-19)
(0.98888712 0.33593918 1.1032583e-18)
(1.9160777 0.033042138 -4.9840949e-19)
(1.9458993 0.035580212 1.0083284e-18)
(1.6801938 0.03886895 6.2629329e-19)
(1.6963675 0.045634747 -7.4518835e-19)
(1.7891429 0.052796185 0)
(1.9417544 0.048799591 -1.3105277e-18)
(0.068674446 2.0434236 2.4402238e-20)
(0.064866145 1.9845092 0)
(0.10175349 2.0381402 2.5595733e-19)
(0.11412843 2.030607 -2.3190599e-19)
(0.096925731 1.9430951 4.1965067e-20)
(0.087323052 1.9360768 0)
(0.01044794 2.07053 0)
(0.0053242024 1.9131816 3.054608e-21)
(0.0038669101 1.8791269 -2.7638233e-21)
(-0.003336132 1.9605547 5.3717287e-21)
(-0.0023991751 2.2034475 3.3930034e-21)
(-0.0020724484 2.224739 4.9978738e-21)
(0.6805843 1.7277531 -4.9504534e-19)
(0.63758 1.7635738 5.2253237e-19)
(0.58700517 1.7733362 -2.0506242e-20)
(0.59208951 1.7103555 1.7157742e-20)
(0.83171742 1.7814055 0)
(0.69290518 1.8718492 2.0723322e-19)
(0.75763767 1.8719821 -2.0136911e-19)
(0.62707826 1.8033471 2.0347993e-20)
(0.70881199 1.7273786 0)
(0.76747321 1.7039199 0)
(0.71537765 2.5261398 7.9160513e-19)
(0.71471458 2.5919067 1.4625757e-18)
(0.76130821 2.5924319 -1.0510202e-18)
(0.63339392 2.6001644 -2.1980495e-19)
(0.62170641 2.6587637 3.6124516e-19)
(0.57371003 2.6299451 -9.0910542e-19)