/*--------------------------------*- C++ -*----------------------------------*\
  =========                 |
  \\      /  F ield         | OpenFOAM: The Open Source CFD Toolbox
   \\    /   O peration     | Website:  https://openfoam.org
    \\  /    A nd           | Version:  9
     \\/     M anipulation  |
\*---------------------------------------------------------------------------*/
FoamFile
{
    format      ascii;
    class       volScalarField;
    location    "0.44";
    object      alpha.phase1;
}
// * * * * * * * * * * * * * * * * * * * * * * * * * * * * * * * * * * * * * //

dimensions      [0 0 0 0 0 0 0];

internalField   nonuniform List<scalar> 
10000
(
5.8993615e-98
5.8998581e-98
8.2425928e-98
4.9180967e-96
5.7430949e-94
6.2601098e-92
6.8055409e-90
8.3501388e-88
1.2868629e-85
2.7686229e-83
1.1703088e-80
3.3960282e-78
1.8411657e-76
2.2879988e-75
1.1738344e-74
4.0434826e-74
1.0947791e-73
2.2474319e-73
5.9117265e-73
3.2846643e-71
2.9166518e-69
2.4876384e-67
2.0334252e-65
1.6012096e-63
1.2213972e-61
9.0724524e-60
6.6083737e-58
4.8617059e-56
3.8091793e-54
2.9802364e-52
2.2290826e-50
1.605959e-48
5.4506975e-47
6.4362517e-46
4.5057182e-45
1.3395462e-44
8.9378642e-45
2.2067788e-45
2.2067788e-45
2.2560879e-45
2.0673733e-44
3.0074526e-43
3.5896778e-42
3.5720912e-41
2.8256613e-40
1.7555189e-39
8.7977954e-39
3.5927548e-38
1.15216e-37
2.8338511e-37
2.9404929e-37
1.6873262e-37
5.4737417e-38
1.2802181e-38
2.4014578e-39
3.4649165e-40
3.4110816e-41
2.0061954e-42
6.6395518e-44
1.532639e-45
1.3804906e-45
1.3804906e-45
4.0821461e-44
1.843151e-44
2.7234792e-45
1.5434972e-46
2.737872e-48
1.5727448e-50
1.6559744e-52
5.0336363e-54
1.1806276e-55
1.7375399e-57
2.5573049e-59
3.9395849e-61
5.9345677e-63
8.6143969e-65
1.2012712e-66
1.602751e-68
2.0598709e-70
3.7936171e-72
1.0248343e-72
7.3974536e-73
4.7018154e-73
1.9629995e-73
6.9152448e-74
2.4003712e-74
6.8129328e-75
1.4339732e-75
1.291177e-76
2.5413821e-78
9.1347056e-81
2.0438572e-83
6.0706221e-86
1.6629324e-88
4.4470037e-91
1.5694173e-93
7.2914807e-96
1.1845152e-97
9.4991189e-98
9.4989109e-98
6.7969772e-98
1.5854085e-96
7.9861039e-96
2.6581613e-95
1.3007677e-93
9.1156788e-92
8.9405754e-90
1.2208396e-87
2.420341e-85
6.3836823e-83
1.7911086e-80
3.4966531e-78
1.8067151e-76
2.2976452e-75
1.1576432e-74
3.6451806e-74
1.2503657e-73
3.7723239e-72
3.5769985e-70
3.44512e-68
3.1554669e-66
2.7533534e-64
2.3001849e-62
1.8498065e-60
1.439751e-58
1.0898056e-56
8.0776928e-55
6.0432175e-53
4.7790831e-51
3.6711018e-49
2.7195327e-47
2.4493797e-45
1.0929114e-43
8.9371017e-43
1.6242121e-42
6.5984178e-43
8.943171e-45
3.6458369e-45
1.3663098e-44
3.2191654e-43
4.7729566e-42
6.0064756e-41
6.5321073e-40
5.893275e-39
4.024408e-38
1.8857438e-37
5.9141992e-37
1.352269e-36
2.6960787e-36
4.7975956e-36
4.9138221e-36
3.513716e-36
1.7954726e-36
7.7179328e-37
2.5659661e-37
5.4830537e-38
6.5411356e-39
4.1975841e-40
1.5865155e-41
4.1997633e-43
4.8542917e-45
1.3873778e-45
2.582298e-44
3.880815e-42
2.9289253e-42
4.4629941e-43
7.9126903e-45
3.2134663e-47
2.6697123e-49
7.7059093e-51
3.4248772e-52
4.9588056e-54
4.809609e-56
6.491921e-58
9.3758272e-60
1.2995882e-61
1.7294441e-63
2.2092585e-65
2.6953736e-67
3.1256835e-69
3.9883811e-71
6.3057318e-72
2.5277421e-72
4.7660133e-73
1.0429683e-73
3.1034707e-74
7.715448e-75
1.4678956e-75
1.2753154e-76
2.8189043e-78
1.6328618e-80
5.9440999e-83
1.5348062e-85
3.1402561e-88
1.236048e-90
1.0124185e-92
1.4512448e-94
2.1753978e-95
2.7692793e-96
1.0170013e-97
4.2578448e-95
2.0893585e-93
1.1147683e-91
7.9416379e-91
2.612823e-90
2.8993725e-89
2.8755503e-87
6.4314852e-85
3.2085485e-82
1.9469371e-79
2.1609815e-77
3.871839e-76
2.4300451e-75
2.257875e-74
4.6331235e-73
3.7705086e-72
3.3246976e-71
2.8714416e-69
2.943623e-67
2.8603606e-65
2.6365191e-63
2.3115971e-61
1.9378311e-59
1.5614046e-57
1.2156413e-55
9.1862129e-54
6.7840442e-52
5.0503842e-50
3.9672354e-48
3.0234851e-46
2.2529297e-44
1.9819836e-42
7.93972e-41
5.9457596e-40
1.0464217e-39
4.5231019e-40
6.7579342e-43
1.8741148e-42
3.1092114e-42
6.4500922e-41
9.0600154e-40
1.083808e-38
1.1277673e-37
9.8103121e-37
6.5717391e-36
3.0835418e-35
9.7950931e-35
2.256109e-34
4.4522414e-34
8.098809e-34
8.3031941e-34
5.8808818e-34
2.9979356e-34
1.2843889e-34
4.2374494e-35
9.057278e-36
1.1083611e-36
7.5988395e-38
3.2047357e-39
9.3478317e-41
2.0178574e-42
3.398957e-44
1.8933962e-43
2.5670483e-39
2.0206852e-39
3.3993667e-40
6.9794912e-42
3.0660375e-44
2.3334264e-46
5.9511311e-48
1.9948264e-49
3.2334466e-51
3.9154373e-53
5.4600398e-55
7.9483467e-57
1.1170534e-58
1.5018983e-60
1.930128e-62
2.3606885e-64
2.7347227e-66
3.2004563e-68
3.2397475e-69
1.3787928e-69
2.2135096e-70
3.0892899e-71
6.6848961e-72
1.0744517e-72
1.1703259e-73
9.5951745e-75
6.030004e-76
1.5400911e-77
1.1216671e-79
4.1191586e-82
1.4523383e-84
5.4136397e-87
5.7395243e-89
3.0208814e-90
2.1790542e-91
3.1180982e-93
6.7701082e-95
1.3784874e-92
6.7783593e-91
8.3804864e-89
6.4410502e-87
7.770533e-86
1.9869536e-85
2.4565111e-84
4.9184812e-82
2.2254812e-79
1.2206869e-76
1.3246124e-74
2.6479185e-73
2.5652854e-72
7.6948396e-71
1.0348647e-69
3.8228099e-69
1.8840307e-68
1.7836931e-66
1.8517745e-64
1.8155978e-62
1.6839835e-60
1.4828083e-58
1.2459208e-56
1.0041783e-54
7.8064417e-53
5.8787718e-51
4.3190998e-49
3.1932663e-47
2.4860387e-45
1.8891012e-43
1.4259715e-41
1.2280798e-39
4.350946e-38
2.9192706e-37
4.8942149e-37
2.1970097e-37
4.4029916e-40
7.6873044e-40
7.023656e-40
1.0439234e-38
1.3163902e-37
1.486925e-36
1.4800925e-35
1.2403889e-34
8.1239937e-34
3.789154e-33
1.2089676e-32
2.7910876e-32
5.4486541e-32
1.0047046e-31
1.0305527e-31
7.2523513e-32
3.6980214e-32
1.5857184e-32
5.2275271e-33
1.1247911e-33
1.4152538e-34
1.0328846e-35
4.8082693e-37
1.4993961e-38
4.1960108e-40
5.8692641e-42
1.6907656e-40
1.2202911e-36
1.0092886e-36
1.9034212e-37
4.6177515e-39
2.2293714e-41
1.599227e-43
3.8731051e-45
1.1398555e-46
1.9676018e-48
2.6113952e-50
3.7122e-52
5.4216767e-54
7.6409116e-56
1.0280299e-57
1.318172e-59
1.6042972e-61
1.8444499e-63
2.0385334e-65
1.3445242e-66
5.9008018e-67
1.0156547e-67
1.5686392e-68
3.7066935e-69
6.7155452e-70
9.4282794e-71
8.6781932e-72
4.786132e-73
1.1081833e-74
9.4099924e-77
5.2524425e-79
3.3516309e-81
2.4585948e-83
2.8014364e-85
1.0088473e-86
1.6058194e-88
1.2766951e-90
2.1546504e-92
3.5012332e-90
2.0295768e-88
2.2145423e-86
2.3018889e-84
1.5686475e-82
2.3470132e-81
9.5161031e-81
3.8137417e-79
1.1662431e-76
5.5313977e-74
6.274209e-72
1.3870525e-70
1.4997765e-69
3.9878067e-68
4.7668268e-67
1.6440253e-66
9.2042129e-66
9.2821039e-64
9.7424594e-62
9.6335347e-60
8.9841412e-58
7.9345189e-56
6.6706959e-54
5.3666191e-52
4.1536899e-50
3.1068542e-48
2.261659e-46
1.6517197e-44
1.2660683e-42
9.5687259e-41
7.3521044e-39
6.1996158e-37
1.9234496e-35
1.1356197e-34
1.7855409e-34
8.1888061e-35
1.038981e-37
2.4641676e-37
1.726827e-37
1.4599448e-36
1.5315389e-35
1.5956723e-34
1.5147465e-33
1.2192429e-32
7.7883986e-32
3.6026122e-31
1.1513376e-30
2.6608203e-30
5.1389744e-30
9.539151e-30
9.7875432e-30
6.8675847e-30
3.5128637e-30
1.5109395e-30
4.9864278e-31
1.0808635e-31
1.3976307e-32
1.0836183e-33
5.5490022e-35
1.8484653e-36
7.118827e-38
3.6589153e-39
1.2876189e-37
4.5061556e-34
3.9450889e-34
8.4325979e-35
2.4507503e-36
1.3199553e-38
9.1021448e-41
2.1153804e-42
5.7722397e-44
1.0524944e-45
1.4712615e-47
2.1101662e-49
3.0894692e-51
4.3611746e-53
5.8598139e-55
7.4810583e-57
9.0373962e-59
1.0282078e-60
1.1017216e-62
4.5387367e-64
1.8801348e-64
3.2638324e-65
5.9032158e-66
1.5758401e-66
3.1026038e-67
4.9730411e-68
4.8639703e-69
2.5729475e-70
5.7408411e-72
5.3248074e-74
3.8126482e-76
2.7262212e-78
2.0786754e-80
3.2218634e-82
5.6929326e-84
5.6333063e-86
3.7901114e-88
5.3472519e-90
7.2501238e-88
4.7349039e-86
5.53381e-84
5.1783514e-82
4.6060636e-80
2.3541751e-78
3.8991915e-77
3.0606615e-76
5.1075836e-74
2.0378148e-71
2.3730297e-69
5.6363201e-68
6.9643993e-67
1.7342116e-65
1.6812743e-64
5.233869e-64
3.902083e-63
4.1490505e-61
4.4145199e-59
4.4024314e-57
4.1262983e-55
3.6511949e-53
3.0658983e-51
2.4561294e-49
1.8876187e-47
1.3980807e-45
1.0051487e-43
7.2220046e-42
5.424043e-40
4.0703794e-38
3.1980058e-36
2.6333664e-34
7.1143478e-33
3.6538352e-32
5.3089664e-32
2.4584092e-32
2.2375879e-36
6.2623416e-35
3.8295423e-35
1.9211668e-34
1.5157039e-33
1.3855374e-32
1.2494785e-31
9.6118859e-31
5.9650606e-30
2.7280437e-29
8.7055865e-29
2.0092005e-28
3.8385207e-28
7.1345206e-28
7.3212356e-28
5.1337863e-28
2.6429004e-28
1.1435325e-28
3.7859321e-29
8.2849045e-30
1.1030714e-30
9.0921172e-32
5.1199388e-33
1.8532161e-34
7.5526533e-36
1.8131455e-36
7.6155437e-35
1.3560737e-31
1.2660635e-31
3.0842853e-32
1.0781234e-33
6.5660335e-36
4.4441467e-38
1.0211953e-39
2.7170855e-41
4.9334724e-43
7.056747e-45
1.0277737e-46
1.5117365e-48
2.1351746e-50
2.8617417e-52
3.6315763e-54
4.3456414e-56
4.8793001e-58
5.130658e-60
1.4512748e-61
5.1321054e-62
8.474098e-63
1.8126851e-63
5.3662713e-64
1.1083416e-64
1.9541065e-65
2.0490583e-66
1.0464401e-67
2.2222869e-69
2.2315603e-71
1.7419228e-73
1.0626204e-75
9.5143768e-78
1.7175621e-79
1.8093382e-81
1.4069794e-83
8.6787633e-86
1.0830307e-87
1.266008e-85
8.967656e-84
1.109109e-81
1.0773723e-79
9.8735259e-78
8.5938867e-76
2.5381608e-74
2.2041299e-73
1.7057836e-71
5.7611267e-69
6.6119701e-67
1.7572604e-65
2.7648021e-64
6.3334881e-63
4.8970181e-62
1.363785e-61
1.4527632e-60
1.6175367e-58
1.7479528e-56
1.760082e-54
1.658513e-52
1.469652e-50
1.2312851e-48
9.8078795e-47
7.468828e-45
5.4643032e-43
3.8684978e-41
2.7243351e-39
1.9955808e-37
1.4865827e-35
1.2001013e-33
9.5969549e-32
2.2477452e-30
9.9810856e-30
1.3272613e-29
6.1204099e-30
9.8123656e-34
1.2574376e-32
7.4156971e-33
2.5004839e-32
1.3576325e-31
9.9481274e-31
8.4668803e-30
6.201326e-29
3.7204585e-28
1.6746325e-27
5.2951495e-27
1.2058267e-26
2.2552326e-26
4.1755868e-26
4.2917218e-26
3.017104e-26
1.5772006e-26
6.9399322e-27
2.3262915e-27
5.1674598e-28
7.0972584e-29
6.224532e-30
3.8586617e-31
1.4827687e-32
1.1968806e-33
7.2560508e-34
3.6470875e-32
3.434583e-29
3.4370275e-29
9.5770992e-30
4.0323381e-31
2.8118976e-33
1.8942158e-35
4.3701462e-37
1.1356156e-38
2.0306673e-40
2.957298e-42
4.3783914e-44
6.4746371e-46
9.1454107e-48
1.221315e-49
1.5379614e-51
1.8180896e-53
2.0073912e-55
2.0625094e-57
4.211166e-59
1.1994152e-59
1.8767255e-60
4.6551665e-61
1.4912132e-61
3.2539628e-62
6.2538333e-63
6.9281229e-64
3.3386706e-65
6.7618131e-67
7.3788824e-69
5.0854826e-71
3.45703e-73
5.0095473e-75
5.0562915e-77
3.9510016e-79
2.7937701e-81
1.6227517e-83
1.8481113e-85
1.9087975e-83
1.4366046e-81
1.8527189e-79
1.9115615e-77
1.65919e-75
1.3285942e-73
8.4615953e-72
2.5625117e-70
4.4059258e-69
1.2239639e-66
1.5355882e-64
4.8410093e-63
8.6793267e-62
1.6680835e-60
1.1229006e-59
3.0418815e-59
4.7768231e-58
5.552227e-56
6.112921e-54
6.2306654e-52
5.9107276e-50
5.2478041e-48
4.3859098e-46
3.4696814e-44
2.6137313e-42
1.8843758e-40
1.3097925e-38
9.0050489e-37
6.4041959e-35
4.7301763e-33
3.9269555e-31
3.0224306e-29
6.1437586e-28
2.3605242e-27
2.8483736e-27
1.2943248e-27
4.0543873e-31
2.0549851e-30
1.2484162e-30
3.1911581e-30
1.1675018e-29
6.0661405e-29
4.7394504e-28
3.3056749e-27
1.8993354e-26
8.3353415e-26
2.5858265e-25
5.7232176e-25
1.0285329e-24
1.8971104e-24
1.9593977e-24
1.386533e-24
7.4367409e-25
3.3705898e-25
1.156486e-25
2.6254964e-26
3.7416692e-27
3.514392e-28
2.4076629e-29
9.5712905e-31
1.7106955e-31
2.239609e-31
1.4519921e-29
7.4913371e-27
8.0841262e-27
2.5533514e-27
1.2901701e-28
1.043038e-30
7.1654947e-33
1.653972e-34
4.2480498e-36
7.3755127e-38
1.0888185e-39
1.6511596e-41
2.4601572e-43
3.4714408e-45
4.6121581e-47
5.7507454e-49
6.6924646e-51
7.2300392e-53
7.2109999e-55
1.1231219e-56
2.4374589e-57
3.6152621e-58
1.0294685e-58
3.5342631e-59
8.0379263e-60
1.6657139e-60
1.9078559e-61
8.9495877e-63
1.7943215e-64
1.9260577e-66
1.2338826e-68
1.3523359e-70
1.4223926e-72
1.0301532e-74
7.0199287e-77
4.6349581e-79
2.5649388e-81
2.719541e-83
2.5297012e-81
1.9971998e-79
2.6476482e-77
2.8468914e-75
2.5989225e-73
2.1703093e-71
1.660916e-69
6.6013303e-68
1.2142193e-66
1.8957102e-64
2.8766198e-62
1.1782524e-60
2.3338903e-59
3.6814459e-58
2.1821761e-57
5.9725262e-57
1.37134e-55
1.6698452e-53
1.8851515e-51
1.9533523e-49
1.8701605e-47
1.6659523e-45
1.3894571e-43
1.0914991e-41
8.1262827e-40
5.765977e-38
3.9272894e-36
2.6277798e-34
1.8077986e-32
1.3236987e-30
1.1276157e-28
8.2174414e-27
1.4558178e-25
4.8983769e-25
5.368462e-25
2.3241846e-25
1.5465773e-28
2.5032244e-28
1.811528e-28
3.8455601e-28
9.9646366e-28
3.3085845e-27
2.1778525e-26
1.4546628e-25
7.943928e-25
3.386522e-24
1.0449753e-23
2.3069002e-23
4.0265658e-23
7.3730383e-23
7.6360352e-23
5.5095953e-23
3.0140848e-23
1.3715805e-23
4.7067985e-24
1.0844502e-24
1.6185473e-25
1.647386e-26
1.251023e-27
5.0551524e-29
2.0220359e-29
3.4704759e-29
4.8940382e-27
1.4321781e-24
1.6764832e-24
5.887486e-25
3.546503e-26
3.3832807e-28
2.3989556e-30
5.6158008e-32
1.5051962e-33
2.5718633e-35
3.7372177e-37
5.7096748e-39
8.5503159e-41
1.2030478e-42
1.5839444e-44
1.9448428e-46
2.2129803e-48
2.3178333e-50
2.2174972e-52
2.75974e-54
4.3423369e-55
6.141177e-56
2.0102439e-56
7.3091774e-57
1.7302359e-57
3.9233933e-58
4.5833021e-59
2.0692592e-60
4.135395e-62
3.7893382e-64
3.187211e-66
3.877088e-68
2.8569432e-70
1.6875748e-72
1.0612139e-74
6.6176798e-77
3.5140847e-79
3.5127185e-81
2.9879732e-79
2.452727e-77
3.3233132e-75
3.6855114e-73
3.5147306e-71
2.9660278e-69
2.2979893e-67
1.4082628e-65
5.3881169e-64
2.2878243e-62
4.3037897e-60
2.6090862e-58
6.2305879e-57
7.6823926e-56
3.7079363e-55
1.0392639e-54
3.3671578e-53
4.352904e-51
5.0955422e-49
5.4065963e-47
5.2506318e-45
4.707077e-43
3.9239863e-41
3.0627852e-39
2.25329e-37
1.5722461e-35
1.0478746e-33
6.8067218e-32
4.516102e-30
3.2710228e-28
2.835884e-26
1.9261404e-24
3.0107163e-23
9.027933e-23
8.9949155e-23
3.6203699e-23
6.4945745e-25
2.4164622e-26
2.269996e-26
4.199998e-26
8.3919684e-26
1.7532541e-25
8.2110803e-25
5.21013e-24
2.7498715e-23
1.1676084e-22
3.7610861e-22
9.0377435e-22
1.7148683e-21
3.0502332e-21
3.1109905e-21
2.3192304e-21
1.2472364e-21
5.247526e-22
1.6773041e-22
3.7817305e-23
5.8295151e-24
6.3884487e-25
5.353547e-26
2.2514221e-27
1.6555156e-27
2.9347021e-27
1.4057058e-24
2.4587563e-22
3.0883771e-22
1.1776253e-22
8.3456245e-24
9.5051363e-26
7.066526e-28
1.6434286e-29
4.5506207e-31
7.8969775e-33
1.1463021e-34
1.7618394e-36
2.6506154e-38
3.7176433e-40
4.8400336e-42
5.8263515e-44
6.434555e-46
6.4576772e-48
5.8178761e-50
5.9909737e-52
6.8553093e-53
9.3433381e-54
3.5594686e-54
1.3764989e-54
3.3266635e-55
8.006784e-56
9.4993665e-57
4.1457535e-58
8.0146134e-60
7.3825739e-62
8.9088699e-64
7.6650126e-66
4.4000478e-68
2.3830258e-70
1.4029066e-72
8.3001681e-75
4.2501333e-77
4.0350587e-79
3.1800804e-77
2.6974853e-75
3.7217334e-73
4.2259224e-71
4.1576785e-69
3.6337752e-67
3.0053834e-65
2.3106258e-63
1.0968612e-61
3.222872e-60
6.5279974e-58
5.4138391e-56
1.3017513e-54
1.2964469e-53
5.5450731e-53
1.5672421e-52
6.7380063e-51
9.5722384e-49
1.1858578e-46
1.3042014e-44
1.2946454e-42
1.173889e-40
9.8125675e-39
7.625265e-37
5.5490708e-35
3.807885e-33
2.4814429e-31
1.5618775e-29
9.9736276e-28
7.1373605e-26
6.2062716e-24
3.8295281e-22
5.3711315e-21
1.5218043e-20
1.540771e-20
8.4451868e-21
6.1954969e-22
1.8083247e-24
2.5161363e-24
4.027143e-24
6.7516365e-24
9.7314647e-24
2.6833706e-23
1.4979144e-22
7.7832552e-22
3.3746491e-21
1.1316264e-20
3.0197306e-20
7.2190477e-20
1.2898802e-19
1.2809735e-19
9.2640276e-20
4.735694e-20
1.8157115e-20
5.3252471e-21
1.1438469e-21
1.7500292e-22
2.0233945e-23
1.8721644e-24
9.7560714e-26
9.652258e-26
2.3354964e-25
3.4785101e-22
4.2499009e-20
5.145095e-20
2.0619224e-20
1.6808914e-21
2.287819e-23
1.8078094e-25
4.0892035e-27
1.099448e-28
1.9789711e-30
3.003525e-32
4.6940857e-34
7.0935793e-36
9.9162768e-38
1.2745333e-39
1.4970004e-41
1.588852e-43
1.5005016e-45
1.2300681e-47
1.0358517e-49
9.4289801e-51
1.279154e-51
6.0093331e-52
2.5830583e-52
6.1724147e-53
1.4653148e-53
1.7009882e-54
7.2826425e-56
1.2706942e-57
1.5454385e-59
1.6912105e-61
1.1455399e-63
5.8839677e-66
2.9890549e-68
1.6511529e-70
9.2999539e-73
4.5962418e-75
4.1670257e-77
3.0766727e-75
2.6844839e-73
3.7625798e-71
4.3572488e-69
4.4038523e-67
3.9809898e-65
3.3280349e-63
2.6498116e-61
1.870869e-59
1.0277193e-57
1.0007539e-55
1.0383383e-53
2.3082142e-52
1.8774013e-51
7.4232629e-51
1.8668325e-50
9.8488442e-49
1.6912683e-46
2.3125315e-44
2.6948288e-42
2.7691166e-40
2.5597312e-38
2.1569176e-36
1.6745247e-34
1.2083202e-32
8.1669824e-31
5.2066669e-29
3.1746408e-27
1.949241e-25
1.3750341e-23
1.179518e-21
6.3654335e-20
8.0648672e-19
2.4406747e-18
3.6516179e-18
3.2393548e-18
5.7588426e-19
1.6013406e-22
3.1601332e-22
3.322856e-22
4.9957549e-22
5.6789237e-22
8.7859181e-22
3.569317e-21
1.7068788e-20
7.1579708e-20
2.3206137e-19
6.2839274e-19
1.7534464e-18
3.351702e-18
3.355383e-18
2.2234675e-18
1.1018925e-18
4.2697e-19
1.2657206e-19
2.6941197e-20
4.1477398e-21
5.2521152e-22
5.5901497e-23
5.9854469e-24
9.2531587e-24
2.2421244e-23
7.7816891e-20
9.8729505e-18
7.9414528e-18
3.0885277e-18
2.8699114e-19
4.8610083e-21
4.2635547e-23
9.1839062e-25
2.2646554e-26
4.2437319e-28
6.9261113e-30
1.1075471e-31
1.6753181e-33
2.3240611e-35
2.929343e-37
3.3183312e-39
3.3144559e-41
2.8292206e-43
1.9245414e-45
1.0909759e-47
1.1001599e-48
1.6106903e-49
9.1839984e-50
4.1864603e-50
1.0445881e-50
2.3794978e-51
2.6890279e-52
1.1549431e-53
1.9836379e-55
2.7953651e-57
2.4837134e-59
1.4479051e-61
7.0370268e-64
3.3767948e-66
1.7544633e-68
9.4132974e-71
4.4885414e-73
3.9058582e-75
2.7266131e-73
2.4375905e-71
3.4662615e-69
4.0834232e-67
4.2191841e-65
3.9217111e-63
3.3774273e-61
2.8011344e-59
2.399767e-57
1.9474987e-55
1.9562324e-53
1.7850308e-51
3.4763814e-50
2.4289141e-49
8.5511714e-49
1.220865e-48
1.0577905e-46
2.1142317e-44
3.5699844e-42
4.6078013e-40
5.0134387e-38
4.7857964e-36
4.0990801e-34
3.1972829e-32
2.2972869e-30
1.5342567e-28
9.5916093e-27
5.6754532e-25
3.3487606e-23
2.3059377e-21
1.9864812e-19
1.0185887e-17
1.1784543e-16
2.7926434e-16
1.9115414e-16
8.9993971e-17
3.6681284e-17
3.019221e-20
3.8686853e-20
2.5556429e-20
3.5026383e-20
3.4903977e-20
3.5720718e-20
8.1694317e-20
3.0853316e-19
1.1407387e-18
3.6193632e-18
9.3134167e-18
2.2454719e-17
4.3342589e-17
4.75427e-17
3.1298348e-17
1.5798324e-17
6.7740296e-18
2.2005332e-18
4.7517585e-19
7.785237e-20
1.18122e-20
1.6272726e-21
6.0433565e-22
7.9970869e-22
2.0120241e-21
1.352184e-17
5.7086032e-16
8.5090291e-16
4.1333869e-16
4.6027727e-17
9.4843947e-19
9.1434086e-21
1.8596256e-22
4.355232e-24
8.4208368e-26
1.4416296e-27
2.3375566e-29
3.5160714e-31
4.793968e-33
5.8420515e-35
6.2354273e-37
5.6078634e-39
3.87854e-41
1.7644727e-43
3.394737e-46
9.7161591e-47
1.8570988e-47
1.2045815e-47
5.5738555e-48
1.4284161e-48
3.2380363e-49
3.7974242e-50
1.6735883e-51
3.3005866e-53
3.9470488e-55
2.9706583e-57
1.6375111e-59
7.6379881e-62
3.4733674e-64
1.7007633e-66
8.6726638e-69
4.0025825e-71
3.3499618e-73
2.2266233e-71
2.0341251e-69
2.9316681e-67
3.5083557e-65
3.6951772e-63
3.5206543e-61
3.1263873e-59
2.6540894e-57
2.4256658e-55
3.16198e-53
4.6395821e-51
2.6884911e-49
4.2725887e-48
2.5839634e-47
8.8181375e-47
1.6595709e-46
1.8647428e-44
2.1620845e-42
3.8675718e-40
6.2273978e-38
7.4927123e-36
7.5460564e-34
6.6479655e-32
5.2478053e-30
3.7712794e-28
2.4950541e-26
1.5314913e-24
8.7941566e-23
4.9620793e-21
3.3213972e-19
2.8667378e-17
1.2906516e-15
1.1891063e-14
1.9983223e-14
1.0938685e-15
1.3523845e-16
1.8780051e-16
1.780915e-18
1.8772602e-18
2.0313285e-18
2.8773401e-18
2.7901511e-18
2.3775087e-18
2.6177214e-18
7.0665297e-18
2.2172713e-17
8.0181921e-17
1.9282358e-16
2.3773709e-16
3.9944423e-16
5.834151e-16
4.8671637e-16
2.5024719e-16
1.2966662e-16
4.6532668e-17
8.9851608e-18
1.4413587e-18
2.5800114e-19
5.8794365e-20
2.7446921e-20
5.8625255e-21
1.5860646e-19
2.0938052e-15
3.1760478e-15
5.0187054e-14
3.5635384e-14
5.7970904e-15
1.6403038e-16
1.7990544e-18
3.3851185e-20
7.5461264e-22
1.4975381e-23
2.6626965e-25
4.350645e-27
6.4592861e-29
8.5539369e-31
9.8729685e-33
9.5222469e-35
6.9040797e-37
2.8912889e-39
4.9992751e-42
3.5519413e-44
3.1176906e-45
1.8768876e-45
1.3878334e-45
6.316188e-46
1.6172867e-46
3.6981186e-47
4.7677217e-48
2.2153623e-49
4.3385863e-51
4.5345683e-53
3.1628566e-55
1.6848712e-57
7.5824204e-60
3.2783261e-62
1.5120176e-64
7.3493032e-67
3.287524e-69
2.6472974e-71
1.6845511e-69
1.5697687e-67
2.2873353e-65
2.7796941e-63
2.9792633e-61
2.9024699e-59
2.6563466e-57
2.3453527e-55
2.2598921e-53
3.7505495e-51
7.2438114e-49
3.6136291e-47
4.5524892e-46
2.4404237e-45
7.8331788e-45
2.8712718e-44
3.254627e-42
3.3003731e-40
3.5431021e-38
5.7044052e-36
8.4481195e-34
9.3368278e-32
8.6245033e-30
6.9652672e-28
5.0396577e-26
3.3162962e-24
2.0014849e-22
1.1143402e-20
6.0456519e-19
4.0340709e-17
3.4974115e-15
1.0333106e-13
9.9557647e-13
1.9686282e-12
1.6951332e-13
4.3701134e-16
1.1762683e-17
1.1649898e-17
4.143398e-17
1.3832356e-16
2.3649544e-16
2.4049209e-16
1.9630862e-16
1.5889576e-16
3.1954737e-16
7.3345207e-16
2.289214e-15
4.6389605e-15
3.4133154e-15
5.2981881e-15
8.5131697e-15
1.0727862e-14
5.8411011e-15
3.4270641e-15
1.6764328e-15
3.0415481e-16
3.6946867e-17
6.2227733e-18
2.2684111e-18
4.7035485e-19
1.6601468e-19
1.8005459e-17
2.4536428e-13
3.7133773e-13
4.6915966e-12
3.3601178e-12
5.5461829e-13
1.9168616e-14
2.7250425e-16
5.2080358e-18
1.1390884e-19
2.3047898e-21
4.1869856e-23
6.8480253e-25
9.9779195e-27
1.265563e-28
1.3385e-30
1.0600199e-32
4.4946366e-35
1.1601314e-37
9.2146723e-40
6.0998363e-42
4.2898075e-44
1.6840283e-43
1.4199489e-43
6.2312325e-44
1.5797e-44
3.6562999e-45
5.1062571e-46
2.5529062e-47
4.6849206e-49
4.533041e-51
3.0603351e-53
1.588069e-55
6.9054309e-58
2.8495256e-60
1.2461648e-62
5.7820092e-65
2.5040516e-67
1.9393617e-69
1.187352e-67
1.1259368e-65
1.6569993e-63
2.0405183e-61
2.2233866e-59
2.2112234e-57
2.0846565e-55
1.9267013e-53
1.9657235e-51
3.5779638e-49
8.0086939e-47
3.8476368e-45
4.2803899e-44
2.1293402e-43
6.1544722e-43
3.7663704e-42
4.4415815e-40
4.6959416e-38
4.3653502e-36
4.3887675e-34
6.347227e-32
8.3843964e-30
8.382004e-28
7.0291107e-26
5.1577167e-24
3.3865722e-22
2.0134641e-20
1.0891186e-18
5.5081186e-17
3.0007996e-15
2.0260474e-13
8.8915953e-12
9.6338887e-11
2.0537389e-10
2.5801978e-11
6.1567746e-14
1.7155452e-17
1.2981865e-17
8.075628e-16
4.6163966e-15
7.461204e-15
7.2058751e-15
5.4869812e-15
5.7735173e-15
8.5959514e-15
1.383704e-14
3.5330858e-14
4.3930497e-14
3.3196648e-14
4.877206e-14
1.5903652e-13
1.1374197e-13
8.186005e-14
4.2369971e-14
5.3060264e-14
1.295592e-14
1.1925728e-15
1.7426016e-16
5.6920785e-17
4.7553489e-18
3.6445407e-18
1.7341173e-15
2.4172284e-11
4.2381153e-11
3.9066437e-10
3.0171986e-10
6.3767594e-11
1.8792994e-12
2.6453598e-14
6.0075935e-16
1.3726437e-17
2.8040298e-19
5.1107108e-21
8.2717033e-23
1.1670551e-24
1.3802889e-26
1.2429441e-28
6.2946845e-31
2.1442528e-33
1.9163069e-35
1.352514e-37
7.4679631e-40
6.0876222e-42
1.4382959e-41
1.2793096e-41
5.3898881e-42
1.3623564e-42
3.1954488e-43
4.7138419e-44
2.4401682e-45
4.3512374e-47
4.0968909e-49
2.7078342e-51
1.3715005e-53
5.8067096e-56
2.3112964e-58
9.6174165e-61
4.2546957e-63
1.7803183e-65
1.3245967e-67
7.8370665e-66
7.5550731e-64
1.1190883e-61
1.3938654e-59
1.5405676e-57
1.5622961e-55
1.5157618e-53
1.4698502e-51
1.6026539e-49
2.9345292e-47
7.1107611e-45
3.4825378e-43
3.581567e-42
1.7092551e-41
4.6980643e-41
2.3002054e-40
2.73436e-38
3.5282518e-36
4.0397368e-34
4.0699685e-32
3.903134e-30
4.5872969e-28
5.1432171e-26
4.5476852e-24
3.3778776e-22
2.1824502e-20
1.3367521e-18
8.9981435e-17
4.0889899e-15
4.9950633e-14
2.4335182e-13
4.1084489e-10
7.8410789e-09
1.5943028e-08
3.036782e-09
9.5820314e-12
1.0256767e-16
3.5770077e-17
1.569226e-14
6.8083406e-14
7.0789256e-14
5.3046204e-14
3.4701138e-14
5.8728911e-14
7.0904322e-14
1.1473485e-13
5.6604878e-13
7.3604489e-13
9.1050187e-13
2.143016e-12
8.8471666e-12
4.7762294e-12
2.7347002e-12
1.0629079e-12
1.5286213e-12
3.4392317e-13
2.4322204e-14
5.3855443e-15
1.0958567e-15
1.1782269e-17
2.5900338e-17
1.9510458e-13
2.0615491e-09
6.4417945e-08
2.8943405e-08
2.2958917e-08
4.2595643e-09
3.5100056e-12
1.064897e-13
2.2463708e-14
1.3435957e-15
2.2395237e-17
3.2801557e-19
5.245888e-21
7.302283e-23
7.9397343e-25
5.7827028e-27
2.0412052e-29
1.7615746e-31
1.3354929e-33
8.3612394e-36
4.3117092e-38
7.3633821e-40
1.2951346e-39
1.0307994e-39
4.1033642e-40
1.052436e-40
2.5004942e-41
3.8560043e-42
2.0406376e-43
3.6380458e-45
3.3889518e-47
2.1998006e-49
1.0991535e-51
4.5705137e-54
1.7633256e-56
6.9979731e-59
2.9481144e-61
1.1893982e-63
8.4791593e-66
4.8664137e-64
4.7696683e-62
7.096806e-60
8.8983061e-58
9.9439409e-56
1.0249104e-53
1.020224e-51
1.0373769e-49
1.2181687e-47
2.1768921e-45
5.3466487e-43
2.7693417e-41
2.6934525e-40
1.2619145e-39
3.6254933e-39
9.9369359e-39
1.0197647e-36
1.3739718e-34
1.6175577e-32
1.6977266e-30
1.6507839e-28
1.7045198e-26
1.9298599e-24
1.777421e-22
1.3445327e-20
9.3293771e-19
7.0532712e-17
3.6273773e-15
4.7247677e-14
1.3666024e-13
7.4102765e-12
2.5382159e-09
3.582182e-07
6.5220577e-06
1.6502363e-05
1.2440515e-06
7.3600445e-16
6.3851917e-17
2.0559293e-13
7.4284084e-13
3.2374486e-13
1.1067989e-13
7.7636955e-14
2.385696e-13
3.44628e-13
1.8263985e-12
3.4694763e-11
4.3285275e-11
5.7769953e-11
1.6222912e-10
4.6570853e-10
2.2347913e-10
1.185634e-10
4.1722537e-11
7.6123312e-11
1.3592098e-11
3.6645915e-13
1.9106857e-13
3.3975295e-14
2.8300497e-17
6.7133191e-16
3.2757394e-09
8.4571917e-06
1.3246978e-05
1.0744404e-05
2.9955837e-06
1.5701867e-08
8.5305044e-11
3.8994202e-12
1.2196366e-13
1.702771e-14
8.7189659e-16
1.4842428e-17
1.9863666e-19
2.5752011e-21
2.6340839e-23
1.7255842e-25
7.3899165e-28
6.3252287e-30
4.6033052e-32
2.6988025e-34
1.2906229e-36
4.4622928e-38
1.2451461e-37
7.5175556e-38
2.8104405e-38
7.3693531e-39
1.7694951e-39
2.8408827e-40
1.5576075e-41
2.8110448e-43
2.5869926e-45
1.663644e-47
8.2475398e-50
3.3872747e-52
1.2731948e-54
4.8344554e-57
1.9367236e-59
7.5115706e-62
5.1132086e-64
2.8553107e-62
2.8437797e-60
4.2440307e-58
5.3467829e-56
6.0173993e-54
6.2680644e-52
6.3698258e-50
6.748895e-48
8.505264e-46
1.5111282e-43
3.5282396e-41
1.9741744e-39
1.8413435e-38
8.5875736e-38
2.5952971e-37
3.7071518e-37
2.0249639e-35
2.8699283e-33
3.5170042e-31
3.8050799e-29
3.7429385e-27
3.6957621e-25
4.0595445e-23
4.0434097e-21
3.4188762e-19
2.9376826e-17
1.9313116e-15
3.0503537e-14
7.7989792e-14
2.7163966e-12
1.8071496e-10
5.6273883e-08
1.3540136e-05
6.6530617e-05
7.57605e-05
4.3722042e-05
8.5849912e-07
7.374334e-16
3.7943429e-12
1.6279963e-11
1.2768193e-11
3.5612895e-12
1.1835099e-12
4.3532189e-12
1.8518864e-11
1.2296527e-10
2.5012023e-09
2.3978056e-09
3.6994103e-09
1.0667635e-08
2.1000204e-08
9.2003475e-09
3.9369009e-09
1.7613693e-09
3.4041041e-09
6.0549461e-10
1.1481126e-11
2.0216627e-11
3.1140332e-12
6.7239355e-16
1.8641172e-09
1.0372233e-05
2.157367e-05
2.1579389e-05
2.1563476e-05
2.0680093e-05
3.8130059e-06
2.5270408e-09
1.3927398e-10
4.0127524e-12
1.1910394e-13
9.8701151e-15
4.1100234e-16
6.2728658e-18
6.7568204e-20
5.9265575e-22
2.4886871e-24
2.3901013e-26
2.0252041e-28
1.3864325e-30
7.4342363e-33
3.3319279e-35
3.3813168e-36
1.0027678e-35
4.9622331e-36
1.7799447e-36
4.700858e-37
1.1406101e-37
1.909518e-38
1.0931481e-39
2.0040398e-41
1.8371588e-43
1.1785951e-45
5.8319881e-48
2.3783882e-50
8.7525211e-53
3.1912547e-55
1.2144548e-57
4.5152103e-60
2.9194158e-62
1.5899998e-60
1.6086915e-58
2.4040658e-56
3.0369758e-54
3.4341726e-52
3.6050977e-50
3.7128114e-48
4.0590272e-46
5.446401e-44
9.9351985e-42
2.1652413e-39
1.2799683e-37
1.1510365e-36
5.2629154e-36
1.5896205e-35
1.7483917e-35
3.10014e-34
4.6583673e-32
5.9901996e-30
6.5990151e-28
6.7165903e-26
7.5682504e-24
8.939224e-22
9.1476661e-20
1.1169748e-17
8.2881228e-16
1.08719e-14
2.8435715e-14
2.5350499e-13
1.3450027e-11
1.0612178e-09
1.9399856e-07
4.257281e-05
7.57605e-05
7.5762472e-05
7.5764596e-05
2.2264862e-05
2.825906e-14
1.840913e-10
5.2051172e-10
4.1570574e-10
2.4525673e-10
7.142676e-11
3.452016e-10
1.7969233e-09
7.5886149e-09
1.4385544e-07
1.1701312e-07
2.0152245e-07
3.6151452e-07
7.8819157e-07
3.3061066e-07
1.1414465e-07
6.9723988e-08
1.0747581e-07
1.9619171e-08
6.4859655e-10
2.146832e-09
3.3091497e-10
4.2327647e-14
2.5569459e-08
2.1577031e-05
2.158379e-05
2.1444671e-05
2.1433687e-05
2.1317736e-05
1.9527692e-05
2.2944025e-06
2.9366939e-09
7.8817212e-11
1.8398238e-12
4.3402783e-14
4.425157e-15
1.4221274e-16
1.6077432e-18
1.2092793e-20
4.1821193e-23
3.988343e-25
3.269826e-27
2.0951663e-29
1.0223554e-31
2.3611575e-33
2.001228e-33
7.1213933e-34
2.8820055e-34
1.0319257e-34
2.746304e-35
6.7429059e-36
1.1776841e-36
7.0527537e-38
1.3280247e-39
1.2229764e-41
7.8765985e-44
3.9093169e-46
1.5901251e-48
5.7626007e-51
2.0256748e-53
7.3234338e-56
2.6000387e-58
1.5866057e-60
8.4377028e-59
8.6723098e-57
1.2955453e-54
1.6381237e-52
1.8562835e-50
1.9595073e-48
2.0415215e-46
2.2928332e-44
3.2242096e-42
6.1372896e-40
1.2784495e-37
7.6386764e-36
6.5938301e-35
2.8735445e-34
9.0895727e-34
1.9821547e-33
2.2998088e-33
2.5609451e-31
4.885903e-29
8.2031914e-27
1.142686e-24
1.2492385e-22
1.1290383e-20
1.033949e-18
1.0562228e-16
4.5163272e-15
4.8999576e-14
2.1143779e-13
2.6249657e-12
1.1937305e-10
3.5182018e-09
8.4959773e-09
2.2595552e-05
7.5752162e-05
7.57605e-05
7.5754135e-05
2.8052771e-05
2.7634153e-12
1.1223582e-08
1.578561e-08
1.6047112e-08
1.342048e-08
2.4615235e-10
1.8562167e-08
6.8729556e-08
3.9318984e-07
4.5488747e-06
3.7923236e-06
6.6150869e-06
9.425588e-06
2.3494368e-05
2.4370276e-05
4.9929075e-06
2.5708744e-06
2.8356952e-06
4.0628414e-07
5.281872e-08
1.6286598e-07
2.0714413e-08
4.5613567e-12
1.7702234e-06
2.1583053e-05
2.1571129e-05
3.8039651e-06
2.5593089e-06
1.5385268e-05
1.9350786e-05
7.5087732e-06
6.5571892e-09
1.7310002e-10
3.9026882e-12
1.1213243e-13
3.4462872e-14
2.3210323e-15
3.5634194e-17
3.4816497e-19
3.1118901e-21
1.5207193e-23
2.4977826e-26
1.429893e-28
7.3458828e-31
1.3542215e-31
1.5904641e-31
4.2871249e-32
1.5417296e-32
5.4753316e-33
1.4746483e-33
3.68196e-34
6.7060262e-35
4.2192862e-36
8.250214e-38
7.6849094e-40
4.9932327e-42
2.4979467e-44
1.0181057e-46
3.6529724e-49
1.2436129e-51
4.2733599e-54
1.4436362e-56
8.2554962e-59
4.2826393e-57
4.474435e-55
6.6701273e-53
8.4228886e-51
9.5432227e-49
1.0101874e-46
1.063751e-44
1.226851e-42
1.8041406e-40
3.5546098e-38
7.3682642e-36
4.2245556e-34