/*--------------------------------*- C++ -*----------------------------------*\
  =========                 |
  \\      /  F ield         | OpenFOAM: The Open Source CFD Toolbox
   \\    /   O peration     | Website:  https://openfoam.org
    \\  /    A nd           | Version:  9
     \\/     M anipulation  |
\*---------------------------------------------------------------------------*/
FoamFile
{
    format      ascii;
    class       surfaceScalarField;
    location    "0.44";
    object      alphaPhi0.phase1;
}
// * * * * * * * * * * * * * * * * * * * * * * * * * * * * * * * * * * * * * //

dimensions      [0 3 -1 0 0 0 0];

internalField   nonuniform List<scalar> 
19800
(
-8.7002155e-103
2.2523517e-102
-1.5319776e-102
2.3417062e-102
-4.7213427e-102
3.4289695e-102
-5.2144452e-100
2.1843353e-100
-7.4133251e-98
2.6696754e-98
-9.275308e-96
3.0796048e-96
-1.1623956e-93
3.6019844e-94
-1.7395941e-91
4.9458691e-92
-3.5721955e-89
9.1411631e-90
-1.4876798e-86
2.3924619e-87
-1.2681509e-83
8.6840376e-85
-3.058917e-81
2.1099534e-82
-1.0633445e-79
1.1287933e-80
-9.467105e-79
1.4219087e-79
-4.4770374e-78
7.3827437e-79
-1.5871953e-77
2.5543879e-78
-3.438371e-77
6.8850747e-78
-6.3238165e-77
1.3961615e-77
-3.2704245e-76
4.0840304e-77
-2.5403941e-74
2.3709108e-75
-2.3665897e-72
1.9882103e-73
-2.0955458e-70
1.5691231e-71
-1.7673462e-68
1.1594961e-69
-1.4268734e-66
7.9902057e-68
-1.1073633e-64
5.1215742e-66
-8.268078e-63
3.0098448e-64
-6.0451285e-61
1.579153e-62
-4.6396654e-59
6.7973171e-61
-3.896713e-57
1.2650403e-59
-3.3884564e-55
-5.7369731e-57
-3.7085141e-53
-1.1356531e-54
-3.5483173e-51
-1.3828035e-52
-8.5075161e-50
-7.8023197e-51
-8.0418943e-49
-9.4821594e-50
-4.3637449e-48
-3.5579501e-49
-3.4827823e-48
-7.0105937e-49
-6.033019e-49
-4.5402212e-49
-5.5001222e-49
-4.2452592e-49
-5.1364493e-49
-4.0949809e-49
-7.1645601e-49
-2.6332849e-49
-7.5412635e-48
-3.3500111e-48
-8.1187816e-47
-4.7134499e-47
-6.5210439e-46
-5.545714e-46
-3.0428295e-45
-5.3621682e-45
3.0074417e-45
-3.983832e-44
1.6691691e-43
-2.171177e-43
1.532623e-42
-9.0684574e-43
8.8629422e-42
-3.1655975e-42
3.5670102e-41
-9.3438705e-42
7.789662e-41
-2.2051354e-41
9.4391778e-41
-2.2962585e-41
4.120603e-41
-1.3600403e-41
1.0598358e-41
-4.7890198e-42
2.2750089e-42
-1.312865e-42
4.0096605e-43
-3.0714828e-43
4.9950195e-44
-5.3616039e-44
3.720895e-45
-5.8226164e-45
1.5172012e-46
-3.5456822e-46
3.8250854e-48
-1.2625679e-47
1.1495945e-48
-3.230159e-49
1.095938e-48
-1.4416793e-49
1.1157999e-48
-2.143801e-49
3.4041775e-47
-1.4709395e-48
9.3670829e-48
-1.0694627e-48
7.3670831e-49
-2.6747158e-49
2.031067e-50
-1.9323014e-50
1.6006841e-52
-1.895755e-52
1.2615473e-54
9.6694943e-56
1.8253632e-56
9.0358481e-57
3.7132556e-58
2.7641833e-58
6.3427282e-60
7.4273109e-60
8.7808957e-62
1.5061115e-61
1.2876192e-63
2.7634174e-63
1.8845711e-65
4.8521421e-65
2.6483899e-67
8.0943561e-67
3.5636221e-69
1.2789831e-68
4.5750043e-71
1.91025e-70
5.5909443e-73
2.6901461e-72
7.3127016e-75
3.5815045e-74
6.9207247e-76
5.6430749e-76
4.4325213e-76
9.7661451e-77
3.2499547e-76
6.9010807e-77
1.6986593e-76
4.3617009e-77
5.1652513e-77
1.7985929e-77
1.5609551e-77
6.2178748e-78
4.6122132e-78
2.1000864e-78
9.8913165e-79
5.7664784e-79
1.2705319e-79
1.1685496e-79
4.1872165e-81
1.0166286e-80
1.8761902e-83
2.0357497e-82
2.8079075e-86
9.7367895e-85
6.4737286e-89
3.1310194e-87
1.6013799e-91
9.6151207e-90
3.3161874e-94
2.5516503e-92
6.5765963e-97
6.0188877e-95
1.6385932e-99
1.5050292e-97
1.109679e-101
4.8950847e-100
4.4952551e-102
5.9471109e-102
2.3609994e-102
4.4033824e-102
4.214749e-102
-4.7630577e-102
3.7347074e-102
-7.7275648e-101
1.5729428e-100
-2.9320451e-100
8.3249434e-100
-2.1281225e-99
2.6707161e-99
-1.3481565e-97
1.1818e-97
-1.1805138e-95
7.4905135e-96
-1.44429e-93
7.6765325e-94
-2.7006723e-91
1.2815613e-91
-7.597467e-89
3.1614232e-89
-2.7890308e-86
8.9017275e-87
-1.4106156e-83
2.038556e-84
-2.9293579e-81
2.8694984e-82
-1.0642686e-79
1.431304e-80
-9.7696991e-79
1.852377e-79
-3.6966129e-78
9.4096985e-79
-9.2470775e-78
2.983539e-78
-4.6306906e-77
1.2811186e-77
-2.5618519e-75
7.3252295e-76
-2.6945979e-73
7.0309702e-74
-2.741777e-71
6.5030351e-72
-2.6313449e-69
5.6184949e-70
-2.3902535e-67
4.5335136e-68
-2.0655117e-65
3.4168237e-66
-1.7069724e-63
2.3988068e-64
-1.3546658e-61
1.5627422e-62
-1.0332653e-59
9.3104621e-61
-7.7212217e-58
4.9074895e-59
-6.0446421e-56
2.0710514e-57
-5.0686042e-54
2.7053539e-56
-4.147563e-52
-1.1132818e-53
-4.7979405e-50
-1.975831e-51
-7.2991201e-48
-2.4197589e-49
-2.3563823e-46
-1.3350456e-47
-7.8730014e-46
-1.4014838e-46
-5.219249e-46
-3.2025124e-46
-4.8201572e-48
-1.6822705e-46
-1.5756712e-48
-1.0735279e-48
-1.5135997e-48
-1.056616e-48
-9.049255e-48
-2.9758884e-48
-1.4648345e-46
-7.8149522e-47
-1.7343408e-45
-1.2466929e-45
-1.6797574e-44
-1.6416322e-44
-1.2609995e-43
-1.8491879e-43
-5.5730281e-43
-1.7202433e-42
4.2510831e-43
-1.2124903e-41
1.8155442e-41
-5.881727e-41
1.0215205e-40
-1.9081772e-40
3.3202139e-40
-4.485975e-40
8.5611953e-40
-9.0955043e-40
1.5184918e-39
-1.6551448e-39
1.840012e-39
-1.710966e-39
1.2018965e-39
-1.2214808e-39
5.8021816e-40
-6.215577e-40
2.421552e-40
-2.6362201e-40
6.9645572e-41
-8.5831237e-41
1.0923606e-41
-1.7912785e-41
8.5584627e-43
-2.1080719e-42
3.6690306e-44
-1.3635183e-43
1.071666e-45
-5.3760116e-45
2.286515e-47
-1.515333e-46
2.2941313e-48
-2.7464955e-48
2.2745257e-48
-4.0067006e-49
1.186845e-46
-9.6892698e-48
4.9208556e-45
-7.9740824e-46
2.4079611e-45
-4.2225985e-46
7.9553887e-47
-4.1433631e-47
3.7122077e-49
-4.8404599e-49
2.6433023e-51
-3.2806379e-52
3.5442229e-53
4.5529094e-53
7.8705273e-55
1.3880978e-54
2.0308253e-56
4.9817878e-56
2.198948e-58
1.0654465e-57
2.5667862e-60
1.6861843e-59
3.497196e-62
2.6955056e-61
4.636292e-64
4.1955023e-63
5.8562475e-66
6.2122987e-65
7.0901996e-68
8.7307425e-67
8.1887288e-70
1.1626607e-68
8.9667554e-72
1.4616744e-70
9.5970582e-74
1.728828e-72
4.3527649e-75
2.0487256e-74
1.5329697e-75
1.6605565e-75
5.8896777e-76
6.0276646e-76
7.6228404e-77
9.8831794e-77
1.8661012e-77
1.7900214e-77
5.2710552e-78
4.7419841e-78
1.0034616e-78
1.0408394e-78
1.1892613e-79
1.75235e-79
4.0263277e-81
1.4404141e-80
2.3510431e-83
3.5035354e-82
5.6611334e-86
2.9188436e-84
1.4914797e-88
1.3988187e-86
3.1475676e-91
4.3662354e-89
6.3867877e-94
1.0365014e-91
2.2933126e-96
3.0407982e-94
2.0571689e-98
1.7498411e-96
1.5686007e-99
2.2025018e-98
2.3276362e-100
3.076457e-99
9.9119675e-102
3.7183568e-100
7.1282238e-102
-9.3840491e-100
4.994034e-99
-3.837892e-97
2.5691322e-97
-9.9410175e-96
1.4164637e-95
-4.08706e-95
1.0546472e-94
-1.6375518e-94
3.6392914e-94
-3.0863886e-93
4.4828627e-93
-4.9365437e-91
5.5192443e-91
-2.1775186e-88
1.6567535e-88
-2.8836146e-85
8.0450241e-86
-1.851799e-82
3.6902352e-83
-1.1393606e-80
3.9680898e-81
-9.5131344e-80
7.2677885e-80
-6.1621941e-79
4.5570012e-79
-1.50991e-77
4.3252938e-78
-1.6758053e-76
9.2444681e-77
-1.0070899e-75
7.6892555e-76
-1.9423685e-74
8.0669234e-75
-2.064757e-72
7.2104345e-73
-2.2603928e-70
7.2119805e-71
-2.3261342e-68
6.7391655e-69
-2.2523862e-66
5.8613916e-67
-2.0611484e-64
4.7553449e-65
-1.7914535e-62
3.5963094e-63
-1.4866048e-60
2.5303322e-61
-1.1820402e-58
1.6462275e-59
-9.0110454e-57
9.7563533e-58
-6.7186191e-55
5.07974e-56
-5.2351687e-53
2.0732124e-54
-4.374978e-51
1.4824928e-53
-3.6112543e-49
-1.2729863e-50
-4.2756449e-47
-2.136764e-48
-5.9612267e-45
-2.5126903e-46
-1.6619699e-43
-1.2450468e-44
-5.1247544e-43
-1.1853052e-43
-3.5053947e-43
-2.5984179e-43
-7.632925e-46
-1.4222349e-43
-7.4353473e-46
-5.8384289e-46
-7.5518697e-46
-7.2780708e-46
-2.0898527e-45
-9.7413864e-46
-2.9866811e-44
-2.0590661e-44
-3.3051036e-43
-3.1306376e-43
-3.0242094e-42
-3.9761048e-42
-2.1480002e-41
-4.3257137e-41
-9.0091393e-41
-3.9191656e-40
8.2471712e-41
-2.7309121e-39
3.0436494e-39
-1.3334924e-38
1.719399e-38
-4.4007589e-38
5.5842704e-38
-1.0454629e-37
1.4280225e-37
-2.1083174e-37
2.5784029e-37
-3.9257091e-37
3.1214547e-37
-4.0652125e-37
2.0093454e-37
-2.8751342e-37
9.7125879e-38
-1.4573879e-37
4.035986e-38
-6.1523386e-38
1.1527516e-38
-1.9858931e-38
1.8310473e-39
-4.1439282e-39
1.5119312e-40
-4.9783271e-40
7.1674752e-42
-3.4124114e-41
2.3490049e-43
-1.4712516e-42
6.0192837e-45
-4.4351104e-44
1.0866271e-45
-1.0153184e-45
1.0982244e-45
-3.3899241e-46
8.8064473e-44
-8.1310161e-44
3.31969e-42
-7.055477e-43
1.7653741e-42
-3.9148316e-43
6.8216572e-44
-4.2965009e-44
3.5387979e-46
-5.8810817e-46
2.4551459e-48
-8.4989757e-49
3.1761172e-50
4.6915795e-50
5.9964509e-52
1.5002509e-51
1.2465551e-53
4.4411095e-53
1.6384087e-55
9.6522856e-55
2.1093713e-57
1.6733791e-56
2.9138157e-59
2.7829464e-58
3.9314411e-61
4.4512583e-60
5.054063e-63
6.7488947e-62
6.1902042e-65
9.6601459e-64
7.1976543e-67
1.3029224e-65
7.8999839e-69
1.6524415e-67
8.2722324e-71
1.962394e-69
2.482293e-72
2.2471154e-71
8.0215095e-73
1.2203151e-72
3.1755399e-73
4.7062215e-73
2.7289961e-74
7.4990668e-74
4.0786279e-75
1.0339452e-74
8.3585258e-76
2.1679142e-75
9.1974601e-77
3.3793955e-76
6.6460285e-78
3.562534e-77
3.7905145e-79
2.8174876e-78
1.3482637e-80
1.7084104e-79
1.2384765e-82
4.3044863e-81
3.3109071e-85
3.3943148e-83
8.1029406e-88
1.4282886e-85
2.25293e-90
5.0898704e-88
1.0363976e-92
1.7188404e-90
3.1085548e-94
1.3202897e-92
2.2224228e-95
5.9382447e-94
7.7781403e-97
4.0656077e-95
2.3256804e-99
5.6791989e-97
1.1712187e-98
-1.839696e-97
1.8922837e-96
-3.575027e-95
9.8276794e-95
-1.8709218e-92
1.2598416e-92
-1.3799446e-90
1.0017252e-90
-4.5070339e-90
1.26592e-89
-1.4129039e-89
3.4215259e-89
-3.7509888e-88
5.3008471e-88
-1.4749103e-85
1.3924816e-85
-1.7922047e-82
6.3277464e-83
-1.0118959e-79
2.7353459e-80
-5.4686249e-78
2.8979005e-78
-5.5124664e-77
5.9655896e-77
-1.4655922e-75
6.0905675e-76
-6.4433613e-74
1.8360367e-74
-3.1006416e-73
2.4881862e-73
-9.6631943e-73
9.3132773e-73
-1.165034e-71
5.6067481e-72
-1.3053977e-69
5.4285105e-70
-1.4521679e-67
5.50929e-68
-1.5123742e-65
5.1988862e-66
-1.4787828e-63
4.5603991e-64
-1.3631744e-61
3.7203803e-62
-1.1904469e-59
2.8216806e-60
-9.9033626e-58
1.9880016e-58
-7.8757362e-56
1.2909373e-56
-5.9941541e-54
7.6232931e-55
-4.4554549e-52
3.936678e-53
-3.4501948e-50
1.5774061e-51
-2.8822e-48
8.0887949e-51
-2.4243429e-46
-1.0229579e-47
-2.9732376e-44
-1.7008767e-45
-3.7792384e-42
-1.9221855e-43
-8.8812875e-41
-8.4694849e-42
-2.460637e-40
-7.1525112e-41
-1.713552e-40
-1.4795321e-40
-7.1030254e-43
-8.2958703e-41
-3.6788365e-43
-8.1273947e-43
-2.7415399e-43
-3.6068418e-43
-4.5364776e-43
-3.2361805e-43
-4.9491093e-42
-4.1151204e-42
-4.9990208e-41
-5.5610785e-41
-4.3848609e-40
-6.758569e-40
-3.0446216e-39
-7.0751823e-39
-1.3355478e-38
-6.2075805e-38
-5.9022727e-40
-4.2535013e-37
3.3208192e-37
-2.0759477e-36
2.0168742e-36
-6.9131797e-36
6.7090912e-36
-1.6531994e-35
1.7224843e-35
-3.308959e-35
3.1713671e-35
-6.2434727e-35
3.8591871e-35
-6.4753888e-35
2.4722837e-35
-4.5559543e-35
1.2045435e-35
-2.3102901e-35
5.0241923e-36
-9.7503365e-36
1.4384679e-36
-3.1379619e-36
2.3263198e-37
-6.5706674e-37
2.0219953e-38
-8.0788555e-38
1.0502583e-39
-5.8541562e-39
3.8003099e-41
-2.7515576e-40
1.0902367e-42
-8.7752008e-42
3.9957819e-43
-2.6474402e-43
1.1176273e-42
-4.6953207e-43
7.3432715e-41
-6.7255784e-41
1.6335327e-39
-4.2844051e-40
9.5126259e-40
-2.5035301e-40
4.3840897e-41
-3.101196e-41
2.5753242e-43
-4.95996e-43
1.7415776e-45
-9.7837395e-46
2.2298024e-47
3.8097888e-47
3.9967348e-49
1.2456771e-48
7.6730551e-51
3.4702124e-50
1.0893852e-52
7.6336031e-52
1.4622285e-54
1.3786292e-53
2.0330644e-56
2.3400495e-55
2.7551362e-58
3.7870537e-57
3.5515331e-60
5.7876612e-59
4.3464984e-62
8.3140449e-61
5.0314933e-64
1.1220666e-62
5.4808823e-66
1.4182641e-64
5.6160675e-68
1.6743641e-66
1.1880322e-69
1.8577967e-68
3.3644442e-70
6.6746699e-70
1.3549727e-70
2.4934734e-70
1.3351514e-71
4.2552564e-71
2.2165477e-72
6.4853497e-72
4.9791552e-73
1.4861413e-72
6.5655326e-74
2.6152955e-73
6.263112e-75
3.5521459e-74
3.4113628e-76
3.1569186e-75
9.3404091e-78
1.68236e-76
8.3526943e-80
3.8427033e-78
3.1524832e-82
3.4177257e-80
1.2912773e-84
1.9693033e-82
7.0824998e-87
1.1556372e-84
5.269972e-89
7.5571577e-87
1.0962027e-90
7.5699836e-89
3.0321686e-92
2.4506003e-90
1.5189274e-94
3.7499497e-92
5.8233006e-97
2.8959336e-94
4.5818297e-96
-3.8539676e-95
5.4726644e-94
-7.2022537e-93
3.3377801e-92
-1.558134e-90
3.8042152e-90
-4.8425368e-88
4.1307418e-88
-3.2933807e-86
2.9252286e-86
-1.5470493e-85
4.6061808e-85
-8.5920233e-85
2.0252169e-84
-8.4198354e-83
1.076101e-82
-7.6685455e-80
3.6352063e-80
-4.2362321e-77
1.4382695e-77
-2.5291105e-75
1.5974317e-75
-2.997936e-74
3.6442699e-74
-8.346949e-73
4.1400933e-73
-3.1413407e-71
1.1109078e-71
-1.3359734e-70
1.3433976e-70
-4.1919654e-70
4.714241e-70
-5.9444365e-69
3.2802428e-69
-6.925721e-67
3.3599148e-67
-7.8273499e-65
3.4569149e-65
-8.2578236e-63
3.2997949e-63
-8.1509988e-61
2.9160939e-61
-7.5644083e-59
2.3915121e-59
-6.6338147e-57
1.81994e-57
-5.5249003e-55
1.2819748e-55
-4.3872491e-53
8.3124394e-54
-3.3253039e-51
4.8793911e-52
-2.4551716e-49
2.5007673e-50
-1.8780631e-47
9.8945671e-49
-1.5585522e-45
4.353726e-48
-1.3377362e-43
-6.4498746e-45
-1.7110685e-41
-1.0721458e-42
-1.9736757e-39
-1.1683011e-40
-3.844684e-38
-4.5417698e-39
-9.3269837e-38
-3.3557464e-38
-6.546597e-38
-6.4386458e-38
-4.4241598e-40
-3.6495608e-38
-1.2738556e-40
-2.5034594e-40
-7.1233202e-41
-1.3427442e-40
-9.7819423e-41
-9.8971547e-41
-6.9551054e-40
-7.0640154e-40
-5.9888344e-39
-7.6187761e-39
-4.955164e-38
-8.6294791e-38
-3.3569341e-37
-8.6548515e-37
-1.522311e-36
-7.3123205e-36
-1.4183052e-36
-4.9060184e-35
2.6648513e-35
-2.3838805e-34
1.78256e-34
-7.985333e-34
6.1079582e-34
-1.9244859e-33
1.5810375e-33
-3.8386728e-33
2.9630289e-33
-7.2945772e-33
3.6348383e-33
-7.573745e-33
2.3329305e-33
-5.3106894e-33
1.1481518e-33
-2.6937633e-33
4.8178593e-34
-1.1376008e-33
1.3856213e-34
-3.6542108e-34
2.2818568e-35
-7.6854238e-35
2.0857121e-36
-9.696401e-36
1.1841533e-37
-7.4313675e-37
4.726581e-39
-3.8096322e-38
1.5693952e-40
-1.3133987e-39
6.2606387e-41
-3.9847702e-41
7.8526325e-40
-5.7933933e-40
4.7224452e-38
-4.309578e-38
6.3334769e-37
-1.9797374e-37
4.0585986e-37
-1.2230264e-37
2.260214e-38
-1.7198047e-38
1.5330289e-40
-3.229962e-40
1.0122534e-42
-7.8629701e-43
1.2968085e-44
2.4519485e-44
2.2776499e-46
8.4187889e-46
4.2252694e-48
2.2904647e-47
6.3128271e-50
5.1280177e-49
8.6694706e-52
9.511281e-51
1.2090882e-53
1.6358925e-52
1.6411267e-55
2.6675987e-54
2.1139919e-57
4.0887183e-56
2.5753338e-59
5.8769703e-58
2.957127e-61
7.9029975e-60
3.1834125e-63
9.923711e-62
3.1999974e-65
1.1594816e-63
4.9548285e-67
1.259017e-65
1.0675024e-67
2.9961516e-67
3.9794944e-68
9.5569233e-68
4.555552e-69
1.6385999e-68
9.203587e-70
2.9146947e-69
2.2731559e-70
7.5486335e-70
3.246355e-71
1.4418861e-70
3.5414363e-72
2.2316721e-71
1.9017321e-73
2.1055164e-72
4.6818596e-75
1.0773046e-73
4.143924e-77
2.3698197e-75
1.8977593e-79
2.2585383e-77
9.886267e-82
1.5953307e-79
5.713395e-84
1.0635157e-81
5.0621641e-86
7.3938857e-84
8.1147878e-88
1.0045498e-85
8.6874339e-90
1.6533302e-87
3.3306299e-92
1.5691873e-89
1.1831556e-94
1.0141979e-91
1.3348533e-93
-5.3479975e-93
1.2580751e-91
-1.4858e-90
8.6410477e-90
-2.7078777e-88
1.0548275e-87
-4.8555835e-86
1.0403471e-85
-8.3346749e-84
9.7033224e-84
-3.6337248e-82
5.2060592e-82
-2.8693365e-81
9.1212805e-81
-4.6512081e-80
8.5814176e-80
-2.6885714e-77
1.7089978e-77
-1.4398053e-74
6.0294132e-75
-8.9398129e-73
6.9081921e-73
-1.2618322e-71
1.6993985e-71
-4.165219e-70
2.2034855e-70
-1.21197e-68
5.5570613e-69
-4.2930334e-68
5.4718741e-68
-1.3658429e-67
1.746713e-67
-2.617129e-66
1.6404408e-66
-3.1675417e-64
1.7651926e-64
-3.6457998e-62
1.8464926e-62
-3.8978484e-60
1.7824936e-60
-3.8860906e-58
1.588851e-58
-3.629244e-56
1.3094575e-56
-3.1910603e-54
9.9822795e-55
-2.6558201e-52
7.0262591e-53
-2.1002438e-50
4.5362278e-51
-1.581897e-48
2.6499952e-49
-1.1570659e-46
1.3480879e-47
-8.7116754e-45
5.2999378e-46
-7.1589426e-43
2.6454193e-45
-6.2783591e-41
-3.3426951e-42
-8.3917287e-39
-5.5910457e-40
-8.7381185e-37
-5.886015e-38
-1.4012982e-35
-2.0028519e-36
-2.9230418e-35
-1.2828106e-35
-2.050993e-35
-2.2605472e-35
-2.4168e-37
-1.2763611e-35
-3.3418047e-38
-1.7225313e-37
-1.6476249e-38
-3.8093465e-38
-2.0263438e-38
-2.5750409e-38
-9.0941864e-38
-1.146728e-37
-6.0275635e-37
-8.7262084e-37
-4.5814866e-36
-8.60734e-36
-3.0114858e-35
-8.3141416e-35
-1.3994501e-34
-6.7180088e-34
-2.352484e-34
-4.396125e-33
1.5622092e-33
-2.1206158e-32
1.2188841e-32
-7.0977783e-32
4.3482128e-32
-1.7095845e-31
1.1357551e-31
-3.3775829e-31
2.1630841e-31
-6.4212866e-31
2.6743378e-31
-6.6687534e-31
1.7300208e-31
-4.6776519e-31
8.6588845e-32
-2.3918664e-31
3.6712157e-32
-1.0188999e-31
1.0633367e-32
-3.2880599e-32
1.7890805e-33
-6.9853251e-33
1.722521e-34
-9.0491897e-34
1.0696649e-35
-7.3326293e-35
4.7295144e-37
-4.1038366e-36
1.782917e-38
-1.5231559e-37
8.2134206e-39
-6.5928615e-39
3.7736464e-37
-3.0539705e-37
2.4377789e-35
-2.2325372e-35
2.0402975e-34
-7.4189198e-35
1.4373225e-34
-4.835494e-35
9.7086993e-36
-7.7567756e-36
7.7141009e-38
-1.7196972e-37
5.0053192e-40
-4.8466876e-40
6.4848589e-42
1.3401709e-41
1.151742e-43
4.8366078e-43
2.1199009e-45
1.3298837e-44
3.197345e-47
2.9901188e-46
4.4702868e-49
5.6271083e-48
6.2755071e-51
9.7883594e-50
8.5183879e-53
1.6046621e-51
1.0935506e-54
2.4636613e-53
1.3229989e-56
3.5322005e-55
1.5025928e-58
4.7229996e-57
1.5937586e-60
5.8731771e-59
1.5711758e-62
6.7723118e-61
1.9769604e-64
7.2206195e-63
2.9403579e-65
1.2719745e-64
9.36758e-66
3.0782988e-65
1.2412303e-66
4.9947521e-66
3.0796966e-67
1.0455542e-66
8.1159737e-68
3.001303e-67
1.1979073e-68
6.0060577e-68
1.4562187e-69
1.0202936e-68
7.9846159e-71
1.0302046e-69
1.7597685e-72
5.0871069e-71
1.5078607e-74
1.0645277e-72
7.9113231e-77
1.0784362e-74
4.0578127e-79
8.196289e-77
2.1125575e-81
4.8153924e-79
2.4198592e-83
3.8036232e-81
3.3680529e-85
6.0769289e-83
1.6723976e-87
6.1023085e-85
5.8899583e-90
4.5086278e-87
1.7467147e-92
2.6431685e-89
3.070079e-91
-4.0591345e-91
2.382972e-89
-2.075991e-88
1.7776732e-87
-4.3665558e-86
2.3054736e-85
-6.4442696e-84
2.3691876e-83
-1.5300048e-81
2.3054314e-81
-1.7816055e-79
2.1040492e-79
-1.7638534e-78
6.5835526e-78
-2.3647776e-77
6.384945e-77
-7.3158807e-75
6.0730872e-75
-3.4680387e-72
1.9058094e-72
-2.2210558e-70
2.1745932e-70
-4.2943289e-69
6.0099879e-69
-1.7704265e-67
9.9038226e-68
-3.8610076e-66
2.3062526e-66
-1.1591866e-65
1.8205558e-65
-3.689588e-65
5.2562107e-65
-1.0069474e-63
7.1291166e-64
-1.2655643e-61
8.0199204e-62
-1.4876882e-59
8.5480811e-60
-1.6156261e-57
8.3640736e-58
-1.6280095e-55
7.5213753e-56
-1.5301436e-53
6.2313366e-54
-1.3485295e-51
4.7586332e-52
-1.1202057e-49
3.342592e-50
-8.8116918e-48
2.1497087e-48
-6.5816488e-46
1.2471166e-46
-4.7593779e-44
6.3134504e-45
-3.5158389e-42
2.478487e-43
-2.8532974e-40
1.6710649e-42
-2.5623045e-38
-1.4494246e-39
-3.569443e-36
-2.4712785e-37
-3.3313321e-34
-2.5150877e-35
-4.3958659e-33
-7.4873967e-34
-7.8304076e-33
-4.1400637e-33
-5.451898e-33
-6.6319639e-33
-1.1887604e-34
-3.7127233e-33
-6.7343971e-36
-9.92901e-35
-3.3146095e-36
-8.7087306e-36
-3.8850268e-36
-5.6747466e-36
-1.1755286e-35
-1.8021359e-35
-5.3493139e-35
-9.0635734e-35
-3.5302505e-34
-6.864671e-34
-2.2478933e-33
-6.4240349e-33
-1.0637862e-32
-4.9515305e-32
-2.467737e-32
-3.1314426e-31
5.9115824e-32
-1.4831878e-30
6.4024977e-31
-4.8745911e-30
2.399717e-30
-1.1363856e-29
6.3474366e-30
-2.1617908e-29
1.2324286e-29
-4.1073959e-29
1.5423842e-29
-4.2927525e-29
1.0137861e-29
-3.0156912e-29
5.2218091e-30
-1.5814158e-29
2.2607742e-30
-6.9804712e-30
6.6450131e-31
-2.3172165e-30
1.1457256e-31
-5.0336674e-31
1.1628629e-32
-6.7206538e-32
7.9088412e-34
-5.7741718e-33
3.855656e-35
-3.5445825e-34
2.1287329e-36
-1.3828053e-35
1.3223864e-36
-1.1803945e-36
1.4483756e-34
-1.2161708e-34
1.0348437e-32
-9.5420207e-33
5.6866101e-32
-2.3616225e-32
4.3254657e-32
-1.6108168e-32
3.5551191e-33
-2.9365274e-33
3.3474507e-35
-7.6556509e-35
2.1554218e-37
-2.4344674e-37
2.8440216e-39
6.3683202e-39
5.1642922e-41
2.4174566e-40
9.4656304e-43
6.7573921e-42
1.4352048e-44
1.5243979e-43
2.0415296e-46
2.9061743e-45
2.8868416e-48
5.111483e-47
3.9169815e-50
8.4246549e-49
5.0061792e-52
1.2943382e-50
6.004064e-54
1.8495512e-52
6.7291041e-56
2.4539813e-54
7.0085293e-58
3.0156717e-56
6.7487981e-60
3.4198379e-58
7.2679696e-62
3.5676566e-60
7.009128e-63
4.9531262e-62
1.8445914e-63
8.3952022e-63
2.8807473e-64
1.2787622e-63
8.4197623e-65
3.0870841e-64
2.3281547e-65
9.5769909e-65
3.6095057e-66
2.0208178e-65
4.7921321e-67
3.7344471e-66
2.631953e-68
3.9728825e-67
5.0538152e-70
1.8510174e-68
4.2747435e-72
3.6839637e-70
2.3896828e-74
3.98161e-72
1.072922e-76
2.7180316e-74
8.3217267e-79
1.7225574e-76
1.0075791e-80
2.1517309e-78
5.7506265e-83
2.0432746e-80
2.5088196e-85
1.5074163e-82
8.3323701e-88
9.9889243e-85
1.5446288e-90
5.4795992e-87
5.7977856e-89
2.1082001e-89
3.8241863e-87
-1.8681029e-86
3.0339495e-85
-5.5648862e-84
4.1319137e-83
-8.9737617e-82
4.5173619e-81
-1.2194809e-79
4.1848642e-79
-1.7770524e-77
3.5745725e-77
-1.1723807e-75
2.4184036e-75
-1.9409878e-74
7.8268815e-74
-1.3940193e-72
1.6588011e-72
-6.444397e-70
4.5035511e-70
-5.0424011e-68
5.6502332e-68
-1.2903332e-66
1.8578176e-66
-5.1574889e-65
3.4813921e-65
-8.9355613e-64
6.8492095e-64
-2.5417794e-63
4.727794e-63
-8.6732058e-63
1.3492586e-62
-3.4107491e-61
2.7161996e-61
-4.4603194e-59
3.1895484e-59
-5.3784305e-57
3.4779358e-57
-5.9502735e-55
3.4578599e-55
-6.0747821e-53
3.1450018e-53
-5.7545001e-51
2.6225885e-51
-5.0841878e-49
2.0060318e-49
-4.2152589e-47
1.4075745e-47
-3.2942804e-45
9.0048238e-46
-2.4369123e-43
5.189934e-44
-1.7378397e-41
2.6101594e-42
-1.2556644e-39
1.0266237e-40
-1.003274e-37
9.3691872e-40
-9.203134e-36
-5.3995812e-37
-1.3200219e-33
-9.4289358e-35
-1.0966331e-31
-9.2014494e-33
-1.2039389e-30
-2.4035748e-31
-1.8462193e-30
-1.157827e-30
-1.2648787e-30
-1.6963164e-30
-4.9058945e-32
-9.2105807e-31
-1.0601318e-33
-4.400646e-32
-5.7787915e-34
-1.4819525e-33
-6.65343e-34
-1.056636e-33
-1.509837e-33
-2.6703155e-33
-4.4466826e-33
-9.0708893e-33
-2.293548e-32
-4.543081e-32
-1.399898e-31
-3.993348e-31
-6.6929789e-31
-2.9690161e-30
-1.8800316e-30
-1.7840102e-29
7.1207873e-31
-8.1618121e-29
2.5206901e-29
-2.616105e-28
1.0294887e-28
-5.8625826e-28
2.757962e-28
-1.042333e-27
5.5267499e-28
-1.9874417e-27
7.0340483e-28
-2.100827e-27
4.7490445e-28
-1.496074e-27
2.5417482e-28
-8.1144034e-28
1.1304819e-28
-3.7191266e-28
3.3918174e-29
-1.2751542e-28
6.0144286e-30
-2.8523217e-29
6.4741276e-31
-3.9907075e-30
4.8511984e-32
-3.6961794e-31
2.5964782e-33
-2.505117e-32
2.4187366e-34
-9.8820029e-34
2.1852655e-34
-1.8976308e-34
4.6689064e-32
-4.1899336e-32
3.6734249e-30
-3.4163568e-30
1.4308576e-29
-6.6070196e-30
1.1050726e-29
-4.6755625e-30
1.1132034e-30
-9.4958512e-31
1.2574938e-32
-2.8996505e-32
8.1739211e-35
-1.0337062e-34
1.1050536e-36
2.6632364e-36
2.0645259e-38
1.0629694e-37
3.7972503e-40
3.0419912e-39
5.7531268e-42
6.8751803e-41
8.3341583e-44
1.3260083e-42
1.1911237e-45
2.3633258e-44
1.6157239e-47
3.9198577e-46
2.053825e-49
6.0256287e-48
2.4386321e-51
8.5748461e-50
2.6907299e-53
1.1275517e-51
2.7420817e-55
1.3661702e-53
2.5663198e-57
1.5184786e-55
2.4581592e-59
1.5426309e-57
1.476843e-60
1.7888904e-59
3.12908e-61
1.9829222e-60
5.8236576e-62
2.814433e-61
1.9560584e-62
7.7546026e-62
5.6097302e-63
2.5739856e-62
8.9823745e-64
5.6479664e-63
1.2840155e-64
1.1223777e-63
6.9487112e-66
1.2311126e-64
1.238556e-67
5.5694343e-66
1.029955e-69
1.0918089e-67
5.439466e-72
1.1529972e-69
2.8297299e-74
7.3172407e-72
2.7727217e-76
7.0312184e-74
1.8629331e-78
6.7929649e-76
7.7295411e-81
4.6457617e-78
3.1108483e-83
2.9442332e-80
8.5468615e-86
1.8079754e-82
-3.63044e-89
9.4342088e-85
9.2215068e-87
1.2280777e-86
5.3037995e-85
-3.4355516e-85
4.4203459e-83
-4.3149956e-82
6.2334696e-81
-9.0128144e-80
7.1327558e-79
-1.3147068e-77
6.9935731e-77
-2.1850755e-75
6.2906209e-75
-2.2763027e-73
5.1451242e-73
-4.4684141e-72
2.1906402e-71
-2.0877317e-70
4.6557509e-70
-8.6576444e-68
7.7425298e-68
-9.8384525e-66
1.1766008e-65
-3.434619e-64
5.0292981e-64
-1.2406175e-62
1.0414835e-62
-1.6915042e-61
1.6932997e-61
-4.7674819e-61
1.0339672e-60
-1.8203805e-60
3.0459882e-60
-1.0076293e-58
8.999612e-59
-1.3815193e-56
1.1085222e-56
-1.7209244e-54
1.2446794e-54
-1.9490652e-52
1.2632886e-52
-2.0217363e-50
1.1650034e-50
-1.9334383e-48
9.7952147e-49
-1.7150027e-46
7.520656e-47
-1.4193262e-44
5.2704453e-45
-1.1023059e-42
3.3589988e-43
-8.0720596e-41
1.9228039e-41
-5.6712422e-39
9.6161812e-40
-4.0002369e-37
3.7986382e-38
-3.139823e-35
4.5637305e-37
-2.9334442e-33
-1.7387281e-34
-4.2408467e-31
-3.1267529e-32
-3.0947916e-29
-2.912678e-30
-2.8899107e-28
-6.7295667e-29
-3.9706881e-28
-2.8609904e-28
-2.6378745e-28
-3.8673549e-28
-1.7413148e-29
-1.9140952e-28
-1.2083435e-31
-1.5998134e-29
-8.704146e-32
-1.9291407e-31
-9.9193297e-32
-1.6604279e-31
-1.8647853e-31
-3.5835e-31
-3.6817717e-31
-8.9008262e-31
-1.2831559e-30
-2.7074168e-30
-7.2364668e-30
-1.9446616e-29
-3.4505242e-29
-1.4401742e-28
-1.0828595e-28
-8.2935027e-28
-8.9790536e-29
-3.7230335e-27
7.3132161e-28
-1.2299152e-26
3.671467e-27
-2.8914459e-26
1.0411992e-26
-5.1111218e-26
2.1506759e-26
-9.4918501e-26
2.7961706e-26
-1.0003666e-25
1.9726957e-26
-7.4763657e-26
1.0693539e-26
-4.085758e-26
4.7021215e-27
-1.7913013e-26
1.4078038e-27
-5.8854503e-27
2.5753609e-28
-1.3148918e-27
2.9865304e-29
-1.9339795e-28
2.4851875e-30
-1.9388865e-29
1.457543e-31
-1.4433757e-30
2.5047192e-32
-5.4827115e-32
2.5478689e-32
-2.2782588e-32
1.2852064e-29
-1.290522e-29
1.1038013e-27
-1.0362456e-27
3.2570847e-27
-1.66244e-27
2.4865634e-27
-1.2028892e-27
2.9769553e-28
-2.6516571e-28
4.1028353e-30
-9.4326359e-30
2.7501741e-32
-3.7332515e-32
3.8284557e-34
9.9307498e-34
7.5050791e-36
4.1598187e-35
1.4339582e-37
1.2495603e-36
2.1748698e-39
2.8775491e-38
3.172019e-41
5.6046814e-40
4.5666892e-43
1.008821e-41
6.1914206e-45
1.6815896e-43
7.8126557e-47
2.5825768e-45
9.1521587e-49
3.651349e-47
9.8961564e-51
4.7429028e-49
9.8117862e-53
5.6397943e-51
8.8577561e-55
6.1109168e-53
7.7075533e-57
6.0010252e-55
2.8112243e-58
6.0547827e-57
4.6754898e-59
4.1331085e-58
1.045051e-59
5.4149668e-59
3.9665769e-60
1.7039074e-59
1.1623933e-60
5.9778689e-60
1.9388917e-61
1.3615374e-60
3.0240227e-62
2.951111e-61
1.55948e-63
3.291489e-62
2.5544168e-65
1.4289192e-63
2.0258977e-67
2.7727993e-65
9.6142762e-70
2.5150632e-67
7.1414734e-72
1.9857204e-69
6.1069567e-74
2.1577692e-71
2.3373555e-76
1.5025581e-73
8.3601439e-79
8.2861938e-76
2.9480357e-81
4.7830079e-78
4.8312172e-84
2.7639958e-80
-2.9137133e-86
1.3812241e-82
1.2773548e-84
2.7902094e-84
6.4348584e-83
2.3132296e-82
5.6433908e-81
-4.2211233e-82
8.0961965e-79
-4.9582207e-78
9.6432091e-77
-1.0447312e-75
9.9575814e-75
-1.6025984e-73
9.1214053e-73
-2.0863439e-71
7.6571153e-71
-1.254593e-69
5.0692526e-69
-4.4120109e-68
2.1086329e-67
-8.1688074e-66
1.0322541e-65
-1.5580657e-63
1.9524907e-63
-9.1363872e-62
1.2318527e-61
-2.9633376e-60
3.0735488e-60
-2.8081489e-59
3.9339846e-59
-7.8134299e-59
1.9665486e-58
-3.4085095e-58
6.0990619e-58
-2.555946e-56
2.5523585e-56
-3.727275e-54
3.3409248e-54
-4.8465126e-52
3.9025979e-52
-5.6629064e-50
4.074588e-50
-6.0016171e-48
3.8302689e-48
-5.8157072e-46
3.258615e-46
-5.1899006e-44
2.5165357e-44
-4.2939851e-42
1.7648034e-42
-3.315535e-40
1.1209179e-40
-2.4045253e-38
6.3846722e-39
-1.6635774e-36
3.1776896e-37
-1.14398e-34
1.2630922e-35
-8.7845957e-33
1.907262e-34
-8.2976144e-31
-4.8309226e-32
-1.1745203e-28
-8.9919697e-30
-7.4584318e-27
-7.9175456e-28
-6.1296652e-26
-1.6511974e-26
-8.0436701e-26
-6.4626938e-26
-5.1485492e-26
-8.4329267e-26
-5.631766e-27
-4.4084693e-26
-1.1851942e-29
-4.8912269e-27
-1.0586417e-29
-1.7643728e-29
-1.2745899e-29
-2.1612469e-29
-2.1269831e-29
-4.2069958e-29
-3.102726e-29
-8.3713895e-29
-6.5886854e-29
-1.6176386e-28
-3.0530814e-28
-7.3974861e-28
-1.4433445e-27
-5.4515883e-27
-4.9150258e-27
-3.1901445e-26
-8.0765281e-27
-1.4932964e-25
1.3548e-26
-5.329985e-25
1.205341e-25
-1.4445621e-24
4.0993019e-25
-3.1464132e-24
8.4879239e-25
-5.6361688e-24
1.1324879e-24
-5.6853609e-24
8.3788482e-25
-4.343443e-24
4.3386458e-25
-2.2796503e-24
1.7349864e-25
-8.7470258e-25
4.9221206e-26
-2.5358218e-25
9.1443206e-27
-5.3572199e-26
1.1371366e-27
-7.8696846e-27
1.049254e-28
-8.2185473e-28
6.8754439e-30
-6.5878343e-29
2.1362601e-30
-2.5456997e-30
2.2573738e-30
-1.8179362e-30
3.0624454e-27
-3.0855278e-27
2.83582e-25
-2.6928799e-25
6.7894938e-25
-3.8760324e-25
4.9489573e-25
-2.7889808e-25
6.8212301e-26
-6.5276498e-26
1.1529583e-27
-2.6376412e-27
8.1760018e-30
-1.1287475e-29
1.1727795e-31
3.2976224e-31
2.3909015e-33
1.4336303e-32
4.7418131e-35
4.4782401e-34
7.335086e-37
1.0595462e-35
1.082674e-38
2.0997848e-37
1.5715841e-40
3.8286401e-39
2.1337325e-42
6.4291551e-41
2.6756165e-44
9.8839045e-43
3.090852e-46
1.3895265e-44
3.2684857e-48
1.7820229e-46
3.1392988e-50
2.0757079e-48
2.7149542e-52
2.183239e-50
2.1706362e-54
2.0585096e-52
4.9426197e-56
1.860797e-54
6.3818338e-57
7.7757424e-56
1.7029103e-57
9.2706801e-57
7.2804408e-58
3.3697469e-57
2.1667435e-58
1.2545785e-57
3.6195458e-59
2.9082514e-58
5.9603003e-60
6.666482e-59
2.9560773e-61
7.5223075e-60
4.4282766e-63
3.1441307e-61
3.3432935e-65
5.8640851e-63
1.8569569e-67
5.2806236e-65
1.600213e-69
5.7762362e-67
7.2318344e-72
4.6351148e-69
2.2123351e-74
2.498214e-71
6.9632583e-77
1.2404115e-73
1.6248958e-79
6.6737372e-76
-2.9277999e-82
3.6416643e-78
-6.7405099e-84
1.7680128e-80
1.5574022e-82
4.8096101e-82
6.8762325e-81
6.5938937e-80
6.3500716e-79
6.6895731e-78
9.3008138e-77
3.2787248e-76
1.1436951e-74
-2.4053999e-74
1.2256145e-72
-8.5920172e-72
1.1726786e-70
-1.7322579e-69
1.0623537e-68
-1.9954116e-67
8.885747e-67
-6.4480135e-66
4.5857518e-65
-8.1240238e-64
1.570965e-63
-2.5981065e-61
3.2596574e-61
-1.9719388e-59
2.8025619e-59
-5.2504394e-58
7.0688979e-58
-4.0371516e-57
7.3573394e-57
-1.1195816e-56
3.276653e-56
-5.4726202e-56
1.0581722e-55
-5.3689517e-54
5.9604604e-54
-8.5658559e-52
8.5386573e-52
-1.1834016e-49
1.0568605e-49
-1.4425092e-47
1.1479401e-47
-1.5739423e-45
1.1084215e-45
-1.5536932e-43
9.5924079e-44
-1.4003978e-41
7.4804617e-42
-1.1615576e-39
5.2645734e-40
-8.9354972e-38
3.3406669e-38
-6.4245927e-36
1.8964072e-36
-4.3772715e-34
9.4079643e-35
-2.9320385e-32
3.7671555e-33
-2.19535e-30
6.8738076e-32
-2.0812021e-28