/*--------------------------------*- C++ -*----------------------------------*\
  =========                 |
  \\      /  F ield         | OpenFOAM: The Open Source CFD Toolbox
   \\    /   O peration     | Website:  https://openfoam.org
    \\  /    A nd           | Version:  9
     \\/     M anipulation  |
\*---------------------------------------------------------------------------*/
FoamFile
{
    format      ascii;
    class       volScalarField;
    location    "0.44";
    object      p;
}
// * * * * * * * * * * * * * * * * * * * * * * * * * * * * * * * * * * * * * //

dimensions      [1 -1 -2 0 0 0 0];

internalField   nonuniform List<scalar> 
10000
(
0
-0.022877273
-0.051559165
-0.081161488
-0.11526659
-0.15380584
-0.19692369
-0.24473176
-0.29733169
-0.35470617
-0.41694307
-0.48392418
-0.5556231
-0.63192893
-0.71265227
-0.79766151
-0.88668789
-0.97940143
-1.0754727
-1.1744397
-1.2757785
-1.378933
-1.4832017
-1.5877668
-1.6917426
-1.7940851
-1.8935476
-1.9889538
-2.0792078
-2.1618007
-2.2356743
-2.3006266
-2.3548275
-2.3964353
-2.423644
-2.4346506
-2.4276267
-2.4007014
-2.3519784
-2.2795522
-2.1816288
-2.0565134
-1.9026968
-1.7189275
-1.5043131
-1.2583117
-0.98145024
-0.67417464
-0.33752406
0.027149336
0.41813307
0.83348211
1.2709551
1.7281062
2.2022427
2.6904372
3.1893821
3.6955498
4.2053201
4.715142
5.221522
5.7211661
6.2112428
6.689321
7.1533963
7.6017229
8.0326483
8.4449125
8.8386158
9.2133124
9.5692193
9.9065052
10.225323
10.52595
10.808754
11.074353
11.323315
11.556288
11.773897
11.976859
12.165818
12.341412
12.504231
12.654854
12.793859
12.921764
13.03906
13.146231
13.243669
13.331776
13.410936
13.481444
13.54363
13.597786
13.644119
13.682829
13.714092
13.737891
13.756257
13.764712
0.011050497
-0.012259677
-0.04095391
-0.070461986
-0.10459519
-0.14320651
-0.18645158
-0.23448019
-0.28727346
-0.3449672
-0.40745591
-0.47475077
-0.54679507
-0.62341723
-0.70453746
-0.78994832
-0.87936722
-0.97254796
-1.069114
-1.1686016
-1.2705554
-1.3743952
-1.4793968
-1.5847993
-1.6897463
-1.7932039
-1.8940329
-1.9910478
-2.0829293
-2.1680411
-2.2450049
-2.3127071
-2.3695308
-2.4137236
-2.4435155
-2.4570582
-2.4524266
-2.4277047
-2.3810336
-2.3105551
-2.2144458
-2.0910355
-1.9388748
-1.7567525
-1.5437182
-1.2988038
-1.0230256
-0.71632578
-0.37953717
-0.013857037
0.37911787
0.79738166
1.2385865
1.7001152
2.179027
2.672079
3.1758073
3.6865639
4.2006054
4.7143239
5.2242687
5.72714
6.2200377
6.7005195
7.1665385
7.616331
8.0484558
8.4619708
8.8563754
9.2316746
9.5877367
9.9247122
10.242909
10.54277
10.824748
11.089465
11.337569
11.569694
11.786473
11.988637
12.176862
12.351765
12.513946
12.663979
12.802443
12.92987
13.046747
13.15353
13.250641
13.338454
13.41734
13.487638
13.549641
13.603606
13.649784
13.688398
13.719636
13.7435
13.761974
13.770464
0.026407982
0.0044394431
-0.023469878
-0.052397595
-0.086252201
-0.12475003
-0.16804851
-0.21615579
-0.26920948
-0.32714124
-0.38997748
-0.45770357
-0.53018996
-0.60738309
-0.68914714
-0.77525534
-0.86552375
-0.95966097
-1.0572739
-1.1579761
-1.26132
-1.3666965
-1.4734556
-1.5808759
-1.6880865
-1.7940865
-1.8977965
-1.9980139
-2.0933814
-2.1825661
-2.2639459
-2.3361261
-2.3974785
-2.4462674
-2.4806711
-2.4987761
-2.4986244
-2.4782649
-2.4357772
-2.3692581
-2.2768897
-2.1569973
-2.0080915
-1.8288771
-1.6182486
-1.3748095
-1.1000813
-0.79349192
-0.45555993
-0.087384551
0.30946637
0.73294301
1.1805834
1.6495821
2.1367071
2.6383598
3.1507959
3.6701638
4.1925413
4.7140291
5.2310543
5.7403094
6.2388425
6.7241314
7.194096
7.6470281
8.0816223
8.4970214
8.8930213
9.2691015
9.6254051
9.9621701
10.27978
10.578759
10.859705
11.123253
11.370088
11.600905
11.816416
12.017306
12.204278
12.377977
12.539013
12.687968
12.825436
12.951933
13.067947
13.173932
13.270303
13.357435
13.435704
13.505454
13.566971
13.620494
13.666238
13.704428
13.735231
13.758784
13.777195
13.785692
0.041887209
0.022539132
-0.0039969105
-0.031976339
-0.065294864
-0.10355943
-0.14673299
-0.19493945
-0.24812531
-0.30632428
-0.36954583
-0.4376923
-0.5107304
-0.58859665
-0.67111696
-0.7581528
-0.84949801
-0.94483842
-1.0438601
-1.1462109
-1.2514094
-1.3589264
-1.4681616
-1.5783722
-1.6886978
-1.7982065
-1.9058496
-2.0104241
-2.1106227
-2.2048551
-2.2918446
-2.3699396
-2.4374306
-2.4925063
-2.5332562
-2.5576994
-2.5638284
-2.5496268
-2.5130563
-2.4521321
-2.3649953
-2.2499338
-2.1053578
-1.9299114
-1.7227293
-1.47941
-1.205986
-0.89877274
-0.55849596
-0.18622382
0.21651284
0.64765669
1.1045778
1.5841553
2.0828633
2.5967679
3.1216925
3.6534124
4.1877007
4.7204159
5.2476966
5.766079
6.2725862
6.7646253
7.240037
7.6972119
8.1349896
8.5526204
8.9497133
9.3261398
9.6821018
10.018017
10.334357
10.631744
10.910834
11.172397
11.417174
11.645904
11.859343
12.058223
12.243238
12.41507
12.574351
12.721683
12.857603
12.982669
13.097375
13.202129
13.297387
13.383512
13.460856
13.529771
13.590549
13.643428
13.688612
13.7263
13.756579
13.779586
13.797579
13.805593
0.061855773
0.045259143
0.020125218
-0.0067789434
-0.03952547
-0.077425279
-0.12052283
-0.16874302
-0.22209043
-0.28059362
-0.3441834
-0.41285171
-0.48656559
-0.56519651
-0.64865708
-0.73682861
-0.82947325
-0.92633875
-1.0271543
-1.1315606
-1.2391381
-1.3494201
-1.4618078
-1.5755739
-1.6899279
-1.8039964
-1.9167341
-2.0269453
-2.1333184
-2.2343973
-2.3286545
-2.414424
-2.4899155
-2.5532243
-2.6023522
-2.6352362
-2.6497657
-2.6437902
-2.6151601
-2.5618191
-2.4818134
-2.373264
-2.2343985
-2.063625
-1.8595352
-1.6202786
-1.3469786
-1.0384852
-0.69492901
-0.31710948
0.093533086
0.53490203
1.004209
1.4979893
2.0122604
2.5426183
3.0844205
3.6328914
4.1833181
4.7311794
5.2723412
5.8030584
6.3202126
6.8211865
7.3038142
7.7665105
8.2082697
8.628497
9.0269221
9.4036686
9.759013
10.093526
10.407921
10.70298
10.979458
11.238223
11.48012
11.705962
11.916548
12.112644
12.294995
12.464303
12.621216
12.766323
12.900201
13.023374
13.136314
13.239447
13.333218
13.418004
13.494157
13.561977
13.621765
13.673743
13.718159
13.755186
13.784888
13.807268
13.824793
13.832183
0.089117764
0.074079354
0.049727275
0.023757473
-0.0083935994
-0.046032859
-0.089004935
-0.13726241
-0.19081925
-0.24961156
-0.31364504
-0.38292014
-0.45735036
-0.53688113
-0.62146038
-0.71093374
-0.80511947
-0.9038244
-1.0067798
-1.1136726
-1.2241631
-1.3378057
-1.4540164
-1.5721444
-1.691479
-1.8111688
-1.9301879
-2.0473642
-2.161383
-2.2708147
-2.3740287
-2.4692888
-2.5546982
-2.6282569
-2.6878652
-2.7313213
-2.7563658
-2.7607144
-2.7421151
-2.6983935
-2.6274285
-2.5271493
-2.3955923
-2.230952
-2.0315863
-1.7959559
-1.5235782
-1.2136688
-0.86605607
-0.48127503
-0.060625673
0.39375263
0.87884694
1.3908
1.9250697
2.4765917
3.0400616
3.6100201
4.1811076
4.7482788
5.3070392
5.8533391
6.3838248
6.895807
7.3872057
7.8565148
8.3028738
8.7259159
9.125612
9.5022846
9.8565162
10.189029
10.500736
10.792637
11.06568
11.320789
11.558939
11.781067
11.988019
12.180615
12.359637
12.525767
12.679694
12.822032
12.953337
13.074129
13.184885
13.286013
13.377946
13.46107
13.535735
13.602206
13.660775
13.71166
13.75509
13.79124
13.820224
13.841931
13.858964
13.865591
0.12421705
0.10939134
0.084825676
0.059818331
0.028091577
-0.0092923323
-0.052178204
-0.10053365
-0.15427444
-0.21340343
-0.27794307
-0.34783853
-0.4230669
-0.50362405
-0.58942619
-0.6803632
-0.77631989
-0.87711458
-0.98251959
-1.092307
-1.2061748
-1.3236932
-1.4443608
-1.5676269
-1.692827
-1.8191377
-1.9455806
-2.0710303
-2.1941935
-2.3135543
-2.4274762
-2.5341186
-2.6314793
-2.7174312
-2.7897194
-2.8459804
-2.8837954
-2.9007359
-2.8944109
-2.8624773
-2.8026279
-2.712601
-2.5902141
-2.4334032
-2.2402621
-2.0089955
-1.7381962
-1.4270591
-1.0749018
-0.68191709
-0.24915547
0.22124505
0.72596418
1.2606124
1.8199537
2.3980524
2.9886568
3.5854281
4.182242
4.7733848
5.3537757
5.9190423
6.4656256
6.9907202
7.4923508
7.9691797
8.4205492
8.8464173
9.2470694
9.6231068
9.9753859
10.305011
10.613108
10.900848
11.169403
11.419886
11.653383
11.870918
12.073406
12.26174
12.436717
12.599051
12.749414
12.888431
13.016669
13.134619
13.242763
13.341517
13.431274
13.512426
13.5853
13.650169
13.707306
13.756915
13.799211
13.834361
13.862453
13.883374
13.899858
13.905783
0.1655808
0.15102418
0.1252228
0.10154457
0.070200461
0.032952492
-0.0099592225
-0.058402259
-0.11236203
-0.17187345
-0.23690825
-0.30746798
-0.383583
-0.4652219
-0.55233721
-0.64489071
-0.74278422
-0.8458697
-0.95400764
-1.0670229
-1.1846376
-1.3065014
-1.4322256
-1.5613329
-1.6932044
-1.827086
-1.9620823
-2.0971122
-2.2308849
-2.3618765
-2.4883644
-2.60841
-2.7198844
-2.8204905
-2.9077905
-2.9792513
-3.0322721
-3.0642301
-3.0725541
-3.0547306
-3.0082701
-2.9307022
-2.819599
-2.6726067
-2.4874649
-2.2619972
-1.9937308
-1.6820145
-1.3252128
-0.92296695
-0.47596213
0.01371767
0.54241915
1.105049
1.6953956
2.3063669
2.9304924
3.5602556
4.1884913
4.8087126
5.4151726
6.0030179
6.5684885
7.1087322
7.6218595
8.1068778
8.5634171
8.9918179
9.392754
9.7672606
10.11657
10.442145
10.745426
11.027852
11.29079
11.535536
11.763357
11.975362
12.172532
12.355786
12.525978
12.683841
12.83004
12.965203
13.089876
13.204541
13.309667
13.40567
13.492919
13.571803
13.642608
13.705622
13.761115
13.809291
13.85032
13.884389
13.911515
13.931505
13.94718
13.953176
0.21235532
0.19874467
0.17042949
0.14954798
0.11817329
0.080798409
0.037818803
-0.010754516
-0.064971117
-0.12483209
-0.19037264
-0.26164893
-0.33866418
-0.42141605
-0.50993016
-0.60419073
-0.70412846
-0.80968091
-0.92077412
-1.0372607
-1.1589386
-1.2855812
-1.4168881
-1.5524438
-1.6917266
-1.8340995
-1.9787567
-2.1246661
-2.2705642
-2.4149262
-2.5559474
-2.6915508
-2.819432
-2.9371059
-3.0419487
-3.1312082
-3.2020304
-3.2515672
-3.2770704
-3.2758609
-3.2452636
-3.1826076
-3.0852256
-2.9504001
-2.7754117
-2.5575505
-2.2939448
-1.9827081
-1.6216583
-1.2094473
-0.74612304
-0.23359408
0.32412582
0.92101582
1.5494961
2.2008872
2.8660751
3.5360046
4.2022347
4.8572316
5.4945465
6.1088238
6.6959728
7.2532383
7.7789516
8.2724784
8.7339417
9.1641516
9.5643222
9.936003
10.280958
10.601033
10.898052
11.173761
11.429773
11.667601
11.888632
12.094067
12.285013
12.46239
12.627067
12.779808
12.921257
13.052029
13.172649
13.283597
13.385316
13.478222
13.562677
13.639011
13.707513
13.768473
13.822094
13.868639
13.90829
13.941167
13.967318
13.986434
14.001379
14.00685
0.26388868
0.24848872
0.22392277
0.20507675
0.17199395
0.13428681
0.091197394
0.042478887
-0.011939837
-0.072136493
-0.13820384
-0.2101744
-0.2880723
-0.37196645
-0.46190737
-0.55790366
-0.65997055
-0.76811426
-0.88229171
-1.002428
-1.1284437
-1.2602124
-1.3975098
-1.5400288
-1.6873983
-1.8391177
-1.9944783
-2.1525384
-2.312109
-2.4716603
-2.6292895
-2.7827498
-2.9295234
-3.0669102
-3.1920467
-3.3018855
-3.393276
-3.4631276
-3.5084984
-3.5265603
-3.5145194
-3.4695416
-3.3886629
-3.2687501
-3.10663
-2.8990932
-2.6426896
-2.3339668
-1.9699757
-1.5477792
-1.0663016
-0.52697863
0.065754109
0.70458578
1.3799696
2.0809421
2.7962175
3.514783
4.2266051
4.9228874
5.5963005
6.240971
6.8525844
7.4284709
7.9673958
8.4692956
8.9349352
9.3657508
9.7636235
10.130739
10.469489
10.782254
11.071257
11.338611
11.586211
11.815808
12.028873
12.226695
12.410451
12.581118
12.739552
12.886519
13.022645
13.148509
13.264615
13.371434
13.469391
13.55887
13.640232
13.713757
13.779702
13.838375
13.889986
13.934769
13.972921
14.004541
14.02968
14.048266
14.06166
14.066931
0.32182126
0.30675406
0.28538885
0.26190439
0.23043588
0.19315678
0.1501577
0.10141876
0.046847752
-0.013677497
-0.080218226
-0.15282578
-0.23159107
-0.31660481
-0.40793896
-0.50568094
-0.60991807
-0.72068908
-0.83801152
-0.96192759
-1.0924646
-1.2295745
-1.3731495
-1.5230522
-1.6790796
-1.8408775
-2.0078886
-2.1793362
-2.3541485
-2.530796
-2.7072674
-2.8810987
-3.0494929
-3.209456
-3.3578403
-3.491283
-3.6062653
-3.6993325
-3.7673514
-3.8074851
-3.8169413
-3.7927106
-3.7314581
-3.6296495
-3.4837199
-3.2900177
-3.0444581
-2.7414751
-2.3773286
-1.946247
-1.4452365
-0.87475236
-0.23970424
0.45069684
1.1839964
1.9459723
2.7223216
3.4996107
4.2658979
5.0108399
5.7261063
6.4052776
7.0438854
7.6395588
8.1917308
8.7012029
9.1696082
9.5991539
9.9925624
10.352839
10.683071
10.986271
11.265218
11.522363
11.759881
11.97972
12.183522
12.372641
12.548259
12.71139
12.862866
13.003421
13.133664
13.254137
13.365341
13.467691
13.561551
13.64731
13.725263
13.795691
13.858871
13.91507
13.964501
14.007385
14.043894
14.074185
14.0981
14.116037
14.128568
14.133485
0.38547263
0.37085638
0.35051853
0.32573448
0.29467867
0.25769469
0.21487733
0.16617157
0.11147805
0.050702258
-0.016226743
-0.089420066
-0.16898878
-0.25503791
-0.34771458
-0.44718142
-0.55355045
-0.6669108
-0.78738775
-0.915127
-1.0502346
-1.1927721
-1.3428013
-1.5003725
-1.6654557
-1.8378962
-2.0173864
-2.2033897
-2.3949981
-2.590743
-2.7885212
-2.9855762
-3.1786313
-3.3642525
-3.5390814
-3.6994947
-3.8413486
-3.9606017
-4.0540891
-4.1192104
-4.1532903
-4.1531706
-4.1151077
-4.0350665
-3.9091206
-3.7334154
-3.5033128
-3.2123145
-2.8526099
-2.4156882
-1.8947443
-1.2882082
-0.6015803
0.15294183
0.95840964
1.7958254
2.6467634
3.4947883
4.325763
5.1277737
5.8912254
6.609096
7.2768482
7.8925695
8.457073
8.9725535
9.4415554
9.8671412
10.253126
10.603502
10.92231
11.213286
11.479741
11.724554
11.950189
12.158709
12.351912
12.531199
12.697728
12.852515
12.996348
13.129905
13.253772
13.368434
13.474336
13.571869
13.661339
13.743089
13.817394
13.884511
13.944731
13.998285
14.045378
14.086218
14.120939
14.149788
14.172587
14.189714
14.201458
14.206105
0.45447369
0.44035718
0.42060715
0.39567836
0.36481666
0.32809526
0.28546154
0.23681222
0.18207865
0.12115648
0.05391329
-0.01977166
-0.10001868
-0.1870026
-0.28094778
-0.38204218
-0.49043293
-0.60630009
-0.72986394
-0.86134157
-1.0009395
-1.1488779
-1.3053961
-1.4707218
-1.645041
-1.8284943
-2.0211161
-2.2226831
-2.4325624
-2.6495079
-2.8714156
-3.0950628
-3.316268
-3.5308881
-3.7356208
-3.926734
-4.099042
-4.2474724
-4.3691132
-4.4620225
-4.5239714
-4.5517995
-4.5410915
-4.4868513
-4.3848844
-4.2319529
-4.0238952
-3.7529847
-3.4063344
-2.970414
-2.4311765
-1.7831583
-1.0326411
-0.19682291
0.69988867
1.6312383
2.5733334
3.5063681
4.4139463
5.2824995
6.1010643
6.8618503
7.5601455
8.1946523
8.7689819
9.2878458
9.7544706
10.17246
10.547009
10.883665
11.187504
11.46311
11.714326
11.94445
12.15623
12.351823
12.533046
12.701352
12.857871
13.003554
13.139145
13.265246
13.382341
13.490849
13.591107
13.683478
13.768279
13.84577
13.916214
13.979841
14.036915
14.087648
14.132268
14.170943
14.20385
14.231118
14.252764
14.269094
14.28
14.284473
0.52875965
0.51537235
0.49612043
0.47139244
0.44085127
0.40439635
0.36195083
0.31344209
0.25877718
0.19778764
0.13034085
0.056316696
-0.024470675
-0.11226592
-0.20733557
-0.30988897
-0.42014553
-0.53837074
-0.66484816
-0.79987402
-0.9437867
-1.0969652
-1.2598045
-1.4327287
-1.6162189
-1.8107917
-2.0168938
-2.2347535
-2.4642426
-2.704612
-2.9539458
-3.2084372
-3.4621271
-3.7093007
-3.94735
-4.1733448
-4.3803853
-4.5607689
-4.7126342
-4.8356542
-4.928826
-4.9891951
-5.0109502
-4.9868998
-4.9123998
-4.7865164
-4.6082655
-4.369536
-4.0520317
-3.6300648
-3.0779426
-2.3822851
-1.5506006
-0.60882407
0.40570741
1.4550185
2.5082707
3.5427768
4.5406582
5.4866025
6.3678011
7.1755102
7.9045007
8.5535528
9.1329765
9.6516871
10.112038
10.517617
10.875622
11.19372
11.478395
11.735006
11.967993
12.180928
12.376748
12.557741
12.725649
12.881896
13.027577
13.163527
13.290365
13.408595
13.518575
13.620621
13.714993
13.801998
13.881906
13.954934
14.02132
14.081267
14.135037
14.182797
14.224808
14.261217
14.292212
14.317892
14.338311
14.353803
14.363968
14.368296
0.60854783
0.59597581
0.57726623
0.55294248
0.52275683
0.48659256
0.44442542
0.39615517
0.34163329
0.28070065
0.2132146
0.13900095
0.05782238
-0.030578845
-0.12656184
-0.23037005
-0.34228668
-0.46263155
-0.5917569
-0.7300684
-0.8780225
-1.0361128
-1.2048852
-1.3850075
-1.577305
-1.7827113
-2.0021874
-2.2366381
-2.4867642
-2.7527458
-3.0334441
-3.3247815
-3.6173323
-3.9003071
-4.1740384
-4.4398921
-4.6876345
-4.901928
-5.0847145
-5.2390042
-5.3665203
-5.4653631
-5.5269436
-5.5381378
-5.4922572
-5.3944288
-5.2541635
-5.0661883
-4.8043401
-4.4221885
-3.870185
-3.1196764
-2.1806218
-1.0950501
0.075719072
1.2740431
2.4612666
3.6152197
4.7189756
5.755121
6.7074272
7.5658122
8.3238582
8.9757328
9.5523978
10.068297
10.518183
10.904421
11.23933
11.533106
11.793836
12.027521
12.239049
12.4322
12.609975
12.77471
12.928056
13.071335
13.205523
13.331259
13.44897
13.559008
13.66163
13.757003
13.845305
13.926796
14.001672
14.070086
14.132246
14.188357
14.238675
14.283356
14.322637
14.356691
14.385703
14.409745
14.428905
14.443523
14.452988
14.457237
0.69413541
0.68233737
0.66426331
0.64033735
0.61051635
0.57473536
0.53293426
0.48497679
0.43071888
0.37001224
0.30265439
0.22839299
0.14698592
0.058337573
-0.038333951
-0.14316356
-0.25646898
-0.3786296
-0.51008762
-0.65134414
-0.80293099
-0.9654317
-1.1395579
-1.3262306
-1.5265967
-1.7420291
-1.9741607
-2.2248541
-2.4959855
-2.7892231
-3.1056479
-3.443193
-3.7862745
-4.1064077
-4.4182352
-4.7274902
-5.0264431
-5.2741136
-5.4854134
-5.6689174
-5.8326796
-5.9789931
-6.0938722
-6.1476372
-6.1253687
-6.0459724
-5.9488823
-5.8382728
-5.6792901
-5.3880318
-4.8646854
-4.0499776
-2.9598805
-1.6682274
-0.28308112
1.1032852
2.4468042
3.7372046
4.9645565
6.1074881
7.1409708
8.0537479
8.8384973
9.4641216
10.024941
10.540519
10.97666
11.333984
11.636767
11.899738
12.131566
12.338222
12.524996
12.695853
12.853656
13.000651
13.138389
13.267978
13.390157
13.505332
13.613725
13.715452
13.810602
13.899236
13.981416
14.057288
14.126991
14.190687
14.248498
14.300655
14.347388
14.388875
14.425334
14.456982
14.483947
14.506308
14.524195
14.537928
14.546735
14.550976
0.78584837
0.77465992
0.75712171
0.73355876
0.7041747
0.66884101
0.62746096
0.57992653
0.52610063
0.46579083
0.39872993
0.32460308
0.24301266
0.15482788
0.057582771
-0.047987647
-0.16235129
-0.28598558
-0.41942188
-0.56319752
-0.71788687
-0.88416422
-1.0628926
-1.2551912
-1.4624735
-1.6865696
-1.9299014
-2.1955234
-2.4868547
-2.8076917
-3.1637041
-3.5623177
-3.9836492
-4.3402901
-4.6882237
-5.0399528
-5.4149525
-5.6844351
-5.9142304
-6.1171151
-6.3151558
-6.5242503
-6.7222446
-6.8355992
-6.8179874
-6.7171247
-6.6576743
-6.6599695
-6.6890353
-6.5915614
-6.1552675
-5.2614141
-3.9429869
-2.3359579
-0.64424672
0.97411571
2.4841895
3.9211027
5.2939626
6.5691064
7.6954237
8.6694535
9.4694788
10.01599
10.547691
11.07536
11.490259
11.805591
12.063683
12.289214
12.487525
12.663424
12.822504
12.968788
13.104939
13.232985
13.354318
13.469735
13.579657
13.68419
13.783272
13.87678
13.964566
14.046519
14.122583
14.19283
14.257308
14.316189
14.369567
14.417673
14.460718
14.498923
14.532488
14.561638
14.586501
14.60717
14.623801
14.636654
14.644877
14.649185
0.88386882
0.87293599
0.85582307
0.83264
0.80369789
0.76883834
0.72797046
0.68100306
0.62776645
0.56802796
0.50150576
0.42788726
0.34684177
0.25814313
0.16123533
0.055350425
-0.059680008
-0.18440342
-0.31940045
-0.46520753
-0.62242459
-0.79177917
-0.97420475
-1.170926
-1.3835773
-1.6143927
-1.8664676
-2.1441165
-2.4528599
-2.7994246
-3.1962111
-3.671341
-4.2418198
-4.5339657
-4.7521404
-5.3624428
-5.8711599
-6.1371964
-6.3641014
-6.565446
-6.7827497
-7.0795134
-7.4333423
-7.6602223
-7.5994283
-7.351636
-7.2996674
-7.4515957
-7.8267074
-8.127485
-7.9207062
-6.9111406
-5.2126606
-3.0851937
-0.93158387
0.95134588
2.591423
4.1656542
5.719995
7.1765764
8.4003856
9.4646212
10.404284
10.890833
11.229668
11.717122
12.057352
12.296652
12.503927
12.693227
12.85606
12.998444
13.127606
13.247461
13.360541
13.468727
13.573183
13.674303
13.772048
13.866158
13.956237
14.041814
14.122481
14.197944
14.268038
14.332712
14.392007
14.446024
14.494907
14.538882
14.578167
14.613
14.643608
14.670182
14.6929
14.711868
14.727257
14.739246
14.747027
14.751504
0.98815883
0.9770873
0.96031653
0.93748699
0.90896561
0.87463455
0.83438589
0.78810706
0.73561345
0.67665367
0.61092241
0.53807319
0.4577169
0.36944433
0.27270434
0.16701979
0.051719034
-0.073668567
-0.20975527
-0.35709157
-0.51627405
-0.6879943
-0.87313651
-1.0729197
-1.2891074
-1.5242028
-1.7817101
-2.0669124
-2.3872846
-2.7517143
-3.1748499
-3.6863266
-3.9899467
-1.918597
-1.804561
-4.2365886
-6.2397006
-6.5603404
-6.8504619
-6.9945314
-7.1606464
-7.5702682
-8.2635516
-8.7837451
-8.5879233
-7.8124184
-7.7003998
-7.9988015
-9.0485252
-10.213804
-10.547584
-9.3266775
-6.8987929
-3.8553643
-0.94403437
1.1687761
2.7542649
4.4191898
6.2407544
7.9976532
9.3016588
10.591615
11.692854
12.468782
12.866746
12.913666
12.710353
12.783801
12.941522
13.101186
13.229971
13.337868
13.43575
13.527795
13.616733
13.704512
13.791975
13.879058
13.965153
14.049464
14.131151
14.209335
14.283338
14.352659
14.417021
14.47626
14.53043
14.579593
14.623947
14.663733
14.699178
14.730545
14.758113
14.78208
14.802623
14.819872
14.834034
14.845202
14.852689
14.857666
1.0987418
1.0868586
1.0703448
1.0479086
1.0198262
0.98607613
0.94652763
0.90106424
0.84949576
0.79153649
0.72685857
0.65508008
0.5757621
0.4883917
0.39236335
0.2870645
0.17197837
0.04639026
-0.090333843
-0.23874749
-0.39938028
-0.57279891
-0.75972624
-0.96122229
-1.1789516
-1.4154077
-1.674075
-1.9608181
-2.2862411
-2.6625752
-3.0977671
-3.6016565
-2.9039023
-1.7469581
-2.3676984
-3.4453683
-6.3099373
-7.2126847
-7.4898266
-7.385131
-7.2590581
-7.7489786
-9.2609813
-10.654627
-10.230919
-7.7581215
-7.4578162
-7.7475188
-10.237785
-13.262261
-14.65494
-12.96665
-9.1495707
-4.4501573
-0.15532281
1.9043181
2.7934293
4.4892343
6.8486972
9.142415
10.341545
11.784368
12.560254
12.960669
13.304658
13.710144
13.736098
13.165165
13.320712
13.492787
13.602551
13.677884
13.743111
13.805781
13.86952
13.936581
14.00738
14.081158
14.156583
14.232161
14.306441
14.378087
14.446106
14.509819
14.56878
14.622819
14.671946
14.716289
14.756099
14.791621
14.823128
14.850958
14.875396
14.896697
14.91504
14.93057
14.943542
14.953955
14.961294
14.96717
1.2108278
1.2011605
1.1855768
1.1637725
1.1360595
1.1028951
1.0641371
1.0196447
0.9691895
0.91246826
0.84913941
0.77879593
0.70093793
0.61492111
0.52006874
0.41567084
0.30116027
0.17590417
0.038923211
-0.11021078
-0.27189492
-0.4465067
-0.634486
-0.8365196
-1.0538731
-1.2887767
-1.5444741
-1.8283609
-2.1583956
-2.5422551
-2.9541941
-3.4522178
-3.7802703
-2.5268922
-2.8998253
-3.8988267
-7.2171993
-8.1328401
-8.4547356
-7.9381293
-6.6881991
-6.8032504
-10.439075
-14.451747
-13.960238
-6.9554978
-4.546978
-5.2940978
-11.033287
-18.033323
-21.546121
-18.392012
-12.397659
-4.5877651
2.9022237
3.871512
1.9174126
3.7970497
8.0041828
11.091117
11.931911
13.306326
13.84239
14.134097
14.275706
13.958614
14.763871
13.615443
13.67427
13.873484
13.976818
14.01856
14.047111
14.077444
14.1145
14.160669
14.215624
14.277483
14.343838
14.412271
14.480556
14.546861
14.609813
14.668565
14.722585
14.771694
14.815924
14.855494
14.890693
14.921859
14.949351
14.973551
14.994786
15.013357
15.029464
15.043299
15.055115
15.064815
15.072064
15.079063
1.3329553
1.3216037
1.3058824
1.2851524
1.2572968
1.2247474
1.1869064
1.1435219
1.0943616
1.039141
0.97750809
0.90901295
0.83305186
0.74889301
0.65577415
0.5528446
0.43922248
0.31498784
0.17806668
0.02844489
-0.13413181
-0.30975595
-0.49841173
-0.70012459
-0.91541995
-1.1459196
-1.3942503
-1.670581
-2.0010191
-2.3766754
-2.7706202
-3.3439523
-4.2523199
-4.0125452
-3.0995555
-4.8806632
-8.8763656
-9.6636558
-10.434347
-9.1692165
-4.294414
-2.0688093
-11.048679
-22.671578
-23.492653
-9.2443227
1.8685311
5.8206978
-6.7863984
-25.692106
-37.561121
-24.504378
-14.635087
-5.4846222
12.132743
7.8549305
-2.5380264
0.25469936
9.9134074
15.004393
14.461427
15.354844
14.573553
14.828822
14.620162
14.157705
14.078273
14.323815
14.149847
14.318126
14.374055
14.365322
14.346571
14.338402
14.346435
14.371818
14.412427
14.464555
14.524237
14.587786
14.652019
14.71453
14.773524
14.828148
14.877761
14.922225
14.961683
14.996479
15.026993
15.053686
15.077056
15.097523
15.115492
15.131296
15.145167
15.157331
15.168011
15.177013
15.18418
15.192451
1.4599866
1.4471102
1.4308122
1.408499
1.3826694
1.3512084
1.31442
1.272253
1.2245713
1.1711329
1.1115576
1.045323
0.97176512
0.89008954
0.79938158
0.69862192
0.58678999
0.46316472
0.32705597
0.17710309
0.013514987
-0.16340192
-0.35292207
-0.5540337
-0.76600227
-0.9891916
-1.2249989
-1.4844156
-1.7994834
-2.1601758
-2.5548403
-3.166435
-4.1105442
-5.3318014
-6.4100252
-8.4637685
-10.124128
-11.359027
-12.223905
-7.0166892
1.5045591
10.848295
-7.3690128
-37.27726
-46.406827
-27.100028
23.66698
59.691732
33.939805
-19.807591
-42.355803
-32.490874
6.5833932
14.063542
33.315359
5.0230781
-17.247721
-6.6640516
19.38708
24.173834
17.816656
16.041772
15.163275
15.612751
15.253364
14.711266
14.473269
14.629022
14.810031
14.862114
14.814711
14.720388
14.636345
14.58139
14.558027
14.56369
14.592747
14.638573
14.695008
14.7567
14.819403
14.880134
14.936328
14.987844
15.033608
15.073698
15.108447
15.138396
15.164119
15.186226
15.205329
15.221969
15.236623
15.249642
15.261291
15.271808
15.281405
15.289733
15.296725
15.306373
1.5915238
1.577209
1.5607655
1.5391233
1.5129675
1.482063
1.4462025
1.4052964
1.3592539
1.3078411
1.250652
1.187139
1.1165992
1.0381267
0.95060676
0.85280833
0.74345299
0.62140871
0.48581039
0.335726
0.17068267
-0.0083693548
-0.19977037
-0.40104956
-0.60941992
-0.82277377
-1.0399155
-1.2689494
-1.5451064
-1.8757597
-2.2343392
-2.7314019
-3.4911721
-4.6112413
-6.1940442
-8.7728966
-12.548807
-17.73167
-18.952626
-20.498461
0.3531691
38.123578
34.968847
-45.792222
-66.634088
-39.47177
-15.952165
152.75637
1518.8517
4644.7679
5558.6026
3070.867
267.63295
-295.74807
94.255179
4.4931242
-60.051456
47.308718
67.152765
32.335359
14.182092
13.320656
15.417646
17.073688
16.834011
16.097494
15.658095
15.549876
15.609062
15.487518
15.282014
15.066836
14.900061
14.792456
14.738161
14.727821
14.750423
14.795256
14.853238
14.917073
14.981369
15.042373
15.097898
15.147023
15.18939
15.225279
15.255317
15.280294
15.301051
15.318413
15.333108
15.345836
15.357134
15.367391
15.376861
15.385792
15.394383
15.402188
15.409272
15.420693
1.7270827
1.7112485
1.6946449
1.6731554
1.6470271
1.6165554
1.5815622
1.5419463
1.4976408
1.4484212
1.3939267
1.333653
1.2668307
1.1923825
1.1089874
1.0151745
0.90928347
0.78965449
0.65476718
0.50466064
0.33724126
0.15447851
-0.041025209
-0.24495025
-0.45143964
-0.65403084
-0.8462693
-1.0285355
-1.22926
-1.477915
-1.7377848
-2.102383
-2.6084795
-3.5378542
-5.2278089
-8.8031625
-14.989232
-24.168488
-33.018625
-44.813857
-50.346703
98.030012
207.79588
587.56007
2968.5187
5565.0655
4938.0867
3886.9422
5245.1627
7385.1613
8272.6197
6653.3372
3976.4843
2474.2206
1717.5951
1900.6315
1493.5472
431.01116
207.42558
23.313738
4.8614851
9.6247685
15.806361
19.664958
19.396681
18.304545
17.516049
17.005329
16.595364
16.176494
15.736646
15.36861
15.109154
14.950175
14.87134
14.853342
14.878108
14.92985
14.996015
15.067203
15.136878
15.200853
15.257134
15.304861
15.344227
15.375967
15.40117
15.420968
15.436516
15.448899
15.459067
15.467825
15.475773
15.483335
15.490738
15.498238
15.506057
15.513494
15.520705
15.534105
1.8661131
1.8486331
1.8317877
1.810227
1.7840714
1.7538994
1.719641
1.6812274
1.6386302
1.5917166
1.5402505
1.4837474
1.421359
1.3518946
1.2738291
1.1853299
1.0842426
0.96824527
0.83519826
0.68398408
0.51348775
0.32466627
0.12118059
-0.090504752
-0.30045993
-0.49565275
-0.66017015
-0.77942664
-0.85919254
-0.93734048
-1.0365291
-1.0759165
-1.2138371
-1.7655772
-3.2511425
-7.0997432
-13.570916
-24.362941
-47.911033
-84.726701
-228.01844
427.48431
-17.690793
2870.3592
6563.7661
6958.5316
6009.5531
5421.4931
5768.4041
6493.7198
6668.1598
6063.0557
5140.0561
4862.5866
5680.4192
6931.3989
4543.139
643.74178
320.94337
-132.66698
-30.033891
-1.2041268
16.492544
22.826558
22.181213
21.007639
19.674981
18.566009
17.625158
16.778956
16.081912
15.561635
15.219955
15.024513
14.937172
14.926889
14.967446
15.037409
15.120591
15.205609
15.284968
15.354823
15.413359
15.460436
15.496973
15.524425
15.544484
15.558776
15.568834
15.576029
15.581547
15.586313
15.591031
15.596093
15.601675
15.608011
15.615236
15.622459
15.629944
15.645609
2.0081005
1.9887209
1.9715054
1.9496833
1.9233147
1.893214
1.8594042
1.8219149
1.7808615
1.736286
1.6880679
1.6357747
1.5785776
1.5152403
1.444001
1.3625321
1.2680593
1.1574335
1.0274461
0.87564848
0.70089496
0.50275357
0.28543796
0.057203041
-0.16758898
-0.36759625
-0.51308818
-0.56592434
-0.49284652
-0.28827185
0.042475907
0.4929081
0.92751313
1.1674562
0.74119848
-1.7898828
-6.5583782
-13.39127
-32.671127
-53.869457
1364.7804
4617.0365
4806.1471
5039.1434
5855.8253
6067.874
5855.5425
5687.6674
5797.4714
6016.6544
6043.1295
5790.311
5447.4915
5341.8292
5605.6481
5991.0869
5572.1354
4688.2689
3993.0715
910.42184
-6.9042154
-10.202521
20.806008
26.986125
25.795176
24.159928
21.631905
19.468448
18.032485
17.0003
16.148125
15.547627
15.171092
14.975674
14.910136
14.93276
15.00937
15.113048
15.224543
15.331142
15.424952
15.503467
15.565542
15.612342
15.645937
15.668731
15.683171
15.691529
15.695792
15.697654
15.698477
15.699329
15.701145
15.704082
15.708201
15.713694
15.720619
15.727878
15.735848
15.754131
2.1524627
2.1308755
2.1131158
2.0907905
2.0638969
2.0334847
1.9996779
1.9626394
1.9226896
1.8802032
1.8352013
1.7874178
1.7361906
1.6802795
1.6176503
1.5454532
1.4601495
1.3575356
1.232946
1.0820529
0.90188916
0.69105425
0.45229395
0.19436868
-0.065057444
-0.29639855
-0.4540216
-0.47043074
-0.2611064
0.24481571
1.1043944
2.2783853
3.2715148
4.2553605
5.7803042
6.4125207
-2.2471545
-15.534598
13.659089
458.14772
5294.4885
6191.4864
5613.9359
5405.5272
5611.7731
5711.7387
5674.182
5634.9265
5673.868
5739.3626
5730.3792
5616.2377
5472.6393
5420.0256
5507.6824
5613.1454
5524.4791
5566.7486
5858.4814
4637.5609
504.52349
-47.575885
47.325267
45.45234
33.964027
28.216022
22.013
18.352798
16.992493
16.404057
15.770902
15.222117
14.891967
14.757387
14.761402
14.854475
14.99527
15.152672
15.306022
15.442655
15.556346
15.645699
15.711977
15.758332
15.788486
15.80601
15.814253
15.816232
15.81448
15.811013
15.807269
15.804313