/*--------------------------------*- C++ -*----------------------------------*\
  =========                 |
  \\      /  F ield         | OpenFOAM: The Open Source CFD Toolbox
   \\    /   O peration     | Website:  https://openfoam.org
    \\  /    A nd           | Version:  9
     \\/     M anipulation  |
\*---------------------------------------------------------------------------*/
FoamFile
{
    format      ascii;
    class       volScalarField;
    location    "33";
    object      p;
}
// * * * * * * * * * * * * * * * * * * * * * * * * * * * * * * * * * * * * * //

dimensions      [0 2 -2 0 0 0 0];

internalField   nonuniform List<scalar> 
400
(
4.503928e-08
-0.00067282534
-0.0013853026
-0.0019426605
-0.0022199536
-0.0021564502
-0.0017277456
-0.00092615499
0.00023546537
0.0017074496
0.0033873296
0.0051122392
0.0066735222
0.0078491494
0.00845844
0.0084237374
0.0078134509
0.0068445691
0.0058613463
0.0052989871
0.00065788926
-4.0477379e-05
-0.00056961118
-0.00094057692
-0.0011108146
-0.0010398722
-0.00070574149
-9.5496537e-05
0.00078914642
0.0019162317
0.0032096293
0.0045547472
0.0057820058
0.0067163023
0.0072144731
0.0072145796
0.0067700048
0.0060528159
0.0053105719
0.0047385295
0.001423747
0.00044069771
-0.00011655208
-0.00045319524
-0.0006147605
-0.00058476313
-0.00034653224
0.00011979013
0.00082850436
0.0017699487
0.0028943316
0.0040982026
0.0052282761
0.00611101
0.0065939085
0.0065977077
0.0061557829
0.0054215552
0.0045937887
0.0037482775
0.0020142417
0.00068173196
1.6815958e-05
-0.00035880636
-0.00057150256
-0.00062651328
-0.00051003667
-0.00019058539
0.00036854614
0.0011844284
0.0022299533
0.0034174644
0.0045914011
0.0055569759
0.0061235919
0.0061666035
0.0056836659
0.0048170953
0.003747336
0.0024736429
0.0021673124
0.00049616131
-0.00029621491
-0.00074866043
-0.001058208
-0.0012452257
-0.0012927048
-0.0011512584
-0.00075500621
-5.3056201e-05
0.00095706738
0.002210324
0.0035447494
0.0047327025
0.0055218831
0.0057099246
0.0052293278
0.0042016457
0.002806226
0.00098400404
0.0016540033
-0.00031443712
-0.0012387452
-0.001799258
-0.0022526183
-0.002627866
-0.0028985791
-0.0029910414
-0.002802495
-0.0022376337
-0.0012510522
0.00013093543
0.0017446883
0.0033271506
0.0045416824
0.0050658151
0.0047175307
0.003566235
0.001789632
-0.00072588225
0.00028706576
-0.001919529
-0.002972957
-0.0036713406
-0.0043202538
-0.0049531575
-0.0055300792
-0.0059479153
-0.0060589661
-0.0057073423
-0.0047756751
-0.0032586563
-0.0012664717
0.00090721474
0.0028231632
0.0039868713
0.0040251282
0.0028877425
0.00071541525
-0.0026804634
-0.0020763889
-0.0044511508
-0.0056267627
-0.0064922814
-0.0073928783
-0.00836572
-0.0093568796
-0.010231745
-0.010790937
-0.010804809
-0.010063327
-0.0084617264
-0.0060407319
-0.0030831822
-0.0001262721
0.0021126571
0.0029638604
0.0021356152
-0.00036599958
-0.0048725755
-0.005524127
-0.0079920736
-0.0092778798
-0.010333748
-0.011537957
-0.012935375
-0.014462667
-0.01595628
-0.017162431
-0.017766005
-0.017438053
-0.015919443
-0.013122925
-0.0092517249
-0.0048989741
-0.0010299825
0.0012694428
0.0012777969
-0.0013339244
-0.0072016436
-0.010076873
-0.012565057
-0.013936625
-0.015183963
-0.016718339
-0.018602584
-0.020774161
-0.023048726
-0.02512165
-0.026586323
-0.026969325
-0.025812916
-0.022845648
-0.018074418
-0.01205106
-0.0059519214
-0.0013707071
0.00030062657
-0.0019471697
-0.0093821914
-0.015684948
-0.018132375
-0.01953752
-0.020926771
-0.0227577
-0.02512984
-0.027996975
-0.031166371
-0.034291436
-0.036876819
-0.03829415
-0.037844259
-0.035065833
-0.029601443
-0.021822468
-0.012985546
-0.0051849443
-0.00071571848
-0.0017641665
-0.010792222
-0.022243562
-0.024613
-0.025945559
-0.027334925
-0.029324127
-0.032079193
-0.035588914
-0.039664628
-0.043927248
-0.047801276
-0.050530164
-0.051236459
-0.048956857
-0.043143524
-0.03376899
-0.021926314
-0.010036853
-0.0014154122
-9.8342257e-06
-0.010225586
-0.029641184
-0.031923859
-0.032978711
-0.034079839
-0.035939484
-0.038831486
-0.042795585
-0.047651564
-0.052990518
-0.058163569
-0.062284225
-0.064265508
-0.062875135
-0.057112163
-0.046476717
-0.031649059
-0.015037831
-0.00086435755
0.0046467968
-0.0055215035
-0.037865979
-0.040048484
-0.040440101
-0.040752481
-0.042015026
-0.044653045
-0.048758165
-0.054144033
-0.060356013
-0.06666533
-0.072060668
-0.075268259
-0.074811337
-0.069269241
-0.057628281
-0.03996148
-0.01824794
0.0027890717
0.014445192
0.006907583
-0.047230564
-0.049134339
-0.048140548
-0.046882253
-0.046905471
-0.048798676
-0.052668271
-0.058275989
-0.065076077
-0.072231975
-0.078595747
-0.082712298
-0.082880185
-0.077309365
-0.064523911
-0.043934925
-0.016747956
0.012502982
0.032938821
0.03240899
-0.058896766
-0.059639864
-0.055883891
-0.051941013
-0.049972278
-0.050629851
-0.05392863
-0.059495324
-0.066611839
-0.074285275
-0.081191147
-0.085679383
-0.085831774
-0.07952217
-0.064876073
-0.040689237
-0.0072408871
0.032139408
0.064981488
0.07774922
-0.076226494
-0.072613705
-0.063516161
-0.055435353
-0.050724983
-0.049781561
-0.052312312
-0.057664344
-0.0648918
-0.072774951
-0.079779346
-0.084036727
-0.083391633
-0.075348939
-0.057602648
-0.028375111
0.012933362
0.065396514
0.11555155
0.15150626
-0.10809223
-0.089556312
-0.071233813
-0.057232991
-0.049072111
-0.046330189
-0.048077237
-0.053202582
-0.060434601
-0.068295845
-0.075027374
-0.078526894
-0.076388987
-0.065809654
-0.043865455
-0.0078184192
0.044393703
0.11299819
0.18838046
0.27186081
-0.17684554
-0.10828967
-0.076202453
-0.054651217
-0.042992361
-0.03899801
-0.040570489
-0.045928021
-0.053441516
-0.061438338
-0.068027565
-0.070962539
-0.067551113
-0.054739814
-0.02914879
0.013563629
0.07814699
0.17006439
0.2894955
0.47421826
-0.37208358
-0.12470851
-0.054973063
-0.031962498
-0.022063536
-0.020300501
-0.024359436
-0.031957979
-0.041261539
-0.050640866
-0.058316881
-0.062187444
-0.059782534
-0.048056789
-0.022658505
0.021474235
0.092818753
0.2101528
0.40288846
0.77640932
)
;

boundaryField
{
    movingWall
    {
        type            zeroGradient;
    }
    fixedWalls
    {
        type            zeroGradient;
    }
    frontAndBack
    {
        type            empty;
    }
}


// ************************************************************************* //
