/*--------------------------------*- C++ -*----------------------------------*\
  =========                 |
  \\      /  F ield         | OpenFOAM: The Open Source CFD Toolbox
   \\    /   O peration     | Website:  https://openfoam.org
    \\  /    A nd           | Version:  9
     \\/     M anipulation  |
\*---------------------------------------------------------------------------*/
FoamFile
{
    format      ascii;
    class       volScalarField;
    location    "34";
    object      p;
}
// * * * * * * * * * * * * * * * * * * * * * * * * * * * * * * * * * * * * * //

dimensions      [0 2 -2 0 0 0 0];

internalField   nonuniform List<scalar> 
918
(
0.53029879
1.7966563
0.014282307
0.5015264
-0.0090483533
1.7673226
-0.92038294
1.2960135
0.55469245
-0.16731783
-0.051459111
0.71748574
1.6387065
1.3977539
-0.68164845
-0.026386751
1.1300299
-0.76055147
0.55865923
-0.062099626
1.3949012
0.50100605
0.52764745
0.50171152
0.88894091
1.3666593
1.5017456
0.0077959522
0.0011848518
-0.012190853
-0.0052562472
-0.054693534
-0.036077571
1.6435999
1.6976197
1.7213062
0.51860125
0.57202973
-0.70911436
-0.79172433
-0.78206721
-1.0041161
1.2787359
1.2705695
-0.35435845
1.3064763
1.3218842
0.51321161
0.55042645
0.56208307
0.49685839
0.52857381
0.54408129
0.47980013
-0.18053627
-0.24054461
-0.1257713
-0.10716722
0.06334683
-0.045568394
-0.049297632
-0.041449461
-0.037592659
0.53290759
0.69082394
0.66806043
0.73486314
0.77212888
1.7337522
1.6971967
1.7241737
1.6709965
1.6613018
1.6185449
1.5816916
1.4367235
1.4441935
1.3949661
1.3582143
-1.2123429
-2.2562502
-0.10226728
0.20373312
-0.0026012833
-0.0096748888
0.0038103042
1.1064731
1.092258
1.1504089
1.1750524
1.2937287
-0.70281368
-0.96487336
0.56193428
0.55706044
0.54356885
0.52526612
0.57201855
0.61718159
-0.046982206
-0.042360697
-0.070598283
-0.05529533
-0.0541162
1.3765086
1.3691422
0.51616809
0.52049168
0.79055762
0.84862621
0.82819773
0.36179818
0.9032422
0.92083196
1.1758095
1.3657595
1.3733567
1.3564198
1.4880154
1.4434827
1.5483847
1.5739506
0.026879666
0.0037056606
-0.010518568
-0.029351755
-0.0069065021
0.52776899
0.52679653
0.56722903
0.51953442
0.52495748
0.51657122
0.37657187
0.65855742
0.67622203
-0.5596261
-0.61199387
-0.82254182
-0.8427168
-1.035007
0.91065968
1.2527388
1.2407831
-0.41607201
-0.2951375
-0.46718675
-0.20920619
-0.25483515
0.52110582
0.52463045
0.52076981
0.5155589
0.51682696
0.51809415
0.53885713
0.53801874
0.55366049
0.55103228
0.69100732
0.42742199
0.37148902
-0.46108742
-0.26831961
-0.44242919
-0.089196051
-0.07865549
0.090055452
0.13856561
0.068029802
0.06454797
-0.068030296
-0.05370157
-0.060748967
-0.038579922
-0.036235704
0.52342838
0.52022059
0.53189955
0.53717336
0.6083087
0.61650595
0.64748603
0.63340961
1.5076694
1.5313291
1.5760123
1.5389356
-3.6496375
-6.335265
0.53064746
0.71125153
-0.0072466083
-0.0042559223
0.0055297684
0.0010813713
0.0031855097
-0.010129204
0.022024679
0.014835589
0.0073556887
0.014583478
1.0586089
1.0429964
1.2414082
1.2786984
1.1588403
1.1488476
0.56649917
0.5635728
0.57033531
0.56154196
-0.03730976
-0.040310565
-0.036863091
1.3312501
1.356807
1.3465493
0.27758143
0.18610804
0.40345766
0.44610339
1.0091192
0.95721679
0.99077822
1.2500815
1.2836803
1.5634081
1.5754271
1.613321
1.6100793
1.6583667
1.6506817
1.609161
0.5299104
0.52857714
0.5352893
0.56369124
0.56772508
0.56775406
0.59263976
0.58181293
0.58371184
0.21132986
-0.12614311
0.74122078
0.73803285
0.72119447
0.71275719
0.98455632
1.0742563
1.1864247
1.2202269
1.2082505
-0.10724474
-0.13249052
0.30259948
0.2759617
0.46984117
0.50359279
0.49516384
1.4817571
1.4819962
1.5284588
1.4906845
1.4320248
1.4548384
-0.15218546
-1.3155028
-0.70106161
1.110064
0.89245417
0.99575322
0.025653676
0.024127781
0.0022222606
1.2506601
1.3126395
0.75051825
0.99961916
1.0011596
1.3301228
1.3525575
1.4246205
1.3509098
1.3769262
1.4006898
1.3836269
0.85946865
0.77223722
0.7919233
1.1211946
1.1742526
0.10968561
-0.00014340769
-0.0086754926
0.15021764
0.20785938
0.17372689
1.2798343
1.2179822
1.2888196
0.52749391
0.5197798
0.0049667693
0.012094837
0.56446021
0.53966773
-0.025133409
-0.0037105943
0.972873
-0.4254091
0.12775221
0.57128386
0.53743283
0.54423212
-0.16124695
0.44321984
-0.040065935
0.063931619
-0.00042390085
0.69946361
0.55385231
0.52430751
-0.0016627151
-0.031156159
-0.036436297
-0.37486129
0.53448231
0.51318958
0.53291223
0.51588518
0.5495695
-0.016334036
-0.0094264016
-0.002397524
-0.038901446
-0.030229584
-0.043860246
0.53514819
0.58707659
-0.29238638
0.5499505
0.53892204
0.55459493
0.51996279
0.57649435
0.53094942
-0.0086824472
-0.010329542
-0.0037249555
0.30489115
0.46225402
1.2861741
1.4255855
1.3140463
0.92537963
0.59580552
1.1443144
1.2397859
1.1077869
1.2787944
1.2403926
1.2905016
0.21217053
-0.001474482
0.2399207
0.13184878
0.56650619
0.56937915
0.53263494
0.52591601
0.55177793
0.52384369
0.55418636
0.5589987
0.55726141
0.57252301
-0.088061511
-0.12586232
-0.15322121
-0.23982041
0.45664465
0.73213058
0.35709351
0.3948059
0.19206062
-0.033953669
-0.038543874
-0.037877609
-0.051563982
0.031448378
-0.031222239
0.084025131
0.081035847
0.054812794
0.0053500474
-0.0015173753
-0.0282179
0.013184196
0.65329282
0.63486124
0.69469113
0.74339442
0.54853619
0.53564132
0.53029679
0.55181898
0.53239338
0.47049955
0.52582506
0.48840386
-0.0095191455
-0.0055147565
-0.0087772243
-0.017031529
0.0010347517
-0.012759395
-0.016014317
-0.018661305
-0.01711999
-0.021079912
-0.03658222
-0.040168863
-0.32859391
-0.48796885
1.1966967
1.055779
0.24303514
0.50965586
0.5115586
0.49695615
0.54053401
0.52866535
0.53153289
0.53129368
0.52760631
0.53937116
0.54333024
0.58527551
0.59587628
-0.21707457
-0.4305104
-0.1900081
-0.26584529
0.43906991
1.0204238
0.47103388
0.37423927
0.37538617
0.82523868
1.5266676
1.3817135
1.3673144
1.3880665
-0.069347315
0.40496152
0.12281465
0.8007269
1.0323617
1.2561732
1.3122913
1.3160455
1.286298
1.2252416
0.015978499
1.0391733
-0.13182568
-0.094649415
0.27545603
0.050913019
1.3104797
1.2041711
1.2000885
1.2803353
1.3143234
1.2337086
1.1915509
1.2067737
1.2620841
1.2595887
0.92034941
0.34932912
0.24650362
0.21208683
1.141757
0.98409845
1.0795166
0.86149645
0.5534352
0.57426949
0.55777558
0.5067882
0.52838814
0.50541044
0.55648304
0.58525882
0.56656297
0.54225917
0.56627419
0.54051959
-0.082946658
-0.086418773
-0.037670751
-0.2510643
-0.23054973
-0.34359712
-0.11994469
0.11129059
0.076747241
0.29426815
0.42465805
0.064968212
-0.13680132
-0.075424929
-0.013621505
0.20860183
0.26333435
0.13135084
0.19003965
0.18116956
0.15588139
0.29781942
0.30180563
-0.0064275171
-0.00015394978
-0.024034535
-0.021664504
0.050331054
0.16011564
0.16142782
0.017975735
0.0059070207
-0.032680768
-0.03430472
0.020308906
-0.013895581
0.0077444148
0.028687463
-0.018520158
0.013362317
0.0095697772
0.0020502028
0.025046188
0.020401072
0.61427121
0.62038095
0.61135828
0.7743934
0.76697975
0.8021462
0.77715849
0.53744594
0.53825272
0.53350835
0.57482861
0.55138627
0.58375797
0.60665143
0.65180045
0.66517223
0.59168304
0.569969
0.63407482
0.59155202
0.58194974
0.59433546
0.60562949
0.54127418
0.55424552
-0.024544561
0.002870048
0.016939188
-0.058702979
0.0052351339
-0.015306938
0.0045364728
0.040275305
-0.00601196
0.017142611
0.007918046
-0.017747731
-0.0077402476
-0.14889076
0.017082358
-0.38823705
-0.41809712
-0.51566631
1.0894616
1.2468854
0.98985527
0.71051653
0.74344027
1.0276378
1.1698775
0.68419547
0.81587907
0.92894297
0.87570671
1.1097538
0.53441857
0.52571974
0.53769156
0.51278533
0.54494691
-0.01951728
0.19960399
0.11662596
0.30550872
0.55432587
0.60485381
0.39690913
0.33620169
0.49696126
0.39502846
1.0224243
1.055824
0.91634007
0.97811895
0.96267412
0.62766379
0.85610399
0.99181066
0.86648489
0.92337304
0.96157225
0.90965595
0.96730519
0.86348456
0.74570654
0.77635876
0.56134889
0.64341709
0.59415702
0.54665514
0.68475794
0.63950445
0.68308342
0.66368632
0.7305347
0.83027544
0.81155117
0.82176042
0.87058143
0.71855352
0.63899383
0.66333088
0.73895224
0.60837097
0.63034852
0.67337359
0.41024744
0.42119058
0.30551836
0.21798299
0.2955715
0.13899808
0.1163736
0.15022423
0.45821227
-0.1614326
-0.15209672
-0.52040314
0.89818881
1.5462414
1.2350738
1.2239905
1.317529
1.2860441
1.2810201
1.3339902
1.3363627
1.134714
1.1838197
1.1774588
1.1262328
1.1706712
1.2667914
1.2441918
0.98304643
0.6632286
0.63199259
0.57104495
0.28457895
0.38017301
0.78458548
0.62541655
0.46350437
0.4402534
0.76559315
0.50061188
0.63580169
0.77881733
0.59878672
0.49341204
0.95165359
1.0807896
1.0698589
1.0169715
0.85435191
0.90825052
0.98932259
1.0623812
1.1010366
1.1751282
0.53128468
0.54648271
0.54025676
0.52035785
0.54631362
0.55766576
0.55672816
0.54679408
0.55295769
0.55767482
0.56843716
-0.049714339
-0.035379333
-0.058492406
-0.067455202
-0.01110763
-0.03101357
0.047391226
0.021239943
-0.0016506744
0.0066188325
-0.032080499
-0.049130717
-0.028961999
-0.011493454
0.16549024
0.20090468
0.14629049
0.13109211
0.33259532
0.47196783
0.5270931
0.44534761
0.26294497
0.2876013
0.35544492
0.045004382
0.059452344
0.072115203
0.094637144
0.099846221
-0.0279772
-0.03105294
-0.023276617
-0.02150064
-0.0062411255
-0.026716833
-0.035484978
-0.025631543
-0.025272501
-0.030220675
-0.036977986
0.53749408
0.55184901
0.59886414
0.56057621
0.55956945
0.59244954
0.56957592
0.58572824
0.59167328
0.61718012
0.59852996
0.63273198
0.62562533
-0.016828562
-0.020372931
-0.038342616
-0.023747155
-0.020030685
-0.018974339
-0.025656736
0.24625003
0.10371445
0.13826852
0.016985182
-0.22649194
-0.11795509
0.62360114
0.75537414
0.75534789
0.97965132
0.76700571
0.71643193
0.86213209
0.9834681
0.41485251
0.64563335
0.45655049
1.1112476
1.0154485
1.1890977
0.73439733
0.42240783
0.6751748
0.76105635
0.44570574
0.56088089
0.53640294
0.35968647
0.42619139
0.46264949
0.63191722
0.43565737
0.48523173
0.41389575
0.43179263
0.49700275
0.51347188
0.62039102
0.68060831
0.34911289
0.31982433
0.24936981
1.0406503
1.0596481
1.0940305
1.0845948
1.1119888
0.89028659
0.88115769
0.92177973
0.91829103
0.88947528
-0.34823077
-0.44251312
-0.78579037
-0.23626289
0.37877257
0.94823726
0.82091067
1.3996799
1.1279002
1.3332215
1.27616
1.2209316
1.1279289
1.1305188
1.2090805
0.59540856
0.79876932
0.77539018
0.72793425
0.5265986
0.4298256
1.0548315
1.0302085
1.1096827
1.1424363
1.0780411
1.1595282
0.55213626
0.56994718
0.5488882
0.56220464
0.54412675
0.55431346
0.088268388
0.032468843
0.14578735
0.12573041
0.047704153
0.02095442
-0.0096934947
-0.0033756074
-0.019949706
-0.01439204
-0.0030958603
0.0029409961
0.26879008
0.230559
0.032217219
0.14519554
-0.038636701
-0.13451746
-0.19570711
-0.0044937246
0.12930337
0.14383225
0.54567159
0.83015503
0.67357702
0.78522489
0.61152435
0.72167003
0.70692086
0.67171634
0.7086776
0.58405484
0.59757226
0.63030269
-0.16342014
0.17111193
1.452774
1.3887906
0.99183232
0.84320018
0.78474717
1.1105473
1.013805
0.84446028
0.95451339
1.0777161
1.0586635
0.40204282
0.37269892
0.74435899
0.87943628
0.4956749
0.38189349
0.34509616
0.51774125
0.5673122
)
;

boundaryField
{
    wall-4
    {
        type            zeroGradient;
    }
    velocity-inlet-5
    {
        type            zeroGradient;
    }
    velocity-inlet-6
    {
        type            zeroGradient;
    }
    pressure-outlet-7
    {
        type            fixedValue;
        value           uniform 0;
    }
    wall-8
    {
        type            zeroGradient;
    }
    frontAndBackPlanes
    {
        type            empty;
    }
}


// ************************************************************************* //
