/*--------------------------------*- C++ -*----------------------------------*\
  =========                 |
  \\      /  F ield         | OpenFOAM: The Open Source CFD Toolbox
   \\    /   O peration     | Website:  https://openfoam.org
    \\  /    A nd           | Version:  9
     \\/     M anipulation  |
\*---------------------------------------------------------------------------*/
FoamFile
{
    format      ascii;
    class       surfaceScalarField;
    location    "34";
    object      phi;
}
// * * * * * * * * * * * * * * * * * * * * * * * * * * * * * * * * * * * * * //

dimensions      [0 3 -1 0 0 0 0];

internalField   nonuniform List<scalar> 
1300
(
1.7582594
5.6264299
-5.1489945
1.7582594
-8.5302692
5.6264299
-5.759596
5.759596
-1.1181823
1.1181823
3.7331095
3.6515798
-4.2510996
4.2510996
-3.6463754
3.6463754
-1.2087494
1.2087494
-5.2377176
5.2377176
-5.0572821
5.0572821
4.7466922
-4.7466922
-6.8991358
6.8991358
-1.2577274
1.2577274
-5.4117838
5.4117838
1.4953048
-1.4953048
-3.6079068
3.6079068
-0.17712203
0.17712203
-0.5718835
5.1433578
1.1863759
1.1863759
-1.2648638
1.2648638
-4.8568802
4.8568802
6.2141978
-6.2141978
7.9677696
-7.9677696
-2.8187751
-3.3283767
1.9866847
-12.505148
-6.5435845
-6.5435845
-8.4382653
8.4382653
-2.8118355
2.8145945
1.4496781
-1.4496781
-1.7823296
1.7823296
-5.5939531
-0.16564297
-5.5939531
5.8983951
-0.13879913
5.8983951
-1.2413642
0.12318192
-1.2413642
4.7234042
-4.7234042
0.95686668
0.16131558
0.95686669
1.2568808
-1.2568808
-3.7387255
7.471835
3.6459638
-3.0532953
8.1966532
-3.3936557
7.0452354
-6.5291462
6.5291462
-4.5472422
0.29614261
-4.5472422
4.0299494
0.22115028
4.0299494
-7.456829
7.456829
-3.6931297
0.046754321
-3.6931297
3.6212065
0.025168828
3.6212065
2.1234443
-2.1234443
-1.1530655
-0.055683934
-1.1530655
1.2553419
-0.046592528
1.2553419
0.35898259
5.2674474
-5.9854124
8.8000069
-5.2674474
0.029729794
5.2000805
0.03763699
5.2000805
-5.0936872
0.036405094
-5.0936872
5.0147722
0.042509837
5.0147722
4.843413
-0.096720823
4.843413
-4.8484996
0.10180727
-4.8484995
-4.0264992
-4.4663749
-7.0722831
0.17314727
-7.0722831
-1.1858461
-0.071881221
-1.1858461
1.3338062
-0.076078778
1.3338062
-4.1050535
4.1050535
-5.8060334
0.39424959
-5.8060334
1.3657291
0.12957567
1.3657291
2.0096726
2.5618017
3.767932
-3.767932
2.2726272
-3.5838515
-0.024055341
-3.5838515
-3.6905065
-4.2772631
3.6905065
-0.082599688
-0.55438656
0.37726455
-0.55438658
1.2390378
-0.052661969
1.2390378
1.2815631
-0.026221156
-1.2815631
0.016699283
3.3617663
-3.3617663
0.82112238
0.4437414
0.82112238
-5.5735915
5.5735915
4.9550477
0.05972451
-4.9550477
0.098167609
6.153614
0.060583736
6.153614
-6.1926816
-0.021516148
-6.1926816
3.461234
-6.7896107
-3.4516707
6.7221197
0.1770161
-6.7221197
0.1785352
1.5732621
-0.12358394
1.573262
-1.1137664
1.1137664
-1.4060604
-0.043617748
-1.4060604
-2.1141616
0.33183197
-2.1141616
1.5119965
0.27033309
1.5119965
-5.2842418
-0.30971131
-5.2842418
-5.9362768
0.13024343
5.9362768
-0.037881712
1.3978522
-1.3978522
-1.3257234
0.084359159
-1.3257234
-4.962015
-0.32222685
4.9620149
-0.23861077
-4.5735065
-0.14989763
-4.5735065
-1.3209293
-0.085131031
1.3209293
-0.064048515
1.2660763
-0.027038503
-1.2660763
0.0091955116
-3.0511568
5.6129585
-3.3957942
7.041758
-6.1500212
-0.37912498
-6.1500212
6.8689712
-0.33982501
6.8689712
5.0086716
0.40311223
-5.0086716
0.46142939
3.8707675
0.15918184
3.8707675
-7.4183666
-0.038462434
-7.4183666
7.4721358
-0.015306762
7.4721358
3.7650271
0.10574039
-3.7650272
0.071897427
3.6037635
0.017443047
3.6037635
2.3390058
-0.21556152
2.3390058
-1.9205338
-0.20291052
-1.9205338
1.1133415
-1.1133415
1.1379737
-0.024632266
-1.1379737
-0.01509176
-11.148729
11.127213
-0.035771761
-11.112957
5.1643088
5.1643088
4.0578944
0.78551856
4.0578944
-5.0402789
0.19177944
-5.0402789
3.5507612
-7.002432
3.8050983
-7.8315975
5.0363673
-17.541515
4.6855836
-9.1519585
7.3261852
-7.3261852
7.2074001
0.11878518
-7.2074001
0.13511701
-1.1015002
-0.084345872
-1.1015002
-3.4858382
-0.61921526
-3.4858382
4.7682147
-0.66316108
4.7682147
-1.2916858
1.2916858
-1.3120639
0.020378015
1.3120639
0.053665235
3.5882384
0.01552505
-3.5882384
0.0043868891
0.770164
0.18670268
-0.77016401
0.21577743
3.791959
-0.43019264
3.791959
-2.9098983
-0.45186801
-2.9098983
-0.97317843
-0.12832178
0.97317842
-0.15205604
-5.8193009
0.24570946
-5.8193009
-11.213437
0.10047996
-11.1758
-6.0922017
-6.0922017
2.3460637
11.146071
-1.7374381
-0.18309572
1.7374381
-0.16417605
1.2445996
0.047086214
-1.2445996
0.13083322
-1.0918479
-0.021493633
1.0918478
0.02191858
-2.5382277
0.42406609
-2.5382277
-1.22233
1.22233
-1.3191949
0.096864841
1.3191949
0.19280162
1.701442
-0.30358987
1.701442
1.3515856
-0.017779399
-1.3515856
0.025862204
-4.3746494
-0.19885711
-4.3746494
7.1352628
-0.26629156
7.1352628
-2.6089939
-0.30090446
2.6089939
-0.26998805
-0.035196613
11.16241
-5.1291122
0.035424965
5.1291122
-11.222993
11.258418
-3.1141181
0.57589042
3.1141181
0.94377627
5.3048468
0.2687447
-5.3048468
0.26456785
7.4115538
0.060581974
-7.4115539
0.085368607
-2.9756593
-0.51017888
-2.9756593
-5.5118685
-0.63815269
5.5118685
-0.74365379
-11.475382
-0.19626482
11.671646
-11.432872
6.0155657
0.13804831
-6.0155657
11.396467
-1.2356724
-0.16217985
1.2356724
-0.013342367
2.0483918
-0.34694976
2.0483918
4.1514438
-0.35948484
-4.1514438
-0.22320561
-7.3000941
-0.11827248
7.3000941
-0.16483133
-2.490276
-0.48538326
2.490276
-0.4418842
-5.3367698
5.2841078
2.8598834
-3.3173971
-3.4722136
-7.5946601
2.5430371
3.0699214
4.8156643
-11.01018
-6.5313353
-10.831645
7.2702891
-7.0057212
-9.4846189
9.387898
10.184888
-10.334786
-7.304997
7.3586622
8.7277578
-8.7918063
3.787898
3.6839371
10.913748
-10.617606
-16.769053
16.389928
10.285177
-10.238422
17.002067
-17.040529
-19.270289
19.330871
-7.3338479
7.278164
-9.2916248
9.0887143
-9.5725398
9.3025517
-3.621201
-4.2103965
14.23374
-14.060592
11.705245
-11.729301
-11.514159
11.908409
4.0437304
1.2403774
4.0166919
-3.6148338
7.4027318
-3.4304016
6.290285
3.588056
-7.209257
3.4143759
-6.8865895
6.0023455
5.7028996
-5.9197458
-1.6749143
-8.1834207
8.0598367
-7.4824238
7.5043424
11.827275
-11.992918
-3.6081407
7.2920777
-3.4336174
6.5035387
-3.6884729
-3.6165241
3.5588972
1.2567671
8.7725283
5.4612114
-8.9495444
-1.8821002
-10.837739
10.478255
-11.414667
10.962799
-0.4470738
5.7853453
-5.3382715
4.4098064
-1.4747497
7.260095
5.7955395
5.987319
5.8669043
-5.5981596
1.1388169
-6.4770883
-6.3789208
-2.9404127
3.0247719
3.0026057
-2.8412901
7.8139628
2.3709257
7.575352
-7.3737984
-2.9609876
-7.5726555
4.4066235
2.9520387
4.4270015
5.2549692
3.4727886
5.1698381
5.8583268
-5.9624205
0.10409368
-5.473439
11.331766
1.3296573
-9.0899631
-7.833196
6.9106237
4.0031248
7.131774
-7.5296565
-3.0879493
-7.0682271
-10.213202
-6.5558509
-10.851355
10.942724
5.4472037
10.602899
-12.867808
12.702977
6.7101151
3.5750616
6.735284
-6.8304168
-3.4080056
-6.7585193
13.267287
-3.1989768
-10.068311
-11.139088
-8.1312014
11.154394
5.8476726
11.874445
7.4564261
11.959814
4.8737833
8.3935041
-10.721456
2.5902544
-4.4995201
-2.8343278
-4.5146118
4.4899729
2.788191
4.4433803
-5.4584753
-3.8331495
-5.641571
-5.4638751
-4.1086647
5.6794366
3.4092777
-5.6723419
-5.7423248
5.9732464
3.3293054
4.3737498
-10.905085
4.7782087
-8.9886053
-9.9756222
-4.0849701
-9.8405052
4.552538
3.0602827
-7.6128207
-2.656719
11.218223
-5.5153232
9.5433085
-7.2374522
-4.4918484
-7.2330653
-9.0602285
-2.4539305
-8.929985
-9.5217322
9.0115533
-9.900957
9.2377959
13.917295
-6.7561485
-7.1611467
-4.8818589
-3.9099474
4.8726634
-0.85597145
-7.2082062
7.3122999
0.19452562
6.4848106
7.725188
6.8692166
-4.4936074
-2.9888164
-4.3627742
4.5704322
2.9339102
4.5489386
9.0600101
2.7672645
8.921211
-8.3365966
-3.6563211
-8.6463079
9.5512503
-9.2194183
2.9605371
-3.0888589
7.1808437
3.7819549
-6.7506511
-4.0870884
9.3495432
-4.3730717
-4.9764715
-12.06339
10.627005
1.4363851
-4.8032952
-0.39348883
-0.21636683
-5.5699976
-3.9146213
5.4681904
0.51912854
11.146134
7.2315125
-5.516549
5.7622584
6.1550974
6.2148219
-0.16409887
6.0779299
-5.5020394
7.3051027
-3.5150218
-3.7900809
6.7970155
-7.1192423
-1.8492924
-7.4907313
5.6414388
0.45610969
2.1346156
-1.7573511
-2.1553932
-0.78501947
-2.129531
1.7966764
1.2059292
1.9833791
1.0617021
1.9630698
-3.7131455
0.75503839
2.9581071
-2.6514434
-2.0862517
-5.1016688
-1.9564568
7.0581257
7.5580893
2.9201653
-7.3348837
-0.23777178
2.8038207
-2.8798995
-0.70061331
-4.4010555
3.0807133
-3.7813266
-5.8597496
-2.446003
8.3057526
-3.7110399
-0.65173426
3.6639537
0.76304786
-4.801278
-3.3821427
4.8448957
0.32494239
-5.3940548
11.037991
-5.6439366
-8.3828712
4.5022549
6.8295108
7.4542937
-9.1689257
4.7825053
4.3864203
-2.3394148
5.9276853
1.2040887
6.0868671
-9.190005
6.1020557
7.8557772
4.0526313
-8.2588895
1.1906624
-7.9993426
10.613882
-9.2528493
-1.3610324
5.2673443
5.3465374
7.5781771
6.3391181
-6.0375076
13.615685
-1.4568498
-7.7959994
9.4561924
-5.4035611
6.1439003
-11.547461
-12.483018
4.687019
-9.8223318
11.900006
-2.0776745
-3.8573274
-9.010481
13.679659
-1.3261265
-12.353533
9.2767726
-5.5463808
-5.6243519
11.170733
-8.7453575
9.0323575
-2.5822848
-6.4500727
-10.851996
-6.1885334
10.970268
1.7327087
-11.802948
14.393202
-3.409444
5.8006501
0.93463388
5.8180931
4.1698243
-6.7939532
2.6241289
4.5755332
-7.157818
2.5979227
-9.3918759
-7.2141345
13.254297
-6.040162
-11.299105
-10.25186
-1.0472442
2.7863443
11.606858
-10.24277
8.0137669
2.2290035
3.8182036
0.73073491
-3.7935714
-0.72104048
0.57732957
6.7465228
-7.3238524
5.0207099
4.9944887
5.0644209
1.6821019
5.130115
2.9297217
-4.9659389
-0.67563212
-6.4443247
2.3356599
-3.035047
-6.3929547
8.7286146
-7.1064525
0.71349777
-4.316935
-6.1652412
10.482176
-7.1512629
5.2740052
5.7639861
8.2079154
-8.7100491
2.5448079
-4.389122
-4.3209271
4.5616446
-7.5966916
3.3271642
5.4014504
6.6564695
0.91414477
6.5361058
6.7181907
-9.5963885
0.60778322
12.179402
-10.297302
2.6658339
9.2939796
-10.679601
0.42774039
-9.4127648
1.2240234
-6.7393466
-6.3887973
6.7190198
-9.1729503
-4.8284416
8.2642096
0.65700143
-8.2263279
-0.70365703
-6.4969746
-3.0247575
-6.9823578
-3.2915195
-6.6094375
-9.329027
-1.7829007
-7.5461263
7.2286527
-7.2029036
-3.648451
7.9465573
1.2912387
-8.0007965
7.8386166
-8.0440865
7.6971367
0.27587103
7.0364288
7.1450876
3.2351401
-4.697014
7.9321541
-7.0054353
9.7726998
-11.752885
4.74745
5.5800783
-9.2363994
-6.172807
5.4624906
4.0887597
5.7328237
9.3809893
-10.84295
1.4619606
-11.068884
12.624865
-1.5559807
-17.123678
6.0547939
-7.7426888
2.7878
0.17273703
2.7034542
0.83572711
2.9053636
-3.7410907
-2.2531317
-2.4051878
-3.6618867
-5.5142897
9.1761765
1.8348893
-5.2215852
3.3866959
-4.7432469
6.5781362
0.082422878
-5.3040081
7.1508267
-4.2454631
7.3235637
-4.660824
2.6627397
5.1040801
8.9658949
-3.8618148
6.6558387
-2.8738839
2.9455395
-6.8073543
-2.5687503
-4.912375
7.700566
-5.5698011
6.2832989
-0.37671363
6.6600125
-5.7920449
1.4189732
-0.72762411
4.2668646
4.2835639
6.8985715
-5.2164696
4.8852543
-7.7591382
-1.9221
-6.8449934
-1.443543
-0.47500269
-5.1916003
5.666603
6.7354066
-7.2104093
-5.3500187
9.7531212
-4.4031024
8.0674411
-5.5314605
-2.5359806
-4.5555154
-4.6639029
4.1314493
1.9464806
10.013922
0.27897467
-5.8104351
-5.2230648
-4.2792885
4.4528918
2.852211
-2.2615422
3.6979274
2.4779091
-0.34329347
0.70682215
1.276557
2.399583
-1.6927609
0.26501675
2.1345663
-1.4923344
2.1001106
0.70371014
-2.0823312
-0.047199827
-1.5692237
4.649937
1.3888833
-2.5948126
0.90205166
1.4795232
-4.994545
7.0296845
-3.6943404
-3.3353441
8.5092077
1.557742
-5.2520825
5.9329891
-5.4768795
3.2489834
-5.2054403
-2.0030991
-7.4799785
-5.1090528
-4.1478248
7.5345207
-5.0283517
7.948517
1.674771
-7.7107452
9.3855163
-4.8372125
2.3912095
-4.155337
4.8590471
-1.7409237
-2.4144132
4.2764166
4.029336
-4.2616839
-0.13937166
0.014732693
3.1898181
-3.1750854
-0.59150848
-3.2429519
-7.585157
7.9100994
-3.8197858
8.6022911
4.1123683
-3.5691564
12.171447
3.2141099
-6.7832662
-5.1687614
-5.8204956
-2.3968459
5.0574478
-0.82544237
-5.933077
-7.275515
5.8273366
0.25953056
-9.2933711
10.371791
-1.07842
-5.2902463
-0.81180937
6.0791537
-7.7906083
0.63279028
-5.1926856
5.1791055
6.3831942
6.6427247
-12.130764
-0.22276908
-6.6835599
1.3450483
-8.0286082
6.6915857
-3.8162117
8.5032307
-11.090712
7.4422608
-9.7994731
7.1421983
-0.88640991
7.1463228
-4.5221938
2.9219878
-9.1105211
-7.3778124
7.2090959
-3.6340343
8.1437297
-4.1272543
12.270984
-7.5366983
6.9916743
5.2793098
-1.3698779
-5.8631874
-6.962105
5.5922272
0.029569285
5.8476624
7.8709082
-4.9411865
7.1952761
4.234565
-8.623687
-3.3621265
-11.878267
3.2545802
-6.1142811
-3.1672096
6.4217897
5.0407059
5.7714408
2.1008626
-5.0504003
8.3639546
-9.4111987
-2.3237925
-4.0650048
6.8943949
-1.3021677
4.3368001
-8.401805
-2.4025465
5.7773214
-0.71146338
-5.0658581
0.97882707
-5.8072687
2.3802998
-8.1875685
6.7926505
-7.4963075
2.3406909
-10.08338
-5.6601056
-5.673448
-2.4169922
-5.6270942
-7.9627263
5.5457341
-1.9079325
5.9306841
-8.9159521
8.2044887
-3.7089128
9.2546468
-5.8469062
-1.1354516
6.2887903
1.4083464
10.662993
0.37807935
-6.5508863
-2.8162526
5.6016203
-2.7853677
1.6366391
-4.8135209
0.7880994
3.4987905
5.0104172
-9.1402293
-0.096170071
-6.6470564
-4.1613375
8.2500972
5.5917836
12.32719
1.4842404
9.4077732
-1.157676
10.892014
4.5751477
4.7679493
-4.1460573
5.6080178
1.5205457
6.2679957
-0.8710655
3.5338052
1.8323887
1.7605075
1.119392
2.6510775
1.6324863
4.0700508
0.32896004
-2.0762277
4.6921155
-8.971404
-1.1183196
-8.1858855
1.2020125
5.8651803
-4.6631678
4.3105594
-1.4583484
1.5251915
-0.080809602
-2.2006073
2.2814169
-3.8708907
-2.5439007
-0.40933443
-2.1798017
3.0818533
2.4701354
-2.6725189
-1.1983719
0.67088678
-5.7799396
4.5345534
-4.6739251
-0.64458902
8.7409272
-3.7000135
0.52492808
-1.3088041
-2.7180238
-3.5030433
3.5502431
11.559577
0.61187006
5.9156408
8.5219694
5.1398267
0.19864023
4.8196687
-6.8973431
-4.5722072
-7.1201122
-0.42852651
5.6506272
2.1958608
9.4109974
7.4751705
6.1730028
-2.2288022
-11.640001
8.2720701
-2.6640523
6.7160893
-1.6502313
-6.5373372
6.7296207
3.0430791
-7.3866221
-0.10968539
-6.6470226
-9.3110749
-0.50599495
8.7104837
-10.156998
9.0215467
5.9967892
1.5493371
-4.8180579
-0.85539013
4.721193
0.046756292
10.93877
-1.1914358
-7.0893407
8.2807764
-4.6737446
3.555425
0.9187104
2.779217
3.2001275
1.7417791
-5.3475616
-10.010729
-2.9718407
-2.0227044
-6.3071848
0.7509409
-3.2210763
6.2848242
-2.7293992
3.7488436
5.5513772
7.0765688
-2.0331687
-5.1772405
6.4362712
-2.6874276
4.3891411
)
;

boundaryField
{
    wall-4
    {
        type            calculated;
        value           uniform 0;
    }
    velocity-inlet-5
    {
        type            calculated;
        value           nonuniform List<scalar> 8(-1.7582594 -1.7582594 -7.3846893 -4.5714743 -7.3846893 -6.446951 -4.5714743 -6.446951);
    }
    velocity-inlet-6
    {
        type            calculated;
        value           uniform -5.6264299;
    }
    pressure-outlet-7
    {
        type            calculated;
        value           nonuniform List<scalar> 8(5.1489945 8.5302692 6.1471518 10.518463 8.4928741 6.9129047 7.3558595 9.7219509);
    }
    wall-8
    {
        type            calculated;
        value           uniform 0;
    }
    frontAndBackPlanes
    {
        type            empty;
        value           nonuniform List<scalar> 0();
    }
}


// ************************************************************************* //
