/*--------------------------------*- C++ -*----------------------------------*\
  =========                 |
  \\      /  F ield         | OpenFOAM: The Open Source CFD Toolbox
   \\    /   O peration     | Website:  https://openfoam.org
    \\  /    A nd           | Version:  9
     \\/     M anipulation  |
\*---------------------------------------------------------------------------*/
FoamFile
{
    format      ascii;
    class       volVectorField;
    location    "34";
    object      U;
}
// * * * * * * * * * * * * * * * * * * * * * * * * * * * * * * * * * * * * * //

dimensions      [0 1 -1 0 0 0 0];

internalField   nonuniform List<vector> 
918
(
(0.40912963 -0.00018339007 0)
(0.0090456519 2.9576279 0)
(-0.0085139305 1.3610079 0)
(0.29020125 -0.0084670845 0)
(-0.011215975 2.267703 4.2181422e-20)
(-0.011744019 2.9485783 -3.4680375e-18)
(0.9883554 1.5572062 7.7279827e-19)
(0.34224925 0.20792022 -2.7910331e-20)
(1.9883629 0.0036188125 0)
(0.027365429 1.2071804 0)
(0.0014693282 1.0017937 0)
(0.24603262 -0.010484689 0)
(0.012837159 2.9163524 0)
(0.013729459 2.7909754 0)
(0.10090165 3.1779237 3.2070338e-19)
(-0.0088372443 2.1195833 1.5210473e-20)
(0.33914613 0.074083505 1.7307593e-18)
(0.22221659 1.6947093 5.8784049e-19)
(0.36960903 0.0052337147 0)
(-0.012393262 0.98446989 0)
(0.017112082 0.20546078 -1.4009871e-18)
(1.0476976 -0.021957194 0)
(0.54295857 -0.028258116 0)
(0.24793562 -0.0072183439 0)
(0.3332396 -0.0043696869 0)
(0.022858405 2.6191304 0)
(-0.0099680896 2.9058746 1.2800512e-18)
(-0.022433028 1.4123343 0)
(-0.025308866 1.6409639 0)
(-0.018479126 1.3909993 0)
(-0.0057192873 2.8075792 0)
(-0.0012288816 2.3219318 -3.3162374e-20)
(-0.0041632724 2.1040951 0)
(-0.0181619 2.9813215 -1.293147e-22)
(-0.018375671 3.0070225 2.692543e-18)
(0.00085936406 3.0015934 0)
(0.28591152 -0.00076327768 0)
(0.43531022 0.91782383 3.3045899e-19)
(1.0729635 1.5435391 -9.0394109e-19)
(1.114753 1.384045 9.4170333e-19)
(0.91731442 1.7045438 -1.7829197e-19)
(0.82410575 1.7045006 1.0339815e-18)
(0.43569453 0.25100764 2.7165027e-20)
(0.36593392 0.18602676 0)
(1.2886914 0.752638 0)
(0.3857052 0.25510899 1.2506204e-19)
(0.30639248 0.20934397 -1.3019187e-19)
(0.24659758 -0.013823234 0)
(1.9896276 0.0005421114 0)
(1.9887081 -0.002173285 0)
(1.3548706 0.0013200164 0)
(1.8676219 0.0053135967 0)
(1.7381139 0.0031195541 0)
(0.026677785 2.0185882 -8.5033323e-19)
(0.051472843 1.4421849 0)
(0.051243779 1.3122787 0)
(0.032772844 1.3870607 0)
(0.01977382 1.1192747 0)
(-0.0015953894 2.2289476 0)
(0.008712271 1.2433032 0)
(0.009338523 1.0212318 0)
(0.00064379474 1.2474067 0)
(0.00017899911 0.98283515 0)
(0.51796272 0.026545427 0)
(0.4930589 -0.017911065 0)
(0.22085228 -0.00094287761 0)
(0.49770484 -0.015646067 0)
(0.28159014 -0.0040885727 0)
(0.016738745 3.0145159 1.328593e-18)
(0.01239066 3.0113822 0)
(0.0077277332 3.0035762 0)
(0.013326293 3.0004898 1.4163112e-23)
(0.010556528 2.9476306 -1.897468e-18)
(0.016840619 2.9848932 0)
(0.013434631 2.893844 0)
(0.017630208 2.9239911 3.0659901e-24)
(0.013846695 2.8182159 0)
(0.017541585 2.9104931 0)
(0.01111044 2.7544317 0)
(0.25170129 3.6378173 0)
(0.17909593 3.5748981 0)
(0.13449915 3.3113382 -2.9998884e-19)
(0.049482396 3.001846 0)
(-0.012423711 2.2650231 0)
(-0.015030232 2.3459068 -1.4989823e-20)
(-0.0098372622 2.1452417 -4.5575371e-21)
(0.47872784 0.097180842 -5.9326499e-19)
(0.31581398 0.046236994 -5.6463156e-19)
(0.49861888 0.12296551 -1.8127166e-18)
(0.3639055 0.10139015 -1.2128249e-18)
(0.17837479 1.1497605 0)
(0.33970938 1.8349475 -6.5779237e-19)
(0.4254252 1.8093944 1.1029606e-18)
(0.54419515 0.039231174 0)
(0.31471304 0.026706608 0)
(1.2189266 -0.0014106948 0)
(0.73734862 -0.035307228 0)
(0.64785976 0.017010321 -2.8988296e-18)
(0.6491642 -0.026148783 2.2739196e-18)
(-0.0050912703 1.2218235 0)
(0.0015487591 0.98537429 0)
(-0.041452357 1.4369586 0)
(-0.023769921 1.2605159 0)
(-0.018061631 0.993543 0)
(0.07929693 0.24791799 4.2722123e-19)
(0.17757211 0.18342282 0)
(0.50383041 0.019077719 0)
(0.24541347 0.013689825 0)
(0.48141368 -0.010168039 0)
(0.45726128 -0.013082866 0)
(0.31928731 -0.00058869414 0)
(0.93566974 0.053077037 0)
(0.42263646 0.016731762 0)
(0.20591685 0.0019607399 2.271068e-18)
(0.0018267885 2.8603862 1.129862e-18)
(0.021141668 2.8997464 0)
(0.03499745 2.8755632 0)
(0.015589949 2.7041197 0)
(-0.01044744 2.9857357 1.23831e-18)
(-0.0091083719 2.8907196 0)
(-0.011767562 2.9907508 -3.8003145e-18)
(-0.0095948389 2.9158564 1.2994977e-18)
(-0.0087167862 1.8279185 0)
(0.0096028383 1.8435014 0)
(-0.0067363257 2.332829 1.9115294e-22)
(-0.0056570139 2.2998469 0)
(-0.0075745785 2.0995183 0)
(0.62732022 0.024944499 0)
(0.31486352 0.016471145 0)
(0.22548886 0.024442507 0)
(0.59576924 0.004290793 0)
(0.28002044 0.015129819 0)
(0.52246738 1.0969657 -4.0525427e-19)
(0.55628905 1.1334501 0)
(0.41146285 0.90084651 5.2858306e-20)
(0.32106674 0.69416139 0)
(1.1762279 1.3513993 -2.6585284e-19)
(1.1838548 1.1583829 5.049888e-19)
(0.54108552 1.8733707 0)
(0.74095862 1.8246652 0)
(0.63625981 1.7984595 0)
(0.1485668 0.25089681 -4.2359394e-19)
(0.47445617 0.22802913 0)
(0.37542363 0.16515378 3.4919679e-19)
(1.2594471 1.1400242 0)
(1.326446 0.92985571 0)
(1.2385703 0.94620729 -3.9254644e-19)
(1.383549 0.73120021 0)
(1.3278677 0.57649804 6.1467603e-20)
(0.57267517 0.022356924 0)
(0.53663253 0.012220883 0)
(0.25730185 0.010914741 0)
(0.52186243 0.0072292247 0)
(0.52892291 -0.014596181 0)
(0.25473467 0.0068608052 0)
(1.4986632 -0.0018738845 0)
(1.8698338 -0.0019544911 0)
(1.7318263 0.0003881765 0)
(0.041113386 2.2417206 4.6112814e-19)
(0.050434843 1.9428565 0)
(0.033713065 2.3318789 7.4435729e-19)
(0.020601301 2.0811827 -6.228661e-19)
(0.16448954 1.6875976 -4.8214709e-19)
(0.080826301 1.5339751 0)
(0.099510592 1.4942777 0)
(0.024620081 1.3370836 0)
(0.014614118 1.0676384 0)
(-0.0038360095 2.4132153 -9.9281257e-22)
(0.0023391498 2.2239082 0)
(0.0018088433 2.4186893 -5.1685123e-20)
(-0.0018044912 2.2307668 8.6649772e-20)
(0.017832264 1.2974128 0)
(0.013143875 1.2659426 0)
(0.011851681 1.037412 0)
(0.00091922037 1.2428523 0)
(0.0014000788 0.9801876 0)
(0.82195895 0.047077126 0)
(0.58588611 0.027049314 0)
(0.76179876 0.043131505 0)
(0.44205266 0.017012658 0)
(0.21030991 -0.011496375 0)
(0.47895209 -0.0075027615 0)
(0.48679769 -0.00038187367 0)
(0.21774195 -0.0076805242 0)
(0.0037035347 3.0720024 -1.1421084e-20)
(0.010786968 3.0616272 0)
(0.016166293 2.9688102 0)
(0.01325238 2.8677314 0)
(0.73195684 4.2252746 0)
(1.2323613 3.2921858 8.7906926e-19)
(0.072004381 3.1336416 0)
(0.029854807 2.9052725 0)
(-0.0035835411 1.8542065 0)
(-0.01644879 2.0799146 0)
(-0.0018275518 1.9569848 0)
(-0.019364661 2.7508645 -1.0575179e-20)
(-0.015218347 2.44199 0)
(-0.016702637 2.5958576 0)
(-0.0040543555 2.1743843 3.6697248e-21)
(-0.0084933333 2.3971507 1.4476339e-20)
(-0.0098842693 2.3741077 4.616562e-21)
(-0.0072921613 2.1555598 0)
(0.4760878 0.058620342 8.5713151e-19)
(0.28971042 0.017126721 -8.4919969e-19)
(0.30436696 1.6928055 0)
(0.20591774 0.92827324 -3.7465616e-19)
(0.22536963 1.8341924 -1.1692076e-18)
(0.13732717 1.3911994 1.1731125e-18)
(0.2796022 -0.0034574553 0)
(0.51981779 -0.00078621874 0)
(0.51761108 0.015819291 0)
(0.28841533 0.0048921551 0)
(0.0029175274 1.2344715 0)
(0.0023633754 1.2251371 0)
(0.0031383229 0.97957393 0)
(0.32828418 0.25286303 1.1591701e-18)
(0.25214621 0.24288487 -1.3851546e-18)
(0.25176439 0.20318717 0)
(1.2133566 0.13298263 3.1914432e-20)
(1.1299126 0.1154016 0)
(1.0721792 0.090653246 0)
(0.77676757 0.036485554 0)
(0.45849728 0.021741606 0)
(0.43055609 -0.0019045739 -3.6597265e-18)
(0.24424844 0.0031004367 1.3975613e-18)
(0.002850897 2.9851284 1.1264628e-18)
(-0.0034498829 2.8651221 4.6085961e-20)
(0.0038405909 3.0539527 -2.3866987e-20)
(0.012751625 3.0472493 8.5936612e-19)
(-0.0093941761 2.995257 4.2194196e-20)
(-0.0083905466 2.9361745 -1.693248e-22)
(-0.013159248 3.0201634 -7.9401494e-19)
(0.0012148464 3.0231435 5.723043e-19)
(0.0066749652 3.0398241 -8.599845e-19)
(0.72171472 0.037162085 0)
(0.68001338 0.037857788 0)
(0.36763633 0.018824376 0)
(0.50731249 0.011219244 0)
(0.48147071 0.038244826 0)
(0.27008309 0.003399867 0)
(0.4697406 -0.014255076 0)
(0.4542019 0.0049688151 0)
(0.21034918 -0.0050554525 0)
(0.70967194 1.3820015 -1.3000409e-19)
(0.7770547 1.4628005 0)
(0.16369237 0.35340506 1.0245443e-19)
(0.33003825 0.76247493 7.8451886e-19)
(0.35179767 0.79475073 -4.6437933e-19)
(0.23014202 0.4916444 9.0629384e-19)
(0.41663011 0.9568913 2.1641147e-18)
(0.16501787 0.33290796 4.8394717e-19)
(0.50239522 0.16185443 1.2849454e-18)
(0.49757724 0.20126411 3.3743323e-19)
(0.37758141 0.1304388 6.4826573e-19)
(1.409826 0.54693464 1.488706e-19)
(1.3142545 0.39627514 1.139986e-19)
(0.024243123 2.3891184 2.8037304e-19)
(0.01155427 2.1553083 0)
(0.96916199 0.062901505 0)
(0.88884017 0.054680019 0)
(0.68054238 0.032447175 0)
(0.010019214 3.0770142 0)
(0.016968504 2.9387432 1.680764e-18)
(0.016538613 2.9537111 0)
(0.013502773 2.8433855 -1.6777858e-18)
(0.0095010684 3.0917525 3.8553606e-19)
(0.003743661 3.0887814 0)
(0.86737509 1.7512747 -9.210565e-20)
(1.131729 2.3601633 4.3763482e-20)
(0.84647827 1.8670774 -8.0146862e-19)
(0.014633879 2.9982617 -1.0361589e-18)
(0.035984584 3.0382537 0)
(0.012565977 2.8730874 0)
(-0.010223565 2.4015701 -2.4231705e-20)
(-0.0054046801 2.4073297 -2.8541242e-20)
(-0.0026274472 2.2122649 -5.698763e-22)
(0.34371423 1.5300915 1.1810132e-18)
(0.21013119 0.74419241 -8.1031895e-19)
(0.088356125 2.1525583 8.2048131e-19)
(0.16648286 2.0138283 -1.0068506e-18)
(0.082519893 1.6791469 1.2243203e-19)
(0.014078997 3.1142601 -2.5567906e-18)
(0.016728242 3.1195941 2.8943251e-18)
(-0.0086487702 2.9802614 1.1867266e-18)
(-0.0053181066 2.9773137 -1.1676754e-18)
(-0.0075968214 2.8761368 -1.2089171e-18)
(0.0046264387 3.1055027 -3.0007376e-18)
(0.0095094959 3.1048234 2.9798599e-18)
(0.37479064 0.82734783 0)
(0.32722138 0.76896035 -1.7349644e-18)
(0.13341731 0.2783068 7.702708e-19)
(0.41200202 1.0777122 1.38813e-18)
(0.18920823 0.42510613 -2.1552899e-18)
(1.3459213 0.21914302 6.9173325e-20)
(1.4026562 0.37193992 0)
(1.267144 0.2363347 3.7149257e-21)
(0.0085590038 2.4201924 -1.9288714e-21)
(0.0090807897 2.4045093 0)
(0.0054423226 2.1945065 0)
(0.39169562 1.3930657 -4.250713e-19)
(0.42135817 1.2471803 -9.5288663e-19)
(0.19955362 0.56558089 1.7157751e-18)
(1.1918601 0.0059808498 0)
(1.3368349 0.0020051791 4.6501603e-19)
(-0.020421643 1.8009062 0)
(-0.035980338 1.8169643 0)
(1.5128916 -0.00076759252 3.5963223e-21)
(1.1008109 0.015531527 1.0326853e-18)
(-0.016940618 2.7556161 1.371479e-20)
(-0.01628312 2.8004359 0)
(0.062194919 3.1790138 8.3729804e-19)
(0.53882725 3.5506758 0)
(1.4970022 0.87352465 -6.9021794e-20)
(1.2766488 0.010767059 2.3649345e-20)
(1.3721589 0.024120768 0)
(1.9989089 0.008199487 8.6316376e-21)
(0.11698198 1.8752485 0)
(0.12025971 2.7482005 0)
(0.017663498 1.796666 0)
(0.0059410421 2.8213017 4.6426257e-20)
(-0.017542256 2.7722201 2.1410714e-20)
(1.27147 -0.0042876379 2.0577954e-20)
(1.4337155 0.066767229 0)
(1.4779962 0.09725184 0)
(-0.023200511 2.0960198 0)
(-0.014917825 2.7949991 0)
(-0.0083948152 1.7891069 0)
(0.33435451 1.98512 -2.8393554e-19)
(1.2989048 0.0098150232 0)
(1.0937755 0.0086551978 0)
(1.9711288 0.011136594 6.0651597e-19)
(1.6579696 0.015983344 -6.9560159e-19)
(1.9058851 0.010463555 0)
(-0.017861534 1.9199913 0)
(-0.014027426 1.8224373 0)
(-0.012494607 1.873099 0)
(-0.011120472 1.7834973 0)
(-0.016408522 1.7630881 0)
(-0.019674154 1.768874 0)
(1.4113169 0.044296552 0)
(1.3028197 0.0090815461 2.2786001e-20)
(0.98631621 1.7087252 4.4376764e-19)
(1.9566521 0.001682981 -6.1791036e-19)
(1.7069611 -0.0043608663 7.3874804e-19)
(1.8970843 -0.005888316 0)
(1.307091 0.0031919514 6.124734e-19)
(1.1817137 0.0020350121 -7.6902154e-19)
(0.92749148 0.020800238 0)
(-0.018648918 2.8330068 0)
(-0.019806043 2.8055236 -9.4102002e-21)
(-0.01762544 2.8255892 5.3781962e-21)
(1.6337105 0.36919276 7.2326958e-19)
(1.5796457 0.16984734 0)
(0.077328179 3.0544805 -1.5348002e-18)
(0.044052789 2.8473471 -1.0724714e-19)
(0.18219445 3.1786241 2.3360229e-18)
(0.16715677 3.2443672 -3.7708903e-19)
(0.16516086 3.2907909 0)
(0.031705214 3.1346584 4.3761526e-19)
(0.085086991 3.1735615 1.5088311e-18)
(0.081442019 3.2003553 -8.145159e-19)
(0.049627548 3.1087719 0)
(0.74900108 0.34683156 0)
(0.68937505 0.43807103 0)
(1.4624101 0.94671199 1.4584694e-19)
(1.4035673 1.088551 -1.1216858e-19)
(1.5663678 0.76610581 0)
(1.5595048 0.69964309 0)
(1.2760401 0.017657903 -1.230054e-18)
(1.0895786 0.013799167 1.5775923e-18)
(1.3928244 0.021879999 0)
(1.2348766 0.021647448 0)
(2.0042283 0.01404746 0)
(1.8777285 0.0045996169 0)
(1.9369309 0.0092976114 0)
(1.7279595 -0.0049710335 0)
(1.666532 -0.00096177634 0)
(1.7981037 -0.001018621 0)
(0.10328852 1.8645476 0)
(0.08058963 1.8531192 0)
(0.14262125 1.9035215 0)
(0.1546593 1.9281493 0)
(0.14075671 2.7765798 0)
(0.18094186 2.8540024 -5.0021709e-19)
(0.098569629 2.8469822 0)
(0.081299582 2.8629278 2.2496081e-19)
(0.030476185 2.8794527 -1.9717374e-19)
(0.016090713 1.8008322 0)
(0.012752965 1.7694792 0)
(0.02290473 1.8082295 0)
(0.024840339 1.7903185 0)
(0.010856591 2.2603191 -8.8576438e-21)
(-0.015538321 2.8203303 -2.5958025e-20)
(9.5793723e-05 2.8661484 4.3451869e-20)
(-0.0054661984 2.901712 0)
(-0.016482516 2.8272665 -5.5306689e-20)
(-0.016525635 2.8236426 -5.6628125e-21)
(0.01276983 2.2553085 1.2191053e-20)
(-0.0085113758 2.5833223 3.4286494e-20)
(-0.014909111 2.6203499 -5.5202573e-20)
(1.3033247 -0.0034713577 1.4256898e-18)
(1.1030653 -0.0097232571 -1.7560931e-18)
(1.2527789 0.0016386118 -1.5362833e-18)
(1.1475572 -0.0042891305 2.0405919e-18)
(1.4686349 0.059680644 0)
(1.3362941 0.059902805 0)
(1.5047283 0.088574351 0)
(1.4743094 0.069459139 0)
(1.3201299 0.067460858 0)
(1.585027 0.15489182 0)
(1.5198456 0.10734509 0)
(1.3874089 0.097163857 0)
(-0.018428854 2.6190107 3.5599308e-22)
(-0.023117585 2.2738335 0)
(-0.017995163 2.44274 0)
(-0.014498849 2.8226754 -7.9549371e-22)
(-0.014526868 2.8336509 -9.6816976e-23)
(-0.014829139 1.9930615 -1.5821157e-20)
(-0.020357937 1.9380809 1.5944663e-20)
(-0.018942593 1.8387301 0)
(-0.020852206 1.8456139 0)
(-0.020472737 1.84487 0)
(-0.0036792794 1.790712 0)
(-0.00063052079 1.7617801 0)
(0.46767234 1.992095 4.8576127e-19)
(0.48173041 2.0115707 2.4584284e-19)
(0.59135887 2.6342368 -2.720217e-19)
(0.3803977 2.7632267 7.1543793e-19)
(0.40132199 2.2556612 9.736877e-20)
(1.406132 0.023007542 0)
(1.3341063 0.022758963 0)
(1.1442363 0.014196348 0)
(1.9817068 0.017556313 0)
(1.9612389 0.012674957 0)
(1.7249738 0.018390887 0)
(1.6323 0.016900075 0)
(1.6475987 0.021383342 0)
(1.3426051 0.0081870575 1.191625e-18)
(1.0440692 0.024570303 -1.5073087e-18)
(1.3001707 0.012986659 -1.2720721e-18)
(1.1424836 0.0051295795 1.652881e-18)
(0.94569371 1.736529 0)
(0.83363408 1.8667124 4.3733424e-19)
(1.0923954 1.6044547 1.846506e-19)
(1.1323118 1.5717292 -2.4609653e-19)
(1.274261 2.7112019 8.3279276e-19)
(0.84613094 0.078659451 9.1964709e-19)
(1.5940667 0.19239056 0)
(1.6417205 0.28448572 -5.6449469e-19)
(1.5499963 0.23382228 -2.2399534e-20)
(1.5237709 0.16676614 0)
(0.22168633 2.9245386 1.0403591e-18)
(0.1049786 2.8156819 -2.223543e-18)
(0.033082814 2.3835883 1.3905241e-18)
(0.075465421 -0.066282118 -6.9385163e-19)
(0.37054859 3.4655078 1.8838779e-20)
(0.23840911 3.3719592 0)
(0.25137136 3.4340774 -2.6549557e-20)
(0.268514 3.0870529 -2.5488891e-18)
(0.4032211 3.175234 0)
(0.014028814 3.1193958 7.8796028e-20)
(0.017086179 3.1324331 -8.4049589e-19)
(0.031561949 3.1179558 1.306368e-18)
(0.038395378 3.148549 0)
(0.036234566 3.1566036 0)
(1.358646 2.8054453 0)
(0.78535581 1.0758331 -8.923465e-19)
(1.2972826 1.3170758 -2.9216438e-20)
(1.2214221 1.4097 0)
(1.1285621 1.3425486 -1.707003e-19)
(1.3555474 1.1790004 3.8379876e-20)
(0.42307599 0.47573917 -1.6367611e-18)
(0.82132824 0.34096868 -2.9705925e-20)
(0.71243758 0.26029936 7.2923762e-19)
(0.72011674 0.48915115 5.3765182e-20)
(0.60291919 0.44045942 -2.2089879e-18)
(0.79189964 0.39073087 0)
(0.91456314 0.50172414 1.2145534e-18)
(0.91671472 0.46372235 0)
(0.76354163 0.442653 0)
(0.6835805 0.36398167 0)
(1.2105547 0.8409583 7.1107835e-19)
(1.6425545 0.40294357 -6.3533704e-19)
(1.6244527 0.57148181 0)
(1.6071361 0.50541418 0)
(0.79300179 0.18407818 1.0600797e-18)
(1.2308601 0.7112222 -6.8374907e-19)
(1.0333182 0.63409416 1.2282357e-18)
(1.4413309 0.54603746 -1.2298091e-18)
(1.2597689 0.0084122818 8.1010164e-19)
(1.2376789 0.012519144 -8.4388367e-19)
(1.0034668 0.011925509 0)
(1.4398823 0.041832435 0)
(1.3847457 0.03134404 -7.353382e-19)
(1.2006667 0.023437782 7.2660234e-19)
(1.8280858 0.017251583 0)
(1.7061659 0.003431719 0)
(1.9109645 0.0037449245 0)
(1.6759573 0.008550668 0)
(1.9560773 0.017253332 0)
(1.941282 0.015083097 0)
(0.070749541 1.8478565 0)
(0.056714903 1.8248351 0)
(0.17152929 1.8299942 7.3671506e-21)
(0.31499464 1.97498 1.4709874e-19)
(0.19782557 1.9636114 3.2686041e-19)
(0.22212075 1.9828013 -5.2648339e-19)
(0.21167038 1.8656263 0)
(0.17076852 1.9807989 -8.9273346e-20)
(0.15285004 1.9687322 0)
(0.37141891 2.2137527 -1.3492269e-19)
(0.35741019 2.5087478 6.693952e-19)
(0.22903885 1.9180594 8.000155e-20)
(0.30923195 1.8644478 5.3554437e-20)
(0.25455828 1.8491786 -4.3615426e-20)
(0.33784637 1.7933576 -1.080751e-19)
(0.26589145 1.9577192 0)
(0.31441315 1.9736506 1.1827253e-19)
(0.043368277 2.4739521 -4.3879691e-20)
(0.036451521 2.8690824 0)
(0.06639312 2.5772882 1.7310685e-19)
(0.058553064 2.5825117 0)
(0.060087045 2.8822656 -2.5018403e-19)
(0.046543166 2.9231194 0)
(0.026453658 1.8600466 1.3777719e-20)
(0.033309456 1.9085625 0)
(0.036537405 1.8437119 0)
(0.027756355 1.8310539 -1.5622959e-20)
(0.0092512973 2.8518009 -9.0102649e-22)
(0.018319594 2.8821465 2.2839303e-19)
(0.011117355 2.9217251 1.5906305e-21)
(0.0090869264 2.152889 6.3625675e-21)
(0.0074477981 2.0586174 4.2672521e-22)
(0.012154307 1.7871721 0)
(0.0090735144 1.7561903 0)
(0.05115274 1.984771 3.1833131e-20)
(0.041571631 1.8803267 -4.9200755e-21)
(0.043023728 1.939795 -4.378109e-21)
(0.058484372 2.0029087 0)
(-0.036590821 2.4814032 3.1208643e-20)
(-0.0303183 2.7299275 2.7904696e-21)
(-0.029517361 2.6481663 -3.1292533e-21)
(0.0056297709 2.1563665 -7.5293419e-21)
(-0.022772291 2.6753834 -4.8073437e-21)
(-0.022096284 2.644995 4.4324934e-20)
(1.2597724 0.00092630039 -8.9182626e-19)
(1.2677549 -0.0083088776 9.2464074e-19)
(1.0590307 -0.0069713389 0)
(1.4987294 0.066553268 1.5313645e-18)
(1.1937423 0.0046913087 -1.7053608e-18)
(1.1488091 0.00061970277 1.9356732e-18)
(1.5229471 0.099745661 -2.0992605e-19)
(1.4249789 0.044879253 0)
(1.434558 0.053341565 7.582039e-19)
(1.3170761 0.048391003 -7.5131869e-19)
(1.675524 0.096771501 -4.7823957e-20)
(1.6533249 0.079679666 4.0835669e-19)
(1.7786998 0.10076151 0)
(1.8429699 0.095405609 -1.6001125e-19)
(1.7308502 0.036969293 0)
(1.6068876 0.01933355 0)
(1.8549256 0.016585775 0)
(1.6623114 0.0081857612 0)
(1.8546224 0.052063958 3.1439908e-19)
(1.8413215 0.033540961 -6.5685106e-19)
(1.829282 0.082084137 -3.1912136e-19)
(1.835231 0.076100748 -3.7015252e-19)
(1.8013909 0.12227353 7.4689152e-19)
(1.6638083 0.12243304 0)
(1.7086315 0.16789245 0)
(-0.030835302 2.4771803 4.8915222e-20)
(-0.0250412 2.2891369 -5.9823572e-22)
(-0.025991081 2.2852608 0)
(-0.028785782 2.6642643 -5.026158e-20)
(-0.020910352 2.6215301 2.3447443e-22)
(-0.025372317 2.6553932 3.4165359e-21)
(-0.01891332 2.8400901 6.6544924e-21)
(-0.017031452 2.755802 -2.1810981e-21)
(-0.019550264 2.7219527 -1.9373114e-22)
(-0.013318399 2.8328436 -6.3831231e-21)
(-0.019801902 2.8335484 9.4231838e-21)
(-0.014340753 1.9036397 -2.163826e-21)
(-0.0050827887 2.0155362 -1.4869569e-20)
(0.47426554 1.9083181 -2.1115506e-19)
(0.43765081 1.8281354 5.3638086e-20)
(0.80458804 1.8909245 -4.2461432e-19)
(0.64195486 1.9785807 -2.3728466e-19)
(0.66442824 1.9741471 0)
(0.64155276 2.5980955 2.5001268e-19)
(0.69768864 2.6111615 3.9578973e-19)
(0.44646338 2.6946422 1.1173785e-19)
(0.45566809 2.7022564 -6.9091322e-19)
(0.54211053 2.6337753 6.7313588e-19)
(0.55256359 2.6514232 0)
(0.48401527 2.7074717 -6.3358778e-19)
(0.22663569 2.7777956 1.2768133e-18)
(0.33342719 2.7636478 -5.0008648e-20)
(0.26921693 2.8524478 -1.7447941e-18)
(1.0209016 2.5449317 1.0054656e-18)
(0.89172939 2.5564311 0)
(1.9548819 0.023962701 2.3857044e-20)
(1.6603778 0.023164392 -2.0399626e-20)
(1.6801722 0.023095493 -3.5899272e-19)
(1.8804713 0.029200436 3.5982141e-19)
(1.9899 0.029686659 0)
(0.86895824 1.726026 0)
(0.87083356 1.6309185 0)
(1.0413455 1.532625 0)
(0.90114519 1.5486803 0)
(1.2810853 2.7470049 -1.9515966e-21)
(1.1909294 2.5727697 0)
(0.93724702 2.2814606 6.0197792e-21)
(0.87844497 2.5463251 0)
(0.99487413 2.6162422 -5.1756161e-19)
(1.0232367 2.6043313 3.5371202e-19)
(0.86356062 0.11727413 0)
(0.82219429 0.1249581 2.5542332e-19)
(1.0952502 0.11881735 1.408623e-18)
(0.89888066 0.077412789 -5.4686123e-19)
(0.84228217 0.022831018 -1.64266e-18)
(1.6939946 0.33369097 -1.2115299e-18)
(1.5554308 0.40845165 -2.9193964e-20)
(1.2789429 0.32807505 1.4186161e-18)
(1.5271462 0.29060644 1.1494945e-18)
(1.2986944 0.16990633 -1.8899186e-18)
(1.2446914 0.18450449 2.4030559e-19)
(1.2826831 0.25773477 -5.2980451e-19)
(1.2726585 0.22596154 0)
(1.5213369 0.20999801 9.276254e-19)
(1.6420114 0.24915414 0)
(1.6379225 0.29929996 0)
(1.6775013 0.20948338 3.7048928e-19)
(1.7580788 0.25750625 -2.3150637e-20)
(1.7153468 0.33519562 -2.132421e-19)
(1.6881424 0.29702802 0)
(1.5574104 0.024080266 7.7622863e-19)
(1.8037257 0.075832321 9.4492135e-19)
(1.7591981 0.048560752 -7.3787816e-19)
(1.7520095 0.09496108 -6.4458907e-19)
(1.5488465 0.061367247 -1.0987868e-18)
(1.4023752 0.13080728 0)
(1.4252673 0.11628446 0)
(1.1452475 0.026623529 -7.0226094e-19)
(1.0597471 0.029179225 2.8717524e-19)
(1.6734675 0.12633464 9.5921126e-19)
(1.7766314 0.195991 -1.0880629e-18)
(1.7514155 0.21193916 9.96707e-19)
(1.6933005 0.19242474 0)
(1.769436 0.16193651 0)
(1.8036422 0.14223868 -4.2322936e-19)
(1.7738125 0.12919389 -7.8169077e-19)
(0.74922845 1.5122436 2.3926371e-19)
(0.82549815 1.8371301 -2.6635256e-19)
(1.183877 2.7790507 -3.0166097e-19)
(1.3033311 3.130017 5.8182188e-20)
(1.3449756 2.8256066 -6.4556633e-19)
(1.400129 2.8929811 8.4842271e-20)
(1.2716791 2.56882 2.6461269e-20)
(1.334826 3.0548622 -2.2466007e-19)
(1.3417641 3.0738773 4.2921048e-19)
(1.3211338 3.3375292 -5.4929508e-20)
(1.4376394 3.1054693 5.6682473e-20)
(1.4543158 3.0336895 0)
(0.78892772 1.162686 -7.8891988e-20)
(0.25135482 1.33363 9.0894231e-19)
(0.65711655 0.67512102 1.0795574e-18)
(0.43201033 0.24709028 1.2343414e-18)
(0.64140422 0.49924084 1.2416665e-18)
(0.71978264 0.61033309 -2.056686e-18)
(0.70718096 0.62598 1.6707701e-18)
(0.60552685 0.52774047 -6.4070404e-19)
(0.48505126 0.41364589 1.4489401e-18)
(0.83715813 0.23481118 -5.9844045e-19)
(0.80704623 0.27238059 0)
(0.71651161 0.22175762 1.4691286e-20)
(0.97280885 0.63655939 6.5104535e-19)
(0.91805561 0.58567816 -2.3710857e-18)
(0.77670457 0.61151834 2.3921154e-20)
(0.79808055 0.56990581 0)
(0.93660191 1.035675 7.0406758e-19)
(1.1938966 1.0851919 6.2047473e-19)
(1.0877932 1.2136417 -7.1408519e-19)
(1.2456424 1.1153439 -2.4736385e-19)
(1.2879187 1.174321 -5.4175313e-20)
(1.2695446 1.1745805 5.4662795e-20)
(1.2995496 0.89235446 -1.1747679e-18)
(1.3200938 1.0009645 2.3217267e-19)
(1.3940143 1.0035502 0)
(1.4268273 0.95074035 -3.0045151e-19)
(1.5994384 0.43970505 3.4215543e-19)
(1.6811675 0.43372231 3.8687054e-19)
(1.6854166 0.39847893 5.1407264e-19)
(1.5808378 0.52814361 -6.9408878e-19)
(1.5822267 0.58801066 0)
(1.6091335 0.56090267 0)
(1.2641117 0.45568737 2.3651965e-20)
(1.096133 0.31449827 0)
(1.1583885 0.29439222 6.9044124e-19)
(1.2607684 0.33880362 -1.8738527e-20)
(1.4357591 0.59188845 3.1949601e-18)
(1.3468029 0.68786483 8.9214876e-19)
(1.3232389 0.59756999 -1.0075295e-18)
(1.1202961 0.53421517 1.0966909e-18)
(1.0674739 0.52829423 6.5319546e-19)
(0.98652133 0.47113416 -6.4064782e-19)
(1.6720744 0.037480129 6.1195534e-19)
(1.9494376 0.032212684 0)
(1.9147892 0.038889897 4.1489131e-19)
(1.6908865 0.036434995 -9.2863291e-19)
(1.9316635 0.027946547 4.5940794e-19)
(1.8748512 0.010555016 -9.7454429e-19)
(1.6934635 0.0091829133 0)
(1.5795274 0.014588482 -2.0188706e-19)
(1.8415253 0.010432933 5.0449138e-19)
(1.6700269 0.01227756 -2.6050201e-19)
(1.6082095 0.016729772 1.9061156e-19)
(0.032210084 1.8144761 0)
(0.038379215 1.8251091 0)
(0.04787777 1.8249602 0)
(0.03553309 1.804917 0)
(0.088246452 1.8417138 -4.3919758e-20)
(0.10400543 1.8243308 2.2790502e-20)
(0.13763023 1.9130772 -2.5850623e-20)
(0.12129579 1.8111556 -4.1665197e-21)
(0.049681585 1.889379 -2.5466977e-21)
(0.052855788 1.8842646 2.0483504e-21)
(0.081227486 1.8320825 -2.109422e-20)
(0.072150546 1.8376469 5.3061057e-20)
(0.055309451 1.8212076 7.0411958e-21)
(0.045685848 1.8294894 1.1070024e-21)
(0.092637823 2.5182836 -1.8612299e-19)
(0.095626697 2.5520966 0)
(0.16084858 2.2644373 1.1144561e-19)
(0.14774339 2.056177 6.2410467e-20)
(0.26530488 2.2331248 -1.0232719e-19)
(0.23236071 2.602865 0)
(0.27536241 2.5897307 -6.6363954e-19)
(0.32421322 2.4920547 4.7716338e-19)
(0.22786247 2.1954285 -2.5807367e-19)
(0.17684926 2.3547814 1.7761142e-19)
(0.16682927 2.4901808 0)
(0.025613342 2.214117 -7.4821412e-20)
(0.023268664 2.5887675 -9.8836559e-20)
(0.019967466 2.3587587 0)
(0.020654842 2.6470217 -1.6075534e-20)
(0.039416405 2.4807431 4.8401597e-20)
(0.012825489 1.8455461 -4.9988646e-21)
(0.010771852 1.838024 7.7643634e-20)
(0.01441598 1.8414842 -2.7308187e-20)
(0.020348925 1.8366854 -2.1124755e-20)
(0.025606196 1.8669356 0)
(0.00806484 1.819801 0)
(0.0023321405 1.7815114 -3.5614972e-20)
(0.0029032969 1.813053 1.0068087e-20)
(0.0061794127 1.8157212 0)
(0.0069305918 1.7780605 -2.568517e-20)
(0.0047893182 1.7536271 5.3672305e-20)
(1.6399835 0.049411803 0)
(1.6333756 0.051959579 -7.0314244e-20)
(1.9239184 0.050273019 -5.4491746e-19)
(1.798585 0.060954455 0)
(1.6432096 0.054402876 0)
(1.896212 0.039709864 6.2792825e-21)
(1.8994218 0.040696057 8.0952077e-19)
(1.7746676 0.018778288 1.0409953e-18)
(1.6555949 0.011343334 0)
(1.5783283 0.012254742 0)
(1.7594505 0.03050487 5.4407894e-19)
(1.6017923 0.020386722 0)
(1.5760481 0.0053712679 0)
(-0.016937014 2.2822825 0)
(-0.0028660906 2.0443493 -9.2974608e-21)
(-0.013805435 2.1648029 -1.401472e-20)
(4.2145362e-05 1.8249556 0)
(-0.008380131 1.9558797 -1.0754558e-20)
(-0.0091760392 1.8868587 7.2141731e-21)
(-0.0049521223 1.8234213 0)
(0.49596922 1.9205408 0)
(0.44192479 1.721637 -1.2688172e-19)
(0.40516214 1.730295 0)
(0.53303335 1.763304 1.0298931e-20)
(0.61519101 1.9226514 0)
(0.55630722 1.8691118 4.3947519e-20)
(1.1116933 2.806076 -2.0746922e-20)
(1.0419197 2.5653538 -1.1570209e-18)
(1.0356704 2.4549263 1.3380938e-18)
(0.91800238 2.5444011 3.3170637e-19)
(0.90956905 2.6073884 0)
(0.97423632 2.5883724 0)
(0.99540938 2.548914 0)
(0.97631343 2.5440429 -1.1983313e-18)
(0.73392155 2.555815 -5.3354264e-19)
(0.8590227 2.5801896 -1.253135e-19)
(0.85935645 2.5356727 1.0025437e-19)
(0.74747041 2.5753745 0)
(0.84803874 2.5685486 0)
(0.8032822 2.5852873 -4.3220513e-19)
(0.80452753 2.5999912 0)
(0.85721325 1.5021151 0)
(0.72776666 1.2866308 -7.9526712e-19)
(0.81616054 1.3107744 -4.8564466e-20)
(0.76126025 1.4165102 0)
(0.75157969 1.3796964 1.2113922e-18)
(1.0987997 1.2609891 -1.9466517e-19)
(1.061045 1.3919 0)
(1.0794232 1.3265192 2.9016429e-19)
(0.90628613 1.4554823 0)
(0.93814187 1.3346078 0)
(1.2509051 2.8226937 -3.6454898e-19)
(1.211343 2.8600088 -2.5924746e-19)
(1.0032953 2.37166 4.480071e-19)
(1.0027637 2.4040839 -1.5234546e-19)
(1.2192649 2.8130298 0)
(1.1761166 2.7690153 1.9355832e-19)
(1.2039694 2.6465482 -3.6500192e-19)
(1.1129496 2.4867776 -2.9226398e-20)
(0.68533343 1.7051328 0)
(0.70031441 1.5081339 -2.1065389e-19)
(0.75206574 1.5919319 0)
(1.0965098 0.23034477 0)
(0.83335102 0.14256008 0)
(0.70361817 0.12806661 0)
(1.0769024 0.23892272 -1.0758184e-18)
(0.85186578 0.1810186 6.2591172e-19)
(1.0646349 0.028068249 -5.6835388e-19)
(1.1606535 0.090695041 0)
(1.1378582 0.10958086 2.5291173e-19)
(0.93410834 0.033909015 1.0253788e-18)
(0.86697242 0.01144645 -6.4761251e-19)
(1.32909 3.4613286 -2.6792978e-19)
(1.3121076 3.3930278 0)
(1.3493229 3.4158255 -6.1182773e-19)
(0.53527701 3.5150011 5.8113656e-19)
(0.78316755 3.0453842 -3.8951e-19)
(0.67089391 1.1549723 9.9609636e-19)
(0.64076645 1.1896088 0)
(0.55249701 0.68829345 -2.7773386e-19)
(0.67061625 0.98246099 1.4797342e-18)
(0.68784861 0.63525572 -3.7849841e-19)
(0.66541444 0.69957002 4.3014645e-19)
(0.84683267 0.66618668 8.9114913e-19)
(0.934844 0.69048652 0)
(0.87404176 0.80637571 0)
(0.78762954 0.75226009 0)
(1.4656496 0.83604194 1.0097611e-19)
(1.3790748 0.7564098 -8.4856418e-19)
(1.3800607 0.80559941 6.3548252e-19)
(1.4494389 0.70798377 -6.4504149e-19)
(1.5550358 0.70237323 0)
(1.5565297 0.76856073 -1.4905908e-19)
(1.1155476 0.47647001 -1.4496826e-18)
(1.1461897 0.47348117 -1.7291783e-18)
(1.039137 0.43284525 1.1350816e-18)
(1.0190236 0.39672315 -1.1562658e-18)
(1.0962512 0.35210653 -8.9811646e-19)
(0.99783033 0.33370553 1.115055e-18)
(1.9135009 0.028893166 -4.9716571e-19)
(1.9421621 0.03125736 1.0062002e-18)
(1.6740974 0.037672615 6.2541332e-19)
(1.6896025 0.044520234 -7.4418991e-19)
(1.7809681 0.049939932 0)
(1.9361721 0.04463088 -1.3121345e-18)
(0.07553525 2.0394402 2.4325185e-20)
(0.07205576 1.9833636 0)
(0.10869613 2.033772 2.5828801e-19)
(0.1209692 2.0251128 -2.3412429e-19)
(0.10568183 1.9412169 4.5792755e-20)
(0.096481568 1.9344167 0)
(0.0092275447 2.0652607 0)
(0.0045465108 1.9043986 3.4284216e-21)
(0.002515951 1.870385 -3.101941e-21)
(-0.0071095111 1.9547865 4.6927919e-21)
(-0.0060117984 2.2015641 4.5722392e-21)
(-0.0052620648 2.223641 3.935661e-21)
(0.66383924 1.714063 -4.7063873e-19)
(0.62343784 1.7472466 4.9674322e-19)
(0.57270449 1.7392291 -1.7997586e-20)
(0.57804732 1.6868293 1.6409283e-20)
(0.80679569 1.7597851 0)
(0.68141511 1.8496725 1.9966995e-19)
(0.74701668 1.8580438 -1.9404995e-19)
(0.60678162 1.7648057 1.7852646e-20)
(0.68378065 1.6951441 0)
(0.73629646 1.6728498 0)
(0.71120251 2.5246981 7.8125861e-19)
(0.71338673 2.5877484 1.4517063e-18)
(0.75939624 2.5900767 -1.0430292e-18)
(0.63212689 2.5953049 -2.1871179e-19)
(0.61878611 2.6560172 3.592647e-19)
(0.57215717 2.6249051 -9.0456781e-19)