/*--------------------------------*- C++ -*----------------------------------*\
  =========                 |
  \\      /  F ield         | OpenFOAM: The Open Source CFD Toolbox
   \\    /   O peration     | Website:  https://openfoam.org
    \\  /    A nd           | Version:  9
     \\/     M anipulation  |
\*---------------------------------------------------------------------------*/
FoamFile
{
    format      ascii;
    class       volScalarField;
    location    "33";
    object      p;
}
// * * * * * * * * * * * * * * * * * * * * * * * * * * * * * * * * * * * * * //

dimensions      [0 2 -2 0 0 0 0];

internalField   nonuniform List<scalar> 
918
(
0.53416166
1.80365
0.014818817
0.50425171
-0.0085932003
1.7743151
-0.92341115
1.3084355
0.55809425
-0.16486717
-0.047137039
0.72913625
1.6457003
1.4048746
-0.68252339
-0.023570385
1.1437598
-0.75921805
0.56104116
-0.053317662
1.409201
0.50481532
0.53150853
0.50560863
0.90159786
1.37567
1.5087125
0.010409926
0.00056010731
-0.011388694
-0.0040186322
-0.05313582
-0.033316778
1.6505914
1.7046122
1.7282992
0.52456778
0.5697693
-0.70473628
-0.79093947
-0.77782023
-1.0092126
1.290911
1.2832375
-0.33707319
1.3184273
1.3344106
0.51725775
0.5536707
0.56517589
0.50061998
0.53209766
0.5477191
0.48294882
-0.17816315
-0.23795676
-0.12382959
-0.10473903
0.066326487
-0.041496716
-0.045160138
-0.036968843
-0.033172328
0.54430238
0.70029964
0.67753273
0.74657576
0.78395089
1.7407461
1.7041899
1.7311677
1.6779898
1.6682953
1.6255406
1.588688
1.4437898
1.4512362
1.4021521
1.3655227
-1.2145738
-2.2605994
-0.10167867
0.20546603
0.0004842163
-0.0061445383
0.0075732243
1.1194452
1.1054745
1.1635653
1.1881599
1.2964258
-0.69907216
-0.96606238
0.56426617
0.55916132
0.54633004
0.52802534
0.57472085
0.61989632
-0.04189815
-0.0367076
-0.060183973
-0.046788631
-0.043337709
1.3907973
1.382627
0.5200433
0.52435868
0.8023904
0.86078629
0.84050536
0.37550535
0.91666047
0.93671985
1.1818863
1.3732392
1.3815926
1.3642436
1.4949666
1.4504071
1.5553603
1.5809316
0.026898986
0.0047598007
-0.0070899371
-0.026876932
-0.0025810409
0.53407916
0.53410326
0.57035394
0.52493911
0.52998583
0.51443691
0.37458596
0.65605211
0.67353648
-0.54919028
-0.60322732
-0.82006094
-0.84004193
-1.0396154
0.91077626
1.2650966
1.2538632
-0.4000897
-0.27668719
-0.45248192
-0.19213116
-0.23830841
0.5256919
0.528793
0.52515276
0.5194639
0.52080605
0.52201779
0.54162993
0.54099829
0.55653868
0.55433346
0.69418202
0.4306219
0.37446089
-0.45833032
-0.26498318
-0.43929612
-0.086582916
-0.075752282
0.09287462
0.14110784
0.071075301
0.067324001
-0.064965009
-0.050093395
-0.057038241
-0.033872197
-0.031821465
0.53485954
0.53211596
0.54244038
0.54767959
0.61463917
0.62344496
0.65592733
0.64099737
1.5146625
1.5383248
1.5830098
1.545936
-3.6566772
-6.3456556
0.53368258
0.71514873
-0.0054305406
-0.00048403994
0.006542185
0.0035437781
0.0067942108
-0.009606302
0.025650251
0.018266265
0.011085583
0.018500863
1.0713028
1.0557444
1.2441997
1.2815366
1.1616895
1.1517525
0.56871853
0.56582215
0.57264098
0.56385452
-0.033543553
-0.035805083
-0.033903643
1.3433636
1.3696344
1.359444
0.29153226
0.19983704
0.41673505
0.45899664
1.0223574
0.97155721
1.0042358
1.256422
1.290226
1.5703997
1.5824205
1.6203058
1.6170676
1.6653572
1.6576745
1.6161516
0.53967555
0.53611345
0.54455158
0.56602483
0.57010428
0.56997767
0.59788792
0.58544945
0.58828286
0.20928673
-0.12829366
0.73837363
0.73480009
0.71819667
0.70966475
0.98524781
1.0756513
1.1995944
1.2330087
1.2213113
-0.089709432
-0.11594623
0.30566377
0.2788649
0.48242856
0.51560797
0.50780719
1.4887563
1.4890176
1.5354627
1.4976968
1.4390345
1.4618337
-0.15438653
-1.3193303
-0.70384191
1.1158304
0.89722919
1.0010365
0.02861544
0.027224811
0.0055046593
1.2535762
1.3153069
0.75360545
1.0025819
1.004155
1.3370499
1.3595656
1.4315038
1.3576216
1.3837437
1.4076865
1.3906427
0.85857605
0.77008605
0.7903484
1.1228613
1.1761697
0.12474951
0.016724402
0.0069616659
0.15318519
0.21084175
0.17654876
1.2821337
1.2201139
1.2911689
0.53131337
0.52355278
0.010154558
0.019920564
0.56719658
0.54223454
-0.021876618
-8.9205691e-05
0.97790947
-0.42735388
0.14709049
0.57340203
0.54157809
0.54748004
-0.15822857
0.44629814
-0.035648205
0.065888976
0.002643257
0.71071449
0.56488165
0.53675162
0.002788335
-0.026737913
-0.029839439
-0.37072566
0.53826279
0.51704809
0.53631997
0.51958102
0.55310581
-0.01176398
-0.0028629167
0.0011124611
-0.031300007
-0.020051367
-0.034523935
0.54174745
0.59118383
-0.28023542
0.55304988
0.54173899
0.55757509
0.52220046
0.57897595
0.53325561
-0.0039884437
-0.0063244745
0.00044545699
0.32010209
0.47553519
1.2930798
1.4352226
1.3192856
0.9297352
0.59902243
1.1502642
1.2465123
1.1133571
1.2861352
1.2501726
1.3016947
0.22816498
0.018142218
0.25707436
0.15090038
0.56888504
0.57164312
0.53695884
0.5302909
0.55498562
0.52695221
0.55727342
0.56171826
0.55993959
0.57531809
-0.08485804
-0.12335734
-0.14955862
-0.23669591
0.45971919
0.73488232
0.36021809
0.3976703
0.19447907
-0.029770514
-0.034004397
-0.033627602
-0.047345613
0.033604336
-0.028356352
0.086307684
0.084251777
0.058352676
0.0089318557
0.000744343
-0.025787092
0.014965916
0.66476039
0.64497979
0.70565275
0.75544373
0.55928285
0.54625783
0.54235361
0.56241542
0.54406975
0.48383582
0.53796076
0.5011803
-0.0052936338
0.00037731348
-0.0043111385
-0.012141599
0.0057205079
-0.0049219595
-0.008534971
-0.013589154
-0.010764336
-0.012316102
-0.03049536
-0.035853764
-0.32332059
-0.48257122
1.199389
1.0583675
0.24733947
0.5135955
0.51542711
0.50094669
0.54394158
0.53212394
0.5352695
0.53508759
0.531403
0.54328342
0.54592408
0.58968592
0.60140284
-0.20665409
-0.4207274
-0.1795373
-0.24885625
0.43685559
1.0316201
0.4839861
0.38860208
0.38948129
0.83621691
1.5290925
1.3863001
1.3782104
1.4012573
-0.070014643
0.40722663
0.12373497
0.80222797
1.0320805
1.262725
1.3193634
1.3232789
1.2934246
1.2316923
0.013701688
1.0358108
-0.11267308
-0.080702429
0.28461055
0.066309742
1.3227671
1.2142634
1.2107894
1.2911812
1.3255662
1.243944
1.1984367
1.2152815
1.2734197
1.2708837
0.92539681
0.36317452
0.26232727
0.22905089
1.1522786
0.99089653
1.087319
0.87090102
0.5557926
0.57665426
0.56003905
0.51292828
0.53325637
0.51094044
0.56150894
0.58935761
0.56970288
0.54513743
0.56997071
0.54419083
-0.080341825
-0.083110041
-0.033837452
-0.24518812
-0.22657519
-0.34094122
-0.116095
0.11580782
0.080671833
0.29920344
0.4289552
0.07028509
-0.1312554
-0.071020714
-0.0097448789
0.21345968
0.26902225
0.13364155
0.1927493
0.18321189
0.15829049
0.30045181
0.30462153
-0.003504537
0.0027716273
-0.02064738
-0.018513505
0.052520951
0.16238583
0.16391352
0.020637944
0.0084755633
-0.028461791
-0.030174673
0.02236264
-0.011261471
0.010323967
0.030661598
-0.010295213
0.019931929
0.01468798
0.0051038364
0.028768066
0.023361983
0.62088425
0.62880781
0.61890807
0.7853186
0.77854671
0.81409072
0.78810985
0.54460428
0.54724759
0.54133153
0.58576891
0.56137921
0.59495889
0.61726644
0.66128537
0.67439483
0.59737548
0.5756242
0.64352838
0.60063948
0.59113196
0.60377683
0.61660493
0.55265695
0.56642665
-0.016540446
0.010980764
0.025850138
-0.05278622
0.012607441
-0.0086858299
0.0087658644
0.04441251
-0.0018234841
0.021452432
0.011697385
-0.012194784
-0.0010750327
-0.14450526
0.020955353
-0.3811218
-0.41166547
-0.50825429
1.0920472
1.249237
0.99258887
0.71416323
0.74681263
1.0304583
1.1725559
0.68701613
0.81888192
0.9318386
0.87504208
1.1116045
0.53805127
0.52950837
0.54154721
0.51688113
0.5487016
-0.011611951
0.20284327
0.12232842
0.30877535
0.55205436
0.60233147
0.3982815
0.33739949
0.49898823
0.39673288
1.0327739
1.0667569
0.92752669
0.98933737
0.97603045
0.63905659
0.86607277
1.0008907
0.87549937
0.93457011
0.97298459
0.91880937
0.97739502
0.87414584
0.75591973
0.78620926
0.57310643
0.65445022
0.60565676
0.55930148
0.69484128
0.64980915
0.69283045
0.6744477
0.74124996
0.84156907
0.82249959
0.8330608
0.88289177
0.72974438
0.65001853
0.67454793
0.75005667
0.61977269
0.64144497
0.68427595
0.40879521
0.41924455
0.30290607
0.21372052
0.29332276
0.13643082
0.11400192
0.146648
0.45550709
-0.16620061
-0.15494743
-0.52357837
0.89342195
1.5493457
1.2481533
1.2386654
1.328631
1.2959077
1.2900004
1.3450207
1.3481218
1.1448525
1.1948039
1.1890371
1.1341193
1.1783165
1.2761275
1.253524
0.98246612
0.66755058
0.63552742
0.57867702
0.2975402
0.39042874
0.79286108
0.63425798
0.47517486
0.4534465
0.77572241
0.51197773
0.64616753
0.78769737
0.60959366
0.50515382
0.96089266
1.0906857
1.0794197
1.0262524
0.86303217
0.91589126
0.99631269
1.0699408
1.1089476
1.1828835
0.53661588
0.55096865
0.54487768
0.52531817
0.55123856
0.56169558
0.56065575
0.5502818
0.55642536
0.56062662
0.5714109
-0.046147259
-0.032128731
-0.055345895
-0.063903395
-0.0074639396
-0.027047396
0.051658353
0.025091488
0.00091051784
0.0091494814
-0.028534694
-0.046267738
-0.026024066
-0.008802713
0.1683074
0.20453627
0.14998577
0.13473464
0.33730014
0.47570134
0.53065575
0.44963073
0.26719148
0.29168076
0.35950862
0.046789188
0.061635571
0.074144934
0.096808931
0.10165661
-0.02438457
-0.026690106
-0.01918952
-0.018671708
-0.0033225267
-0.022700185
-0.031383635
-0.020518114
-0.02104261
-0.026575436
-0.033303944
0.54499171
0.56021965
0.60791738
0.57002769
0.56878205
0.60011727
0.57651669
0.59272148
0.59829269
0.62439358
0.60669251
0.64133751
0.63373217
-0.012025717
-0.014435664
-0.032794838
-0.018745103
-0.01383228
-0.013296463
-0.020261383
0.24934897
0.1078849
0.14247264
0.020982864
-0.22080214
-0.11248244
0.62419758
0.75458613
0.75351329
0.98097988
0.76835451
0.71679251
0.86180803
0.98420834
0.41790507
0.64764274
0.45878677
1.1134823
1.0173672
1.1912374
0.7367618
0.42103148
0.67138589
0.75599873
0.4421284
0.55739168
0.53902302
0.36418142
0.43245053
0.46453401
0.6291459
0.43358296
0.48386217
0.41204974
0.4311122
0.49525602
0.51243793
0.61778186
0.67767256
0.35037772
0.31974101
0.24981388
1.0521999
1.0705352
1.1056923
1.0947962
1.1230346
0.90225508
0.89294943
0.93352355
0.93142756
0.90249019
-0.35238514
-0.44820189
-0.78974997
-0.23976788
0.37422886
0.94109725
0.81466398
1.3985482
1.1255709
1.3388113
1.2827375
1.22696
1.1335215
1.1319784
1.2133664
0.60616893
0.80791003
0.7849335
0.7379329
0.53824229
0.44282501
1.063471
1.0387907
1.1178976
1.1504672
1.0868048
1.168846
0.55757943
0.57549421
0.55446695
0.5679456
0.5505791
0.56042249
0.090688178
0.034531565
0.14908756
0.12913863
0.051147476
0.023506726
-0.0061408883
0.00082487685
-0.015804718
-0.0099378739
0.0012399674
0.006393123
0.27115072
0.23183387
0.036283746
0.14876462
-0.03184586
-0.12830693
-0.18931412
0.00037493477
0.13213163
0.14711496
0.54866983
0.83292002
0.67633176
0.78835334
0.61498696
0.72489755
0.70480402
0.66899439
0.70573413
0.58311234
0.59763288
0.62265856
-0.17009968
0.16485857
1.4491826
1.3839315
0.98560196
0.83687025
0.77964289
1.1093568
1.0154619
0.84592894
0.95655204
1.0801877
1.061906
0.39615989
0.36875414
0.73532055
0.87017126
0.49240927
0.37847744
0.34201907
0.51287817
0.56174628
)
;

boundaryField
{
    wall-4
    {
        type            zeroGradient;
    }
    velocity-inlet-5
    {
        type            zeroGradient;
    }
    velocity-inlet-6
    {
        type            zeroGradient;
    }
    pressure-outlet-7
    {
        type            fixedValue;
        value           uniform 0;
    }
    wall-8
    {
        type            zeroGradient;
    }
    frontAndBackPlanes
    {
        type            empty;
    }
}


// ************************************************************************* //
