/*--------------------------------*- C++ -*----------------------------------*\
  =========                 |
  \\      /  F ield         | OpenFOAM: The Open Source CFD Toolbox
   \\    /   O peration     | Website:  https://openfoam.org
    \\  /    A nd           | Version:  9
     \\/     M anipulation  |
\*---------------------------------------------------------------------------*/
FoamFile
{
    format      ascii;
    class       surfaceScalarField;
    location    "33";
    object      phi;
}
// * * * * * * * * * * * * * * * * * * * * * * * * * * * * * * * * * * * * * //

dimensions      [0 3 -1 0 0 0 0];

internalField   nonuniform List<scalar> 
1300
(
1.7582594
5.6264299
-5.1551455
1.7582594
-8.5338833
5.6264299
-5.8528314
5.8528314
-1.1657987
1.1657987
3.7333003
3.651389
-4.2511241
4.2511241
-3.6672443
3.6672443
-1.287113
1.287113
-5.2377165
5.2377165
-5.0572036
5.0572036
4.7496467
-4.7496467
-6.8997165
6.8997165
-1.3473715
1.3473715
-5.4297418
5.4297418
1.4942913
-1.4942913
-3.6439858
3.6439858
-0.20638451
0.20638451
-0.57223142
5.1437057
1.1860279
1.1860279
-1.3640507
1.3640507
-4.8555058
4.8555058
6.2142131
-6.2142131
7.9750192
-7.9750192
-2.8198737
-3.284281
1.9786351
-12.491545
-6.5552482
-6.5552482
-8.4382657
8.4382657
-2.8118357
2.8145942
1.4519654
-1.4519654
-1.7794349
1.7794349
-5.6880028
-0.16482855
-5.6880028
5.9788176
-0.12598629
5.9788176
-1.2967092
0.13091053
-1.2967092
4.7524506
-4.7524506
0.99820263
0.16759607
0.99820263
1.2548054
-1.2548054
-3.7385395
7.4718398
3.6461498
-3.0531269
8.1968326
-3.3938241
7.0452131
-6.5329438
6.5329438
-4.547253
0.29612885
-4.547253
4.0338832
0.21724092
4.0338832
-7.459396
7.459396
-3.7126407
0.045396375
-3.7126407
3.6410294
0.026214853
3.6410294
2.1432795
-2.1432795
-1.2186344
-0.068478622
-1.2186344
1.3432944
-0.056181427
1.3432944
0.35898261
5.2674473
-5.9854126
8.8000068
-5.2674473
0.029730822
5.2000784
0.037638067
5.2000784
-5.0936581
0.036454469
-5.0936581
5.0145859
0.042617733
5.0145859
4.846918
-0.097271352
4.8469179
-4.8509062
0.10125952
-4.8509062
-4.0845768
-4.4485207
-7.0692508
0.16953432
-7.0692508
-1.2752822
-0.072089252
-1.2752822
1.4182989
-0.070927366
1.4182989
-4.1063327
4.1063327
-5.843606
0.41386418
-5.843606
1.3649254
0.12936592
1.3649254
2.0097283
2.561746
3.7679877
-3.7679877
2.2736964
-3.6071067
-0.036879047
-3.6071067
-3.7327189
-4.2423003
3.7327189
-0.088733066
-0.58474791
0.3783634
-0.58474792
1.2381092
-0.05208122
1.2381091
1.3777028
-0.034408386
-1.3777028
0.013652165
3.3764374
-3.3764374
0.91431744
0.44973322
0.91431745
-5.5741357
5.5741357
4.9545263
0.060059624
-4.9545263
0.099020477
6.1536588
0.060554314
6.1536588
-6.1926873
-0.021525784
-6.1926873
3.480406
-6.764687
-3.3994759
6.7286078
0.17110871
-6.7286078
0.17335965
1.5805433
-0.12857791
1.5805433
-1.1258053
1.1258053
-1.4051973
-0.04676807
-1.4051974
-2.1126169
0.33318196
-2.1126169
1.5078942
0.27154075
1.5078942
-5.3603637
-0.32763914
-5.3603637
-5.9969019
0.15329596
5.996902
-0.018084326
1.3958291
-1.3958291
-1.3918372
0.095128
-1.3918373
-5.0121779
-0.34818582
5.0121778
-0.25972723
-4.590542
-0.16190862
-4.590542
-1.3190424
-0.086154924
1.3190424
-0.064237078
1.2646044
-0.026495206
-1.2646044
0.009798988
-3.0513308
5.6130768
-3.3956202
7.04177
-6.1525162
-0.38042764
-6.1525162
6.8741313
-0.34118748
6.8741313
5.014645
0.41509684
-5.014645
0.46739199
3.8805219
0.15336132
3.8805219
-7.4227161
-0.036679883
-7.4227161
7.4720273
-0.012631316
7.4720273
3.7803505
0.10017141
-3.7803505
0.06770983
3.6202823
0.020747154
3.6202823
2.3599595
-0.21668003
2.3599595
-1.9386293
-0.20465017
-1.9386293
1.147715
-1.147715
1.1857944
-0.03807941
-1.1857944
-0.032839993
-11.148728
11.127203
-0.035774458
-11.112954
5.164304
5.164304
4.0604541
0.78646382
4.0604541
-5.0418836
0.19097741
-5.0418836
3.6090904
-7.0085664
3.7623835
-7.8469602
5.0356368
-17.527182
4.7022844
-9.1508051
7.3223325
-7.3223325
7.2029246
0.11940791
-7.2029247
0.13367386
-1.1903676
-0.084914573
-1.1903676
-3.4873565
-0.61897615
-3.4873565
4.7695503
-0.66321754
4.7695503
-1.2940387
1.2940387
-1.312831
0.018792235
1.312831
0.052094399
3.6038366
0.016445687
-3.6038365
-0.003270202
0.80562104
0.19258159
-0.80562103
0.22087311
3.8021884
-0.42575098
3.8021884
-2.9282043
-0.44823313
-2.9282043
-1.0640333
-0.12633427
1.0640333
-0.14971589
-5.8195941
0.24545845
-5.8195941
-11.213437
0.10048323
-11.175799
-6.0922041
-6.0922041
2.3460616
11.146068
-1.7505903
-0.18803902
1.7505903
-0.17004701
1.2494352
0.044603542
-1.2494352
0.12362989
-1.114307
-0.033408022
1.114307
0.011498263
-2.5380822
0.4254653
-2.5380822
-1.2174355
1.2174355
-1.3142964
0.096860886
1.3142964
0.19359774
1.7009557
-0.3051266
1.7009557
1.4287333
-0.010434422
-1.4287333
0.036896042
-4.3826443
-0.20789768
-4.3826443
7.1410855
-0.26695417
7.1410854
-2.6292468
-0.29895754
2.6292468
-0.26928724
-0.035203391
11.162406
-5.1291006
0.035442443
5.1291006
-11.22296
11.258403
-3.1153047
0.57722256
3.1153048
0.94514935
5.3057979
0.2683378
-5.3057979
0.26391429
7.4095705
0.06245683
-7.4095705
0.087238039
-2.9773118
-0.51004469
-2.9773118
-5.5135695
-0.63894671
5.5135694
-0.74401918
-11.47545
-0.19608988
11.67154
-11.432832
6.015684
0.13797479
-6.015684
11.396378
-1.2319126
-0.16391653
1.2319126
-0.014477105
2.0488998
-0.34794415
2.0488998
4.1584036
-0.35621521
-4.1584036
-0.22424073
-7.3057655
-0.11695055
7.3057655
-0.1646801
-2.4915421
-0.48576967
2.491542
-0.44264219
-5.3365632
5.284482
2.8602694
-3.3325054
-3.4321815
-7.5748057
2.5437115
3.0693652
4.8174079
-10.999285
-6.527896
-10.825926
7.2713299
-7.0074156
-9.4907984
9.393527
10.097163
-10.259072
-7.3101214
7.3622158
8.72521
-8.7894471
3.7863625
3.6854773
10.919313
-10.623184
-16.764006
16.383578
10.275836
-10.23044
17.01506
-17.051739
-19.277087
19.339543
-7.3461625
7.2776839
-9.2559262
9.051276
-9.5216883
9.252401
-3.6779087
-4.1690515
14.220812
-14.051278
11.697791
-11.73467
-11.528073
11.941938
4.0434637
1.2410183
4.0169685
-3.6154739
7.4018364
-3.4297391
6.2900086
3.5572813
-7.23519
3.4512851
-6.8834666
5.9934489
5.7043421
-5.9047158
-1.6700899
-8.1754931
8.0469152
-7.4991284
7.5106267
11.838993
-12.003821
-3.6074851
7.2929625
-3.4342848
6.5036501
-3.6905315
-3.6195899
3.5611656
1.2562423
8.7683605
5.4524515
-8.9394693
-1.8864565
-10.762838
10.406622
-11.345109
10.896876
-0.44879784
5.7857982
-5.3370004
4.406708
-1.473413
7.2592112
5.797917
5.9888944
5.8671534
-5.5988156
1.1402622
-6.4772625
-6.3782421
-3.0156048
3.1107327
3.0750516
-2.9074555
7.7829397
2.3142238
7.5232125
-7.3094413
-2.9496307
-7.517339
4.4124395
2.9497763
4.4312317
5.2551995
3.4700105
5.1690446
5.8601241
-5.9611198
0.10099571
-5.4721451
11.332269
1.3318427
-9.091735
-7.8354927
6.9137636
4.0055491
7.1310045
-7.5416287
-3.0815552
-7.0742367
-10.207802
-6.5562033
-10.846749
10.943413
5.4401649
10.602226
-12.873962
12.709282
6.705895
3.5699413
6.7321099
-6.8257562
-3.4046838
-6.7580464
13.262006
-3.1936752
-10.068331
-11.146957
-8.1301294
11.159588
5.8554712
11.875224
7.4643195
11.962462
4.8715421
8.390464
-10.727013
2.5968839
-4.5035942
-2.8425683
-4.5364343
4.5034577
2.7742261
4.4472763
-5.4400636
-3.8158626
-5.6281026
-5.4368561
-4.0848322
5.6535361
3.3977399
-5.6374946
-5.7076142
5.9364521
3.3159489
4.3579552
-10.885851
4.7928499
-8.9619014
-9.9696105
-4.0816672
-9.8359366
4.55437
3.0555444
-7.6099144
-2.6808201
11.234377
-5.5300346
9.5642867
-7.2397141
-4.494956
-7.2429843
-9.0978672
-2.4302061
-8.9445712
-9.5137598
9.0037152
-9.894558
9.2313404
13.894008
-6.7412802
-7.1527274
-4.8816108
-3.9078363
4.8718118
-0.85484336
-7.2091532
7.3101489
0.19268327
6.4826918
7.7237101
6.8688667
-4.5001372
-2.9989912
-4.3765074
4.5891116
2.921515
4.5557036
9.0803584
2.7586341
8.9543721
-8.3291192
-3.6747019
-8.6567583
9.5522156
-9.2190336
2.9952986
-3.1216328
7.1320416
3.764834
-6.7062906
-4.056547
9.3303436
-4.3593815
-4.9709621
-12.064177
10.634577
1.4296003
-4.8049663
-0.39825828
-0.1918738
-5.5724539
-3.9183445
5.4711945
0.51769993
11.152277
7.2339328
-5.5167585
5.762217
6.1547811
6.2148407
-0.16340139
6.0807277
-5.5035051
7.3140244
-3.4542619
-3.8597626
6.7694208
-7.1176066
-1.8873376
-7.4335724
5.5462349
0.40560593
2.164367
-1.7860036
-2.2247961
-0.79080863
-2.1879001
1.8377479
1.2373037
2.0303295
1.0921955
2.0185372
-3.7679765
0.75800781
3.0099687
-2.675781
-2.1494477
-5.0836422
-1.9108767
6.994519
7.5033481
2.9032743
-7.2791073
-0.23823165
2.8563894
-2.9273168
-0.70792411
-4.3757181
3.0843587
-3.7922829
-5.8421938
-2.4190213
8.2612152
-3.7173328
-0.65917455
3.6727293
0.75850247
-4.7980504
-3.3774427
4.8448185
0.3242261
-5.3851649
11.030947
-5.6457825
-8.3841561
4.5060591
6.8262101
7.4558354
-9.168184
4.7776981
4.3904859
-2.341974
5.9295101
1.2014945
6.0828714
-9.1981678
6.1166126
7.8663681
4.0755693
-8.281465
1.2072283
-7.9909395
10.606392
-9.2549443
-1.3514475
5.2538567
5.3525351
7.5684825
6.3255251
-6.0302854
13.598768
-1.4726509
-7.7822935
9.4635903
-5.388021
6.1435829
-11.531604
-12.469108
4.6868146
-9.8157924
11.901921
-2.0861285
-3.8612944
-9.0126674
13.677087
-1.3226041
-12.354483
9.2796216
-5.5374159
-5.611509
11.148925
-8.731091
9.0161928
-2.5798979
-6.4362949
-10.859958
-6.1917812
10.976909
1.7323729
-11.788633
14.385517
-3.3981686
5.7995529
0.93255694
5.8203001
4.1632038
-6.7890221
2.6258182
4.5678872
-7.147785
2.5920154
-9.3810374
-7.2073164
13.226213
-6.0188968
-11.288984
-10.252354
-1.0366297
2.7797148
11.605802
-10.244034
8.0064206
2.2376137
3.8389322
0.71677136
-3.8008528
-0.73558148
0.58794212
6.7355945
-7.3235366
5.0352184
5.00081
5.068331
1.6672635
5.1242041
2.922711
-4.9541571
-0.67394556
-6.4160547
2.3312225
-3.0183148
-6.3625656
8.6937881
-7.0853521
0.72278647
-4.2971061
-6.1626217
10.459728
-7.1396744
5.2798551
5.7510923
8.2013701
-8.6925399
2.5299181
-4.3892278
-4.3033121
4.555434
-7.5737488
3.3083166
5.3854714
6.6242655
0.91665137
6.5220487
6.7041645
-9.5775932
0.61569174
12.156616
-10.270159
2.6703327
9.2921292
-10.676753
0.4243994
-9.4115372
1.2148632
-6.7448978
-6.3950512
6.7227258
-9.152932
-4.808878
8.282102
0.67227011
-8.2640178
-0.6805534
-6.490833
-3.0229267
-6.9766026
-3.2902117
-6.6043462
-9.3204971
-1.7803929
-7.5401042
7.2233223
-7.1986213
-3.6481279
7.9426404
1.2887001
-7.9962293
7.8323128
-8.0376678
7.6897236
0.27422705
7.0359218
7.1430938
3.2352575
-4.6939478
7.9292053
-6.9702875
9.7289216
-11.663518
4.6932306
5.5096936
-9.1843956
-6.1538244
5.4603591
4.0918564
5.7318999
9.377183
-10.849225
1.472042
-11.066971
12.615964
-1.5489928
-17.119909
6.0529371
-7.7427255
2.8268318
0.16846681
2.7419172
0.84450773
2.9017962
-3.7463039
-2.2771251
-2.426841
-3.6413951
-5.487065
9.1284601
1.8430759
-5.2052526
3.3621767
-4.7409126
6.5839885
0.092225682
-5.2974783
7.1461162
-4.24432
7.314583
-4.6486869
2.6658961
5.0860237
8.9388734
-3.8528498
6.6189416
-2.8541076
2.9246705
-6.7775202
-2.5623945
-4.9113824
7.6856085
-5.5483455
6.2711319
-0.36207184
6.6332038
-5.7856516
1.4262701
-0.71732064
4.2834894
4.2971415
6.8753269
-5.2080634
4.8731555
-7.7272631
-1.9043647
-6.8106118
-1.4251404
-0.48910127
-5.1639301
5.6530314
6.7290989
-7.2182002
-5.3574815
9.7593433
-4.4018618
8.0703221
-5.5366673
-2.5336548
-4.5565309
-4.6625026
4.1310656
1.949662
10.019984
0.27723345
-5.8139008
-5.2262717
-4.2811223
4.4735988
2.8404257
-2.2862869
3.7158871
2.4781607
-0.31379374
0.72566064
1.3046689
2.4339621
-1.7083015
0.26046164
2.1735004
-1.5255419
2.1493033
0.70708616
-2.1388689
-0.049031237
-1.6082669
4.6926256
1.4017018
-2.6390055
0.93070403
1.5187723
-4.9730342
6.9352809
-3.5972894
-3.3379915
8.4540532
1.5846675
-5.1819571
5.8489048
-5.4432989
3.2392872
-5.150164
-1.9426698
-7.3859687
-5.0717449
-4.1379954
7.5001721
-4.9904647
7.893739
1.6579783
-7.6555073
9.3134856
-4.8302151
2.4111938
-4.1621806
4.8692668
-1.7537733
-2.4084073
4.2614773
3.9997378
-4.2340342
-0.14168396
0.027443152
3.2013742
-3.1739311
-0.59090865
-3.2666896
-7.5760521
7.9002782
-3.8231637
8.6008619
4.1060416
-3.5614931
12.162355
3.2199471
-6.7814401
-5.1642091
-5.8233836
-2.3909543
5.0648811
-0.82841947
-5.9296269
-7.2647144
5.8294555
0.25341586
-9.2940736
10.365574
-1.0715
-5.2885246
-0.82808803
6.0819447
-7.7811011
0.63331602
-5.1890857
5.176488
6.3779825
6.6313983
-12.122848
-0.23163499
-6.6826828
1.3358211
-8.0185039
6.6883562
-3.8069373
8.4937519
-11.080531
7.4324028
-9.7918306
7.1423043
-0.87619952
7.145423
-4.5196048
2.9229078
-9.114689
-7.382316
7.1991904
-3.6292491
8.1317473
-4.1215072
12.253254
-7.5196758
6.9877931
5.2654614
-1.374456
-5.8685283
-6.9560106
5.5815545
0.031782528
5.8520826
7.8489072
-4.9261961
7.1749616
4.2146497
-8.6038775
-3.359099
-11.864304
3.2604265
-6.1132117
-3.1547606
6.4151872
5.0466095
5.7633809
2.111875
-5.0277994
8.3639346
-9.4005643
-2.3450379
-4.0500134
6.8906635
-1.309109
4.3491903
-8.3992036
-2.3957076
5.7619361
-0.71314058
-5.0487955
0.97934406
-5.7882221
2.3603879
-8.14861
6.792544
-7.4730974
2.3405496
-10.083275
-5.6556798
-5.6701569
-2.4162776
-5.6213902
-7.9587331
5.5424555
-1.905796
5.9265168
-8.9100797
8.1969391
-3.7058846
9.2483401
-5.8410673
-1.1355354
6.2837094
1.4060142
10.654354
0.35171398
-6.5055384
-2.7839529
5.5875867
-2.8036338
1.6896459
-4.8122161
0.77537058
3.5044978
4.9495554
-9.0507327
-0.13366287
-6.6392012
-4.1595955
8.2514519
5.5997477
12.328847
1.4796216
9.4109154
-1.1594635
10.890537
4.5724364
4.7660342
-4.122825
5.594867
1.5302064
6.223437
-0.87239077
3.5382869
1.8695264
1.7974372
1.1298796
2.6530245
1.644117
4.0792946
0.33299071
-2.0938503
4.6967129
-8.9778352
-1.1171879
-8.1913714
1.2021555
5.8711145
-4.668959
4.3225972
-1.4821716
1.5189633
-0.053653795
-2.253113
2.3067668
-3.9134166
-2.5669067
-0.39340629
-2.1945379
3.125242
2.4980877
-2.7318356
-1.1815809
0.65218045
-5.7239253
4.4979835
-4.6396674
-0.63992958
8.673556
-3.7115501
0.53761898
-1.3003563
-2.7290706
-3.5198793
3.5689105
11.553482
0.60887298
5.9076994
8.5091512
5.1317085
0.20551232
4.8072507
-6.8933792
-4.5737867
-7.1250142
-0.43665798
5.6452867
2.2017331
9.4040686
7.4671945
6.1580855
-2.2411181
-11.641682
8.2394864
-2.6446194
6.6904936
-1.6416981
-6.5069119
6.7025982
3.0263234
-7.3748683
-0.098229154
-6.605141
-9.2497604
-0.50557352
8.7025126
-10.148781
9.0132455
5.9903188
1.5497853
-4.8150972
-0.85505972
4.7182363
0.047797813
10.938335
-1.1935772
-7.1054563
8.2990335
-4.6775373
3.5603494
0.92462469
2.7912625
3.2313917
1.7492201
-5.3562362
-10.025195
-2.9250817
-2.0479525
-6.2630732
0.7314458
-3.2295335
6.2904597
-2.7301103
3.7568049
5.5689231
7.0878865
-2.0413113
-5.1768889
6.4431731
-2.6863682
4.4015183
)
;

boundaryField
{
    wall-4
    {
        type            calculated;
        value           uniform 0;
    }
    velocity-inlet-5
    {
        type            calculated;
        value           nonuniform List<scalar> 8(-1.7582594 -1.7582594 -7.3846893 -4.5714743 -7.3846893 -6.446951 -4.5714743 -6.446951);
    }
    velocity-inlet-6
    {
        type            calculated;
        value           uniform -5.6264299;
    }
    pressure-outlet-7
    {
        type            calculated;
        value           nonuniform List<scalar> 8(5.1551455 8.5338833 6.1041547 10.51291 8.5330975 6.8798819 7.3714739 9.7379212);
    }
    wall-8
    {
        type            calculated;
        value           uniform 0;
    }
    frontAndBackPlanes
    {
        type            empty;
        value           nonuniform List<scalar> 0();
    }
}


// ************************************************************************* //
