/*--------------------------------*- C++ -*----------------------------------*\
  =========                 |
  \\      /  F ield         | OpenFOAM: The Open Source CFD Toolbox
   \\    /   O peration     | Website:  https://openfoam.org
    \\  /    A nd           | Version:  9
     \\/     M anipulation  |
\*---------------------------------------------------------------------------*/
FoamFile
{
    format      ascii;
    class       volVectorField;
    location    "33";
    object      U;
}
// * * * * * * * * * * * * * * * * * * * * * * * * * * * * * * * * * * * * * //

dimensions      [0 1 -1 0 0 0 0];

internalField   nonuniform List<vector> 
918
(
(0.40912986 -0.0001795713 0)
(0.0090456365 2.9576279 0)
(-0.008423453 1.3627219 0)
(0.29015569 -0.0084892534 0)
(-0.014806233 2.2689029 4.0815097e-20)
(-0.011744033 2.9485782 -3.4820051e-18)
(1.0080248 1.5843761 7.7425065e-19)
(0.35817743 0.2166941 -2.8143505e-20)
(1.9883683 0.0035696563 0)
(0.026820071 1.2073287 0)
(0.0017278117 1.0096972 0)
(0.26965703 -0.011311778 0)
(0.01283744 2.9163516 0)
(0.013740981 2.7909271 0)
(0.10111679 3.1798768 3.2078851e-19)
(-0.00751225 2.1184131 1.2544179e-20)
(0.37030632 0.081757699 1.7483587e-18)
(0.22469641 1.7001831 5.8587612e-19)
(0.36878324 0.0050650713 0)
(-0.01452019 0.99968922 0)
(0.027970893 0.21364516 -1.4130656e-18)
(1.0476657 -0.021997375 0)
(0.54288446 -0.028346571 0)
(0.24788224 -0.0072758283 0)
(0.36135974 -0.0057458461 0)
(0.023131196 2.6182726 0)
(-0.0099652054 2.9058843 1.2857978e-18)
(-0.021654839 1.4139102 0)
(-0.020617022 1.6300281 0)
(-0.017574436 1.3934627 0)
(-0.0079603218 2.8059921 0)
(-0.0027729948 2.3276539 -3.208842e-20)
(-0.0042542972 2.1064384 0)
(-0.018161896 2.9813219 -1.2986478e-22)
(-0.018375585 3.0070226 2.7033872e-18)
(0.00085946307 3.0015935 0)
(0.28618112 4.9996494e-05 0)
(0.43418991 0.91658329 3.2916387e-19)
(1.0901205 1.5651138 -8.9178676e-19)
(1.1358898 1.4107768 9.3745622e-19)
(0.93293109 1.7251228 -1.7820177e-19)
(0.83938348 1.7290976 1.0371367e-18)
(0.45337386 0.26081987 2.7387721e-20)
(0.38338924 0.19566094 0)
(1.2987854 0.75990861 0)
(0.40198315 0.26448785 1.2606259e-19)
(0.32082938 0.21796383 -1.3124988e-19)
(0.24591766 -0.013805145 0)
(1.9896261 0.0004815719 0)
(1.9887046 -0.002220136 0)
(1.3549125 0.0012147211 0)
(1.8676145 0.0052413573 0)
(1.7381101 0.0030865548 0)
(0.026733435 2.020004 -8.5589327e-19)
(0.051192749 1.4419341 0)
(0.051368192 1.3124787 0)
(0.031868928 1.3872485 0)
(0.019068092 1.1210995 0)
(-0.0019240791 2.2298929 0)
(0.0084908964 1.2483212 0)
(0.0090194089 1.0282922 0)
(0.0011296084 1.2520816 0)
(0.00091357239 0.99084101 0)
(0.52703468 0.026920534 0)
(0.51734491 -0.020322572 0)
(0.23836075 -0.0033207577 0)
(0.52316136 -0.017245119 0)
(0.30836129 -0.0058768579 0)
(0.016738775 3.0145159 1.3340912e-18)
(0.012390791 3.0113817 0)
(0.0077278526 3.0035763 0)
(0.013326699 3.0004895 1.4223101e-23)
(0.010556581 2.9476307 -1.9053204e-18)
(0.016841066 2.9848927 0)
(0.013435031 2.8938423 0)
(0.017645359 2.9239647 3.0812214e-24)
(0.013850547 2.818199 0)
(0.017582934 2.9104302 0)
(0.011143249 2.7543149 0)
(0.25196557 3.6403104 0)
(0.17930473 3.5774771 0)
(0.13480912 3.313203 -3.0008028e-19)
(0.04967629 3.003352 0)
(-0.00084190313 2.2753702 0)
(-0.014008988 2.3459421 -1.2362895e-20)
(-0.0091091425 2.1441801 -7.6215507e-21)
(0.50673405 0.10304637 -5.9931652e-19)
(0.34818157 0.052115542 -5.7051143e-19)
(0.52522848 0.13227748 -1.8302833e-18)
(0.39180081 0.11138831 -1.224404e-18)
(0.17843813 1.1506853 0)
(0.3443051 1.8430983 -6.5651649e-19)
(0.43090597 1.8214606 1.101853e-18)
(0.5446623 0.039100993 0)
(0.3133014 0.026313026 0)
(1.2189054 -0.0014111906 0)
(0.73748062 -0.035308033 0)
(0.64812997 0.017017036 -2.9121808e-18)
(0.64902795 -0.026168481 2.2842501e-18)
(-0.008663734 1.2282526 0)
(-0.0013153227 0.99519473 0)
(-0.039294693 1.4371868 0)
(-0.025357772 1.2672755 0)
(-0.018784066 1.0129456 0)
(0.09381294 0.25558478 4.310459e-19)
(0.18866396 0.19436843 0)
(0.50355055 0.018930645 0)
(0.24521328 0.013626673 0)
(0.51070073 -0.011958352 0)
(0.48928766 -0.013707572 0)
(0.34744241 -0.0023489493 0)
(0.94334342 0.052972003 0)
(0.45621933 0.015225157 0)
(0.24355281 0.0034132835 2.3027233e-18)
(0.0019057497 2.8606947 1.1356944e-18)
(0.021250773 2.8995834 0)
(0.035289036 2.8751522 0)
(0.015670882 2.7037888 0)
(-0.010437496 2.985745 1.2440742e-18)
(-0.0091003678 2.8907464 0)
(-0.011763837 2.9907536 -3.8175533e-18)
(-0.0095938217 2.9158606 1.3053059e-18)
(0.0020072909 1.8188364 0)
(0.022014964 1.8345255 0)
(-0.005059606 2.3362017 8.9830711e-23)
(-0.0045893377 2.3050189 0)
(-0.0065467598 2.0992642 0)
(0.62915957 0.026523371 0)
(0.31713275 0.017521293 0)
(0.22567248 0.023158159 0)
(0.59620092 0.0053010685 0)
(0.27933695 0.01533058 0)
(0.52138436 1.0959943 -4.0365133e-19)
(0.55540592 1.1328679 0)
(0.41020882 0.89924446 5.2661169e-20)
(0.31979608 0.69209691 0)
(1.1908029 1.3696763 -2.6337168e-19)
(1.2033842 1.1789787 4.9718643e-19)
(0.54921416 1.8867446 0)
(0.75313127 1.8425001 0)
(0.6462508 1.8177267 0)
(0.14831512 0.24953905 -4.2379989e-19)
(0.49457654 0.23928484 0)
(0.39628079 0.1747226 3.523904e-19)
(1.2699714 1.152328 0)
(1.3326633 0.93661892 0)
(1.2535363 0.95907828 -3.7989758e-19)
(1.3867641 0.73478572 0)
(1.3349195 0.58116074 6.1870861e-20)
(0.57258192 0.022734528 0)
(0.53610432 0.01238013 0)
(0.25651554 0.011200607 0)
(0.52141316 0.0070834462 0)
(0.5283506 -0.014677587 0)
(0.25433479 0.006793107 0)
(1.4986877 -0.0019181517 0)
(1.8698327 -0.0020277292 0)
(1.7318281 0.00035091243 0)
(0.041285342 2.2425639 4.639831e-19)
(0.050483766 1.9439059 0)
(0.033833495 2.3331974 7.4975746e-19)
(0.020598636 2.0829888 -6.2797555e-19)
(0.16673328 1.6911309 -4.8044341e-19)
(0.081697651 1.5342096 0)
(0.10079911 1.4964935 0)
(0.023446958 1.3384644 0)
(0.013741021 1.0712105 0)
(-0.0042094861 2.4142512 -1.0236688e-21)
(0.0021062923 2.2254174 0)
(0.0014325198 2.4188656 -5.3954842e-20)
(-0.0019187845 2.2307658 9.1146656e-20)
(0.016686092 1.3009451 0)
(0.012297965 1.2706629 0)
(0.011206787 1.0425627 0)
(0.0020835293 1.2463583 0)
(0.0024652462 0.98784956 0)
(0.82494786 0.047229854 0)
(0.5957628 0.027450192 0)
(0.76501126 0.043619466 0)
(0.45021669 0.017806675 0)
(0.2172754 -0.012538788 0)
(0.49488424 -0.010604095 0)
(0.50723544 -0.0051713673 0)
(0.22919261 -0.0090035442 0)
(0.0037080351 3.071997 -1.1473086e-20)
(0.010789083 3.0616301 0)
(0.016167195 2.9688088 0)
(0.013253052 2.8677283 0)
(0.73232336 4.2283281 0)
(1.2329279 3.2944241 8.805526e-19)
(0.072300158 3.1348916 0)
(0.030004508 2.9062014 0)
(0.011598206 1.855795 0)
(-0.0010396064 2.0850894 0)
(0.015164817 1.9614265 0)
(-0.018751475 2.7481955 -8.3688235e-21)
(-0.0098592409 2.4423877 0)
(-0.014794135 2.6002009 0)
(-0.0039459567 2.173191 3.5392601e-21)
(-0.0083769841 2.3957397 1.723285e-20)
(-0.0093627676 2.3727652 7.7521071e-21)
(-0.0069916852 2.1542287 0)
(0.50338472 0.063257088 8.6624022e-19)
(0.32398028 0.021725747 -8.5796748e-19)
(0.30428768 1.6928279 0)
(0.20603028 0.92937767 -3.7547537e-19)
(0.22537853 1.8342783 -1.1720928e-18)
(0.13736821 1.3920004 1.1760064e-18)
(0.27824742 -0.0037317662 0)
(0.52222128 -0.0011689375 0)
(0.51923489 0.015342518 0)
(0.28675165 0.0046022342 0)
(0.0034981344 1.2357167 0)
(0.00012907029 1.2277631 0)
(0.0022616609 0.98786121 0)
(0.34303053 0.26233926 1.1678877e-18)
(0.26514438 0.25255131 -1.3959474e-18)
(0.26469287 0.21212584 0)
(1.2140365 0.13185446 3.3313962e-20)
(1.1359163 0.11552564 0)
(1.0740184 0.089948456 0)
(0.78597308 0.036701401 0)
(0.48556462 0.026176251 0)
(0.45913778 0.0022058406 -3.708752e-18)
(0.28163181 0.0062947189 1.4146849e-18)
(0.0029466624 2.9853087 1.1321756e-18)
(-0.0034038371 2.8652962 4.6256872e-20)
(0.003841859 3.0539483 -2.3971527e-20)
(0.012752108 3.0472523 8.6313975e-19)
(-0.0093930181 2.9952577 4.2379004e-20)
(-0.0083902824 2.9361762 -1.7005972e-22)
(-0.013158797 3.0201634 -7.9736888e-19)
(0.0012152148 3.0231448 5.7472175e-19)
(0.0066753545 3.0398215 -8.6376086e-19)
(0.72413459 0.03813157 0)
(0.68248285 0.039162194 0)
(0.37338826 0.019116516 0)
(0.5107625 0.010672653 0)
(0.48718468 0.036549075 0)
(0.26856035 0.0028019709 0)
(0.48231679 -0.016901822 0)
(0.46338994 0.0021136125 0)
(0.21332403 -0.0066666272 0)
(0.70900462 1.3818323 -1.2823019e-19)
(0.77667498 1.4629579 0)
(0.16268715 0.35106519 1.0213471e-19)
(0.32906655 0.76032523 7.8133906e-19)
(0.35063088 0.79282002 -4.6249219e-19)
(0.22884651 0.48905162 9.0263034e-19)
(0.41691941 0.95646736 2.1658383e-18)
(0.16498887 0.33265894 4.8487106e-19)
(0.52773329 0.17225156 1.2976279e-18)
(0.52084181 0.21213887 3.3986428e-19)
(0.40214263 0.14058456 6.5421417e-19)
(1.4100479 0.54807658 1.3501561e-19)
(1.3193177 0.39786366 9.975063e-20)
(0.024238851 2.3907814 2.8285681e-19)
(0.011454854 2.1573112 0)
(0.97142125 0.062482055 0)
(0.89179355 0.054654957 0)
(0.69032772 0.032662592 0)
(0.010024774 3.0770161 0)
(0.016973683 2.9387327 1.6886995e-18)
(0.016540666 2.9537071 0)
(0.013504374 2.8433786 -1.6857072e-18)
(0.0095154111 3.0917504 3.8744091e-19)
(0.003756468 3.0887756 0)
(0.86715128 1.751885 -9.2631142e-20)
(1.1320806 2.3617081 4.5100176e-20)
(0.84641212 1.8679492 -8.037841e-19)
(0.014780772 2.9986476 -1.0415044e-18)
(0.036211231 3.038989 0)
(0.012674248 2.8736099 0)
(-0.010409599 2.4013308 -2.402529e-20)
(-0.0054921442 2.4064412 -3.3699608e-20)
(-0.0026460749 2.2115511 -5.173508e-22)
(0.3436547 1.5300791 1.1835894e-18)
(0.21034962 0.74552274 -8.1205229e-19)
(0.088476956 2.1530317 8.2328989e-19)
(0.1665523 2.0140251 -1.0098164e-18)
(0.082609848 1.6800188 1.2237972e-19)
(0.014167305 3.1142249 -2.5700741e-18)
(0.016794343 3.1195999 2.9093522e-18)
(-0.00862306 2.980289 1.1925293e-18)
(-0.0052624212 2.9773875 -1.1735481e-18)
(-0.0075766545 2.8762077 -1.2148255e-18)
(0.0046587087 3.1054986 -3.01582e-18)
(0.0095457838 3.1048034 2.994866e-18)
(0.37514227 0.8264055 0)
(0.32697878 0.7669862 -1.7307855e-18)
(0.13293452 0.27599778 7.6852524e-19)
(0.41217438 1.0774816 1.3903426e-18)
(0.18942367 0.42552195 -2.1586752e-18)
(1.3462178 0.21828409 7.523602e-20)
(1.4022075 0.37132546 0)
(1.2717974 0.23668996 -2.9807206e-21)
(0.0081879258 2.4215346 -1.9628531e-21)
(0.0089111054 2.4061891 0)
(0.0051953527 2.1965293 0)
(0.39173911 1.3931592 -4.2583639e-19)
(0.42157152 1.2472642 -9.5460127e-19)
(0.19977922 0.56635858 1.7187837e-18)
(1.1919318 0.0058255459 0)
(1.3367619 0.0018799024 4.6836438e-19)
(-0.011723157 1.7962643 0)
(-0.031769675 1.808971 0)
(1.5129473 -0.00090677448 3.4562684e-21)
(1.1010954 0.015541003 1.0373937e-18)
(-0.015637061 2.7534136 1.0853715e-20)
(-0.014357436 2.7983852 0)
(0.062723426 3.1796665 8.4139939e-19)
(0.53993702 3.5528693 0)
(1.4836721 0.8720902 -7.6209398e-20)
(1.2775411 0.010308509 2.3717605e-20)
(1.3720678 0.023929362 0)
(1.9989161 0.0079258386 8.4754203e-21)
(0.11762887 1.8762884 0)
(0.12115484 2.7472669 0)
(0.017190277 1.7949946 0)
(0.0053573056 2.8231175 4.8152184e-20)
(-0.01876384 2.7734633 2.3771042e-20)
(1.2725478 -0.0085913183 2.0324424e-20)
(1.4278466 0.066892494 0)
(1.4698045 0.096517286 0)
(-0.012785408 2.0987193 0)
(-0.014039583 2.7928874 0)
(-0.01040866 1.7888362 0)
(0.34097407 1.9884457 -2.8006074e-19)
(1.2988384 0.0096440008 0)
(1.093879 0.0085023989 0)
(1.9710757 0.010877313 6.1028404e-19)
(1.6578607 0.015826068 -7.0061365e-19)
(1.9058782 0.010303689 0)
(-0.0085017015 1.9247492 0)
(-0.0059544395 1.82161 0)
(-0.00039716636 1.8750305 0)
(-0.012523094 1.7829129 0)
(-0.017079076 1.7601565 0)
(-0.020661908 1.7643127 0)
(1.4098395 0.044915533 0)
(1.3051078 0.0060519443 2.3032103e-20)
(0.98482087 1.7135481 4.3834687e-19)
(1.9566629 0.001420652 -6.2147747e-19)
(1.7070191 -0.004543734 7.4247286e-19)
(1.8970995 -0.0060460432 0)
(1.3077607 0.0028118254 6.1490712e-19)
(1.1822781 0.0019305574 -7.7244807e-19)
(0.92819958 0.020810829 0)
(-0.017264661 2.8307638 0)
(-0.01779673 2.803076 -4.621602e-21)
(-0.01603815 2.8234235 2.1514523e-21)
(1.6225871 0.36718919 7.5370087e-19)
(1.5701069 0.16831395 0)
(0.078441934 3.0544202 -1.5428487e-18)
(0.044550106 2.8464707 -1.0791098e-19)
(0.18319683 3.1791298 2.3447206e-18)
(0.16786299 3.2450228 -3.7929797e-19)
(0.16591097 3.2919882 0)
(0.031962803 3.1348137 4.3983919e-19)
(0.085689646 3.1737032 1.5169165e-18)
(0.082056523 3.2008303 -8.186707e-19)
(0.050103865 3.1086513 0)
(0.76942946 0.35991158 0)
(0.70532482 0.45132423 0)
(1.4464448 0.94564833 1.6822411e-19)
(1.3919965 1.0925251 -1.4140816e-19)
(1.5510151 0.76325196 0)
(1.5464014 0.69870302 0)
(1.2767833 0.017039771 -1.2349621e-18)
(1.0912033 0.013285071 1.5839315e-18)
(1.39195 0.021828644 0)
(1.2354713 0.021860031 0)
(2.0042064 0.013527867 0)
(1.877832 0.0039889328 0)
(1.9369941 0.0088980162 0)
(1.7282342 -0.0055843519 0)
(1.6667434 -0.0013599745 0)
(1.7982274 -0.0013781497 0)
(0.10352788 1.8652079 0)
(0.079566803 1.8536683 0)
(0.14521948 1.9053672 0)
(0.15689416 1.9304556 0)
(0.141719 2.7754391 0)
(0.18137284 2.8529123 -5.0222244e-19)
(0.099531661 2.8463226 0)
(0.082078164 2.8630248 2.267552e-19)
(0.030697047 2.8807614 -1.9978454e-19)
(0.015772214 1.79942 0)
(0.012790976 1.7685613 0)
(0.022221511 1.8065677 0)
(0.023686991 1.7901506 0)
(0.010220291 2.2597198 -1.0560961e-20)
(-0.01681026 2.821657 -2.365215e-20)
(-0.00069815288 2.8683575 4.5385052e-20)
(-0.0063904525 2.9032556 0)
(-0.017746125 2.8280513 -6.0889974e-20)
(-0.017608726 2.8242931 -1.0230551e-20)
(0.011976633 2.254729 1.3342731e-20)
(-0.0099355059 2.5847172 3.1240614e-20)
(-0.016060692 2.621712 -5.7661549e-20)
(1.3033621 -0.0073536635 1.4494205e-18)
(1.10874 -0.014606728 -1.7832006e-18)
(1.2539313 -0.002182744 -1.5608302e-18)
(1.1502966 -0.0075273075 2.0726078e-18)
(1.4630217 0.05970259 0)
(1.332724 0.06121957 0)
(1.4971647 0.087725636 0)
(1.4680802 0.069253016 0)
(1.3137566 0.067712299 0)
(1.5755567 0.15323604 0)
(1.5115647 0.10638584 0)
(1.3783542 0.096404116 0)
(-0.016525363 2.6139675 -5.0561245e-22)
(-0.017197386 2.2709247 0)
(-0.014451555 2.4418409 0)
(-0.014042033 2.8207569 2.5014799e-21)
(-0.014551382 2.8321349 -1.8976551e-22)
(-0.016257028 1.993947 -7.401753e-21)
(-0.01754541 1.9402684 7.4573504e-21)
(-0.019482902 1.8416872 0)
(-0.018941429 1.8478261 0)
(-0.01646562 1.8474626 0)
(-0.0052562174 1.7911806 0)
(-0.002506531 1.764036 0)
(0.47442398 1.9954067 4.7781204e-19)
(0.48941391 2.0164165 2.4255503e-19)
(0.59107921 2.6319839 -2.726809e-19)
(0.3804473 2.761536 7.1770281e-19)
(0.40065575 2.2521316 9.9049808e-20)
(1.4056961 0.022759518 0)
(1.3339158 0.022533308 0)
(1.1442847 0.014001471 0)
(1.9816195 0.01708149 0)
(1.9611784 0.012317561 0)
(1.7248445 0.018083475 0)
(1.6319745 0.016599852 0)
(1.6473742 0.021086832 0)
(1.3443219 0.0058433959 1.1991887e-18)
(1.0480715 0.02256388 -1.5149975e-18)
(1.3016799 0.0096457757 -1.2820486e-18)
(1.1475367 0.0016030563 1.6678547e-18)
(0.94567207 1.7384095 0)
(0.83711139 1.8730734 4.2820843e-19)
(1.0868516 1.60628 1.7340495e-19)
(1.1268738 1.579562 -2.3110308e-19)
(1.2731813 2.711795 8.28157e-19)
(0.85473983 0.079907856 9.2947431e-19)
(1.5841499 0.19063021 0)
(1.6308102 0.2818665 -5.892304e-19)
(1.5393719 0.23217879 -2.3396921e-20)
(1.5206724 0.16439981 0)
(0.22380982 2.9252902 1.0420763e-18)
(0.10678817 2.8160438 -2.233725e-18)
(0.035083451 2.381772 1.3991109e-18)
(0.076410767 -0.047402761 -7.0125639e-19)
(0.3714882 3.4672844 1.8945183e-20)
(0.23913582 3.3732113 0)
(0.25196002 3.435816 -2.6701983e-20)
(0.27013647 3.0883003 -2.5529481e-18)
(0.40496751 3.1766408 0)
(0.01416028 3.1193606 7.9201677e-20)
(0.017220886 3.1324461 -8.4508104e-19)
(0.031764572 3.1178939 1.3134905e-18)
(0.038702472 3.1485792 0)
(0.036603461 3.156789 0)
(1.35817 2.80678 0)
(0.77945447 1.085588 -8.9007629e-19)
(1.2888203 1.3248178 -1.846264e-20)
(1.2120153 1.4129703 0)
(1.1135483 1.3412603 -1.7452801e-19)
(1.3421432 1.1810037 3.8459891e-20)
(0.43201405 0.484825 -1.6519272e-18)
(0.84000331 0.35177974 -3.1079105e-20)
(0.73695243 0.27390142 7.3368687e-19)
(0.73487175 0.50234603 5.4129795e-20)
(0.61761154 0.45308555 -2.2250681e-18)
(0.81176924 0.40433301 0)
(0.92591645 0.51255548 1.2207731e-18)
(0.92916114 0.47232613 0)
(0.78003198 0.45632828 0)
(0.70534617 0.37847508 0)
(1.1975548 0.84023919 7.1619882e-19)
(1.6306859 0.40000401 -6.5844112e-19)
(1.6112633 0.56789503 0)
(1.5953299 0.50379363 0)
(0.8073088 0.18858696 1.0692634e-18)
(1.2242281 0.70944392 -6.8916085e-19)
(1.035794 0.63688871 1.2367768e-18)
(1.4363006 0.53992897 -1.2429536e-18)
(1.2615876 0.0069710323 8.1360266e-19)
(1.2389684 0.011549813 -8.4726873e-19)
(1.0064674 0.011151349 0)
(1.4382144 0.042121426 0)
(1.3839659 0.031543863 -7.4273318e-19)
(1.2009557 0.024168014 7.3394623e-19)
(1.8271464 0.015171197 0)
(1.7061819 0.0010734425 0)
(1.9109497 0.0029842501 0)
(1.676261 0.0074708994 0)
(1.9556983 0.016235645 0)
(1.9411395 0.014317056 0)
(0.069654708 1.8478472 0)
(0.055025938 1.8247724 0)
(0.17386652 1.8311967 3.5233848e-21)
(0.3207782 1.9786629 1.450499e-19)
(0.2015826 1.9670584 3.2305859e-19)
(0.22632898 1.986656 -5.1994965e-19)
(0.21493685 1.8676334 0)
(0.1732668 1.9797609 -9.4148931e-20)
(0.15548569 1.9679341 0)
(0.37121539 2.2098591 -1.3725994e-19)
(0.35732147 2.505653 6.7383911e-19)
(0.23152239 1.9169451 8.4363643e-20)
(0.31298359 1.8647466 5.1087112e-20)
(0.25895305 1.850335 -4.1606515e-20)
(0.34068464 1.7910757 -1.1356243e-19)
(0.26745073 1.9550149 0)
(0.31548929 1.9705825 1.2259164e-19)
(0.044625918 2.4738516 -4.4841875e-20)
(0.036942759 2.8701322 0)
(0.06801372 2.5772184 1.755463e-19)
(0.060005189 2.582794 0)
(0.0607514 2.8825441 -2.521782e-19)
(0.046912378 2.9240421 0)
(0.025937106 1.8563725 1.0885887e-20)
(0.032933935 1.9051174 0)
(0.035719132 1.8403228 0)
(0.027276223 1.8274558 -1.2343468e-20)
(0.0088637703 2.8538464 -7.9939361e-22)
(0.018372427 2.8838623 2.315734e-19)
(0.010823096 2.9236893 1.6186241e-21)
(0.0073836688 2.1521159 8.3365033e-21)
(0.0065363125 2.0567636 1.2549265e-21)
(0.01206368 1.7862484 0)
(0.0095472646 1.7565923 0)
(0.051895404 1.9826056 3.46361e-20)
(0.041126998 1.8775118 -1.4994427e-21)
(0.043003684 1.9370839 -8.5099503e-21)
(0.059573131 2.0013082 0)
(-0.038306244 2.4763659 1.6024652e-20)
(-0.030838238 2.7273582 1.0158385e-20)
(-0.031210805 2.6465582 -4.7194093e-21)
(0.0036607646 2.1554849 -9.865346e-21)
(-0.024736835 2.6757407 -5.950208e-21)
(-0.02390081 2.6454379 4.8439271e-20)
(1.2617056 -0.0028241724 -9.0071485e-19)
(1.2700551 -0.012030803 9.3799331e-19)
(1.065325 -0.011173675 0)
(1.496097 0.064175118 1.553312e-18)
(1.195455 0.0022213268 -1.7312585e-18)
(1.1512093 -0.0016058778 1.9638027e-18)
(1.5205542 0.097370303 -2.1303474e-19)
(1.4223682 0.045522075 0)
(1.4309361 0.054109654 7.7020745e-19)
(1.3155782 0.049911682 -7.6312275e-19)
(1.6677785 0.094837071 -4.8730414e-20)
(1.6468238 0.078216096 4.1550479e-19)
(1.771951 0.098714692 0)
(1.8372914 0.093227509 -1.6272183e-19)
(1.7273582 0.034105927 0)
(1.6037374 0.016395132 0)
(1.8535301 0.0143624 0)
(1.6613939 0.0048959368 0)
(1.8507254 0.049334076 3.1929913e-19)
(1.8381191 0.030848365 -6.6646572e-19)
(1.8232319 0.079952818 -3.2462022e-19)
(1.8299837 0.074070869 -3.7594705e-19)
(1.7945185 0.1200674 7.6054818e-19)
(1.6560094 0.12081135 0)
(1.7003643 0.16561254 0)
(-0.032137692 2.47166 4.0789086e-20)
(-0.021762948 2.2824928 -1.7485215e-21)
(-0.025072091 2.2799388 0)
(-0.028638527 2.6598611 -4.1909538e-20)
(-0.01882009 2.6168076 2.1468761e-21)
(-0.023814414 2.650634 2.0119533e-21)
(-0.019781917 2.8400503 1.043014e-20)
(-0.018333278 2.7548298 -2.511831e-21)
(-0.021292906 2.7213221 1.1500001e-21)
(-0.013712189 2.8320554 -8.8905531e-21)
(-0.020361874 2.8331024 1.2485065e-20)
(-0.01710409 1.906712 -2.3532943e-21)
(-0.0080140243 2.0156902 -7.7184423e-21)
(0.47830801 1.9050091 -2.0698172e-19)
(0.43979492 1.8243448 5.8503993e-20)
(0.80945537 1.8945767 -4.1570477e-19)
(0.64878777 1.9823798 -2.3416508e-19)
(0.67082126 1.9800943 0)
(0.64132507 2.5957232 2.5079578e-19)
(0.69745677 2.6088162 3.9656961e-19)
(0.44646176 2.6925965 1.1152553e-19)
(0.45581127 2.6998704 -6.965479e-19)
(0.54196987 2.6312272 6.7626733e-19)
(0.55235228 2.6491663 0)
(0.48378907 2.7055378 -6.3523513e-19)
(0.22704072 2.7761864 1.2816336e-18)
(0.33360008 2.7618198 -4.9884588e-20)
(0.26937512 2.8511083 -1.7509046e-18)
(1.0209361 2.5429841 1.0046585e-18)
(0.891549 2.5539848 0)
(1.9546498 0.023424232 2.4024298e-20)
(1.659974 0.022834163 -2.0542525e-20)
(1.6796635 0.022826763 -3.6171994e-19)
(1.879907 0.028705692 3.6255925e-19)
(1.9896362 0.028991271 0)
(0.86464124 1.718604 0)
(0.85990132 1.6200003 0)
(1.0283136 1.5278084 0)
(0.88841563 1.5413194 0)
(1.2800284 2.7475429 -1.899992e-21)
(1.1896325 2.5722839 0)
(0.9356659 2.282987 6.0221472e-21)
(0.8774764 2.5451709 0)
(0.99432549 2.6158073 -5.1973529e-19)
(1.0223798 2.6041992 3.551929e-19)
(0.87529811 0.11816271 0)
(0.83385745 0.12674271 2.5811118e-19)
(1.0972393 0.11733818 1.4254681e-18)
(0.90901386 0.077730226 -5.5136232e-19)
(0.85019725 0.023618274 -1.6633228e-18)
(1.6862879 0.33012015 -1.2338687e-18)
(1.5528146 0.40453948 -2.8829124e-20)
(1.2794171 0.32542776 1.4314787e-18)
(1.5247001 0.28785055 1.1618098e-18)
(1.2975577 0.16796166 -1.913035e-18)
(1.2448987 0.18231347 2.4321103e-19)
(1.283 0.25614041 -5.3524223e-19)
(1.2711527 0.2239655 0)
(1.5185678 0.20780364 9.3913514e-19)
(1.6373447 0.24657161 0)
(1.6335424 0.29639005 0)
(1.6686117 0.20709589 3.7770092e-19)
(1.7510366 0.25446861 -2.3051177e-20)
(1.7056016 0.33194956 -2.1707308e-19)
(1.6784708 0.29347292 0)
(1.5550328 0.021054677 7.8760496e-19)
(1.7987559 0.073086039 9.604219e-19)
(1.7552111 0.045765483 -7.4874171e-19)
(1.7474167 0.092330414 -6.5516308e-19)
(1.5465272 0.058695146 -1.1146485e-18)
(1.4012264 0.12900213 0)
(1.4236828 0.11426344 0)
(1.1462741 0.024949578 -7.1234847e-19)
(1.0642238 0.027907211 2.9105369e-19)
(1.6691209 0.12373061 9.7443536e-19)
(1.7693488 0.19311713 -1.1076935e-18)
(1.7447435 0.20922131 1.0140065e-18)
(1.6882802 0.18974013 0)
(1.76207 0.15942487 0)
(1.7970163 0.13983554 -4.3108261e-19)
(1.7682594 0.12652288 -7.9440373e-19)
(0.74344202 1.5084524 2.3877332e-19)
(0.82287785 1.8382516 -2.6512184e-19)
(1.1829414 2.7822077 -2.9939144e-19)
(1.3026143 3.1328852 5.7372304e-20)
(1.34404 2.8266512 -6.4150239e-19)
(1.3995985 2.8946057 8.3187639e-20)
(1.2707094 2.5692115 2.6651715e-20)
(1.334047 3.0574365 -2.2206068e-19)
(1.3409294 3.0760605 4.2539841e-19)
(1.3208402 3.3400805 -5.6251235e-20)
(1.4375279 3.1075356 5.8052131e-20)
(1.4544819 3.0356127 0)
(0.78272107 1.170977 -7.8421239e-20)
(0.25685546 1.3383207 9.1026226e-19)
(0.65679233 0.68654518 1.0896503e-18)
(0.4319973 0.25822313 1.2475098e-18)
(0.65357698 0.510987 1.2502168e-18)
(0.72838823 0.62279509 -2.0699215e-18)
(0.71463046 0.63900449 1.6806082e-18)
(0.61306466 0.53895572 -6.4569318e-19)
(0.49754421 0.42451894 1.460279e-18)
(0.85304609 0.23943181 -6.0303211e-19)
(0.82509966 0.28037827 0)
(0.73711106 0.23046516 1.5532814e-20)
(0.97806697 0.64445631 6.5511943e-19)
(0.92818905 0.59827117 -2.3840243e-18)
(0.78650918 0.62594892 2.528974e-20)
(0.80999501 0.58265595 0)
(0.92455803 1.0408786 7.0481296e-19)
(1.173786 1.0832835 6.2512081e-19)
(1.0677482 1.2124309 -7.1881349e-19)
(1.2241656 1.1131636 -2.5103052e-19)
(1.2716019 1.1730414 -5.6115457e-20)
(1.250913 1.1741452 5.6602679e-20)
(1.2835523 0.88726727 -1.1855352e-18)
(1.3005165 0.99837495 2.3559892e-19)
(1.3750047 1.0015999 0)
(1.4093665 0.94767649 -3.0730196e-19)
(1.5942146 0.43518597 3.4651568e-19)
(1.6709255 0.42994593 3.9843244e-19)
(1.6766586 0.39409759 5.2327147e-19)
(1.5735433 0.52332133 -7.0284594e-19)
(1.5713185 0.58400073 0)
(1.5973554 0.55661735 0)
(1.2657219 0.45204195 2.3157754e-20)
(1.0987521 0.31252754 0)
(1.1583364 0.29217706 6.9675522e-19)
(1.2610666 0.33594251 -1.8645468e-20)
(1.4294699 0.58626137 3.2310137e-18)
(1.3388564 0.68167979 9.0122993e-19)
(1.3186741 0.59224086 -1.0149503e-18)
(1.1233144 0.53171225 1.1042257e-18)
(1.072408 0.52799847 6.5754162e-19)
(0.99415873 0.47493693 -6.4474477e-19)
(1.6701588 0.037291049 6.179991e-19)
(1.9487562 0.031306726 0)
(1.9139304 0.038163497 4.1866024e-19)
(1.6889913 0.036052574 -9.3746179e-19)
(1.9305367 0.026576796 4.6306123e-19)
(1.8746089 0.008899493 -9.82036e-19)
(1.6935203 0.0070457671 0)
(1.5799788 0.012651384 -2.0305271e-19)
(1.8415183 0.0090806632 5.0760923e-19)
(1.6703607 0.011023569 -2.6202124e-19)
(1.6085928 0.015192897 1.9171251e-19)
(0.03091989 1.8134013 0)
(0.037612357 1.8223492 0)
(0.046216212 1.8241559 0)
(0.033886733 1.8053216 0)
(0.088984018 1.8410703 -3.6540913e-20)
(0.10464549 1.8245684 2.0505837e-20)
(0.14026625 1.9124038 -2.7876384e-20)
(0.12426708 1.8123378 -2.1180082e-21)
(0.049494833 1.8869258 -6.1185225e-21)
(0.053034473 1.8821973 4.8022389e-21)
(0.081469383 1.8310338 -2.1560056e-20)
(0.071951792 1.8365972 4.9049267e-20)
(0.053804902 1.8193698 6.5184786e-21)
(0.044984208 1.8269065 6.5880115e-22)
(0.094564679 2.5172007 -1.8877046e-19)
(0.0973338 2.5509661 0)
(0.16305107 2.2623424 1.1322153e-19)
(0.1505222 2.0554724 6.4064773e-20)
(0.2664767 2.230076 -1.0387415e-19)
(0.23300785 2.6003527 0)
(0.27579866 2.5871948 -6.6891494e-19)
(0.3246039 2.488818 4.8096841e-19)
(0.22957773 2.1927449 -2.6206536e-19)
(0.17857093 2.3524922 1.7991258e-19)
(0.16827649 2.4878229 0)
(0.026198563 2.2132478 -7.748552e-20)
(0.023313494 2.5901352 -1.0244989e-19)
(0.019954972 2.3589018 0)
(0.021144009 2.6482022 -1.6087958e-20)
(0.040345286 2.4813516 4.9592295e-20)
(0.012551215 1.8429116 -4.3262383e-21)
(0.010298514 1.8358429 6.5962823e-20)
(0.013798332 1.838703 -2.3196373e-20)
(0.019605872 1.8329084 -1.789518e-20)
(0.025116983 1.8632896 0)
(0.0071898944 1.8173158 0)
(0.0017150932 1.7829146 -3.1351673e-20)
(0.0012737093 1.8118869 8.5627757e-21)
(0.0048627731 1.8141996 0)
(0.0071806046 1.7784723 -2.2886837e-20)
(0.0046597716 1.7560145 4.7879612e-20)
(1.6355207 0.048464934 0)
(1.6290963 0.050830755 -7.1454046e-20)
(1.9201469 0.048244255 -5.5267851e-19)
(1.7933671 0.059154815 0)
(1.6367607 0.052924697 0)
(1.8932732 0.037919776 7.2303472e-21)
(1.8967428 0.039035697 8.1894055e-19)
(1.7725948 0.01606472 1.0539913e-18)
(1.6543642 0.0080541226 0)
(1.5770118 0.0086062982 0)
(1.7567947 0.027684608 5.5229837e-19)
(1.5993271 0.016917185 0)
(1.5746266 0.0016542899 0)
(-0.019975332 2.2805975 0)
(-0.0071637255 2.0439489 -9.6530423e-21)
(-0.017773878 2.1615101 -9.832854e-21)
(-0.0017364133 1.8232979 0)
(-0.012408205 1.9568506 -7.4266216e-21)
(-0.011972238 1.8875574 5.007977e-21)
(-0.0057829993 1.8228212 0)
(0.49398763 1.9156425 0)
(0.44137956 1.715788 -1.3536463e-19)
(0.40403265 1.725193 0)
(0.53256572 1.7556402 2.0791522e-20)
(0.61917808 1.9188889 0)
(0.55906205 1.8640558 3.9095468e-20)
(1.111501 2.8055652 -2.0739246e-20)
(1.0417582 2.5634822 -1.1560968e-18)
(1.03538 2.4530427 1.3346705e-18)
(0.91774862 2.5420121 3.3209991e-19)
(0.90930091 2.6059716 0)
(0.97396383 2.587254 0)
(0.9952752 2.5466782 0)
(0.97628152 2.5415887 -1.1994707e-18)
(0.73308135 2.5537917 -5.3683604e-19)
(0.85848279 2.5786332 -1.2579811e-19)
(0.85834966 2.5342287 1.0064341e-19)
(0.74724011 2.5729364 0)
(0.84782987 2.5660841 0)
(0.80305349 2.5828358 -4.3302925e-19)
(0.80411447 2.5979621 0)
(0.84379019 1.4947048 0)
(0.72163205 1.2889104 -7.9076249e-19)
(0.80820782 1.3142576 -4.8238217e-20)
(0.75370492 1.4130937 0)
(0.74544409 1.3788908 1.2039414e-18)
(1.0782668 1.2594674 -1.9637839e-19)
(1.0459331 1.3890779 0)
(1.0633681 1.3233415 2.9508389e-19)
(0.88979568 1.4513643 0)
(0.92210672 1.3327133 0)
(1.2500016 2.8244213 -3.6294737e-19)
(1.2104584 2.8626359 -2.583433e-19)
(1.0017563 2.3738815 4.4615366e-19)
(1.001157 2.4054769 -1.520796e-19)
(1.2184506 2.814091 0)
(1.1753073 2.7697318 1.9320514e-19)
(1.2028391 2.6462184 -3.6346044e-19)
(1.1117482 2.4856253 -2.9115152e-20)
(0.68144585 1.7018503 0)
(0.69386381 1.5013415 -2.1021805e-19)
(0.74292985 1.5807071 0)
(1.0978607 0.22871792 0)
(0.84545737 0.14384683 0)
(0.72267578 0.13259633 0)
(1.0781439 0.23744462 -1.0856572e-18)
(0.86406787 0.1831032 6.3132047e-19)
(1.0668535 0.026658959 -5.7594072e-19)
(1.1622618 0.088960301 0)
(1.13919 0.10833583 2.5631225e-19)
(0.94173815 0.033410794 1.0396404e-18)
(0.87589238 0.010456781 -6.566798e-19)
(1.3294471 3.463985 -2.7002743e-19)
(1.3120066 3.3958152 0)
(1.3498997 3.4182985 -6.1559964e-19)
(0.53591785 3.5174875 5.8498061e-19)
(0.7839565 3.0481417 -3.8605686e-19)
(0.66772525 1.1637041 9.8910716e-19)
(0.63733619 1.1940337 0)
(0.55604122 0.70535455 -2.7822919e-19)
(0.67262249 0.99922447 1.4752997e-18)
(0.68936068 0.65265778 -3.8112442e-19)
(0.66919654 0.71257619 4.3129059e-19)
(0.85398472 0.6797047 8.9564966e-19)
(0.94122105 0.70140692 0)
(0.87669333 0.82144265 0)
(0.79366046 0.76881731 0)
(1.4495171 0.83191763 1.0758356e-19)
(1.3681149 0.75045289 -8.5745541e-19)
(1.3663184 0.80084992 6.45461e-19)
(1.4397414 0.70256046 -6.5300434e-19)
(1.5417123 0.69702779 0)
(1.5420308 0.76425911 -1.5242551e-19)
(1.1205515 0.4733708 -1.460785e-18)
(1.1499605 0.46994339 -1.7441736e-18)
(1.0461734 0.43409283 1.1434077e-18)
(1.0252932 0.39881201 -1.1648797e-18)
(1.0999156 0.35053417 -9.0523445e-19)
(1.0026731 0.33191729 1.1236797e-18)
(1.9123782 0.02754282 -5.0206657e-19)
(1.940607 0.029858328 1.0162735e-18)
(1.6717077 0.037457189 6.318687e-19)
(1.6869362 0.044307133 -7.5188988e-19)
(1.777779 0.049085918 0)
(1.9339446 0.043290265 -1.3269573e-18)
(0.07765512 2.0387805 2.4806416e-20)
(0.073581551 1.9825057 0)
(0.11131534 2.0330168 2.6462211e-19)
(0.12365262 2.0243398 -2.3992998e-19)
(0.10804769 1.9404947 4.9380276e-20)
(0.09854102 1.9331608 0)
(0.0070307622 2.0641084 0)
(0.0025703083 1.902017 2.1524091e-21)
(0.0004039954 1.8691117 -1.9474243e-21)
(-0.010669183 1.9549042 4.1529759e-21)
(-0.008970992 2.2004078 2.286869e-21)
(-0.0078962782 2.2232579 4.8712897e-21)
(0.65978032 1.7079966 -4.7416372e-19)
(0.62033846 1.7413007 5.0038964e-19)
(0.57149467 1.7307057 -2.3694773e-20)
(0.57555996 1.6804832 1.6654632e-20)
(0.80398709 1.7512921 0)
(0.68284836 1.8429753 1.920765e-19)
(0.74881585 1.8528557 -1.8664563e-19)
(0.60488519 1.7544776 2.3504728e-20)
(0.67970499 1.6846862 0)
(0.73050408 1.6616055 0)
(0.71043143 2.522492 7.8612487e-19)
(0.71306544 2.5853899 1.4571389e-18)
(0.75893579 2.5878836 -1.0468973e-18)
(0.63180459 2.592886 -2.1939424e-19)
(0.61832317 2.6535444 3.6107558e-19)
(0.57208292 2.6223647 -9.089067e-19)