/*--------------------------------*- C++ -*----------------------------------*\
  =========                 |
  \\      /  F ield         | OpenFOAM: The Open Source CFD Toolbox
   \\    /   O peration     | Website:  https://openfoam.org
    \\  /    A nd           | Version:  9
     \\/     M anipulation  |
\*---------------------------------------------------------------------------*/
FoamFile
{
    format      ascii;
    class       surfaceScalarField;
    location    "14";
    object      phi;
}
// * * * * * * * * * * * * * * * * * * * * * * * * * * * * * * * * * * * * * //

dimensions      [0 3 -1 0 0 0 0];

internalField   nonuniform List<scalar> 
1300
(
1.7582594
5.6264299
-7.392665
1.7582594
-7.2218288
5.6264299
-6.2609515
6.2609515
-1.8344965
1.8344965
3.733751
3.6509384
-4.8688917
4.8688917
-5.4543244
5.4543244
-3.6480373
3.6480373
-5.2376952
5.2376952
-5.0558635
5.0558635
4.7858182
-4.7858182
-5.9030692
5.9030692
-2.5093385
2.5093385
-5.4230167
5.4230167
1.4746108
-1.4746108
-5.8810966
5.8810966
-0.62224376
0.62224376
-0.57906398
5.1505383
1.1791954
1.1791954
-3.3790024
3.3790024
-4.830692
4.830692
6.2144902
-6.2144902
11.19171
-11.19171
-3.7990453
-4.0727459
1.5916879
-9.7409541
-5.6301409
-5.6301409
-8.4382723
8.4382723
-2.8118424
2.8145876
2.4060406
-2.4060406
-1.7979286
1.7979286
-6.2162803
-0.044671199
-6.2162803
6.2920982
-0.031146715
6.2920982
-2.0147264
0.18022989
-2.0147264
5.5484203
-5.5484203
1.6221199
0.21237661
1.6221199
1.4955044
-1.4955044
-3.7337845
7.4675355
3.6509048
-3.0572202
8.2077585
-3.3897308
7.0406692
-6.2771506
6.2771506
-4.871164
0.0022722792
-4.8711639
4.9791267
-0.11023497
4.9791267
-6.4256383
6.4256383
-5.3835401
-0.07078434
-5.3835401
5.5324806
-0.078156147
5.5324806
3.7623187
-3.7623187
-3.5444693
-0.10356794
-3.5444693
3.6422457
0.0057916062
3.6422457
0.35898437
5.2674456
-5.9854143
8.8000019
-5.2674456
0.029750369
5.2000408
0.03765449
5.2000408
-5.0931566
0.037293174
-5.0931566
5.0114637
0.0443998
5.0114637
4.8889782
-0.10315995
4.8889782
-4.8816674
0.095849227
-4.8816674
-3.970022
-4.0504018
-6.0176619
0.11459269
-6.0176619
-2.5273041
0.017965589
-2.5273041
2.4453641
0.063974388
2.4453641
-4.4098162
4.4098162
-5.9103629
0.48734631
-5.9103629
1.3739959
0.10061494
1.3739959
2.0116463
2.5598281
3.7699057
-3.7699057
2.2952949
-5.798674
-0.082422521
-5.7986741
-5.977028
-5.2146823
5.977028
-0.095931489
-1.0611161
0.43887234
-1.0611161
1.2410551
-0.061859665
1.2410551
3.5564188
0.085826887
-3.5564188
0.17741643
4.6342548
-4.6342548
2.5217879
0.85721448
2.5217879
-5.5829733
5.5829733
4.94538
0.066083661
-4.94538
0.11468803
6.1544624
0.06002785
6.1544624
-6.1927911
-0.021699158
-6.192791
4.0472068
-8.1199527
-4.0676278
5.7717885
0.13128067
-5.7717885
0.14164754
2.7582995
-0.35225889
2.7582995
-2.2345023
2.2345023
-2.0880659
-0.31797466
-2.0880659
-2.1330565
0.335128
-2.1330565
1.5245969
0.27333165
1.5245969
-6.0088071
-0.20747322
-6.0088071
-6.1936816
0.28331863
6.1936815
0.098416605
1.5028975
-1.5028975
-2.1813332
0.16660682
-2.1813332
-5.742807
-0.2660001
5.742807
-0.19438676
-5.4565452
-0.091875125
-5.4565452
-1.7803978
-0.30766816
1.7803978
-0.28489335
1.3297136
-0.088658574
-1.3297137
-0.16579071
-3.0552095
5.6150375
-3.3917415
7.0426463
-6.0735912
-0.20355932
-6.0735911
6.3766854
-0.099534741
6.3766855
5.1003993
0.32261738
-5.1003993
0.22923535
5.1424971
-0.16337037
5.1424971
-6.4818741
0.056235834
-6.481874
6.3448566
0.080781844
6.3448566
5.2825733
-0.14007618
-5.2825732
-0.10096685
5.6130133
-0.080532701
5.6130133
3.9868385
-0.22451978
3.9868385
-3.4837954
-0.27852326
-3.4837954
2.9567264
-2.9567264
3.2872881
-0.33056161
-3.2872881
-0.25718125
-11.148708
11.127009
-0.03582025
-11.112888
5.1642205
5.1642205
4.098035
0.79094314
4.098035
-5.0649684
0.183301
-5.0649684
3.9630217
-8.0306495
4.0466988
-8.0167208
4.0476959
-13.78865
4.0002442
-8.0506459
6.187138
-6.187138
6.1093783
0.077759748
-6.1093783
0.091716425
-2.5299499
0.0026458229
-2.5299499
-3.7777276
-0.63208861
-3.7777276
5.0262158
-0.61639968
5.0262158
-1.6547764
1.6547764
-1.4562258
-0.1985506
1.4562258
-0.082229895
5.7031886
-0.090175313
-5.7031887
-0.095485394
1.367086
0.25503382
-1.367086
0.30596991
4.92949
-0.29523523
4.92949
-4.3576476
-0.27660719
-4.3576476
-2.5237529
-0.0061970155
2.5237529
-0.0019649815
-5.8247238
0.24175046
-5.8247238
-11.213429
0.10054106
-11.175775
-6.09225
-6.09225
2.3460224
11.146024
-3.1319234
-0.35187206
3.1319234
-0.37362385
1.935426
-0.28064956
-1.935426
-0.29907633
-2.5987344
-0.35799201
2.5987344
-0.3642321
-2.5624386
0.42938206
-2.5624386
-1.2625897
1.2625897
-1.3363145
0.073724859
1.3363145
0.18828243
1.8272976
-0.32440004
1.8272976
2.3255367
0.11982732
-2.3255367
0.14420353
-5.288697
-0.16784815
-5.288697
6.4650961
-0.088410569
6.4650961
-4.1623173
-0.19533024
4.1623173
-0.17547879
-0.035320631
11.16233
-5.1288999
0.035743288
5.1288999
-11.222358
11.258101
-3.1449977
0.5825591
3.1449977
0.95303737
5.32035
0.26262331
-5.32035
0.25538154
6.2637717
0.081084949
-6.2637718
0.076633741
-3.2186248
-0.55910284
-3.2186248
-5.6198003
-0.45379084
5.6198003
-0.59358448
-11.476466
-0.19306692
11.669533
-11.432066
6.0177907
0.13667175
-6.0177907
11.394773
-1.3179206
-0.18497691
1.3179206
-0.055330984
2.1953059
-0.36800832
2.1953059
5.1650896
-0.23559959
-5.1650896
-0.12360743
-6.495298
0.013423995
6.4952981
-0.030201955
-2.6744493
-0.54417551
2.6744493
-0.47914338
-5.3920452
5.3301855
2.8157134
-3.9994601
-4.1204926
-9.2141424
2.565804
3.0492335
4.8610988
-8.5147422
-5.2739079
-8.3730947
7.2896783
-7.0342967
-9.5597803
9.4566203
9.9682719
-10.060147
-7.4725871
7.3903572
8.3635147
-8.648408
3.7564677
3.7110678
10.245229
-10.242957
-16.351129
16.14757
11.848336
-11.91912
13.82141
-13.765174
-15.255491
15.336576
-7.6031939
7.499626
-8.5447774
8.2662542
-8.978993
8.8035142
-3.9280054
-4.0887154
10.976703
-10.86211
14.05512
-14.137543
-11.195423
11.68277
4.1424519
1.1877336
4.0537933
-3.6132093
7.369677
-3.4274599
6.2431732
4.0689576
-7.996963
3.9616919
-8.0821846
7.305595
6.7495253
-7.2096635
-2.0044789
-7.5941014
7.2418425
-7.4787891
7.114557
12.011496
-12.056167
-3.5914733
7.3025411
-3.451173
6.5004066
-3.7358107
-3.7367764
3.6351957
1.2259031
6.7248794
4.2518235
-6.85616
-1.5169347
-10.163748
9.9281486
-10.589115
10.312508
-0.48303595
5.8034175
-5.3203815
4.347656
-1.4644716
7.2678891
5.8252067
6.0085077
5.8724001
-5.6097768
1.1618967
-6.4822782
-6.3675902
-3.4564368
3.6230436
3.4481554
-3.2357788
7.8448053
2.1234666
7.6504186
-7.235092
-2.825055
-7.4029402
4.6574386
2.7329187
4.458888
5.1803384
3.1831762
4.8726703
5.8634047
-5.9113322
0.047927445
-5.3807423
11.244147
1.391209
-9.1175187
-7.8916156
6.9329866
3.3122422
6.8227516
-7.041929
-3.2010274
-6.8126936
-10.31725
-6.033879
-10.77104
10.070557
6.0770125
9.971022
-10.967213
10.937011
7.9885849
3.859751
7.9104288
-7.6287081
-4.2904121
-7.729675
12.568422
-2.5490969
-10.019325
-8.7954026
-6.4600888
8.7146207
5.1067895
9.2167535
6.119823
9.2933873
4.0356728
8.532749
-9.1424624
2.6823737
-4.6714654
-2.9317285
-4.9286467
4.9555666
2.5440594
4.9613582
-4.9595158
-3.5852617
-5.3113878
-5.2811904
-3.6978026
5.5057101
2.7605441
-5.6522031
-4.9369121
5.8475333
2.955981
3.698418
-8.9723258
4.352228
-8.4409433
-7.659045
-3.2030652
-7.5673286
4.9793949
3.1233283
-8.1027232
-3.0175682
13.104232
-6.3547063
11.099753
-8.6976053
-5.4399376
-8.7930907
-9.143068
-2.0523554
-8.8597495
-9.6324232
9.0733203
-10.049676
9.4332767
13.907651
-7.0782491
-6.8294024
-4.8142109
-3.8341971
4.9800016
-0.92620825
-7.1881839
7.2361114
0.1814931
6.4246663
7.6123999
6.6861917
-4.3191722
-3.1596169
-4.6182485
4.7668924
2.3476647
4.4089004
9.1597568
2.8517393
9.1286101
-8.5213196
-3.5348478
-8.7287929
9.6120342
-9.2769062
3.9691249
-3.9753219
6.9082867
3.4042213
-6.6130515
-3.5506967
8.0331922
-4.0297522
-4.00344
-12.110862
10.718416
1.3924462
-4.8429731
-0.49531702
0.12692672
-5.6021012
-3.957679
5.506252
0.50225568
11.220672
7.2629926
-5.5201288
5.7618792
6.149404
6.2154877
-0.15210248
6.1250311
-5.542472
6.9998108
-2.9409236
-4.0588872
6.9602486
-7.2262487
-1.7685443
-7.0246596
5.2561152
0.42416986
2.4446199
-2.0057475
-2.7700126
-0.68642417
-2.6258091
2.0788833
1.3692721
2.3339171
1.3042168
2.3188267
-3.9327719
0.73672216
3.1960498
-2.6285551
-2.4990566
-4.7372874
-1.4111821
6.1484695
7.2575309
2.6706177
-7.1339235
-0.26901672
3.665846
-3.6018716
-1.0171257
-3.7201617
2.8166554
-3.8337811
-4.6377878
-2.5355253
7.1733131
-3.6791804
-0.93906811
3.9598299
0.49905811
-4.3876075
-3.2064939
4.7055821
0.16708814
-4.9028263
10.38785
-5.4850238
-8.0624432
4.5908128
6.6533343
7.3237315
-9.0202634
4.5953389
4.4249245
-2.3669291
6.3058201
0.51693152
6.1424497
-8.2730714
5.0720439
7.5259393
4.1568304
-7.8485567
1.035863
-7.2372083
11.259329
-9.2832559
-1.9760728
6.5065732
4.7527556
7.922738
5.9849135
-6.1030174
14.025756
-1.6301412
-7.6531147
8.8673494
-4.7105189
6.542001
-11.25252
-12.526914
4.8737998
-10.536501
11.225883
-0.68938121
-2.9225777
-8.0446355
13.459079
-1.8379756
-11.621103
8.1330462
-6.7973947
-5.9129441
12.710339
-9.3464915
10.203356
-3.671192
-6.5321641
-8.9512831
-4.8138911
8.9378591
1.9991521
-11.69316
14.375533
-3.1604107
7.0085463
0.90188244
6.9280136
5.3509264
-6.9591076
1.6081813
3.9955651
-7.666757
4.2762624
-11.23537
-5.9308273
11.555052
-5.6242247
-9.1338926
-8.2195281
-0.91436447
2.3289685
12.046565
-8.4487916
6.4157096
2.033082
4.1699299
0.2389705
-3.8393683
-1.0892784
0.57425216
6.0247664
-6.5990186
5.5356104
5.6214373
4.5806219
1.4441446
4.8313624
2.4104802
-4.4577385
-0.85364934
-5.4775148
1.7797122
-2.7169707
-5.1086105
6.8883227
-5.7040643
0.59545384
-3.405182
-5.3202963
8.7254783
-6.3369105
5.1969105
5.1909397
7.5445751
-7.4176485
2.0973522
-3.9078155
-3.5098329
3.6067121
-6.3236828
2.7001253
4.1881974
5.6561063
0.71919418
5.88994
5.665112
-9.0132683
0.57232498
9.9169355
-8.4000009
2.119289
7.1740983
-8.5349986
0.31547051
-7.2518581
1.2951464
-7.6498527
-6.8075769
6.9900797
-9.0424351
-4.26244
8.3129838
0.81562629
-8.4114002
-0.44834925
-6.5207867
-3.1116364
-7.0649623
-3.3388352
-6.7108411
-9.4418525
-1.7303906
-7.7114619
7.3429297
-7.3792427
-3.3917976
7.9728271
1.4604497
-8.0354599
7.8504829
-8.0857501
7.7177418
0.27880799
6.9573034
6.9649997
3.1308027
-4.5903743
7.721177
-6.6663462
9.5180855
-11.127685
4.4613387
5.2580232
-8.792871
-5.8696618
5.4981534
4.1138809
5.771485
9.3220378
-10.899075
1.5770377
-10.991837
12.482522
-1.4906847
-17.034764
6.0429264
-7.7127258
3.6232686
0.34585627
3.6259144
0.89965796
3.229651
-4.1293089
-3.0756639
-3.0776289
-2.9884949
-4.4582177
7.4467126
1.438378
-4.4054994
2.9671214
-4.600823
6.039201
-0.10579124
-4.2997082
6.9840162
-3.7543653
7.3298725
-4.7066143
2.6232583
4.2788269
7.2882031
-3.0093761
5.6825484
-2.2783271
2.326366
-5.3357422
-2.1318517
-4.2959342
6.8399937
-4.4295441
5.0249979
-0.24097508
5.265973
-5.3645341
1.3347819
-0.78391226
4.837525
5.0149415
5.5643801
-4.1202356
3.774802
-6.0531291
-1.5609401
-5.3339349
-1.1457375
-0.50342427
-4.9597306
5.4631549
6.736796
-7.2402202
-5.3944031
9.8184231
-4.4240199
8.1168962
-5.5765973
-2.5402988
-4.5890405
-4.6878657
4.1596585
1.9653726
10.082269
0.27630824
-5.8529056
-5.2661637
-4.3131264
4.3642429
2.6355679
-2.5674706
3.9599168
2.4405439
0.0040759798
0.82602443
1.5078927
2.5354246
-1.7094002
0.19188493
2.3435397
-1.8138626
2.6701257
0.99572031
-2.789953
0.16414399
-1.8091414
4.6257968
1.3869084
-2.7561804
1.0467802
1.6210128
-4.5619364
6.2699948
-3.0975842
-3.1724106
7.8910076
1.5266674
-4.6242516
5.4979922
-5.0738224
2.9894004
-4.4005825
-1.6348512
-6.7086736
-4.585207
-3.2240719
6.1911933
-4.2226407
6.8932584
1.5534055
-6.6242416
8.1776471
-4.6654559
2.1299306
-4.0390117
5.034732
-1.3737451
-2.6652666
3.5972953
3.5760178
-3.7773415
0.057179751
-0.18004618
3.0723802
-3.2524264
-0.76140089
-3.389956
-7.1593314
7.3264196
-3.7450219
8.3403608
3.9761551
-3.2462028
11.586564
3.3020349
-6.5482377
-4.7604083
-5.6994764
-2.1233132
5.2004183
-1.4104223
-6.3192527
-7.9425865
6.4593288
-0.31687911
-8.9093116
11.133029
-2.2237169
-5.5970694
0.52502544
5.9815477
-9.1649296
1.4981726
-4.8886671
6.2443615
6.7612931
6.4444139
-12.578103
0.95699965
-6.5010906
2.4571655
-8.9582561
7.2099212
-3.9631831
8.8369832
-11.523022
8.1312245
-10.062572
6.8609105
-2.0973456
6.6623272
-5.0541458
3.3569977
-8.1708888
-6.1717368
8.314214
-4.454463
9.2160965
-5.0954651
14.311562
-8.2558758
8.4291167
5.8824449
-1.7662415
-7.0268492
-8.2401058
6.4738643
0.18901088
7.1170245
6.9688647
-4.5583846
6.1152154
3.7937291
-7.7015446
-2.5299537
-10.854021
3.1524761
-5.6630811
-2.6326137
5.7850898
4.9119614
5.1509319
2.2752569
-4.0616536
8.1304877
-9.0448521
-2.506263
-4.3013139
8.1530376
-1.6791733
4.9367526
-9.2380665
-2.7131001
5.4139726
-0.48691587
-4.9270568
1.6642766
-5.9267166
2.1216203
-8.048337
6.920815
-7.3691642
2.3679586
-10.080684
-5.6675013
-5.7228323
-2.4456181
-5.640132
-7.9288772
5.4832592
-1.8859508
5.9645321
-8.7929014
8.3059854
-3.6896202
9.1728794
-5.8696902
-1.195272
6.3488336
1.3689082
10.541788
0.30491316
-6.174575
-2.5439197
5.3826547
-2.838735
1.8203232
-4.6548175
0.72783721
3.3350189
4.5559887
-8.5911341
-0.20173683
-6.3763118
-4.1785939
8.2924748
5.6398291
12.376625
1.4775496
9.4509216
-1.1584468
10.928471
4.6130382
4.8013206
-3.9530255
5.5300632
1.5101294
5.9714681
-1.1352139
3.7584721
2.4907005
2.5086661
1.0932056
3.0740588
1.9408827
4.4088407
0.27953173
-2.7980972
4.7319341
-9.0450604
-1.1209715
-8.2541173
1.202503
5.9192887
-4.7167857
4.2976591
-1.6620911
1.4589241
0.2240134
-2.5994413
2.3754279
-3.8348738
-2.5953653
-0.25182564
-2.0970099
3.1437901
2.5287869
-2.8919644
-0.94290938
0.43221761
-5.0174246
3.9683649
-3.9111852
-0.33516742
7.8424797
-3.6023077
0.34988129
-1.4723771
-3.0400747
-3.7264989
3.5623549
11.013629
0.57293483
5.528605
7.8993544
4.6928606
0.13447602
6.9719104
-7.6612918
-4.2634597
-6.7042923
0.50562887
6.4871766
2.6156031
9.4309619
8.498048
6.8188747
-2.4191917
-11.464044
8.0068467
-2.4767835
6.5161619
-1.589105
-6.459232
6.563453
2.9546325
-7.3790793
0.009915071
-6.449317
-8.9261006
-0.36918199
8.6751674
-10.172605
8.9773334
5.8656971
1.8457648
-4.8407634
-0.88206883
4.7670386
0.034282021
10.962753
-1.2076465
-7.2194605
8.427107
-4.7116422
3.5906707
1.0652553
2.8946615
3.4406831
1.778592
-5.4408685
-10.157654
-2.4600253
-2.1019111
-5.6324359
0.51603354
-3.0448205
6.335327
-2.7446563
3.7950282
5.6824507
7.1413747
-2.0663435
-5.1738768
6.4903634
-2.6953352
4.4460396
)
;

boundaryField
{
    wall-4
    {
        type            calculated;
        value           uniform 0;
    }
    velocity-inlet-5
    {
        type            calculated;
        value           nonuniform List<scalar> 8(-1.7582594 -1.7582594 -7.3846893 -4.5714743 -7.3846893 -6.446951 -4.5714743 -6.446951);
    }
    velocity-inlet-6
    {
        type            calculated;
        value           uniform -5.6264299;
    }
    pressure-outlet-7
    {
        type            calculated;
        value           nonuniform List<scalar> 8(7.392665 7.2218288 7.8717912 8.1492662 8.0204237 8.1148346 8.0097206 8.0479401);
    }
    wall-8
    {
        type            calculated;
        value           uniform 0;
    }
    frontAndBackPlanes
    {
        type            empty;
        value           nonuniform List<scalar> 0();
    }
}


// ************************************************************************* //
