/*--------------------------------*- C++ -*----------------------------------*\
  =========                 |
  \\      /  F ield         | OpenFOAM: The Open Source CFD Toolbox
   \\    /   O peration     | Website:  https://openfoam.org
    \\  /    A nd           | Version:  9
     \\/     M anipulation  |
\*---------------------------------------------------------------------------*/
FoamFile
{
    format      ascii;
    class       volVectorField;
    location    "14";
    object      U;
}
// * * * * * * * * * * * * * * * * * * * * * * * * * * * * * * * * * * * * * //

dimensions      [0 1 -1 0 0 0 0];

internalField   nonuniform List<vector> 
918
(
(0.40867407 0.0010316897 0)
(0.009045493 2.9576281 0)
(-0.0047621114 1.9630848 0)
(0.28947111 -0.0086352783 0)
(-0.0052601595 1.9233115 6.0875905e-21)
(-0.01174421 2.9485769 -3.1309268e-18)
(1.1026752 1.697985 9.6693308e-19)
(0.58849692 0.33407764 -2.3871747e-20)
(1.9886138 0.0032412809 0)
(-0.0048731116 1.4320213 0)
(-0.0066749732 1.5958767 0)
(1.0838035 -0.0030124604 0)
(0.012842822 2.9163342 0)
(0.013908006 2.7900074 0)
(0.10393078 3.203673 5.2313182e-19)
(-0.0026387814 1.8517091 -1.4941091e-20)
(0.7724551 0.18714527 1.5452124e-18)
(0.21896743 1.7024119 7.5256701e-19)
(0.34796776 0.00046585433 0)
(-0.012782534 1.7436182 0)
(0.18469778 0.34505324 -1.2706466e-18)
(1.0439622 -0.022496758 0)
(0.54662563 -0.029324214 0)
(0.23905367 -0.0036342311 0)
(1.0018012 0.018471231 0)
(0.027578366 2.6002788 0)
(-0.0099117542 2.9060704 1.14106e-18)
(-0.016421443 1.9849901 0)
(-0.018805584 2.0999448 0)
(-0.012310849 1.9818539 0)
(-4.0903866e-05 2.1712841 0)
(-0.0034235528 1.9470262 -4.7680985e-21)
(-0.0061250615 1.8434917 0)
(-0.018160932 2.9813289 -1.1603655e-22)
(-0.018373098 3.0070248 2.4308138e-18)
(0.00086192219 3.0015945 0)
(0.65237425 0.043783821 0)
(0.43960555 0.92263619 1.7458812e-19)
(1.1922982 1.6606033 -1.1812248e-18)
(1.2696157 1.546487 1.2229561e-18)
(1.0049206 1.8037515 -2.1927803e-19)
(0.9051489 1.8251811 1.2708096e-18)
(0.6939152 0.37821225 2.3213886e-20)
(0.62981793 0.31068646 0)
(1.5628428 0.88725594 0)
(0.64121634 0.39812409 1.0731363e-19)
(0.53830404 0.34480468 -1.1178609e-19)
(0.31078245 0.024805925 0)
(1.9887734 -0.00028319287 0)
(1.9886887 -0.0033973727 0)
(1.3649634 -0.0002135422 0)
(1.866383 0.0059374281 0)
(1.7370796 0.0035754992 0)
(0.028799061 1.9755042 -5.4951456e-19)
(0.0052387571 1.5570504 0)
(0.020354553 1.4324743 0)
(-0.023047149 1.5897571 0)
(-0.015725431 1.4520612 0)
(-0.0034138733 1.9494175 0)
(-0.0080432827 1.7480203 0)
(-0.0054633673 1.5770739 0)
(-0.012472699 1.778015 0)
(-0.0089548342 1.6149244 0)
(1.1207754 0.027350502 0)
(1.1508691 -0.016533399 0)
(1.0519635 -0.020591932 0)
(1.1637814 0.003594065 0)
(1.0830732 0.0071305459 0)
(0.016739418 3.0145151 1.1959411e-18)
(0.012392614 3.0113684 0)
(0.0077297918 3.0035809 0)
(0.013334579 3.0004845 1.2715419e-23)
(0.01055766 2.947631 -1.7080175e-18)
(0.016848346 2.9848866 0)
(0.013441733 2.8938089 0)
(0.017888473 2.9235675 2.703776e-24)
(0.01390633 2.8178763 0)
(0.018232819 2.9095242 0)
(0.011592227 2.7520696 0)
(0.25560398 3.6705873 0)
(0.18196535 3.6084219 0)
(0.13867849 3.3365268 -4.8956731e-19)
(0.0523663 3.0227988 0)
(-0.010750252 2.1384126 0)
(-0.0050009699 1.9652027 1.4734086e-20)
(-0.0037981223 1.8628099 -2.4457067e-20)
(0.88434313 0.19327118 -5.3218404e-19)
(0.79281033 0.14014307 -5.1509939e-19)
(0.85432512 0.24271556 -1.5998832e-18)
(0.74467064 0.22713136 -1.0606397e-18)
(0.19321465 1.3037695 0)
(0.35459029 1.8441343 -8.1254422e-19)
(0.44467037 1.8441071 1.3513209e-18)
(0.56356132 0.029741306 0)
(0.28496572 0.014580849 0)
(1.2187523 -0.0016239323 0)
(0.73975391 -0.035705511 0)
(0.65699757 0.015059949 -2.0851516e-18)
(0.6469787 -0.027946522 1.6524754e-18)
(-0.015025656 1.8614141 0)
(-0.010650276 1.7196685 0)
(-0.02289687 1.9904743 0)
(-0.019319471 1.8961975 0)
(-0.011478601 1.7701819 0)
(0.29817695 0.39680057 3.8573062e-19)
(0.36486258 0.34317773 0)
(0.51461464 0.023300619 0)
(0.23266703 0.016217454 0)
(1.1462402 0.015222461 0)
(1.1090015 0.023645562 0)
(1.0580463 0.011065882 0)
(1.3825801 0.042298789 0)
(1.0432256 0.043947957 0)
(0.89134425 0.042693549 2.1731881e-18)
(0.0032047375 2.8657046 9.456461e-19)
(0.023091407 2.897298 0)
(0.040447262 2.8693367 0)
(0.01689283 2.6971127 0)
(-0.010261369 2.9858953 1.0980502e-18)
(-0.0089544897 2.8912501 0)
(-0.011696514 2.9907963 -3.3823346e-18)
(-0.0095745796 2.915944 1.1588419e-18)
(-0.012837377 2.1756744 0)
(-0.0070377419 2.1638138 0)
(-0.0037267562 1.9600978 -3.3949853e-22)
(-0.005423192 1.943001 0)
(-0.0049562951 1.8412083 0)
(0.87830828 0.075056046 0)
(0.77245872 0.048190277 0)
(0.59617429 -0.044850683 0)
(0.7836378 0.065066877 0)
(0.53834986 0.041554844 0)
(0.5275557 1.1067336 -2.179889e-19)
(0.56099928 1.1434593 0)
(0.4206175 0.91521833 3.1554029e-20)
(0.32027144 0.68016178 0)
(1.3251641 1.473475 -3.4541262e-19)
(1.3851743 1.326479 6.7943051e-19)
(0.57887265 1.9162799 0)
(0.80289344 1.9012573 0)
(0.68544048 1.8824009 0)
(0.16107615 0.28297826 -3.4166367e-19)
(0.73759271 0.35039439 0)
(0.6687842 0.28759674 3.0074778e-19)
(1.4359508 1.2559491 0)
(1.5266145 1.0305342 0)
(1.4790209 1.1018166 -5.4278379e-19)
(1.6100725 0.81571708 0)
(1.6366331 0.69206339 9.7157797e-20)
(0.71449329 0.070528413 0)
(0.64334499 0.0726264 0)
(0.41693763 0.043878433 0)
(0.5446931 0.024485234 0)
(0.58366958 0.040231723 0)
(0.25854743 0.016168097 0)
(1.4990328 -0.0030564976 0)
(1.8699079 -0.0037970716 0)
(1.7319242 -0.00050185679 0)
(0.033575929 2.1597307 3.067609e-19)
(0.05003733 1.9434393 0)
(0.016010292 2.1629701 4.5817596e-19)
(0.010887924 1.9792788 -3.8490356e-19)
(0.15191843 1.6956753 -6.2048761e-19)
(0.043301297 1.5871189 0)
(0.075292859 1.5236817 0)
(-0.026826042 1.6403106 0)
(-0.013398757 1.4994637 0)
(-0.0088292085 2.0648836 -1.2392352e-21)
(-0.0039203337 1.973174 0)
(-0.0095250516 2.0417789 -5.8962248e-20)
(-0.0084795278 1.9191758 1.1317405e-19)
(-0.02131045 1.6895651 0)
(-0.013927969 1.7249681 0)
(-0.0096928578 1.5428287 0)
(-0.013537489 1.8015893 0)
(-0.0098832269 1.6441335 0)
(1.2305867 0.037860811 0)
(1.1919063 0.019918923 0)
(1.1574494 0.05069661 0)
(1.0291612 0.037588272 0)
(0.8532733 -0.042364618 0)
(1.0129528 -0.057777749 0)
(1.0963959 -0.043220297 0)
(0.9661242 -0.032557522 0)
(0.0037877456 3.0718933 -1.0163096e-20)
(0.010825766 3.0616884 0)
(0.016182184 2.9687866 0)
(0.013263641 2.8676706 0)
(0.7389969 4.2653695 0)
(1.2439613 3.324968 9.5372766e-19)
(0.075610636 3.15135 0)
(0.03151943 2.9197584 0)
(-0.014129938 2.1376179 0)
(-0.012854155 2.1359976 0)
(-0.012459505 2.1355234 0)
(-0.0059606889 2.1530648 2.3138126e-21)
(-0.0088768192 2.1458728 0)
(-0.0062812415 2.1455568 0)
(-0.0013991085 1.8762239 2.6363568e-21)
(-0.002746033 1.9867581 3.2623102e-20)
(-0.0033878079 1.9765032 2.4983597e-20)
(-0.0021561099 1.8681923 0)
(0.90773328 0.14462796 7.9333416e-19)
(0.81887391 0.10152832 -7.7566941e-19)
(0.31466728 1.761639 0)
(0.23659806 1.0751689 -3.3471497e-19)
(0.21603304 1.8890632 -1.0199759e-18)
(0.13280124 1.5421268 1.0223367e-18)
(0.38151887 -0.033711948 0)
(0.61551928 -0.055260809 0)
(0.57576941 -0.021013732 0)
(0.3033186 -0.02030654 0)
(-0.01564493 1.8217924 0)
(-0.016455909 1.8406239 0)
(-0.010445034 1.6800451 0)
(0.57482782 0.4124976 9.8722147e-19)
(0.47325765 0.41042455 -1.1980812e-18)
(0.464355 0.34966742 0)
(1.5472028 0.10829578 3.0555134e-20)
(1.5344323 0.11603683 0)
(1.4188389 0.051008085 0)
(1.3046354 0.023612391 0)
(0.93124702 0.10693044 0)
(0.96557932 0.073683533 -3.4952958e-18)
(0.84501473 0.072343462 1.3263876e-18)
(0.0044483686 2.9883339 9.6793963e-19)
(-0.0025605293 2.8683765 4.8905508e-20)
(0.003862268 3.0538568 -2.1341136e-20)
(0.012758309 3.0473193 7.682923e-19)
(-0.0093725268 2.9952657 3.7728639e-20)
(-0.0083859528 2.9362116 -1.5157164e-22)
(-0.013150273 3.0201618 -7.1305671e-19)
(0.0012212868 3.0231743 5.1395218e-19)
(0.0066813848 3.0397624 -7.6884543e-19)
(1.0692094 0.063432337 0)
(0.97447697 0.071362516 0)
(0.9054943 0.043096769 0)
(0.66378232 -0.059672987 0)
(0.7330867 -0.062443812 0)
(0.49678144 -0.037251788 0)
(0.92141618 -0.070235674 0)
(0.83075721 -0.078076003 0)
(0.72284745 -0.047457295 0)
(0.71604593 1.3949546 7.7451878e-20)
(0.78412397 1.4771124 0)
(0.1681198 0.34750684 7.2206474e-20)
(0.35479789 0.7937942 5.2182719e-19)
(0.36862396 0.82130366 -3.080335e-19)
(0.22605242 0.47319717 5.9056564e-19)
(0.44000704 1.0155256 1.768001e-18)
(0.18037029 0.37496368 4.1198019e-19)
(0.81879878 0.28524376 1.1316786e-18)
(0.77876777 0.32009005 2.8261038e-19)
(0.70561755 0.25793952 5.6785786e-19)
(1.6463708 0.60515473 2.4058382e-19)
(1.6563925 0.47014709 2.3388514e-19)
(0.0098654178 2.1401986 1.7852913e-19)
(0.0075155607 1.9950119 0)
(1.3464879 0.033680917 0)
(1.2907967 0.028416913 0)
(1.2451024 0.016207453 0)
(0.010123802 3.0770501 0)
(0.017057822 2.938569 1.4904733e-18)
(0.016574493 2.9536441 0)
(0.013528693 2.8432491 -1.4878323e-18)
(0.0097715342 3.091707 3.3971395e-19)
(0.0039853761 3.0886692 0)
(0.87524734 1.7685952 -1.4992677e-19)
(1.1425894 2.3846282 2.1936575e-19)
(0.85429926 1.88609 -9.9055326e-19)
(0.016785228 3.0047806 -8.6774543e-19)
(0.038768411 3.0498139 0)
(0.014083694 2.881601 0)
(-0.010571005 2.0067652 -1.3544389e-20)
(-0.0038734324 1.9970552 -7.0642268e-20)
(-0.0024119147 1.8994227 -5.8204751e-21)
(0.36613156 1.5897077 1.0379487e-18)
(0.24331614 0.87095641 -7.1527318e-19)
(0.070124535 2.1197099 6.408328e-19)
(0.13275426 2.0147096 -8.2280137e-19)
(0.075290973 1.772379 1.3266892e-19)
(0.015680249 3.1135509 -2.2348161e-18)
(0.017936644 3.1196666 2.5297337e-18)
(-0.0081733609 2.9807507 1.0416306e-18)
(-0.0043057905 2.978636 -1.0123817e-18)
(-0.0072103343 2.8775087 -1.061062e-18)
(0.0052326907 3.1054163 -2.6383297e-18)
(0.010190044 3.1044493 2.6192247e-18)
(0.3988351 0.88155287 0)
(0.36328524 0.81055775 -1.2622715e-18)
(0.14541892 0.29393686 5.663905e-19)
(0.43465313 1.1363919 1.1656418e-18)
(0.21010034 0.47758943 -1.8105768e-18)
(1.6534032 0.22071108 5.1835823e-20)
(1.6607443 0.38806109 0)
(1.6430391 0.26324278 5.2278304e-20)
(-0.0016522451 2.1012577 -1.5319591e-21)
(0.0048002684 2.1238197 0)
(0.0034713768 1.986001 0)
(0.41952082 1.4563463 -3.6257432e-19)
(0.45108993 1.3146809 -8.261746e-19)
(0.22225576 0.6338204 1.4680552e-18)
(1.2149761 0.0089120996 0)
(1.3299467 0.0049058154 3.3506489e-19)
(-0.018628453 2.1595555 0)
(-0.027740625 2.182442 0)
(1.5137925 -0.0054717777 -1.0156693e-21)
(1.1095663 0.014495677 7.248124e-19)
(-0.0053268204 2.159498 -3.0243036e-21)
(-0.0050530414 2.1578402 0)
(0.070751229 3.1901032 6.5291788e-19)
(0.55046311 3.5772758 0)
(1.4733579 0.88590257 -5.3583302e-20)
(1.3027829 -0.019970733 2.7988699e-20)
(1.3400268 0.064108736 0)
(1.996992 0.0036414108 4.3867318e-21)
(-0.0082350193 1.7846479 0)
(-0.039442641 2.7063471 0)
(-0.041802509 2.0853001 0)
(-0.061389867 2.2922945 1.0139016e-19)
(-0.042614299 2.2116927 5.4123178e-20)
(1.3080143 -0.045081028 5.148802e-21)
(1.3213902 0.11095749 0)
(1.4071188 0.083849304 0)
(-0.014346691 2.1388069 0)
(-0.0089883311 2.1675691 0)
(-0.032675336 2.1503706 0)
(0.37968224 1.9329765 -4.2361335e-19)
(1.3019032 0.018499985 0)
(1.1331166 0.025827995 0)
(1.9648097 0.0070084245 4.4469016e-19)
(1.6483733 0.022258014 -5.0154676e-19)
(1.9043155 0.01023129 0)
(-0.016510402 2.1380663 0)
(-0.018747936 2.1479429 0)
(-0.016346416 2.1432535 0)
(-0.030943915 2.1533376 0)
(-0.0239225 2.1476405 0)
(-0.029261316 2.1571002 0)
(1.2946298 0.10917966 0)
(1.2735166 -0.11159482 1.432019e-20)
(1.0165594 1.7242121 5.8374647e-19)
(1.9545839 -0.0030714145 -4.5043489e-19)
(1.7076212 -0.010243044 5.2431319e-19)
(1.8974164 -0.010000179 0)
(1.3256489 -0.021749242 4.1997301e-19)
(1.1965519 -0.0040601741 -5.3946306e-19)
(0.95127069 0.0155868 0)
(-0.0089477318 2.1682022 0)
(-0.0073856777 2.1632992 1.2621362e-20)
(-0.0077111806 2.1624554 -8.7101935e-21)
(1.5593631 0.3470534 7.3749153e-19)
(1.4796082 0.11806452 0)
(0.099239717 3.0565414 -1.3099061e-18)
(0.054356203 2.8346045 -9.5406913e-20)
(0.19454227 3.1957957 1.9390492e-18)
(0.17402382 3.2560667 -2.7984939e-19)
(0.17209321 3.3062031 0)
(0.0358919 3.1377757 3.6305385e-19)
(0.094177297 3.1776021 1.2891933e-18)
(0.090794561 3.208762 -6.7897676e-19)
(0.058895274 3.1074633 0)
(0.89526908 0.45410461 0)
(0.79370851 0.5228515 0)
(1.4129912 0.93441422 8.7859115e-20)
(1.4169724 1.1327883 -1.6030478e-20)
(1.4936301 0.74544139 0)
(1.5444005 0.72868482 0)
(1.2744307 -0.02237582 -8.8890522e-19)
(1.175653 -0.0422152 1.1954304e-18)
(1.3285355 0.064984041 0)
(1.2154862 0.084996356 0)
(1.9928183 0.0040022304 0)
(1.8636428 -0.015677153 0)
(1.9349959 -0.0020723624 0)
(1.7287807 -0.03029827 0)
(1.667861 -0.015161084 0)
(1.7994013 -0.012332722 0)
(-0.023916503 1.806142 0)
(-0.03968472 1.8085138 0)
(0.031081972 1.7964589 0)
(0.075192863 1.8525826 0)
(-0.010792267 2.7497512 0)
(0.082703992 2.8233783 -4.0172979e-19)
(-0.060994348 2.7142158 0)
(-0.048743132 2.6650585 1.5352908e-19)
(-0.047908825 2.4540682 -1.8166049e-19)
(-0.040025601 2.0952801 0)
(-0.031783044 2.101217 0)
(-0.058853068 2.0659182 0)
(-0.043837882 2.0290868 0)
(-0.1386251 2.1956435 -2.9459108e-20)
(-0.061539795 2.2330171 6.2335895e-20)
(-0.064235359 2.2867562 7.6298482e-20)
(-0.045157078 2.2658484 0)
(-0.039621796 2.2102909 -1.1805441e-19)
(-0.022519706 2.200192 -5.5805593e-20)
(-0.11860043 2.1903091 2.105195e-20)
(-0.087902143 2.2037025 -8.1057281e-20)
(-0.095511806 2.2333957 -9.5913536e-20)
(1.31052 -0.080885012 1.5243162e-18)
(1.241545 -0.091702232 -1.906309e-18)
(1.3223837 -0.028248623 -1.5624976e-18)
(1.2945986 -0.00037697787 2.0289589e-18)
(1.3208345 0.12005588 0)
(1.2704933 0.12207378 0)
(1.3902838 0.10103735 0)
(1.3403736 0.11193856 0)
(1.3338636 0.083007599 0)
(1.4723601 0.11423087 0)
(1.4199042 0.090029004 0)
(1.4331859 0.072224935 0)
(-0.0086533683 2.1577578 -1.4747113e-21)
(-0.013817247 2.1428955 0)
(-0.0098660397 2.1472833 0)
(-0.0099689623 2.1729294 1.5844454e-20)
(-0.0079687799 2.1741128 -7.0392459e-22)
(-0.021410628 2.1426563 1.2122926e-20)
(-0.021257375 2.1438011 -1.2181143e-20)
(-0.028813335 2.1533422 0)
(-0.026080894 2.1517178 0)
(-0.023620563 2.1501 0)
(-0.032276103 2.1486643 0)
(-0.033288889 2.1406676 0)
(0.52868066 1.9610033 7.8102068e-19)
(0.53170114 1.9969535 3.3521531e-19)
(0.6155916 2.6513633 -2.3852512e-19)
(0.36358184 2.7952796 5.7325662e-19)
(0.50494265 2.2212117 1.2828098e-20)
(1.3628752 0.048752455 0)
(1.3307812 0.037879558 0)
(1.1772614 0.052052991 0)
(1.9691445 0.010212862 0)
(1.9539314 0.007554148 0)
(1.7094668 0.019841512 0)
(1.6055113 0.026200438 0)
(1.6219728 0.037264305 0)
(1.2927179 -0.095309633 1.1812888e-18)
(1.0955566 -0.092186527 -1.4197891e-18)
(1.2533549 -0.10636497 -1.2892338e-18)
(1.1939358 -0.11076229 1.7171625e-18)
(0.97516627 1.7393067 0)
(0.86697181 1.8962022 6.0839743e-19)
(1.11113 1.5952465 2.8205005e-19)
(1.1701337 1.5968794 -3.7578253e-19)
(1.2811537 2.7306423 3.1243895e-19)
(1.1148531 0.16769697 8.3087499e-19)
(1.4848525 0.14395116 0)
(1.5368252 0.24074407 -5.6860575e-19)
(1.5509618 0.21472953 -2.1857918e-20)
(1.306813 0.16449276 0)
(0.25031321 2.9483595 7.5208677e-19)
(0.13602216 2.8289512 -1.8734261e-18)
(0.069690314 2.3412759 1.222438e-18)
(0.1176918 0.18383884 -6.152575e-19)
(0.38188141 3.4877908 -1.015231e-19)
(0.24557553 3.3871615 0)
(0.25779846 3.4570451 1.4322394e-19)
(0.29016374 3.1012495 -1.9255264e-18)
(0.4225122 3.1891149 0)
(0.01603151 3.1187744 6.759529e-20)
(0.01957726 3.132681 -7.3434386e-19)
(0.035501374 3.1170303 1.1412949e-18)
(0.043751176 3.1492921 0)
(0.042410683 3.1599449 0)
(1.367389 2.8276013 0)
(0.6980363 1.0992636 -6.7397066e-19)
(1.3328708 1.3621195 -8.3362125e-20)
(1.2409999 1.4081489 0)
(1.0678233 1.2739999 -9.3192473e-20)
(1.3545593 1.1836909 4.5398516e-20)
(0.50573549 0.59305513 -1.4352336e-18)
(0.94968121 0.44824491 -3.8420985e-20)
(0.92057776 0.39896709 6.0531954e-19)
(0.80489815 0.56759416 4.5486395e-20)
(0.71491507 0.54012712 -1.8908801e-18)
(0.90903194 0.48626732 0)
(0.94422503 0.56432725 9.9654492e-19)
(0.95993408 0.54109631 0)
(0.85456575 0.52490644 0)
(0.83329511 0.46986742 0)
(1.0271147 0.79398303 5.5046363e-19)
(1.5415518 0.36587436 -6.2490824e-19)
(1.5497113 0.55096413 0)
(1.578405 0.51478297 0)
(1.0147413 0.31002076 9.124397e-19)
(1.053093 0.69620554 -5.5395518e-19)
(0.98944358 0.67141213 9.7467725e-19)
(1.2140929 0.52419057 -1.0018329e-18)
(1.2568915 -0.081903807 7.3702743e-19)
(1.2339658 -0.058202031 -6.6099381e-19)
(1.0878016 -0.084626785 0)
(1.3181182 0.090979095 0)
(1.3044377 0.083655162 -7.2640758e-19)
(1.1416293 0.099736743 7.2026595e-19)
(1.7344847 -0.038803348 0)
(1.6221558 -0.066574902 0)
(1.8923932 -0.019763196 0)
(1.6486824 -0.04522254 0)
(1.9150546 -0.0060286056 0)
(1.9105511 -0.0065397863 0)
(-0.0744722 1.8565591 0)
(-0.064960957 1.8881398 0)
(0.074936047 1.6376634 1.5779449e-19)
(0.33913154 1.9080923 2.3236553e-19)
(0.16027151 1.85791 5.2392097e-19)
(0.19239497 1.9019742 -8.4052827e-19)
(0.19746979 1.6977213 0)
(0.053694963 2.0789827 2.6494719e-19)
(-0.056835084 2.0423776 0)
(0.47582563 2.2159271 -1.7775261e-20)
(0.40849235 2.5635326 4.2059966e-19)
(0.25345215 1.8792635 -2.3883133e-19)
(0.39532525 1.7652233 1.5795596e-19)
(0.28971365 1.6953171 -1.2851293e-19)
(0.46242516 1.7009662 1.8499389e-19)
(0.33523382 1.9667503 0)
(0.4522112 1.9327017 -1.1033422e-19)
(-0.200994 2.3472916 -2.0630322e-20)
(-0.070802972 2.5114414 0)
(-0.17183643 2.4874727 8.1130866e-20)
(-0.17272732 2.4434335 0)
(-0.066313396 2.6291233 -1.6945758e-19)
(-0.029265693 2.5644858 0)
(-0.11560021 2.1091734 -1.6505907e-20)
(-0.15114949 2.1327918 0)
(-0.12616584 2.0486512 0)
(-0.10209079 2.0730512 1.8749152e-20)
(-0.079635477 2.3290811 -2.5175074e-20)
(-0.066946194 2.4271896 2.0389643e-19)
(-0.04480773 2.3839458 1.2772987e-21)
(-0.072802065 2.1707466 2.8923778e-20)
(-0.090565924 2.1602462 1.3582834e-20)
(-0.029844389 2.1167788 0)
(-0.028067274 2.1189455 0)
(-0.2019653 2.1896032 2.4213366e-20)
(-0.17543775 2.0552677 -1.4197089e-20)
(-0.17959145 2.1278827 6.2598665e-21)
(-0.21954441 2.1668202 0)
(-0.017785403 2.1620845 -5.4555075e-20)
(-0.015774585 2.1712728 2.4959181e-20)
(-0.019599396 2.1731483 -8.1564188e-21)
(-0.05552801 2.1674833 -3.4228512e-20)
(-0.034650759 2.1874266 -1.3399083e-20)
(-0.044926295 2.1936631 7.7948121e-20)
(1.2262027 -0.11802161 -9.4253919e-19)
(1.2707314 -0.11318244 1.0031741e-18)
(1.1909781 -0.11344236 0)
(1.3478503 0.045177294 1.4949723e-18)
(1.3146949 0.021307465 -1.6606955e-18)
(1.2871728 0.033641995 1.8549076e-18)
(1.3477446 0.094191326 -2.0071513e-19)
(1.2828082 0.11243239 0)
(1.2878198 0.12222227 8.3469763e-19)
(1.249252 0.12070466 -8.2863306e-19)
(1.4061195 0.12398618 -5.3769601e-20)
(1.4052247 0.11996267 4.6276913e-19)
(1.4134558 0.098684809 0)
(1.4532791 0.084251478 -1.6863869e-19)
(1.4586955 -0.026657718 0)
(1.3992396 -0.073122888 0)
(1.7329312 -0.046459187 0)
(1.5450935 -0.092671276 0)
(1.5466906 0.0096565835 3.4001562e-19)
(1.5972979 -0.017663614 -7.1185055e-19)
(1.4981689 0.1151147 -3.6270234e-19)
(1.5003787 0.084741879 -4.0164879e-19)
(1.4070829 0.1008234 7.9932176e-19)
(1.4195738 0.097559107 0)
(1.4272905 0.13500024 0)
(-0.016323792 2.1613463 -2.1287257e-20)
(-0.014951161 2.1483904 -1.7886585e-21)
(-0.018213213 2.1505156 0)
(-0.012549631 2.1634309 2.2020943e-20)
(-0.010294877 2.1578685 3.1231761e-21)
(-0.010370547 2.1617339 -3.4723515e-21)
(-0.020254847 2.1950917 4.8341379e-20)
(-0.018368912 2.1797502 -3.071707e-21)
(-0.024734794 2.1848466 1.4410615e-20)
(-0.010878496 2.1819064 -2.4469147e-20)
(-0.011957 2.1846169 2.97576e-20)
(-0.027355986 2.15291 5.4997335e-22)
(-0.024935997 2.1490599 2.0886541e-20)
(0.55467708 1.8656505 -3.7047385e-19)
(0.55365079 1.7879111 -1.9269821e-19)
(0.84852609 1.9040667 -5.901213e-19)
(0.69874614 1.9803912 -3.2401948e-19)
(0.70613552 1.9904295 0)
(0.67096143 2.612241 2.0263624e-19)
(0.72371428 2.6339796 3.3895287e-19)
(0.45202784 2.7440393 1.2109255e-19)
(0.46328993 2.7446508 -3.732492e-19)
(0.58518997 2.6564447 4.8861962e-19)
(0.5777227 2.682604 0)
(0.49279821 2.74697 -5.3987148e-19)
(0.13096511 2.8200825 1.0346654e-18)
(0.2988825 2.8257228 -4.4864487e-20)
(0.21282888 2.8671141 -1.4094476e-18)
(1.0390191 2.5475616 7.6976983e-19)
(0.90519228 2.565812 0)
(1.9363708 0.014786244 1.852675e-20)
(1.6214605 0.038263543 -1.5857953e-20)
(1.6290619 0.034482833 -2.8997171e-19)
(1.8382649 0.026861401 2.9075401e-19)
(1.9619084 0.017162191 0)
(0.86396043 1.6657189 0)
(0.82240976 1.5407357 0)
(0.98640837 1.462737 0)
(0.84614029 1.4666691 0)
(1.2873712 2.76228 2.3126583e-21)
(1.199017 2.5923947 0)
(0.92002525 2.2913154 2.8121486e-21)
(0.86913493 2.5181656 0)
(0.98657755 2.6037218 -3.1725455e-19)
(1.0123828 2.5971891 2.1675242e-19)
(1.1346949 0.1984624 0)
(1.0838827 0.21641565 2.3111891e-19)
(1.239266 0.17406292 1.2821619e-18)
(1.1653476 0.15224949 -4.8347531e-19)
(1.1315874 0.11438638 -1.5053367e-18)
(1.371722 0.27298464 -1.1466362e-18)
(1.2593994 0.3783515 -2.1340632e-20)
(1.1966596 0.35568853 1.1973305e-18)
(1.2811831 0.28154351 9.9363555e-19)
(1.254658 0.20255631 -1.6937927e-18)
(1.2218785 0.22085768 2.1334682e-19)
(1.2475316 0.29089082 -4.5598496e-19)
(1.2292014 0.27042825 0)
(1.2941141 0.20417264 8.3263954e-19)
(1.3292696 0.22299666 0)
(1.3213946 0.26273409 0)
(1.4224001 0.15764976 3.7965495e-19)
(1.3666844 0.21085839 -2.0523976e-20)
(1.3830129 0.26687156 -2.0643249e-19)
(1.4352402 0.24080525 0)
(1.3869812 -0.014514116 8.1033246e-19)
(1.4389328 0.04550375 9.8002991e-19)
(1.4439381 -0.0037799127 -7.7684378e-19)
(1.4025666 0.067325641 -6.6530508e-19)
(1.3680339 0.03955397 -1.0725016e-18)
(1.3019772 0.1486968 0)
(1.3175482 0.098014253 0)
(1.2909232 0.058105331 -6.7128287e-19)
(1.2477254 0.075668787 2.6683161e-19)
(1.3612183 0.11203277 9.4152664e-19)
(1.375763 0.15508543 -1.0956222e-18)
(1.368587 0.17494181 9.7778984e-19)
(1.3373743 0.16648332 0)
(1.3904371 0.13470863 0)
(1.3882022 0.10981661 -4.5614026e-19)
(1.3766062 0.1091897 -7.746524e-19)
(0.7150837 1.4578721 9.6125485e-20)
(0.81796125 1.8374066 -1.1423224e-19)
(1.1883091 2.8011266 -9.6749798e-20)
(1.3077141 3.1540957 6.4013146e-21)
(1.3514081 2.8444256 -1.8361509e-19)
(1.4082217 2.9150819 -8.8513013e-20)
(1.2796292 2.5890691 2.7598747e-20)
(1.3399519 3.0780746 -1.7697494e-20)
(1.3470993 3.0945144 1.0248569e-19)
(1.327576 3.3635073 -1.5052532e-19)
(1.4471814 3.1302167 1.5533457e-19)
(1.4664106 3.0589654 0)
(0.7015872 1.1654546 -5.5108257e-20)
(0.29966374 1.4157772 7.3732579e-19)
(0.64307745 0.79742691 9.537557e-19)
(0.41016203 0.40639487 1.1131443e-18)
(0.72015615 0.58875043 1.055928e-18)
(0.74983873 0.66540807 -1.7337053e-18)
(0.7256637 0.69575417 1.4042542e-18)
(0.65135172 0.63483877 -5.5775701e-19)
(0.60550443 0.54018522 1.2652481e-18)
(1.0332991 0.35501357 -5.1199455e-19)
(0.97838754 0.3999366 0)
(0.95998377 0.36538413 2.0069319e-20)
(0.94207956 0.67899111 5.3351526e-19)
(0.92324623 0.64422216 -1.9396253e-18)
(0.79431315 0.67250101 3.3607642e-20)
(0.84019003 0.62876074 0)
(0.81486471 1.0233134 5.3205031e-19)
(1.0360829 1.011663 4.3361936e-19)
(0.95797686 1.1466102 -5.0294708e-19)
(1.0887742 1.0303479 -1.87486e-19)
(1.2072204 1.1043674 -3.4373609e-20)
(1.1661625 1.1059043 3.4697503e-20)
(1.0944803 0.81469732 -9.2272546e-19)
(1.1413613 0.92122669 1.7587031e-19)
(1.249032 0.92792508 0)
(1.2763845 0.87955605 -2.4637814e-19)
(1.2880525 0.40040571 2.9571914e-19)
(1.4517369 0.37021036 3.7358318e-19)
(1.3629481 0.33488275 4.7800468e-19)
(1.2698568 0.47727594 -6.0024782e-19)
(1.3532736 0.52083889 0)
(1.4019133 0.50285223 0)
(1.1689851 0.47880796 1.2853951e-20)
(1.1054936 0.38527961 0)
(1.1377684 0.36205161 5.8854398e-19)
(1.1760959 0.37324531 -1.8562567e-20)
(1.2006316 0.55781455 2.6291582e-18)
(1.1306422 0.63707063 7.2530696e-19)
(1.1300703 0.57979541 -8.1148453e-19)
(1.0732336 0.56897993 8.7447006e-19)
(1.0421599 0.57381874 5.3154566e-19)
(1.0005541 0.54433702 -5.2034494e-19)
(1.5618437 0.045141969 5.6477782e-19)
(1.8911283 0.024329863 0)
(1.8527727 0.032387707 3.6565158e-19)
(1.6017395 0.047495655 -8.3595721e-19)
(1.852092 -0.0054653637 4.2398686e-19)
(1.8129068 -0.044190955 -8.8898888e-19)
(1.6268741 -0.063875357 0)
(1.5251438 -0.05585216 -1.7259145e-19)
(1.8046959 -0.035198475 4.2544103e-19)
(1.6367745 -0.044307451 -2.1531103e-19)
(1.5607627 -0.048197774 1.6293755e-19)
(-0.065407123 2.0071202 0)
(-0.12595816 2.017612 0)
(-0.074881658 1.9375257 0)
(-0.055446071 1.9593915 0)
(-0.17286097 1.8949465 -3.4126724e-19)
(-0.091708893 1.7851119 1.2884393e-19)
(-0.10302493 2.0506842 7.334923e-20)
(-0.097392002 1.7603701 -7.6384648e-20)
(-0.19748273 2.0351318 4.3356892e-20)
(-0.20918297 2.0228056 -3.5252217e-20)
(-0.16842604 1.8855142 5.1562901e-20)
(-0.14965409 1.8922472 1.3774068e-19)
(-0.13606026 1.9353898 1.2806126e-20)
(-0.15829275 1.9863867 6.2405427e-21)
(-0.17929293 2.5133165 -8.4416665e-20)
(-0.13890604 2.576822 0)
(-0.12715302 2.4565602 2.7507139e-21)
(-0.17818935 2.1757225 -3.3333674e-20)
(0.26577797 2.3000979 -8.3684701e-21)
(0.14629021 2.7134648 0)
(0.24546135 2.6992282 -2.9660551e-19)
(0.32738175 2.5825133 2.1357284e-19)
(0.095283797 2.3436442 -1.0816087e-20)
(-0.027681639 2.4848598 3.1681314e-20)
(-0.039804291 2.6310817 0)
(-0.18523949 2.2450099 -5.9784067e-20)
(-0.13538392 2.2677102 -1.5393734e-19)
(-0.15157437 2.2279645 0)
(-0.13824991 2.3460179 -7.1336463e-21)
(-0.1787982 2.3288533 3.6118653e-20)
(-0.059774169 2.1209656 4.0025931e-21)
(-0.045133158 2.1334266 -4.855027e-20)
(-0.050521754 2.1440839 4.7320387e-21)
(-0.079894764 2.1381013 2.7223443e-20)
(-0.091664492 2.1221947 0)
(-0.043223477 2.1485654 0)
(-0.030764985 2.1406925 2.0141561e-20)
(-0.03369698 2.1534668 -6.6351507e-21)
(-0.0356157 2.1494084 0)
(-0.029104585 2.1299664 1.4154022e-20)
(-0.030348963 2.130527 -2.8941169e-20)
(1.4531714 0.077295794 0)
(1.4230765 0.089428613 -7.6692778e-20)
(1.69562 0.044474898 -5.8325172e-19)
(1.5461143 0.098969348 0)
(1.4011562 0.10515465 0)
(1.7121834 0.026000398 2.1320557e-20)
(1.7538881 0.015540006 8.2037579e-19)
(1.609175 -0.047056943 1.0831966e-18)
(1.5218202 -0.092184828 0)
(1.4380222 -0.10147072 0)
(1.5442983 -0.051826997 5.933231e-19)
(1.4446056 -0.08069467 0)
(1.4215551 -0.10565637 0)
(-0.025639868 2.1655701 0)
(-0.025080568 2.1483829 2.6127581e-21)
(-0.023611085 2.1575925 1.338106e-20)
(-0.032874746 2.1548408 0)
(-0.029821643 2.1546676 1.4169054e-20)
(-0.029004278 2.1552532 -6.9550754e-21)
(-0.030620346 2.1553904 0)
(0.50354868 1.8186273 0)
(0.5491953 1.6747352 2.8585986e-19)
(0.49314666 1.6498338 0)
(0.57368419 1.7370053 -4.5587214e-19)
(0.6651333 1.8996524 0)
(0.62314573 1.8503622 2.4230137e-19)
(1.1174022 2.8007054 -1.5053615e-20)
(1.0573744 2.5626693 -8.8698924e-19)
(1.0591431 2.4667983 9.5798558e-19)
(0.93442768 2.5490642 2.6777478e-19)
(0.91328979 2.5919619 0)
(0.97435351 2.5801268 0)
(1.0122396 2.5508766 0)
(0.9912499 2.5530965 -9.7425992e-19)
(0.76088954 2.5126149 -3.466876e-19)
(0.85998874 2.5500042 -8.6561658e-20)
(0.85094961 2.5047742 6.9287753e-20)
(0.76884156 2.5886324 0)
(0.86360192 2.5743277 0)
(0.82387278 2.6058641 -3.6481002e-19)
(0.81105817 2.5737906 0)
(0.78795799 1.4262773 0)
(0.67591357 1.2588087 -4.65976e-19)
(0.72913219 1.2625542 -2.9648554e-20)
(0.72065411 1.3584426 0)
(0.71088468 1.3361926 7.1379152e-19)
(0.97732531 1.1932656 -1.2161876e-19)
(0.99707538 1.3317139 0)
(1.0000527 1.2499426 1.6763875e-19)
(0.81234131 1.3930988 0)
(0.83421602 1.2661405 0)
(1.2555671 2.8407158 -1.8637246e-19)
(1.2158742 2.8805398 -1.230245e-19)
(1.0017343 2.388159 1.9942289e-19)
(0.99966441 2.4193258 -7.9553517e-20)
(1.2261335 2.8253411 0)
(1.1810441 2.7786208 1.0165477e-19)
(1.2120941 2.6609729 -2.2256418e-19)
(1.1272199 2.509965 -2.9604035e-20)
(0.64271219 1.6736996 0)
(0.66007677 1.4458744 -8.4607373e-20)
(0.70296838 1.5090495 0)
(1.150756 0.27851007 0)
(1.0955608 0.23727848 0)
(1.0308734 0.24843075 0)
(1.1295291 0.30999744 -9.1214047e-19)
(1.0611996 0.28877406 5.3947998e-19)
(1.2500905 0.079921676 -5.2373957e-19)
(1.2640954 0.12623888 0)
(1.2386461 0.13832784 2.3483324e-19)
(1.1886079 0.099633103 9.5546458e-19)
(1.1765277 0.079623685 -6.0329827e-19)
(1.3394731 3.4895018 -4.1717099e-19)
(1.3192651 3.4205385 0)
(1.3615352 3.4433591 -9.1303761e-19)
(0.54287159 3.5435996 8.7640471e-19)
(0.79125172 3.0727201 -1.8134513e-19)
(0.62133886 1.1969656 7.0019453e-19)
(0.59931342 1.1954458 0)
(0.55428829 0.81506459 -2.2381688e-19)
(0.62456178 1.0121746 1.112564e-18)
(0.65457871 0.76998007 -3.1984712e-19)
(0.66125316 0.77741827 3.5124464e-19)
(0.829682 0.71784366 7.3840024e-19)
(0.89835402 0.73151255 0)
(0.81282813 0.85609111 0)
(0.76086154 0.80600632 0)
(1.2508244 0.75928922 8.5253475e-20)
(1.1523442 0.6917314 -6.9164604e-19)
(1.1618812 0.73675364 5.219113e-19)
(1.209528 0.65646977 -5.3286054e-19)
(1.3557023 0.64528496 0)
(1.3711114 0.70948673 -1.2240045e-19)
(1.0899548 0.51948583 -1.2020491e-18)
(1.1072244 0.50643795 -1.4367997e-18)
(1.0474887 0.5071866 9.3731664e-19)
(1.035688 0.48145116 -9.708158e-19)
(1.1014093 0.42745021 -7.4914431e-19)
(1.0407154 0.42661071 9.2952492e-19)
(1.8253874 0.0027443225 -4.9007051e-19)
(1.8354322 0.00059755356 9.9301331e-19)
(1.5483608 0.05074923 6.128716e-19)
(1.5554731 0.053346887 -7.3015006e-19)
(1.6205697 0.052673979 0)
(1.8000689 0.050257452 -1.3191249e-18)
(-0.23072569 2.1935884 2.8951107e-20)
(-0.22768172 2.1443829 0)
(-0.23227519 2.207732 -6.3335662e-20)
(-0.20460876 2.1619604 6.7897358e-20)
(-0.15676179 2.0915867 -1.2958234e-19)
(-0.20585258 2.1136022 0)
(-0.048573748 2.1623937 0)
(-0.043234315 2.1561825 -7.597732e-21)
(-0.036091837 2.1562268 6.8815256e-21)
(-0.033058534 2.1576697 3.4210796e-21)
(-0.032736645 2.1644907 -1.5349875e-20)
(-0.036516196 2.1667188 1.0762125e-20)
(0.61933888 1.6860669 -1.0969816e-19)
(0.59896042 1.6940708 1.1798643e-19)
(0.57941443 1.7133522 2.1478828e-19)
(0.57029863 1.6454329 7.0816246e-22)
(0.79810048 1.7067794 0)
(0.7105526 1.8204388 4.1274151e-19)
(0.76712781 1.8268675 -4.006452e-19)
(0.61216451 1.7210209 -2.1315237e-19)
(0.65329668 1.6399678 0)
(0.69892425 1.6029591 0)
(0.75157676 2.4802975 5.0725553e-19)
(0.74146317 2.5724121 1.1027923e-18)
(0.77930679 2.5607281 -7.9381857e-19)
(0.66788951 2.5851818 -1.7777348e-19)
(0.66236706 2.6368374 2.5376226e-19)