/*--------------------------------*- C++ -*----------------------------------*\
  =========                 |
  \\      /  F ield         | OpenFOAM: The Open Source CFD Toolbox
   \\    /   O peration     | Website:  https://openfoam.org
    \\  /    A nd           | Version:  9
     \\/     M anipulation  |
\*---------------------------------------------------------------------------*/
FoamFile
{
    format      ascii;
    class       surfaceScalarField;
    location    "0.05";
    object      alphaPhi0.phase1;
}
// * * * * * * * * * * * * * * * * * * * * * * * * * * * * * * * * * * * * * //

dimensions      [0 3 -1 0 0 0 0];

internalField   nonuniform List<scalar> 
8032
(
0
0
0
0
0
0
0
0
0
0
0
0
0
0
-1.08482e-319
0
-6.50797e-313
-1.4141e-313
-2.15219e-306
-2.70578e-306
-3.08373e-300
-1.39883e-299
-1.0567e-294
-2.61315e-293
-2.7822e-290
-1.09284e-287
-5.8831e-287
-3.67111e-283
-6.50586e-286
-1.12735e-279
5.32451e-289
-2.44676e-278
6.51132e-286
-2.44663e-278
5.7033e-287
-1.09348e-279
5.2516e-291
-6.94194e-284
3.26949e-295
-3.39899e-288
3.14998e-302
-2.785e-295
3.04713e-310
-2.36263e-303
3.0293e-318
-1.39453e-311
0
-2.97852e-319
0
0
0
0
0
0
0
0
0
0
0
0
0
0
0
0
0
0
0
0
0
0
0
0
0
0
0
-1.61164e-318
0
-1.05863e-311
7.0098e-320
-5.61134e-305
-1.25306e-305
-1.62715e-298
-2.09436e-298
-2.00545e-292
-9.46649e-292
-5.81314e-287
-1.51374e-285
-1.34015e-282
-5.34398e-280
-2.60984e-279
-1.57093e-275
-2.78604e-278
-4.43575e-272
-2.79123e-280
-9.24618e-271
2.72683e-278
-9.24187e-271
2.49812e-279
-4.2974e-272
2.50363e-283
-2.96428e-276
1.78419e-287
-1.66007e-280
2.10229e-294
-1.66268e-287
2.68605e-302
-1.86757e-295
2.7832e-310
-1.15898e-303
1.98773e-317
-2.52851e-311
0
0
0
0
0
0
0
0
0
0
0
0
0
0
0
0
0
0
0
0
0
0
0
0
0
-1.22537e-317
0
-7.74142e-311
2.10863e-318
-4.65343e-304
4.74171e-312
-2.22163e-297
-5.36771e-298
-5.66268e-291
-7.80123e-291
-5.98473e-285
-3.04924e-284
-1.46613e-279
-4.13849e-278
-2.96046e-275
-1.23107e-272
-5.30852e-272
-3.1677e-268
-5.46215e-271
-8.22701e-265
-9.24992e-273
-1.64723e-263
5.26847e-271
-1.64602e-263
5.03992e-272
-7.9634e-265
5.49478e-276
-5.96884e-269
4.48123e-280
-3.8232e-273
6.45643e-287
-4.68079e-280
1.09232e-294
-6.98346e-288
1.18989e-302
-4.77005e-296
8.66666e-310
-1.08352e-303
1.10961e-316
6.87917e-318
1.4822e-323
4.94066e-324
0
0
0
0
0
0
0
0
0
0
0
0
0
0
0
0
0
-9.88131e-324
0
-6.90336e-317
4.94066e-324
-4.35189e-310
2.62176e-317
-2.49687e-303
9.50751e-311
-1.35857e-296
1.9167e-304
-5.77357e-290
-1.50341e-290
-1.27756e-283
-1.8815e-283
-1.14786e-277
-6.27876e-277
-2.37121e-272
-7.17789e-271
-4.19296e-268
-1.79616e-265
-6.91703e-265
-4.04672e-261
-6.83671e-264
-9.6687e-258
-1.13778e-265
-1.85977e-256
6.59764e-264
-1.85804e-256
6.56615e-265
-9.35319e-258
7.77875e-269
-7.61795e-262
7.25577e-273
-5.58092e-266
1.27781e-279
-8.35171e-273
2.87117e-287
-1.65882e-280
3.44131e-295
-1.30001e-288
2.6047e-302
-3.18282e-296
3.61814e-309
2.83914e-310
6.07361e-316
1.3835e-316
8.89318e-323
3.45846e-323
0
0
0
0
0
0
0
0
0
0
0
0
0
-3.95253e-323
0
-3.30906e-316
3.95253e-323
-2.17318e-309
2.30047e-316
-1.22363e-302
9.78114e-310
-6.23765e-296
3.14173e-303
-3.00649e-289
5.57219e-297
-1.11606e-282
-3.08169e-283
-2.1143e-276
-3.28151e-276
-1.60188e-270
-9.25288e-270
-2.78521e-265
-8.85777e-264
-4.31325e-261
-1.86252e-258
-6.5457e-258
-3.67481e-254
-6.21104e-257
-8.07843e-251
-9.26759e-259
-1.49292e-249
6.01491e-257
-1.49132e-249
6.22348e-258
-7.81134e-251
8.00963e-262
-6.9136e-255
8.54403e-266
-5.79295e-259
1.839e-272
-1.05953e-265
5.50045e-280
-2.80574e-273
7.56234e-288
-2.60197e-281
6.16127e-295
-7.09203e-289
9.51624e-302
8.73056e-303
1.81178e-308
4.82832e-309
3.08884e-315
1.46542e-315
4.44659e-322
3.31024e-322
0
0
0
0
0
0
0
0
0
-1.23516e-322
0
-1.36024e-315
2.51973e-322
-1.00075e-308
1.64374e-315
-5.78028e-302
7.89235e-309
-2.84497e-295
2.92502e-302
-1.26276e-288
8.16274e-296
-5.28689e-282
1.2517e-289
-1.68665e-275
-4.85797e-276
-2.70536e-269
-4.36215e-269
-1.7179e-263
-1.03141e-262
-2.51099e-258
-8.23429e-257
-3.40602e-254
-1.45393e-251
-4.75548e-251
-2.51263e-247
-4.33222e-250
-5.08266e-244
-5.71484e-252
-9.02496e-243
4.21043e-250
-9.01439e-243
4.52919e-251
-4.91307e-244
6.33272e-255
-4.72542e-248
7.72532e-259
-4.5286e-252
2.03208e-265
-1.01222e-258
8.10267e-273
-3.57696e-266
1.318e-280
-4.0114e-274
1.19432e-287
-1.24929e-281
2.09913e-294
2.13863e-295
4.62125e-301
1.36841e-301
9.11005e-308
4.80291e-308
1.51608e-314
1.26253e-314
1.96144e-321
2.54444e-321
0
0
0
0
0
-2.2727e-322
0
-4.37885e-315
1.08694e-321
-4.11596e-308
9.65198e-315
-2.62413e-301
5.46331e-308
-1.30722e-294
2.25658e-301
-5.52774e-288
7.17223e-295
-2.10234e-281
1.71244e-288
-7.52887e-275
2.23932e-282
-2.03861e-268
-6.04667e-269
-2.74606e-262
-4.54748e-262
-1.45522e-256
-8.96778e-256
-1.78677e-251
-5.95415e-250
-2.12318e-247
-8.82541e-245
-2.7275e-244
-1.33612e-240
-2.38572e-243
-2.4872e-237
-2.74269e-245
-4.24361e-236
2.32681e-243
-4.23834e-236
2.60233e-244
-2.4037e-237
3.95308e-248
-2.5124e-241
5.51491e-252
-2.75384e-245
1.77267e-258
-7.52131e-252
9.43153e-266
-3.54865e-259
1.85494e-273
-4.88488e-267
1.91908e-280
-1.77288e-274
3.91042e-287
4.27557e-288
1.01036e-293
3.21227e-294
2.33755e-300
1.32337e-300
4.56556e-307
4.0829e-307
6.92502e-314
9.64825e-314
7.08984e-321
1.65413e-320
0
0
0
-8.25876e-315
2.47527e-321
-1.354e-307
4.21322e-314
-1.08771e-300
3.1944e-307
-5.91187e-294
1.53888e-300
-2.50354e-287
5.39532e-294
-8.97839e-281
1.45265e-287
-2.89088e-274
2.93353e-281
-8.7539e-268
3.23825e-275
-1.99357e-261
-6.0299e-262
-2.24204e-255
-3.78048e-255
-9.88633e-250
-6.19451e-249
-1.01927e-244
-3.4141e-243
-1.06115e-240
-4.24765e-238
-1.25433e-237
-5.63448e-234
-1.05351e-236
-9.6527e-231
-1.03976e-238
-1.58257e-229
1.03098e-236
-1.58054e-229
1.19889e-237
-9.32742e-231
1.97864e-241
-1.0595e-234
3.15681e-245
-1.32824e-238
1.23979e-251
-4.43208e-245
8.80647e-259
-2.79273e-252
2.12569e-266
-4.76673e-260
2.5611e-273
-2.04586e-267
6.13561e-280
7.03589e-281
1.88093e-286
6.27455e-287
5.16304e-293
3.06719e-293
1.19634e-299
1.12274e-299
2.15287e-306
3.14799e-306
2.61517e-313
6.40196e-313
1.5568e-320
8.23805e-320
0
-2.64286e-307
9.8182e-314
-3.65155e-300
1.40884e-306
-2.47407e-293
9.00955e-300
-1.13289e-286
3.65383e-293
-4.03598e-280
1.07678e-286
-1.21597e-273
2.43391e-280
-3.28553e-267
4.12229e-274
-8.34197e-261
3.81258e-268
-1.58727e-254
-4.86216e-255
-1.48426e-248
-2.5323e-248
-5.43484e-243
-3.43862e-242
-4.70419e-238
-1.57125e-236
-4.29134e-234
-1.64098e-231
-4.66776e-231
-1.90752e-227
-3.76477e-230
-3.00756e-224
-3.14568e-232
-4.73839e-223
3.69588e-230
-4.7322e-223
4.46893e-231
-2.90601e-224
8.01359e-235
-3.58736e-228
1.46214e-238
-5.14371e-232
7.01512e-245
-2.09656e-238
6.65441e-252
-1.76453e-245
1.99139e-259
-3.75944e-253
2.83567e-266
-1.9293e-260
8.06895e-273
9.55508e-274
2.9577e-279
1.01924e-279
9.70728e-286
5.95786e-286
2.68948e-292
2.60773e-292
5.78638e-299
8.74162e-299
8.40206e-306
2.1255e-305
5.98187e-313
3.26966e-312
2.23792e-319
-7.28885e-300
3.33664e-306
-8.43308e-293
4.00989e-299
-4.78002e-286
2.14498e-292
-1.82968e-279
7.26838e-286
-5.44387e-273
1.78806e-279
-1.36866e-266
3.37135e-273
-3.08383e-260
4.76023e-267
-6.52577e-254
3.66875e-261
-1.03258e-247
-3.18763e-248
-8.00511e-242
-1.37569e-241
-2.43075e-236
-1.54527e-235
-1.76636e-231
-5.84938e-230
-1.41209e-227
-5.1289e-225
-1.41344e-224
-5.22532e-221
-1.09484e-223
-7.58273e-218
-7.65081e-226
-1.14804e-216
1.07787e-223
-1.14653e-216
1.35531e-224
-7.3265e-218
2.64068e-228
-9.82937e-222
5.51011e-232
-1.61195e-225
3.22909e-238
-8.02405e-232
4.09097e-245
-9.02015e-239
1.52803e-252
-2.40883e-246
2.60033e-259
-1.49093e-253
8.85246e-266
1.07123e-266
3.90106e-272
1.37419e-272
1.53923e-278
9.65747e-279
5.12648e-285
5.0817e-285
1.32592e-291
2.04799e-291
2.31468e-298
5.9858e-298
1.98003e-305
1.10674e-304
9.10292e-312
-1.71463e-292
9.62211e-299
-1.64878e-285
9.61703e-292
-7.77121e-279
4.27874e-285
-2.47282e-272
1.20509e-278
-6.11357e-266
2.46278e-272
-1.27658e-259
3.85588e-266
-2.38794e-253
4.51937e-260
-4.19366e-247
2.89125e-254
-5.4997e-241
-1.70534e-241
-3.52768e-235
-6.087e-235
-8.87495e-230
-5.64871e-229
-5.41498e-225
-1.77043e-223
-3.79407e-221
-1.30363e-218
-3.4949e-218
-1.1642e-214
-2.6001e-217
-1.55496e-211
-1.50347e-219
-2.26243e-210
2.56621e-217
-2.25946e-210
3.35577e-218
-1.50242e-211
7.10463e-222
-2.1907e-215
1.6954e-225
-4.10897e-219
1.21333e-231
-2.49737e-225
2.05305e-238
-3.7495e-232
9.61091e-246
-1.25768e-239
1.97173e-252
-9.45737e-247
8.07156e-259
9.91075e-260
4.29232e-265
1.5346e-265
2.04369e-271
1.30152e-271
8.21381e-278
8.26452e-278
2.56343e-284
4.01894e-284
5.3989e-291
1.41739e-290
5.57423e-298
3.16184e-297
3.13807e-304
-3.38963e-285
2.32723e-291
-2.70198e-278
1.92837e-284
-1.05519e-271
7.10908e-278
-2.78127e-265
1.65836e-271
-5.69405e-259
2.8061e-265
-9.84289e-253
3.63672e-259
-1.52382e-246
3.52772e-253
-2.21431e-240
1.86814e-247
-2.40114e-234
-7.4616e-235
-1.27251e-228
-2.19971e-228
-2.6509e-223
-1.68494e-222
-1.35832e-218
-4.3713e-217
-8.34239e-215
-2.70382e-212
-7.07212e-212
-2.11687e-208
-5.05387e-211
-2.60238e-205
-2.39603e-213
-3.6388e-204
4.9988e-211
-3.63405e-204
6.79866e-212
-2.51451e-205
1.56411e-215
-3.98491e-209
4.26863e-219
-8.54854e-213
3.72975e-225
-6.3421e-219
8.42854e-232
-1.27159e-225
4.95552e-239
-5.35873e-233
1.2347e-245
-4.92929e-240
6.09916e-252
7.56271e-253
3.92415e-258
1.4171e-258
2.2605e-264
1.45415e-264
1.09911e-270
1.11713e-270
4.14993e-277
6.57266e-277
1.05749e-283
2.8042e-283
1.32037e-290
7.56682e-290
9.08293e-297
-5.60406e-278
4.69624e-284
-3.69004e-271
3.21564e-277
-1.19073e-264
9.79752e-271
-2.59316e-258
1.88835e-264
-4.38582e-252
2.63955e-258
-6.26213e-246
2.8255e-252
-8.00629e-240
2.2636e-246
-9.6067e-234
9.90287e-241
-8.59933e-228
-2.67407e-228
-3.76163e-222
-6.50409e-222
-6.4866e-217
-4.10971e-216
-2.79205e-212
-8.82408e-211
-1.5033e-208
-4.58642e-206
-1.17285e-205
-3.14845e-202
-8.05143e-205
-3.56257e-199
-3.10457e-207
-4.78726e-198
7.9783e-205
-4.78107e-198
1.12864e-205
-3.44238e-199
2.82173e-209
-5.9294e-203
8.80709e-213
-1.45482e-206
9.39283e-219
-1.31707e-212
2.83449e-225
-3.52604e-219
2.09364e-232
-1.86387e-226
6.37928e-239
-2.11248e-233
3.81179e-245
4.75777e-246
2.97245e-251
1.0807e-251
2.07526e-257
1.34411e-257
1.22297e-263
1.25153e-263
5.59618e-270
8.92381e-270
1.72803e-276
4.61419e-276
2.61543e-283
1.50881e-282
2.19496e-289
-7.69038e-271
7.86e-277
-4.17872e-264
4.44159e-270
-1.11244e-257
1.11654e-263
-1.99845e-251
1.77518e-257
-2.78782e-245
2.0466e-251
-3.28275e-239
1.80677e-245
-3.461e-233
1.1937e-239
-3.42417e-227
4.3081e-234
-2.52727e-221
-7.85629e-222
-9.11893e-216
-1.57534e-215
-1.30142e-210
-8.20764e-210
-4.70715e-206
-1.45845e-204
-2.22214e-202
-6.37231e-200
-1.59559e-199
-3.83607e-196
-1.05229e-198
-3.99528e-193
-3.27858e-201
-5.15955e-192
1.04433e-198
-5.15295e-192
1.53675e-199
-3.86063e-193
4.17539e-203
-7.22788e-197
1.49044e-206
-2.0283e-200
1.93965e-212
-2.23998e-206
7.81541e-219
-8.00616e-213
7.24055e-226
-5.28826e-220
2.71767e-232
-7.44696e-227
1.96755e-238
2.4668e-239
1.86187e-244
6.80021e-245
1.57739e-250
1.02635e-250
1.12796e-256
1.15964e-256
6.26303e-263
1.00338e-262
2.34683e-269
6.29507e-269
4.3088e-276
2.49746e-275
4.40765e-282
-8.74198e-264
1.0885e-269
-3.91316e-257
5.06836e-263
-8.58347e-251
1.04997e-256
-1.27049e-244
1.37548e-250
-1.46021e-238
1.30653e-244
-1.41653e-232
9.50257e-239
-1.23026e-226
5.17231e-233
-1.0026e-220
1.53838e-227
-6.09642e-215
-1.89328e-215
-1.81364e-209
-3.12789e-209
-2.14205e-204
-1.34336e-203
-6.51276e-200
-1.9756e-198
-2.69608e-196
-7.259e-194
-1.78171e-193
-3.83263e-190
-1.12894e-192
-3.67413e-187
-2.82417e-195
-4.55999e-186
1.12182e-192
-4.55422e-186
1.71721e-193
-3.55043e-187
5.07083e-197
-7.22521e-191
2.07014e-200
-2.31897e-194
3.2863e-206
-3.12286e-200
1.76777e-212
-1.48995e-206
2.04639e-219
-1.2216e-213
9.54193e-226
-2.15998e-220
8.3801e-232
1.05382e-232
9.63094e-238
3.52843e-238
9.9093e-244
6.46772e-244
8.60568e-250
8.87502e-250
5.80286e-256
9.32549e-256
2.64038e-262
7.10511e-262
5.88807e-269
3.4229e-268
7.33611e-275
-8.20022e-257
1.24356e-262
-3.02282e-250
4.7687e-256
-5.45942e-244
8.13475e-250
-6.65318e-238
8.77419e-244
-6.29533e-232
6.86161e-238
-5.02752e-226
4.10855e-232
-3.59438e-220
1.84109e-226
-2.41119e-214
4.50951e-221
-1.20719e-208
-3.74368e-209
-2.96011e-203
-5.09356e-203
-2.89339e-198
-1.80291e-197
-7.39786e-194
-2.19461e-192
-2.68591e-190
-6.78413e-188
-1.63366e-187
-3.14205e-184
-9.94568e-187
-2.77249e-181
-1.98865e-189
-3.30694e-180
9.8932e-187
-3.3028e-180
1.57542e-187
-2.67921e-181
5.05632e-191
-5.9267e-185
2.36082e-194
-2.17563e-188
4.56987e-200
-3.57105e-194
3.28136e-206
-2.27402e-200
4.71495e-213
-2.28985e-207
2.76015e-219
-5.15457e-214
2.94315e-225
3.70872e-226
4.11032e-231
1.50903e-231
5.13907e-237
3.36129e-237
5.42306e-243
5.60464e-243
4.44348e-249
7.15619e-249
2.45686e-255
6.62488e-255
6.65594e-262
3.87769e-261
1.00969e-267
-6.3424e-250
1.1708e-255
-1.92369e-243
3.69468e-249
-2.85898e-237
5.18701e-243
-2.867e-231
4.60398e-237
-2.23222e-225
2.96269e-231
-1.46681e-219
1.45973e-225
-8.62839e-214
5.38252e-220
-4.76212e-208
1.08515e-214
-1.9623e-202
-6.07494e-203
-3.96525e-197
-6.80458e-197
-3.20797e-192
-1.98479e-191
-6.9005e-188
-2.00003e-186
-2.19761e-184
-5.20391e-182
-1.23025e-181
-2.11454e-178
-7.19662e-181
-1.7174e-175
-1.1454e-183
-1.96871e-174
7.16466e-181
-1.96626e-174
1.18694e-181
-1.65966e-175
4.14069e-185
-3.991e-179
2.21113e-188
-1.67564e-182
5.21676e-194
-3.35068e-188
4.99949e-200
-2.84746e-194
8.8226e-207
-3.4635e-201
6.57501e-213
-1.01145e-207
8.51956e-219
1.0751e-219
1.44641e-224
5.31785e-225
2.19838e-230
1.43995e-230
2.82008e-236
2.91869e-236
2.8088e-242
4.52999e-242
1.88768e-248
5.09762e-248
6.21701e-255
3.62667e-254
1.14787e-260
-4.03668e-243
9.07e-249
-1.00729e-236
2.35489e-242
-1.2315e-230
2.71985e-236
-1.01587e-224
1.98593e-230
-6.50599e-219
1.05123e-224
-3.51643e-213
4.26046e-219
-1.70134e-207
1.29225e-213
-7.7228e-202
2.14356e-208
-2.6184e-196
-8.09038e-197
-4.35977e-191
-7.45854e-191
-2.91976e-186
-1.79267e-185
-5.28618e-182
-1.49568e-180
-1.47695e-178
-3.27711e-176
-7.61008e-176
-1.16847e-172
-4.27767e-175
-8.73529e-170
-5.40298e-178
-9.62375e-169
4.26155e-175
-9.61186e-169
7.34483e-176
-8.44173e-170
2.78523e-179
-2.20685e-173
1.70106e-182
-1.05975e-176
4.88923e-188
-2.58019e-182
6.25299e-194
-2.92589e-188
1.33291e-200
-4.18758e-195
1.28868e-206
-1.62808e-201
2.03191e-212
2.56673e-213
4.1948e-218
1.54377e-218
7.75253e-224
5.08291e-224
1.20922e-229
1.25274e-229
1.46444e-235
2.36417e-235
1.19671e-241
3.23468e-241
4.7915e-248
2.79789e-247
1.0766e-253
-2.11356e-236
5.77877e-242
-4.3371e-230
1.23395e-235
-4.36069e-224
1.17218e-229
-2.95819e-218
7.03882e-224
-1.55797e-212
3.06414e-218
-6.92454e-207
1.02125e-212
-2.75489e-201
2.54736e-207
-1.02824e-195
3.47574e-202
-2.86788e-190
-8.84255e-191
-3.93445e-185
-6.70815e-185
-2.18158e-180
-1.32852e-179
-3.32595e-176
-9.17944e-175
-8.15399e-173
-1.6945e-170
-3.86702e-170
-5.30254e-167
-2.0888e-169
-3.64878e-164
-2.08857e-172
-3.86347e-163
2.08204e-169
-3.85872e-163
3.73331e-170
-3.52619e-164
1.53899e-173
-1.0022e-167
1.07502e-176
-5.50455e-171
3.76209e-182
-1.63075e-176
6.42032e-188
-2.46742e-182
1.61034e-194
-3.97897e-189
2.07285e-200
-2.13183e-195
3.99147e-206
5.04587e-207
1.0022e-211
3.69083e-212
2.25262e-217
1.47792e-217
4.27315e-223
4.42988e-223
6.29346e-229
1.01668e-228
6.25407e-235
1.69163e-234
3.04542e-241
1.77931e-240
8.32598e-247
-9.09382e-230
3.02556e-235
-1.53454e-223
5.3129e-229
-1.26866e-217
4.15017e-223
-7.07642e-212
2.04922e-217
-3.06428e-206
7.33492e-212
-1.11976e-200
2.01006e-206
-3.66254e-195
4.12246e-201
-1.12384e-189
4.62587e-196
-2.57813e-184
-7.93126e-185
-2.91415e-179
-4.95046e-179
-1.33812e-174
-8.07839e-174
-1.71872e-170
-4.62366e-169
-3.69799e-167
-7.19459e-165
-1.61421e-164
-1.97626e-161
-8.37911e-164
-1.25158e-158
-6.62336e-167
-1.2722e-157
8.35561e-164
-1.27064e-157
1.55875e-164
-1.20954e-158
6.98566e-168
-3.73816e-162
5.5811e-171
-2.34838e-165
2.37656e-176
-8.45932e-171
5.41161e-182
-1.70775e-176
1.52938e-188
-2.86955e-183
2.71315e-194
-2.2023e-189
6.45542e-200
8.16556e-201
1.97162e-205
7.26457e-206
5.3904e-211
3.53827e-211
1.24374e-216
1.28996e-216
2.22798e-222
3.60091e-222
2.69294e-228
7.28712e-228
1.59476e-234
9.32185e-234
5.30485e-240
-3.21495e-223
1.30141e-228
-4.46011e-217
1.87895e-222
-3.03153e-211
1.20679e-216
-1.39016e-205
4.89906e-211
-4.94884e-200
1.44166e-205
-1.48664e-194
3.24794e-200
-3.99716e-189
5.47632e-195
-1.00818e-183
5.05291e-190
-1.90208e-178
-5.8375e-179
-1.77141e-173
-2.99751e-173
-6.73751e-169
-4.03049e-168
-7.29449e-165
-1.91136e-163
-1.37764e-161
-2.50828e-159
-5.24388e-159
-5.70244e-156
-2.04163e-158
-9.28427e-155
-1.16212e-161
-5.22646e-155
2.03589e-158
-5.22834e-155
5.28965e-159
-9.31153e-155
2.60481e-162
-1.13218e-156
2.38028e-165
-8.2292e-160
1.23242e-170
-3.60158e-165
3.74429e-176
-9.70108e-171
1.10263e-182
-1.43777e-177
2.8024e-188
-1.58458e-183
8.56948e-194
1.08451e-194
3.18405e-199
1.17362e-199
1.05898e-204
6.95358e-205
2.97232e-210
3.08381e-210
6.47679e-216
1.04713e-215
9.52216e-222
2.57757e-221
6.85948e-228
4.01055e-227
2.77606e-233
-9.33308e-217
4.59681e-222
-1.06448e-210
5.4565e-216
-5.94795e-205
2.8812e-210
-2.24218e-199
9.61554e-205
-6.56129e-194
2.32609e-199
-1.62014e-188
4.30787e-194
-3.58047e-183
5.9708e-189
-7.42239e-178
4.52953e-184
-1.15155e-172
-3.52521e-173
-8.83607e-168
-1.48908e-167
-2.78453e-163
-1.64981e-162
-2.5408e-159
-6.47989e-158
-5.45427e-157
-9.20658e-155
-8.75601e-155
-4.0284e-154
-3.75427e-153
-2.07953e-151
-1.85384e-156
-1.961e-150
3.7984e-153
-1.95862e-150
1.53995e-154
-2.04022e-151
2.48204e-157
-1.33269e-153
8.33935e-160
-7.35769e-155
5.24604e-165
-1.26407e-159
2.12659e-170
-4.54734e-165
5.52381e-177
-4.42677e-172
2.01641e-182
-6.96617e-178
8.073e-188
1.02215e-188
3.64974e-193
1.34567e-193
1.47689e-198
9.70023e-199
5.04327e-204
5.23374e-204
1.33696e-209
2.16205e-209
2.39127e-215
6.47433e-215
2.09543e-221
1.22541e-220
1.03179e-226
-2.2247e-210
1.33312e-215
-2.08576e-204
1.30088e-209
-9.5802e-199
5.64686e-204
-2.96853e-193
1.54915e-198
-7.14013e-188
3.08047e-193
-1.44909e-182
4.68934e-188
-2.63199e-177
5.34238e-183
-4.48398e-172
3.33187e-178
-5.72034e-167
-1.7465e-167
-3.61646e-162
-6.0684e-162
-9.38371e-158
-5.50388e-157
-2.61265e-156
-6.31966e-155
-1.36329e-153
-4.29389e-152
-2.03756e-149
-8.05141e-149
-8.40509e-148
-3.99224e-146
-3.2807e-151
-3.618e-145
8.52366e-148
-3.61362e-145
3.90879e-149
-3.92512e-146
9.08041e-154
-3.12361e-148
1.13289e-154
-2.01382e-151
1.84102e-159
-1.72664e-154
9.96736e-165
-1.77089e-159
1.70063e-171
-6.13253e-167
8.86607e-177
-1.35233e-172
4.72892e-182
5.99012e-183
2.60218e-187
9.5967e-188
1.28155e-192
8.41896e-193
5.32569e-198
5.52788e-198
1.71802e-203
2.77874e-203
3.73894e-209
1.0125e-208
3.98663e-215
2.33167e-214
2.38862e-220
-4.35262e-204
3.17343e-209
-3.35449e-198
2.54564e-203
-1.26647e-192
9.0835e-198
-3.22554e-187
2.04835e-192
-6.37653e-182
3.34791e-187
-1.06357e-176
4.18889e-182
-1.58754e-171
3.92235e-177
-2.22251e-166
2.01097e-172
-2.33126e-161
-7.09771e-162
-1.17592e-156
-1.96441e-156
-8.6415e-156
-4.68387e-155
-6.38383e-152
-1.05254e-150
-3.10712e-148
-8.36519e-147
-4.06299e-144
-1.37927e-143
-1.54687e-142
-6.30297e-141
-4.78079e-146
-5.48961e-140
1.57372e-142
-5.48298e-140
7.81431e-144
-6.21595e-141
2.03988e-148
-5.95067e-143
2.25633e-149
-4.18814e-146
2.74991e-154
-3.45779e-149
3.88157e-159
-2.9428e-154
2.35596e-166
-4.13326e-165
1.72166e-171
-9.65959e-171
1.22969e-176
1.55839e-177
8.23793e-182
3.03881e-182
4.93872e-187
3.24501e-187
2.4981e-192
2.59334e-192
9.80798e-198
1.58659e-197
2.5977e-203
7.03536e-203
3.37045e-209
1.97151e-208
2.45753e-214
-6.98937e-198
6.19995e-203
-4.42751e-192
4.08817e-197
-1.37393e-186
1.19909e-191
-2.87599e-181
2.22252e-186
-4.67264e-176
2.98565e-181
-6.40489e-171
3.07024e-176
-7.85607e-166
2.36275e-171
-9.03702e-161
9.95783e-167
-7.07454e-156
-2.14745e-156
-9.49474e-155
-1.52631e-154
-1.66855e-150
-8.82625e-150
-1.42147e-146
-1.99191e-145
-5.82182e-143
-1.33966e-141
-6.66007e-139
-1.94302e-138
-2.34024e-137
-8.18466e-136
-5.73939e-141
-6.85093e-135
2.38956e-137
-6.84266e-135
1.28435e-138
-8.10023e-136
3.77183e-143
-9.31613e-138
4.40026e-144
-7.16414e-141
5.81968e-149
-6.7819e-144
1.25022e-153
-6.94455e-149
1.58801e-164
-8.63986e-160
1.23027e-169
-3.7848e-166
1.44364e-174
1.83047e-175
1.50246e-179
5.54354e-180
1.3258e-184
8.71269e-185
9.50496e-190
9.86873e-190
5.14414e-195
8.32244e-195
1.83862e-200
4.98012e-200
3.16624e-206
1.8522e-205
3.02352e-211
-9.20892e-192
9.93906e-197
-4.79485e-186
5.38706e-191
-1.22293e-180
1.29875e-185
-2.10388e-175
1.97856e-180
-2.8091e-170
2.18448e-175
-3.16414e-165
1.84615e-170
-3.18899e-160
1.16759e-165
-2.3237e-155
4.87187e-161
-5.7522e-154
-1.70872e-154
-2.01577e-149
-3.20146e-149
-3.20924e-145
-1.65185e-144
-2.60041e-141
-3.09662e-140
-8.96769e-138
-1.76375e-136
-8.9745e-134
-2.2511e-133
-2.91046e-132
-8.74255e-131
-5.6825e-136
-7.03314e-130
2.9842e-132
-7.02466e-130
1.7355e-133
-8.68772e-131
5.746e-138
-1.19856e-132
7.05441e-139
-1.00738e-135
1.07819e-143
-1.09345e-138
3.33869e-148
-1.43468e-143
3.31986e-159
-2.85775e-154
4.82298e-165
-1.50389e-160
3.38862e-170
4.29911e-171
3.35531e-175
1.23829e-175
2.97349e-180
1.95439e-180
2.22351e-185
2.30891e-185
1.29069e-190
2.08839e-190
5.05447e-196
1.36919e-195
9.69724e-202
5.6732e-201
1.04571e-206
-9.95397e-186
1.30713e-190
-4.25975e-180
5.82339e-185
-8.92922e-175
1.15395e-179
-1.26244e-169
1.44484e-174
-1.38518e-164
1.31102e-169
-1.28204e-159
9.10539e-165
-5.267e-155
6.11944e-160
-2.1737e-153
1.3483e-155
-1.25806e-148
-3.70946e-149
-3.80441e-144
-5.95965e-144
-5.08488e-140
-2.53838e-139
-3.90813e-136
-3.95466e-135
-1.13557e-132
-1.90917e-131
-9.94121e-129
-2.14514e-128
-2.97549e-127
-7.68281e-126
-4.64207e-131
-5.94026e-125
3.06541e-127
-5.9331e-125
1.92805e-128
-7.67053e-126
7.24292e-133
-1.26717e-127
9.29718e-134
-1.16437e-130
1.63734e-138
-1.44924e-133
7.33001e-143
-2.42955e-138
9.67164e-154
-7.7798e-149
1.91765e-159
-4.31409e-155
1.63935e-164
2.08125e-165
1.97499e-169
7.2907e-170
2.12934e-174
1.3998e-174
1.93703e-179
2.01171e-179
1.36777e-184
2.21335e-184
6.51537e-190
1.76511e-189
1.52047e-195
8.89587e-195
1.99442e-200
-8.82417e-180
1.40994e-184
-3.10369e-174
5.16296e-179
-5.34684e-169
8.40877e-174
-6.21233e-164
8.65298e-169
-5.60077e-159
6.4528e-164
-8.54542e-155
4.16735e-159
-7.57918e-153
1.57374e-154
-4.83201e-148
3.70572e-150
-2.35335e-143
-6.88011e-144
-5.9052e-139
-9.10685e-139
-6.63984e-135
-3.20294e-134
-4.82498e-131
-4.14916e-130
-1.18206e-127
-1.69927e-126
-9.05241e-124
-1.68159e-123
-2.50061e-122
-5.55546e-121
-3.13201e-126
-4.12852e-120
2.59017e-122
-4.12355e-120
1.76102e-123
-5.57647e-121
7.50809e-128
-1.10089e-122
1.00729e-128
-1.10632e-125
2.03823e-133
-1.57899e-128
1.32306e-137
-3.37276e-133
2.61456e-148
-1.74341e-143
2.61979e-154
-1.15083e-149
6.49463e-159
1.26988e-159
9.52194e-164
3.51634e-164
1.24918e-168
8.21356e-169
1.38263e-173
1.43615e-173
1.18782e-178
1.92239e-178
6.88371e-184
1.86508e-183
1.95428e-189
1.14349e-188
3.11869e-194
-6.41343e-174
1.24689e-178
-1.85393e-168
3.7528e-173
-2.62472e-163
5.02343e-168
-2.50535e-158
4.24938e-163
-9.75697e-155
2.70647e-158
-3.02415e-152
1.22208e-153
-1.70528e-147
4.31445e-149
-9.00995e-143
8.35728e-145
-3.61719e-138
-1.04719e-138
-7.54073e-134
-1.14234e-133
-7.14879e-130
-3.3187e-129
-4.89324e-126
-3.57664e-125
-1.01145e-122
-1.24379e-121
-6.77614e-119
-1.08457e-118
-1.72751e-117
-3.30617e-116
-1.746e-121
-2.36159e-115
1.80043e-117
-2.35875e-115
1.3224e-118
-3.33906e-116
6.40088e-123
-7.8593e-118
8.97155e-124
-8.64086e-121
2.08003e-128
-1.41422e-123
1.96341e-132
-3.83857e-128
5.8717e-143
-3.21654e-138
5.63148e-149
-2.5462e-144
9.94999e-155
4.48626e-154
3.77663e-158
1.44414e-158
6.03119e-163
3.968e-163
8.12249e-168
8.43826e-168
8.48999e-173
1.37422e-172
5.98591e-178
1.62201e-177
2.06741e-183
1.2098e-182
4.01386e-188
-3.81884e-168
9.03443e-173
-9.07239e-163
2.23484e-167
-1.0544e-157
2.46122e-162
-8.42668e-155
1.72733e-157
-1.31949e-151
8.62215e-153
-6.84864e-147
3.3426e-148
-3.17679e-142
9.70376e-144
-1.38013e-137
1.54642e-139
-4.56917e-133
-1.30794e-133
-7.92459e-129
-1.1763e-128
-6.3491e-125
-2.82389e-124
-4.0761e-121
-2.53337e-120
-7.11396e-118
-7.48805e-117
-4.16956e-114
-5.75643e-114
-9.81025e-113
-1.6197e-111
-8.04917e-117
-1.11209e-110
1.02957e-112
-1.11075e-110
8.16422e-114
-1.64722e-111
4.48816e-118
-4.61038e-113
6.56897e-119
-5.54776e-116
1.74029e-123
-1.04125e-118
2.39556e-127
-3.58193e-123
1.0859e-137
-4.88662e-133
1.24328e-143
-4.63063e-139
1.49086e-151
1.20902e-148
8.31518e-155
4.55624e-153
2.3852e-157
1.5847e-157
3.91808e-162
4.08096e-162
4.98286e-167
8.06666e-167
4.27424e-172
1.15835e-171
1.79594e-177
1.05104e-176
4.24214e-182
-1.86274e-162
5.36251e-167
-3.62345e-157
1.09422e-161
-5.60541e-155
9.88985e-157
-5.88377e-151
5.65141e-152
-2.98333e-146
2.35255e-147
-1.27427e-141
7.49945e-143
-4.86232e-137
1.79035e-138
-1.737e-132
2.34765e-134
-4.7445e-128
-1.34055e-128
-6.85648e-124
-9.94415e-124
-4.65384e-120
-1.97348e-119
-2.78877e-116
-1.47464e-115
-4.1126e-113
-3.70857e-112
-2.10904e-109
-2.5148e-109
-4.5795e-108
-6.53382e-107
-3.06942e-112
-4.31242e-106
4.8439e-108
-4.30723e-106
4.14396e-109
-6.69707e-107
2.58844e-113
-2.22222e-108
3.95407e-114
-2.92794e-111
1.19386e-118
-6.30224e-114
2.40317e-122
-2.74079e-118
1.65412e-132
-6.11422e-128
2.25566e-138
-6.92206e-134
3.33003e-146
2.67937e-143
8.74888e-151
1.22675e-147
4.83301e-155
5.13855e-152
1.52793e-156
1.61554e-156
2.40126e-161
3.94738e-161
2.50602e-166
6.79247e-166
1.28102e-171
7.49789e-171
3.68141e-176
-7.39523e-157
2.62966e-161
-4.0687e-155
4.36689e-156
-2.46311e-150
3.25709e-151
-1.32718e-145
1.53792e-146
-5.54127e-141
5.26451e-142
-1.94814e-136
1.38005e-137
-6.11582e-132
2.70945e-133
-1.79662e-127
2.9239e-129
-4.05097e-123
-1.12749e-123
-4.88638e-119
-6.90213e-119
-2.81671e-115
-1.1329e-114
-1.56701e-111
-7.05514e-111
-1.95406e-108
-1.51134e-107
-8.76916e-105
-9.04535e-105
-1.75723e-103
-2.17101e-102
-9.68741e-108
-1.3775e-101
1.87501e-103
-1.37584e-101
1.72926e-104
-2.24482e-102
1.22792e-108
-8.80078e-104
1.95664e-109
-1.27025e-106
6.71604e-114
-3.13571e-109
1.98224e-117
-1.71987e-113
2.07581e-127
-6.30202e-123
3.36286e-133
-8.50461e-129
6.12695e-141
4.88333e-138
1.95657e-145
2.71571e-142
5.55389e-150
1.38322e-146
1.49941e-154
5.27651e-151
8.68919e-156
1.54202e-155
1.2082e-160
3.54816e-160
7.51371e-166
4.39842e-165
2.62715e-170
-7.30002e-155
1.04282e-155
-8.39966e-150
1.43863e-150
-5.53809e-145
8.8382e-146
-2.45908e-140
3.43194e-141
-8.45712e-136
9.66122e-137
-2.44787e-131
2.08277e-132
-6.32328e-127
3.36309e-128
-1.52763e-122
2.98741e-124
-2.84511e-118
-7.78206e-119
-2.86987e-114
-3.93395e-114
-1.55759e-110
-5.34324e-110
-7.2308e-107
-2.77491e-106
-7.6304e-104
-5.06935e-103
-2.99714e-100
-2.67951e-100
-5.54251e-99
-5.94397e-98
-2.53061e-103
-3.62588e-97
5.9716e-99
-3.62152e-97
5.93264e-100
-6.20606e-98
4.79165e-104
-2.86364e-99
7.95977e-105
-4.52993e-102
3.09848e-109
-1.28256e-104
1.34443e-112
-8.8518e-109
2.14661e-122
-5.35211e-118
4.11941e-128
-8.58749e-124
9.28945e-136
7.32004e-133
3.60512e-140
4.94308e-137
1.243e-144
3.06122e-141
3.61422e-149
1.41997e-145
8.47275e-154
5.04409e-150
3.26594e-155
1.29905e-154
3.62301e-160
2.694e-159
1.54128e-164
-1.69182e-149
3.42706e-150
-1.88032e-144
3.89158e-145
-1.02257e-139
1.96629e-140
-3.74347e-135
6.27955e-136
-1.06087e-130
1.45385e-131
-2.52873e-126
2.57771e-127
-5.37594e-122
3.42361e-123
-1.06815e-117
2.50395e-119
-1.64436e-113
-4.40827e-114
-1.38984e-109
-1.84158e-109
-7.16714e-106
-2.07099e-105
-2.73984e-102
-8.97469e-102
-2.4486e-99
-1.39997e-98
-8.42021e-96
-6.5396e-96
-1.43695e-94
-1.34151e-93
-5.47263e-99
-7.86818e-93
1.56476e-94
-7.85872e-93
1.67328e-95
-1.4157e-93
1.53815e-99
-7.65519e-95
2.66204e-100
-1.3279e-97
1.17252e-104
-4.31247e-100
7.49818e-108
-3.7372e-104
1.82973e-117
-3.7462e-113
4.14577e-123
-7.12576e-119
1.16111e-130
9.02542e-128
5.47526e-135
7.39801e-132
2.29236e-139
5.57007e-136
8.08894e-144
3.14154e-140
2.20956e-148
1.3569e-144
4.11684e-153
4.24876e-149
6.08589e-155
8.40888e-154
9.32816e-159
-3.76509e-144
9.23902e-145
-3.45512e-139
8.6292e-140
-1.55086e-134
3.58622e-135
-4.68342e-130
9.42018e-131
-1.09415e-125
1.79387e-126
-2.14849e-121
2.61606e-122
-3.75985e-117
2.85825e-118
-6.14458e-113
1.7217e-114
-7.8247e-109
-2.04968e-109
-5.55341e-105
-7.08251e-105
-2.70438e-101
-6.59851e-101
-8.52424e-98
-2.38753e-97
-6.45676e-95
-3.18435e-94
-1.94446e-91
-1.3155e-91
-3.06211e-90
-2.49704e-89
-9.79587e-95
-1.40827e-88
3.37327e-90
-1.40657e-88
3.87983e-91
-2.6659e-89
4.06184e-95
-1.68117e-90
7.31909e-96
-3.19971e-93
3.63985e-100
-1.192e-95
3.439e-103
-1.2945e-99
1.28593e-112
-2.16174e-108
3.4274e-118
-4.85849e-114
1.19706e-125
9.15429e-123
6.85736e-130
9.10443e-127
3.48516e-134
8.33295e-131
1.49178e-138
5.71396e-135
4.93982e-143
3.00056e-139
1.10052e-147
1.14229e-143
1.20306e-152
2.74857e-148
2.94278e-153
-6.87301e-139
2.04128e-139
-5.21224e-134
1.56831e-134
-1.93248e-129
5.36154e-130
-4.81716e-125
1.15851e-125
-9.28219e-121
1.81475e-121
-1.50205e-116
2.17704e-117
-2.16426e-112
1.95694e-113
-2.90948e-108
9.71203e-110
-3.06737e-104
-7.82403e-105
-1.83196e-100
-2.23855e-100
-8.3672e-97
-1.72895e-96
-2.17741e-93
-5.22621e-93
-1.39896e-90
-5.96828e-90
-3.69084e-87
-2.18212e-87
-5.36334e-86
-3.83527e-85
-1.45097e-90
-2.08008e-84
5.98222e-86
-2.07758e-84
7.39558e-87
-4.14606e-85
8.8242e-91
-3.0329e-86
1.65437e-91
-6.33749e-89
9.27072e-96
-2.70854e-91
1.29718e-98
-3.67932e-95
7.45396e-108
-1.02874e-103
2.32726e-113
-2.72154e-109
1.0185e-120
7.63911e-118
7.0861e-125
9.21367e-122
4.37018e-129
1.02499e-125
2.26797e-133
8.5441e-130
9.09827e-138
5.45441e-134
2.45395e-142
2.52426e-138
3.23582e-147
7.38367e-143
9.61037e-148
-1.02919e-133
3.69575e-134
-6.45675e-129
2.33599e-129
-1.97912e-124
6.57015e-125
-4.07523e-120
1.16797e-120
-6.48046e-116
1.50517e-116
-8.64566e-112
1.48554e-112
-1.02595e-107
1.09882e-108
-1.13467e-103
4.49494e-105
-9.91239e-100
-2.45252e-100
-4.99247e-96
-5.81745e-96
-2.12248e-92
-3.72733e-92
-4.56604e-89
-9.41699e-89
-2.49029e-86
-9.22174e-86
-5.75824e-83
-2.98631e-83