/*--------------------------------*- C++ -*----------------------------------*\
  =========                 |
  \\      /  F ield         | OpenFOAM: The Open Source CFD Toolbox
   \\    /   O peration     | Website:  https://openfoam.org
    \\  /    A nd           | Version:  9
     \\/     M anipulation  |
\*---------------------------------------------------------------------------*/
FoamFile
{
    format      ascii;
    class       volScalarField;
    location    "0.05";
    object      alpha.phase1;
}
// * * * * * * * * * * * * * * * * * * * * * * * * * * * * * * * * * * * * * //

dimensions      [0 0 0 0 0 0 0];

internalField   nonuniform List<scalar> 
4096
(
0
0
0
0
0
0
0
5.26018e-318
3.8414e-311
2.35571e-304
8.27884e-298
1.31851e-291
5.31356e-286
1.78077e-281
5.46796e-278
1.18673e-276
1.18667e-276
5.30373e-278
3.36683e-282
1.64851e-286
1.35232e-293
1.17905e-301
1.10615e-309
7.15674e-317
0
0
0
0
0
0
0
0
0
0
0
0
0
0
7.81456e-317
5.13329e-310
3.32866e-303
1.80469e-296
5.5634e-290
7.6233e-284
2.59837e-278
7.62073e-274
2.15162e-270
4.48491e-269
4.48282e-269
2.08452e-270
1.43776e-274
8.05181e-279
8.07427e-286
9.29553e-294
9.08771e-302
6.37926e-309
7.78568e-316
0
0
0
0
0
0
0
0
0
0
0
0
5.94161e-316
3.7538e-309
2.25652e-302
1.33765e-295
6.52942e-289
1.76908e-282
2.07832e-276
5.98551e-271
1.53679e-266
3.99095e-263
7.99059e-262
7.98474e-262
3.86308e-263
2.89527e-267
1.85449e-271
2.27323e-278
3.46467e-286
3.56051e-294
2.5487e-301
3.33613e-308
5.37967e-315
7.11455e-322
0
0
0
0
0
0
0
0
4.74303e-322
3.34731e-315
2.11022e-308
1.21077e-301
6.5882e-295
3.52903e-288
1.53209e-281
3.602e-275
3.5966e-269
8.73306e-264
1.9634e-259
4.69074e-256
9.02243e-255
9.01404e-255
4.53768e-256
3.6955e-260
2.70732e-264
4.05643e-271
8.21104e-279
9.28445e-287
6.90641e-294
9.80814e-301
1.7542e-307
2.94464e-314
4.30825e-321
0
0
0
0
0
0
1.91697e-321
1.6045e-314
1.05377e-307
5.93357e-301
3.02485e-294
1.45802e-287
6.90725e-281
2.61703e-274
5.26503e-268
4.43182e-262
9.05628e-257
1.78313e-252
3.91962e-249
7.24339e-248
7.23564e-248
3.79005e-249
3.35411e-253
2.81043e-257
5.14686e-264
1.38687e-271
1.79886e-279
1.4404e-286
2.27452e-293
4.61391e-300
8.78417e-307
1.49755e-313
2.1561e-320
0
0
0
0
5.98808e-321
6.59557e-314
4.85263e-307
2.80295e-300
1.37963e-293
6.12386e-287
2.56406e-280
1.05366e-273
3.42806e-267
5.83647e-261
4.11643e-255
7.07041e-250
1.21935e-245
2.46637e-242
4.37926e-241
4.37413e-241
2.38409e-242
2.29276e-246
2.19726e-250
4.91795e-257
1.76671e-264
2.71122e-272
2.41463e-279
4.33898e-286
1.01778e-292
2.2406e-299
4.4169e-306
7.35041e-313
9.5078e-320
0
0
1.10177e-320
2.12323e-313
1.99582e-306
1.27248e-299
6.33916e-293
2.68072e-286
1.0196e-279
3.65159e-273
1.28211e-266
3.53796e-260
5.05642e-254
2.97544e-248
4.2925e-243
6.48486e-239
1.20708e-235
2.05942e-234
2.05687e-234
1.16656e-235
1.21915e-239
1.3363e-243
3.65511e-250
1.75212e-257
3.25114e-265
3.30588e-272
6.8872e-279
1.89606e-285
4.89887e-292
1.13336e-298
2.21356e-305
3.35746e-312
3.43692e-319
0
4.00453e-313
6.56555e-306
5.2745e-299
2.86688e-292
1.21411e-285
4.35438e-279
1.40211e-272
4.24604e-266
1.25954e-259
2.92166e-253
3.48503e-247
1.70604e-241
2.06641e-236
2.7351e-232
4.68529e-229
7.68128e-228
7.67143e-228
4.52742e-229
5.14192e-233
6.44613e-237
2.15442e-243
1.37882e-250
3.14008e-258
3.71846e-265
9.1081e-272
2.97511e-278
9.12017e-285
2.50337e-291
5.80049e-298
1.0438e-304
1.26792e-311
7.54675e-319
1.28152e-305
1.7707e-298
1.19977e-291
5.49407e-285
1.95739e-278
5.89762e-272
1.59363e-265
4.04654e-259
1.00589e-252
1.94871e-246
1.9322e-240
7.85322e-235
7.98508e-230
9.26106e-226
1.46007e-222
2.30024e-221
2.29724e-221
1.41078e-222
1.74126e-226
2.49668e-230
1.01945e-236
8.71326e-244
2.46021e-251
3.44329e-258
1.00179e-264
3.91273e-271
1.43417e-277
4.70686e-284
1.30404e-290
2.80555e-297
4.07368e-304
2.90021e-311
3.53449e-298
4.08951e-291
2.31812e-284
8.87364e-278
2.64035e-271
6.63864e-265
1.49591e-258
3.1658e-252
6.55629e-246
1.05594e-239
8.67849e-234
2.92469e-228
2.49647e-223
2.53739e-219
3.68185e-216
5.57415e-215
5.56683e-215
3.55746e-216
4.77186e-220
7.82548e-224
3.90309e-230
4.45562e-237
1.57025e-244
2.62648e-251
9.1423e-258
4.29287e-264
1.89169e-270
7.46367e-277
2.48574e-283
6.42898e-290
1.12229e-296
9.60008e-304
8.31486e-291
7.99594e-284
3.76892e-277
1.19935e-270
2.96536e-264
6.19246e-258
1.15845e-251
2.03464e-245
3.49606e-239
4.66583e-233
3.17233e-227
8.85687e-222
6.34746e-217
5.65454e-213
7.55181e-210
1.09871e-208
1.09727e-208
7.29671e-210
1.06372e-213
1.99514e-217
1.21528e-223
1.85295e-230
8.18448e-238
1.6504e-244
6.90797e-251
3.9144e-257
2.08151e-263
9.91025e-270
3.98288e-276
1.24297e-282
2.61777e-289
2.70271e-296
1.64383e-283
1.31042e-276
5.11783e-270
1.34904e-263
2.76209e-257
4.77503e-251
7.39312e-245
1.07444e-238
1.52733e-232
1.68524e-226
9.46591e-221
2.18823e-215
1.31699e-210
1.02842e-206
1.26417e-203
1.76754e-202
1.76523e-202
1.2215e-203
1.93533e-207
4.15168e-211
3.08767e-217
6.28754e-224
3.48809e-231
8.54242e-238
4.31465e-244
2.95805e-250
1.90308e-256
1.09621e-262
5.32985e-269
2.01232e-275
5.12761e-282
6.40211e-289
2.71789e-276
1.78972e-269
5.77561e-263
1.2579e-256
2.12767e-250
3.03821e-244
3.88485e-238
4.66198e-232
5.47156e-226
4.98325e-220
2.31023e-214
4.42056e-209
2.2349e-204
1.53e-200
1.73107e-197
2.32601e-196
2.323e-196
1.67269e-197
2.88039e-201
7.06714e-205
6.41562e-211
1.74463e-217
1.21593e-224
3.6417e-231
2.22495e-237
1.84883e-243
1.44163e-249
1.00644e-255
5.93077e-262
2.71373e-268
8.37932e-275
1.26819e-281
3.72995e-269
2.02688e-262
5.39627e-256
9.69499e-250
1.35257e-243
1.59287e-237
1.67957e-231
1.66193e-225
1.60817e-219
1.20758e-213
4.61766e-208
7.31248e-203
3.10655e-198
1.86473e-194
1.94192e-191
2.50764e-190
2.50443e-190
1.8765e-191
3.51213e-195
9.85563e-199
1.09179e-204
3.96426e-211
3.46549e-218
1.27856e-224
9.46487e-231
9.544e-237
9.03071e-243
7.65037e-249
5.47031e-255
3.03726e-261
1.13805e-267
2.08938e-274
4.24028e-262
1.89821e-255
4.16406e-249
6.16409e-243
7.08529e-237
6.87421e-231
5.9711e-225
4.86691e-219
3.87911e-213
2.39965e-207
7.56532e-202
9.91449e-197
3.54061e-192
1.86372e-188
1.78644e-185
2.21698e-184
2.21417e-184
1.72631e-185
3.51191e-189
1.12715e-192
1.52315e-198
7.38357e-205
8.06523e-212
3.69657e-218
3.31956e-224
4.06533e-230
4.67175e-236
4.80642e-242
4.17383e-248
2.81428e-254
1.28047e-260
2.85532e-267
3.97781e-255
1.46645e-248
2.64877e-242
3.2283e-236
3.05503e-230
2.44012e-224
1.74482e-218
1.17066e-212
7.68022e-207
3.91182e-201
1.0165e-195
1.10246e-190
3.31084e-186
1.52851e-182
1.34856e-179
1.60838e-178
1.60636e-178
1.30321e-179
2.88175e-183
1.05784e-186
1.74311e-192
1.12794e-198
1.52933e-205
8.80024e-212
9.59505e-218
1.42794e-223
1.99402e-229
2.49288e-235
2.63044e-241
2.15515e-247
1.19154e-253
3.22787e-260
3.07687e-248
9.33327e-242
1.38725e-235
1.39132e-229
1.08342e-223
7.12035e-218
4.18921e-212
2.31254e-206
1.2482e-200
5.23245e-195
1.12047e-189
1.00581e-184
2.54122e-180
1.02912e-176
8.35729e-174
9.5792e-173
9.56729e-173
8.07643e-174
1.94132e-177
8.15051e-181
1.63699e-186
1.41379e-192
2.35426e-199
1.72463e-205
2.28504e-211
4.13401e-217
7.01774e-223
1.06651e-228
1.368e-234
1.36242e-240
9.15567e-247
3.0152e-253
1.9585e-241
4.88767e-235
5.97631e-229
4.93055e-223
3.1582e-217
1.70728e-211
8.2619e-206
3.75114e-200
1.66521e-194
5.7435e-189
1.01342e-183
7.53061e-179
1.60141e-174
5.68968e-171
4.25291e-168
4.6849e-167
4.67912e-167
4.11005e-168
1.07394e-171
5.15702e-175
1.26183e-180
1.45435e-186
2.92539e-193
2.7802e-199
4.48243e-205
9.86111e-211
2.03552e-216
3.76147e-222
5.86648e-228
7.10399e-234
5.80479e-240
2.32401e-246
1.02556e-234
2.10474e-228
2.11648e-222
1.436e-216
7.56422e-211
3.36265e-205
1.33811e-199
4.99568e-194
1.82348e-188
5.17381e-183
7.52171e-178
4.62763e-173
8.28669e-169
2.58347e-165
1.77746e-162
1.88179e-161
1.87948e-161
1.71777e-162
4.87955e-166
2.67998e-169
7.9842e-175
1.22796e-180
2.90638e-187
3.67751e-193
7.24102e-199
1.93745e-204
4.86392e-210
1.09311e-215
2.07335e-221
3.0533e-227
3.03391e-233
1.47724e-239
4.41313e-228
7.44797e-222
6.15849e-216
3.43573e-210
1.48806e-204
5.43892e-199
1.77944e-193
5.4617e-188
1.63892e-182
3.82473e-177
4.58129e-172
2.33412e-167
3.52137e-163
9.63483e-160
6.10082e-157
6.20037e-156
6.19281e-156
5.89599e-157
1.82109e-160
1.14399e-163
4.14709e-169
8.51043e-175
2.26961e-181
3.9579e-187
9.62945e-193
3.1341e-198
9.57053e-204
2.61618e-209
6.03553e-215
1.08105e-220
1.30652e-226
7.7365e-233
1.5604e-221
2.16508e-215
1.47186e-209
6.75085e-204
2.40377e-198
7.2228e-193
1.94257e-187
4.90123e-182
1.20892e-176
2.3202e-171
2.28977e-166
9.66327e-162
1.22882e-157
2.78307e-154
5.38166e-153
5.98793e-153
5.98765e-153
5.37247e-153
5.51903e-155
4.01125e-158
1.76812e-163
4.84126e-169
1.34535e-175
3.36119e-181
1.05101e-186
4.1615e-192
1.54592e-197
5.14066e-203
1.44264e-208
3.14312e-214
4.62044e-220
3.32807e-226
4.5306e-215
5.16825e-209
2.88843e-203
1.08909e-197
3.1878e-192
7.87371e-187
1.74064e-181
3.60971e-176
7.31777e-171
1.15492e-165
9.39072e-161
3.2813e-156
4.68294e-153
2.90053e-152
1.03321e-149
9.55303e-149
9.54119e-149
9.77424e-150
3.97103e-153
3.6106e-153
6.18745e-158
2.26055e-163
5.541e-170
1.98834e-175
8.14035e-181
3.92185e-186
1.7726e-191
7.17143e-197
2.44842e-202
6.48964e-208
1.16055e-213
1.01684e-219
1.08014e-208
1.01289e-202
4.65337e-197
1.44227e-191
3.47004e-186
7.04473e-181
1.28001e-175
2.1816e-170
3.63456e-165
4.71669e-160
3.13941e-155
5.80467e-153
2.16278e-150
4.92514e-147
1.99067e-144
1.76327e-143
1.76107e-143
1.87575e-144
7.03652e-150
1.11519e-152
2.33648e-153
8.70999e-158
1.40245e-164
7.18752e-170
3.92022e-175
2.29886e-180
1.26458e-185
6.22619e-191
2.58675e-196
8.34276e-202
1.81529e-207
1.93521e-213
2.11372e-202
1.62937e-196
6.15318e-191
1.56759e-185
3.09996e-180
5.17248e-175
7.72392e-170
1.08183e-164
1.48105e-159
1.53058e-154
7.49989e-153
5.4474e-149
4.23626e-145
8.72442e-142
3.15635e-139
2.67669e-138
2.67332e-138
2.96257e-139
1.46261e-144
1.36689e-147
1.27771e-152
1.99338e-153
1.59716e-159
1.14742e-164
8.38062e-170
5.98316e-175
4.00654e-180
2.40107e-185
1.21411e-190
4.76542e-196
1.26183e-201
1.63681e-207
3.39496e-196
2.15113e-190
6.67722e-185
1.39817e-179
2.27245e-174
3.1162e-169
3.82405e-164
4.40125e-159
4.49644e-154
1.69744e-152
5.12121e-148
1.04215e-143
6.83174e-140
1.27607e-136
4.11879e-134
3.34211e-133
3.33783e-133
3.84859e-134
2.50248e-139
2.67493e-142
2.12428e-147
1.96809e-153
5.22276e-159
6.74051e-163
8.08845e-168
8.97113e-173
8.84247e-178
7.51085e-183
5.2353e-188
2.77308e-193
9.74548e-199
1.65556e-204
4.47422e-190
2.33028e-184
5.94531e-179
1.02319e-173
1.36673e-168
1.54019e-163
1.55312e-158
1.13414e-153
4.05839e-152
2.54596e-147
9.63478e-143
1.64071e-138
9.06738e-135
1.5417e-131
4.42429e-129
3.43274e-128
3.42823e-128
4.11269e-129
3.51961e-134
4.30308e-137
4.18186e-142
9.6702e-153
1.89804e-158
2.17223e-158
1.56081e-163
1.64706e-168
1.63042e-173
1.44452e-178
1.07994e-183
6.26756e-189
2.45399e-194
4.70734e-200
4.83762e-184
2.0709e-178
4.34259e-173
6.14225e-168
6.74257e-163
6.24386e-158
2.58028e-153
1.0809e-151
7.94961e-147
4.76883e-142
1.48947e-137
2.12625e-133
9.90699e-130
1.53913e-126
3.91301e-124
2.90081e-123
2.89687e-123
3.61582e-124
4.06912e-129
5.69035e-132
6.76755e-137
2.06818e-147
3.55028e-153
4.60935e-154
6.20743e-158
7.97023e-163
9.59881e-168
1.03459e-172
9.40908e-178
6.64238e-183
3.16345e-188
7.3811e-194
4.28995e-178
1.50944e-172
2.60144e-167
3.02396e-162
2.72773e-157
4.24926e-153
3.62689e-151
2.33998e-146
1.48546e-141
7.339e-137
1.89238e-132
2.26894e-128
8.91318e-125
1.27011e-121
2.85025e-119
2.01711e-118
2.01423e-118
2.61585e-119
3.86717e-124
6.18576e-127
9.00333e-132
4.62953e-142
9.5148e-148
4.41375e-153
2.61233e-153
3.15891e-157
4.62958e-162
6.07145e-167
6.71806e-172
5.76997e-177
3.34306e-182
9.48896e-188
3.11912e-172
9.02016e-167
1.27764e-161
1.22018e-156
5.16372e-153
1.41608e-150
8.11153e-146
4.35988e-141
2.28036e-136
9.28109e-132
1.97632e-127
1.99444e-123
6.6053e-120
8.66628e-117
1.71038e-114
1.15439e-113
1.15264e-113
1.55751e-114
3.02115e-119
5.52769e-122
9.84664e-127
8.53066e-137
2.10371e-142
9.51481e-148
1.44634e-152
5.1885e-153
1.83698e-156
2.93248e-161
3.94795e-166
4.12532e-171
2.90781e-176
1.00406e-181
1.85806e-166
4.41625e-161
5.13534e-156
5.57388e-153
6.0158e-150
3.17924e-145
1.50427e-140
6.67185e-136
2.87637e-131
9.64692e-127
1.697e-122
1.44474e-118
4.03346e-115
4.8905e-112
8.45834e-110
5.43863e-109
5.42965e-109
7.63403e-110
1.94014e-114
4.06063e-117
8.85302e-122
1.29421e-131
3.82347e-137
2.10371e-142
2.71046e-147
7.03841e-150
5.60956e-153
1.16024e-155
1.90512e-160
2.42201e-165
2.07695e-170
8.72452e-176
9.06764e-161
1.76483e-155
5.96294e-153
2.5941e-149
1.34121e-144
5.85798e-140
2.28974e-135
8.38656e-131
2.98179e-126
8.24361e-122
1.19842e-117
8.62835e-114
2.0303e-110
2.28287e-107
3.44843e-105
2.10984e-104
2.10598e-104
3.08105e-105
1.02418e-109
2.45211e-112
6.5436e-117
1.61692e-126
5.71235e-132
3.82347e-137
5.99678e-142
1.56258e-144
4.01007e-149
6.09988e-153
7.43306e-155
1.16763e-159
1.21815e-164
6.225e-170
3.60205e-155
6.3048e-153
1.04249e-148
5.7271e-144
2.44966e-139
8.8505e-135
2.86081e-130
8.66086e-126
2.54106e-121
5.79329e-117
6.96302e-113
4.25052e-109
8.42811e-106
8.81594e-103
1.15953e-100
6.74171e-100
6.72771e-100
1.02422e-100
4.44425e-105
1.21726e-107
3.9762e-112
1.66385e-121
7.01534e-127
5.71235e-132
1.09078e-136
2.85468e-139
8.859e-144
2.44759e-148
1.1248e-152
4.22848e-154
5.87527e-159
3.65248e-164
8.03124e-153
3.3953e-148
2.27183e-143
1.03366e-138
3.66292e-134
1.09626e-129
2.93403e-125
7.34981e-121
1.78074e-116
3.3495e-112
3.40255e-108
1.72802e-104
2.88665e-101
2.81665e-98
3.2171e-96
1.77502e-95
1.77073e-95
2.80538e-96
1.58523e-100
4.96734e-103
1.98633e-107
1.41053e-116
7.08196e-122
7.01534e-127
1.6312e-131
4.29135e-134
1.60852e-138
5.36488e-143
1.51449e-147
3.87115e-152
1.59148e-153
1.76188e-158
6.58096e-148
7.27933e-143
4.03532e-138
1.52357e-133
4.48163e-129
1.11303e-124
2.47029e-120
5.12689e-116
1.02661e-111
1.59397e-107
1.37743e-103
5.80059e-100
8.16151e-97
7.4449e-94
7.36851e-92
3.85234e-91
3.8413e-91
6.3338e-92
4.64783e-96
1.66632e-98
8.15774e-103
9.85381e-112
5.87652e-117
7.08196e-122
2.00556e-126
5.30923e-129
2.40001e-133
9.64642e-138
3.28072e-142
8.69245e-147
1.61758e-151
2.97529e-153
1.38712e-142
1.26665e-137
5.8312e-133
1.83181e-128
4.48395e-124
9.26124e-120
1.70766e-115
2.94068e-111
4.87125e-107
6.24691e-103
4.60765e-99
1.60851e-95
1.90583e-92
1.62781e-89
1.39396e-87
6.8951e-87
6.87118e-87
1.17925e-87
1.12013e-91
4.59499e-94
2.75443e-98
5.67415e-107
4.00811e-112
5.87652e-117
2.02736e-121
5.40708e-124
2.94238e-128
1.42205e-132
5.81208e-137
1.8509e-141
4.02199e-146
4.47256e-151
2.36134e-137
1.78258e-132
6.83786e-128
1.79373e-123
3.66583e-119
6.31423e-115
9.69415e-111
1.38755e-106
1.90349e-102
2.01747e-98
1.27418e-94
3.68641e-91
3.67758e-88
2.9437e-85
2.17927e-83
1.0183e-82
1.01396e-82
1.81148e-83
2.21886e-87
1.0416e-89
7.64615e-94
2.69408e-102
2.24698e-107
4.00811e-112
1.685e-116
4.53415e-119
2.96365e-123
1.71753e-127
8.40825e-132
3.20674e-136
8.3631e-141
1.10825e-145
3.22756e-132
2.01853e-127
6.48378e-123
1.42759e-118
2.4466e-114
3.52675e-110
4.52052e-106
5.3888e-102
6.12944e-98
5.37311e-94
2.91398e-90
6.9854e-87
5.86714e-84
4.40183e-81
2.81703e-79
1.24161e-78
1.23504e-78
2.29711e-79
3.61269e-83
1.9409e-85
1.74508e-89
1.05509e-97
1.03535e-102
2.24698e-107
1.1515e-111
3.13152e-114
2.45201e-118
1.69798e-122
9.91315e-127
4.50453e-131
1.40298e-135
2.24425e-140
3.50918e-127
1.82442e-122
4.94551e-118
9.20849e-114
1.3314e-109
1.6134e-105
1.73217e-101
1.72366e-97
1.62776e-93
1.21608e-89
5.51282e-86
1.09479e-82
7.74249e-80
5.44133e-77
3.01249e-75
1.25067e-74
1.24242e-74
2.40606e-75
4.83449e-79
2.97295e-81
3.27459e-85
3.4097e-93
3.92087e-98
1.03535e-102
6.47036e-107
1.78192e-109
1.66605e-113
1.37237e-117
9.49752e-122
5.10345e-126
1.8836e-130
3.62472e-135
2.98592e-122
1.29841e-117
3.00958e-113
4.79457e-109
5.89843e-105
6.0441e-101
5.45656e-97
4.54421e-93
3.56808e-89
2.3467e-85
8.6292e-82
1.41946e-78
8.4548e-76
5.55878e-73
2.6664e-71
1.04147e-70
1.03288e-70
2.08293e-71
5.31711e-75
3.74326e-77
5.05224e-81
9.09677e-89
1.22032e-93
3.92087e-98
2.98964e-102
8.35713e-105
9.29399e-109
9.05325e-113
7.36373e-117
4.62485e-121
1.9963e-125
4.59328e-130
1.92453e-117
7.08909e-113
1.44085e-108
2.00264e-104
2.12286e-100
1.85374e-96
1.41393e-92
9.88322e-89
6.4621e-85
3.7531e-81
1.11768e-77
1.52275e-74
7.64253e-72
4.69155e-69
1.95427e-67
7.1746e-67
7.10095e-67
1.49126e-67
4.80601e-71
3.87424e-73
6.40937e-77
2.00462e-84
3.12129e-89
1.22032e-93
1.13594e-97
3.23183e-100
4.25498e-104
4.86338e-108
4.59106e-112
3.30501e-116
1.6269e-120
4.41919e-125
8.65159e-113
2.79501e-108
5.28147e-104
6.64309e-100
6.18823e-96
4.65365e-92
3.01611e-88
1.77508e-84
9.68019e-81
4.97586e-77
1.19789e-73
1.35161e-70
5.71979e-68
3.27018e-65
1.18649e-63
4.0917e-63
4.03976e-63
8.83499e-64
3.56986e-67
3.29603e-69
6.68608e-73
3.65099e-80
6.56061e-85
3.12129e-89
3.5495e-93
1.03103e-95
1.59793e-99
2.12057e-103
2.27796e-107
1.81187e-111
9.59138e-116
2.97045e-120
1.89648e-108
6.45469e-104
1.38978e-99
1.7185e-95
1.45461e-91
9.55984e-88
5.30129e-84
2.63603e-80
1.28014e-76
5.47079e-73
1.06231e-69
9.92543e-67
3.5447e-64
1.88193e-61
5.96871e-60
1.93313e-59
1.90307e-59
4.33386e-60
2.17894e-63
2.30493e-65
5.73563e-69
5.4995e-76
1.13314e-80
6.56061e-85
9.12196e-89
2.71484e-91
4.91912e-95
7.46842e-99
8.82821e-103
7.13931e-107
3.31168e-111
9.72106e-116
3.59786e-104
5.99153e-100
2.08e-95
3.33695e-91
2.7378e-87
1.60649e-83
7.68659e-80
3.24098e-76
1.45342e-72
4.99112e-69
7.79478e-66
6.02892e-63
1.81899e-60
8.93875e-58
2.48833e-56
7.57064e-56
7.42814e-56
1.76104e-56
1.09278e-59
1.32489e-61
4.0465e-65
6.85676e-72
1.60814e-76
1.13314e-80
1.92823e-84
5.90349e-87
1.24019e-90
2.1083e-94
2.56998e-98
1.59731e-102
2.59069e-107
1.86364e-111
9.03967e-100
3.04376e-95
2.8565e-91
4.37909e-87
4.07624e-83
2.20739e-79
9.20684e-76
3.30412e-72
1.36469e-68
3.78211e-65
4.73252e-62
3.02834e-59
7.72812e-57
3.50318e-54
8.59758e-53
2.45907e-52
2.40379e-52
5.92982e-53
4.50266e-56
6.25968e-58
2.34808e-61
7.08278e-68
1.87526e-72
1.60814e-76
3.35298e-80
1.06076e-82
2.5575e-86
4.70862e-90
5.05044e-94
2.22676e-98
2.37254e-102
5.55417e-107
5.96706e-95
9.28523e-91
5.29236e-87
3.47601e-83
4.68884e-79
2.47821e-75
9.12548e-72
2.94851e-68
1.06076e-64
2.384e-61
2.37796e-58
1.2575e-55
2.71723e-53
1.14099e-50
2.60846e-49
7.35373e-49
7.18708e-49
1.79502e-49
1.52406e-52
2.43091e-54
1.12082e-57
6.06817e-64
1.79679e-68
1.87526e-72
4.79709e-76
1.57599e-78
4.30638e-82
8.11566e-86
3.43812e-90
4.84482e-94
1.08796e-97
6.99256e-102
1.81544e-90
2.33061e-86
1.46505e-82
6.19225e-79
3.94319e-75
2.41173e-71
7.9417e-68
2.31932e-64
6.83603e-61
1.25275e-57
9.89298e-55
4.32338e-52
8.26777e-50
3.09623e-47
6.67045e-46
1.82487e-45
1.78502e-45
4.60083e-46
4.23711e-49
7.75935e-51
4.40177e-54
4.31769e-60
1.41458e-64
1.79679e-68
5.64824e-72
1.93705e-74
6.27819e-78
1.01927e-81
1.08975e-85
2.58029e-89
4.10475e-93
3.19742e-97
4.54133e-86
4.80869e-82
2.49301e-78
8.70814e-75
4.23268e-71
2.29908e-67
6.27206e-64
1.50901e-60
3.66003e-57
5.50478e-54
3.41114e-51
1.27343e-48
2.10298e-46
6.91515e-44
1.40348e-42
3.72382e-42
3.6458e-42
9.68745e-43
9.67378e-46
2.03573e-47
1.42259e-50
2.55547e-56
9.15076e-61
1.41458e-64
5.47449e-68
1.97039e-70
8.93377e-74
1.64185e-77
2.30138e-81
6.58852e-85
1.27084e-88
1.20019e-92
9.35378e-82
8.17388e-78
3.49686e-74
1.00772e-70
4.0159e-67
1.82077e-63
4.10996e-60
8.1316e-57
1.63203e-53
2.03153e-50
1.00033e-47
3.08768e-45
4.39534e-43
1.27064e-40
2.42871e-39
6.24612e-39
6.12105e-39
1.67512e-39
1.81339e-42
4.38995e-44
3.78465e-47
1.26053e-52
4.86469e-57
9.15076e-61
4.36906e-64
1.86252e-66
1.04953e-69
2.31127e-73
3.98329e-77
1.38223e-80
3.23097e-84
3.69736e-88
1.58914e-77
1.14675e-73
4.0508e-70
9.63671e-67
3.153e-63
1.19609e-59
2.23658e-56
3.63844e-53
6.07888e-50
6.39773e-47
2.44913e-44
6.1527e-42
7.54759e-40
1.92104e-37
3.45639e-36
8.61047e-36
8.44645e-36
2.37804e-36
2.79029e-39
7.78134e-41
8.29145e-44
5.19433e-49
2.12603e-53
4.86469e-57
2.87236e-60
1.50941e-62
1.0151e-65
2.67071e-69
5.66836e-73
2.38271e-76
6.74529e-80
9.34754e-84
2.23157e-73
1.33067e-69
3.88383e-66
7.63264e-63
2.0526e-59
6.53411e-56
1.01356e-52
1.35552e-49
1.9025e-46
1.71636e-43
4.99095e-41
1.00814e-38
1.06504e-36
2.39006e-34
4.04486e-33
9.75326e-33
9.57753e-33
2.77059e-33
3.52324e-36
1.1338e-37
1.49666e-40
1.79344e-45
7.64327e-50
2.12603e-53
1.55657e-56
1.01092e-58
8.08527e-62
2.53297e-65
6.63347e-69
3.37542e-72
1.15648e-75
1.93947e-79
2.59621e-69
1.28013e-65
3.08947e-62
5.01947e-59
1.11045e-55
2.97678e-52
3.83649e-49
4.21658e-46
5.00711e-43
3.93933e-40
8.50789e-38
1.35961e-35
1.23538e-33
2.44756e-31
3.89187e-30
9.07529e-30
8.92175e-30
2.64791e-30
3.64937e-33
1.35817e-34
2.22744e-37
5.20774e-42
2.26307e-46
7.64327e-50
6.95956e-53
5.6039e-55
5.3094e-58
1.973e-61
6.38695e-65
3.93117e-68
1.6289e-71
3.30356e-75
2.50864e-65
1.02356e-61
2.04414e-58
2.74793e-55
4.98848e-52
1.13414e-48
1.21664e-45
1.09816e-42
1.11061e-39
7.8217e-37
1.22102e-34
1.51131e-32
1.17856e-30
2.06376e-28
3.07828e-27
6.93431e-27
6.82517e-27
2.07468e-27
3.09957e-30
1.33785e-31
2.73592e-34
1.27788e-38
5.53045e-43
2.26307e-46
2.57097e-49
2.5777e-51
2.88042e-54
1.2553e-57
5.06409e-61
3.76713e-64
1.88632e-67
4.62319e-71
2.01865e-61
-1.10891e-56
1.12788e-54
1.25561e-51
1.77068e-48
3.62396e-45
3.24221e-42
2.40096e-39
2.08531e-36
1.36206e-33
1.4866e-31
1.38753e-29
9.25503e-28
1.43356e-25
2.0011e-24
4.34921e-24
4.28632e-24
1.33162e-24
2.15771e-27
1.08406e-28
2.77709e-31
2.66623e-35
1.11983e-39
5.53045e-43
7.86571e-46
9.88262e-48
1.29606e-50
6.44534e-54
3.31217e-57
2.97525e-60
-4.98672e-62
5.32508e-67
-2.87803e-56
3.79625e-54
4.72091e-51
4.80109e-48
-6.34665e-45
9.74064e-42
7.28384e-39
4.41897e-36
3.33776e-33
2.1139e-30
1.54834e-28
1.05536e-26
5.98991e-25
8.21081e-23
1.07987e-21
2.25633e-21
2.22802e-21
6.99277e-22
1.23046e-24
7.23028e-26
2.33389e-28
4.76877e-32
1.89194e-36
1.11983e-39
2.0012e-42
3.18475e-44
4.87368e-47
-4.40876e-50
1.79305e-53
8.63103e-57
1.41765e-59
-1.74209e-61
7.61893e-54
1.44817e-50
-2.77718e-46
-1.35998e-43
1.44802e-41
2.20664e-38
1.38475e-35
6.8698e-33
4.6189e-30
2.97742e-27
1.39124e-25
6.68054e-24
3.20718e-22
3.88549e-20
4.63541e-19
9.22183e-19
9.11003e-19
2.9681e-19
5.74519e-22
3.97316e-23
1.62831e-25
7.3916e-29
2.69705e-33
1.89194e-36
4.26632e-39
8.73789e-41
1.50783e-43
1.03342e-46
-1.26001e-48
-2.38477e-51
6.63176e-56
3.99515e-59
3.61999e-50
6.952e-47
6.53894e-44
2.48711e-41
2.63287e-38
4.13123e-35
2.24043e-32
9.07069e-30
5.73103e-27
3.88078e-24
1.08858e-22
3.54778e-21
1.51804e-19
1.49537e-17
4.60591e-17
1.02672e-16
9.26933e-17
3.44324e-17
2.19535e-19
1.80173e-20
9.46794e-23
1.00775e-25
3.34024e-30
2.69705e-33
7.70994e-36
2.1183e-37
3.90019e-40
2.64043e-43
1.00204e-46
4.82448e-49
5.1337e-52
2.67323e-55
1.45583e-46
2.31245e-43
1.80465e-40
9.51821e-38
6.32359e-35
6.43151e-32
3.23329e-29
1.09172e-26
7.08182e-24
4.7742e-21
7.36862e-20
1.57929e-18
3.9693e-17
4.02578e-15
1.2127e-14
2.71865e-14
2.43275e-14
9.51868e-15
6.86608e-17
6.75984e-18
4.61273e-20
1.23386e-22
4.01225e-27
3.34024e-30
6.25058e-32
4.51964e-34
9.81443e-37
9.68456e-40
1.01511e-42
1.92468e-45
2.46628e-48
1.55269e-51
5.22466e-43
6.84398e-40
4.41731e-37
1.93371e-34
1.13366e-31
9.74025e-29
4.11242e-26
1.22102e-23
1.6823e-20
5.62446e-18
2.25233e-17
4.32062e-16
6.47252e-15
1.08896e-12
2.79827e-12
5.87497e-12
5.22698e-12
2.13448e-12
1.75881e-14
2.10699e-15
1.89585e-17
1.3986e-19
5.01543e-24
4.01225e-27
1.01731e-28
9.09365e-31
2.49848e-33
2.91898e-36
3.08744e-39
7.05293e-42
1.09276e-44
8.34216e-48
1.69508e-39
1.8214e-36
9.68765e-34
3.51573e-31
1.93503e-28
1.3859e-25
4.292e-23
1.22939e-20
4.63335e-17
6.3966e-15
9.91798e-15
1.32498e-13
1.43795e-12
2.51406e-10
5.21739e-10
1.01453e-09
8.95464e-10
3.84592e-10
3.69778e-12
5.4916e-13
6.65465e-15
1.53927e-16
7.28327e-21
5.01543e-24
1.97818e-25
2.2335e-27
7.26225e-30
1.0168e-32
9.46213e-36
2.60734e-38
4.90221e-41
4.56229e-44
5.26378e-36
4.59738e-33
2.00211e-30
6.0097e-28
3.07015e-25
1.77436e-22
4.63398e-20
5.97918e-18
6.55825e-14
6.78388e-12
2.38918e-12
4.49054e-11
3.61168e-10
4.77144e-08
7.80498e-08
1.38603e-07
1.22039e-07
5.52923e-08
6.41992e-10
1.20869e-10
2.03076e-12
1.78784e-13
1.49977e-17
7.28327e-21
4.65793e-23
1.91437e-24
2.8473e-26
5.02432e-29
3.30869e-32
1.1023e-34
2.53124e-37
2.89821e-40
1.52515e-32
1.06705e-29
3.76405e-27
9.31331e-25
3.71428e-22
7.72078e-20
4.70387e-18
6.59834e-16
4.85283e-11
4.78763e-09
8.68338e-10
1.66089e-08
6.98691e-08
6.93939e-06
9.29212e-06
1.48144e-05
1.48074e-05
8.43744e-06
2.74971e-06
2.27464e-08
5.54058e-10
2.62584e-10
1.78784e-13
1.49977e-17
1.1257e-19
8.01039e-22
5.32909e-24
2.37381e-24
1.59664e-28
6.45316e-31
1.82943e-33
2.61494e-36
3.45563e-29
1.89591e-26
5.32808e-24
1.08312e-21
1.78351e-19
2.54437e-17
3.25186e-15
3.96712e-13
7.82231e-09
1.89948e-06
3.7401e-07
5.48384e-06
5.37747e-06
0.000969995
0.0756704
0.0992492
0.0992491
0.075668
0.000971074
4.51381e-06
2.01456e-06
2.35873e-07
1.01084e-06
3.67238e-09
7.12682e-15
5.84154e-17
4.56024e-19
3.20144e-21
1.94495e-23
9.56828e-26
3.405e-28
6.20669e-31
4.2966e-26
1.80115e-23
3.94706e-21
6.60739e-19
9.16519e-17
1.12785e-14
1.25017e-12
1.3815e-10
1.44825e-08
0.000864909
0.0338497
0.0155662
0.0885353
0.0671649
0.998747
1
1
0.998747
0.0671649
0.0885332
0.0155662
0.0338493
0.000866176
9.22063e-09
8.79249e-11
7.95468e-13
7.17595e-15
5.83135e-17
4.20423e-19
2.51177e-21
1.14639e-23
2.73512e-26
3.51153e-22
2.01838e-12
1.85965e-17
2.63389e-15
3.23401e-13
0.000388259
0.0123619
4.49942e-07
0.0465214
0.0103693
0.975349
1
1
1
1
1
1
1
1
1
1
0.975349
0.0103696
0.0465211
3.83658e-07
0.0123619
0.000388711
2.75748e-13
2.24578e-15
1.58563e-17
2.02078e-12
2.99415e-22
4.34452e-09
2.38928e-07
6.78889e-11
9.3149e-09
0.00502731
9.62145e-05
0.956977
0.98127
1
1
1
1
1
1
1
1
1
1
1
1
1
1
1
1
0.98127
0.956977
9.67499e-05
0.00502726
9.3257e-09
6.79675e-11
2.38938e-07
4.34474e-09
3.8757e-10
3.60425e-10
0.928476
0.941871
0.99847
0.977723
0.999296
1
1
1
1
1
1
1
1
1
1
1
1
1
1
1
1
1
1
0.999296
0.977723
0.99847
0.941872
0.928476
3.59155e-10
3.86294e-10
0.895836
0.892916
0.996424
0.999998
1
1
1
1
1
1
1
1
1
1
1
1
1
1
1
1
1
1
1
1
1
1
1
1
0.999999
0.996424
0.892919
0.895836
0.999989
0.99999
0.999987
1
1
1
1
1
1
1
1
1
1
1
1
1
1
1
1
1
1
1
1
1
1
1
1
1
1
0.999991
0.999991
0.999989
1
1
1
1
1
1
1
1
1
1
1
1
1
1
1
1
1
1
1
1
1
1
1
1
1
1
1
1
1
1
1
1
1
1
1
1
1
1
1
1
1
1
1
1
1
1
1
1
1
1
1
1
1
1
1
1
1
1
1
1
1
1
1
1
1
1
1
1
1
1
1
1
1
1
1
1
1
1
1
1
1
1
1
1
1
1
1
1
1
1
1
1
1
1
1
1
1
1
1
1
1
1
1
1
1
1
1
1
1
1
1
1
1
1
1
1
1
1
1
1
1
1
1
1
1
1
1
1
1
1
1
1
1
1
1
1
1
1
1
1
1
1
1
1
1
1
1
1
1
1
1
1
1
1
1
1
1
1
1
1
1
1
1
1
1
1
1
1
1
1
1
1
1
1
1
1
1
1
1
1
1
1
1
1
1
1
1
1
1
1
1
1
1
1
1
1
1
1
1
1
1
1
1
1
1
1
1
1
1
1
1
1
1
1
1
1
1
1
1
1
1
1
1
1
1
1
1
1
1
1
1
1
1
1
1
1
1
1
1
1
1
1
1
1
1
1
1
1
1
1
1
1
1
1
1
1
1
1
1
1
1
1
1
1
1
1
1
1
1
1
1
1
1
1
1
1
1
1
1
1
1
1
1
1
1
1
1
1
1
1
1
1
1
1
1
1
1
1
1
1
1
1
1
1
1
1
1
1
1
1
1
1
1
1
1
1
1
1
1
1
1
1
1
1
1
1
1
1
1
1
1
1
1
1
1
1
1
1
1
1
1
1
1
1
1
1
1
1
1
1
1
1
1
1
1
1
1
1
1
1
1
1
1
1
1
1
1
1
1
1
1
1
1
1
1
1
1
1
1
1
1
1
1
1
1
1
1
1
1
1
1
1
1
1
1
1
1
1
1
1
1
1
1
1
1
1
1
1
1
1
1
1
1
1
1
1
1
1
1
1
1
1
1
1
1
1
1
1
1
1
1
1
1
1
1
1
1
1
1
1
1
1
1
1
1
1
1
1
1
1
1
1
1
1
1
1
1
1
1
1
1
1
1
1
1
1
1
1
1
1
1
1
1
1
1
1
1
1
1
1
1
1
1
1
1
1
1
1
1
1
1
1
1
1
1
1
1
1
1
1
1
1
1
1
1
1
1
1
1
1
1
1
1
1
1
1
1
1
1
1
1
1
1
1
1
1
1
1
1
1
1
1
1
1
1
1
1
1
1
1
1
1
1
1
1
1
1
1
1
1
1
1
1
1
1
1
1
1
1
1
1
1
1
1
1
1
1
1
1
1
1
1
1
1
1
1
1
1
1
1
1
1
1
1
1
1
1
1
1
1
1
1
1
1
1
1
1
1
1
1
1
1
1
1
1
1
1
1
1
1
1
1
1
1
1
1
1
1
1
1
1
1
1
1
1
1
1
1
1
1
1
1
1
1
1
1
1
1
1
1
1
1
1
1
1
1
1
1
1
1
1
1
1
1
1
1
1
1
1
1
1
1
1
1
1
1
1
1
1
1
1
1
1
1
1
1
1
1
1
1
1
1
1
1
1
1
1
1
1
1
1
1
1
1
1
1
1
1
1
1
1
1
1
1
1
1
1
1
1
1
1
1
1
1
1
1
1
1
1
1
1
1
1
1
1
1
1
1
1
1
1
1
1
1
1
1
1
1
1
1
1
1
1
1
1
1
1
1
1
1
1
1
1
1
1
1
1
1
1
1
1
1
1
1
1
1
1
1
1
1
1
1
1
1
1
1
1
1
1
1
1
1
1
1
1
1
1
1
1
1
1
1
1
1
1
1
1
1
1
1
1
1
1
1
1
1
1
1
1
1
1
1
1
1
1
1
1
1
1
1
1
1
1
1
1
1
1
1
1
1
1
1
1
1
1
1
1
1
1
1
1
1
1
1
1
1
1
1
1
1
1
1
1
1
1
1
1
1
1
1
1
1
1
1
1
1
1
1
1
1
1
1
1
1
1
1
1
1
1
1
1
1
1
1
1
1
1
1
1
1
1
1
1
1
1
1
1
1
1
1
1
1
1
1
1
1
1
1
1
1
1
1
1
1
1
1
1
1
1
1
1
1
1
1
1
1
1
1
1
1
1
1
1
1
1
1
1
1
1
1
1
1
1
1
1
1
1
1
1
1
1
1
1
1
1
1
1
1
1
1
1
1
1
1
1
1
1
1
1
1
1
1
1
1
1
1
1
1
1
1
1
1
1
1
1
1
1
1
1
1
1
1
1
1
1
1
1
1
1
1
1
1
1
1
1
1
1
1
1
1
1
1
1
1
1
1
1
1
1
1
1
1
1
1
1
1
1
1
1
1
1
1
1
1
1
1
1
1
1
1
1
1
1
1
1
1
1
1
1
1
1
1
1
1
1
1
1
1
1
1
1
1
1
1
1
1
1
1
1
1
1
1
1
1
1
1
1
1
1
1
1
1
1
1
1
1
1
1
1
1
1
1
1
1
1
1
1
1
1
1
1
1
1
1
1
1
1
1
1
1
1
1
1
1
1
1
1
1
1
1
1
1
1
1
1
1
1
1
1
1
1
1
1
1
1
1
1
1
1
1
1
1
1
1
1
1
1
1
1
1
1
1
1
1
1
1
1
1
1
1
1
1
1
1
1
1
1
1
1
1
1
1
1
1
1
1
1
1
1
1
1
1
1
1
1
1
1
1
1
1
1
1
1
1
1
1
1
1
1
1
1
1
1
1
1
1
1
1
1
1
1
1
1
1
1
1
1
1
1
1
1
1
1
1
1
1
1
1
1
1
1
1
1
1
1
1
1
1
1
1
1
1
1
1
1
1
1
1
1
1
1
1
1
1
1
1
1
1
1
1
1
1
1
1
1
1
1
1
1
1
1
1
1
1
1
1
1
1
1
1
1
1
1
1
1
1
1
1
1
1
1
1
1
1
1
1
1
1
1
1
1
1
1
1
1
1
1
1
1
1
1
1
1
1
1
1
1
1
1
1
1
1
1
1
1
1
1
1
1
1
1
1
1
1
1
1
1
1
1
1
1
1
1
1
1
1
1
1
1
1
1
1
1
1
1
1
1
1
1
1
1
1
1
1
1
1
1
1
1
1
1
1
1
1
1
1
1
1
1
1
1
1
1
1
1
1
1
1
1
1
1
1
1
1
1
1
1
1
1
1
1
1
1
1
1
1
1
1
1
1
1
1
1
1
1
1
1
1
1
1
1
1
1
1
1
1
1
1
1
1
1
1
1
1
1
1
1
1
1
1
1
1
1
1
1
1
1
1
1
1
1
1
1
1
1
1
1
1
1
1
1
1
1
1
1
1
1
1
1
1
1
1
1
1
1
1
1
1
1
1
1
1
1
1
1
1
1
1
1
1
1
1
1
1
1
1
1
1
1
1
1
1
1
1
1
1
1
1
1
1
1
1
1
1
1
1
1
1
1
1
1
1
1
1
1
1
1
1
1
1
1
1
1
1
1
1
1
1
1
1
1
1
1
1
1
1
1
1
1
1
1
1
1
1
1
1
1
1
1
1
1
1
1
1
1
1
1
1
1
1
1
1
1
1
1
1
1
1
1
1
1
1
1
1
1
1
1
1
1
1
1
1
1
1
1
1
1
1
1
1
1
1
1
1
1
1
1
1
1
1
1
1
1
1
1
1
1
1
1
1
1
1
1
1
1
1
1
1
1
1
1
1
1
1
1
1
1
1
1
1
1
1
1
1
1
1
1
1
1
1
1
1
1
1
1
1
1
1
1
1
1
1
1
1
1
1
1
1
1
1
1
1
1
1
1
1
1
1
1
1
1
1
1
1
1
1
1
1
1
1
1
1
1
1
1
1
1
1
1
1
1
1
1
1
1
1
1
1
1
1
1
1
1
1
1
1
1
1
1
1
1
1
1
1
1
1
1
1
1
1
1
1
1
1
1
1
1
1
1
1
1
1
1
1
1
1
1
1
1
1
1
1
1
1
1
1
1
1
1
1
1
1
1
1
1
1
1
1
1
1
1
1
1
1
1
1
1
1
1
1
1
1
1
1
1
1
1
1
1
1
1
1
1
1
1
1
1
1
1
1
1
1
1
1
1
1
1
1
1
1
1
1
1
1
1
1
1
1
1
1
1
1
1
1
1
1
1
1
1
1
1
1
1
1
1
1
1
1
1
1
1
1
1
1
1
1
1
1
1
1
1
1
1
1
1
1
1
1
1
1
1
1
1
1
1
1
1
1
1
1
1
1
1
1
1
1
1
1
1
1
1
1
1
1
1
1
1
1
1
1
1
1
1
1
1
1
1
1
1
1
1
1
1
1
1
1
1
1
1
1
1
1
1
1
1
1
1
1
1
1
)
;

boundaryField
{
    top
    {