/*--------------------------------*- C++ -*----------------------------------*\
  =========                 |
  \\      /  F ield         | OpenFOAM: The Open Source CFD Toolbox
   \\    /   O peration     | Website:  https://openfoam.org
    \\  /    A nd           | Version:  9
     \\/     M anipulation  |
\*---------------------------------------------------------------------------*/
FoamFile
{
    format      ascii;
    class       volScalarField;
    location    "0.05";
    object      p_rgh;
}
// * * * * * * * * * * * * * * * * * * * * * * * * * * * * * * * * * * * * * //

dimensions      [1 -1 -2 0 0 0 0];

internalField   nonuniform List<scalar> 
4096
(
-3.29766
-3.29766
-3.29766
-3.29766
-3.29766
-3.29766
-3.29766
-3.29766
-3.29766
-3.29766
-3.29766
-3.29766
-3.29766
-3.29766
-3.29766
-3.29766
-3.29766
-3.29766
-3.29766
-3.29766
-3.29766
-3.29766
-3.29766
-3.29766
-3.29766
-3.29766
-3.29766
-3.29766
-3.29766
-3.29766
-3.29766
-3.29766
-3.29766
-3.29766
-3.29766
-3.29766
-3.29766
-3.29766
-3.29766
-3.29766
-3.29766
-3.29766
-3.29766
-3.29766
-3.29766
-3.29766
-3.29766
-3.29766
-3.29766
-3.29766
-3.29766
-3.29766
-3.29766
-3.29766
-3.29766
-3.29766
-3.29766
-3.29766
-3.29766
-3.29766
-3.29766
-3.29766
-3.29766
-3.29766
-3.29766
-3.29766
-3.29766
-3.29766
-3.29766
-3.29766
-3.29766
-3.29766
-3.29766
-3.29766
-3.29766
-3.29766
-3.29766
-3.29766
-3.29766
-3.29766
-3.29766
-3.29766
-3.29766
-3.29766
-3.29766
-3.29766
-3.29766
-3.29766
-3.29766
-3.29766
-3.29766
-3.29766
-3.29766
-3.29766
-3.29766
-3.29766
-3.29766
-3.29766
-3.29766
-3.29766
-3.29766
-3.29766
-3.29766
-3.29766
-3.29766
-3.29766
-3.29766
-3.29766
-3.29766
-3.29766
-3.29766
-3.29766
-3.29766
-3.29766
-3.29766
-3.29766
-3.29766
-3.29766
-3.29766
-3.29766
-3.29766
-3.29766
-3.29766
-3.29766
-3.29766
-3.29766
-3.29766
-3.29766
-3.29766
-3.29766
-3.29766
-3.29766
-3.29766
-3.29766
-3.29766
-3.29766
-3.29766
-3.29766
-3.29766
-3.29766
-3.29766
-3.29766
-3.29766
-3.29766
-3.29766
-3.29766
-3.29766
-3.29766
-3.29766
-3.29766
-3.29766
-3.29766
-3.29766
-3.29766
-3.29766
-3.29766
-3.29766
-3.29766
-3.29766
-3.29766
-3.29766
-3.29766
-3.29766
-3.29766
-3.29766
-3.29766
-3.29766
-3.29766
-3.29766
-3.29766
-3.29766
-3.29766
-3.29766
-3.29766
-3.29766
-3.29766
-3.29766
-3.29766
-3.29766
-3.29766
-3.29766
-3.29766
-3.29766
-3.29766
-3.29766
-3.29766
-3.29766
-3.29766
-3.29766
-3.29766
-3.29766
-3.29766
-3.29766
-3.29766
-3.29766
-3.29766
-3.29766
-3.29766
-3.29766
-3.29766
-3.29766
-3.29766
-3.29766
-3.29766
-3.29766
-3.29766
-3.29766
-3.29766
-3.29766
-3.29766
-3.29766
-3.29766
-3.29766
-3.29766
-3.29766
-3.29766
-3.29766
-3.29766
-3.29766
-3.29766
-3.29766
-3.29766
-3.29766
-3.29766
-3.29766
-3.29766
-3.29766
-3.29766
-3.29766
-3.29766
-3.29766
-3.29766
-3.29766
-3.29766
-3.29766
-3.29766
-3.29766
-3.29766
-3.29766
-3.29766
-3.29766
-3.29766
-3.29766
-3.29766
-3.29766
-3.29766
-3.29766
-3.29766
-3.29766
-3.29766
-3.29766
-3.29766
-3.29766
-3.29766
-3.29766
-3.29766
-3.29766
-3.29766
-3.29766
-3.29766
-3.29766
-3.29766
-3.29766
-3.29766
-3.29766
-3.29766
-3.29766
-3.29766
-3.29766
-3.29766
-3.29766
-3.29766
-3.29766
-3.29766
-3.29766
-3.29766
-3.29766
-3.29766
-3.29766
-3.29766
-3.29766
-3.29766
-3.29766
-3.29766
-3.29766
-3.29766
-3.29766
-3.29766
-3.29766
-3.29766
-3.29766
-3.29766
-3.29766
-3.29766
-3.29766
-3.29766
-3.29766
-3.29766
-3.29766
-3.29766
-3.29766
-3.29766
-3.29766
-3.29766
-3.29766
-3.29766
-3.29766
-3.29766
-3.29766
-3.29766
-3.29766
-3.29766
-3.29766
-3.29766
-3.29766
-3.29766
-3.29766
-3.29766
-3.29766
-3.29766
-3.29766
-3.29766
-3.29766
-3.29766
-3.29766
-3.29766
-3.29766
-3.29766
-3.29766
-3.29766
-3.29766
-3.29766
-3.29766
-3.29766
-3.29766
-3.29766
-3.29766
-3.29766
-3.29766
-3.29766
-3.29766
-3.29766
-3.29766
-3.29766
-3.29766
-3.29766
-3.29766
-3.29766
-3.29766
-3.29766
-3.29766
-3.29766
-3.29766
-3.29766
-3.29766
-3.29766
-3.29766
-3.29766
-3.29766
-3.29766
-3.29766
-3.29766
-3.29766
-3.29766
-3.29766
-3.29766
-3.29766
-3.29766
-3.29766
-3.29766
-3.29766
-3.29766
-3.29766
-3.29766
-3.29766
-3.29766
-3.29766
-3.29766
-3.29766
-3.29766
-3.29766
-3.29766
-3.29766
-3.29766
-3.29767
-3.29767
-3.29766
-3.29766
-3.29766
-3.29766
-3.29766
-3.29766
-3.29766
-3.29766
-3.29766
-3.29766
-3.29766
-3.29766
-3.29766
-3.29766
-3.29766
-3.29766
-3.29766
-3.29766
-3.29766
-3.29766
-3.29766
-3.29766
-3.29766
-3.29766
-3.29766
-3.29766
-3.29766
-3.29766
-3.29767
-3.29767
-3.29767
-3.29767
-3.29767
-3.29766
-3.29766
-3.29766
-3.29766
-3.29766
-3.29766
-3.29766
-3.29766
-3.29766
-3.29766
-3.29766
-3.29766
-3.29766
-3.29766
-3.29766
-3.29766
-3.29766
-3.29766
-3.29766
-3.29766
-3.29766
-3.29766
-3.29766
-3.29766
-3.29766
-3.29767
-3.29767
-3.29767
-3.29767
-3.29767
-3.29767
-3.29767
-3.29767
-3.29766
-3.29766
-3.29766
-3.29766
-3.29766
-3.29766
-3.29766
-3.29766
-3.29766
-3.29766
-3.29766
-3.29766
-3.29766
-3.29766
-3.29766
-3.29766
-3.29766
-3.29766
-3.29766
-3.29766
-3.29766
-3.29766
-3.29766
-3.29766
-3.29767
-3.29767
-3.29767
-3.29767
-3.29767
-3.29767
-3.29767
-3.29767
-3.29767
-3.29766
-3.29766
-3.29766
-3.29766
-3.29766
-3.29766
-3.29766
-3.29766
-3.29766
-3.29766
-3.29765
-3.29765
-3.29766
-3.29766
-3.29766
-3.29766
-3.29766
-3.29766
-3.29766
-3.29766
-3.29766
-3.29766
-3.29767
-3.29767
-3.29767
-3.29767
-3.29767
-3.29767
-3.29767
-3.29767
-3.29767
-3.29767
-3.29767
-3.29766
-3.29766
-3.29766
-3.29766
-3.29766
-3.29766
-3.29766
-3.29765
-3.29765
-3.29765
-3.29765
-3.29765
-3.29765
-3.29766
-3.29766
-3.29766
-3.29766
-3.29766
-3.29766
-3.29766
-3.29767
-3.29767
-3.29767
-3.29767
-3.29767
-3.29767
-3.29767
-3.29767
-3.29767
-3.29767
-3.29767
-3.29767
-3.29766
-3.29766
-3.29766
-3.29766
-3.29766
-3.29766
-3.29765
-3.29765
-3.29765
-3.29765
-3.29765
-3.29765
-3.29765
-3.29765
-3.29766
-3.29766
-3.29766
-3.29766
-3.29766
-3.29766
-3.29767
-3.29767
-3.29767
-3.29767
-3.29767
-3.29767
-3.29767
-3.29767
-3.29767
-3.29767
-3.29767
-3.29767
-3.29766
-3.29766
-3.29766
-3.29766
-3.29766
-3.29765
-3.29765
-3.29765
-3.29765
-3.29765
-3.29765
-3.29765
-3.29765
-3.29765
-3.29765
-3.29766
-3.29766
-3.29766
-3.29766
-3.29766
-3.29767
-3.29767
-3.29767
-3.29767
-3.29767
-3.29767
-3.29768
-3.29768
-3.29767
-3.29767
-3.29767
-3.29767
-3.29767
-3.29766
-3.29766
-3.29766
-3.29765
-3.29765
-3.29765
-3.29765
-3.29765
-3.29765
-3.29765
-3.29765
-3.29765
-3.29765
-3.29765
-3.29765
-3.29766
-3.29766
-3.29766
-3.29767
-3.29767
-3.29767
-3.29767
-3.29767
-3.29768
-3.29768
-3.29768
-3.29768
-3.29768
-3.29768
-3.29767
-3.29767
-3.29767
-3.29766
-3.29766
-3.29766
-3.29765
-3.29765
-3.29765
-3.29765
-3.29764
-3.29764
-3.29764
-3.29764
-3.29765
-3.29765
-3.29765
-3.29765
-3.29766
-3.29766
-3.29766
-3.29767
-3.29767
-3.29767
-3.29767
-3.29768
-3.29768
-3.29768
-3.29768
-3.29768
-3.29768
-3.29768
-3.29768
-3.29767
-3.29767
-3.29766
-3.29766
-3.29766
-3.29765
-3.29765
-3.29764
-3.29764
-3.29764
-3.29764
-3.29764
-3.29764
-3.29764
-3.29764
-3.29765
-3.29765
-3.29766
-3.29766
-3.29766
-3.29767
-3.29767
-3.29768
-3.29768
-3.29768
-3.29768
-3.29768
-3.29769
-3.29769
-3.29768
-3.29768
-3.29768
-3.29767
-3.29767
-3.29766
-3.29766
-3.29765
-3.29765
-3.29765
-3.29764
-3.29764
-3.29764
-3.29764
-3.29764
-3.29764
-3.29764
-3.29764
-3.29765
-3.29765
-3.29765
-3.29766
-3.29766
-3.29767
-3.29767
-3.29768
-3.29768
-3.29768
-3.29769
-3.29769
-3.29769
-3.29769
-3.29769
-3.29769
-3.29768
-3.29768
-3.29767
-3.29766
-3.29766
-3.29765
-3.29765
-3.29764
-3.29764
-3.29763
-3.29763
-3.29763
-3.29763
-3.29763
-3.29763
-3.29764
-3.29764
-3.29765
-3.29765
-3.29766
-3.29766
-3.29767
-3.29768
-3.29768
-3.29769
-3.29769
-3.29769
-3.29769
-3.2977
-3.2977
-3.2977
-3.29769
-3.29769
-3.29768
-3.29767
-3.29767
-3.29766
-3.29765
-3.29764
-3.29764
-3.29763
-3.29763
-3.29762
-3.29762
-3.29762
-3.29762
-3.29763
-3.29763
-3.29764
-3.29764
-3.29765
-3.29766
-3.29767
-3.29767
-3.29768
-3.29769
-3.29769
-3.2977
-3.2977
-3.2977
-3.29771
-3.29771
-3.2977
-3.2977
-3.29769
-3.29768
-3.29768
-3.29767
-3.29766
-3.29765
-3.29764
-3.29763
-3.29763
-3.29762
-3.29762
-3.29761
-3.29761
-3.29762
-3.29762
-3.29763
-3.29763
-3.29764
-3.29765
-3.29766
-3.29767
-3.29768
-3.29768
-3.29769
-3.2977
-3.2977
-3.29771
-3.29771
-3.29772
-3.29772
-3.29771
-3.29771
-3.2977
-3.29769
-3.29768
-3.29767
-3.29766
-3.29765
-3.29763
-3.29763
-3.29762
-3.29761
-3.29761
-3.2976
-3.2976
-3.29761
-3.29761
-3.29762
-3.29763
-3.29763
-3.29765
-3.29766
-3.29767
-3.29768
-3.29769
-3.2977
-3.29771
-3.29771
-3.29772
-3.29772
-3.29773
-3.29773
-3.29772
-3.29772
-3.29771
-3.29769
-3.29768
-3.29767
-3.29766
-3.29764
-3.29763
-3.29762
-3.29761
-3.2976
-3.2976
-3.29759
-3.29759
-3.2976
-3.2976
-3.29761
-3.29762
-3.29763
-3.29764
-3.29766
-3.29767
-3.29768
-3.29769
-3.29771
-3.29772
-3.29772
-3.29773
-3.29773
-3.29774
-3.29774
-3.29774
-3.29773
-3.29772
-3.2977
-3.29769
-3.29767
-3.29765
-3.29764
-3.29762
-3.29761
-3.2976
-3.29759
-3.29758
-3.29758
-3.29758
-3.29758
-3.29759
-3.2976
-3.29761
-3.29762
-3.29764
-3.29765
-3.29767
-3.29769
-3.2977
-3.29772
-3.29773
-3.29774
-3.29774
-3.29774
-3.29776
-3.29776
-3.29775
-3.29774
-3.29773
-3.29771
-3.29769
-3.29767
-3.29765
-3.29763
-3.29761
-3.2976
-3.29758
-3.29757
-3.29756
-3.29756
-3.29756
-3.29756
-3.29757
-3.29758
-3.2976
-3.29761
-3.29763
-3.29765
-3.29767
-3.29769
-3.29771
-3.29773
-3.29774
-3.29775
-3.29776
-3.29776
-3.29778
-3.29778
-3.29777
-3.29776
-3.29774
-3.29772
-3.2977
-3.29767
-3.29765
-3.29763
-3.2976
-3.29758
-3.29757
-3.29755
-3.29754
-3.29754
-3.29754
-3.29754
-3.29755
-3.29757
-3.29758
-3.2976
-3.29763
-3.29765
-3.29767
-3.2977
-3.29772
-3.29774
-3.29776
-3.29777
-3.29778
-3.29778
-3.29781
-3.29781
-3.2978
-3.29778
-3.29776
-3.29773
-3.29771
-3.29768
-3.29765
-3.29762
-3.29759
-3.29757
-3.29755
-3.29753
-3.29752
-3.29751
-3.29751
-3.29752
-3.29753
-3.29755
-3.29757
-3.29759
-3.29762
-3.29765
-3.29768
-3.29771
-3.29773
-3.29776
-3.29778
-3.29779
-3.29781
-3.29781
-3.29784
-3.29784
-3.29782
-3.2978
-3.29778
-3.29775
-3.29772
-3.29768
-3.29765
-3.29761
-3.29758
-3.29755
-3.29752
-3.2975
-3.29749
-3.29748
-3.29748
-3.29749
-3.2975
-3.29752
-3.29755
-3.29758
-3.29761
-3.29765
-3.29768
-3.29772
-3.29775
-3.29778
-3.2978
-3.29782
-3.29784
-3.29784
-3.29788
-3.29787
-3.29786
-3.29784
-3.29781
-3.29777
-3.29773
-3.29769
-3.29764
-3.2976
-3.29756
-3.29752
-3.29749
-3.29746
-3.29745
-3.29744
-3.29744
-3.29745
-3.29746
-3.29749
-3.29752
-3.29756
-3.2976
-3.29764
-3.29769
-3.29773
-3.29777
-3.29781
-3.29784
-3.29786
-3.29787
-3.29788
-3.29793
-3.29792
-3.2979
-3.29787
-3.29784
-3.29779
-3.29774
-3.29769
-3.29764
-3.29759
-3.29754
-3.29749
-3.29745
-3.29742
-3.2974
-3.29739
-3.29739
-3.2974
-3.29742
-3.29745
-3.29749
-3.29754
-3.29759
-3.29764
-3.29769
-3.29774
-3.29779
-3.29784
-3.29787
-3.2979
-3.29792
-3.29793
-3.29799
-3.29798
-3.29795
-3.29792
-3.29787
-3.29782
-3.29776
-3.2977
-3.29763
-3.29757
-3.29751
-3.29745
-3.29741
-3.29737
-3.29735
-3.29733
-3.29733
-3.29735
-3.29737
-3.29741
-3.29745
-3.29751
-3.29757
-3.29763
-3.2977
-3.29776
-3.29782
-3.29787
-3.29792
-3.29795
-3.29798
-3.29799
-3.29806
-3.29805
-3.29802
-3.29798
-3.29792
-3.29786
-3.29778
-3.29771
-3.29763
-3.29755
-3.29748
-3.29741
-3.29735
-3.29731
-3.29728
-3.29726
-3.29726
-3.29728
-3.29731
-3.29735
-3.29741
-3.29748
-3.29755
-3.29763
-3.29771
-3.29778
-3.29786
-3.29792
-3.29798
-3.29802
-3.29805
-3.29806
-3.29815
-3.29813
-3.2981
-3.29804
-3.29798
-3.2979
-3.29781
-3.29772
-3.29762
-3.29753
-3.29744
-3.29735
-3.29729
-3.29723
-3.29719
-3.29717
-3.29717
-3.29719
-3.29723
-3.29729
-3.29735
-3.29744
-3.29753
-3.29762
-3.29772
-3.29781
-3.2979
-3.29798
-3.29804
-3.2981
-3.29813
-3.29815
-3.29825
-3.29823
-3.29819
-3.29813
-3.29805
-3.29795
-3.29784
-3.29773
-3.29761
-3.2975
-3.29739
-3.29729
-3.2972
-3.29714
-3.29709
-3.29707
-3.29707
-3.29709
-3.29714
-3.2972
-3.29729
-3.29739
-3.2975
-3.29761
-3.29773
-3.29784
-3.29795
-3.29805
-3.29813
-3.29819
-3.29823
-3.29825
-3.29838
-3.29835
-3.2983
-3.29823
-3.29813
-3.29801
-3.29788
-3.29774
-3.2976
-3.29746
-3.29733
-3.29721
-3.29711
-3.29703
-3.29697
-3.29694
-3.29694
-3.29697
-3.29703
-3.29711
-3.29721
-3.29733
-3.29746
-3.2976
-3.29774
-3.29788
-3.29801
-3.29813
-3.29823
-3.2983
-3.29835
-3.29838
-3.29853
-3.2985
-3.29844
-3.29835
-3.29823
-3.29809
-3.29793
-3.29776
-3.29759
-3.29742
-3.29726
-3.29711
-3.29699
-3.29689
-3.29682
-3.29679
-3.29679
-3.29682
-3.29689
-3.29699
-3.29711
-3.29726
-3.29742
-3.29759
-3.29776
-3.29793
-3.29809
-3.29823
-3.29835
-3.29844
-3.2985
-3.29853
-3.29872
-3.29869
-3.29861
-3.2985
-3.29836
-3.29818
-3.29799
-3.29779
-3.29758
-3.29737
-3.29717
-3.29699
-3.29684
-3.29672
-3.29664
-3.2966
-3.2966
-3.29664
-3.29672
-3.29684
-3.29699
-3.29717
-3.29737
-3.29758
-3.29779
-3.29799
-3.29818
-3.29836
-3.2985
-3.29861
-3.29869
-3.29872
-3.29895
-3.29891
-3.29882
-3.29868
-3.29851
-3.2983
-3.29806
-3.29781
-3.29756
-3.2973
-3.29706
-3.29685
-3.29666
-3.29652
-3.29642
-3.29636
-3.29636
-3.29642
-3.29652
-3.29666
-3.29685
-3.29706
-3.2973
-3.29756
-3.29781
-3.29806
-3.2983
-3.29851
-3.29868
-3.29882
-3.29891
-3.29895
-3.29923
-3.29917
-3.29907
-3.2989
-3.29869
-3.29844
-3.29815
-3.29785
-3.29754
-3.29723
-3.29694
-3.29667
-3.29645
-3.29627
-3.29615
-3.29608
-3.29608
-3.29615
-3.29627
-3.29645
-3.29667
-3.29694
-3.29723
-3.29754
-3.29785
-3.29815
-3.29844
-3.29869
-3.2989
-3.29907
-3.29917
-3.29923
-3.29957
-3.2995
-3.29937
-3.29917
-3.29891
-3.29861
-3.29826
-3.29789
-3.29751
-3.29714
-3.29678
-3.29646
-3.29618
-3.29597
-3.29582
-3.29574
-3.29574
-3.29582
-3.29597
-3.29618
-3.29646
-3.29678
-3.29714
-3.29751
-3.29789
-3.29826
-3.29861
-3.29891
-3.29917
-3.29937
-3.2995
-3.29957
-3.29998
-3.2999
-3.29974
-3.2995
-3.29918
-3.29881
-3.29839
-3.29794
-3.29748
-3.29703
-3.29659
-3.2962
-3.29586
-3.2956
-3.29541
-3.29532
-3.29532
-3.29541
-3.2956
-3.29586
-3.2962
-3.29659
-3.29703
-3.29748
-3.29794
-3.29839
-3.29881
-3.29918
-3.2995
-3.29974
-3.2999
-3.29998
-3.30047
-3.30038
-3.30019
-3.29989
-3.29951
-3.29906
-3.29856
-3.29801
-3.29745
-3.29689
-3.29637
-3.29589
-3.29548
-3.29515
-3.29493
-3.29481
-3.29481
-3.29493
-3.29515
-3.29548
-3.29589
-3.29637
-3.29689
-3.29745
-3.29801
-3.29856
-3.29906
-3.29951
-3.29989
-3.30019
-3.30038
-3.30047
-3.30108
-3.30096
-3.30073
-3.30038
-3.29992
-3.29937
-3.29875
-3.29809
-3.29741
-3.29673
-3.29609
-3.2955
-3.295
-3.2946
-3.29433
-3.29419
-3.29419
-3.29433
-3.2946
-3.295
-3.2955
-3.29609
-3.29673
-3.29741
-3.29809
-3.29875
-3.29937
-3.29992
-3.30038
-3.30073
-3.30096
-3.30108
-3.30181
-3.30167
-3.30139
-3.30096
-3.30041
-3.29974
-3.299
-3.29819
-3.29737
-3.29654
-3.29576
-3.29504
-3.29443
-3.29394
-3.2936
-3.29343
-3.29343
-3.2936
-3.29394
-3.29443
-3.29504
-3.29576
-3.29654
-3.29737
-3.29819
-3.299
-3.29974
-3.30041
-3.30096
-3.30139
-3.30167
-3.30181
-3.3027
-3.30253
-3.30219
-3.30167
-3.301
-3.3002
-3.2993
-3.29832
-3.29732
-3.29632
-3.29536
-3.29448
-3.29373
-3.29313
-3.29271
-3.2925
-3.2925
-3.29271
-3.29313
-3.29373
-3.29448
-3.29536
-3.29632
-3.29732
-3.29832
-3.2993
-3.3002
-3.301
-3.30167
-3.30219
-3.30253
-3.3027
-3.30378
-3.30357
-3.30316
-3.30254
-3.30173
-3.30076
-3.29966
-3.29849
-3.29726
-3.29604
-3.29488
-3.2938
-3.29288
-3.29214
-3.29162
-3.29136
-3.29136
-3.29162
-3.29214
-3.29288
-3.2938
-3.29488
-3.29604
-3.29726
-3.29849
-3.29966
-3.30076
-3.30173
-3.30254
-3.30316
-3.30357
-3.30378
-3.30508
-3.30484
-3.30434
-3.30359
-3.30261
-3.30144
-3.30012
-3.29869
-3.29721
-3.29572
-3.2943
-3.29299
-3.29184
-3.29093
-3.29029
-3.28996
-3.28996
-3.29029
-3.29093
-3.29184
-3.29298
-3.2943
-3.29572
-3.29721
-3.29869
-3.30012
-3.30144
-3.30261
-3.30359
-3.30434
-3.30484
-3.30508
-3.30666
-3.30637
-3.30577
-3.30486
-3.30368
-3.30227
-3.30067
-3.29895
-3.29715
-3.29535
-3.29361
-3.292
-3.29059
-3.28946
-3.28866
-3.28825
-3.28825
-3.28866
-3.28946
-3.29059
-3.292
-3.29361
-3.29535
-3.29715
-3.29895
-3.30067
-3.30227
-3.30368
-3.30486
-3.30577
-3.30637
-3.30666
-3.30857
-3.30822
-3.30749
-3.3064
-3.30498
-3.30328
-3.30136
-3.29928
-3.29711
-3.29492
-3.29279
-3.29081
-3.28907
-3.28766
-3.28665
-3.28613
-3.28613
-3.28665
-3.28766
-3.28907
-3.29081
-3.29279
-3.29492
-3.29711
-3.29928
-3.30136
-3.30328
-3.30498
-3.3064
-3.30749
-3.30822
-3.30857
-3.31088
-3.31045
-3.30958
-3.30827
-3.30656
-3.30452
-3.30221
-3.29971
-3.29708
-3.29443
-3.29183
-3.28939
-3.28723
-3.28546
-3.28419
-3.28352
-3.28352
-3.28419
-3.28546
-3.28723
-3.28939
-3.29183
-3.29443
-3.29708
-3.29971
-3.30221
-3.30452
-3.30656
-3.30827
-3.30958
-3.31045
-3.31088
-3.31368
-3.31316
-3.31211
-3.31053
-3.30848
-3.30603
-3.30326
-3.30025
-3.29709
-3.29388
-3.29071
-3.28771
-3.28501
-3.28277
-3.28114
-3.28027
-3.28027
-3.28114
-3.28277
-3.28501
-3.28771
-3.29071
-3.29388
-3.29709
-3.30025
-3.30326
-3.30603
-3.30848
-3.31053
-3.31211
-3.31316
-3.31368
-3.31706
-3.31643
-3.31516
-3.31325
-3.31079
-3.30786
-3.30455
-3.30096
-3.29716
-3.29328
-3.28942
-3.28573
-3.28236
-3.27951
-3.27736
-3.27622
-3.27622
-3.27736
-3.27951
-3.28236
-3.28573
-3.28942
-3.29328
-3.29716
-3.30096
-3.30455
-3.30786
-3.31079
-3.31325
-3.31515
-3.31643
-3.31706
-3.32115
-3.32038
-3.31883
-3.31653
-3.31359
-3.31009
-3.30614
-3.30186
-3.29733
-3.29267
-3.28797
-3.28344
-3.27919
-3.27554
-3.27265
-3.27108
-3.27108
-3.27265
-3.27554
-3.27919
-3.28344
-3.28797
-3.29267
-3.29733
-3.30186
-3.30614
-3.31009
-3.31359
-3.31653
-3.31883
-3.32038
-3.32115
-3.3261
-3.32515
-3.32325
-3.32047
-3.31694
-3.31278
-3.30808
-3.30303
-3.29764
-3.29209
-3.28638
-3.28084
-3.27544
-3.27074
-3.26671
-3.26449
-3.26449
-3.26671
-3.27074
-3.27544
-3.28084
-3.28638
-3.29209
-3.29764
-3.30303
-3.30808
-3.31278
-3.31694
-3.32047
-3.32325
-3.32515
-3.3261
-3.33213
-3.33093
-3.32856
-3.32519
-3.32095
-3.31601
-3.31043
-3.30452
-3.29816
-3.29163
-3.28468
-3.278
-3.27106
-3.26507
-3.25936
-3.25613
-3.25613
-3.25936
-3.26507
-3.27106
-3.278
-3.28468
-3.29163
-3.29816
-3.30452
-3.31043
-3.31601
-3.32095
-3.32519
-3.32856
-3.33093
-3.33213
-3.3395
-3.33794
-3.3349
-3.3308
-3.3257
-3.31988
-3.31322
-3.30644
-3.29893
-3.29149
-3.28296
-3.27514
-3.26625
-3.25937
-3.25077
-3.24592
-3.24592
-3.25077
-3.25936
-3.26625
-3.27514
-3.28296
-3.29149
-3.29893
-3.30644
-3.31322
-3.31988
-3.3257
-3.3308
-3.3349
-3.33794
-3.3395
-3.3486
-3.34651
-3.34242
-3.33743
-3.33124
-3.32444
-3.31636
-3.30886
-3.29991
-3.29208
-3.28128
-3.27354
-3.26093
-3.25765
-3.30713
-3.32277
-3.32277
-3.30712
-3.25765
-3.26093
-3.27354
-3.28128
-3.29208
-3.29991
-3.30886
-3.31636
-3.32444
-3.33124
-3.33743
-3.34242
-3.34651
-3.3486
-3.36001
-3.35707
-3.35119
-3.34514
-3.33761
-3.32995
-3.31947
-3.31223
-3.30041
-3.29482
-3.29843
-3.28743
-3.31437
-3.2982
-3.76655
-3.77928
-3.77928
-3.76655
-3.2982
-3.31437
-3.28743
-3.29843
-3.29482
-3.30041
-3.31223
-3.31947
-3.32995
-3.33761
-3.34513
-3.35119
-3.35707
-3.36001
-3.37462
-3.37032
-3.36058
-3.35389
-3.34492
-3.33879
-3.32463
-3.32112
-3.3198
-3.31296
-3.49781
-3.54008
-3.60781
-3.64033
-3.66698
-3.67948
-3.67948
-3.66698
-3.64033
-3.60781
-3.54008
-3.49781
-3.31296
-3.3198
-3.32112
-3.32463
-3.33879
-3.34492
-3.35389
-3.36058
-3.37032
-3.37462
-3.39326
-3.38846
-3.36743
-3.36588
-3.35167
-3.35634
-3.2311
-3.27147
-3.34155
-3.38822
-3.44405
-3.48878
-3.53556
-3.56791
-3.59218
-3.60429
-3.60429
-3.59218
-3.56791
-3.53556
-3.48878
-3.44405
-3.38822
-3.34155
-3.27147
-3.2311
-3.35634
-3.35167
-3.36588
-3.36743
-3.38846
-3.39326
-3.41635
-3.42066
-2.99139
-3.03017
-3.071
-3.1375
-3.19745
-3.25134
-3.31028
-3.35869
-3.40601
-3.4471
-3.48402
-3.51205
-3.53184
-3.54188
-3.54188
-3.53184
-3.51205
-3.48402
-3.4471
-3.40601
-3.35869
-3.31028
-3.25134
-3.19745
-3.1375
-3.071
-3.03017
-2.99139
-3.42066
-3.41635
-2.95396
-2.98624
-2.97783
-3.02435
-3.08498
-3.13677
-3.19263
-3.24248
-3.29115
-3.33478
-3.37516
-3.41071
-3.44126
-3.46498
-3.48139
-3.48974
-3.48974
-3.48139
-3.46498
-3.44126
-3.41071
-3.37516
-3.33478
-3.29115
-3.24248
-3.19263
-3.13677
-3.08497
-3.02435
-2.97783
-2.98624
-2.95396
-2.94758
-2.96833
-3.01345
-3.05527
-3.10147
-3.14644
-3.1921
-3.23538
-3.2767
-3.31467
-3.34925
-3.37968
-3.40539
-3.4254
-3.43915
-3.44614
-3.44614
-3.43915
-3.4254
-3.40539
-3.37968
-3.34925
-3.31467
-3.2767
-3.23538
-3.1921
-3.14644
-3.10147
-3.05527
-3.01345
-2.96833
-2.94758
-3.00639
-3.02111
-3.04981
-3.08249
-3.11888
-3.15618
-3.19394
-3.23059
-3.26563
-3.29814
-3.32766
-3.35358
-3.37532
-3.39222
-3.4038
-3.40968
-3.40968
-3.4038
-3.39222
-3.37532
-3.35358
-3.32766
-3.29814
-3.26563
-3.23059
-3.19394
-3.15618
-3.11888
-3.08249
-3.04981
-3.02111
-3.00639
-3.05066
-3.0613
-3.0814
-3.1066
-3.13534
-3.16578
-3.19692
-3.22763
-3.25715
-3.28474
-3.30981
-3.3318
-3.35019
-3.36447
-3.37423
-3.37918
-3.37918
-3.37423
-3.36447
-3.35019
-3.3318
-3.30981
-3.28474
-3.25715
-3.22763
-3.19692
-3.16578
-3.13534
-3.1066
-3.0814
-3.0613
-3.05066
-3.08551
-3.09329
-3.10795
-3.12738
-3.15012
-3.17481
-3.2004
-3.22594
-3.25069
-3.27394
-3.29512
-3.31372
-3.32925
-3.3413
-3.34953
-3.3537
-3.3537
-3.34953
-3.3413
-3.32925
-3.31372
-3.29512
-3.27394
-3.25069
-3.22594
-3.2004
-3.17481
-3.15012
-3.12738
-3.10795
-3.09329
-3.08551
-3.11299
-3.11881
-3.12984
-3.14496
-3.16303
-3.183
-3.20397
-3.22513
-3.24577
-3.26526
-3.28309
-3.29875
-3.31184
-3.32199
-3.32892
-3.33244
-3.33244
-3.32892
-3.32199
-3.31184
-3.29875
-3.28309
-3.26526
-3.24577
-3.22513
-3.20397
-3.183
-3.16303
-3.14496
-3.12984
-3.11881
-3.11299
-3.13484
-3.13929
-3.14779
-3.15966
-3.17408
-3.19025
-3.20741
-3.22488
-3.24202
-3.25831
-3.27324
-3.28639
-3.29739
-3.30593
-3.31176
-3.31472
-3.31472
-3.31176
-3.30593
-3.29739
-3.28639
-3.27324
-3.25831
-3.24202
-3.22488
-3.20741
-3.19025
-3.17408
-3.15966
-3.14779
-3.13929
-3.13484
-3.15236
-3.15582
-3.16247
-3.17187
-3.18343
-3.19654
-3.21057
-3.22496
-3.23917
-3.25273
-3.2652
-3.27621
-3.28543
-3.29259
-3.29749
-3.29997
-3.29997
-3.29749
-3.29259
-3.28543
-3.27621
-3.2652
-3.25273
-3.23917
-3.22496
-3.21057
-3.19654
-3.18343
-3.17187
-3.16247
-3.15582
-3.15236
-3.16649
-3.16921
-3.17448
-3.18198
-3.19129
-3.20192
-3.21339
-3.22523
-3.23698
-3.24824
-3.25863
-3.26783
-3.27554
-3.28153
-3.28563
-3.28771
-3.28771
-3.28563
-3.28153
-3.27554
-3.26783
-3.25863
-3.24824
-3.23698
-3.22523
-3.21339
-3.20192
-3.19129
-3.18198
-3.17448
-3.16921
-3.16649
-3.17793
-3.18009
-3.1843
-3.19032
-3.19784
-3.20648
-3.21587
-3.2256
-3.23531
-3.24464
-3.25327
-3.26093
-3.26736
-3.27237
-3.2758
-3.27754
-3.27754
-3.2758
-3.27237
-3.26736
-3.26093
-3.25327
-3.24464
-3.23531
-3.2256
-3.21587
-3.20648
-3.19784
-3.19032
-3.1843
-3.18009
-3.17793
-3.18722
-3.18896
-3.19233
-3.19719
-3.20328
-3.21033
-3.218
-3.226
-3.23401
-3.24173
-3.2489
-3.25526
-3.26062
-3.26479
-3.26765
-3.2691
-3.2691
-3.26765
-3.26479
-3.26062
-3.25526
-3.2489
-3.24173
-3.23401
-3.226
-3.218
-3.21033
-3.20328
-3.19719
-3.19233
-3.18896
-3.18722
-3.19479
-3.19619
-3.19892
-3.20285
-3.2078
-3.21354
-3.21983
-3.2264
-3.233
-3.23938
-3.24532
-3.2506
-3.25505
-3.25853
-3.2609
-3.26211
-3.26211
-3.2609
-3.25853
-3.25505
-3.2506
-3.24532
-3.23938
-3.233
-3.2264
-3.21983
-3.21354
-3.2078
-3.20285
-3.19892
-3.19619
-3.19479
-3.20097
-3.2021
-3.20431
-3.2075
-3.21154
-3.21623
-3.22138
-3.22678
-3.23221
-3.23748
-3.24239
-3.24677
-3.25047
-3.25335
-3.25533
-3.25633
-3.25633
-3.25533
-3.25335
-3.25047
-3.24677
-3.24239
-3.23748
-3.23221
-3.22678
-3.22138
-3.21623
-3.21154
-3.2075
-3.20431
-3.2021
-3.20097
-3.20602
-3.20694
-3.20873
-3.21133
-3.21462
-3.21846
-3.22268
-3.22712
-3.23159
-3.23594
-3.24
-3.24363
-3.24669
-3.24908
-3.25072
-3.25155
-3.25155
-3.25072
-3.24908
-3.24669
-3.24363
-3.24
-3.23594
-3.23159
-3.22712
-3.22268
-3.21846
-3.21462
-3.21133
-3.20873
-3.20694
-3.20602
-3.21016
-3.2109
-3.21236
-3.21449
-3.21717
-3.22031
-3.22378
-3.22742
-3.23111
-3.23469
-3.23804
-3.24104
-3.24357
-3.24555
-3.24691
-3.24761
-3.24761
-3.24691
-3.24555
-3.24357
-3.24104
-3.23804
-3.23469
-3.23111
-3.22742
-3.22378
-3.22031
-3.21717
-3.21449
-3.21236
-3.2109
-3.21016
-3.21354
-3.21415
-3.21534
-3.21708
-3.21927
-3.22185
-3.22469
-3.22768
-3.23072
-3.23367
-3.23644
-3.23891
-3.24101
-3.24265
-3.24377
-3.24435
-3.24435
-3.24377
-3.24265
-3.24101
-3.23891
-3.23644
-3.23367
-3.23072
-3.22768
-3.22469
-3.22185
-3.21928
-3.21708
-3.21534
-3.21415
-3.21354
-3.21632
-3.21681
-3.21779
-3.21921
-3.22101
-3.22312
-3.22545
-3.22791
-3.23041
-3.23284
-3.23512
-3.23717
-3.2389
-3.24025
-3.24118
-3.24166
-3.24166
-3.24118
-3.24025
-3.2389
-3.23717
-3.23512
-3.23284
-3.23041
-3.22791
-3.22545
-3.22312
-3.22101
-3.21921
-3.21779
-3.21681
-3.21632
-3.21859
-3.219
-3.2198
-3.22096
-3.22244
-3.22417
-3.22608
-3.2281
-3.23016
-3.23216
-3.23404
-3.23573
-3.23716
-3.23828
-3.23905
-3.23944
-3.23944
-3.23905
-3.23828
-3.23716
-3.23573
-3.23404
-3.23216
-3.23016
-3.2281
-3.22608
-3.22417
-3.22244
-3.22096
-3.2198
-3.219
-3.21859
-3.22046
-3.2208
-3.22145
-3.2224
-3.22361
-3.22503
-3.2266
-3.22827
-3.22996
-3.23161
-3.23316
-3.23455
-3.23573
-3.23665
-3.23729
-3.23761
-3.23761
-3.23729
-3.23665
-3.23573
-3.23455
-3.23316
-3.23161
-3.22996
-3.22827
-3.2266
-3.22503
-3.22361
-3.2224
-3.22145
-3.2208
-3.22046
-3.222
-3.22227
-3.22281
-3.22359
-3.22458
-3.22575
-3.22704
-3.22841
-3.2298
-3.23116
-3.23243
-3.23358
-3.23455
-3.23531
-3.23584
-3.23611
-3.23611
-3.23584
-3.23531
-3.23455
-3.23358
-3.23243
-3.23116
-3.2298
-3.22841
-3.22704
-3.22575
-3.22458
-3.22359
-3.22281
-3.22227
-3.222
-3.22326
-3.22348
-3.22392
-3.22456
-3.22538
-3.22633
-3.2274
-3.22852
-3.22967
-3.23078
-3.23184
-3.23278
-3.23358
-3.23421
-3.23464
-3.23487
-3.23487
-3.23464
-3.23421
-3.23358
-3.23278
-3.23184
-3.23078
-3.22967
-3.22852
-3.2274
-3.22633
-3.22538
-3.22456
-3.22392
-3.22348
-3.22326
-3.22429
-3.22448
-3.22484
-3.22536
-3.22603
-3.22682
-3.22769
-3.22862
-3.22956
-3.23048
-3.23135
-3.23212
-3.23279
-3.2333
-3.23366
-3.23384
-3.23384
-3.23366
-3.2333
-3.23279
-3.23212
-3.23135
-3.23048
-3.22956
-3.22862
-3.22769
-3.22682
-3.22603
-3.22536
-3.22484
-3.22448
-3.22429
-3.22515
-3.2253
-3.22559
-3.22602
-3.22657
-3.22722
-3.22794
-3.2287
-3.22947
-3.23023
-3.23094
-3.23159
-3.23213
-3.23256
-3.23285
-3.233
-3.233
-3.23285
-3.23256
-3.23213
-3.23159
-3.23094
-3.23023
-3.22947
-3.2287
-3.22794
-3.22722
-3.22657
-3.22602
-3.22559
-3.2253
-3.22515
-3.22585
-3.22597
-3.22621
-3.22657
-3.22702
-3.22755
-3.22814
-3.22876
-3.2294
-3.23003
-3.23061
-3.23114
-3.23159
-3.23194
-3.23218
-3.23231
-3.23231
-3.23218
-3.23194
-3.23159
-3.23114
-3.23061
-3.23003
-3.2294
-3.22876
-3.22814
-3.22755
-3.22702
-3.22657
-3.22621
-3.22597
-3.22585
-3.22642
-3.22652
-3.22672
-3.22701
-3.22738
-3.22782
-3.22831
-3.22882
-3.22934
-3.22986
-3.23034
-3.23078
-3.23115
-3.23144
-3.23163
-3.23174
-3.23174
-3.23163
-3.23144
-3.23115
-3.23078
-3.23034
-3.22986
-3.22934
-3.22882
-3.22831
-3.22782
-3.22738
-3.22701
-3.22672
-3.22652
-3.22642
-3.22689
-3.22698
-3.22714
-3.22738
-3.22769
-3.22804
-3.22844
-3.22887
-3.2293
-3.22972
-3.23012
-3.23048
-3.23078
-3.23102
-3.23118
-3.23127
-3.23127
-3.23118
-3.23102
-3.23078
-3.23048
-3.23012
-3.22972
-3.2293
-3.22887
-3.22844
-3.22804
-3.22769
-3.22738
-3.22714
-3.22698
-3.22689
-3.22728
-3.22735
-3.22749
-3.22768
-3.22793
-3.22823
-3.22856
-3.2289
-3.22926
-3.22961
-3.22993
-3.23023
-3.23048
-3.23068
-3.23081
-3.23088
-3.23088
-3.23081
-3.23068
-3.23048
-3.23023
-3.22993
-3.22961
-3.22926
-3.2289
-3.22856
-3.22823
-3.22793
-3.22768
-3.22749
-3.22735
-3.22728
-3.2276
-3.22766
-3.22777
-3.22793
-3.22814
-3.22838
-3.22865
-3.22894
-3.22923
-3.22951
-3.22978
-3.23003
-3.23023
-3.23039
-3.2305
-3.23056
-3.23056
-3.2305
-3.23039
-3.23023
-3.23003
-3.22978
-3.22951
-3.22923
-3.22894
-3.22865
-3.22838
-3.22814
-3.22793
-3.22777
-3.22766
-3.2276
-3.22786
-3.22791
-3.228
-3.22814
-3.2283
-3.2285
-3.22873
-3.22896
-3.2292
-3.22944
-3.22966
-3.22986
-3.23003
-3.23016
-3.23025
-3.2303
-3.2303
-3.23025
-3.23016
-3.23003
-3.22986
-3.22966
-3.22944
-3.2292
-3.22896
-3.22873
-3.2285
-3.2283
-3.22814
-3.228
-3.22791
-3.22786
-3.22808
-3.22812
-3.22819
-3.2283
-3.22844
-3.22861
-3.22879
-3.22898
-3.22918
-3.22937
-3.22956
-3.22972
-3.22986
-3.22997
-3.23005
-3.23008
-3.23008
-3.23005
-3.22997
-3.22986
-3.22972
-3.22956
-3.22937
-3.22918
-3.22898
-3.22879
-3.22861
-3.22844
-3.2283
-3.22819
-3.22812
-3.22808
-3.22826
-3.22829
-3.22835
-3.22844
-3.22856
-3.22869
-3.22884
-3.229
-3.22916
-3.22932
-3.22947
-3.22961
-3.22972
-3.22981
-3.22988
-3.22991
-3.22991
-3.22988
-3.22981
-3.22972
-3.22961
-3.22947
-3.22932
-3.22916
-3.229
-3.22884
-3.22869
-3.22856
-3.22844
-3.22835
-3.22829
-3.22826
-3.2284
-3.22843
-3.22848
-3.22856
-3.22865
-3.22876
-3.22888
-3.22902
-3.22915
-3.22928
-3.2294
-3.22951
-3.22961
-3.22968
-3.22973
-3.22976
-3.22976
-3.22973
-3.22968
-3.22961
-3.22951
-3.2294
-3.22928
-3.22915
-3.22902
-3.22888
-3.22876
-3.22865
-3.22856
-3.22848
-3.22843
-3.2284
-3.22853
-3.22855
-3.22859
-3.22865
-3.22873
-3.22882
-3.22892
-3.22903
-3.22914
-3.22925
-3.22935
-3.22944
-3.22952
-3.22958
-3.22962
-3.22964
-3.22964
-3.22962
-3.22958
-3.22952
-3.22944
-3.22935
-3.22925
-3.22914
-3.22903
-3.22892
-3.22882
-3.22873
-3.22865
-3.22859
-3.22855
-3.22853
-3.22862
-3.22864
-3.22868
-3.22873
-3.22879
-3.22886
-3.22895
-3.22904
-3.22913
-3.22922
-3.2293
-3.22938
-3.22944
-3.22949
-3.22952
-3.22954
-3.22954
-3.22952
-3.22949
-3.22944
-3.22938
-3.2293
-3.22922
-3.22913
-3.22904
-3.22895
-3.22886
-3.22879
-3.22873
-3.22868
-3.22864
-3.22862
-3.22871
-3.22872
-3.22875
-3.22879
-3.22884
-3.2289
-3.22897
-3.22905
-3.22912
-3.22919
-3.22926
-3.22932
-3.22938
-3.22942
-3.22945
-3.22946
-3.22946
-3.22945
-3.22942
-3.22938
-3.22932
-3.22926
-3.22919
-3.22912
-3.22905
-3.22897
-3.2289
-3.22884
-3.22879
-3.22875
-3.22872
-3.22871
-3.22877
-3.22878
-3.22881
-3.22884
-3.22888
-3.22894
-3.22899
-3.22905
-3.22911
-3.22917
-3.22923
-3.22928
-3.22932
-3.22936
-3.22938
-3.22939
-3.22939
-3.22938
-3.22936
-3.22932
-3.22928
-3.22923
-3.22917
-3.22911
-3.22905
-3.22899
-3.22894
-3.22888
-3.22884
-3.22881
-3.22878
-3.22877
-3.22883
-3.22884
-3.22886
-3.22888
-3.22892
-3.22896
-3.22901
-3.22906
-3.22911
-3.22916
-3.2292
-3.22925
-3.22928
-3.22931
-3.22933
-3.22934
-3.22934
-3.22933
-3.22931
-3.22928
-3.22925
-3.2292
-3.22916
-3.22911
-3.22906
-3.22901