/*--------------------------------*- C++ -*----------------------------------*\
  =========                 |
  \\      /  F ield         | OpenFOAM: The Open Source CFD Toolbox
   \\    /   O peration     | Website:  https://openfoam.org
    \\  /    A nd           | Version:  9
     \\/     M anipulation  |
\*---------------------------------------------------------------------------*/
FoamFile
{
    format      ascii;
    class       surfaceScalarField;
    location    "0.05";
    object      phi;
}
// * * * * * * * * * * * * * * * * * * * * * * * * * * * * * * * * * * * * * //

dimensions      [0 3 -1 0 0 0 0];

internalField   nonuniform List<scalar> 
8032
(
-2.28985e-10
4.08148e-10
-2.07015e-09
-2.64649e-10
-2.21145e-09
2.43205e-10
-2.47643e-09
3.98779e-10
-2.73686e-09
3.71927e-10
-2.95284e-09
2.93628e-10
-3.09477e-09
1.90948e-10
-3.13847e-09
7.42996e-11
-3.07193e-09
-4.73349e-11
-2.89169e-09
-1.67222e-10
-2.60206e-09
-2.80475e-10
-2.21265e-09
-3.82411e-10
-1.73808e-09
-4.69226e-10
-1.19632e-09
-5.37452e-10
-6.08422e-10
-5.84568e-10
2.94225e-12
-6.08678e-10
6.13923e-10
-6.08929e-10
1.20084e-09
-5.85278e-10
1.74076e-09
-5.38706e-10
2.21272e-09
-4.71006e-10
2.59827e-09
-3.84862e-10
2.88242e-09
-2.83623e-10
3.05407e-09
-1.71271e-10
3.10657e-09
-5.21838e-11
3.03788e-09
6.89735e-11
2.8507e-09
1.87461e-10
2.55234e-09
2.98658e-10
2.15457e-09
3.98148e-10
1.67312e-09
4.81422e-10
1.1298e-09
5.43789e-10
5.55128e-10
5.75665e-10
5.55361e-10
-6.60581e-10
9.76739e-10
-1.70382e-09
7.73482e-10
-2.28655e-09
9.0241e-10
-2.71227e-09
9.28924e-10
-3.05866e-09
8.12415e-10
-3.3222e-09
6.26042e-10
-3.48489e-09
4.00305e-10
-3.53237e-09
1.51862e-10
-3.45485e-09
-1.04733e-10
-3.2506e-09
-3.57805e-10
-2.92425e-09
-5.96708e-10
-2.48704e-09
-8.12082e-10
-1.95484e-09
-9.95398e-10
-1.34801e-09
-1.13962e-09
-6.89697e-10
-1.23908e-09
-5.45156e-12
-1.28999e-09
6.78331e-10
-1.29033e-09
1.33501e-09
-1.24015e-09
1.93916e-09
-1.14139e-09
2.46721e-09
-9.97968e-10
2.89868e-09
-8.15461e-10
3.21672e-09
-6.01036e-10
3.40903e-09
-3.63063e-10
3.46811e-09
-1.10858e-10
3.39175e-09
1.4573e-10
3.18296e-09
3.96666e-10
2.84993e-09
6.32105e-10
2.40568e-09
8.42676e-10
1.86825e-09
1.01941e-09
1.26107e-09
1.15129e-09
6.18447e-10
1.21876e-09
1.17462e-09
-7.85867e-10
1.68784e-09
-1.67369e-09
1.62138e-09
-2.36919e-09
1.61948e-09
-2.90093e-09
1.51783e-09
-3.31971e-09
1.29258e-09
-3.62812e-09
9.85507e-10
-3.8157e-09
6.25171e-10
-3.87099e-09
2.33305e-10
-3.78716e-09
-1.70408e-10
-3.56352e-09
-5.68366e-10
-3.20623e-09
-9.44329e-10
-2.72754e-09
-1.28327e-09
-2.14518e-09
-1.57192e-09
-1.48116e-09
-1.79895e-09
-7.61002e-10
-1.95555e-09
-1.24513e-11
-2.03557e-09
7.35494e-10
-2.03595e-09
1.45385e-09
-1.95665e-09
2.1147e-09
-1.80082e-09
2.69238e-09
-1.57453e-09
3.16443e-09
-1.28666e-09
3.5125e-09
-9.4845e-10
3.72308e-09
-5.73136e-10
3.78803e-09
-1.7538e-10
3.7049e-09
2.29266e-10
3.47699e-09
6.24978e-10
3.11326e-09
9.96263e-10
2.62806e-09
1.32836e-09
2.04076e-09
1.60668e-09
1.37762e-09
1.815e-09
6.76e-10
1.9218e-09
1.85069e-09
-8.39425e-10
2.46745e-09
-1.74769e-09
2.48876e-09
-2.51912e-09
2.39331e-09
-3.14299e-09
2.1723e-09
-3.63711e-09
1.82632e-09
-3.99928e-09
1.38391e-09
-4.21919e-09
8.73991e-10
-4.28723e-09
3.22906e-10
-4.19772e-09
-2.43998e-10
-3.9515e-09
-8.02745e-10
-3.55613e-09
-1.33062e-09
-3.02567e-09
-1.80666e-09
-2.37991e-09
-2.21206e-09
-1.64342e-09
-2.53096e-09
-8.44511e-10
-2.75087e-09
-1.40387e-11
-2.86319e-09
8.15835e-10
-2.86355e-09
1.6129e-09
-2.75193e-09
2.3462e-09
-2.53271e-09
2.98722e-09
-2.21447e-09
3.51105e-09
-1.80964e-09
3.89731e-09
-1.33407e-09
4.131e-09
-8.06332e-10
4.20309e-09
-2.47059e-10
4.11085e-09
3.21893e-10
3.85796e-09
8.78283e-10
3.45436e-09
1.40028e-09
2.91582e-09
1.86709e-09
2.26435e-09
2.2588e-09
1.52855e-09
2.55123e-09
7.49864e-10
2.7006e-09
2.60153e-09
-9.23486e-10
3.33166e-09
-1.89404e-09
3.42253e-09
-2.76167e-09
3.25262e-09
-3.49076e-09
2.91457e-09
-4.07452e-09
2.43292e-09
-4.5029e-09
1.83645e-09
-4.76411e-09
1.15636e-09
-4.84847e-09
4.244e-10
-4.75132e-09
-3.2773e-10
-4.47474e-09
-1.06882e-09
-4.02807e-09
-1.76902e-09
-3.42764e-09
-2.40049e-09
-2.69611e-09
-2.9383e-09
-1.86145e-09
-3.36135e-09
-9.5584e-10
-3.65305e-09
-1.43084e-11
-3.80198e-09
9.26627e-10
-3.8023e-09
1.83043e-09
-3.654e-09
2.66195e-09
-3.36288e-09
3.38885e-09
-2.94032e-09
3.98286e-09
-2.40284e-09
4.42085e-09
-1.77145e-09
4.68583e-09
-1.07083e-09
4.76752e-09
-3.28355e-10
4.66282e-09
4.2696e-10
4.37589e-09
1.16557e-09
3.918e-09
1.85855e-09
3.30726e-09
2.47834e-09
2.56802e-09
2.99782e-09
1.73337e-09
3.38632e-09
8.50684e-10
3.58502e-09
3.4521e-09
-1.03761e-09
4.34413e-09
-2.12011e-09
4.48044e-09
-3.11554e-09
4.2389e-09
-3.97115e-09
3.77532e-09
-4.66274e-09
3.13812e-09
-5.17244e-09
2.36238e-09
-5.48499e-09
1.4845e-09
-5.58964e-09
5.42536e-10
-5.48195e-09
-4.2422e-10
-5.16524e-09
-1.37642e-09
-4.65087e-09
-2.27597e-09
-3.95813e-09
-3.0872e-09
-3.11339e-09
-3.77813e-09
-2.14916e-09
-4.3216e-09
-1.10269e-09
-4.6963e-09
-1.45439e-11
-4.88753e-09
1.07302e-09
-4.88779e-09
2.11773e-09
-4.69706e-09
3.07894e-09
-4.32279e-09
3.91923e-09
-3.77961e-09
4.60589e-09
-3.08874e-09
5.11219e-09
-2.27718e-09
5.41846e-09
-1.37665e-09
5.51281e-09
-4.22344e-10
5.39164e-09
5.48454e-10
5.05979e-09
1.49779e-09
4.53027e-09
2.38843e-09
3.8238e-09
3.18489e-09
2.96926e-09
3.85308e-09
2.00421e-09
4.35183e-09
9.83062e-10
4.60588e-09
4.43627e-09
-1.19718e-09
5.50938e-09
-2.43861e-09
5.70075e-09
-3.5972e-09
5.38808e-09
-4.60616e-09
4.78505e-09
-5.42837e-09
3.96758e-09
-6.03724e-09
2.98164e-09
-6.41283e-09
1.87106e-09
-6.5421e-09
6.82095e-10
-6.42032e-09
-5.36967e-10
-6.05185e-09
-1.73716e-09
-5.45051e-09
-2.87083e-09
-4.63922e-09
-3.89308e-09
-3.64915e-09
-4.76373e-09
-2.51853e-09
-5.44854e-09
-1.29119e-09
-5.92064e-09
-1.47702e-11
-6.16151e-09
1.26109e-09
-6.1617e-09
2.48675e-09
-5.92117e-09
3.61449e-09
-5.44931e-09
4.60039e-09
-4.76456e-09
5.40604e-09
-3.89367e-09
6.00006e-09
-2.87067e-09
6.35935e-09
-1.73554e-09
6.46996e-09
-5.32625e-10
6.32765e-09
6.91061e-10
5.93807e-09
1.88767e-09
5.3165e-09
3.01033e-09
4.48751e-09
4.01437e-09
3.48425e-09
4.85594e-09
2.35152e-09
5.48484e-09
1.1539e-09
5.8055e-09
5.58986e-09
-1.39974e-09
6.89951e-09
-2.85503e-09
7.14336e-09
-4.22123e-09
6.74666e-09
-5.41984e-09
5.98234e-09
-6.40176e-09
4.95326e-09
-7.13183e-09
3.71835e-09
-7.58438e-09
2.33144e-09
-7.74336e-09
8.48924e-10
-7.60314e-09
-6.69886e-10
-7.16919e-09
-2.16464e-09
-6.45816e-09
-3.57623e-09
-5.49744e-09
-4.84902e-09
-4.32419e-09
-5.93296e-09
-2.9839e-09
-6.78549e-09
-1.52862e-09
-7.37317e-09
-1.49374e-11
-7.67294e-09
1.49822e-09
-7.67304e-09
2.95193e-09
-7.37343e-09
4.28955e-09
-6.78579e-09
5.45894e-09
-5.93308e-09
6.41454e-09
-4.84861e-09
7.11911e-09
-3.57475e-09
7.54521e-09
-2.16128e-09
7.6763e-09
-6.63429e-10
7.50733e-09
8.60279e-10
7.04501e-09
2.35028e-09
6.30749e-09
3.74815e-09
5.32362e-09
4.99818e-09
4.13361e-09
6.04673e-09
2.78985e-09
6.82906e-09
1.36829e-09
7.22639e-09
6.95937e-09
-1.66154e-09
8.54196e-09
-3.38623e-09
8.85523e-09
-5.0117e-09
8.3648e-09
-6.44368e-09
7.41194e-09
-7.6211e-09
6.13207e-09
-8.49914e-09
4.60038e-09
-9.04553e-09
2.88315e-09
-9.24025e-09
1.04946e-09
-9.0764e-09
-8.28033e-10
-8.56055e-09
-2.67519e-09
-7.71276e-09
-4.41927e-09
-6.56592e-09
-5.9917e-09
-5.16458e-09
-7.33075e-09
-3.5632e-09
-8.38387e-09
-1.82411e-09
-9.10977e-09
-1.50193e-11
-9.47999e-09
1.7936e-09
-9.48e-09
3.53124e-09
-9.10975e-09
5.13017e-09
-8.38368e-09
6.52804e-09
-7.33015e-09
7.67033e-09
-5.99032e-09
8.51253e-09
-4.41653e-09
9.02182e-09
-2.67027e-09
9.1784e-09
-8.19773e-10
8.97624e-09
1.06266e-09
8.42332e-09
2.90341e-09
7.54131e-09
4.63038e-09
6.36513e-09
6.17485e-09
4.94184e-09
7.46941e-09
3.33495e-09
8.43608e-09
1.63626e-09
8.9273e-09
8.59511e-09
-1.98499e-09
1.05228e-08
-4.0487e-09
1.09114e-08
-5.99638e-09
1.03066e-08
-7.71625e-09
9.1289e-09
-9.13334e-09
7.54921e-09
-1.01923e-08
5.66154e-09
-1.0853e-08
3.54749e-09
-1.10908e-08
1.29156e-09
-1.08971e-08
-1.01728e-09
-1.02797e-08
-3.28828e-09
-9.26275e-09
-5.43224e-09
-7.88588e-09
-7.36502e-09
-6.2027e-09
-9.01082e-09
-4.27877e-09
-1.03051e-08
-2.18906e-09
-1.11973e-08
-1.50079e-11
-1.16522e-08
2.15861e-09
-1.16521e-08
4.24702e-09
-1.1197e-08
6.16876e-09
-1.03045e-08
7.84887e-09
-9.00956e-09
9.22181e-09
-7.36274e-09
1.0234e-08
-5.42839e-09
1.08461e-08
-3.28207e-09
1.10341e-08
-1.00765e-09
1.07909e-08
1.30599e-09
1.01261e-08
3.56844e-09
9.06571e-09
5.69097e-09
7.65133e-09
7.58901e-09
5.94066e-09
9.18089e-09
4.00914e-09
1.03681e-08
1.96618e-09
1.09692e-08
1.05626e-08
-2.38858e-09
1.2898e-08
-4.86951e-09
1.33833e-08
-7.21384e-09
1.26451e-08
-9.28666e-09
1.11986e-08
-1.0997e-08
9.25869e-09
-1.22768e-08
6.94239e-09
-1.30769e-08
4.34985e-09
-1.33668e-08
1.58451e-09
-1.31357e-08
-1.24493e-09
-1.23931e-08
-4.02748e-09
-1.1168e-08
-6.65407e-09
-9.50826e-09
-9.02178e-09
-7.4786e-09
-1.10378e-08
-5.15819e-09
-1.26233e-08
-2.63751e-09
-1.3716e-08
-1.49035e-11
-1.42732e-08
2.60732e-09
-1.4273e-08
5.12684e-09
-1.37154e-08
7.44534e-09
-1.26222e-08
9.47234e-09
-1.1036e-08
1.11287e-08
-9.01871e-09
1.23499e-08
-6.64927e-09
1.30882e-08
-4.02022e-09
1.3315e-08
-1.23428e-09
1.30213e-08
1.59971e-09
1.22189e-08
4.37094e-09
1.09392e-08
6.97084e-09
9.23267e-09
9.29594e-09
7.16792e-09
1.12448e-08
4.8369e-09
1.2699e-08
2.37289e-09
1.34356e-08
1.29348e-08
-2.88187e-09
1.57778e-08
-5.87752e-09
1.63737e-08
-8.70911e-09
1.5472e-08
-1.12147e-08
1.37011e-08
-1.32836e-08
1.13263e-08
-1.48331e-08
8.49213e-09
-1.5803e-08
5.3211e-09
-1.6156e-08
1.9396e-09
-1.58787e-08
-1.51964e-09
-1.49823e-08
-4.92114e-09
-1.3502e-08
-8.13172e-09
-1.14956e-08
-1.10257e-08
-9.04149e-09
-1.34897e-08
-6.23537e-09
-1.54274e-08
-3.18678e-09
-1.67629e-08
-1.47128e-11
-1.74439e-08
3.15702e-09
-1.74436e-08
6.20461e-09
-1.67621e-08
9.00909e-09
-1.5426e-08
1.1461e-08
-1.34873e-08
1.34646e-08
-1.1022e-08
1.49417e-08
-8.12618e-09
1.58347e-08
-4.91312e-09
1.61088e-08
-1.50833e-09
1.57533e-08
1.95514e-09
1.47824e-08
5.34194e-09
1.32341e-08
8.51927e-09
1.11691e-08
1.13605e-08
8.67155e-09
1.37432e-08
5.85174e-09
1.55192e-08
2.86978e-09
1.6416e-08
1.58059e-08
-3.4888e-09
1.92563e-08
-7.1132e-09
1.99913e-08
-1.05406e-08
1.88947e-08
-1.35747e-08
1.67321e-08
-1.60815e-08
1.38315e-08
-1.79599e-08
1.03703e-08
-1.91366e-08
6.49853e-09
-1.95661e-08
2.37047e-09
-1.92318e-08
-1.852e-09
-1.81473e-08
-6.00365e-09
-1.63549e-08
-9.92204e-09
-1.39247e-08
-1.34539e-08
-1.09517e-08
-1.6461e-08
-7.55186e-09
-1.88256e-08
-3.85805e-09
-2.04553e-08
-1.44441e-11
-2.12863e-08
3.82888e-09
-2.1286e-08
7.52184e-09
-2.04544e-08
1.09202e-08
-1.88238e-08
1.38914e-08
-1.64581e-08
1.63193e-08
-1.34496e-08
1.81092e-08
-9.91594e-09
1.91912e-08
-5.99511e-09
1.95231e-08
-1.84034e-09
1.90922e-08
2.38603e-09
1.79153e-08
6.51878e-09
1.60386e-08
1.0396e-08
1.35362e-08
1.38633e-08
1.05087e-08
1.67695e-08
7.09098e-09
1.89368e-08
3.47838e-09
2.00311e-08
1.92834e-08
-4.22794e-09
2.34833e-08
-8.62205e-09
2.43817e-08
-1.27776e-08
2.30466e-08
-1.64572e-08
2.04089e-08
-1.94981e-08
1.68706e-08
-2.17775e-08
1.26491e-08
-2.32062e-08
7.92747e-09
-2.37286e-08
2.89372e-09
-2.33245e-08
-2.25477e-09
-2.201e-08
-7.31663e-09
-1.98365e-08
-1.20939e-08
-1.68891e-08
-1.63998e-08
-1.32827e-08
-2.00658e-08
-9.15843e-09
-2.29486e-08
-4.67721e-09
-2.49354e-08
-1.41133e-11
-2.59485e-08
4.64875e-09
-2.59481e-08
9.12926e-09
-2.49343e-08
1.32524e-08
-2.29466e-08
1.68572e-08
-2.00626e-08
1.98029e-08
-1.63952e-08
2.19744e-08
-1.20874e-08
2.3287e-08
-7.30781e-09
2.36896e-08
-2.24302e-09
2.31664e-08
2.90902e-09
2.17382e-08
7.94694e-09
1.94609e-08
1.26732e-08
1.6424e-08
1.68996e-08
1.2751e-08
2.04433e-08
8.60422e-09
2.30838e-08
4.21961e-09
2.44139e-08
2.35044e-08
-5.13196e-09
2.86072e-08
-1.04637e-08
2.97081e-08
-1.5507e-08
2.80861e-08
-1.99734e-08
2.48726e-08
-2.36652e-08
2.05607e-08
-2.64332e-08
1.54163e-08
-2.81687e-08
9.66289e-09
-2.88041e-08
3.52949e-09
-2.83145e-08
-2.74345e-09
-2.67195e-08
-8.91062e-09
-2.40813e-08
-1.47309e-08
-2.05031e-08
-1.99768e-08
-1.61246e-08
-2.44431e-08
-1.1117e-08
-2.79552e-08
-5.67587e-09
-3.03757e-08
-1.37254e-11
-3.16099e-08
5.64822e-09
-3.16095e-08
1.10888e-08
-3.03745e-08
1.60955e-08
-2.7953e-08
2.04727e-08
-2.44397e-08
2.40495e-08
-1.9972e-08
2.66862e-08
-1.47243e-08
2.828e-08
-8.90171e-09
2.87686e-08
-2.73182e-09
2.8133e-08
3.54432e-09
2.63984e-08
9.68137e-09
2.36326e-08
1.54389e-08
1.99449e-08
2.05876e-08
1.54838e-08
2.4903e-08
1.04477e-08
2.81195e-08
5.12464e-09
2.97395e-08
2.8628e-08
-6.23166e-09
3.48386e-08
-1.27075e-08
3.61812e-08
-1.88329e-08
3.42086e-08
-2.42582e-08
3.02955e-08
-2.87431e-08
2.50438e-08
-3.21062e-08
1.87785e-08
-3.42153e-08
1.17717e-08
-3.4988e-08
4.30228e-09
-3.43942e-08
-3.3368e-09
-3.24572e-08
-1.0847e-08
-2.92527e-08
-1.79346e-08
-2.4906e-08
-2.43227e-08
-1.95869e-08
-2.97615e-08
-1.35031e-08
-3.40382e-08
-6.89253e-09
-3.69857e-08
-1.33022e-11
-3.84887e-08
6.86578e-09
-3.84882e-08
1.34759e-08
-3.69844e-08
1.95589e-08
-3.40359e-08
2.48771e-08
-2.97579e-08
2.92228e-08
-2.43177e-08
3.24262e-08
-1.79279e-08
3.43623e-08
-1.08381e-08
3.49557e-08
-3.32549e-09
3.41832e-08
4.31647e-09
3.20753e-08
1.17891e-08
2.87145e-08
1.87994e-08
2.42332e-08
2.5068e-08
1.88133e-08
3.03237e-08
1.26946e-08
3.42384e-08
6.22559e-09
3.62063e-08
3.4855e-08
-7.57301e-09
4.2405e-08
-1.54411e-08
4.40451e-08
-2.28843e-08
4.16488e-08
-2.94771e-08
3.6886e-08
-3.49275e-08
3.04926e-08
-3.90151e-08
2.28651e-08
-4.1579e-08
1.4335e-08
-4.25188e-08
5.24192e-09
-4.17978e-08
-4.05764e-09
-3.94443e-08
-1.32001e-08
-3.55501e-08
-2.18283e-08
-3.02676e-08
-2.96048e-08
-2.38029e-08
-3.62256e-08
-1.64088e-08
-4.14319e-08
-8.37413e-09
-4.502e-08
-1.28519e-11
-4.68497e-08
8.34831e-09
-4.68492e-08
1.63826e-08
-4.50187e-08
2.37762e-08
-4.14295e-08
3.02402e-08
-3.6222e-08
3.5522e-08
-2.95998e-08
3.94154e-08
-2.18216e-08
4.17684e-08
-1.31916e-08
4.24893e-08
-4.04678e-09
4.155e-08
5.25534e-09
3.89875e-08
1.43512e-08
3.49022e-08
2.28843e-08
2.94554e-08
3.0515e-08
2.28668e-08
3.69106e-08
1.54291e-08
4.16755e-08
7.56764e-09
4.40703e-08
4.24213e-08
-9.20423e-09
5.16095e-08
-1.87685e-08
5.36074e-08
-2.78161e-08
5.06941e-08
-3.58305e-08
4.48983e-08
-4.24564e-08
3.71169e-08
-4.7426e-08
2.78335e-08
-5.05433e-08
1.74516e-08
-5.16865e-08
6.38465e-09
-5.08106e-08
-4.93361e-09
-4.795e-08
-1.60607e-08
-4.32163e-08
-2.65618e-08
-3.67944e-08
-3.60264e-08
-2.89353e-08
-4.40845e-08
-1.9946e-08
-5.0421e-08
-1.01778e-08
-5.47881e-08
-1.23898e-11
-5.7015e-08
1.01529e-08
-5.70146e-08
1.99209e-08
-5.47868e-08
2.89098e-08
-5.04186e-08
3.67685e-08
-4.4081e-08
4.31898e-08
-3.60215e-08
4.79231e-08
-2.65554e-08
5.07835e-08
-1.60525e-08
5.16595e-08
-4.92333e-09
5.05171e-08
6.39721e-09
4.74012e-08
1.74666e-08
4.2434e-08
2.78511e-08
3.58111e-08
3.71368e-08
2.78012e-08
4.49212e-08
1.87588e-08
5.07179e-08
9.1996e-09
5.36269e-08
5.16223e-08
-1.11913e-08
6.27953e-08
-2.28189e-08
6.52316e-08
-3.38191e-08
6.16918e-08
-4.35634e-08
5.46405e-08
-5.16198e-08
4.51718e-08
-5.76627e-08
3.38751e-08
-6.14537e-08
2.12417e-08
-6.28442e-08
7.77463e-09
-6.17799e-08
-5.99832e-09
-5.83021e-08
-1.95387e-08
-5.25466e-08
-3.23174e-08
-4.47382e-08
-4.38349e-08
-3.51819e-08
-5.36409e-08
-2.42511e-08
-6.13519e-08
-1.23731e-08
-6.66663e-08
-1.19244e-11
-6.93763e-08
1.23492e-08
-6.93759e-08
2.42271e-08
-6.6665e-08
3.51576e-08
-6.13495e-08
4.47136e-08
-5.36374e-08
5.25217e-08
-4.38302e-08
5.8277e-08
-3.23113e-08
6.17548e-08
-1.9531e-08
6.28195e-08
-5.9887e-09
6.14299e-08
7.78626e-09
5.76404e-08
2.12555e-08
5.15997e-08
3.38911e-08
4.35464e-08
4.51901e-08
3.38055e-08
5.46602e-08
2.28096e-08
6.17131e-08
1.11872e-08
6.52518e-08
6.2808e-08
-1.36076e-08
7.64034e-08
-2.77471e-08
7.93695e-08
-4.11236e-08
7.50663e-08
-5.29731e-08
6.64882e-08
-6.27705e-08
5.49676e-08
-7.01194e-08
4.12228e-08
-7.47301e-08
2.58514e-08
-7.64219e-08
9.46558e-09
-7.51283e-08
-7.29256e-09
-7.08995e-08
-2.37679e-08
-6.39007e-08
-3.93167e-08
-5.4405e-08
-5.33309e-08
-4.27835e-08
-6.52627e-08
-2.94902e-08
-7.46455e-08
-1.50446e-08
-8.11122e-08
-1.14688e-11
-8.44099e-08
1.50216e-08
-8.44094e-08
2.94671e-08
-8.11109e-08
4.27602e-08
-7.46433e-08
5.43816e-08
-6.52594e-08
6.38772e-08
-5.33264e-08
7.0876e-08
-3.93109e-08
7.5105e-08
-2.37607e-08
7.63992e-08
-7.28368e-09
7.47084e-08
9.47623e-09
7.00992e-08
2.58639e-08
6.27525e-08
4.12372e-08
5.29576e-08
5.49836e-08
4.11119e-08
6.65066e-08
2.77396e-08
7.50851e-08
1.3604e-08
7.93844e-08
7.64132e-08
-1.65491e-08
9.29476e-08
-3.37437e-08
9.65612e-08
-5.00113e-08
9.13316e-08
-6.44221e-08
8.08971e-08
-7.63376e-08
6.68815e-08
-8.52758e-08
5.01596e-08
-9.08841e-08
3.14585e-08
-9.29424e-08
1.1523e-08
-9.13699e-08
-8.86587e-09
-8.62276e-08
-2.8911e-08
-7.77161e-08
-4.78289e-08
-6.61675e-08
-6.48801e-08
-5.20331e-08
-7.93977e-08
-3.58651e-08
-9.08141e-08
-1.82955e-08
-9.86824e-08
-1.10288e-11
-1.02695e-07
1.82734e-08
-1.02695e-07
3.5843e-08
-9.86812e-08
5.20109e-08
-9.08119e-08
6.61453e-08
-7.93946e-08
7.76939e-08
-6.48759e-08
8.62056e-08
-4.78235e-08
9.13483e-08
-2.89043e-08
9.29215e-08
-8.85776e-09
9.08642e-08
1.15326e-08
8.52574e-08
3.14697e-08
7.63213e-08
5.01724e-08
6.44085e-08
6.68961e-08
5.00003e-08
8.09124e-08
3.37363e-08
9.13482e-08
1.65458e-08
9.65771e-08
9.29573e-08
-2.01261e-08
1.13074e-07
-4.10386e-08
1.17472e-07
-6.08235e-08
1.11115e-07
-7.83507e-08
9.84226e-08
-9.28435e-08
8.13726e-08
-1.03715e-07
6.103e-08
-1.10538e-07
3.82793e-08
-1.13042e-07
1.40264e-08
-1.11131e-07
-1.07784e-08
-1.04877e-07
-3.51654e-08
-9.45253e-08
-5.81816e-08
-8.04791e-08
-7.8927e-08
-6.32873e-08
-9.65903e-08
-4.36217e-08
-1.1048e-07
-2.2251e-08
-1.20054e-07
-1.06153e-11
-1.24936e-07
2.22297e-08
-1.24936e-07
4.36005e-08
-1.20053e-07
6.32661e-08
-1.10479e-07
8.0458e-08
-9.65875e-08
9.45043e-08
-7.89232e-08
1.04856e-07
-5.81768e-08
1.1111e-07
-3.51594e-08
1.13023e-07
-1.07711e-08
1.10519e-07
1.4035e-08
1.03699e-07
3.82893e-08
9.28287e-08
6.10414e-08
7.83381e-08
8.1385e-08
6.08141e-08
9.8437e-08
4.10325e-08
1.11129e-07
2.01231e-08
1.17483e-07
1.13082e-07
-2.44788e-08
1.37549e-07
-4.99131e-08
1.42904e-07
-7.39769e-08
1.35176e-07
-9.52952e-08
1.19739e-07
-1.12923e-07
9.8999e-08
-1.26148e-07
7.42531e-08
-1.34447e-07
4.65771e-08
-1.37495e-07
1.70731e-08
-1.35172e-07
-1.3103e-08
-1.27567e-07
-4.27717e-08
-1.14976e-07
-7.07732e-08
-9.78917e-08
-9.60127e-08
-7.69803e-08
-1.17503e-07
-5.30593e-08
-1.34403e-07
-2.70637e-08
-1.46051e-07
-1.0232e-11
-1.51991e-07
2.70433e-08
-1.5199e-07
5.30389e-08
-1.4605e-07
7.696e-08
-1.34401e-07
9.78715e-08
-1.175e-07
1.14956e-07
-9.60093e-08
1.27547e-07
-7.07689e-08
1.35153e-07
-4.27663e-08
1.37477e-07
-1.30966e-08
1.3443e-07
1.70807e-08
1.26132e-07
4.65858e-08
1.1291e-07
7.4263e-08
9.5284e-08
9.90102e-08
7.39678e-08
1.1975e-07
4.99069e-08
1.35189e-07
2.4476e-08
1.42916e-07
1.37556e-07
-2.97722e-08
1.67321e-07
-6.07077e-08
1.73838e-07
-8.99766e-08
1.64443e-07
-1.15907e-07
1.45668e-07
-1.3735e-07
1.2044e-07
-1.53437e-07
9.03386e-08
-1.63534e-07
5.66723e-08
-1.67243e-07
2.07813e-08
-1.6442e-07
-1.59283e-08
-1.55171e-07
-5.20218e-08
-1.39857e-07
-8.6088e-08
-1.19077e-07
-1.16795e-07
-9.36401e-08
-1.42941e-07
-6.45418e-08
-1.63502e-07
-3.29195e-08
-1.77674e-07
-9.88747e-12
-1.84902e-07
3.28997e-08
-1.84901e-07
6.45221e-08
-1.77673e-07
9.36205e-08
-1.63501e-07
1.19057e-07
-1.42938e-07
1.39838e-07
-1.16792e-07
1.55152e-07
-8.60842e-08
1.64402e-07
-5.20171e-08
1.67226e-07
-1.59228e-08
1.63518e-07
2.07879e-08
1.53423e-07
5.66799e-08
1.37337e-07
9.0347e-08
1.15896e-07
1.20449e-07
8.99688e-08
1.45678e-07
6.07026e-08
1.64454e-07
2.97696e-08
1.73846e-07
1.67326e-07
-3.62119e-08
2.03529e-07
-7.38383e-08
2.11461e-07
-1.09439e-07
2.00041e-07
-1.40979e-07
1.77206e-07
-1.67062e-07
1.46521e-07
-1.86633e-07
1.09907e-07
-1.98917e-07
6.89549e-08
-2.03433e-07
2.52953e-08
-2.00001e-07
-1.93617e-08
-1.88754e-07
-6.32707e-08
-1.70128e-07
-1.04715e-07
-1.44851e-07
-1.42073e-07
-1.13909e-07
-1.73884e-07
-7.85124e-08
-1.98901e-07
-4.00442e-08
-2.16144e-07
-9.58404e-12
-2.24938e-07
4.0025e-08
-2.24937e-07
7.84934e-08
-2.16143e-07
1.13891e-07
-1.98899e-07
1.44833e-07
-1.73882e-07
1.7011e-07
-1.42071e-07
1.88736e-07
-1.04712e-07
1.99984e-07
-6.32668e-08
2.03417e-07
-1.9357e-08
1.98902e-07
2.53008e-08
1.86619e-07
6.89612e-08
1.67051e-07
1.09914e-07
1.4097e-07
1.46529e-07
1.09431e-07
1.77214e-07
7.3833e-08
2.0005e-07
3.62094e-08
2.1147e-07
2.03534e-07
-4.40434e-08
2.47572e-07
-8.98085e-08
2.57225e-07
-1.3311e-07
2.43341e-07
-1.71476e-07
2.15569e-07
-2.03204e-07
1.78248e-07
-2.27012e-07
1.33713e-07
-2.41959e-07
8.38997e-08
-2.47457e-07
3.07911e-08
-2.43287e-07
-2.35332e-08
-2.2961e-07
-7.69499e-08
-2.06956e-07
-1.2737e-07
-1.7621e-07
-1.72822e-07
-1.38571e-07
-2.11525e-07
-9.55104e-08
-2.41963e-07
-4.87129e-08
-2.62943e-07
-9.32886e-12
-2.73643e-07
4.86943e-08
-2.73643e-07
9.5492e-08
-2.62943e-07
1.38552e-07
-2.41962e-07
1.76192e-07
-2.11523e-07
2.06939e-07
-1.7282e-07
2.29593e-07
-1.27368e-07
2.43271e-07
-7.69467e-08
2.47441e-07
-2.35294e-08
2.41945e-07
3.07956e-08
2.26999e-07
8.39049e-08
2.03193e-07
1.33718e-07
1.71466e-07
1.78254e-07
1.33103e-07
2.15577e-07
8.98039e-08
2.43348e-07
4.40411e-08
2.5723e-07
2.47575e-07
-5.35692e-08
3.01137e-07
-1.09233e-07
3.12885e-07
-1.61902e-07
2.96008e-07
-2.08568e-07
2.62234e-07
-2.47165e-07
2.16842e-07
-2.76129e-07
1.62675e-07
-2.94316e-07
1.02085e-07
-3.01011e-07
3.74834e-08
-2.95946e-07
-2.86004e-08
-2.79314e-07
-9.35835e-08
-2.51762e-07
-1.54925e-07
-2.14362e-07
-2.10223e-07
-1.68576e-07
-2.57313e-07
-1.16192e-07
-2.94349e-07
-5.92606e-08
-3.19877e-07
-9.12343e-12
-3.32897e-07
5.92424e-08
-3.32897e-07
1.16174e-07
-3.19877e-07
1.68558e-07
-2.94348e-07
2.14345e-07
-2.57312e-07
2.51745e-07
-2.10222e-07
2.79298e-07
-1.54923e-07
2.9593e-07
-9.3581e-08
3.00996e-07
-2.85975e-08
2.94303e-07
3.74868e-08
2.76117e-07
1.02089e-07
2.47154e-07
1.62679e-07
2.0856e-07
2.16847e-07
1.61894e-07
2.62239e-07
1.09228e-07
2.96013e-07
5.35668e-08
3.12891e-07
3.0114e-07
-6.51534e-08
3.6629e-07
-1.32855e-07
3.80585e-07
-1.96918e-07
3.60067e-07
-2.53682e-07
3.18996e-07
-3.00634e-07
2.63791e-07
-3.35872e-07
1.9791e-07
-3.58004e-07
1.24215e-07
-3.66158e-07
4.56344e-08
-3.60006e-07
-3.47539e-08
-3.39784e-07
-1.13808e-07
-3.06274e-07
-1.88436e-07
-2.60783e-07
-2.55717e-07
-2.05085e-07
-3.13013e-07
-1.41358e-07
-3.58078e-07
-7.2095e-08
-3.89142e-07
-8.97366e-12
-4.04985e-07
7.20771e-08
-4.04985e-07
1.4134e-07
-3.89142e-07
2.05067e-07
-3.58078e-07
2.60766e-07
-3.13013e-07
3.06258e-07
-2.55716e-07
3.39768e-07
-1.88435e-07
3.59991e-07
-1.13806e-07
3.66143e-07
-3.47519e-08
3.57991e-07
4.56367e-08
3.3586e-07
1.24217e-07
3.00624e-07
1.97914e-07
2.53674e-07
2.63795e-07
1.96911e-07
3.19001e-07
1.32851e-07
3.60072e-07
6.51512e-08
3.80588e-07
3.66292e-07
-7.92416e-08
4.45528e-07
-1.61584e-07
4.62924e-07
-2.39503e-07
4.37984e-07
-3.0855e-07
3.8804e-07
-3.65666e-07
3.20905e-07
-4.08539e-07
2.40781e-07
-4.35473e-07
1.51147e-07
-4.45406e-07
5.55646e-08
-4.37938e-07
-4.2224e-08
-4.13352e-07
-1.38397e-07
-3.72598e-07
-2.29193e-07
-3.17264e-07
-3.11054e-07
-2.49508e-07
-3.80772e-07
-1.71979e-07
-4.35609e-07
-8.77123e-08
-4.73411e-07
-8.88091e-12
-4.92691e-07
8.76946e-08
-4.92691e-07
1.71961e-07
-4.73411e-07
2.4949e-07
-4.35609e-07
3.17247e-07
-3.80772e-07
3.72582e-07
-3.11054e-07
4.13336e-07
-2.29192e-07
4.37924e-07
-1.38396e-07
4.45392e-07
-4.22229e-08
4.35461e-07
5.55659e-08
4.08528e-07
1.51148e-07
3.65656e-07
2.40783e-07
3.08542e-07
3.20907e-07
2.39496e-07
3.88042e-07
1.6158e-07
4.37987e-07
7.92392e-08
4.62928e-07
4.45529e-07
-9.63727e-08
5.41899e-07
-1.96519e-07
5.63069e-07
-2.9129e-07
5.32752e-07
-3.75276e-07
4.72024e-07
-4.44758e-07
3.90384e-07
-4.96922e-07
2.92942e-07
-5.29704e-07
1.83926e-07
-5.41808e-07
6.7666e-08
-5.32746e-07
-5.12887e-08
-5.02857e-07
-1.68289e-07
-4.53296e-07
-2.78757e-07
-3.85989e-07
-3.78364e-07
-3.03563e-07
-4.63201e-07
-2.09242e-07
-5.29934e-07
-1.06717e-07
-5.75938e-07
-8.85041e-12
-5.99403e-07
1.067e-07
-5.99403e-07
2.09224e-07
-5.75938e-07
3.03546e-07
-5.29934e-07
3.85972e-07
-4.63201e-07
4.53279e-07
-3.78364e-07
5.02842e-07
-2.78757e-07
5.32732e-07
-1.68289e-07
5.41795e-07
-5.12885e-08
5.29692e-07
6.76663e-08
4.96911e-07
1.83927e-07
4.44748e-07
2.92943e-07
3.75268e-07
3.90385e-07
2.91284e-07
4.72026e-07
1.96515e-07
5.32753e-07
9.63706e-08
5.63069e-07
5.419e-07
-1.17203e-07
6.59099e-07
-2.38999e-07
6.84861e-07
-3.54264e-07
6.48013e-07
-4.56421e-07
5.74178e-07
-5.40946e-07
4.74907e-07
-6.04417e-07
3.56411e-07
-6.44321e-07
2.23827e-07
-6.59076e-07
8.24185e-08
-6.48085e-07
-6.22829e-08
-6.11754e-07
-2.04623e-07
-5.51484e-07
-3.3903e-07
-4.69617e-07
-4.60235e-07
-3.69344e-07
-5.63476e-07
-2.54589e-07
-6.44692e-07
-1.29847e-07
-7.00684e-07
-8.88367e-12
-7.29243e-07
1.29829e-07
-7.29243e-07
2.54572e-07
-7.00684e-07
3.69327e-07
-6.44693e-07
4.696e-07
-5.63477e-07
5.51468e-07
-4.60235e-07
6.11739e-07
-3.39031e-07
6.48071e-07
-2.04623e-07
6.59063e-07
-6.22837e-08
6.44309e-07
8.24178e-08
6.04406e-07
2.23826e-07
5.40937e-07
3.5641e-07
4.56413e-07
4.74907e-07
3.54257e-07
5.74177e-07
2.38995e-07
6.48014e-07
1.17201e-07
6.84862e-07
6.59098e-07
-1.42529e-07
8.01627e-07
-2.90648e-07
8.32978e-07
-4.30834e-07
7.88196e-07
-5.55091e-07
6.98433e-07
-6.57919e-07
5.77731e-07
-7.35153e-07
4.33641e-07
-7.83731e-07
2.72402e-07
-8.01727e-07
1.00411e-07
-7.88403e-07
-7.56093e-08
-7.4425e-07
-2.4878e-07
-6.70962e-07
-4.12321e-07
-5.71385e-07
-5.59815e-07
-4.49401e-07
-6.85464e-07
-3.0978e-07
-7.84316e-07
-1.57997e-07
-8.5247e-07
-8.9852e-12
-8.87235e-07
1.5798e-07
-8.87235e-07
3.09763e-07
-8.52471e-07
4.49383e-07
-7.84316e-07
5.71368e-07
-6.85465e-07
6.70946e-07
-5.59816e-07
7.44234e-07
-4.12322e-07
7.88389e-07
-2.48781e-07
8.01713e-07
-7.56111e-08
7.83719e-07
1.00409e-07
7.35142e-07
2.72401e-07
6.5791e-07
4.3364e-07
5.55083e-07
5.77729e-07
4.30828e-07
6.98432e-07
2.90644e-07
7.88195e-07
1.42527e-07
8.32976e-07
8.01625e-07
-1.73319e-07
9.74941e-07
-3.53441e-07
1.0131e-06
-5.23929e-07
9.58681e-07
-6.75065e-07
8.49566e-07
-8.00159e-07
7.02823e-07
-8.94145e-07
5.27624e-07
-9.53294e-07
3.31548e-07
-9.75252e-07
1.22365e-07
-9.59113e-07
-9.17509e-08
-9.05462e-07
-3.02434e-07
-8.16353e-07
-5.01433e-07
-6.95238e-07
-6.80933e-07
-5.46838e-07
-8.33867e-07
-3.76959e-07
-9.54198e-07
-1.92264e-07
-1.03717e-06
-9.15712e-12
-1.07949e-06
1.92246e-07
-1.07949e-06
3.76941e-07
-1.03717e-06
5.46821e-07
-9.542e-07
6.95221e-07
-8.33869e-07
8.16337e-07
-6.80935e-07
9.05447e-07
-5.01435e-07
9.59099e-07
-3.02437e-07
9.75238e-07
-9.17536e-08
9.53282e-07
1.22362e-07
8.94134e-07
3.31545e-07
8.0015e-07
5.27621e-07
6.75057e-07
7.0282e-07
5.23923e-07
8.49562e-07
3.53437e-07
9.58679e-07
1.73316e-07
1.0131e-06
9.74939e-07
-2.10744e-07
1.18568e-06
-4.29772e-07
1.23212e-06
-6.37103e-07
1.16601e-06
-8.20927e-07
1.03339e-06
-9.73112e-07
8.55004e-07
-1.08749e-06
6.42001e-07
-1.15952e-06
4.03577e-07
-1.18633e-06
1.4917e-07
-1.1668e-06
-1.11285e-07
-1.10163e-06
-3.67614e-07
-9.9329e-07
-6.09773e-07
-8.45983e-07
-8.28243e-07
-6.65445e-07
-1.01441e-06
-4.58739e-07
-1.16091e-06
-2.3398e-07
-1.26193e-06
-9.40354e-12
-1.31347e-06
2.33962e-07
-1.31347e-06
4.58721e-07
-1.26193e-06
6.65427e-07
-1.16091e-06
8.45966e-07
-1.01441e-06
9.93273e-07
-8.28246e-07
1.10161e-06
-6.09776e-07
1.16679e-06
-3.67617e-07
1.18632e-06
-1.11288e-07
1.15951e-06
1.49167e-07
1.08748e-06
4.03573e-07
9.73103e-07
6.41997e-07
8.20919e-07
8.55e-07
6.37097e-07
1.03338e-06
4.29767e-07
1.16601e-06
2.10742e-07
1.23212e-06
1.18568e-06
-2.56231e-07
1.44191e-06
-5.22546e-07
1.49843e-06
-7.74668e-07
1.41813e-06
-9.98244e-07
1.25696e-06
-1.18339e-06
1.04015e-06
-1.3226e-06
7.81209e-07
-1.41034e-06
4.91315e-07
-1.4431e-06
1.81922e-07
-1.41949e-06
-1.34898e-07
-1.34033e-06
-4.46772e-07
-1.20864e-06
-7.41473e-07
-1.02948e-06
-1.0074e-06
-8.09839e-07
-1.23405e-06
-5.58309e-07
-1.41244e-06
-2.84775e-07
-1.53547e-06
-9.72775e-12
-1.59824e-06
2.84755e-07
-1.59824e-06
5.5829e-07
-1.53547e-06
8.0982e-07
-1.41244e-06
1.02946e-06
-1.23406e-06
1.20862e-06
-1.00741e-06
1.34032e-06
-7.41477e-07
1.41947e-06
-4.46776e-07
1.44308e-06
-1.34903e-07
1.41033e-06
1.81917e-07
1.32259e-06
4.91309e-07
1.18338e-06
7.81204e-07
9.98237e-07
1.04014e-06
7.74661e-07
1.25695e-06
5.22542e-07
1.41812e-06
2.56228e-07
1.49843e-06
1.44191e-06
-3.11505e-07
1.75341e-06
-6.35288e-07
1.82221e-06
-9.41856e-07
1.72469e-06
-1.21377e-06
1.52887e-06
-1.43902e-06
1.26539e-06
-1.60847e-06
9.50656e-07
-1.71537e-06
5.98215e-07
-1.75543e-06
2.21973e-07
-1.72692e-06
-1.63406e-07
-1.63083e-06
-5.42873e-07
-1.47076e-06
-9.01546e-07
-1.25287e-06
-1.22529e-06
-9.85656e-07
-1.50128e-06
-6.79562e-07
-1.71854e-06
-3.46634e-07
-1.8684e-06
-1.01331e-11
-1.94487e-06
3.46614e-07
-1.94487e-06
6.79542e-07
-1.8684e-06
9.85636e-07
-1.71854e-06
1.25286e-06
-1.50128e-06
1.47074e-06
-1.22529e-06
1.63081e-06
-9.01551e-07
1.72691e-06
-5.42878e-07
1.75541e-06
-1.63411e-07
1.71536e-06
2.21967e-07
1.60846e-06
5.98208e-07
1.43901e-06
9.5065e-07
1.21376e-06
1.26538e-06
9.4185e-07
1.52887e-06
6.35283e-07
1.72469e-06
3.11503e-07
1.82221e-06
1.75341e-06
-3.78657e-07
2.13207e-06
-7.72269e-07
2.21582e-06
-1.14501e-06
2.09743e-06
-1.4757e-06
1.85956e-06
-1.74974e-06
1.53943e-06
-1.95603e-06
1.15694e-06
-2.08632e-06
7.28502e-07
-2.13535e-06
2.71e-07
-2.10099e-06
-1.97765e-07
-1.98437e-06
-6.59496e-07
-1.78985e-06
-1.09607e-06
-1.52489e-06
-1.49025e-06
-1.19978e-06
-1.82639e-06
-8.27252e-07
-2.09107e-06
-4.21989e-07
-2.27367e-06
-1.06248e-11
-2.36685e-06
4.21968e-07
-2.36685e-06
8.27231e-07
-2.27367e-06
1.19976e-06
-2.09107e-06
1.52487e-06
-1.8264e-06
1.78983e-06
-1.49026e-06
1.98435e-06
-1.09608e-06
2.10097e-06
-6.59502e-07
2.13533e-06
-1.97772e-07
2.0863e-06
2.70993e-07
1.95601e-06
7.28495e-07
1.74973e-06
1.15693e-06
1.47569e-06
1.53942e-06
1.145e-06
1.85955e-06
7.72266e-07
2.09742e-06
3.78654e-07
2.21582e-06
2.13206e-06
-4.60222e-07
2.59229e-06
-9.38661e-07
2.69426e-06
-1.39181e-06
2.55058e-06
-1.79396e-06
2.26171e-06
-2.12738e-06
1.87284e-06
-2.37853e-06
1.40809e-06
-2.53738e-06
8.87352e-07
-2.59747e-06
3.31086e-07
-2.55615e-06
-2.39096e-07
-2.4147e-06
-8.0095e-07
-2.17836e-06
-1.33241e-06
-1.85617e-06
-1.81245e-06
-1.46061e-06
-2.22195e-06
-1.00719e-06
-2.54449e-06
-5.13809e-07
-2.76706e-06
-1.1205e-11
-2.88065e-06
5.13786e-07