/*--------------------------------*- C++ -*----------------------------------*\
  =========                 |
  \\      /  F ield         | OpenFOAM: The Open Source CFD Toolbox
   \\    /   O peration     | Website:  https://openfoam.org
    \\  /    A nd           | Version:  9
     \\/     M anipulation  |
\*---------------------------------------------------------------------------*/
FoamFile
{
    format      ascii;
    class       volVectorField;
    location    "0.05";
    object      U;
}
// * * * * * * * * * * * * * * * * * * * * * * * * * * * * * * * * * * * * * //

dimensions      [0 1 -1 0 0 0 0];

internalField   nonuniform List<vector> 
4096
(
(3.83357e-08 4.36727e-08 0)
(-3.18934e-07 -7.85378e-08 0)
(-7.45395e-07 1.76055e-08 0)
(-7.69233e-07 5.38538e-08 0)
(-8.31101e-07 5.53627e-08 0)
(-9.10994e-07 4.46043e-08 0)
(-9.72004e-07 2.92458e-08 0)
(-1.0032e-06 1.14297e-08 0)
(-1.00029e-06 -7.20603e-09 0)
(-9.60954e-07 -2.56175e-08 0)
(-8.8544e-07 -4.29896e-08 0)
(-7.76082e-07 -5.86363e-08 0)
(-6.36846e-07 -7.1947e-08 0)
(-4.73018e-07 -8.24173e-08 0)
(-2.90906e-07 -8.964e-08 0)
(-9.75621e-08 -9.33447e-08 0)
(9.95078e-08 -9.33842e-08 0)
(2.92641e-07 -8.97672e-08 0)
(4.74318e-07 -8.26313e-08 0)
(6.37463e-07 -7.22627e-08 0)
(7.75719e-07 -5.9063e-08 0)
(8.83695e-07 -4.35539e-08 0)
(9.57181e-07 -2.63383e-08 0)
(9.93318e-07 -8.09287e-09 0)
(9.90705e-07 1.04721e-08 0)
(9.49454e-07 2.86275e-08 0)
(8.71176e-07 4.56676e-08 0)
(7.5894e-07 6.09137e-08 0)
(6.1704e-07 7.36793e-08 0)
(4.51449e-07 8.32761e-08 0)
(2.71559e-07 8.81701e-08 0)
(8.6154e-08 8.48729e-08 0)
(-7.7469e-08 1.90641e-07 0)
(-3.75483e-07 1.75409e-08 0)
(-6.78602e-07 1.48287e-07 0)
(-8.12624e-07 1.98128e-07 0)
(-9.24977e-07 1.84155e-07 0)
(-1.02429e-06 1.4487e-07 0)
(-1.09418e-06 9.36994e-08 0)
(-1.12895e-06 3.60534e-08 0)
(-1.12479e-06 -2.39282e-08 0)
(-1.07983e-06 -8.31509e-08 0)
(-9.9459e-07 -1.3909e-07 0)
(-8.71697e-07 -1.89492e-07 0)
(-7.15566e-07 -2.32404e-07 0)
(-5.32072e-07 -2.66152e-07 0)
(-3.28234e-07 -2.89441e-07 0)
(-1.11914e-07 -3.01363e-07 0)
(1.08519e-07 -3.01467e-07 0)
(3.24512e-07 -2.89754e-07 0)
(5.27678e-07 -2.66688e-07 0)
(7.10116e-07 -2.33174e-07 0)
(8.64731e-07 -1.90526e-07 0)
(9.85504e-07 -1.40413e-07 0)
(1.06774e-06 -8.47968e-08 0)
(1.10824e-06 -2.58504e-08 0)
(1.10546e-06 3.41205e-08 0)
(1.05951e-06 9.27713e-08 0)
(9.72206e-07 1.47805e-07 0)
(8.46935e-07 1.97034e-07 0)
(6.88597e-07 2.38314e-07 0)
(5.03815e-07 2.6915e-07 0)
(3.03082e-07 2.84989e-07 0)
(9.61892e-08 2.74316e-07 0)
(-1.12757e-07 4.23248e-07 0)
(-3.98297e-07 3.713e-07 0)
(-6.68612e-07 3.98142e-07 0)
(-8.54092e-07 3.87318e-07 0)
(-1.00177e-06 3.32903e-07 0)
(-1.1177e-06 2.55164e-07 0)
(-1.19766e-06 1.62479e-07 0)
(-1.23723e-06 6.10677e-08 0)
(-1.23311e-06 -4.3664e-08 0)
(-1.1839e-06 -1.46962e-07 0)
(-1.09051e-06 -2.44546e-07 0)
(-9.55921e-07 -3.32518e-07 0)
(-7.85013e-07 -4.0743e-07 0)
(-5.84206e-07 -4.66354e-07 0)
(-3.61179e-07 -5.07e-07 0)
(-1.24517e-07 -5.27783e-07 0)
(1.16628e-07 -5.27901e-07 0)
(3.52912e-07 -5.07354e-07 0)
(5.75163e-07 -4.66952e-07 0)
(7.74748e-07 -4.08276e-07 0)
(9.43907e-07 -3.33626e-07 0)
(1.07607e-06 -2.45918e-07 0)
(1.16609e-06 -1.48585e-07 0)
(1.21049e-06 -4.54299e-08 0)
(1.20755e-06 5.95133e-08 0)
(1.15742e-06 1.62143e-07 0)
(1.06209e-06 2.58436e-07 0)
(9.25268e-07 3.44564e-07 0)
(7.52225e-07 4.16788e-07 0)
(5.5041e-07 4.70802e-07 0)
(3.31156e-07 4.98473e-07 0)
(1.05025e-07 4.79898e-07 0)
(-1.28047e-07 6.6323e-07 0)
(-4.19747e-07 6.6066e-07 0)
(-6.95268e-07 6.42242e-07 0)
(-9.16546e-07 5.86915e-07 0)
(-1.09329e-06 4.95263e-07 0)
(-1.22976e-06 3.76185e-07 0)
(-1.3232e-06 2.3802e-07 0)
(-1.36975e-06 8.83283e-08 0)
(-1.36656e-06 -6.58022e-08 0)
(-1.3127e-06 -2.17755e-07 0)
(-1.20948e-06 -3.61312e-07 0)
(-1.06039e-06 -4.90763e-07 0)
(-8.70903e-07 -6.01004e-07 0)
(-6.48195e-07 -6.87724e-07 0)
(-4.0079e-07 -7.47527e-07 0)
(-1.38231e-07 -7.78085e-07 0)
(1.29324e-07 -7.78202e-07 0)
(3.91499e-07 -7.47883e-07 0)
(6.38114e-07 -6.88311e-07 0)
(8.59585e-07 -6.01824e-07 0)
(1.0473e-06 -4.91799e-07 0)
(1.19396e-06 -3.62543e-07 0)
(1.29386e-06 -2.19106e-07 0)
(1.34313e-06 -6.70965e-08 0)
(1.33988e-06 8.75458e-08 0)
(1.28426e-06 2.38773e-07 0)
(1.17847e-06 3.80658e-07 0)
(1.02661e-06 5.07552e-07 0)
(8.3466e-07 6.13982e-07 0)
(6.10662e-07 6.93519e-07 0)
(3.67369e-07 7.34283e-07 0)
(1.16552e-07 7.06872e-07 0)
(-1.42485e-07 9.21814e-07 0)
(-4.56426e-07 9.42931e-07 0)
(-7.54524e-07 8.98477e-07 0)
(-1.01049e-06 8.08354e-07 0)
(-1.22015e-06 6.76565e-07 0)
(-1.38203e-06 5.11536e-07 0)
(-1.49269e-06 3.22522e-07 0)
(-1.54835e-06 1.18731e-07 0)
(-1.54642e-06 -9.07996e-08 0)
(-1.48635e-06 -2.97295e-07 0)
(-1.36991e-06 -4.92398e-07 0)
(-1.20125e-06 -6.68344e-07 0)
(-9.8666e-07 -8.18198e-07 0)
(-7.343e-07 -9.36074e-07 0)
(-4.53876e-07 -1.01736e-06 0)
(-1.5622e-07 -1.05886e-06 0)
(1.47133e-07 -1.05897e-06 0)
(4.4441e-07 -1.01768e-06 0)
(7.24057e-07 -9.3661e-07 0)
(9.75199e-07 -8.18921e-07 0)
(1.18806e-06 -6.69221e-07 0)
(1.35437e-06 -4.93359e-07 0)
(1.46765e-06 -2.98212e-07 0)
(1.52351e-06 -9.14044e-08 0)
(1.5198e-06 1.1898e-07 0)
(1.45669e-06 3.24715e-07 0)
(1.33666e-06 5.17736e-07 0)
(1.16443e-06 6.90361e-07 0)
(9.46603e-07 8.35121e-07 0)
(6.92579e-07 9.43329e-07 0)
(4.16642e-07 9.9866e-07 0)
(1.32114e-07 9.61315e-07 0)
(-1.6086e-07 1.21923e-06 0)
(-5.10671e-07 1.25659e-06 0)
(-8.45927e-07 1.19068e-06 0)
(-1.14405e-06 1.06285e-06 0)
(-1.39238e-06 8.84954e-07 0)
(-1.58507e-06 6.66963e-07 0)
(-1.71713e-06 4.19498e-07 0)
(-1.78424e-06 1.536e-07 0)
(-1.78378e-06 -1.19449e-07 0)
(-1.71547e-06 -3.88454e-07 0)
(-1.58161e-06 -6.42603e-07 0)
(-1.38715e-06 -8.71806e-07 0)
(-1.13942e-06 -1.06702e-06 0)
(-8.47927e-07 -1.22058e-06 0)
(-5.23915e-07 -1.32645e-06 0)
(-1.79928e-07 -1.3805e-06 0)
(1.70685e-07 -1.38059e-06 0)
(5.14303e-07 -1.32673e-06 0)
(8.37559e-07 -1.22102e-06 0)
(1.12787e-06 -1.0676e-06 0)
(1.37395e-06 -8.72446e-07 0)
(1.56619e-06 -6.43203e-07 0)
(1.69714e-06 -3.88825e-07 0)
(1.7617e-06 -1.19253e-07 0)
(1.75737e-06 1.54978e-07 0)
(1.68436e-06 4.23146e-07 0)
(1.54556e-06 6.74739e-07 0)
(1.34633e-06 8.99739e-07 0)
(1.09453e-06 1.08843e-06 0)
(8.00704e-07 1.2294e-06 0)
(4.81589e-07 1.30144e-06 0)
(1.52779e-07 1.25267e-06 0)
(-1.85649e-07 1.56509e-06 0)
(-5.8713e-07 1.61819e-06 0)
(-9.73788e-07 1.52975e-06 0)
(-1.32333e-06 1.36e-06 0)
(-1.61799e-06 1.12877e-06 0)
(-1.84799e-06 8.4889e-07 0)
(-2.00626e-06 5.3302e-07 0)
(-2.08746e-06 1.94516e-07 0)
(-2.08864e-06 -1.52713e-07 0)
(-2.00966e-06 -4.94649e-07 0)
(-1.85342e-06 -8.17656e-07 0)
(-1.62581e-06 -1.10895e-06 0)
(-1.33554e-06 -1.35704e-06 0)
(-9.93807e-07 -1.55218e-06 0)
(-6.13828e-07 -1.68671e-06 0)
(-2.10348e-07 -1.75536e-06 0)
(2.00954e-07 -1.75544e-06 0)
(6.04081e-07 -1.68692e-06 0)
(9.83338e-07 -1.5525e-06 0)
(1.32396e-06 -1.35742e-06 0)
(1.61267e-06 -1.1093e-06 0)
(1.83823e-06 -8.17837e-07 0)
(1.99186e-06 -4.94427e-07 0)
(2.06758e-06 -1.51704e-07 0)
(2.06247e-06 1.96938e-07 0)
(1.97675e-06 5.37869e-07 0)
(1.81381e-06 8.57725e-07 0)
(1.58002e-06 1.14377e-06 0)
(1.28437e-06 1.38364e-06 0)
(9.39598e-07 1.56283e-06 0)
(5.65111e-07 1.65421e-06 0)
(1.79185e-07 1.59216e-06 0)
(-2.17296e-07 1.97085e-06 0)
(-6.86528e-07 2.04109e-06 0)
(-1.14052e-06 1.92809e-06 0)
(-1.55453e-06 1.71064e-06 0)
(-1.90585e-06 1.41717e-06 0)
(-2.18134e-06 1.06432e-06 0)
(-2.37161e-06 6.67566e-07 0)
(-2.47e-06 2.43176e-07 0)
(-2.47296e-06 -1.91761e-07 0)
(-2.38043e-06 -6.19892e-07 0)
(-2.19593e-06 -1.02424e-06 0)
(-1.92654e-06 -1.38886e-06 0)
(-1.58266e-06 -1.69939e-06 0)
(-1.17761e-06 -1.94363e-06 0)
(-7.271e-07 -2.112e-06 0)
(-2.48646e-07 -2.19789e-06 0)
(2.39139e-07 -2.19794e-06 0)
(7.1726e-07 -2.11213e-06 0)
(1.16709e-06 -1.94381e-06 0)
(1.57111e-06 -1.69955e-06 0)
(1.91356e-06 -1.38889e-06 0)
(2.18111e-06 -1.02399e-06 0)
(2.36332e-06 -6.19083e-07 0)
(2.45311e-06 -1.90005e-07 0)
(2.447e-06 2.46479e-07 0)
(2.34527e-06 6.73308e-07 0)
(2.15191e-06 1.07375e-06 0)
(1.87444e-06 1.43186e-06 0)
(1.52378e-06 1.73215e-06 0)
(1.11461e-06 1.95638e-06 0)
(6.70251e-07 2.0706e-06 0)
(2.1262e-07 1.99281e-06 0)
(-2.57856e-07 2.45234e-06 0)
(-8.14e-07 2.54221e-06 0)
(-1.35295e-06 2.40098e-06 0)
(-1.84652e-06 2.12799e-06 0)
(-2.26721e-06 1.76107e-06 0)
(-2.5982e-06 1.32151e-06 0)
(-2.82752e-06 8.28364e-07 0)
(-2.9468e-06 3.01536e-07 0)
(-2.95171e-06 -2.38015e-07 0)
(-2.84215e-06 -7.68932e-07 0)
(-2.62239e-06 -1.27027e-06 0)
(-2.30096e-06 -1.72229e-06 0)
(-1.89031e-06 -2.10723e-06 0)
(-1.40642e-06 -2.40998e-06 0)
(-8.68092e-07 -2.61867e-06 0)
(-2.96288e-07 -2.72511e-06 0)
(2.86722e-07 -2.72513e-06 0)
(8.5822e-07 -2.61871e-06 0)
(1.39593e-06 -2.41e-06 0)
(1.87888e-06 -2.10715e-06 0)
(2.28824e-06 -1.72199e-06 0)
(2.60805e-06 -1.26958e-06 0)
(2.82585e-06 -7.67585e-07 0)
(2.93315e-06 -2.35624e-07 0)
(2.9258e-06 3.05517e-07 0)
(2.80412e-06 8.34683e-07 0)
(2.57288e-06 1.33113e-06 0)
(2.24115e-06 1.7751e-06 0)
(1.82171e-06 2.14736e-06 0)
(1.33257e-06 2.42528e-06 0)
(8.01304e-07 2.56657e-06 0)
(2.54074e-07 2.47006e-06 0)
(-3.08206e-07 3.02767e-06 0)
(-9.72727e-07 3.1408e-06 0)
(-1.61776e-06 2.96652e-06 0)
(-2.20997e-06 2.6279e-06 0)
(-2.71588e-06 2.17352e-06 0)
(-3.11477e-06 1.63025e-06 0)
(-3.39172e-06 1.02157e-06 0)
(-3.5364e-06 3.71863e-07 0)
(-3.54344e-06 -2.93211e-07 0)
(-3.41268e-06 -9.47455e-07 0)
(-3.14928e-06 -1.56514e-06 0)
(-2.7635e-06 -2.12202e-06 0)
(-2.27036e-06 -2.59622e-06 0)
(-1.68905e-06 -2.96916e-06 0)
(-1.04224e-06 -3.22622e-06 0)
(-3.55107e-07 -3.35732e-06 0)
(3.45544e-07 -3.3573e-06 0)
(1.03239e-06 -3.22617e-06 0)
(1.67866e-06 -2.96903e-06 0)
(2.25912e-06 -2.59592e-06 0)
(2.75113e-06 -2.12142e-06 0)
(3.13552e-06 -1.56407e-06 0)
(3.39727e-06 -9.45647e-07 0)
(3.52621e-06 -2.9031e-07 0)
(3.51733e-06 3.76331e-07 0)
(3.37099e-06 1.02822e-06 0)
(3.09297e-06 1.6398e-06 0)
(2.69406e-06 2.18672e-06 0)
(2.18997e-06 2.6453e-06 0)
(1.60178e-06 2.98752e-06 0)
(9.63055e-07 3.16128e-06 0)
(3.05487e-07 3.04223e-06 0)
(-3.70801e-07 3.71933e-06 0)
(-1.16987e-06 3.8602e-06 0)
(-1.94577e-06 3.64654e-06 0)
(-2.65897e-06 3.2295e-06 0)
(-3.2692e-06 2.67027e-06 0)
(-3.75102e-06 2.00235e-06 0)
(-4.08607e-06 1.2546e-06 0)
(-4.26161e-06 4.56874e-07 0)
(-4.27103e-06 -3.59444e-07 0)
(-4.11408e-06 -1.1623e-06 0)
(-3.79695e-06 -1.9202e-06 0)
(-3.33203e-06 -2.60342e-06 0)
(-2.73746e-06 -3.18518e-06 0)
(-2.03642e-06 -3.64269e-06 0)
(-1.25624e-06 -3.95803e-06 0)
(-4.27371e-07 -4.11883e-06 0)
(4.17869e-07 -4.11879e-06 0)
(1.2465e-06 -3.95789e-06 0)
(2.02618e-06 -3.64241e-06 0)
(2.72648e-06 -3.18467e-06 0)
(3.32009e-06 -2.60255e-06 0)
(3.78382e-06 -1.91879e-06 0)
(4.09961e-06 -1.16012e-06 0)
(4.25513e-06 -3.56162e-07 0)
(4.24435e-06 4.61656e-07 0)
(4.06772e-06 1.26137e-06 0)
(3.73217e-06 2.01163e-06 0)
(3.25086e-06 2.68257e-06 0)
(2.64236e-06 3.24511e-06 0)
(1.93272e-06 3.66483e-06 0)
(1.16202e-06 3.87754e-06 0)
(3.6845e-07 3.73138e-06 0)
(-4.47506e-07 4.55378e-06 0)
(-1.41174e-06 4.72803e-06 0)
(-2.34856e-06 4.46716e-06 0)
(-3.21039e-06 3.95589e-06 0)
(-3.94833e-06 3.27037e-06 0)
(-4.53148e-06 2.45207e-06 0)
(-4.93738e-06 1.5364e-06 0)
(-5.15048e-06 5.59837e-07 0)
(-5.16262e-06 -4.39251e-07 0)
(-4.97344e-06 -1.42172e-06 0)
(-4.5904e-06 -2.34907e-06 0)
(-4.02849e-06 -3.185e-06 0)
(-3.30963e-06 -3.89677e-06 0)
(-2.4619e-06 -4.45649e-06 0)
(-1.51837e-06 -4.84226e-06 0)
(-5.15867e-07 -5.03897e-06 0)
(5.06483e-07 -5.0389e-06 0)
(1.50877e-06 -4.84205e-06 0)
(2.45188e-06 -4.45608e-06 0)
(3.29898e-06 -3.89607e-06 0)
(4.01701e-06 -3.1839e-06 0)
(4.57795e-06 -2.3474e-06 0)
(4.95991e-06 -1.41924e-06 0)
(5.14799e-06 -4.35705e-07 0)
(5.13488e-06 5.64791e-07 0)
(4.92114e-06 1.54313e-06 0)
(4.51516e-06 2.46098e-06 0)
(3.93271e-06 3.28177e-06 0)
(3.19672e-06 3.96994e-06 0)
(2.33802e-06 4.4832e-06 0)
(1.40556e-06 4.743e-06 0)
(4.45828e-07 4.564e-06 0)
(-5.41693e-07 5.56344e-06 0)
(-1.70857e-06 5.77792e-06 0)
(-2.84229e-06 5.46006e-06 0)
(-3.88563e-06 4.83502e-06 0)
(-4.77949e-06 3.99687e-06 0)
(-5.48625e-06 2.99668e-06 0)
(-5.97852e-06 1.87778e-06 0)
(-6.2373e-06 6.84714e-07 0)
(-6.25259e-06 -5.35694e-07 0)
(-6.02391e-06 -1.73567e-06 0)
(-5.56024e-06 -2.86827e-06 0)
(-4.87972e-06 -3.88914e-06 0)
(-4.00895e-06 -4.75835e-06 0)
(-2.98191e-06 -5.44188e-06 0)
(-1.83872e-06 -5.91296e-06 0)
(-6.24011e-07 -6.15317e-06 0)
(6.14795e-07 -6.15308e-06 0)
(1.82933e-06 -5.91268e-06 0)
(2.97215e-06 -5.44135e-06 0)
(3.99866e-06 -4.7575e-06 0)
(4.86875e-06 -3.88785e-06 0)
(5.54848e-06 -2.86638e-06 0)
(6.0113e-06 -1.733e-06 0)
(6.23917e-06 -5.3199e-07 0)
(6.22322e-06 6.89718e-07 0)
(5.96412e-06 1.88437e-06 0)
(5.47201e-06 3.00514e-06 0)
(4.76619e-06 4.0074e-06 0)
(3.87396e-06 4.84767e-06 0)
(2.83341e-06 5.47425e-06 0)
(1.70337e-06 5.7909e-06 0)
(5.40105e-07 5.57217e-06 0)
(-6.56563e-07 6.78705e-06 0)
(-2.07079e-06 7.05022e-06 0)
(-3.44517e-06 6.66346e-06 0)
(-4.71038e-06 5.90072e-06 0)
(-5.79457e-06 4.87771e-06 0)
(-6.65209e-06 3.65713e-06 0)
(-7.24962e-06 2.29187e-06 0)
(-7.56399e-06 8.36306e-07 0)
(-7.58301e-06 -6.5248e-07 0)
(-7.30601e-06 -2.11625e-06 0)
(-6.74387e-06 -3.49775e-06 0)
(-5.91857e-06 -4.74294e-06 0)
(-4.86237e-06 -5.80311e-06 0)
(-3.61651e-06 -6.63679e-06 0)
(-2.22966e-06 -7.21135e-06 0)
(-7.5598e-07 -7.50432e-06 0)
(7.46974e-07 -7.50421e-06 0)
(2.2205e-06 -7.21101e-06 0)
(3.60705e-06 -6.63617e-06 0)
(4.85247e-06 -5.80214e-06 0)
(5.90813e-06 -4.7415e-06 0)
(6.7328e-06 -3.49572e-06 0)
(7.2943e-06 -2.11345e-06 0)
(7.57071e-06 -6.48709e-07 0)
(7.55128e-06 8.41266e-07 0)
(7.23682e-06 2.29824e-06 0)
(6.63966e-06 3.6651e-06 0)
(5.78305e-06 4.88741e-06 0)
(4.70063e-06 5.91215e-06 0)
(3.43782e-06 6.67606e-06 0)
(2.06658e-06 7.06167e-06 0)
(6.55467e-07 6.79466e-06 0)
(-7.96894e-07 8.27192e-06 0)
(-2.51317e-06 8.59406e-06 0)
(-4.18104e-06 8.12374e-06 0)
(-5.71659e-06 7.19403e-06 0)
(-7.03273e-06 5.94681e-06 0)
(-8.07394e-06 4.45882e-06 0)
(-8.79967e-06 2.79461e-06 0)
(-9.1817e-06 1.02045e-06 0)
(-9.20516e-06 -7.941e-07 0)
(-8.86918e-06 -2.57808e-06 0)
(-8.18693e-06 -4.26175e-06 0)
(-7.18509e-06 -5.77925e-06 0)
(-5.9028e-06 -7.07126e-06 0)
(-4.39016e-06 -8.08723e-06 0)
(-2.70625e-06 -8.78743e-06 0)
(-9.16866e-07 -9.14446e-06 0)
(9.08104e-07 -9.14433e-06 0)
(2.69737e-06 -8.78704e-06 0)
(4.38103e-06 -8.08654e-06 0)
(5.89332e-06 -7.0702e-06 0)
(7.17518e-06 -5.77772e-06 0)
(8.17654e-06 -4.25962e-06 0)
(8.85831e-06 -2.57522e-06 0)
(9.19389e-06 -7.90338e-07 0)
(9.17022e-06 1.02529e-06 0)
(8.78825e-06 2.80069e-06 0)
(8.06299e-06 4.46628e-06 0)
(7.0228e-06 5.95572e-06 0)
(5.70804e-06 7.20435e-06 0)
(4.17469e-06 8.135e-06 0)
(2.50954e-06 8.60415e-06 0)
(7.95736e-07 8.27858e-06 0)
(-9.67746e-07 1.00751e-05 0)
(-3.05193e-06 1.04688e-05 0)
(-5.07757e-06 9.89712e-06 0)
(-6.94276e-06 8.76475e-06 0)
(-8.54156e-06 7.24532e-06 0)
(-9.80653e-06 5.43262e-06 0)
(-1.06884e-05 3.40535e-06 0)
(-1.11528e-05 1.24424e-06 0)
(-1.11816e-05 -9.65997e-07 0)
(-1.07737e-05 -3.13895e-06 0)
(-9.94504e-06 -5.18967e-06 0)
(-8.72809e-06 -7.03799e-06 0)
(-7.17035e-06 -8.61163e-06 0)
(-5.33268e-06 -9.84907e-06 0)
(-3.28688e-06 -1.07019e-05 0)
(-1.11288e-06 -1.11367e-05 0)
(1.10439e-06 -1.11366e-05 0)
(3.27829e-06 -1.07015e-05 0)
(5.3239e-06 -9.84833e-06 0)
(7.16129e-06 -8.61051e-06 0)
(8.7187e-06 -7.0364e-06 0)
(9.9353e-06 -5.18751e-06 0)
(1.07636e-05 -3.13609e-06 0)
(1.11712e-05 -9.6231e-07 0)
(1.11424e-05 1.2489e-06 0)
(1.06782e-05 3.4111e-06 0)
(9.79689e-06 5.43956e-06 0)
(8.53281e-06 7.25347e-06 0)
(6.93556e-06 8.77409e-06 0)
(5.0722e-06 9.90717e-06 0)
(3.04891e-06 1.04778e-05 0)
(9.67003e-07 1.0081e-05 0)
(-1.17599e-06 1.22662e-05 0)
(-3.70853e-06 1.27467e-05 0)
(-6.16985e-06 1.20519e-05 0)
(-8.43628e-06 1.06734e-05 0)
(-1.03792e-05 8.82323e-06 0)
(-1.19166e-05 6.61604e-06 0)
(-1.29885e-05 4.14763e-06 0)
(-1.35531e-05 1.51631e-06 0)
(-1.35884e-05 -1.17478e-06 0)
(-1.30929e-05 -3.82043e-06 0)
(-1.2086e-05 -6.31724e-06 0)
(-1.0607e-05 -8.5676e-06 0)
(-8.71388e-06 -1.04835e-05 0)
(-6.48042e-06 -1.19901e-05 0)
(-3.99393e-06 -1.30285e-05 0)
(-1.35159e-06 -1.35579e-05 0)
(1.34338e-06 -1.35578e-05 0)
(3.98565e-06 -1.3028e-05 0)
(6.47199e-06 -1.19894e-05 0)
(8.70524e-06 -1.04824e-05 0)
(1.05982e-05 -8.566e-06 0)
(1.20768e-05 -6.31509e-06 0)
(1.30835e-05 -3.81763e-06 0)
(1.35789e-05 -1.17122e-06 0)
(1.35437e-05 1.52074e-06 0)
(1.29794e-05 4.15301e-06 0)
(1.1908e-05 6.62244e-06 0)
(1.03716e-05 8.83067e-06 0)
(8.42981e-06 1.06818e-05 0)
(6.16513e-06 1.20609e-05 0)
(3.70587e-06 1.27547e-05 0)
(1.17509e-06 1.22714e-05 0)
(-1.42938e-06 1.49294e-05 0)
(-4.50755e-06 1.55155e-05 0)
(-7.49936e-06 1.46711e-05 0)
(-1.02545e-05 1.29934e-05 0)
(-1.26164e-05 1.07413e-05 0)
(-1.44854e-05 8.05464e-06 0)
(-1.57887e-05 5.05003e-06 0)
(-1.64753e-05 1.84715e-06 0)
(-1.65183e-05 -1.42846e-06 0)
(-1.59161e-05 -4.64875e-06 0)
(-1.46922e-05 -7.68786e-06 0)
(-1.28944e-05 -1.0427e-05 0)
(-1.05929e-05 -1.27591e-05 0)
(-7.87761e-06 -1.45929e-05 0)
(-4.85467e-06 -1.58568e-05 0)
(-1.64219e-06 -1.65012e-05 0)
(1.63428e-06 -1.65011e-05 0)
(4.8467e-06 -1.58563e-05 0)
(7.86953e-06 -1.45921e-05 0)
(1.05847e-05 -1.27579e-05 0)
(1.2886e-05 -1.04254e-05 0)
(1.46837e-05 -7.68576e-06 0)
(1.59075e-05 -4.64604e-06 0)
(1.65096e-05 -1.42506e-06 0)
(1.64667e-05 1.85132e-06 0)
(1.57804e-05 5.05503e-06 0)
(1.44778e-05 8.06052e-06 0)
(1.26096e-05 1.07481e-05 0)
(1.0249e-05 1.3001e-05 0)
(7.49529e-06 1.46791e-05 0)
(4.50528e-06 1.55226e-05 0)
(1.42887e-06 1.4934e-05 0)
(-1.7379e-06 1.81673e-05 0)
(-5.48036e-06 1.88817e-05 0)
(-9.1178e-06 1.78554e-05 0)
(-1.24675e-05 1.58141e-05 0)
(-1.53393e-05 1.30735e-05 0)
(-1.76119e-05 9.80385e-06 0)
(-1.91967e-05 6.14734e-06 0)
(-2.00317e-05 2.24954e-06 0)
(-2.00843e-05 -1.73677e-06 0)
(-1.93523e-05 -5.65577e-06 0)
(-1.78642e-05 -9.35429e-06 0)
(-1.56783e-05 -1.26878e-05 0)
(-1.28798e-05 -1.55259e-05 0)
(-9.57812e-06 -1.77576e-05 0)
(-5.90227e-06 -1.92958e-05 0)
(-1.99591e-06 -2.00801e-05 0)
(1.98829e-06 -2.008e-05 0)
(5.89462e-06 -1.92953e-05 0)
(9.57039e-06 -1.77569e-05 0)
(1.2872e-05 -1.55248e-05 0)
(1.56703e-05 -1.26862e-05 0)
(1.78562e-05 -9.35227e-06 0)
(1.93442e-05 -5.6532e-06 0)
(2.00763e-05 -1.73358e-06 0)
(2.00239e-05 2.25342e-06 0)
(1.91893e-05 6.15194e-06 0)
(1.76051e-05 9.80921e-06 0)
(1.53334e-05 1.30796e-05 0)
(1.24624e-05 1.58209e-05 0)
(9.11418e-06 1.78626e-05 0)
(5.47836e-06 1.8888e-05 0)
(1.73715e-06 1.81714e-05 0)
(-2.11321e-06 2.21045e-05 0)
(-6.66384e-06 2.29749e-05 0)
(-1.10869e-05 2.17276e-05 0)
(-1.51604e-05 1.92442e-05 0)
(-1.86527e-05 1.59095e-05 0)
(-2.14165e-05 1.19311e-05 0)
(-2.33438e-05 7.48185e-06 0)
(-2.43595e-05 2.73903e-06 0)
(-2.44236e-05 -2.11153e-06 0)
(-2.35336e-05 -6.88023e-06 0)
(-2.17242e-05 -1.13807e-05 0)
(-1.9066e-05 -1.5437e-05 0)
(-1.56627e-05 -1.88905e-05 0)
(-1.16475e-05 -2.16062e-05 0)
(-7.17714e-06 -2.34779e-05 0)
(-2.42638e-06 -2.44324e-05 0)
(2.41906e-06 -2.44322e-05 0)
(7.16979e-06 -2.34775e-05 0)
(1.16401e-05 -2.16055e-05 0)
(1.56553e-05 -1.88894e-05 0)
(1.90585e-05 -1.54355e-05 0)
(2.17167e-05 -1.13788e-05 0)
(2.35262e-05 -6.87782e-06 0)
(2.44163e-05 -2.10857e-06 0)
(2.43523e-05 2.7426e-06 0)
(2.33371e-05 7.48605e-06 0)
(2.14103e-05 1.19359e-05 0)
(1.86473e-05 1.59149e-05 0)
(1.51561e-05 1.92503e-05 0)
(1.10838e-05 2.17339e-05 0)
(6.66207e-06 2.29805e-05 0)
(2.11286e-06 2.21081e-05 0)
(-2.56994e-06 2.68927e-05 0)
(-8.10405e-06 2.79527e-05 0)
(-1.34831e-05 2.64366e-05 0)
(-1.84369e-05 2.34157e-05 0)
(-2.26842e-05 1.93586e-05 0)
(-2.60455e-05 1.45182e-05 0)
(-2.83898e-05 9.10503e-06 0)
(-2.96253e-05 3.33454e-06 0)
(-2.97036e-05 -2.5671e-06 0)
(-2.86214e-05 -8.36921e-06 0)
(-2.6421e-05 -1.3845e-05 0)
(-2.31881e-05 -1.87805e-05 0)
(-1.9049e-05 -2.29826e-05 0)
(-1.41655e-05 -2.62869e-05 0)
(-8.72842e-06 -2.85644e-05 0)
(-2.95022e-06 -2.97258e-05 0)
(2.94318e-06 -2.97256e-05 0)
(8.72137e-06 -2.8564e-05 0)
(1.41585e-05 -2.62862e-05 0)
(1.9042e-05 -2.29815e-05 0)
(2.3181e-05 -1.87791e-05 0)
(2.64139e-05 -1.38432e-05 0)
(2.86144e-05 -8.36698e-06 0)
(2.96967e-05 -2.56438e-06 0)
(2.96187e-05 3.33779e-06 0)
(2.83836e-05 9.10883e-06 0)
(2.60399e-05 1.45226e-05 0)
(2.26794e-05 1.93635e-05 0)
(1.84328e-05 2.3421e-05 0)
(1.34802e-05 2.64423e-05 0)
(8.10249e-06 2.79576e-05 0)
(2.56927e-06 2.68958e-05 0)
(-3.12549e-06 3.27159e-05 0)
(-9.85591e-06 3.40066e-05 0)
(-1.63979e-05 3.21639e-05 0)
(-2.24229e-05 2.84892e-05 0)
(-2.75888e-05 2.35537e-05 0)
(-3.16773e-05 1.76651e-05 0)
(-3.45288e-05 1.10795e-05 0)
(-3.60318e-05 4.05914e-06 0)
(-3.61274e-05 -3.1209e-06 0)
(-3.48116e-05 -1.018e-05 0)
(-3.21355e-05 -1.68421e-05 0)
(-2.82035e-05 -2.2847e-05 0)
(-2.31692e-05 -2.79596e-05 0)
(-1.72293e-05 -3.19801e-05 0)
(-1.0616e-05 -3.47511e-05 0)
(-3.58763e-06 -3.61642e-05 0)
(3.58085e-06 -3.61641e-05 0)
(1.06092e-05 -3.47508e-05 0)
(1.72226e-05 -3.19795e-05 0)
(2.31625e-05 -2.79587e-05 0)
(2.81968e-05 -2.28457e-05 0)
(3.21288e-05 -1.68405e-05 0)
(3.4805e-05 -1.01779e-05 0)
(3.61211e-05 -3.11844e-06 0)
(3.60257e-05 4.06206e-06 0)
(3.45231e-05 1.10829e-05 0)
(3.16722e-05 1.76689e-05 0)
(2.75843e-05 2.3558e-05 0)
(2.24195e-05 2.8494e-05 0)
(1.63953e-05 3.21688e-05 0)
(9.85447e-06 3.4011e-05 0)
(3.12526e-06 3.27186e-05 0)
(-3.80137e-06 3.97985e-05 0)
(-1.19872e-05 4.13698e-05 0)
(-1.9944e-05 3.91298e-05 0)
(-2.72721e-05 3.46602e-05 0)
(-3.35554e-05 2.86563e-05 0)
(-3.85285e-05 2.14929e-05 0)
(-4.19972e-05 1.34814e-05 0)
(-4.38259e-05 4.9409e-06 0)
(-4.39427e-05 -3.79407e-06 0)
(-4.23426e-05 -1.23821e-05 0)
(-3.9088e-05 -2.04874e-05 0)
(-3.43056e-05 -2.77931e-05 0)
(-2.81822e-05 -3.40135e-05 0)
(-2.09571e-05 -3.89051e-05 0)
(-1.29125e-05 -4.22766e-05 0)
(-4.3632e-06 -4.39959e-05 0)
(4.35666e-06 -4.39958e-05 0)
(1.2906e-05 -4.22762e-05 0)
(2.09505e-05 -3.89045e-05 0)
(2.81757e-05 -3.40126e-05 0)
(3.42992e-05 -2.77919e-05 0)
(3.90817e-05 -2.04859e-05 0)
(4.23365e-05 -1.23802e-05 0)
(4.39367e-05 -3.79188e-06 0)
(4.38203e-05 4.94349e-06 0)
(4.1992e-05 1.34844e-05 0)
(3.85238e-05 2.14963e-05 0)
(3.35515e-05 2.866e-05 0)
(2.72687e-05 3.46643e-05 0)
(1.99417e-05 3.91341e-05 0)
(1.1986e-05 4.13735e-05 0)
(3.80074e-06 3.98008e-05 0)
(-4.62346e-06 4.84129e-05 0)
(-1.45796e-05 5.03254e-05 0)
(-2.42573e-05 4.76024e-05 0)
(-3.31707e-05 4.21662e-05 0)
(-4.08135e-05 3.4863e-05 0)
(-4.68629e-05 2.61492e-05 0)
(-5.10826e-05 1.64036e-05 0)
(-5.33076e-05 6.01406e-06 0)
(-5.34504e-05 -4.61229e-06 0)
(-5.15049e-05 -1.50601e-05 0)
(-4.75465e-05 -2.49209e-05 0)
(-4.17296e-05 -3.38092e-05 0)
(-3.42813e-05 -4.13772e-05 0)
(-2.54925e-05 -4.73287e-05 0)
(-1.57068e-05 -5.14308e-05 0)
(-5.30686e-06 -5.35227e-05 0)
(5.30054e-06 -5.35226e-05 0)
(1.57005e-05 -5.14305e-05 0)
(2.54862e-05 -4.73282e-05 0)
(3.42751e-05 -4.13765e-05 0)
(4.17235e-05 -3.38082e-05 0)
(4.75405e-05 -2.49196e-05 0)
(5.1499e-05 -1.50585e-05 0)
(5.34448e-05 -4.61037e-06 0)
(5.33023e-05 6.01631e-06 0)
(5.10777e-05 1.64062e-05 0)
(4.68585e-05 2.61522e-05 0)
(4.08097e-05 3.48663e-05 0)
(3.31679e-05 4.21698e-05 0)
(2.42551e-05 4.76061e-05 0)
(1.45784e-05 5.03287e-05 0)
(4.62332e-06 4.84148e-05 0)
(-5.62343e-06 5.88905e-05 0)
(-1.7733e-05 6.12182e-05 0)
(-2.9504e-05 5.7908e-05 0)
(-4.03457e-05 5.12963e-05 0)
(-4.96423e-05 4.2413e-05 0)
(-5.70011e-05 3.18136e-05 0)
(-6.21346e-05 1.99588e-05 0)
(-6.48421e-05 7.32031e-06 0)
(-6.50169e-05 -5.60667e-06 0)
(-6.26513e-05 -1.83169e-05 0)
(-5.78371e-05 -3.03134e-05 0)
(-5.07619e-05 -4.1127e-05 0)
(-4.17017e-05 -5.03346e-05 0)
(-3.10106e-05 -5.75757e-05 0)
(-1.91065e-05 -6.25666e-05 0)
(-6.45503e-06 -6.51119e-05 0)
(6.44891e-06 -6.51118e-05 0)
(1.91004e-05 -6.25664e-05 0)
(3.10046e-05 -5.75752e-05 0)
(4.16957e-05 -5.03339e-05 0)
(5.0756e-05 -4.11261e-05 0)
(5.78314e-05 -3.03123e-05 0)
(6.26457e-05 -1.83155e-05 0)
(6.50116e-05 -5.60502e-06 0)
(6.48371e-05 7.32223e-06 0)
(6.21301e-05 1.9961e-05 0)
(5.6997e-05 3.18161e-05 0)
(4.96389e-05 4.24158e-05 0)
(4.03427e-05 5.12993e-05 0)
(2.95021e-05 5.79112e-05 0)
(1.77319e-05 6.12209e-05 0)
(5.62279e-06 5.88921e-05 0)
(-6.83965e-06 7.16343e-05 0)
(-2.15682e-05 7.44672e-05 0)
(-3.58854e-05 7.04431e-05 0)
(-4.90728e-05 6.24019e-05 0)
(-6.03812e-05 5.15972e-05 0)
(-6.93331e-05 3.87046e-05 0)
(-7.55787e-05 2.42844e-05 0)
(-7.88735e-05 8.91052e-06 0)
(-7.90876e-05 -6.81495e-06 0)
(-7.62116e-05 -2.22773e-05 0)
(-7.03566e-05 -3.6872e-05 0)
(-6.17508e-05 -5.00281e-05 0)
(-5.07299e-05 -6.12307e-05 0)
(-3.77245e-05 -7.00408e-05 0)
(-2.3243e-05 -7.61134e-05 0)
(-7.85207e-06 -7.92104e-05 0)
(7.84611e-06 -7.92103e-05 0)
(2.32371e-05 -7.61132e-05 0)
(3.77186e-05 -7.00404e-05 0)
(5.07241e-05 -6.12301e-05 0)
(6.17452e-05 -5.00274e-05 0)
(7.03511e-05 -3.68711e-05 0)
(7.62063e-05 -2.22762e-05 0)
(7.90826e-05 -6.81359e-06 0)
(7.88688e-05 8.91211e-06 0)
(7.55743e-05 2.42863e-05 0)
(6.93292e-05 3.87066e-05 0)
(6.03778e-05 5.15994e-05 0)
(4.90704e-05 6.24044e-05 0)
(3.58835e-05 7.04456e-05 0)
(2.15671e-05 7.44695e-05 0)
(6.83959e-06 7.16356e-05 0)
(-8.31885e-06 8.71345e-05 0)
(-2.6233e-05 9.0582e-05 0)
(-4.36471e-05 8.56899e-05 0)
(-5.96875e-05 7.59107e-05 0)
(-7.34431e-05 6.27693e-05 0)
(-8.43332e-05 4.70879e-05 0)
(-9.1932e-05 2.95478e-05 0)
(-9.5942e-05 1.08468e-05 0)
(-9.62048e-05 -8.28285e-06 0)
(-9.27084e-05 -2.70933e-05 0)
(-8.55879e-05 -4.4849e-05 0)
(-7.51205e-05 -6.08553e-05 0)
(-6.17144e-05 -7.44852e-05 0)
(-4.58934e-05 -8.52047e-05 0)
(-2.82761e-05 -9.25936e-05 0)
(-9.55193e-06 -9.63619e-05 0)
(9.5461e-06 -9.63618e-05 0)
(2.82703e-05 -9.25934e-05 0)
(4.58876e-05 -8.52044e-05 0)
(6.17088e-05 -7.44848e-05 0)
(7.5115e-05 -6.08547e-05 0)
(8.55826e-05 -4.48483e-05 0)
(9.27033e-05 -2.70924e-05 0)
(9.61999e-05 -8.28177e-06 0)
(9.59375e-05 1.0848e-05 0)
(9.19279e-05 2.95493e-05 0)
(8.43295e-05 4.70896e-05 0)
(7.34402e-05 6.27711e-05 0)
(5.96848e-05 7.59126e-05 0)
(4.36454e-05 8.5692e-05 0)
(2.6232e-05 9.05838e-05 0)
(8.31817e-06 8.71356e-05 0)
(-1.01178e-05 0.000105987 0)
(-3.19059e-05 0.000110182 0)
(-5.30866e-05 0.000104235 0)
(-7.25973e-05 9.23426e-05 0)
(-8.933e-05 7.63599e-05 0)
(-0.000102578 5.72872e-05 0)
(-0.000111824 3.59526e-05 0)
(-0.000116705 1.32048e-05 0)
(-0.000117028 -1.00657e-05 0)
(-0.000112778 -3.29492e-05 0)
(-0.000104119 -5.45509e-05 0)
(-9.1387e-05 -7.40251e-05 0)
(-7.50794e-05 -9.06089e-05 0)
(-5.58329e-05 -0.000103652 0)
(-3.44002e-05 -0.000112643 0)
(-1.16203e-05 -0.000117228 0)
(1.16146e-05 -0.000117228 0)
(3.43945e-05 -0.000112643 0)
(5.58272e-05 -0.000103652 0)
(7.50739e-05 -9.06086e-05 0)
(9.13816e-05 -7.40247e-05 0)
(0.000104113 -5.45503e-05 0)
(0.000112773 -3.29486e-05 0)
(0.000117023 -1.00649e-05 0)
(0.0001167 1.32057e-05 0)
(0.00011182 3.59537e-05 0)
(0.000102575 5.72884e-05 0)
(8.93269e-05 7.63613e-05 0)
(7.25951e-05 9.23441e-05 0)
(5.30847e-05 0.000104237 0)
(3.19049e-05 0.000110184 0)
(1.01178e-05 0.000105988 0)
(-1.23055e-05 0.000128916 0)
(-3.8805e-05 0.000134022 0)
(-6.45664e-05 0.000126792 0)
(-8.82979e-05 0.00011233 0)
(-0.000108652 9.28928e-05 0)
(-0.000124769 6.96961e-05 0)
(-0.000136019 4.3747e-05 0)
(-0.000141961 1.60771e-05 0)
(-0.000142359 -1.22304e-05 0)
(-0.000137194 -4.00691e-05 0)
(-0.000126664 -6.63502e-05 0)
(-0.000111179 -9.00444e-05 0)
(-9.13414e-05 -0.000110223 0)
(-6.79273e-05 -0.000126094 0)
(-4.18522e-05 -0.000137035 0)
(-1.41373e-05 -0.000142615 0)
(1.41316e-05 -0.000142615 0)
(4.18466e-05 -0.000137035 0)
(6.79217e-05 -0.000126094 0)
(9.1336e-05 -0.000110223 0)
(0.000111173 -9.00442e-05 0)
(0.000126659 -6.63499e-05 0)
(0.000137189 -4.00687e-05 0)
(0.000142354 -1.22299e-05 0)
(0.000141957 1.60777e-05 0)
(0.000136015 4.37477e-05 0)
(0.000124766 6.96969e-05 0)
(0.000108649 9.28937e-05 0)
(8.82953e-05 0.000112331 0)
(6.45649e-05 0.000126793 0)
(3.88041e-05 0.000134023 0)
(1.23047e-05 0.000128917 0)
(-1.49658e-05 0.000156803 0)
(-4.71943e-05 0.000163016 0)
(-7.85265e-05 0.000154228 0)
(-0.000107391 0.000136642 0)
(-0.000132151 0.000113005 0)
(-0.000151759 8.47939e-05 0)
(-0.000165449 5.32331e-05 0)
(-0.000172683 1.95768e-05 0)
(-0.000173174 -1.48578e-05 0)
(-0.000166898 -4.87251e-05 0)
(-0.000154094 -8.06999e-05 0)
(-0.00013526 -0.00010953 0)
(-0.000111129 -0.000134083 0)
(-8.26446e-05 -0.000153397 0)
(-5.09206e-05 -0.000166711 0)
(-1.72002e-05 -0.000173502 0)
(1.71946e-05 -0.000173502 0)
(5.0915e-05 -0.000166711 0)
(8.26391e-05 -0.000153397 0)
(0.000111124 -0.000134083 0)
(0.000135255 -0.00010953 0)
(0.000154089 -8.06998e-05 0)
(0.000166893 -4.87249e-05 0)
(0.00017317 -1.48576e-05 0)
(0.000172679 1.95771e-05 0)
(0.000165445 5.32335e-05 0)
(0.000151756 8.47943e-05 0)
(0.000132148 0.000113005 0)
(0.00010739 0.000136643 0)
(7.85247e-05 0.000154228 0)
(4.71933e-05 0.000163017 0)
(1.49659e-05 0.000156803 0)
(-1.82004e-05 0.000190719 0)
(-5.73953e-05 0.000198279 0)
(-9.55018e-05 0.000187597 0)
(-0.00013061 0.000166215 0)
(-0.000160728 0.000137472 0)
(-0.000184584 0.000103164 0)
(-0.000201244 6.47795e-05 0)
(-0.000210053 2.38425e-05 0)
(-0.000210661 -1.80454e-05 0)
(-0.000203036 -5.92471e-05 0)
(-0.000187468 -9.81504e-05 0)
(-0.000164562 -0.00013323 0)
(-0.000135209 -0.00016311 0)
(-0.000100555 -0.000186614 0)
(-6.19568e-05 -0.000202818 0)
(-2.09279e-05 -0.000211082 0)
(2.09222e-05 -0.000211082 0)
(6.19512e-05 -0.000202818 0)
(0.000100549 -0.000186614 0)
(0.000135203 -0.00016311 0)
(0.000164557 -0.000133231 0)
(0.000187463 -9.81506e-05 0)
(0.000203031 -5.92473e-05 0)
(0.000210656 -1.80455e-05 0)
(0.000210049 2.38424e-05 0)
(0.00020124 6.47795e-05 0)
(0.00018458 0.000103164 0)
(0.000160725 0.000137472 0)
(0.000130608 0.000166215 0)
(9.55004e-05 0.000187597 0)
(5.73945e-05 0.000198279 0)
(1.81996e-05 0.000190719 0)
(-2.21333e-05 0.000231964 0)
(-6.97981e-05 0.000241164 0)
(-0.000116142 0.000228182 0)
(-0.000158843 0.000202186 0)
(-0.000195479 0.000167236 0)
(-0.000224503 0.000125517 0)
(-0.000244779 7.88351e-05 0)
(-0.000255509 2.90437e-05 0)
(-0.000256264 -2.19104e-05 0)
(-0.000247003 -7.20359e-05 0)
(-0.000228077 -0.000119371 0)
(-0.000200219 -0.000162058 0)
(-0.000164513 -0.000198421 0)
(-0.000122352 -0.000227027 0)
(-7.53889e-05 -0.00024675 0)
(-2.5465e-05 -0.000256809 0)
(2.54592e-05 -0.00025681 0)
(7.53832e-05 -0.00024675 0)
(0.000122347 -0.000227028 0)
(0.000164507 -0.000198421 0)
(0.000200214 -0.000162059 0)
(0.000228072 -0.000119371 0)
(0.000246998 -7.20363e-05 0)
(0.000256259 -2.19108e-05 0)
(0.000255505 2.90433e-05 0)
(0.000244775 7.88347e-05 0)
(0.0002245 0.000125516 0)