/*--------------------------------*- C++ -*----------------------------------*\
  =========                 |
  \\      /  F ield         | OpenFOAM: The Open Source CFD Toolbox
   \\    /   O peration     | Website:  https://openfoam.org
    \\  /    A nd           | Version:  9
     \\/     M anipulation  |
\*---------------------------------------------------------------------------*/
FoamFile
{
    format      ascii;
    class       volScalarField;
    location    "13";
    object      p;
}
// * * * * * * * * * * * * * * * * * * * * * * * * * * * * * * * * * * * * * //

dimensions      [0 2 -2 0 0 0 0];

internalField   nonuniform List<scalar> 
918
(
0.37092393
1.6158203
0.014631086
0.33002503
0.00017683315
1.5864552
-1.1725894
1.1246965
0.39768685
-0.24766077
0.0041531375
0.72746856
1.4578869
1.2191806
-0.96073588
0.014789896
1.0324236
-0.94500796
0.37563835
0.0039619836
1.2877034
0.33966718
0.36955032
0.34172592
0.84702405
1.2216983
1.3204576
0.0022938917
0.0013370256
-0.0044588903
0.0049040431
-0.0087984238
0.002457636
1.462731
1.5167511
1.5404523
0.54980869
0.30527072
-0.91651079
-1.0518999
-0.97364597
-1.2466469
1.0978056
1.1005438
-0.52910678
1.1266348
1.1543222
0.41130751
0.39374283
0.40093074
0.33774033
0.37267094
0.38642145
0.36140628
-0.28575537
-0.36039359
-0.17226771
-0.13083503
0.089090152
0.0060957236
-0.00097491027
0.015617702
0.01981547
0.60805408
0.71640318
0.70851426
0.73973485
0.75358547
1.5529175
1.5163496
1.5433371
1.4901675
1.4804722
1.4377668
1.4009321
1.2572398
1.2642756
1.2175777
1.1827856
-1.507675
-2.5752352
-0.36649572
-0.047129751
0.0016186424
0.024729729
0.030723857
1.0035085
1.0117695
1.0233186
1.0466501
1.1435528
-0.9014855
-1.1656248
0.37848262
0.36943195
0.37320495
0.35440836
0.4005297
0.44498709
0.0099873004
0.018277013
-0.020335911
0.0069855286
0.0059269852
1.2521414
1.2360088
0.3592016
0.36901658
0.76696928
0.80944542
0.78674429
0.33602973
0.87194945
0.91372845
0.97953053
1.1935332
1.2152402
1.1902376
1.3064288
1.2614179
1.3672447
1.3929048
0.020226206
0.0048315343
0.015400736
0.0057002835
0.01529689
0.55952536
0.5947231
0.56158315
0.52054445
0.52232805
0.24852594
0.1058439
0.39728468
0.41113938
-0.74420572
-0.84440891
-1.0152082
-1.0362397
-1.2566278
0.71560221
1.0742475
1.0797701
-0.56084037
-0.40693419
-0.66478417
-0.32294638
-0.42551172
0.47112769
0.42292614
0.47241528
0.36773068
0.38767457
0.3797346
0.3695452
0.37379686
0.38690938
0.37337011
0.51422165
0.28235832
0.2839555
-0.62828247
-0.41948239
-0.60327373
-0.087843306
-0.066398542
0.1015194
0.13099027
0.080850556
0.083502892
-0.038394938
-0.0096304584
-0.024184104
0.016473623
0.021860935
0.59930586
0.58347169
0.60952197
0.61655703
0.66517452
0.67057699
0.69845142
0.68901607
1.3268708
1.3505682
1.395278
1.3582565
-4.0031944
-6.7408918
0.29430211
0.48476072
0.0022800595
0.002660331
0.0011037464
0.0003711915
0.0041053321
0.0012646607
0.049686325
0.042542692
0.034565179
0.040216871
0.97672946
0.98292992
1.0948086
1.1550368
0.99052018
1.0008584
0.46381218
0.41317774
0.38970916
0.40637225
0.016778003
0.014966247
0.023220127
1.1603605
1.2042352
1.1930618
0.24944764
0.10559536
0.41792912
0.46754881
0.95343555
0.9296468
0.95703807
1.0576163
1.0947896
1.382571
1.394613
1.4323382
1.4291646
1.477485
1.4698424
1.4282746
0.6073314
0.5911637
0.61376854
0.46500341
0.52486899
0.51122202
0.63362394
0.58076275
0.62933446
-0.062619597
-0.40677136
0.51199594
0.49058328
0.45639242
0.45649741
0.79190438
0.88654441
1.0375231
1.0542728
1.0634332
-0.18803504
-0.28657574
0.22350459
0.21124587
0.51123023
0.56481238
0.53767899
1.3010692
1.3017118
1.3478515
1.3102285
1.2515417
1.2740942
-0.4334901
-1.6225568
-0.99498807
0.90888568
0.67737832
0.78790586
0.065464593
0.051374158
0.051913511
1.1082384
1.171813
0.55279041
0.80347928
0.78336545
1.1481401
1.1720665
1.2417815
1.1649431
1.1929126
1.2199819
1.2032545
0.66470119
0.55960903
0.59284433
0.92389462
0.97943168
0.037217919
-0.063825879
-0.13495699
0.130896
0.168252
0.15758662
1.0829084
1.0249833
1.1130392
0.36427056
0.35901654
0.010882123
0.024977031
0.39427995
0.36421949
0.0053829722
0.0059430661
0.75724524
-0.71430596
0.086270429
0.39481741
0.46535165
0.39085428
-0.24848477
0.42695073
0.004315834
0.11802212
0.072622349
0.71115264
0.62264048
0.57053492
0.0071840734
0.02263587
0.021946712
-0.5409455
0.37958991
0.3638807
0.38404649
0.36815326
0.39709512
0.0082903777
0.0061686001
0.0064742416
0.013615496
0.0085487203
0.017615756
0.58721115
0.60615583
-0.45087179
0.39247904
0.37235406
0.39091942
0.34164115
0.39791974
0.34828893
0.018675112
0.011017561
0.012179367
0.29984481
0.47852113
1.0908203
1.2928903
1.0753783
0.69732895
0.36586363
0.9441161
1.0494152
0.89991434
1.1019948
1.0359159
1.0893677
0.16155331
-0.066789249
0.1773764
0.11714123
0.40158354
0.43339949
0.46520653
0.48873174
0.41145009
0.39622614
0.40189558
0.40289506
0.39274224
0.40909273
-0.15125508
-0.15170489
-0.27377273
-0.36501823
0.40555518
0.6068547
0.31046433
0.29819259
0.20102201
0.012915004
0.017160861
-0.00055873023
-0.0087213862
0.057175671
0.075012739
0.10568429
0.080523153
0.06670724
0.051762111
0.047906908
0.069626847
0.071241805
0.69767117
0.70404957
0.70618821
0.73147254
0.60934734
0.61749711
0.58472058
0.61122334
0.6064275
0.50188845
0.56228159
0.53047862
0.0083058003
0.0097761318
0.0072105958
0.027849206
0.033225314
0.014478528
0.01334918
0.010464747
0.0093343918
0.010829623
0.022690462
0.026589126
-0.50240238
-0.66008754
1.037531
0.87983284
-0.092768615
0.43528348
0.37807465
0.38714267
0.40435142
0.38506823
0.39395011
0.40034563
0.40559724
0.55292384
0.53288449
0.58057758
0.64675403
-0.37381542
-0.6077693
-0.33916257
-0.38509195
0.17267543
0.92101329
0.47884788
0.36409298
0.36769876
0.73922935
1.2084326
1.1049245
1.2492716
1.2762334
-0.34545447
0.16757747
-0.13668558
0.54863866
0.75901225
1.0670584
1.1327563
1.1390065
1.1069441
1.0338463
-0.26212691
0.73290936
-0.22514468
-0.21362202
0.11467018
-0.05095639
1.1449854
1.0095006
1.0168442
1.0754352
1.1192122
1.0253064
0.97285384
0.98627659
1.0610567
1.0615419
0.69759374
0.34456809
0.22157554
0.21224361
0.98064146
0.76149197
0.85718338
0.69445287
0.4955725
0.47249899
0.47155778
0.53597648
0.51357781
0.52666273
0.53571975
0.55022023
0.45150399
0.41590884
0.47082717
0.4412617
-0.079967187
-0.081577565
-0.17665537
-0.43266829
-0.38546502
-0.48259964
-0.29709589
-0.15389647
-0.11905588
-0.0319367
0.13775771
-0.21271473
-0.36114185
-0.26942445
-0.28189968
-0.12760698
-0.090147137
0.110762
0.20260025
0.17494524
0.16096561
0.25025058
0.24912485
0.03675213
0.039724125
0.010710214
0.018485265
0.11920315
0.14871484
0.14791526
0.0520053
0.057938653
0.01769424
0.022323663
0.047977845
0.0099202823
0.029118373
0.064122767
0.025129524
0.028749886
0.032693947
0.039429505
0.045165067
0.051251165
0.64573768
0.67528564
0.67110184
0.72899642
0.73748194
0.76173914
0.71896539
0.56583944
0.59275736
0.59930396
0.61821258
0.63184042
0.63155489
0.63729112
0.6924825
0.69303564
0.58099021
0.56330736
0.67641589
0.65097571
0.64469344
0.63303734
0.63487951
0.59350705
0.56510072
0.02147764
0.012809453
0.015136577
0.018054324
0.012965143
0.01612001
0.050085313
0.038414017
0.042893507
0.039019774
0.042561714
0.01624462
0.018653145
-0.35214978
-0.20588465
-0.56259937
-0.58799181
-0.69003899
0.93227333
1.0684271
0.82836908
0.47580334
0.5137629
0.84374358
1.0094693
0.56776745
0.627486
0.75009748
0.68075069
0.90330217
0.40876978
0.40707216
0.43012853
0.41427854
0.43721654
-0.19281336
0.00020111433
-0.061857071
0.11059367
0.29117902
0.33773092
0.20196873
0.17974108
0.33138804
0.20760348
0.91324224
0.94191355
0.83675465
0.88813694
0.88973793
0.57247559
0.71403279
0.8206825
0.7272356
0.81491543
0.83488998
0.77858602
0.81915123
0.74598924
0.66605595
0.66732466
0.57260046
0.59256844
0.56513367
0.52460187
0.70318404
0.64667979
0.69026677
0.6665895
0.70890192
0.7592
0.74687719
0.7743053
0.80610429
0.68061168
0.62256455
0.62722623
0.67948023
0.61449233
0.63588487
0.660737
0.16560594
0.17558814
0.043276315
-0.06578518
0.024268809
-0.1385624
-0.15873633
-0.12922298
0.18791305
-0.45581909
-0.43711346
-0.81115766
0.61164304
1.2546974
1.0813297
1.0699768
1.1226132
1.0807692
1.0699971
1.1543044
1.1579616
0.96556108
1.0026801
1.0032659
0.90875542
0.94897388
1.0509741
1.0320987
0.70907353
0.46825759
0.41524165
0.40745673
0.16334438
0.23581013
0.60482647
0.47150033
0.33970367
0.34558539
0.65645164
0.45253013
0.55649539
0.64144682
0.51840866
0.44545413
0.78015381
0.90578797
0.89303165
0.84296331
0.67713402
0.71652997
0.77395028
0.84187349
0.88026852
0.95143509
0.50146402
0.48661738
0.46927483
0.46225843
0.52579463
0.50933258
0.51238068
0.47800781
0.46566054
0.45479793
0.48032008
-0.0090654005
-0.0042481621
-0.042311187
-0.033428099
-0.10730701
-0.12748241
-0.079716438
-0.075015215
0.0081926795
-0.00038396703
-0.073791953
-0.03229203
-0.034837261
-0.022160527
0.13407456
0.14111766
0.058124025
0.0044250277
0.022356052
0.2504051
0.308975
0.15443521
0.032651296
0.10250868
0.14737746
0.070977652
0.095382121
0.088934397
0.092346934
0.095273577
0.031516971
0.021366908
0.026471861
0.045258112
0.034106165
0.022178874
0.02407483
0.026091134
0.026689886
0.024157362
0.025386492
0.56119458
0.59775676
0.64363795
0.62060479
0.60410858
0.64380434
0.60067352
0.60046953
0.6010613
0.65151909
0.63130442
0.66109165
0.66094799
0.031712648
0.022741769
0.026371975
0.025289038
0.024950195
0.021771547
0.022714281
0.082586164
-0.15576145
-0.12256896
-0.20358054
-0.42994924
-0.31261492
0.42144466
0.55501089
0.55315785
0.76549855
0.56583295
0.51434308
0.65313621
0.77983969
0.23337682
0.44718275
0.2738032
0.92374849
0.81322118
0.98649122
0.53082409
0.19088571
0.40952647
0.50832175
0.19031374
0.2956846
0.32618674
0.16515886
0.24042969
0.25156001
0.40263274
0.18649035
0.23623324
0.16981226
0.21062531
0.25386457
0.27963306
0.35396396
0.41630209
0.14094398
0.096642468
0.036328401
0.90083492
0.93522351
0.96694724
0.91701222
0.96346616
0.82156993
0.80837784
0.83646292
0.85626142
0.83472901
-0.64712863
-0.75078608
-1.0882531
-0.5393667
0.07315066
0.64550498
0.53328188
1.0759885
0.85602298
1.0876402
1.0383337
0.98797637
0.9052379
0.88026038
0.96780817
0.47772084
0.63793243
0.61509214
0.59514845
0.42719785
0.33719785
0.85707095
0.84049893
0.91134774
0.94384507
0.8874995
0.95880494
0.55760583
0.5692562
0.53659194
0.5589389
0.55049242
0.55369023
0.072334452
0.064192085
0.031982469
0.011862209
-0.012488085
-0.00099158423
0.038134233
0.029129017
0.026448141
0.027724332
0.035115448
0.041585331
0.071234202
0.038083905
-0.16399343
-0.029960763
-0.21406128
-0.33110634
-0.3868798
-0.19231266
-0.058195704
-0.049091822
0.33184727
0.60269397
0.45907862
0.53868307
0.38110863
0.47630807
0.49257194
0.4225217
0.47042918
0.35676585
0.38654733
0.31628192
-0.47591494
-0.13951971
1.1204143
1.050213
0.68509087
0.52682071
0.47145727
0.81722201
0.75697975
0.61759184
0.71291111
0.83413469
0.82461146
0.10733516
0.096230804
0.43007616
0.5636302
0.23212661
0.1144117
0.081662871
0.24327529
0.29359721
)
;

boundaryField
{
    wall-4
    {
        type            zeroGradient;
    }
    velocity-inlet-5
    {
        type            zeroGradient;
    }
    velocity-inlet-6
    {
        type            zeroGradient;
    }
    pressure-outlet-7
    {
        type            fixedValue;
        value           uniform 0;
    }
    wall-8
    {
        type            zeroGradient;
    }
    frontAndBackPlanes
    {
        type            empty;
    }
}


// ************************************************************************* //
