/*--------------------------------*- C++ -*----------------------------------*\
  =========                 |
  \\      /  F ield         | OpenFOAM: The Open Source CFD Toolbox
   \\    /   O peration     | Website:  https://openfoam.org
    \\  /    A nd           | Version:  9
     \\/     M anipulation  |
\*---------------------------------------------------------------------------*/
FoamFile
{
    format      ascii;
    class       surfaceScalarField;
    location    "13";
    object      phi;
}
// * * * * * * * * * * * * * * * * * * * * * * * * * * * * * * * * * * * * * //

dimensions      [0 3 -1 0 0 0 0];

internalField   nonuniform List<scalar> 
1300
(
1.7582594
5.6264299
-7.4280537
1.7582594
-7.2551379
5.6264299
-6.2833716
6.2833716
-1.8813829
1.8813829
3.7334389
3.6512504
-5.1563529
5.1563529
-5.5650373
5.5650373
-3.7290654
3.7290654
-5.2376941
5.2376941
-5.0557951
5.0557951
4.7870586
-4.7870586
-5.9252515
5.9252515
-2.5484684
2.5484684
-5.4839882
5.4839882
1.4729966
-1.4729966
-5.9912232
5.9912232
-0.64132564
0.64132564
-0.58066643
5.1521408
1.1775929
1.1775929
-3.4149199
3.4149199
-4.8293939
4.8293939
6.2145042
-6.2145042
11.252074
-11.252074
-3.8240206
-4.0594573
1.5982648
-9.7301099
-5.6568731
-5.6568731
-8.4382727
8.4382727
-2.8118427
2.8145872
2.569831
-2.569831
-1.795285
1.795285
-6.2435731
-0.039798472
-6.2435731
6.2758491
0.0075224935
6.2758491
-2.058412
0.17702909
-2.058412
5.5678212
-5.5678212
1.6669738
0.21440902
1.6669738
1.5637738
-1.5637738
-3.7333933
7.4668322
3.651296
-3.0590328
8.2111736
-3.3879182
7.0391686
-6.1661479
6.1661479
-5.1183435
-0.038009337
-5.1183435
5.2556963
-0.099343388
5.2556963
-6.3711428
6.3711428
-5.511372
-0.053665214
-5.511372
5.6386463
-0.073609037
5.6386463
3.9022416
-3.9022416
-3.6911818
-0.037883584
-3.6911818
3.6879847
0.041080683
3.6879847
0.35898445
5.2674455
-5.9854145
8.8000017
-5.2674455
0.029751404
5.2000386
0.037655465
5.2000386
-5.0931303
0.03733526
-5.0931303
5.0113073
0.044487754
5.0113073
4.8903767
-0.10331808
4.8903767
-4.8828008
0.095742206
-4.8828008
-3.9638533
-4.0345986
-6.0419048
0.11665331
-6.0419048
-2.5804281
0.031959692
-2.5804281
2.4712038
0.077264631
2.4712038
-4.4251492
4.4251492
-5.8709211
0.38693293
-5.870921
1.3818951
0.091101493
1.3818951
2.0129494
2.5585249
3.7712088
-3.7712087
2.2982121
-5.9193388
-0.071884462
-5.9193388
-6.0688334
-5.1832408
6.0688334
-0.077610127
-1.0877249
0.44639929
-1.0877249
1.2471528
-0.069559844
1.2471528
3.5989303
0.089054469
-3.5989303
0.18401032
4.6587917
-4.6587917
2.5493397
0.86558026
2.5493397
-5.5833996
5.5833996
4.9449169
0.066390459
-4.9449169
0.11552301
6.154503
0.060001241
6.154503
-6.1927962
-0.021707972
-6.1927962
4.0549661
-8.1144235
-4.0541054
5.7953275
0.12992402
-5.7953275
0.13845446
2.9488599
-0.37902888
2.9488599
-2.4189903
2.4189903
-2.224193
-0.34563802
-2.224193
-2.1300685
0.33478347
-2.1300686
1.5252001
0.27008484
1.5252001
-6.029356
-0.21421711
-6.029356
-6.1379818
0.2670608
6.1379818
0.13786731
1.5136395
-1.5136395
-2.2179593
0.15954736
-2.2179593
-5.7632318
-0.26612418
5.7632318
-0.1954107
-5.4743342
-0.093486923
-5.4743343
-1.8805687
-0.3436243
1.8805687
-0.31679486
1.3583625
-0.11120971
-1.3583625
-0.20541129
-3.0551922
5.6137171
-3.3917588
7.0430548
-5.9398781
-0.22626975
-5.9398781
6.31581
-0.14966209
6.3158101
5.2592477
0.22474065
-5.2592476
0.14090412
5.3658037
-0.11010741
5.3658038
-6.4216184
0.050475635
-6.4216183
6.3121009
0.059042005
6.3121009
5.4482306
-0.082426787
-5.4482307
-0.063141315
5.7251894
-0.086543045
5.7251894
4.0730541
-0.17081244
4.0730541
-3.6745214
-0.22772023
-3.6745214
3.1790735
-3.1790735
3.499081
-0.32000751
-3.499081
-0.19210081
-11.148708
11.127
-0.035822766
-11.112885
5.1642159
5.1642159
4.0988974
0.79147926
4.0988974
-5.0659656
0.1831648
-5.0659656
3.9660555
-8.0201609
4.0327923
-7.9966456
4.0330538
-13.763164
3.9905281
-8.0251266
6.2077787
-6.2077787
6.13703
0.070748727
-6.13703
0.09512517
-2.5745092
-0.0059189676
-2.5745092
-3.8364516
-0.58869758
-3.8364516
4.9750106
-0.54986134
4.9750106
-1.7547513
1.7547513
-1.5036536
-0.25109766
1.5036536
-0.12175847
5.8231667
-0.0979773
-5.8231667
-0.096172046
1.4049516
0.26202222
-1.4049516
0.31722664
4.9463745
-0.28758275
4.9463745
-4.3919389
-0.26685277
-4.3919389
-2.5546617
-0.019847448
2.5546617
-0.0053220346
-5.8249799
0.24158035
-5.8249799
-11.213429
0.10054398
-11.175774
-6.0922522
-6.0922522
2.3460204
11.146022
-3.3361055
-0.33841591
3.3361055
-0.3872456
2.0827429
-0.32799161
-2.0827429
-0.33624743
-2.8100709
-0.36900256
2.8100709
-0.39108062
-2.5609252
0.43085664
-2.5609252
-1.2833838
1.2833838
-1.3461802
0.062796369
1.3461803
0.17901986
1.8393469
-0.32570734
1.8393469
2.3544711
0.11673268
-2.3544711
0.13651176
-5.3029792
-0.17135506
-5.3029792
6.4155899
-0.099779809
6.4155899
-4.2142414
-0.17769758
4.2142413
-0.14118729
-0.035326828
11.162327
-5.128889
0.035758736
5.128889
-11.222328
11.258087
-3.144857
0.58393177
3.144857
0.9540404
5.3210241
0.26237543
-5.3210241
0.25505851
6.2603846
0.051716326
-6.2603847
0.052606006
-3.2834565
-0.55299511
-3.2834566
-5.5126685
-0.42720956
5.5126683
-0.5376577
-11.476516
-0.192917
11.669433
-11.432028
6.0178969
0.1366061
-6.0178969
11.394693
-1.335266
-0.17837346
1.335266
-0.051882224
2.2226478
-0.38330089
2.2226478
5.1756442
-0.22926972
-5.1756442
-0.12733504
-6.4413365
0.019718183
6.4413365
-0.025746665
-2.7187387
-0.56471787
2.7187387
-0.49609083
-5.4070097
5.3374499
2.8041639
-4.0190001
-4.0954234
-9.2022409
2.5679804
3.0457367
4.8661926
-8.4965346
-5.2666291
-8.3580802
7.2906117
-7.0355532
-9.5620456
9.4587275
9.9489906
-10.042478
-7.4855513
7.3637928
8.2875408
-8.6043357
3.7553883
3.7114438
10.687205
-10.725214
-15.424387
15.198118
12.050328
-12.103993
13.447079
-13.396604
-15.074874
15.12659
-7.6473199
7.6094364
-8.619579
8.3918587
-9.0134498
8.8722625
-3.9349398
-4.0617058
10.93878
-10.822127
14.070921
-14.142806
-10.999698
11.386631
4.1601151
1.1773347
4.0489054
-3.6111674
7.3665558
-3.4280012
6.2321651
4.0484258
-7.9833656
3.9717351
-8.0671585
7.3020578
6.7688635
-7.2244477
-1.9777932
-7.5633242
7.1842953
-7.4712595
7.0801789
12.025599
-12.065398
-3.5895804
7.3010242
-3.4534744
6.4992111
-3.7374314
-3.7481198
3.6463299
1.2198627
6.7082854
4.2304948
-6.8382095
-1.5198707
-10.141629
9.912359
-10.59654
10.329687
-0.48495759
5.8047065
-5.3197489
4.3444363
-1.464605
7.2693115
5.8260067
6.0091715
5.8726952
-5.6103197
1.162858
-6.4826069
-6.3670839
-3.4766407
3.636188
3.4753327
-3.2609237
7.8389663
2.1100243
7.6435556
-7.2275815
-2.8148961
-7.3989365
4.6671697
2.6966231
4.4160721
5.1521916
3.1353492
4.8085673
5.8626672
-5.9048733
0.042206104
-5.3671049
11.229772
1.396151
-9.1152248
-7.8953621
7.3353488
3.3518561
7.2360055
-7.1482904
-3.5769239
-7.0073862
-9.7799211
-5.6444666
-10.207131
9.4604466
5.7376709
9.3107844
-10.460708
10.434961
8.070132
3.9801958
7.996523
-7.8444468
-4.259546
-7.9075881
12.533607
-2.7961776
-9.7374297
-8.594179
-6.4806947
8.5351369
4.9119425
9.1402205
5.9863696
9.1928265
4.1023302
8.431277
-9.0142727
2.5335781
-4.8128019
-2.8345181
-5.0049027
4.979354
2.6300824
5.0204346
-5.0313548
-3.5882242
-5.3697707
-5.3912425
-3.6222073
5.5620549
2.8298038
-5.6885502
-4.9079897
5.8662478
3.0060148
3.6804422
-8.9470713
4.3446845
-8.4063903
-7.6242171
-3.1979098
-7.5290919
4.9419939
3.1343112
-8.0763051
-3.0413716
13.086323
-6.3174599
11.10853
-8.7179004
-5.4249054
-8.8140724
-9.0107582
-1.9889393
-8.7436973
-9.7124478
9.1594527
-9.9008185
9.3509572
14.4025
-7.3478022
-7.0546975
-4.782377
-3.8219586
4.9877883
-0.93888291
-7.1815196
7.2237257
0.18503617
6.4172013
7.594536
6.6556531
-4.2781429
-3.1931166
-4.6143903
4.8221377
2.2580412
4.4531351
9.1539439
2.8716553
9.1614664
-8.5287572
-3.5366404
-8.7429743
9.6095459
-9.2747625
3.9555561
-3.9754036
6.9074748
3.4222123
-6.6198921
-3.5217366
8.0171223
-4.0220753
-3.995047
-12.115101
10.721066
1.3940352
-4.8457897
-0.50135344
0.1399722
-5.6031292
-3.9589164
5.507387
0.50178454
11.222851
7.2639341
-5.520297
5.7618773
6.1491359
6.2155263
-0.15155759
6.1265137
-5.5425819
6.9762495
-2.9121169
-4.0641326
6.9625565
-7.2286806
-1.7804178
-7.0265421
5.2461243
0.4148749
2.4577414
-2.0113421
-2.7709714
-0.70566927
-2.6344597
2.0956601
1.3796726
2.3576823
1.2956901
2.3404979
-3.9415924
0.74339678
3.1981956
-2.6459023
-2.5175269
-4.7325321
-1.3791812
6.1117133
7.2488839
2.6634751
-7.1215488
-0.27738773
3.6706426
-3.5933779
-1.0323535
-3.7001786
2.786617
-3.8189705
-4.6426769
-2.49923
7.1419069
-3.6376422
-0.97674814
3.9656338
0.4504383
-4.3345959
-3.2287283
4.6802339
0.12833338
-4.8034576
10.230491
-5.4270335
-7.9965742
4.6006948
6.6290773
7.2973179
-8.9969514
4.572961
4.4239904
-2.3678741
6.6023654
0.63364002
6.492258
-8.5612019
4.984278
7.4945448
3.892086
-7.7192853
0.71189912
-7.8493028
11.78571
-9.1845953
-2.601115
7.0657783
4.7199319
7.8413675
6.5611322
-6.3642344
14.205602
-0.7323823
-8.4522131
8.5816849
-4.6895989
6.1755469
-10.865146
-12.736679
4.2844658
-9.8823568
10.804936
-0.92257875
-2.8709333
-7.5897745
12.75329
-1.6212301
-11.13206
7.6895542
-6.6892856
-6.1719859
12.861271
-9.4854631
10.431532
-3.5138345
-6.9176973
-8.6392213
-4.7573823
8.6195031
1.8154579
-11.841053
14.374631
-3.4097758
7.0551677
0.94135532
6.9686247
5.1574788
-7.0318972
1.8744184
4.3279843
-7.8418189
4.0429908
-11.074888
-5.8948622
11.508526
-5.613664
-9.0927719
-8.153779
-0.93899293
2.3963411
11.97829
-8.3827108
6.4192956
1.9634152
4.2508165
0.20231867
-3.930809
-1.0740937
0.52480478
5.9903197
-6.5151245
5.5452394
5.6342939
4.5497965
1.4405232
4.8591882
2.3251071
-4.4719426
-0.89782815
-5.4462703
1.8240629
-2.6164664
-4.976324
6.800387
-5.5365016
0.56017759
-3.412524
-5.124654
8.5371781
-6.2470421
5.1592504
5.0712408
7.4172916
-7.1457176
2.0210635
-3.7549803
-3.3907373
3.5154381
-6.1319045
2.6398142
4.1605728
5.645829
0.73783922
5.8551489
5.6533773
-8.9894602
0.58306987
9.8838721
-8.3640014
2.063082
7.1297445
-8.4823776
0.32859861
-7.2004933
1.3060868
-7.6235467
-6.7702183
6.8393433
-8.8282826
-4.025803
8.2466721
0.91479431
-8.3845395
-0.35915781
-6.5678446
-3.1446032
-7.1325626
-3.1761327
-6.7246859
-9.5403674
-1.8460694
-7.694298
7.3133834
-7.1382011
-3.0689296
7.675859
1.6750982
-8.0366596
7.8582862
-8.1379094
7.7546085
0.28189943
6.9418263
6.9375525
3.1155939
-4.5739521
7.689546
-6.6791872
9.5508424
-11.108604
4.4294164
5.2549159
-8.7915563
-5.8536876
5.4980845
4.1114614
5.7681692
9.2676427
-10.852357
1.5847143
-10.900857
12.568928
-1.6680711
-16.946082
6.0452248
-7.678439
3.6224622
0.33309389
3.6165433
0.89951903
3.2308801
-4.1303992
-3.0758845
-3.0812066
-2.9825373
-4.4501299
7.4326672
1.428164
-4.4094725
2.9813085
-4.5850533
6.0132173
-0.11787847
-4.2915941
6.9804186
-3.7495385
7.3135125
-4.7029317
2.6105808
4.2675838
7.2741313
-3.0065476
5.671727
-2.2495147
2.3001395
-5.3066871
-2.1499904
-4.1719128
6.8019953
-4.3652652
4.9254428
-0.28687081
5.2123136
-5.3438894
1.3218141
-0.79409287
4.840201
5.0242113
5.529373
-4.0888498
3.7723611
-6.0218758
-1.534326
-5.2840366
-1.1234638
-0.57350758
-4.934662
5.5081695
6.6808733
-7.2543808
-5.4016415
9.817018
-4.4153765
8.1190339
-5.5796933
-2.5393406
-4.5891525
-4.68561
4.1582959
1.9682178
10.087252
0.27499758
-5.8546909
-5.2675844
-4.313544
4.3484443
2.6278052
-2.5723725
3.9664077
2.4324003
0.025341104
0.8400395
1.5176428
2.5357002
-1.6956607
0.17647267
2.3592275
-1.8348695
2.6689245
1.001718
-2.7856572
0.15119753
-1.8191032
4.6057201
1.3790924
-2.758765
1.0631043
1.6366897
-4.5488067
6.2603323
-3.0654604
-3.1948719
7.897022
1.5439869
-4.6094473
5.4825553
-5.0676804
2.995794
-4.3749752
-1.6136534
-6.6813337
-4.5713095
-3.2090485
6.190357
-4.2236187
6.8870938
1.5476801
-6.6097061
8.1573861
-4.6484814
2.1492513
-4.0304417
5.0321597
-1.3647359
-2.6657058
3.5924584
3.5494485
-3.7545249
0.054346256
-0.16206647
3.072301
-3.2343675
-0.74666957
-3.3925718
-7.110243
7.2385764
-3.7146522
8.2876132
3.9748939
-3.1984243
11.486037
3.3064574
-6.5048817
-4.6901168
-5.666865
-2.0808913
5.2164267
-1.3082509
-6.5993373
-8.2259482
6.681764
-0.18950597
-9.3166433
11.580642
-2.2639987
-5.9647873
0.9805094
6.0852688
-9.1812716
1.3394527
-5.1382808
6.4423614
7.0760014
6.8864955
-11.989266
0.85720607
-6.2515953
2.5990589
-8.8506542
7.3189907
-4.6589616
8.9434272
-11.221739
8.1528089
-9.5466403
6.3423119
-2.5083423
6.6223719
-4.7479535
3.1150578
-7.87244
-6.0569822
8.3863976
-4.4062018
9.327753
-5.0452938
14.373047
-8.4550696
8.4285541
5.9444927
-1.7641946
-7.0498778
-8.2493237
6.4851291
0.17923044
7.1478551
6.9076146
-4.5825074
6.0097864
3.7103423
-7.4653226
-2.4215622
-10.557585
3.0922629
-5.4863447
-2.5357495
5.6280124
4.8815421
5.0838607
2.2372751
-4.009767
8.0789913
-9.0179842
-2.4653273
-4.304891
8.1423282
-1.657199
4.9061239
-9.2110148
-2.7174228
5.3671993
-0.24117888
-5.1260204
1.9806022
-6.0064053
1.8689919
-7.8753971
6.9592906
-7.3184485
2.3734877
-10.051927
-5.6631719
-5.7150541
-2.4766109
-5.6612985
-7.9165052
5.4398943
-1.8712804
5.9870058
-8.7656349
8.524456
-3.803293
9.2431874
-5.9086325
-1.2239301
6.4047234
1.3498851
10.593072
0.30071306
-6.1544006
-2.5456336
5.3565217
-2.8108881
1.8028107
-4.6339488
0.72257283
3.3483418
4.5486802
-8.594466
-0.19709029
-6.3514909
-4.1717733
8.2832347
5.6452446
12.326118
1.4737609
9.4379521
-1.1547174
10.911713
4.6134517
4.7924716
-3.9163096
5.5010238
1.5918599
6.0212764
-1.1306594
3.7412402
2.4858839
2.5178436
1.0755344
3.0817035
1.9425078
4.4035176
0.27311845
-2.8080881
4.7343888
-9.0479328
-1.1203021
-8.2564536
1.2022739
5.9211767
-4.7189027
4.2770704
-1.6492653
1.4661822
0.25022882
-2.6075237
2.3572949
-3.8139038
-2.5821827
-0.2229552
-2.0715713
3.1346756
2.5341489
-2.9117204
-0.9021835
0.42497763
-4.9962871
3.9499976
-3.8956514
-0.3462029
7.8111832
-3.6068285
0.37246105
-1.4575772
-3.0201108
-3.7257801
3.5745825
10.893279
0.59275842
5.4662456
7.8313349
4.6026066
0.020099146
6.6981574
-7.6207361
-4.3767308
-6.7635301
0.55546063
6.6407294
2.5490383
9.4292517
8.4935311
6.8363321
-2.3746827
-11.392667
8.1265936
-2.6255698
6.4585224
-1.3325022
-6.5428949
6.5533369
2.9975055
-7.4681312
0.14968283
-6.393212
-9.0187819
-0.25627511
8.780731
-10.336797
9.1128672
5.968264
1.726034
-4.8278533
-0.88720083
4.765057
0.02741459
10.939128
-1.2077942
-7.2194686
8.4272628
-4.7133824
3.5930803
1.0717836
2.8946241
3.4290785
1.7798133
-5.4396554
-10.158558
-2.4304634
-2.1183433
-5.6253353
0.48637795
-3.0205268
6.337827
-2.7447468
3.7984864
5.682516
7.1486982
-2.0781808
-5.1762
6.4935574
-2.695071
4.4536272
)
;

boundaryField
{
    wall-4
    {
        type            calculated;
        value           uniform 0;
    }
    velocity-inlet-5
    {
        type            calculated;
        value           nonuniform List<scalar> 8(-1.7582594 -1.7582594 -7.3846893 -4.5714743 -7.3846893 -6.446951 -4.5714743 -6.446951);
    }
    velocity-inlet-6
    {
        type            calculated;
        value           uniform -5.6264299;
    }
    pressure-outlet-7
    {
        type            calculated;
        value           nonuniform List<scalar> 8(7.4280537 7.2551379 7.8834779 8.1318451 7.9984519 8.1090715 7.9988478 8.0235819);
    }
    wall-8
    {
        type            calculated;
        value           uniform 0;
    }
    frontAndBackPlanes
    {
        type            empty;
        value           nonuniform List<scalar> 0();
    }
}


// ************************************************************************* //
