/*--------------------------------*- C++ -*----------------------------------*\
  =========                 |
  \\      /  F ield         | OpenFOAM: The Open Source CFD Toolbox
   \\    /   O peration     | Website:  https://openfoam.org
    \\  /    A nd           | Version:  9
     \\/     M anipulation  |
\*---------------------------------------------------------------------------*/
FoamFile
{
    format      ascii;
    class       volScalarField;
    location    "45";
    object      p;
}
// * * * * * * * * * * * * * * * * * * * * * * * * * * * * * * * * * * * * * //

dimensions      [0 2 -2 0 0 0 0];

internalField   nonuniform List<scalar> 
400
(
1.0443966e-09
-0.00067287481
-0.0013853525
-0.0019427109
-0.0022200046
-0.0021565012
-0.001727796
-0.00092620523
0.00023541399
0.0017073976
0.0033872794
0.0051121931
0.0066734778
0.0078491035
0.0084583917
0.0084236869
0.0078133974
0.0068445131
0.0058612905
0.0052989335
0.00065783977
-4.0527584e-05
-0.00056966097
-0.00094062639
-0.0011108646
-0.0010399233
-0.00070579245
-9.5546232e-05
0.0007890969
0.0019161799
0.0032095757
0.0045546957
0.0057819583
0.0067162555
0.0072144234
0.0072145279
0.0067699537
0.006052766
0.0053105211
0.0047384769
0.0014236973
0.00044064738
-0.00011660247
-0.00045324483
-0.00061480943
-0.00058481273
-0.00034658295
0.00011973984
0.00082845542
0.0017698985
0.0028942769
0.0040981447
0.0052282215
0.0061109609
0.006593861
0.006597659
0.006155734
0.005421507
0.004593739
0.0037482243
0.0020141922
0.00068168217
1.6765322e-05
-0.00035885698
-0.0005715519
-0.00062656172
-0.00051008613
-0.00019063642
0.00036849567
0.0011843794
0.0022299021
0.0034174075
0.0045913438
0.0055569241
0.006123545
0.0061665567
0.0056836175
0.0048170459
0.0037472849
0.00247359
0.0021672625
0.00049611206
-0.00029626483
-0.00074871168
-0.0010582593
-0.0012452752
-0.0012927531
-0.0011513082
-0.00075505724
-5.3105037e-05
0.00095702079
0.0022102743
0.0035446945
0.0047326471
0.0055218315
0.005709876
0.0052292791
0.0042015953
0.0028061736
0.0009839511
0.0016539528
-0.00031448689
-0.0012387942
-0.0017993081
-0.0022526709
-0.0026279186
-0.0028986287
-0.0029910888
-0.002802544
-0.0022376841
-0.0012510998
0.00013088967
0.0017446371
0.0033270936
0.0045416256
0.005065763
0.0047174819
0.0035661853
0.0017895797
-0.00072593529
0.00028701521
-0.0019195802
-0.0029730065
-0.0036713887
-0.0043203043
-0.0049532121
-0.0055301336
-0.0059479644
-0.0060590128
-0.0057073936
-0.0047757276
-0.0032587051
-0.00126652
0.00090716156
0.0028231069
0.0039868174
0.0040250782
0.0028876932
0.0007153638
-0.0026805161
-0.0020764386
-0.0044512025
-0.0056268144
-0.0064923298
-0.0073929248
-0.0083657715
-0.0093569384
-0.010231802
-0.010790985
-0.010804858
-0.010063381
-0.0084617802
-0.0060407814
-0.0030832314
-0.00012632398
0.0021126044
0.0029638088
0.0021355643
-0.00036605116
-0.0048726278
-0.0055241764
-0.0079921237
-0.0092779332
-0.010333801
-0.011538003
-0.012935419
-0.014462721
-0.015956345
-0.017162487
-0.017766051
-0.017438101
-0.015919497
-0.013122979
-0.0092517769
-0.0048990247
-0.0010300334
0.0012693913
0.0012777448
-0.0013339767
-0.007201696
-0.010076924
-0.012565105
-0.013936676
-0.01518402
-0.016718392
-0.018602626
-0.020774203
-0.023048786
-0.025121716
-0.026586376
-0.02696937
-0.025812965
-0.022845704
-0.018074475
-0.012051114
-0.0059519728
-0.0013707579
0.00030057493
-0.0019472221
-0.0093822439
-0.015685002
-0.018132426
-0.019537567
-0.020926824
-0.022757762
-0.025129894
-0.02799701
-0.031166415
-0.0342915
-0.036876885
-0.038294204
-0.037844305
-0.035065883
-0.029601499
-0.021822525
-0.0129856
-0.005184996
-0.00071576984
-0.0017642184
-0.010792274
-0.022243616
-0.024613058
-0.025945609
-0.027334967
-0.029324182
-0.032079265
-0.035588964
-0.039664661
-0.043927296
-0.047801341
-0.050530227
-0.051236512
-0.048956906
-0.043143575
-0.033769044
-0.021926368
-0.010036905
-0.0014154642
-9.8860357e-06
-0.010225638
-0.029641229
-0.031923921
-0.032978777
-0.034079881
-0.035939515
-0.038831555
-0.042795661
-0.047651613
-0.052990555
-0.058163617
-0.062284284
-0.064265567
-0.062875189
-0.057112215
-0.046476769
-0.031649112
-0.015037884
-0.00086440992
0.0046467449
-0.0055215553
-0.037866014
-0.040048529
-0.040440178
-0.040752552
-0.042015045
-0.044653079
-0.048758238
-0.054144106
-0.060356066
-0.066665374
-0.072060716
-0.075268313
-0.074811392
-0.069269295
-0.057628333
-0.039961532
-0.018247992
0.0027890197
0.01444514
0.0069075315
-0.047230609
-0.049134356
-0.048140597
-0.04688236
-0.046905525
-0.048798689
-0.052668306
-0.058276054
-0.065076146
-0.072232034
-0.078595798
-0.082712349
-0.082880237
-0.077309418
-0.064523964
-0.043934977
-0.016748007
0.012502931
0.03293877
0.03240894
-0.058896844
-0.05963989
-0.055883873
-0.0519411
-0.049972385
-0.050629903
-0.053928653
-0.059495358
-0.066611893
-0.074285334
-0.081191203
-0.085679435
-0.085831825
-0.079522221
-0.064876124
-0.040689288
-0.0072409376
0.032139358
0.064981438
0.077749169
-0.076226588
-0.072613814
-0.063516114
-0.055435351
-0.050725072
-0.049781657
-0.052312377
-0.057664389
-0.064891846
-0.072775004
-0.079779401
-0.08403678
-0.083391685
-0.075348989
-0.057602698
-0.028375161
0.012933312
0.065396464
0.1155515
0.15150622
-0.10809226
-0.08955652
-0.071233863
-0.057232951
-0.049072112
-0.046330238
-0.048077299
-0.053202638
-0.060434652
-0.068295895
-0.075027426
-0.078526947
-0.076389039
-0.065809705
-0.043865505
-0.0078184689
0.044393654
0.11299814
0.18838041
0.27186076
-0.17684544
-0.10828983
-0.076202644
-0.054651304
-0.042992399
-0.038998047
-0.040570537
-0.045928075
-0.053441569
-0.06143839
-0.068027617
-0.07096259
-0.067551165
-0.054739864
-0.02914884
0.01356358
0.078146941
0.17006435
0.28949545
0.47421821
-0.37208337
-0.12470843
-0.054973106
-0.03196257
-0.022063597
-0.020300552
-0.024359485
-0.03195803
-0.041261591
-0.050640918
-0.058316933
-0.062187496
-0.059782586
-0.04805684
-0.022658555
0.021474185
0.092818704
0.21015276
0.40288841
0.77640928
)
;

boundaryField
{
    movingWall
    {
        type            zeroGradient;
    }
    fixedWalls
    {
        type            zeroGradient;
    }
    frontAndBack
    {
        type            empty;
    }
}


// ************************************************************************* //
