/*--------------------------------*- C++ -*----------------------------------*\
  =========                 |
  \\      /  F ield         | OpenFOAM: The Open Source CFD Toolbox
   \\    /   O peration     | Website:  https://openfoam.org
    \\  /    A nd           | Version:  9
     \\/     M anipulation  |
\*---------------------------------------------------------------------------*/
FoamFile
{
    format      ascii;
    class       volScalarField;
    location    "0.006";
    object      rho;
}
// * * * * * * * * * * * * * * * * * * * * * * * * * * * * * * * * * * * * * //

dimensions      [1 -3 0 0 0 0 0];

internalField   nonuniform List<scalar> 
1000
(
0.997574
0.997574
0.997574
0.997574
0.997574
0.997574
0.997574
0.997574
0.997574
0.997574
0.997574
0.997574
0.997574
0.997574
0.997574
0.997574
0.997574
0.997574
0.997574
0.997574
0.997574
0.997574
0.997574
0.997574
0.997574
0.997574
0.997574
0.997574
0.997574
0.997574
0.997574
0.997574
0.997574
0.997574
0.997574
0.997574
0.997574
0.997574
0.997574
0.997574
0.997574
0.997574
0.997574
0.997574
0.997574
0.997574
0.997574
0.997574
0.997574
0.997574
0.997574
0.997574
0.997574
0.997574
0.997574
0.997574
0.997574
0.997574
0.997574
0.997574
0.997574
0.997574
0.997574
0.997574
0.997574
0.997574
0.997574
0.997574
0.997574
0.997574
0.997574
0.997574
0.997574
0.997574
0.997574
0.997574
0.997574
0.997574
0.997574
0.997574
0.997574
0.997574
0.997574
0.997574
0.997574
0.997574
0.997574
0.997574
0.997574
0.997574
0.997574
0.997574
0.997574
0.997574
0.997574
0.997574
0.997574
0.997574
0.997574
0.997574
0.997574
0.997574
0.997574
0.997574
0.997574
0.997574
0.997574
0.997574
0.997574
0.997574
0.997574
0.997574
0.997574
0.997574
0.997574
0.997574
0.997574
0.997574
0.997574
0.997574
0.997574
0.997574
0.997574
0.997574
0.997574
0.997574
0.997574
0.997574
0.997574
0.997574
0.997574
0.997574
0.997574
0.997574
0.997574
0.997574
0.997574
0.997574
0.997574
0.997574
0.997574
0.997574
0.997574
0.997574
0.997574
0.997574
0.997574
0.997574
0.997574
0.997574
0.997574
0.997574
0.997574
0.997574
0.997574
0.997574
0.997574
0.997574
0.997574
0.997574
0.997574
0.997574
0.997574
0.997574
0.997574
0.997574
0.997574
0.997574
0.997574
0.997574
0.997574
0.997574
0.997574
0.997574
0.997574
0.997574
0.997574
0.997574
0.997574
0.997574
0.997574
0.997574
0.997574
0.997574
0.997574
0.997574
0.997574
0.997574
0.997574
0.997574
0.997574
0.997574
0.997574
0.997574
0.997574
0.997574
0.997574
0.997574
0.997574
0.997574
0.997574
0.997574
0.997574
0.997574
0.997574
0.997574
0.997574
0.997574
0.997574
0.997574
0.997574
0.997574
0.997574
0.997574
0.997574
0.997574
0.997574
0.997574
0.997574
0.997574
0.997574
0.997574
0.997574
0.997574
0.997574
0.997574
0.997574
0.997574
0.997574
0.997574
0.997573
0.997573
0.997572
0.997571
0.99757
0.997568
0.997566
0.997563
0.997558
0.997552
0.997544
0.997532
0.997517
0.997497
0.997471
0.997437
0.997393
0.997336
0.997264
0.997174
0.997061
0.996921
0.996749
0.996539
0.996287
0.995985
0.995627
0.995206
0.994716
0.99415
0.993501
0.992765
0.991935
0.991007
0.989979
0.988846
0.987607
0.986261
0.984809
0.983251
0.981589
0.979827
0.977966
0.976012
0.973967
0.971836
0.969625
0.967337
0.964978
0.962553
0.960065
0.95752
0.954921
0.952273
0.949581
0.946846
0.944074
0.941267
0.938428
0.935561
0.932667
0.929749
0.926809
0.92385
0.920873
0.917881
0.914874
0.911854
0.908822
0.905781
0.90273
0.899671
0.896606
0.893534
0.890457
0.887376
0.884291
0.881203
0.878113
0.875021
0.871928
0.868835
0.865742
0.862649
0.859557
0.856466
0.853377
0.85029
0.847206
0.844124
0.841046
0.837971
0.834899
0.831832
0.828769
0.82571
0.822657
0.819608
0.816564
0.813525
0.810493
0.807465
0.804444
0.801429
0.798419
0.795416
0.79242
0.78943
0.786447
0.78347
0.7805
0.777538
0.774582
0.771633
0.768692
0.765758
0.762831
0.759912
0.757
0.754096
0.751199
0.74831
0.745429
0.742556
0.73969
0.736832
0.733982
0.73114
0.728306
0.72548
0.722661
0.719851
0.717049
0.714255
0.71147
0.708692
0.705922
0.703161
0.700408
0.697663
0.694926
0.692197
0.689477
0.686765
0.684061
0.681366
0.678679
0.676
0.67333
0.670667
0.668014
0.665368
0.662731
0.660102
0.657482
0.65487
0.652266
0.649671
0.647082
0.644507
0.64193
0.639381
0.636805
0.634299
0.6317
0.629266
0.626612
0.624281
0.621549
0.619324
0.616546
0.614353
0.611641
0.60935
0.606819
0.604367
0.602
0.599486
0.597132
0.594702
0.592278
0.589925
0.587511
0.585139
0.582788
0.580409
0.578066
0.575731
0.573387
0.571067
0.568755
0.566441
0.564144
0.561857
0.559573
0.557301
0.555038
0.552784
0.550536
0.5483
0.546073
0.543852
0.541643
0.539442
0.53725
0.535068
0.532894
0.530732
0.528576
0.526432
0.524297
0.522171
0.520056
0.51795
0.515855
0.513769
0.511695
0.50963
0.507577
0.505534
0.503502
0.501482
0.499472
0.497475
0.495489
0.493517
0.491555
0.489608
0.487673
0.485752
0.483845
0.481952
0.480074
0.478211
0.476365
0.474534
0.47272
0.470924
0.469147
0.467389
0.46565
0.463933
0.462236
0.460564
0.458913
0.45729
0.45569
0.45412
0.452577
0.451065
0.449584
0.448136
0.446723
0.445346
0.444008
0.442708
0.441452
0.440237
0.439069
0.437947
0.436873
0.435849
0.434877
0.433958
0.433091
0.43228
0.431522
0.43082
0.430172
0.429579
0.429038
0.42855
0.428111
0.42772
0.427374
0.427072
0.426808
0.426581
0.426387
0.426224
0.426086
0.425972
0.425879
0.425802
0.42574
0.425691
0.425651
0.42562
0.425596
0.425576
0.425561
0.425548
0.425538
0.42553
0.425523
0.425516
0.425512
0.425506
0.425502
0.425497
0.425494
0.425489
0.425486
0.42548
0.425478
0.425473
0.425472
0.425465
0.425464
0.425457
0.425456
0.425449
0.425448
0.425441
0.42544
0.425433
0.425432
0.425424
0.425423
0.425415
0.425414
0.425406
0.425405
0.425396
0.425395
0.425386
0.425386
0.425376
0.425376
0.425366
0.425365
0.425356
0.425355
0.425345
0.425344
0.425334
0.425333
0.425323
0.425322
0.425311
0.42531
0.425299
0.425298
0.425286
0.425285
0.425273
0.425272
0.42526
0.425259
0.425245
0.425245
0.425231
0.42523
0.425216
0.425212
0.425204
0.425194
0.425187
0.425179
0.42517
0.425161
0.425152
0.425143
0.425133
0.425123
0.425113
0.425103
0.425092
0.425082
0.425071
0.425059
0.425048
0.425037
0.425025
0.425012
0.425
0.424987
0.424974
0.424961
0.424947
0.424933
0.424918
0.424903
0.424888
0.424871
0.424854
0.424836
0.424818
0.424799
0.42478
0.42476
0.424739
0.424717
0.424694
0.42467
0.424645
0.424619
0.424592
0.424564
0.424534
0.424503
0.424471
0.424437
0.424402
0.424365
0.424325
0.424284
0.424241
0.424195
0.424146
0.424094
0.424039
0.423979
0.423916
0.423849
0.423778
0.423701
0.423615
0.423519
0.423411
0.423294
0.423174
0.423057
0.422951
0.422855
0.422762
0.422646
0.422464
0.42215
0.421619
0.420767
0.419479
0.417635
0.415125
0.411852
0.407747
0.402778
0.39695
0.390311
0.382951
0.374995
0.366597
0.357927
0.349161
0.340471
0.332016
0.323932
0.31633
0.309294
0.302877
0.297107
0.291988
0.287505
0.283628
0.280314
0.277514
0.275175
0.273242
0.271662
0.270384
0.269361
0.268551
0.267916
0.267422
0.267043
0.266755
0.266537
0.266374
0.266254
0.266166
0.266102
0.266055
0.266021
0.265997
0.26598
0.265967
0.265958
0.265951
0.265946
0.265941
0.265938
0.265934
0.265932
0.265929
0.265927
0.265925
0.265923
0.265921
0.265919
0.265918
0.265916
0.265915
0.265914
0.265913
0.265912
0.265911
0.26591
0.26591
0.265909
0.265908
0.265908
0.265907
0.265907
0.265906
0.265906
0.265906
0.265905
0.265905
0.265905
0.265905
0.265905
0.265905
0.265905
0.265905
0.265904
0.265904
0.265904
0.265904
0.265903
0.265903
0.265903
0.265902
0.265902
0.265902
0.265901
0.265901
0.265901
0.265901
0.265901
0.265901
0.265901
0.265901
0.265901
0.265901
0.2659
0.2659
0.2659
0.2659
0.265899
0.265899
0.265898
0.265897
0.265897
0.265897
0.265896
0.265896
0.265896
0.265896
0.265895
0.265895
0.265895
0.265895
0.265895
0.265895
0.265895
0.265894
0.265894
0.265894
0.265893
0.265893
0.265892
0.265892
0.265891
0.265891
0.26589
0.26589
0.26589
0.265889
0.265889
0.265889
0.265889
0.265888
0.265888
0.265888
0.265888
0.265888
0.265887
0.265887
0.265887
0.265886
0.265885
0.265884
0.265883
0.265882
0.265882
0.265881
0.26588
0.265878
0.265875
0.265868
0.265858
0.26584
0.265798
0.265716
0.265544
0.265207
0.264451
0.262778
0.258905
0.249915
0.23006
0.199279
0.166418
0.142507
0.130586
0.126325
0.125112
0.1248
0.124722
0.124703
0.124698
0.124697
0.124697
0.124697
0.124697
0.124697
0.124697
0.124697
0.124697
0.124697
0.124697
0.124697
0.124697
0.124697
0.124697
0.124697
0.124697
0.124697
0.124697
0.124697
0.124697
0.124697
0.124697
0.124697
0.124697
0.124697
0.124697
0.124697
0.124697
0.124697
0.124697
0.124697
0.124697
0.124697
0.124697
0.124697
0.124697
0.124697
0.124697
0.124697
0.124697
0.124697
0.124697
0.124697
0.124697
0.124697
0.124697
0.124697
0.124697
0.124697
0.124697
0.124697
0.124697
0.124697
0.124697
0.124697
0.124697
0.124697
0.124697
0.124697
0.124697
0.124697
0.124697
0.124697
0.124697
0.124697
0.124697
0.124697
0.124697
0.124697
0.124697
0.124697
0.124697
0.124697
0.124697
0.124697
0.124697
0.124697
0.124697
0.124697
0.124697
0.124697
0.124697
0.124697
0.124697
0.124697
0.124697
0.124697
0.124697
0.124697
0.124697
0.124697
0.124697
0.124697
0.124697
0.124697
0.124697
0.124697
0.124697
0.124697
0.124697
0.124697
0.124697
0.124697
0.124697
0.124697
0.124697
0.124697
0.124697
0.124697
0.124697
0.124697
0.124697
0.124697
0.124697
0.124697
0.124697
0.124697
0.124697
0.124697
0.124697
0.124697
0.124697
0.124697
0.124697
0.124697
0.124697
0.124697
0.124697
0.124697
0.124697
0.124697
0.124697
0.124697
0.124697
0.124697
0.124697
0.124697
0.124697
0.124697
0.124697
0.124697
0.124697
0.124697
0.124697
0.124697
0.124697
0.124697
0.124697
0.124697
0.124697
0.124697
0.124697
0.124697
0.124697
0.124697
0.124697
0.124697
0.124697
0.124697
)
;

boundaryField
{
    sides
    {
        type            calculated;
        value           nonuniform List<scalar> 2(0.124697 0.997574);
    }
    empty
    {
        type            empty;
    }
}


// ************************************************************************* //
