/*--------------------------------*- C++ -*----------------------------------*\
  =========                 |
  \\      /  F ield         | OpenFOAM: The Open Source CFD Toolbox
   \\    /   O peration     | Website:  https://openfoam.org
    \\  /    A nd           | Version:  9
     \\/     M anipulation  |
\*---------------------------------------------------------------------------*/
FoamFile
{
    format      ascii;
    class       volVectorField;
    location    "0.006";
    object      U;
}
// * * * * * * * * * * * * * * * * * * * * * * * * * * * * * * * * * * * * * //

dimensions      [0 1 -1 0 0 0 0];

internalField   nonuniform List<vector> 
1000
(
(4.23032e-13 0 0)
(3.7927e-13 0 0)
(4.08444e-13 0 0)
(5.68905e-13 0 0)
(3.64683e-13 0 0)
(4.52206e-13 0 0)
(3.7927e-13 0 0)
(2.77159e-13 0 0)
(4.52206e-13 0 0)
(5.68905e-13 0 0)
(7.5854e-13 0 0)
(6.41841e-13 0 0)
(7.87714e-13 0 0)
(5.54317e-13 0 0)
(9.33587e-13 0 0)
(6.71016e-13 0 0)
(8.16889e-13 0 0)
(8.16889e-13 0 0)
(9.19e-13 0 0)
(8.31476e-13 0 0)
(6.85603e-13 0 0)
(9.04413e-13 0 0)
(5.83492e-13 0 0)
(8.75238e-13 0 0)
(8.31476e-13 0 0)
(9.33587e-13 0 0)
(9.77349e-13 0 0)
(1.23992e-12 0 0)
(1.09405e-12 0 0)
(1.10863e-12 0 0)
(1.07946e-12 0 0)
(1.05029e-12 0 0)
(9.77349e-13 0 0)
(9.62762e-13 0 0)
(8.75238e-13 0 0)
(9.91936e-13 0 0)
(7.0019e-13 0 0)
(7.73127e-13 0 0)
(5.83492e-13 0 0)
(7.0019e-13 0 0)
(5.10556e-13 0 0)
(4.52206e-13 0 0)
(4.52206e-13 0 0)
(2.62571e-13 0 0)
(3.06333e-13 0 0)
(1.45873e-13 0 0)
(4.52206e-13 0 0)
(2.1881e-13 0 0)
(4.81381e-13 0 0)
(1.75048e-13 0 0)
(5.98079e-13 0 0)
(2.77159e-13 0 0)
(7.5854e-13 0 0)
(8.16889e-13 0 0)
(7.5854e-13 0 0)
(7.14778e-13 0 0)
(7.29365e-13 0 0)
(6.41841e-13 0 0)
(8.02302e-13 0 0)
(5.98079e-13 0 0)
(8.75238e-13 0 0)
(6.85603e-13 0 0)
(8.31476e-13 0 0)
(3.93857e-13 0 0)
(8.75238e-13 0 0)
(5.54317e-13 0 0)
(7.73127e-13 0 0)
(5.3973e-13 0 0)
(5.25143e-13 0 0)
(5.10556e-13 0 0)
(2.33397e-13 0 0)
(4.81381e-13 0 0)
(1.89635e-13 0 0)
(3.7927e-13 0 0)
(7.29365e-14 0 0)
(1.31286e-13 0 0)
(-1.75048e-13 0 0)
(2.04222e-13 0 0)
(-4.37619e-14 0 0)
(2.77159e-13 0 0)
(1.45873e-14 0 0)
(2.77159e-13 0 0)
(1.75048e-13 0 0)
(2.91746e-13 0 0)
(1.75048e-13 0 0)
(-7.29365e-14 0 0)
(1.6046e-13 0 0)
(2.1881e-13 0 0)
(2.1881e-13 0 0)
(2.33397e-13 0 0)
(2.04222e-13 0 0)
(2.1881e-13 0 0)
(2.62571e-13 0 0)
(4.08444e-13 0 0)
(4.52206e-13 0 0)
(3.06333e-13 0 0)
(4.52206e-13 0 0)
(2.51804e-27 0 0)
(2.04222e-13 0 0)
(2.91746e-13 0 0)
(2.33397e-13 0 0)
(2.04222e-13 0 0)
(1.6046e-13 0 0)
(2.91746e-13 0 0)
(1.6046e-13 0 0)
(1.16698e-13 0 0)
(-2.91746e-14 0 0)
(-1.45873e-14 0 0)
(-1.6046e-13 0 0)
(4.37619e-14 0 0)
(-4.37619e-14 0 0)
(5.83492e-14 0 0)
(-2.91746e-14 0 0)
(8.75238e-14 0 0)
(2.91746e-14 0 0)
(2.1881e-13 0 0)
(1.45873e-14 0 0)
(3.50095e-13 0 0)
(1.31286e-13 0 0)
(4.08444e-13 0 0)
(2.04222e-13 0 0)
(5.98079e-13 0 0)
(3.7927e-13 0 0)
(1.07946e-12 0 0)
(9.19e-13 0 0)
(1.25451e-12 0 0)
(1.32744e-12 0 0)
(1.41497e-12 0 0)
(1.35662e-12 0 0)
(1.44414e-12 0 0)
(1.69213e-12 0 0)
(1.57543e-12 0 0)
(1.77965e-12 0 0)
(1.73589e-12 0 0)
(1.76506e-12 0 0)
(1.77965e-12 0 0)
(1.67754e-12 0 0)
(1.91094e-12 0 0)
(1.61919e-12 0 0)
(1.92552e-12 0 0)
(1.76506e-12 0 0)
(1.85259e-12 0 0)
(1.85259e-12 0 0)
(1.64836e-12 0 0)
(1.57543e-12 0 0)
(1.42956e-12 0 0)
(1.69213e-12 0 0)
(1.47332e-12 0 0)
(1.44414e-12 0 0)
(1.67754e-12 0 0)
(1.29827e-12 0 0)
(1.57543e-12 0 0)
(1.28368e-12 0 0)
(1.57543e-12 0 0)
(1.47332e-12 0 0)
(1.73589e-12 0 0)
(1.41497e-12 0 0)
(1.69213e-12 0 0)
(1.44414e-12 0 0)
(1.61919e-12 0 0)
(1.61919e-12 0 0)
(1.64836e-12 0 0)
(1.67754e-12 0 0)
(1.77965e-12 0 0)
(1.63378e-12 0 0)
(1.838e-12 0 0)
(1.80883e-12 0 0)
(1.9547e-12 0 0)
(1.82341e-12 0 0)
(1.86717e-12 0 0)
(1.66295e-12 0 0)
(1.80883e-12 0 0)
(1.41497e-12 0 0)
(1.67754e-12 0 0)
(1.92552e-12 0 0)
(1.54625e-12 0 0)
(1.98387e-12 0 0)
(1.63378e-12 0 0)
(1.91094e-12 0 0)
(1.37121e-12 0 0)
(1.66295e-12 0 0)
(1.19616e-12 0 0)
(1.25451e-12 0 0)
(1.05029e-12 0 0)
(1.06487e-12 0 0)
(1.10863e-12 0 0)
(1.21075e-12 0 0)
(1.32744e-12 0 0)
(1.45873e-12 0 0)
(1.77965e-12 0 0)
(2.21727e-12 0 0)
(3.18003e-12 0 0)
(4.58041e-12 0 0)
(7.13319e-12 0 0)
(1.22971e-11 0 0)
(2.06994e-11 0 0)
(3.56805e-11 0 0)
(6.14709e-11 0 0)
(1.06196e-10 0 0)
(1.83158e-10 0 0)
(3.14123e-10 0 0)
(5.37732e-10 0 0)
(9.1477e-10 0 0)
(1.55186e-09 0 0)
(2.61791e-09 0 0)
(4.39854e-09 0 0)
(7.35267e-09 0 0)
(1.22342e-08 0 0)
(2.02561e-08 0 0)
(3.33749e-08 0 0)
(5.47175e-08 0 0)
(8.9261e-08 0 0)
(1.4488e-07 0 0)
(2.33959e-07 0 0)
(3.7587e-07 0 0)
(6.00737e-07 0 0)
(9.55112e-07 0 0)
(1.51052e-06 0 0)
(2.37619e-06 0 0)
(3.71787e-06 0 0)
(5.78549e-06 0 0)
(8.95362e-06 0 0)
(1.37798e-05 0 0)
(2.10888e-05 0 0)
(3.2092e-05 0 0)
(4.85573e-05 0 0)
(7.30462e-05 0 0)
(0.000109245 0 0)
(0.000162418 0 0)
(0.000240033 0 0)
(0.000352601 0 0)
(0.000514805 0 0)
(0.000746997 0 0)
(0.00107716 0 0)
(0.00154347 0 0)
(0.00219756 0 0)
(0.00310867 0 0)
(0.00436885 0 0)
(0.00609938 0 0)
(0.00845857 0 0)
(0.0116511 0 0)
(0.015939 0 0)
(0.0216543 0 0)
(0.0292136 0 0)
(0.0391333 0 0)
(0.0520473 0 0)
(0.0687238 0 0)
(0.090083 0 0)
(0.117213 0 0)
(0.151385 0 0)
(0.194062 0 0)
(0.246905 0 0)
(0.31177 0 0)
(0.390703 0 0)
(0.48592 0 0)
(0.59978 0 0)
(0.734748 0 0)
(0.893355 0 0)
(1.07814 0 0)
(1.29161 0 0)
(1.53614 0 0)
(1.81399 0 0)
(2.12716 0 0)
(2.47741 0 0)
(2.8662 0 0)
(3.29465 0 0)
(3.76354 0 0)
(4.2733 0 0)
(4.82401 0 0)
(5.41544 0 0)
(6.04702 0 0)
(6.71796 0 0)
(7.42719 0 0)
(8.17347 0 0)
(8.9554 0 0)
(9.77144 0 0)
(10.62 0 0)
(11.4995 0 0)
(12.4082 0 0)
(13.3444 0 0)
(14.3066 0 0)
(15.2931 0 0)
(16.3025 0 0)
(17.3333 0 0)
(18.384 0 0)
(19.4534 0 0)
(20.5403 0 0)
(21.6434 0 0)
(22.7617 0 0)
(23.8942 0 0)
(25.0399 0 0)
(26.1981 0 0)
(27.3678 0 0)
(28.5484 0 0)
(29.7392 0 0)
(30.9395 0 0)
(32.1488 0 0)
(33.3665 0 0)
(34.5921 0 0)
(35.8252 0 0)
(37.0653 0 0)
(38.3121 0 0)
(39.5652 0 0)
(40.8242 0 0)
(42.0889 0 0)
(43.3588 0 0)
(44.6339 0 0)
(45.9137 0 0)
(47.1981 0 0)
(48.4868 0 0)
(49.7796 0 0)
(51.0763 0 0)
(52.3768 0 0)
(53.6808 0 0)
(54.9881 0 0)
(56.2987 0 0)
(57.6123 0 0)
(58.9289 0 0)
(60.2482 0 0)
(61.5701 0 0)
(62.8946 0 0)
(64.2214 0 0)
(65.5506 0 0)
(66.8819 0 0)
(68.2153 0 0)
(69.5506 0 0)
(70.8879 0 0)
(72.2269 0 0)
(73.5677 0 0)
(74.9101 0 0)
(76.2541 0 0)
(77.5995 0 0)
(78.9464 0 0)
(80.2946 0 0)
(81.6441 0 0)
(82.9949 0 0)
(84.3469 0 0)
(85.6999 0 0)
(87.0541 0 0)
(88.4093 0 0)
(89.7655 0 0)
(91.1226 0 0)
(92.4806 0 0)
(93.8394 0 0)
(95.1991 0 0)
(96.5596 0 0)
(97.9208 0 0)
(99.2827 0 0)
(100.645 0 0)
(102.009 0 0)
(103.372 0 0)
(104.737 0 0)
(106.102 0 0)
(107.467 0 0)
(108.833 0 0)
(110.2 0 0)
(111.567 0 0)
(112.934 0 0)
(114.302 0 0)
(115.67 0 0)
(117.039 0 0)
(118.408 0 0)
(119.777 0 0)
(121.147 0 0)
(122.517 0 0)
(123.887 0 0)
(125.258 0 0)
(126.628 0 0)
(127.999 0 0)
(129.37 0 0)
(130.742 0 0)
(132.113 0 0)
(133.485 0 0)
(134.856 0 0)
(136.228 0 0)
(137.6 0 0)
(138.973 0 0)
(140.345 0 0)
(141.717 0 0)
(143.089 0 0)
(144.462 0 0)
(145.834 0 0)
(147.207 0 0)
(148.579 0 0)
(149.952 0 0)
(151.324 0 0)
(152.696 0 0)
(154.069 0 0)
(155.441 0 0)
(156.813 0 0)
(158.185 0 0)
(159.557 0 0)
(160.929 0 0)
(162.301 0 0)
(163.673 0 0)
(165.044 0 0)
(166.416 0 0)
(167.786 0 0)
(169.158 0 0)
(170.528 0 0)
(171.899 0 0)
(173.269 0 0)
(174.639 0 0)
(176.008 0 0)
(177.378 0 0)
(178.747 0 0)
(180.116 0 0)
(181.484 0 0)
(182.852 0 0)
(184.22 0 0)
(185.587 0 0)
(186.954 0 0)
(188.32 0 0)
(189.686 0 0)
(191.051 0 0)
(192.416 0 0)
(193.781 0 0)
(195.144 0 0)
(196.508 0 0)
(197.87 0 0)
(199.232 0 0)
(200.593 0 0)
(201.954 0 0)
(203.313 0 0)
(204.672 0 0)
(206.031 0 0)
(207.388 0 0)
(208.744 0 0)
(210.1 0 0)
(211.454 0 0)
(212.807 0 0)
(214.16 0 0)
(215.511 0 0)
(216.861 0 0)
(218.209 0 0)
(219.557 0 0)
(220.903 0 0)
(222.247 0 0)
(223.59 0 0)
(224.931 0 0)
(226.271 0 0)
(227.609 0 0)
(228.945 0 0)
(230.278 0 0)
(231.61 0 0)
(232.94 0 0)
(234.267 0 0)
(235.592 0 0)
(236.914 0 0)
(238.233 0 0)
(239.549 0 0)
(240.862 0 0)
(242.172 0 0)
(243.479 0 0)
(244.781 0 0)
(246.08 0 0)
(247.374 0 0)
(248.664 0 0)
(249.95 0 0)
(251.23 0 0)
(252.505 0 0)
(253.774 0 0)
(255.037 0 0)
(256.293 0 0)
(257.543 0 0)
(258.785 0 0)
(260.019 0 0)
(261.244 0 0)
(262.461 0 0)
(263.668 0 0)
(264.864 0 0)
(266.05 0 0)
(267.224 0 0)
(268.385 0 0)
(269.532 0 0)
(270.665 0 0)
(271.783 0 0)
(272.884 0 0)
(273.968 0 0)
(275.032 0 0)
(276.077 0 0)
(277.101 0 0)
(278.102 0 0)
(279.079 0 0)
(280.031 0 0)
(280.955 0 0)
(281.852 0 0)
(282.718 0 0)
(283.554 0 0)
(284.357 0 0)
(285.125 0 0)
(285.859 0 0)
(286.555 0 0)
(287.215 0 0)
(287.836 0 0)
(288.417 0 0)
(288.96 0 0)
(289.462 0 0)
(289.925 0 0)
(290.349 0 0)
(290.734 0 0)
(291.082 0 0)
(291.393 0 0)
(291.67 0 0)
(291.914 0 0)
(292.127 0 0)
(292.312 0 0)
(292.47 0 0)
(292.605 0 0)
(292.718 0 0)
(292.812 0 0)
(292.89 0 0)
(292.953 0 0)
(293.004 0 0)
(293.045 0 0)
(293.078 0 0)
(293.103 0 0)
(293.122 0 0)
(293.137 0 0)
(293.149 0 0)
(293.157 0 0)
(293.164 0 0)
(293.169 0 0)
(293.172 0 0)
(293.175 0 0)
(293.177 0 0)
(293.179 0 0)
(293.18 0 0)
(293.181 0 0)
(293.182 0 0)
(293.183 0 0)
(293.184 0 0)
(293.184 0 0)
(293.185 0 0)
(293.185 0 0)
(293.185 0 0)
(293.185 0 0)
(293.185 0 0)
(293.185 0 0)
(293.186 0 0)
(293.186 0 0)
(293.186 0 0)
(293.187 0 0)
(293.187 0 0)
(293.187 0 0)
(293.187 0 0)
(293.188 0 0)
(293.188 0 0)
(293.188 0 0)
(293.189 0 0)
(293.189 0 0)
(293.189 0 0)
(293.19 0 0)
(293.19 0 0)
(293.19 0 0)
(293.191 0 0)
(293.191 0 0)
(293.191 0 0)
(293.191 0 0)
(293.192 0 0)
(293.192 0 0)
(293.192 0 0)
(293.192 0 0)
(293.193 0 0)
(293.193 0 0)
(293.193 0 0)
(293.193 0 0)
(293.193 0 0)
(293.193 0 0)
(293.194 0 0)
(293.194 0 0)
(293.194 0 0)
(293.194 0 0)
(293.194 0 0)
(293.194 0 0)
(293.194 0 0)
(293.194 0 0)
(293.195 0 0)
(293.195 0 0)
(293.195 0 0)
(293.195 0 0)
(293.195 0 0)
(293.195 0 0)
(293.195 0 0)
(293.196 0 0)
(293.196 0 0)
(293.196 0 0)
(293.196 0 0)
(293.196 0 0)
(293.196 0 0)
(293.196 0 0)
(293.196 0 0)
(293.196 0 0)
(293.197 0 0)
(293.197 0 0)
(293.197 0 0)
(293.197 0 0)
(293.197 0 0)
(293.197 0 0)
(293.197 0 0)
(293.197 0 0)
(293.197 0 0)
(293.197 0 0)
(293.197 0 0)
(293.197 0 0)
(293.197 0 0)
(293.196 0 0)
(293.196 0 0)
(293.196 0 0)
(293.195 0 0)
(293.195 0 0)
(293.194 0 0)
(293.194 0 0)
(293.194 0 0)
(293.193 0 0)
(293.193 0 0)
(293.193 0 0)
(293.193 0 0)
(293.193 0 0)
(293.193 0 0)
(293.193 0 0)
(293.193 0 0)
(293.193 0 0)
(293.193 0 0)
(293.193 0 0)
(293.193 0 0)
(293.193 0 0)
(293.193 0 0)
(293.193 0 0)
(293.193 0 0)
(293.193 0 0)
(293.193 0 0)
(293.193 0 0)
(293.193 0 0)
(293.193 0 0)
(293.193 0 0)
(293.193 0 0)
(293.193 0 0)
(293.193 0 0)
(293.193 0 0)
(293.193 0 0)
(293.193 0 0)
(293.193 0 0)
(293.193 0 0)
(293.193 0 0)
(293.193 0 0)
(293.193 0 0)
(293.193 0 0)
(293.192 0 0)
(293.192 0 0)
(293.192 0 0)
(293.192 0 0)
(293.192 0 0)
(293.192 0 0)
(293.192 0 0)
(293.192 0 0)
(293.192 0 0)
(293.192 0 0)
(293.192 0 0)
(293.192 0 0)
(293.192 0 0)
(293.191 0 0)
(293.19 0 0)
(293.189 0 0)
(293.187 0 0)
(293.184 0 0)
(293.179 0 0)
(293.174 0 0)
(293.169 0 0)
(293.163 0 0)
(293.157 0 0)
(293.152 0 0)
(293.148 0 0)
(293.145 0 0)
(293.145 0 0)
(293.145 0 0)
(293.147 0 0)
(293.151 0 0)
(293.156 0 0)
(293.161 0 0)
(293.166 0 0)
(293.171 0 0)
(293.175 0 0)
(293.179 0 0)
(293.182 0 0)
(293.184 0 0)
(293.186 0 0)
(293.188 0 0)
(293.189 0 0)
(293.19 0 0)
(293.19 0 0)
(293.19 0 0)
(293.191 0 0)
(293.191 0 0)
(293.191 0 0)
(293.19 0 0)
(293.19 0 0)
(293.19 0 0)
(293.19 0 0)
(293.19 0 0)
(293.19 0 0)
(293.19 0 0)
(293.19 0 0)
(293.189 0 0)
(293.189 0 0)
(293.189 0 0)
(293.19 0 0)
(293.19 0 0)
(293.19 0 0)
(293.19 0 0)
(293.19 0 0)
(293.189 0 0)
(293.189 0 0)
(293.189 0 0)
(293.189 0 0)
(293.189 0 0)
(293.189 0 0)
(293.188 0 0)
(293.188 0 0)
(293.188 0 0)
(293.188 0 0)
(293.187 0 0)
(293.187 0 0)
(293.187 0 0)
(293.187 0 0)
(293.187 0 0)
(293.187 0 0)
(293.187 0 0)
(293.187 0 0)
(293.187 0 0)
(293.187 0 0)
(293.187 0 0)
(293.186 0 0)
(293.186 0 0)
(293.186 0 0)
(293.186 0 0)
(293.186 0 0)
(293.185 0 0)
(293.185 0 0)
(293.185 0 0)
(293.184 0 0)
(293.184 0 0)
(293.184 0 0)
(293.184 0 0)
(293.183 0 0)
(293.183 0 0)
(293.183 0 0)
(293.183 0 0)
(293.183 0 0)
(293.183 0 0)
(293.183 0 0)
(293.183 0 0)
(293.183 0 0)
(293.183 0 0)
(293.183 0 0)
(293.183 0 0)
(293.182 0 0)
(293.182 0 0)
(293.182 0 0)
(293.181 0 0)
(293.181 0 0)
(293.18 0 0)
(293.18 0 0)
(293.179 0 0)
(293.179 0 0)
(293.179 0 0)
(293.179 0 0)
(293.179 0 0)
(293.179 0 0)
(293.179 0 0)
(293.179 0 0)
(293.179 0 0)
(293.179 0 0)
(293.179 0 0)
(293.179 0 0)
(293.178 0 0)
(293.178 0 0)
(293.177 0 0)
(293.177 0 0)
(293.176 0 0)
(293.176 0 0)
(293.175 0 0)
(293.174 0 0)
(293.174 0 0)
(293.173 0 0)
(293.173 0 0)
(293.173 0 0)
(293.173 0 0)
(293.172 0 0)
(293.172 0 0)
(293.172 0 0)
(293.172 0 0)
(293.172 0 0)
(293.172 0 0)
(293.172 0 0)
(293.171 0 0)
(293.171 0 0)
(293.17 0 0)
(293.17 0 0)
(293.169 0 0)
(293.168 0 0)
(293.168 0 0)
(293.167 0 0)
(293.166 0 0)
(293.165 0 0)
(293.165 0 0)
(293.164 0 0)
(293.163 0 0)
(293.163 0 0)
(293.162 0 0)
(293.162 0 0)
(293.162 0 0)
(293.162 0 0)
(293.161 0 0)
(293.16 0 0)
(293.16 0 0)
(293.159 0 0)
(293.158 0 0)
(293.152 0 0)
(293.143 0 0)
(293.126 0 0)
(293.097 0 0)
(293.034 0 0)
(292.899 0 0)
(292.636 0 0)
(292.132 0 0)
(291.067 0 0)
(288.616 0 0)
(283.022 0 0)
(270.112 0 0)
(240.892 0 0)
(185.788 0 0)
(112.274 0 0)
(49.9246 0 0)
(16.988 0 0)
(4.88855 0 0)
(1.2824 0 0)
(0.323421 0 0)
(0.0805767 0 0)
(0.0200119 0 0)
(0.00496646 0 0)
(0.00123235 0 0)
(0.000305779 0 0)
(7.58714e-05 0 0)
(1.88255e-05 0 0)
(4.67109e-06 0 0)
(1.15901e-06 0 0)
(2.8758e-07 0 0)
(7.13562e-08 0 0)
(1.77044e-08 0 0)
(4.39288e-09 0 0)
(1.08891e-09 0 0)
(2.70216e-10 0 0)
(6.61389e-11 0 0)
(1.64253e-11 0 0)
(3.44261e-12 0 0)
(8.31477e-13 0 0)
(-4.66794e-13 0 0)
(1.60461e-13 0 0)
(-4.52207e-13 0 0)
(3.50096e-13 0 0)
(-8.75239e-14 0 0)
(4.08445e-13 0 0)
(-1.45873e-14 0 0)
(2.91746e-13 0 0)
(1.45873e-14 0 0)
(1.45873e-13 0 0)
(-4.3762e-14 0 0)
(1.45873e-14 0 0)
(1.89635e-13 0 0)
(-1.75048e-13 0 0)
(1.31286e-13 0 0)
(-1.02111e-13 0 0)
(4.81382e-13 0 0)
(-1.45873e-13 0 0)
(8.1689e-13 0 0)
(-3.50096e-13 0 0)
(5.10556e-13 0 0)
(-4.81382e-13 0 0)
(6.56429e-13 0 0)
(-4.08445e-13 0 0)
(8.02303e-13 0 0)
(-3.35508e-13 0 0)
(7.14779e-13 0 0)
(-3.93858e-13 0 0)
(5.83493e-13 0 0)
(-6.27255e-13 0 0)
(6.71017e-13 0 0)
(-5.83493e-13 0 0)
(3.64683e-13 0 0)
(-6.12667e-13 0 0)
(1.16699e-13 0 0)
(-3.64683e-13 0 0)
(2.1881e-13 0 0)
(-3.64683e-13 0 0)
(2.04222e-13 0 0)
(-2.1881e-13 0 0)
(1.02111e-13 0 0)
(-2.47984e-13 0 0)
(-1.75048e-13 0 0)
(-1.75048e-13 0 0)
(-2.91746e-14 0 0)
(2.91746e-14 0 0)
(-4.3762e-13 0 0)
(-5.83493e-14 0 0)
(-1.45873e-14 0 0)
(2.62572e-13 0 0)
(2.91746e-14 0 0)
(3.20921e-13 0 0)
(1.75048e-13 0 0)
(3.06334e-13 0 0)
(2.33397e-13 0 0)
(3.20921e-13 0 0)
(2.33397e-13 0 0)
(4.08445e-13 0 0)
(2.91746e-14 0 0)
(3.7927e-13 0 0)
(7.29366e-14 0 0)
(3.06334e-13 0 0)
(-1.16699e-13 0 0)
(4.3762e-14 0 0)
(-5.83493e-14 0 0)
(-7.29366e-14 0 0)
(2.04222e-13 0 0)
(3.20921e-13 0 0)
(5.83493e-14 0 0)
(3.50096e-13 0 0)
(4.3762e-14 0 0)
(-8.75239e-14 0 0)
(-1.45873e-13 0 0)
(-1.45873e-14 0 0)
(-2.62572e-13 0 0)
(-3.02291e-27 0 0)
(1.60461e-13 0 0)
(2.1881e-13 0 0)
(1.16699e-13 0 0)
(-2.91746e-14 0 0)
(-7.08082e-27 0 0)
(-1.75048e-13 0 0)
(1.60461e-13 0 0)
(-2.47984e-13 0 0)
(-1.31286e-13 0 0)
(-2.91746e-14 0 0)
(-7.29366e-14 0 0)
(-1.75048e-13 0 0)
(-1.89635e-13 0 0)
(2.91746e-14 0 0)
(-1.89635e-13 0 0)
(-5.83493e-14 0 0)
(-1.89635e-13 0 0)
(-1.89635e-13 0 0)
(-2.91746e-14 0 0)
(-5.83493e-14 0 0)
(-2.91746e-14 0 0)
(-1.02111e-13 0 0)
(-7.29366e-14 0 0)
(-1.75048e-13 0 0)
(7.29366e-14 0 0)
(2.91746e-14 0 0)
(2.04222e-13 0 0)
(7.29366e-14 0 0)
(5.83493e-14 0 0)
(4.3762e-14 0 0)
(-2.1881e-13 0 0)
(-1.16699e-13 0 0)
(-4.52207e-13 0 0)
(1.02111e-13 0 0)
(-2.33397e-13 0 0)
(2.1881e-13 0 0)
(-2.91746e-13 0 0)
(1.45873e-14 0 0)
(-1.45873e-13 0 0)
(-1.19781e-26 0 0)
(-1.16699e-13 0 0)
(7.29366e-14 0 0)
(-1.16699e-13 0 0)
(-4.3762e-14 0 0)
(8.75239e-14 0 0)
(-2.33397e-13 0 0)
(-1.31286e-13 0 0)
(-2.77159e-13 0 0)
(-1.45873e-13 0 0)
(-2.1881e-13 0 0)
(-2.04222e-13 0 0)
(-2.62572e-13 0 0)
(-2.1881e-13 0 0)
(-2.04222e-13 0 0)
(-2.91746e-13 0 0)
(-3.64683e-13 0 0)
(1.45873e-14 0 0)
(-1.16699e-13 0 0)
(-2.04222e-13 0 0)
(2.91746e-14 0 0)
(-3.50096e-13 0 0)
(5.83493e-14 0 0)
(-3.93858e-13 0 0)
(-5.83493e-14 0 0)
(-4.66794e-13 0 0)
(-4.52207e-13 0 0)
(-3.7927e-13 0 0)
)
;

boundaryField
{
    sides
    {
        type            zeroGradient;
    }
    empty
    {
        type            empty;
    }
}


// ************************************************************************* //
