/*--------------------------------*- C++ -*----------------------------------*\
  =========                 |
  \\      /  F ield         | OpenFOAM: The Open Source CFD Toolbox
   \\    /   O peration     | Website:  https://openfoam.org
    \\  /    A nd           | Version:  9
     \\/     M anipulation  |
\*---------------------------------------------------------------------------*/
FoamFile
{
    format      ascii;
    class       surfaceScalarField;
    location    "0.07";
    object      alphaPhi0.phase1;
}
// * * * * * * * * * * * * * * * * * * * * * * * * * * * * * * * * * * * * * //

dimensions      [0 3 -1 0 0 0 0];

internalField   nonuniform List<scalar> 
19800
(
-3.8369834e-119
9.3689331e-122
-9.8487225e-119
1.9428002e-119
-3.1350114e-116
7.1064323e-117
-1.0477868e-113
1.9478921e-114
-2.7125828e-111
4.2782672e-112
-5.7174852e-109
7.8358133e-110
-1.0147072e-106
1.2301287e-107
-1.5534047e-104
1.6886477e-105
-2.0890336e-102
2.0581074e-103
-2.5033246e-100
2.253767e-101
-2.7037385e-98
2.2390376e-99
-2.6568849e-96
2.034015e-97
-2.3943792e-94
1.7008729e-95
-1.992351e-92
1.3167422e-93
-1.5397823e-90
9.4840378e-92
-1.1111441e-88
6.3808533e-90
-7.5227108e-87
4.0261976e-88
-4.7990733e-85
2.3902504e-86
-2.8966032e-83
1.3389897e-84
-1.6605354e-81
7.0957835e-83
-9.0746872e-80
3.5645974e-81
-4.7443967e-78
1.7001817e-79
-2.381338e-76
7.7067015e-78
-1.1514998e-74
3.3197631e-76
-5.3829196e-73
1.3568549e-74
-2.4411874e-71
5.2400199e-73
-1.0778655e-69
1.8942828e-71
-4.6499871e-68
6.2778832e-70
-1.9662689e-66
1.810285e-68
-8.2393252e-65
3.7719554e-67
-3.5346504e-63
-3.2193966e-66
-1.4436864e-61
-1.9300673e-63
-5.4151555e-60
-1.4306266e-61
-1.8578167e-58
-7.5069028e-60
-5.7909826e-57
-3.2267722e-58
-1.6261325e-55
-1.181147e-56
-4.0736254e-54
-3.7272299e-55
-8.9980166e-53
-1.0154093e-53
-1.7255249e-51
-2.3784131e-52
-2.893013e-50
-5.1278745e-51
-4.2974542e-49
-1.6546389e-49
-5.2548956e-48
-3.6805907e-48
-5.1666637e-47
-6.1145856e-47
-3.985609e-46
-7.7764036e-46
-2.3490548e-45
-7.5866661e-45
-1.0274608e-44
-5.6557813e-44
-3.223453e-44
-3.2158273e-43
-6.9080103e-44
-1.4022768e-42
-1.0947642e-43
-4.7150842e-42
-2.3685627e-46
-1.3272981e-41
1.0888659e-43
-1.3250587e-41
6.8193607e-44
-4.6962996e-42
3.0728877e-44
-1.3204039e-42
8.8343546e-45
-2.6812907e-43
1.679266e-45
-3.9386551e-44
2.3843775e-46
-4.3110399e-45
3.1835929e-47
-4.0565273e-46
3.2634854e-48
-4.9525949e-47
2.1669586e-49
-5.1840948e-48
9.636175e-51
-2.8469524e-49
3.1724879e-52
-9.8155989e-51
8.4873418e-54
-2.5382444e-52
1.9975281e-55
-5.4601707e-54
4.329892e-57
-1.0395349e-55
8.842887e-59
-1.7989672e-57
1.7104838e-60
-2.8340523e-59
3.0951985e-62
-3.9662459e-61
5.0261644e-64
-4.5991929e-63
6.410297e-66
-3.5604009e-65
3.6493779e-68
-2.6021767e-68
9.3720657e-70
1.7569739e-70
2.2009956e-71
8.5184317e-72
5.0636984e-73
2.9513303e-73
1.1451381e-74
8.8937601e-75
2.5221131e-76
2.4573408e-76
5.3891523e-78
6.3559002e-78
1.1133145e-79
1.5533764e-79
2.2159027e-81
3.6023371e-81
4.2345316e-83
7.9392253e-83
7.7420305e-85
1.6629924e-84
1.3494462e-86
3.3076434e-86
2.2341361e-88
6.2368713e-88
3.4997734e-90
1.1125604e-89
5.1662848e-92
1.8727549e-91
7.1554739e-94
2.9661594e-93
9.2543505e-96
4.4060984e-95
1.1117344e-97
6.1146075e-97
1.2332077e-99
7.8949919e-99
1.2546279e-101
9.437467e-101
1.1614238e-103
1.0385129e-102
9.6915107e-106
1.0450479e-104
7.2070756e-108
9.5412033e-107
4.7089095e-110
7.8275919e-109
2.6545914e-112
5.7021814e-111
1.2605186e-114
3.6328024e-113
4.8757071e-117
1.9840862e-115
1.4621919e-119
9.03915e-118
4.6234753e-122
3.3013798e-120
1.8007769e-122
9.0519892e-123
4.2949093e-125
-7.832447e-119
3.4275846e-119
-2.4084908e-116
1.8627605e-116
-1.0119384e-113
6.8098491e-114
-3.3918392e-111
1.8733826e-111
-8.8127516e-109
4.1326416e-109
-1.8643042e-106
7.6004901e-107
-3.3205265e-104
1.1979416e-104
-5.1014131e-102
1.6511044e-102
-6.8846067e-100
2.0206332e-100
-8.2773315e-98
2.2217663e-98
-8.9671879e-96
2.214754e-96
-8.8369133e-94
2.0195881e-94
-7.9835688e-92
1.6942489e-92
-6.6572061e-90
1.3153474e-90
-5.1544098e-88
9.4990465e-89
-3.7250027e-86
6.4086412e-87
-2.5243661e-84
4.0507068e-85
-1.6113132e-82
2.4088201e-83
-9.7267075e-81
1.3514186e-81
-5.5736504e-79
7.1698949e-80
-3.0427727e-77
3.6023163e-78
-1.5882661e-75
1.7189167e-76
-7.9540793e-74
7.7918565e-75
-3.834883e-72
3.3560087e-73
-1.7860506e-70
1.3712957e-71
-8.0636821e-69
5.2959326e-70
-3.5418057e-67
1.9185385e-68
-1.5188303e-65
6.3934335e-67
-6.3772703e-64
1.8718709e-65
-2.643346e-62
4.1713731e-64
-1.1232778e-60
1.2878112e-63
-4.5846076e-59
-7.1712763e-61
-1.7209959e-57
-5.8297263e-59
-5.8886665e-56
-3.1523964e-57
-1.8239508e-54
-1.3672514e-55
-5.0725513e-53
-4.9996102e-54
-1.2548916e-51
-1.5663439e-52
-2.7324309e-50
-4.2182935e-51
-5.1727066e-49
-9.734107e-50
-8.3962917e-48
-1.9099807e-48
-1.1489139e-46
-3.1538677e-47
-1.299396e-45
-4.320474e-46
-1.18627e-44
-4.8320401e-45
-8.5120408e-44
-4.3323666e-44
-4.6592518e-43
-3.0590785e-43
-1.87981e-42
-1.6733983e-42
-5.3843049e-42
-7.002977e-42
-1.0635798e-41
-2.2347258e-41
-1.4530636e-41
-5.4765878e-41
-2.9579169e-44
-9.9540547e-41
1.4470089e-41
-9.9535405e-41
1.0606414e-41
-5.473906e-41
5.3116584e-42
-2.2334658e-41
1.6966063e-42
-6.6942289e-42
3.7526069e-43
-1.4244179e-42
7.0292467e-44
-2.2504239e-43
8.9095582e-45
-3.2744387e-44
8.5700265e-46
-8.068263e-45
5.8501805e-47
-1.2599398e-45
2.7271272e-48
-7.7373749e-47
9.4482535e-50
-2.8541982e-48
2.6457176e-51
-7.803101e-50
6.466482e-53
-1.7568483e-51
1.4439995e-54
-3.4683644e-53
3.013738e-56
-6.1675558e-55
5.9035026e-58
-9.8799651e-57
1.0681149e-59
-1.3845719e-58
1.6876097e-61
-1.5577884e-60
1.9039666e-63
-1.0620313e-62
1.3244624e-65
1.2189152e-66
5.1147749e-67
2.2352274e-67
8.2987181e-69
1.0182375e-68
1.9062463e-70
3.4543007e-70
4.3440178e-72
1.0350301e-71
9.6132254e-74
2.8541267e-73
2.0620186e-75
7.3829547e-75
4.2729543e-77
1.8051556e-76
8.5248887e-79
4.1873363e-78
1.631885e-80
9.2294196e-80
2.9870427e-82
1.9326376e-81
5.2092412e-84
3.8437855e-83
8.6242033e-86
7.2401387e-85
1.3503512e-87
1.2897027e-86
1.9915934e-89
2.1675628e-88
2.7545693e-91
3.427536e-90
3.5562621e-93
5.0777636e-92
4.2633628e-95
7.0284501e-94
4.7177326e-97
9.0496812e-96
4.7862238e-99
1.0783915e-97
4.4173428e-101
1.1822593e-99
3.6738321e-103
1.1857304e-101
2.7224614e-105
1.0781091e-103
1.7724259e-107
8.8093955e-106
9.9544437e-110
6.3921052e-108
4.708238e-112
4.055426e-110
1.8136755e-114
2.2056406e-112
5.4164157e-117
1.0004623e-114
1.2932782e-119
3.6374172e-117
3.9421055e-122
9.9622681e-120
1.8344821e-122
-1.762565e-116
1.0875034e-116
-7.2033847e-114
5.9135832e-114
-2.8676724e-111
2.1665323e-111
-8.5409942e-109
5.9746785e-109
-2.120059e-106
1.3214874e-106
-4.4982487e-104
2.4384572e-104
-8.0362358e-102
3.8564283e-102
-1.2381689e-99
5.332271e-100
-1.6751868e-97
6.5439891e-98
-2.0186928e-95
7.2135415e-96
-2.1914632e-93
7.2099302e-94
-2.1630986e-91
6.5866149e-92
-1.9567823e-89
5.5356027e-90
-1.6331818e-87
4.3039759e-88
-1.2649379e-85
3.1108984e-86
-9.1394633e-84
2.0989481e-84
-6.1895426e-82
1.3269584e-82
-3.9455806e-80
7.8858392e-81
-2.3768947e-78
4.4182036e-79
-1.3583487e-76
2.3393674e-77
-7.3907186e-75
1.1730292e-75
-3.8417016e-73
5.5798675e-74
-1.9143592e-71
2.5204797e-72
-9.1762694e-70
1.0813472e-70
-4.2455468e-68
4.4009886e-69
-1.9024347e-66
1.6932523e-67
-8.2853573e-65
6.1128445e-66
-3.519647e-63
2.0347768e-64
-1.4627072e-61
6.0030676e-63
-5.9918529e-60
1.3864763e-61
-2.5043593e-58
1.0347847e-60
-1.0135788e-56
-1.7509938e-58
-3.7817048e-55
-1.5314689e-56
-1.2828517e-53
-8.41395e-55
-3.9286522e-52
-3.6508069e-53
-1.0774001e-50
-1.3253064e-51
-2.6218645e-49
-4.1017575e-50
-5.6029596e-48
-1.0873899e-48
-1.0389045e-46
-2.4630577e-47
-1.6483108e-45
-4.7335562e-46
-2.2010571e-44
-7.6391083e-45
-2.4259559e-43
-1.021371e-43
-2.1563709e-42
-1.1137923e-42
-1.5054305e-41
-9.7346652e-42
-8.0197833e-41
-6.7023225e-41
-3.1573148e-40
-3.5805179e-40
-8.8646455e-40
-1.4683801e-39
-1.7241682e-39
-4.6127836e-39
-2.3360609e-39
-1.1183571e-38
-4.62283e-42
-2.0224648e-38
2.3265734e-39
-2.0223504e-38
1.7194638e-39
-1.1177994e-38
8.7457235e-40
-4.6099423e-39
2.8553601e-40
-1.4047675e-39
6.0265001e-41
-3.0572672e-40
1.1525991e-41
-4.5871963e-41
1.5583501e-42
-6.8238346e-42
1.5411638e-43
-1.371097e-42
1.0873533e-44
-2.2597546e-43
5.2892402e-46
-1.4577539e-44
1.9273463e-47
-5.6593533e-46
5.6621169e-49
-1.6294347e-47
1.4441549e-50
-3.8432904e-49
3.3435715e-52
-7.8949974e-51
7.1884883e-54
-1.4500875e-52
1.4405443e-55
-2.3795836e-54
2.6429057e-57
-3.3778344e-56
4.1668847e-59
-3.7692017e-58
4.4240243e-61
-2.3708194e-60
3.5642936e-63
1.1606195e-63
1.2700691e-64
8.7883777e-65
2.2662428e-66
3.8527335e-66
5.2701982e-68
1.298792e-67
1.210936e-69
3.8969705e-69
2.7003106e-71
1.0784943e-70
5.8314051e-73
2.8007272e-72
1.2155895e-74
6.8758729e-74
2.4376463e-76
1.6014226e-75
4.6864193e-78
3.5426546e-77
8.6078976e-80
7.4424841e-79
1.5053913e-81
1.4833227e-80
2.4976126e-83
2.7998603e-82
3.9162082e-85
4.9947742e-84
5.780162e-87
8.4006933e-86
7.9968471e-89
1.3282242e-87
1.0321329e-90
1.9677274e-89
1.2362809e-92
2.72142e-91
1.366302e-94
3.4990553e-93
1.3839511e-96
4.1622172e-95
1.2746726e-98
4.5549945e-97
1.0577139e-100
4.556244e-99
7.817953e-103
4.1327185e-101
5.0747893e-105
3.3671574e-103
2.8413336e-107
2.4352653e-105
1.3396438e-109
1.5399202e-107
5.3626479e-112
8.3465565e-110
1.8199903e-114
3.774421e-112
4.5708235e-117
1.369396e-114
1.0684815e-119
3.7406407e-117
6.8819805e-120
-4.1115041e-114
2.5728937e-114
-1.6449449e-111
1.4020484e-111
-6.4812181e-109
5.1543076e-109
-1.9150266e-106
1.4269863e-106
-4.5135873e-104
3.1677042e-104
-8.6755796e-102
5.8641943e-102
-1.5534521e-99
9.312142e-100
-2.4022483e-97
1.2926312e-97
-3.2612822e-95
1.5921637e-95
-3.9420275e-93
1.7607347e-93
-4.290647e-91
1.7650095e-91
-4.2443455e-89
1.6162956e-89
-3.8456497e-87
1.3609527e-87
-3.2128424e-85
1.0595561e-85
-2.4893962e-83
7.6637407e-84
-1.7981413e-81
5.1714986e-82
-1.2164155e-79
3.2672058e-80
-7.7394832e-78
1.9389484e-78
-4.6496603e-76
1.0839335e-76
-2.6474571e-74
5.721815e-75
-1.4337881e-72
2.8583015e-73
-7.411029e-71
1.3533804e-71
-3.6683885e-69
6.0803901e-70
-1.7447409e-67
2.592727e-68
-8.0002938e-66
1.0482272e-66
-3.5487337e-64
4.0056156e-65
-1.5280586e-62
1.4365864e-63
-6.4098802e-61
4.7613153e-62
-2.6272706e-59
1.4076327e-60
-1.0593324e-57
3.3433911e-59
-4.3340653e-56
3.4787296e-58
-1.7330331e-54
-3.0540668e-56
-6.4023402e-53
-2.9239094e-54
-2.1451335e-51
-1.6291212e-52
-6.4724902e-50
-7.0506418e-51
-1.7448392e-48
-2.5330526e-49
-4.1648676e-47
-7.723053e-48
-8.7127191e-46
-2.0102334e-46
-1.5785677e-44
-4.4591659e-45
-2.4430915e-43
-8.3748763e-44
-3.1777945e-42
-1.3184877e-42
-3.4069581e-41
-1.7176552e-41
-2.9429185e-40
-1.8232381e-40
-1.995811e-39
-1.5507404e-39
-1.03356e-38
-1.0396463e-38
-3.9656575e-38
-5.4186605e-38
-1.0901449e-37
-2.1757833e-37
-2.0866557e-37
-6.7244558e-37
-2.7975497e-37
-1.6123092e-36
-5.3198691e-40
-2.8999611e-36
2.786592e-37
-2.8997919e-36
2.0811115e-37
-1.6115057e-36
1.0757898e-37
-6.7202329e-37
3.5941114e-38
-2.0832443e-37
7.7714045e-39
-4.6410718e-38
1.4360325e-39
-7.1005288e-39
2.0495335e-40
-1.0213694e-39
2.0893637e-41
-1.7520514e-40
1.524934e-42
-3.0380513e-41
7.7371284e-44
-2.0572648e-42
2.9677834e-45
-8.4028121e-44
9.1706561e-47
-2.5517439e-45
2.448933e-48
-6.3228442e-47
5.9010201e-50
-1.3559781e-48
1.3121396e-51
-2.5815286e-50
2.7015544e-53
-4.3550606e-52
5.0442228e-55
-6.2805882e-54
7.9538256e-57
-6.9552193e-56
7.8343605e-59
-3.9517288e-58
7.5776172e-61
4.6080252e-61
2.5848877e-62
2.5387299e-62
4.9302008e-64
1.0801221e-63
1.1633046e-65
3.6367756e-65
2.7030603e-67
1.0960894e-66
6.0897312e-69
3.0537738e-68
1.3270858e-70
7.9853273e-70
2.7883358e-72
1.9737151e-71
5.6295448e-74
4.6255567e-73
1.08849e-75
1.0289045e-74
2.0087838e-77
2.1717368e-76
3.5262248e-79
4.3450647e-78
5.8668306e-81
8.2271061e-80
9.2170994e-83
1.4710034e-81
1.3619922e-84
2.4776613e-83
1.8849593e-86
3.920216e-85
2.4320166e-88
5.8075151e-87
2.9102553e-90
8.0265661e-89
3.2112739e-92
1.0306781e-90
3.2457366e-94
1.2237405e-92
2.9816364e-96
1.3360449e-94
2.4665378e-98
1.332557e-96
1.8168257e-100
1.2047724e-98
1.1749925e-102
9.7799775e-101
6.5526538e-105
7.0460741e-103
3.3863752e-107
4.4368366e-105
1.4549496e-109
2.3963997e-107
4.9230436e-112
1.0799316e-109
1.2488886e-114
3.9017673e-112
2.9680013e-117
1.0618066e-114
1.9482584e-117
-7.7198558e-112
4.8896e-112
-3.0546415e-109
2.6729933e-109
-1.1970338e-106
9.8720896e-107
-3.5233429e-104
2.7469085e-104
-8.2870603e-102
6.1290116e-102
-1.6203095e-99
1.1406925e-99
-2.6793921e-97
1.8190588e-97
-3.923545e-95
2.5356711e-95
-5.3498388e-93
3.137352e-93
-6.4915846e-91
3.4833352e-91
-7.089277e-89
3.5041478e-89
-7.032016e-87
3.2182716e-87
-6.3845897e-85
2.7159792e-85
-5.3410286e-83
2.1177573e-83
-4.1404328e-81
1.5329256e-81
-2.9895126e-79
1.0342798e-79
-2.0196561e-77
6.5278227e-78
-1.2820077e-75
3.8664515e-76
-7.675755e-74
2.1551977e-74
-4.3506238e-72
1.1331162e-72
-2.3426682e-70
5.632355e-71
-1.2024372e-68
2.6507644e-69
-5.9026612e-67
1.1825215e-67
-2.7803491e-65
5.0020968e-66
-1.2608217e-63
2.0046189e-64
-5.5228698e-62
7.5897257e-63
-2.3448827e-60
2.6973379e-61
-9.6837187e-59
8.8750396e-60
-3.9017635e-57
2.6189065e-58
-1.5430934e-55
6.3512241e-57
-6.153696e-54
8.2081483e-56
-2.4216671e-52
-3.9912804e-54
-8.8303216e-51
-4.3354278e-52
-2.9136178e-49
-2.4556526e-50
-8.6388867e-48
-1.0588163e-48
-2.283709e-46
-3.7589902e-47
-5.3349299e-45
-1.127067e-45
-1.0902737e-43
-2.875293e-44
-1.9265652e-42
-6.2356687e-43
-2.9036985e-41
-1.1427011e-41
-3.6730053e-40
-1.7525445e-40
-3.8253442e-39
-2.2213148e-39
-3.2069889e-38
-2.2923225e-38
-2.110076e-37
-1.8951312e-37
-1.0611139e-36
-1.2358675e-36
-3.9649115e-36
-6.2792811e-36
-1.0667725e-35
-2.4673664e-35
-2.0096628e-35
-7.5008782e-35
-2.6667869e-35
-1.7787463e-34
-4.814691e-38
-3.1824578e-34
2.6568232e-35
-3.1822644e-34
2.0044922e-35
-1.7778536e-34
1.0529852e-35
-7.4960396e-35
3.6008532e-36
-2.3642922e-35
8.0155949e-37
-5.3936534e-36
1.4387131e-37
-8.4686047e-37
2.1539002e-38
-1.1820614e-37
2.269372e-39
-1.7840862e-38
1.7144384e-40
-3.2532159e-39
9.0685155e-42
-2.3109607e-40
3.6634129e-43
-9.9238959e-42
1.192945e-44
-3.181333e-43
3.3444009e-46
-8.2979897e-45
8.4134762e-48
-1.8624915e-46
1.9410844e-49
-3.6845141e-48
4.1170956e-51
-6.402091e-50
7.8430349e-53
-9.3868989e-52
1.2347095e-54
-1.0273983e-53
1.09483e-56
-5.0448736e-56
1.3465877e-58
1.1706902e-58
4.5056441e-60
5.8574234e-60
9.0296159e-62
2.4378973e-61
2.1666271e-63
8.227816e-63
5.1053747e-65
2.4981576e-64
1.1648208e-66
7.0241935e-66
2.5669444e-68
1.8539626e-67
5.4462632e-70
4.6231917e-69
1.1088365e-71
1.092289e-70
2.1591796e-73
2.4471065e-72
4.0079229e-75
5.1968717e-74
7.0679819e-77
1.0449918e-75
1.1800171e-78
1.9866932e-77
1.8582917e-80
3.562682e-79
2.7497196e-82
6.0126712e-81
3.8071215e-84
9.5231295e-83
4.9096838e-86
1.4109805e-84
5.867523e-88
1.9487003e-86
6.4611592e-90
2.498488e-88
6.5126724e-92
2.9598447e-90
5.9627819e-94
3.2221103e-92
4.9134823e-96
3.2024399e-94
3.6033345e-98
2.8837491e-96
2.3231743e-100
2.3304549e-98
1.4661729e-102
1.6705867e-100
7.6466992e-105
1.0479097e-102
3.2493483e-107
5.6322887e-105
1.1034305e-109
2.5242277e-107
2.814412e-112
9.0731417e-110
6.7298598e-115
2.4573049e-112
4.4921555e-115
-1.2154703e-109
7.7688842e-110
-4.7814576e-107
4.2671579e-107
-1.8708141e-104
1.5855514e-104
-5.5044523e-102
4.4400834e-102
-1.2950188e-99
9.970309e-100
-2.5343673e-97
1.8670371e-97
-4.2399866e-95
2.9952561e-95
-6.1324632e-93
4.1979212e-93
-7.6067062e-91
5.2152933e-91
-9.276581e-89
5.8210226e-89
-1.0174147e-86
5.88128e-87
-1.0127616e-84
5.4211854e-85
-9.2201152e-83
4.5881374e-83
-7.7270898e-81
3.5846881e-81
-5.9951394e-79
2.597421e-79
-4.3277444e-77
1.7525083e-77
-2.9198066e-75
1.1049446e-75
-1.8486124e-73
6.5299091e-74
-1.1025626e-71
3.6272164e-72
-6.2171171e-70
1.8984844e-70
-3.3255481e-68
9.380484e-69
-1.6930647e-66
4.382924e-67
-8.2306907e-65
1.9387298e-65
-3.8331694e-63
8.1220704e-64
-1.7157352e-61
3.2204216e-62
-7.4053279e-60
1.2055165e-60
-3.0924756e-58
4.2358032e-59
-1.2538391e-56
1.3799533e-57
-4.9512674e-55
4.0537323e-56
-1.9138785e-53
9.9745305e-55
-7.4057697e-52
1.4949842e-53
-2.8599294e-50
-3.8678215e-52
-1.0268928e-48
-5.1843763e-50
-3.3290007e-47
-3.005193e-48
-9.6778907e-46
-1.2919518e-46
-2.5036459e-44
-4.5292404e-45
-5.7132032e-43
-1.3340253e-43
-1.1386662e-41
-3.3314068e-42
-1.9592562e-40
-7.0545944e-41
-2.8715436e-39
-1.2598182e-39
-3.527912e-38
-1.880027e-38
-3.5647952e-37
-2.315904e-37
-2.8970865e-36
-2.3210156e-36
-1.8472577e-35
-1.8632133e-35
-9.0114818e-35
-1.1807899e-34
-3.276653e-34
-5.8440238e-34
-8.625815e-34
-2.2461128e-33
-1.5995525e-33
-6.7159095e-33
-2.1015958e-33
-1.5754107e-32
-3.565808e-36
-2.8043763e-32
2.0941724e-33
-2.804196e-32
1.5955856e-33
-1.5746097e-32
8.5163858e-34
-6.7114285e-33
2.981701e-34
-2.1539096e-33
6.8401941e-35
-5.0339574e-34
1.2025809e-35
-8.1224279e-35
1.8780639e-36
-1.1077691e-35
2.0505146e-37
-1.5032895e-36
1.6046643e-38
-2.8816952e-37
8.8389704e-40
-2.1457252e-38
3.760863e-41
-9.6746089e-40
1.292485e-42
-3.274952e-41
3.8125204e-44
-9.0051696e-43
1.003984e-45
-2.1194041e-44
2.4095852e-47
-4.3643672e-46
5.2767071e-49
-7.8178193e-48
1.0260717e-50
-1.1636899e-49
1.6043144e-52
-1.246592e-51
1.2528229e-54
-4.8070882e-54
2.1024224e-56
2.0286197e-56
6.1150893e-58
1.1375642e-57
1.433515e-59
4.6377173e-59
3.5233558e-61
1.5762278e-60
8.4337478e-63
4.8343125e-62
1.9528343e-64
1.3749062e-63
4.3602338e-66
3.6705386e-65
9.3571657e-68
9.2517074e-67
1.923785e-69
2.2071369e-68
3.7769253e-71
4.9871089e-70
7.0578601e-73
1.0668389e-71
1.2511516e-74
2.1581703e-73
2.0969518e-76
4.1216348e-75
3.3109014e-78
7.41712e-77
4.9058644e-80
1.254624e-78
6.7939961e-82
1.9892499e-80
8.7543641e-84
2.9473818e-82
1.0443369e-85
4.066509e-84
1.1468878e-87
5.2034913e-86
1.1519664e-89
6.1467729e-88
1.0502016e-91
6.6671196e-90
8.6112203e-94
6.5974441e-92
6.5629328e-96
5.9106012e-94
4.6960964e-98
4.7523667e-96
2.8821795e-100
3.391672e-98
1.4722667e-102
2.1145919e-100
6.2546449e-105
1.1291882e-102
2.1250848e-107
5.028819e-105
5.4288811e-110
1.7959796e-107
1.2994252e-112
4.8343872e-110
8.7949629e-113
-1.6431183e-107
1.0562196e-107
-6.4383343e-105
5.8346973e-105
-2.5237353e-102
2.1852088e-102
-7.4443591e-100
6.167945e-100
-1.756786e-97
1.3960811e-97
-3.449442e-95
2.6347879e-95
-5.7897845e-93
4.2587699e-93
-8.4741746e-91
6.0119948e-91
-1.0901809e-88
7.5204363e-89
-1.2185157e-86
8.4307758e-87
-1.2911972e-84
8.5603155e-85
-1.2911869e-82
7.9279353e-83
-1.179718e-80
6.7343048e-81
-9.9121377e-79
5.2756882e-79
-7.7013324e-77
3.8286992e-77
-5.5603666e-75
2.5842047e-75
-3.7470707e-73
1.6278148e-73
-2.3663231e-71
9.5983762e-72
-1.4055875e-69
5.312137e-70
-7.8806517e-68
2.7659545e-68
-4.1844891e-66
1.3576156e-66
-2.1110803e-64
6.2918143e-65
-1.0151531e-62
2.7564481e-63
-4.667628e-61
1.1420877e-61
-2.0586489e-59
4.4730286e-60
-8.7376717e-58
1.6524032e-58
-3.5807873e-56
5.7283352e-57
-1.4217441e-54
1.8432231e-55
-5.4871508e-53
5.3763275e-54
-2.0665462e-51
1.3350118e-52
-7.726808e-50
2.2321148e-51
-2.9195667e-48
-2.4878731e-50
-1.0300301e-46
-5.1135412e-48
-3.2740915e-45
-3.0674298e-46
-9.3148327e-44
-1.3177291e-44
-2.3539814e-42
-4.5621235e-43
-5.2390668e-41
-1.319067e-41
-1.0167303e-39
-3.2221955e-40
-1.7011702e-38
-6.6557352e-39
-2.4214918e-37
-1.1571736e-37
-2.8860963e-36
-1.6786485e-36
-2.8262822e-35
-2.0078192e-35
-2.224154e-34
-1.952382e-34
-1.3728202e-33
-1.5204038e-33
-6.4898803e-33
-9.3551508e-33
-2.2945458e-32
-4.5067292e-32
-5.9084333e-32
-1.6934817e-31
-1.078711e-31
-4.9800282e-31
-1.4038588e-31
-1.155891e-30
-2.2269812e-34
-2.0476965e-30
1.3991963e-31
-2.0475556e-30
1.0761424e-31
-1.1552953e-30
5.8348553e-32
-4.9765981e-31
2.092091e-32
-1.6251683e-31
4.9504041e-33
-3.8929587e-32
8.5797891e-34
-6.4610607e-33
1.3898837e-34
-8.6647444e-34
1.5803992e-35
-1.0982401e-34
1.2819255e-36
-2.165574e-35
7.3435809e-38
-1.6887659e-36
3.2896881e-39
-7.9797617e-38
1.1942985e-40
-2.8513581e-39
3.7141403e-42
-8.2731531e-41
1.0259644e-43
-2.0444531e-42
2.5668831e-45
-4.3867113e-44
5.8116265e-47
-8.0997916e-46
1.1525161e-48
-1.219779e-47
1.7732436e-50
-1.2588916e-49
1.2551959e-52
-3.0337391e-52
3.0272442e-54
3.1009222e-54
8.0580603e-56
1.9143066e-55
2.0346604e-57
7.7109126e-57
5.1168983e-59
2.6408636e-58
1.2479094e-60
8.2011878e-60
2.9383809e-62
2.3641327e-61
6.6584446e-64
6.3956123e-63
1.447362e-65
1.6320183e-64
3.0084084e-67
3.9367804e-66
5.9604421e-69
8.9814938e-68
1.1220638e-70
1.9370851e-69
2.0005312e-72
3.9448267e-71
3.3667054e-74
7.5731347e-73
5.329385e-76
1.3678696e-74
7.9059467e-78
2.3190104e-76
1.0946933e-79
3.6803204e-78
1.4085783e-81
5.4510554e-80
1.6760569e-83
7.5091119e-82
1.8340212e-85
9.5828634e-84
1.8337056e-87
1.1278444e-85
1.6626979e-89
1.2175622e-87
1.4580473e-91
1.1982269e-89
1.1695027e-93
1.0679334e-91
8.2599349e-96
8.5383677e-94
4.9200245e-98
6.0503266e-96
2.5041767e-100
3.7427084e-98
1.0607525e-102
1.9829759e-100
3.594987e-105
8.7606697e-103
9.167523e-108
3.1039563e-105
2.1906207e-110
8.289296e-108
1.4989617e-110
-1.9320757e-105
1.2442003e-105
-7.545657e-103
6.9243622e-103
-2.9700167e-100
2.6167153e-100
-8.8067063e-98
7.4579462e-98
-2.0902507e-95
1.7047182e-95
-4.1284125e-93
3.2483322e-93
-6.9696229e-91
5.2993218e-91
-1.0255862e-88
7.5464337e-89
-1.3352965e-86
9.5184906e-87
-1.5487359e-84
1.0755226e-84
-1.5752205e-82
1.0981194e-82
-1.4716911e-80
1.0216127e-80
-1.3512046e-78
8.7218377e-79
-1.1393797e-76
6.8575961e-77
-8.8725875e-75
4.9885682e-75
-6.4114036e-73
3.3704124e-73
-4.3176265e-71
2.1220476e-71
-2.7203409e-69
1.2487502e-69
-1.6093603e-67
6.8857664e-68
-8.9705339e-66
3.5662174e-66
-4.7263835e-64
1.7381173e-64
-2.3612955e-62
7.9843724e-63
-1.1221098e-60
3.4613166e-61
-5.0877262e-59
1.4167501e-59
-2.2078423e-57
5.4733076e-58
-9.1991087e-56
1.9921012e-56
-3.6921036e-54
6.8005533e-55
-1.4322406e-52
2.1568191e-53
-5.3883901e-51
6.2245607e-52
-1.9714528e-49
1.5537655e-50
-7.0941987e-48
2.8101467e-49
-2.6160982e-46
-3.8245062e-49
-9.0519775e-45
-4.2002998e-46
-2.8162576e-43
-2.6571585e-44
-7.8282259e-42
-1.1451169e-42
-1.9296019e-40
-3.9187553e-41
-4.1820949e-39
-1.1122555e-39
-7.8929012e-38
-2.6558118e-38
-1.2826525e-36
-5.3477699e-37
-1.7712161e-35
-9.0450723e-36
-2.0458215e-34
-1.2744904e-34
-1.9396164e-33
-1.4789542e-33
-1.4764768e-32
-1.3941328e-32
-8.8118284e-32
-1.0522243e-31
-4.0324145e-31
-6.2802577e-31
-1.3851329e-30
-2.9424947e-30
-3.4878401e-30
-1.0805334e-29
-6.2710757e-30
-3.1251746e-29
-8.0881351e-30
-7.1795207e-29
-1.1974533e-32
-1.2661465e-28
8.0629753e-30
-1.2660532e-28
6.256807e-30
-7.1757758e-29
3.44522e-30
-3.1229647e-29
1.2653739e-30
-1.0377119e-29
3.0912938e-31
-2.5488904e-30
5.2986847e-32
-4.3560331e-31
8.8456603e-33
-5.7608272e-32
1.0575319e-33
-7.5287572e-33
8.8956246e-35
-1.4055516e-33
5.2911378e-36
-1.1469021e-34
2.4932959e-37
-5.6658837e-36
9.5675564e-39
-2.1349234e-37
3.1411379e-40
-6.5384499e-39
9.1199059e-42
-1.6979627e-40
2.3820616e-43
-3.7976911e-42
5.5783809e-45
-7.2180493e-44
1.1251082e-46
-1.0931368e-45
1.6757353e-48
-1.0594335e-47
1.188307e-50
-4.6000326e-51
4.1462978e-52
5.0975064e-52
9.936749e-54
2.8558997e-53
2.6150292e-55
1.1408335e-54
6.7409529e-57
3.9491615e-56
1.6785874e-58
1.2442819e-57
4.0262292e-60
3.6423884e-59
9.2726953e-62
1.000106e-60
2.0440364e-63
2.5872194e-62
4.2992517e-65
6.3175007e-64
8.6015824e-67
1.4565453e-65
1.6318797e-68
3.169322e-67
2.9265583e-70
6.499866e-69
4.9450891e-72
1.2545132e-70
7.846053e-74
2.2742617e-72
1.164728e-75
3.8634157e-74
1.6113825e-77
6.1342616e-76
2.0687384e-79
9.0766702e-78
2.4527742e-81
1.2473919e-79
2.6710603e-83
1.5860796e-81
2.6769195e-85
1.8575169e-83
2.6360155e-87
1.9936577e-85
2.3423204e-89
1.9514675e-87
1.8637571e-91
1.727263e-89
1.2706772e-93
1.3698692e-91
7.5215904e-96
9.6182433e-94
3.8065274e-98
5.894727e-96
1.6031884e-100
3.0931444e-98
5.4046714e-103
1.3531517e-100
1.3724001e-105
4.7474892e-103
3.2695873e-108
1.2563085e-105
2.254135e-108
-2.0055816e-103
1.2938957e-103
-7.838693e-101
7.2688382e-101
-3.1081347e-98
2.7784589e-98
-9.2920514e-96
8.0138996e-96
-2.2246234e-93
1.8541242e-93
-4.4315805e-91
3.5746461e-91
-7.5453458e-89
5.8989449e-89
-1.1193182e-86
8.4920206e-87
-1.4681002e-84
1.0820066e-84
-1.7222458e-82
1.2340256e-82
-1.8115777e-80
1.2709915e-80
-1.6900175e-78
1.190468e-78
-1.4448878e-76
1.0208495e-76
-1.1979633e-74
8.0641101e-75
-9.3609315e-73
5.8869336e-73
-6.7766837e-71
3.9851699e-71
-4.564093e-69
2.5098205e-69
-2.8706848e-67
1.4747634e-67
-1.6921155e-65
8.105555e-66
-9.3779304e-64
4.1758871e-64
-4.902333e-62
2.0207161e-62
-2.424604e-60
9.1984451e-61
-1.1379326e-58
3.9433321e-59
-5.0832615e-57
1.5931009e-57
-2.1679028e-55
6.0641548e-56
-8.8543693e-54
2.1716213e-54
-3.4744596e-52
7.2883027e-53
-1.3142427e-50
2.2736949e-51
-4.8084139e-49
6.4778866e-50
-1.7061655e-47
1.6166141e-48
-5.9243608e-46
3.0993198e-47
-2.0936617e-44
1.5601313e-46
-7.0468262e-43
-2.8604244e-44
-2.1427475e-41
-1.9741875e-42
-5.8110778e-40
-8.5895661e-41
-1.3952199e-38
-2.9110198e-39
-2.9411615e-37
-8.1130298e-38
-5.3918285e-36
-1.8933203e-36
-8.5009227e-35
-3.7147416e-35
-1.1376762e-33
-6.1087363e-34
-1.2722327e-32
-8.3552277e-33
-1.1666458e-31
-9.3997743e-32
-8.5812813e-31
-8.5826771e-31
-4.9460915e-30
-6.2723961e-30
-2.188332e-29
-3.6278775e-29
-7.2964859e-29
-1.6517754e-28
-1.7962269e-28
-5.9248029e-28
-3.1816611e-28
-1.6854808e-27
-4.0691876e-28
-3.8340204e-27
-5.5346938e-31
-6.7334949e-27
4.0574742e-28
-6.7329802e-27
3.1747807e-28
-3.8320104e-27
1.7746948e-28
-1.684259e-27
6.6785642e-29
-5.6942063e-28
1.686268e-29
-1.43487e-28
2.8738824e-30
-2.5281081e-29
4.9625121e-31
-3.3129636e-30
6.2241685e-32
-4.4818681e-31
5.431386e-33
-7.9837228e-32
3.3480321e-34
-6.8107296e-33
1.6572359e-35
-3.5074764e-34
6.722352e-37
-1.3912727e-35
2.332565e-38
-4.4964359e-37
7.1276005e-40
-1.2273521e-38
1.9457525e-41
-2.8605447e-40
4.710443e-43
-5.5820955e-42
9.6104273e-45
-8.4217943e-44
1.3354165e-46
-7.3356378e-46
1.2691773e-48
5.9653853e-49
4.6505315e-50
7.1657239e-50
1.1243457e-51
3.7767216e-51
3.0456635e-53
1.5078021e-52
8.0540155e-55
5.2869531e-54
2.0514446e-56
1.6935338e-55
5.0198164e-58
5.0427067e-57
1.1764058e-59
1.4072887e-58
2.6321818e-61
3.694964e-60
5.6058325e-63
9.1412166e-62
1.1329591e-64
2.131315e-63
2.1664458e-66
4.6799387e-65
3.9076539e-68
9.6672565e-67
6.6271022e-70
1.8757621e-68
1.053305e-71
3.411605e-70
1.563464e-73
5.8041139e-72
2.1590823e-75
9.2131664e-74
2.7623928e-77
1.3605977e-75
3.2591431e-79
1.863281e-77
3.6718464e-81
2.357395e-79
3.9304646e-83
2.7451607e-81
3.8310928e-85
2.9290165e-83
3.3726347e-87
2.8439695e-85
2.5920818e-89
2.4942811e-87
1.7462314e-91
1.9574239e-89
1.0250855e-93
1.3594405e-91
5.1434594e-96
8.2365418e-94
2.1476531e-98
4.2713252e-96
7.1811975e-101
1.8460676e-98
1.81014e-103
6.3999523e-101
4.3125222e-106
1.6742692e-103
2.9752908e-106
-1.8341555e-101
1.1757893e-101
-7.1394534e-99
6.681102e-99
-2.8609413e-96
2.5898933e-96
-8.6497252e-94
7.5783278e-94
-2.094571e-91
1.7786069e-91
-4.2213658e-89
3.478835e-89
-7.2688841e-87
5.8205622e-87
-1.090038e-84
8.4905562e-85
-1.4442844e-82
1.095377e-82
-1.7099879e-80
1.2637199e-80
-1.8258141e-78
1.3153736e-78
-1.7628893e-76
1.2439679e-76
-1.5173311e-74
1.0748097e-74
-1.2007633e-72
8.5322182e-73
-8.9656819e-71
6.253175e-71
-6.5114081e-69
4.2470472e-69
-4.3910222e-67
2.6785089e-67
-2.7596667e-65
1.5729954e-65
-1.6218618e-63
8.6227621e-64
-8.9415091e-62
4.4210404e-62
-4.6384858e-60
2.1244556e-60
-2.2708582e-58
9.5815862e-59
-1.0522573e-56
4.0608364e-57
-4.6284781e-55
1.6183926e-55
-1.9383149e-53
6.0649367e-54
-7.7517305e-52
2.1346039e-52
-2.9697943e-50
7.0333288e-51
-1.0935339e-48
2.1544241e-49
-3.8831053e-47
6.0448598e-48
-1.3334809e-45
1.5013005e-46
-4.461305e-44
2.9917608e-45
-1.5010599e-42
2.8096437e-44
-4.8986164e-41
-1.5724226e-42
-1.454066e-39
-1.2639353e-40
-3.8423136e-38
-5.6108325e-39
-8.9751912e-37
-1.8884011e-37
-1.838165e-35
-5.1728627e-36
-3.2698379e-34
-1.1800076e-34
-4.9968353e-33
-2.2554006e-33
-6.475065e-32
-3.6045969e-32
-7.0042237e-31
-4.7832079e-31
-6.2066194e-30
-5.2136614e-30
-4.4066075e-29
-4.6075016e-29
-2.449759e-28
-3.2573523e-28
-1.0465127e-27
-1.8237592e-27
-3.3835767e-27
-8.061519e-27
-8.1414151e-27
-2.82307e-26
-1.4213266e-26
-7.9002638e-26
-1.8038572e-26
-1.7803247e-25
-2.2112615e-29
-3.1150859e-25
1.799127e-26
-3.1148412e-25
1.4184315e-26
-1.7793884e-25
8.0457113e-27
-7.8943926e-26
3.1030818e-27
-2.7152167e-26
8.1078613e-28
-7.0230665e-27
1.3833997e-28
-1.2775224e-27
2.4677394e-29
-1.669421e-28
3.254315e-30
-2.3359294e-29
2.946508e-31
-4.0090343e-30
1.8782521e-32
-3.5732235e-31
9.7464185e-34
-1.9115956e-32
4.1770802e-35
-7.9610099e-34
1.532769e-36
-2.7122426e-35
4.9344272e-38
-7.7782793e-37
1.4084848e-39
-1.8868732e-38
3.5200608e-41
-3.7650916e-40
7.1971074e-43
-5.5780656e-42
8.8350186e-45
-4.0291276e-44
1.2327068e-46
1.1451226e-46
4.6246232e-48
8.8451848e-48
1.1598085e-49
4.4830367e-49
3.2373034e-51
1.7981625e-50
8.7943766e-53
6.4020695e-52
2.2943631e-54
2.0885277e-53
5.7337629e-56
6.334422e-55
1.3684421e-57
1.7986572e-56
3.1095737e-59
4.7969054e-58
6.7077326e-61
1.2030082e-59
1.3695722e-62
2.8371595e-61
2.639091e-64
6.2878752e-63
4.7852332e-66
1.3079976e-64
8.139591e-68
2.5501624e-66
1.2947163e-69
4.6504712e-68
1.9193507e-71
7.9163047e-70
2.6420939e-73
1.2548342e-71
3.3634972e-75
1.8470668e-73
4.2104566e-77
2.5167225e-75
4.8872675e-79
3.1670086e-77
5.1877053e-81
3.6628977e-79
5.0061472e-83
3.873232e-81
4.2747677e-85
3.7221306e-83
3.2243882e-87
3.2260753e-85
2.1489537e-89
2.5000194e-87
1.2474411e-91
1.7134655e-89
6.1870422e-94
1.0239072e-91
2.5539625e-96
5.2340571e-94
8.4443621e-99
2.2297834e-96
2.1061413e-101
7.619472e-99
5.0190125e-104
1.9654371e-101
3.4518397e-104
-1.4644607e-99
9.2621235e-100
-5.6559611e-97
5.3367164e-97
-2.2976183e-94
2.1034386e-94
-7.0490148e-92
6.2628785e-92
-1.7327316e-89
1.4959015e-89
-3.5446231e-87
2.9769563e-87
-6.1931901e-85
5.0652956e-85
-9.4184538e-83
7.5089577e-83
-1.2645694e-80
9.8360163e-81
-1.5156693e-78
1.150966e-78
-1.6361319e-76
1.2136733e-76
-1.6025395e-74
1.1612609e-74
-1.4314391e-72
1.0141013e-72
-1.14208e-70
8.1163539e-71
-8.3868659e-69
5.9822752e-69
-5.6948576e-67
4.0755813e-67
-3.8345861e-65
2.5778044e-65
-2.4112666e-63
1.514924e-63
-1.4145101e-61
8.2913576e-62