/*--------------------------------*- C++ -*----------------------------------*\
  =========                 |
  \\      /  F ield         | OpenFOAM: The Open Source CFD Toolbox
   \\    /   O peration     | Website:  https://openfoam.org
    \\  /    A nd           | Version:  9
     \\/     M anipulation  |
\*---------------------------------------------------------------------------*/
FoamFile
{
    format      ascii;
    class       volScalarField;
    location    "0.07";
    object      p;
}
// * * * * * * * * * * * * * * * * * * * * * * * * * * * * * * * * * * * * * //

dimensions      [1 -1 -2 0 0 0 0];

internalField   nonuniform List<scalar> 
10000
(
0
0.0045955091
-0.0022946589
-0.015625978
-0.035848834
-0.062732787
-0.09608795
-0.13567622
-0.1812736
-0.23259374
-0.2893459
-0.35119919
-0.41779297
-0.48875711
-0.56368148
-0.64213672
-0.72366829
-0.80779323
-0.89402439
-0.98186971
-1.0708189
-1.1603565
-1.2499664
-1.3391336
-1.4273532
-1.5141355
-1.5990031
-1.6814908
-1.7611356
-1.8374612
-1.9098705
-1.9787669
-2.0435668
-2.1039825
-2.1598994
-2.2111831
-2.2577595
-2.2996119
-2.3367915
-2.3694222
-2.3976895
-2.4218335
-2.4421348
-2.4589008
-2.4724665
-2.4831732
-2.4913369
-2.4972486
-2.5011553
-2.5032577
-2.503708
-2.5024942
-2.4994661
-2.494422
-2.4871175
-2.4772671
-2.4645474
-2.4485938
-2.4291056
-2.4057792
-2.3783236
-2.3465096
-2.3101488
-2.2690924
-2.2233003
-2.1727697
-2.1175823
-2.0578535
-1.9936941
-1.9254301
-1.8535946
-1.7777771
-1.6986024
-1.6165256
-1.5320499
-1.445632
-1.3577396
-1.2688584
-1.1794808
-1.0901368
-1.001387
-0.91376137
-0.82773168
-0.74374881
-0.66230721
-0.58393441
-0.5090547
-0.4381106
-0.3715208
-0.30962382
-0.25277691
-0.20131801
-0.155551
-0.11573151
-0.082117167
-0.05487581
-0.034236157
-0.02034206
-0.012771211
-0.016222219
-0.0039552101
-0.00018031287
-0.0075252062
-0.021242904
-0.041833976
-0.069130717
-0.10292028
-0.14300485
-0.18911781
-0.24099694
-0.2983365
-0.36077734
-0.42797577
-0.49953323
-0.57502742
-0.65401764
-0.73603059
-0.82056241
-0.90712245
-0.99520221
-1.0842777
-1.1738087
-1.2632712
-1.3521398
-1.4399005
-1.5260459
-1.6100876
-1.6915757
-1.7700774
-1.8451701
-1.9164731
-1.9835844
-2.0465707
-2.1050984
-2.1589836
-2.2081214
-2.2524644
-2.2920253
-2.3268982
-2.3572559
-2.3833279
-2.4053786
-2.4237324
-2.438745
-2.4507942
-2.4602504
-2.4674403
-2.472671
-2.4761922
-2.4781626
-2.478616
-2.4775374
-2.4748994
-2.4705464
-2.4642256
-2.4556219
-2.4444197
-2.430228
-2.4126852
-2.3914458
-2.3661856
-2.3366351
-2.3025679
-2.2637914
-2.2202328
-2.1718434
-2.118675
-2.0608319
-1.998486
-1.9319982
-1.861288
-1.7867384
-1.7087282
-1.6276543
-1.5439739
-1.4581632
-1.3707247
-1.2821532
-1.1929563
-1.103658
-1.0147792
-0.92688223
-0.84050596
-0.75613095
-0.67421512
-0.59531273
-0.51986954
-0.44832284
-0.38112082
-0.31864397
-0.26121727
-0.20920484
-0.16291361
-0.12260929
-0.088545594
-0.060904464
-0.039919361
-0.025775175
-0.017962854
-0.021340833
0.002353129
0.0058126593
-0.001961009
-0.016083092
-0.037148595
-0.064945693
-0.099319825
-0.14004534
-0.18688541
-0.23955755
-0.29772749
-0.36106171
-0.42917732
-0.50167868
-0.57814406
-0.65810086
-0.74105243
-0.8265152
-0.91397176
-1.0028897
-1.0927314
-1.1829589
-1.2730171
-1.3623702
-1.450494
-1.5368768
-1.6210331
-1.7025068
-1.7808706
-1.8557363
-1.9267476
-1.9935674
-2.0559166
-2.1136469
-2.1666114
-2.2147119
-2.257912
-2.2962474
-2.3298337
-2.3588656
-2.3835895
-2.4043069
-2.4213732
-2.4351735
-2.4460921
-2.4545247
-2.4608457
-2.4653857
-2.4684141
-2.4701077
-2.4705659
-2.4697731
-2.4676315
-2.4639691
-2.4585279
-2.4509615
-2.4408948
-2.4279219
-2.4116869
-2.391786
-2.3678578
-2.3396166
-2.3068283
-2.2692646
-2.2268132
-2.1794394
-2.1271817
-2.0701115
-2.0084113
-1.9422578
-1.8718657
-1.7975608
-1.7196674
-1.6385836
-1.554779
-1.4687303
-1.3809649
-1.2919676
-1.2022067
-1.1122141
-1.0225578
-0.9338073
-0.84652325
-0.76122231
-0.67837414
-0.59848416
-0.52204908
-0.44957055
-0.38145609
-0.31808738
-0.25982461
-0.20704222
-0.16002428
-0.11907781
-0.084446315
-0.056366316
-0.034987875
-0.020542306
-0.012456922
-0.015734886
0.014509263
0.017663377
0.0094352654
-0.0052229739
-0.026898739
-0.055430523
-0.090629874
-0.13229387
-0.18017669
-0.23397361
-0.29335871
-0.35797314
-0.42743022
-0.50132722
-0.57921364
-0.66059881
-0.74498543
-0.83186405
-0.92069827
-1.0109399
-1.10203
-1.1934021
-1.2844927
-1.3747508
-1.4636345
-1.5506224
-1.6352242
-1.7169802
-1.7954629
-1.8702818
-1.94109
-2.0075759
-2.0694482
-2.1265205
-2.1786665
-2.2258036
-2.2679164
-2.3050711
-2.337408
-2.365139
-2.3885415
-2.407945
-2.4237295
-2.4363117
-2.4461103
-2.4535511
-2.4590418
-2.4629425
-2.4655405
-2.4670201
-2.4674741
-2.4668962
-2.4651929
-2.4621704
-2.4575549
-2.4509957
-2.4420804
-2.4303305
-2.4153827
-2.3968196
-2.3742207
-2.3472703
-2.315704
-2.2793209
-2.2379304
-2.1914857
-2.1400419
-2.0836367
-2.0224043
-1.9565582
-1.8863506
-1.8121038
-1.7341447
-1.6528263
-1.5686093
-1.4819756
-1.3934582
-1.3035589
-1.2127543
-1.1216007
-1.030679
-0.94059439
-0.85193214
-0.7652031
-0.68090671
-0.59959728
-0.52174909
-0.44787465
-0.37842424
-0.31378649
-0.25431838
-0.20040383
-0.15236125
-0.11050316
-0.075060998
-0.046276471
-0.024334397
-0.009441393
-0.0010072985
-0.0040693681
0.03284198
0.035697078
0.026948433
0.011673931
-0.01078542
-0.040233832
-0.076502109
-0.11938093
-0.1686009
-0.22385932
-0.28481436
-0.35109718
-0.4223192
-0.49804837
-0.57781121
-0.66111063
-0.74742678
-0.83622275
-0.92694503
-1.0190177
-1.111851
-1.2048604
-1.2974689
-1.3891037
-1.479203
-1.5672342
-1.6527004
-1.735134
-1.8140986
-1.8892096
-1.9601347
-2.0265636
-2.0881939
-2.1448573
-2.1964273
-2.2428275
-2.2840592
-2.3202141
-2.3514553
-2.3780079
-2.4001724
-2.4183081
-2.4328231
-2.4441718
-2.4528159
-2.4592179
-2.4638267
-2.4670393
-2.4691672
-2.470408
-2.4708552
-2.4705101
-2.4692823
-2.466957
-2.4632138
-2.4576792
-2.4499401
-2.4394528
-2.4257815
-2.4084901
-2.3871347
-2.3613891
-2.3309183
-2.2955209
-2.254999
-2.2092825
-2.1584055
-2.1024064
-2.0414166
-1.9756223
-1.9052925
-1.8307398
-1.7523181
-1.6703691
-1.5853307
-1.4976607
-1.4078982
-1.3166022
-1.2242868
-1.1315223
-1.0388726
-0.94693936
-0.8563689
-0.76772339
-0.68150281
-0.59826913
-0.51854525
-0.44283194
-0.37160546
-0.30526138
-0.24421562
-0.18884938
-0.13952068
-0.096474326
-0.060007515
-0.030326986
-0.0076363445
0.007825881
0.016680145
0.013883676
0.057779025
0.060279092
0.05095943
0.034929194
0.011536849
-0.0190389
-0.056624426
-0.1009862
-0.15185505
-0.20891266
-0.27180775
-0.34017148
-0.41359286
-0.49161369
-0.57374642
-0.65947407
-0.74824885
-0.83950755
-0.9326664
-1.0271125
-1.1222326
-1.2174239
-1.3120823
-1.4056057
-1.4974119
-1.5869506
-1.6737074
-1.7572066
-1.8370163
-1.9127496
-1.9840818
-2.0507265
-2.1123963
-2.1689135
-2.2201517
-2.2660462
-2.3066117
-2.3419569
-2.3722575
-2.3977427
-2.4187314
-2.4356219
-2.4488595
-2.4589361
-2.4663676
-2.4716711
-2.4753452
-2.477828
-2.4794567
-2.4804447
-2.480887
-2.4807877
-2.4800568
-2.4784697
-2.4756673
-2.4712151
-2.4646617
-2.4554437
-2.4430723
-2.4270392
-2.4068615
-2.3821736
-2.3526619
-2.3180923
-2.2782544
-2.2330595
-2.1825139
-2.1266658
-2.065639
-1.9996265
-1.9288781
-1.8536878
-1.7744216
-1.6914276
-1.6051307
-1.5159892
-1.424544
-1.3313683
-1.2369948
-1.1420396
-1.0471002
-0.95277551
-0.85973844
-0.7686051
-0.67992311
-0.59425761
-0.51215438
-0.43413604
-0.36070064
-0.29227552
-0.22930434
-0.17215101
-0.12120296
-0.076690543
-0.038934169
-0.0081759052
0.01540882
0.031590038
0.041003444
0.038542372
0.089528006
0.091631935
0.081625857
0.064724723
0.040218338
0.008296069
-0.030846191
-0.076975067
-0.12980673
-0.1890141
-0.25424821
-0.32512165
-0.40119701
-0.48200192
-0.56702754
-0.65572774
-0.74752788
-0.84182672
-0.93799812
-1.0354015
-1.1333992
-1.2313558
-1.328628
-1.4245806
-1.5186053
-1.6101279
-1.6986131
-1.7835751
-1.8645836
-1.9412624
-2.0133073
-2.0804835
-2.1424752
-2.1991104
-2.2502698
-2.295906
-2.3360429
-2.3707832
-2.4002962
-2.4248198
-2.444694
-2.4603547
-2.4722915
-2.4810436
-2.4871982
-2.4913485
-2.4940437
-2.4957536
-2.4968386
-2.4975398
-2.4979712
-2.4981438
-2.4979528
-2.4971392
-2.4953136
-2.4920178
-2.4867288
-2.4788033
-2.4677203
-2.4528971
-2.4338535
-2.4101404
-2.3814186
-2.3474637
-2.3080773
-2.2631679
-2.2127238
-2.1567884
-2.0954748
-2.0289769
-1.9575609
-1.8814285
-1.8009173
-1.7164229
-1.6283994
-1.5373046
-1.443668
-1.3480823
-1.2511043
-1.1533734
-1.0555294
-0.95821356
-0.86213654
-0.76795373
-0.67624557
-0.58760849
-0.5025877
-0.42175901
-0.34564813
-0.27473654
-0.2094418
-0.15016323
-0.097246551
-0.050994283
-0.011714641
0.020359614
0.045035774
0.062067734
0.072117925
0.07004941
0.12836848
0.12996829
0.11920373
0.1012794
0.075471964
0.041993455
0.0010384594
-0.047145712
-0.1022665
-0.16400177
-0.23198898
-0.30581806
-0.38503524
-0.46914762
-0.55761934
-0.64987497
-0.74530346
-0.84325692
-0.94306775
-1.0440692
-1.1455879
-1.2469372
-1.3474271
-1.4463844
-1.5431661
-1.6371698
-1.727842
-1.8146825
-1.8972595
-1.9752168
-2.0482943
-2.116319
-2.1789047
-2.2359312
-2.2872836
-2.3329308
-2.3728908
-2.4072345
-2.4361212
-2.4598073
-2.4786475
-2.4931005
-2.5037113
-2.5110942
-2.5159215
-2.5188624
-2.5205109
-2.521372
-2.5218505
-2.5222325
-2.5226496
-2.5231077
-2.5234948
-2.5235273
-2.5227524
-2.5206768
-2.5167267
-2.5101642
-2.5003889
-2.4867477
-2.4687131
-2.4458498
-2.4177776
-2.3842423
-2.3450649
-2.3001831
-2.2495967
-2.1933389
-2.1314969
-2.0641703
-1.9917139
-1.9143006
-1.832204
-1.7458089
-1.6555861
-1.5620292
-1.4656654
-1.3670826
-1.2668775
-1.1657569
-1.0644018
-0.9634801
-0.86372612
-0.76585049
-0.67049074
-0.57826967
-0.48977809
-0.40563696
-0.32635766
-0.25248392
-0.18443324
-0.12263766
-0.067433393
-0.019147268
0.021921463
0.055538979
0.081459875
0.099486231
0.11030389
0.10872919
0.17457777
0.17560626
0.16395932
0.14486304
0.11758019
0.082320651
0.039292688
-0.011248058
-0.069014609
-0.13367443
-0.20484432
-0.28210167
-0.36497819
-0.45295328
-0.54546371
-0.64189854
-0.74159911
-0.8438746
-0.94801957
-1.0533255
-1.1590633
-1.2644834
-1.3688443
-1.4714265
-1.5715435
-1.6685579
-1.7618944
-1.8510502
-1.9356003
-2.0152048
-2.0896159
-2.1586275
-2.2222113
-2.2799392
-2.3317863
-2.3777309
-2.4177716
-2.4519551
-2.4804264
-2.5034411
-2.5213551
-2.5346471
-2.5439313
-2.5499152
-2.5533493
-2.5549761
-2.5554587
-2.5553711
-2.5551839
-2.555224
-2.5556275
-2.5563898
-2.5573984
-2.5583687
-2.5587754
-2.5580426
-2.5554982
-2.5503712
-2.5419141
-2.5294348
-2.5123234
-2.4901163
-2.4624729
-2.4291376
-2.3899321
-2.3448085
-2.2937625
-2.2368009
-2.1739711
-2.1056711
-2.0319388
-1.95294
-1.8688975
-1.7801764
-1.6872462
-1.5906401
-1.4909256
-1.3887093
-1.2846183
-1.1794088
-1.0738238
-0.96858278
-0.86447671
-0.76222922
-0.6625763
-0.56618418
-0.47365645
-0.3856299
-0.30267522
-0.22534316
-0.15410745
-0.08939671
-0.031556047
0.019088153
0.062188603
0.097570833
0.12495789
0.14412852
0.15581668
0.15483494
0.22850415
0.22886288
0.21621535
0.19580618
0.16685511
0.12958766
0.084216354
0.030990819
-0.029792824
-0.097785521
-0.17259497
-0.2537838
-0.34086405
-0.43329497
-0.53048061
-0.631763
-0.73643656
-0.84377274
-0.95302047
-1.0634017
-1.174117
-1.2843525
-1.3933022
-1.500187
-1.6042681
-1.7048673
-1.8013866
-1.8933223
-1.9802643
-2.0618943
-2.1379949
-2.2084299
-2.2731229
-2.3318185
-2.3844639
-2.4310104
-2.4714377
-2.5057722
-2.5341173
-2.5566885
-2.5738336
-2.5860555
-2.5940292
-2.5985486
-2.6004578
-2.6006128
-2.5997934
-2.5986638
-2.5977564
-2.5974367
-2.5978473
-2.5989722
-2.6006783
-2.6026771
-2.6043801
-2.6051545
-2.6041404
-2.6005118
-2.5933936
-2.5819868
-2.565659
-2.5438843
-2.5163561
-2.4828639
-2.4432955
-2.3976145
-2.3458271
-2.2879626
-2.2240359
-2.1543093
-2.0788907
-1.9979059
-1.9115231
-1.8200472
-1.7238944
-1.6236197
-1.5198797
-1.4133395
-1.3046517
-1.1945957
-1.0840129
-0.9736841
-0.86448121
-0.75717043
-0.65252728
-0.55126698
-0.45407138
-0.36157202
-0.27439168
-0.19311465
-0.1182157
-0.050163571
0.010688616
0.064007453
0.10945755
0.14681705
0.17584589
0.19631173
0.20899318
0.20867472
0.29051233
0.29010564
0.27635692
0.25447197
0.22365687
0.18414441
0.13613623
0.079888727
0.015711018
-0.056043174
-0.13497324
-0.22062546
-0.31249451
-0.4100171
-0.51255807
-0.61941482
-0.72983868
-0.84305367
-0.95824358
-1.0745444
-1.191077
-1.3069541
-1.4212906
-1.5332306
-1.6419722
-1.7467909
-1.8470618
-1.942272
-2.0320208
-2.116017
-2.1940988
-2.2662066
-2.3323509
-2.3923271
-2.4460952
-2.4936118
-2.5348341
-2.5697394
-2.5983554
-2.6208197
-2.6374376
-2.6487106
-2.6553543
-2.6582716
-2.6584683
-2.6569769
-2.6547273
-2.6524826
-2.6508318
-2.6501747
-2.6506326
-2.6521642
-2.6546241
-2.6577473
-2.6608781
-2.6632815
-2.663943
-2.6618794
-2.656104
-2.6456722
-2.6298724
-2.6081907
-2.580414
-2.5463689
-2.5060167
-2.4593827
-2.4065053
-2.3474148
-2.2820846
-2.2107027
-2.1332734
-2.0499094
-1.960737
-1.8659986
-1.7660959
-1.6615778
-1.5531372
-1.4415111
-1.3274404
-1.2117394
-1.0953161
-0.97906343
-0.86392699
-0.7507247
-0.64030174
-0.53343054
-0.43084539
-0.3332324
-0.24123024
-0.15547977
-0.076448954
-0.004627752
0.059629503
0.11593249
0.16401278
0.20360617
0.23449016
0.25641622
0.27019841
0.27063158
0.36102265
0.35976411
0.3447849
0.32126957
0.28839072
0.24637747
0.19543622
0.13582889
0.067863405
-0.0081018077
-0.091655425
-0.18233591
-0.27962243
-0.38291922
-0.49155097
-0.60478265
-0.72181906
-0.84180906
-0.96385589
-1.0870141
-1.2103089
-1.3327579
-1.453378
-1.5712198
-1.6854053
-1.7951511
-1.8997918
-1.9987992
-2.0917818
-2.1784972
-2.2588366
-2.3328515
-2.4006925
-2.4622877
-2.5175768
-2.5665432
-2.6091097
-2.6451665
-2.6746247
-2.6974781
-2.7139058
-2.7243612
-2.7296186
-2.7307536
-2.7290129
-2.7256809
-2.7218957
-2.7185355
-2.7161946
-2.7152411
-2.7157493
-2.7176769
-2.7208982
-2.7251539
-2.7298286
-2.7340143
-2.7365214
-2.7361568
-2.7317144
-2.7221311
-2.7065944
-2.6845765
-2.6559596
-2.6207497
-2.5790446
-2.5309433
-2.4765533
-2.4158716
-2.3488779
-2.2756287
-2.1959325
-2.109813
-2.0174052
-1.918886
-1.8146462
-1.7052082
-1.5913042
-1.473761
-1.3534044
-1.2311396
-1.1079599
-0.98484257
-0.86283277
-0.74286972
-0.62582046
-0.51252339
-0.40380018
-0.30036325
-0.20292896
-0.11212527
-0.028469792
0.047575614
0.11562317
0.17528135
0.22627952
0.26834905
0.30127971
0.3248451
0.33984945
0.34113319
0.44050149
0.43827956
0.42195718
0.39665121
0.36149844
0.31673597
0.26256976
0.19925348
0.12709301
0.046449745
-0.042262515
-0.13857302
-0.24194139
-0.3517463
-0.46727897
-0.58776314
-0.71234993
-0.84009917
-0.97002222
-1.1010891
-1.2322142
-1.3622918
-1.4902191
-1.6149326
-1.7354552
-1.8509249
-1.9606184
-2.0639708
-2.1605963
-2.2503172
-2.3331488
-2.409291
-2.479042
-2.5426248
-2.5999122
-2.6509451
-2.6956103
-2.7336636
-2.7647983
-2.7887443
-2.8054528
-2.8152866
-2.819106
-2.8182316
-2.8142657
-2.8088794
-2.803502
-2.7991125
-2.7962152
-2.7950345
-2.7955668
-2.7977734
-2.8016422
-2.8069323
-2.8131875
-2.8194146
-2.8241083
-2.8256768
-2.8226158
-2.8136499
-2.7978667
-2.7748213
-2.7445526
-2.7073531
-2.663554
-2.6133494
-2.5568958
-2.4941933
-2.4253037
-2.3499631
-2.2678016
-2.1786799
-2.0826739
-1.979869
-1.870634
-1.7554957
-1.6352243
-1.5107889
-1.3831363
-1.2532381
-1.1222012
-0.99119069
-0.86126574
-0.73351531
-0.60891108
-0.48831997
-0.3726677
-0.26267153
-0.15912881
-0.062669822
0.026139369
0.1068638
0.17909127
0.24245422
0.29666993
0.34147866
0.37666762
0.40203321
0.41838757
0.42063203
0.52944038
0.52615234
0.50837159
0.4811117
0.44348753
0.39573523
0.33804495
0.27066232
0.19389004
0.10808162
0.013648017
-0.088926557
-0.19908217
-0.31618398
-0.43950088
-0.56819572
-0.70134747
-0.83794469
-0.97689754
-1.1170655
-1.2572366
-1.3961558
-1.5325732
-1.6652836
-1.7931795
-1.9152834
-2.030773
-2.1390366
-2.2397231
-2.3327412
-2.4182455
-2.496655
-2.568511
-2.6343824
-2.694187
-2.7480697
-2.7958811
-2.8371493
-2.8711807
-2.8972746
-2.9150125
-2.9245654
-2.9268769
-2.9236467
-2.9170505
-2.9093486
-2.9023603
-2.8971414
-2.8939941
-2.8927901
-2.8933031
-2.8954922
-2.8996385
-2.9057789
-2.9136711
-2.9222515
-2.9296595
-2.9335882
-2.9319506
-2.9231851
-2.9063208
-2.8811442
-2.8480459
-2.8076992
-2.7607724
-2.7076964
-2.648639
-2.5835549
-2.5125451
-2.4349942
-2.3502851
-2.2579395
-2.1578945
-2.0502175
-1.9352425
-1.813521
-1.6858806
-1.5534153
-1.4172338
-1.2785035
-1.1383853
-0.99825412
-0.85926415
-0.72260083
-0.58939418
-0.46058328
-0.33711619
-0.21979502
-0.10943885
-0.0067198272
0.087823636
0.17370209
0.25053778
0.31797351
0.37571686
0.42352352
0.46119318
0.48849853
0.50631575
0.5096185
0.6283841
0.62393055
0.60456874
0.57521002
0.53492613
0.48393696
0.42242238
0.35061594
0.26880231
0.17732639
0.07659735
-0.032898664
-0.15059672
-0.27584522
-0.40788567
-0.54582853
-0.68867224
-0.83533076
-0.98461963
-1.135253
-1.285866
-1.4350342
-1.5813255
-1.7233528
-1.8598275
-1.9896078
-2.1117515
-2.2255707
-2.3307178
-2.4272322
-2.515507
-2.5962114
-2.6702396
-2.7385651
-2.8014862
-2.859244
-2.9116323
-2.9578538
-2.9966314
-3.0265502
-3.0465218
-3.0563246
-3.0569859
-3.0508047
-3.0408884
-3.0304403
-3.0219054
-3.0163887
-3.0137078
-3.012981
-3.0134269
-3.0150813
-3.0187764
-3.0252349
-3.0347042
-3.0460792
-3.0568947
-3.0638571
-3.063818
-3.0546743
-3.035462
-3.0063906
-2.9685432
-2.9233032
-2.8718729
-2.8150194
-2.7529147
-2.6853672
-2.6121693
-2.5323386
-2.4449389
-2.3491813
-2.2446868
-2.1314423
-2.0098202
-1.8804643
-1.7442807
-1.6025
-1.4563785
-1.3073762
-1.1568126
-1.006146
-0.85677366
-0.71000163
-0.56704463
-0.42895833
-0.29673476
-0.17127187
-0.053369206
0.056269353
0.15711323
0.24865719
0.33052595
0.40238145
0.46395254
0.5150115
0.55536765
0.58476442
0.60416421
0.60863922
0.73791196
0.73219656
0.71115756
0.6795542
0.63641575
0.58194939
0.51631768
0.4397314
0.35245035
0.2548072
0.14720031
0.030100138
-0.095934113
-0.23023282
-0.37200372
-0.52031807
-0.67410835
-0.83220199
-0.99330464
-1.1559681
-1.3186418
-1.4797053
-1.6375024
-1.7904094
-1.9368976
-2.075595
-2.2053793
-2.3254629
-2.4354858
-2.5356186
-2.6265319
-2.7092736
-2.7852629
-2.8561735
-2.9228247
-2.9857369
-3.0446643
-3.0983768
-3.1447224
-3.1810952
-3.2052205
-3.2161108
-3.2148107
-3.2045482
-3.1900267
-3.1761028
-3.1663038
-3.1617322
-3.161128
-3.1620633
-3.1624849
-3.1625071
-3.1641751
-3.1697285
-3.1804015
-3.1951806
-3.2105788
-3.2216395
-3.2235733
-3.2132898
-3.1898601
-3.1542831
-3.1088047
-3.0560564
-2.9981792
-2.9363429
-2.8706921
-2.8006624
-2.7255321
-2.6436684
-2.5536226
-2.4542562
-2.3448912
-2.2253716
-2.0960843
-1.9578027
-1.8116099
-1.658963
-1.5013049
-1.3403268
-1.1777005
-1.0149729
-0.85375927
-0.69550958
-0.54155324
-0.39307454
-0.25109578
-0.11656819
0.0096471775
0.12690332
0.23462499
0.3323307
0.41966915
0.49631718
0.56201874
0.61656008
0.65977865
0.69144199
0.71252222
0.71825893
0.85863756
0.85158256
0.8287762
0.79478292
0.74860426
0.69043796
0.62040965
0.53870062
0.44554732
0.34124855
0.22617369
0.1007652
-0.034425849
-0.17871802
-0.33130202
-0.49122383
-0.65735778
-0.82843152
-1.0030213
-1.1795121
-1.3561365
-1.5310355
-1.7022823
-1.8679501
-2.0261897
-2.1753169
-2.3139382
-2.44111
-2.5564532
-2.6602238
-2.7533889
-2.8375717
-2.91493
-2.9878735
-3.0589462
-3.1285917
-3.1967275
-3.2616077
-3.3197988
-3.3667865
-3.3982107
-3.4115395
-3.4076019
-3.3911032
-3.3695432
-3.3508278
-3.3404805
-3.3395536
-3.3444888
-3.3495456
-3.3500773
-3.3461409
-3.342343
-3.3442777
-3.3553912
-3.3747395
-3.3969842
-3.4142012
-3.4188087
-3.406101
-3.3753423
-3.3291671
-3.2719185
-3.2080522
-3.1410045
-3.0725276
-3.0025997
-2.9306479
-2.8541597
-2.7708344
-2.6785398
-2.5755715
-2.4609016
-2.3342587
-2.1960737
-2.0473514
-1.8894409
-1.724028
-1.5529089
-1.3780262
-1.2014005
-1.0248248
-0.85008108
-0.67883373
-0.51248917
-0.35236516
-0.19956205
-0.055032055
0.080352875
0.20591453
0.32110709
0.4254785
0.51870281
0.60048007
0.67058407
0.72883208
0.77507973
0.80914593
0.83201263
0.83909488
0.99121283
0.98274305
0.95807519
0.92157062
0.87219569
0.81012418
0.73544724
0.64830792
0.54889907
0.43746846
0.31434135
0.17992184
0.034738117
-0.1205381
-0.28509776
-0.45797196
-0.63799433
-0.82378111
-1.0137586
-1.2061395
-1.3989243
-1.5899651
-1.7770057
-1.9577344
-2.1298768
-2.2913302
-2.440325
-2.5756347
-2.6967487
-2.8039815
-2.8986609
-2.9831894
-3.0607885
-3.1352437
-3.2104592
-3.2883779
-3.3691281
-3.4504312
-3.5270545
-3.5914066
-3.6354113
-3.6534735
-3.6455765
-3.6187077
-3.5853516
-3.5592578
-3.5498546
-3.5580662
-3.575675
-3.5898565
-3.5905836
-3.5777879
-3.5614301
-3.5542454
-3.5643924
-3.5909779
-3.6246858
-3.6519731
-3.6604251
-3.6430161
-3.5997235
-3.5362103
-3.4606581
-3.3805754
-3.3010328
-3.2242904
-3.1502131
-3.0768011
-3.0001178
-2.9164154
-2.8225676
-2.716187
-2.5958269
-2.4610791
-2.3124938
-2.151368
-1.9795255
-1.7990208
-1.6120886
-1.4210283
-1.2281546
-1.0356489
-0.84548772
-0.65953066
-0.47930672
-0.30620888
-0.14137256
0.014156629
0.15954674
0.29412858
0.41738478
0.52890741
0.62841038
0.71563937
0.79038557
0.85252084
0.90196286
0.93854209
0.96327695
0.97178879
1.1363
1.126349
1.0997454
1.0606313
1.0079295
0.94178514
0.86225076
0.7694132
0.66339847
0.54438898
0.41264717
0.26853058
0.11251566
-0.054772942
-0.23254953
-0.4198306
-0.61541555
-0.81783634
-1.0253625
-1.2360164
-1.4475543
-1.6574964
-1.8631806
-2.0618086
-2.2505671
-2.4267972
-2.5881962
-2.7330355
-2.8604708
-2.9708291
-3.0658154
-3.1487146
-3.2242506
-3.2982608
-3.3768474
-3.4644248
-3.5620427
-3.6672628
-3.7725049
-3.8653321
-3.9311122
-3.9581235
-3.9437854
-3.8985554
-3.8440174
-3.8051329
-3.7993036
-3.8275069
-3.8722406
-3.9058163
-3.9067174
-3.8748234
-3.831555
-3.8044242
-3.8110258
-3.8503701
-3.9050046
-3.95028
-3.9648372
-3.9383703
-3.8733549
-3.7813855
-3.6772223
-3.5733652
-3.4772075
-3.3909683
-3.3135829
-3.2406663
-3.1661116
-3.0840642
-2.9898647
-2.88031
-2.7536223
-2.6093279
-2.4483178
-2.2723703
-2.0838481
-1.8853992
-1.6797922
-1.4698103
-1.258141
-1.0473215
-0.83960677
-0.63701101
-0.44122253
-0.2537113
-0.075647396
0.091940841
0.24819002
0.39249365
0.52437988
0.64350813
0.74963984
0.84259557
0.92221744
0.98841365
1.0411693
1.0803488
1.1070182
1.1170222
1.2945687
1.2831009
1.2545176
1.2127179
1.1565937
1.0862587
1.0017053
0.90294737
0.79002795
0.66304593
0.52217751
0.36770528
0.20002345
0.019676297
-0.17260205
-0.37584408
-0.58880642
-0.80996713
-1.0374738
-1.2691539
-1.5024974
-1.7346506
-1.9624599
-2.1825352
-2.3913861
-2.5856127
-2.7621312
-2.9184413
-3.0530599
-3.1660866
-3.2595832
-3.337836
-3.4074984
-3.4772741
-3.5566851
-3.6541479
-3.7734902
-3.9129646
-4.0624615
-4.2023455
-4.3064065
-4.3505101
-4.3254429
-4.2466375
-4.1522114
-4.0887559
-4.0902737
-4.1593219
-4.2603249
-4.3344729
-4.3354979
-4.2633058
-4.1640127
-4.096198
-4.0955097
-4.1593774
-4.2537253
-4.3321933
-4.3570298
-4.3132397
-4.2099921
-4.0710832
-3.9226577
-3.7845167
-3.6668185
-3.5710182
-3.4930422
-3.4244558
-3.3557968
-3.2784125
-3.1856831
-3.0733376
-2.9393697
-2.7835843
-2.6074085
-2.4134342
-2.2048028
-1.9848927
-1.7571304
-1.5249219
-1.2914228
-1.0595336
-0.83180205
-0.61044284
-0.39728232
-0.19380959
-0.0012444403
0.17942818
0.34738147
0.50208282
0.64312404
0.77025151
0.88331746
0.98223122
1.0669008
1.1373033
1.1934732
1.2353253
1.2639776
1.2755002
1.4667295
1.4537369
1.4231433
1.3786162
1.319021
1.2444256
1.1547493
1.0499136
0.92986299
0.79459325
0.64416257
0.47873049
0.29857128
0.10412482
-0.10395785
-0.32476803
-0.5570622
-0.79927407
-1.0494875
-1.3053545
-1.5640782
-1.8223964
-2.0765927
-2.3225815
-2.5560245
-2.7725243
-2.9678762
-3.1384636
-3.2818062
-3.3972323
-3.4867186
-3.5557043
-3.6133915
-3.6721719
-3.7466824
-3.8517496
-3.9972293
-4.1844058
-4.4018541
-4.6200913
-4.7927897
-4.8707938
-4.8285648
-4.687403
-4.5153605
-4.4012553
-4.4140242
-4.5636079
-4.78058
-4.9401632
-4.9414759
-4.7843231
-4.5692716
-4.4210394
-4.4090857
-4.5233486
-4.6948921
-4.835224
-4.8768204
-4.7988268
-4.6269154
-4.4099869
-4.1939598
-4.0082329
-3.8643989
-3.7611538
-3.6883383
-3.6309037
-3.5742053
-3.5060053
-3.4173104
-3.3025904
-3.1598209
-2.9896786
-2.7946277
-2.578354
-2.3451136
-2.0992705
-1.8451109
-1.5867168
-1.3278146
-1.0717032
-0.82123358
-0.57878275
-0.34626571
-0.12521582
0.083171407
0.27796057
0.4584219
0.62411545
0.77476001
0.91023085
1.0304648
1.1354803
1.2252948
1.2999917
1.3596396
1.4042153
1.4348834
1.4479267
1.6535638
1.639042
1.6063973
1.5591217
1.4960481
1.4171843
1.3223598
1.211385
1.0840816
0.94030887
0.77996914
0.60305159
0.40967979
0.20013903
-0.02503608
-0.26504045
-0.51871833
-0.78450344
-1.0604614
-1.3441161
-1.6323765
-1.9215497
-2.2073432
-2.4848714
-2.7487376
-2.9932409
-3.2126682
-3.401759
-3.5563912
-3.6744628
-3.7571496
-3.8104482
-3.8462635
-3.8823452
-3.9410927
-4.0466174
-4.2194458
-4.4698672
-4.7897284
-5.1388823
-5.4376748
-5.5861747
-5.5190291
-5.2615805
-4.9360672
-4.7141471
-4.7390332
-5.045938
-5.5037545
-5.8450521
-5.8466857
-5.5085348
-5.0532117
-4.747931
-4.7237978
-4.9454339
-5.2694949
-5.5250384
-5.5908213
-5.4420229
-5.1441168
-4.796738
-4.4789879
-4.230584
-4.0595805
-3.955855
-3.898863
-3.8642653
-3.8295617
-3.7770404
-3.6950803
-3.5777379
-3.4236975
-3.2349667
-3.0157481
-2.7714078
-2.5077313
-2.2303137
-1.9445244
-1.6552494
-1.366794
-1.082867
-0.80664732
-0.54058512
-0.28662799
-0.046339315
0.17916469
0.38907305
0.58278272
0.76000408
0.92060264
1.0646271
1.1921644
1.303345
1.3983118
1.4772923
1.5404376
1.5877827
1.6205077
1.6350704
1.8560337
1.8398296
1.8050452
1.7550141
1.688499
1.6054462
1.5055567
1.3885029
1.2539539
1.1015901
0.93111533
0.74231378
0.53511146
0.30958451
0.066086467
-0.1947382
-0.47190819
-0.76397517
-1.069007
-1.3844726
-1.7070505
-2.0326349
-2.3563483
-2.6724262
-2.9742293
-3.2544456
-3.5053931
-3.7194792
-3.8899853
-4.012243
-4.0853302
-4.1145343
-4.1141768
-4.1089703
-4.1321564
-4.2215148
-4.4144735
-4.7406343
-5.2086779
-5.7758083
-6.3115311
-6.6125843
-6.5177529
-6.0456591
-5.4152131
-4.9585995
-4.9740353
-5.5749688
-6.5268244
-7.2488788
-7.2509346
-6.5329803
-5.5844909
-4.9854952
-4.9708714
-5.4267337
-6.0540636
-6.5222956
-6.6144849
-6.3127963
-5.7784446
-5.2139808
-4.7490147
-4.4256673
-4.2350177
-4.1476259
-4.1262163
-4.1329307
-4.1344275
-4.1060302
-4.0335724
-3.9119517
-3.7420274
-3.5282362
-3.2774164
-2.9973366
-2.6956985
-2.3797198
-2.0559537
-1.730207
-1.4073887
-1.0916379
-0.78631469
-0.49395895
-0.21645017
0.044746814
0.2886263
0.51454635
0.72211907
0.91126332
1.0820608
1.2347137
1.3695328
1.4868292
1.5868932
1.6700654
1.7366621
1.786781
1.82165
1.8378878
2.0751842
2.0568365
2.0197581
1.9670091
1.8971851
1.8101259
1.7053874
1.5824615
1.4408283
1.2799513
1.0992945
0.8983986
0.67691472
0.43466784
0.17172898
-0.11150908
-0.41429983
-0.73545354
-1.0731374
-1.424838
-1.7871461
-2.1556509
-2.5248925
-2.8881953
-3.2375716
-3.5638194
-3.856787
-4.1057472
-4.3001771
-4.4310227
-4.492883
-4.4878794
-4.4313493
-4.3561963
-4.3106649
-4.3515641
-4.5389952
-4.9367626
-5.601843
-6.5246624
-7.5140685
-8.1570328
-8.0588239
-7.1926788
-5.9481024
-4.9683391
-4.8756782
-6.0133703
-7.986311
-9.5184446
-9.5215354
-7.995122
-6.0262467
-4.8901564
-4.9839484
-5.9626523
-7.2013305
-8.0603022
-8.1539563
-7.5103291
-6.5237605
-5.6053436
-4.9447063
-4.5505808
-4.3659129
-4.3272101
-4.37453
-4.451112
-4.5087166
-4.5145032
-4.453209
-4.3228863
-4.12894
-3.880252
-3.5873957
-3.2612694
-2.9120246
-2.5487599
-2.17941
-1.8106886
-1.448057
-1.0960273
-0.75800327
-0.43651347
-0.13333411
0.1503416
0.41374041
0.6564266
0.87832889
1.0795975
1.2606406
1.4218618
1.5637935
1.6869713
1.7919171
1.8791119
1.9490418
2.0018877
2.0390454
2.0574258
2.3114427
2.2905077
2.2510407
2.1957175
2.1228514
2.032117
1.9228949
1.7944889
1.6461361
1.4770406
1.2863905
1.0734073
0.83741809
0.57792879
0.29463269
-0.012463924
-0.34296659
-0.69601572
-1.0700748
-1.4628139
-1.8708988
-2.289798
-2.7136042
-3.1347746
-3.5439604
-3.9299067
-4.2795032
-4.5780524
-4.8098708
-4.9592283
-5.0124398
-4.9631587
-4.8231101
-4.6342689
-4.4677545
-4.4060624
-4.531873
-4.9489496
-5.8263662
-7.2985544
-9.1716955
-10.599371
-10.597842
-8.9980255
-6.5050039
-4.3997109
-3.9629433
-6.12523
-10.362166
-13.830384
-13.834561
-10.374275
-6.1425215
-3.9807072
-4.4192771
-6.5237434
-9.006524
-10.59376
-10.587362
-9.1592422
-7.2929875
-5.828473
-4.957106
-4.5443971
-4.4218362
-4.485898
-4.654051
-4.8440113
-4.9850063
-5.0350846
-4.9824174
-4.8335022
-4.6020661
-4.3037339
-3.9542477
-3.5683819
-3.1592607
-2.7380458
-2.3140598
-1.8948496
-1.4863771
-1.0932264
-0.71878016
-0.36533454
-0.034375803
0.27323346
0.557072
0.81704744
1.0535059
1.2669037
1.4579713
1.6274736
1.776167
1.9048246
2.0142563
2.1051435
2.1781522
2.2335999
2.273147
2.2941188
2.5646992
2.5409817
2.4991783
2.4416406
2.3661392
2.2722343
2.1591067
2.0258306
1.8713728
1.6946265
1.4944428
1.2696697
1.019251
0.7422698
0.43797352
0.1058483
-0.25425921
-0.64194765
-1.056126
-1.4949513
-1.9554258
-2.4331037
-2.9219561
-3.4138136
-3.8981036
-4.3615515
-4.787801
-5.1574537
-5.4483549
-5.6356663
-5.6922402
-5.5934734
-5.3354519
-4.9676162
-4.6016164
-4.3598201
-4.326738
-4.6113526
-5.5740638
-7.7814838
-11.379846
-14.638674
-15.040048
-12.137489
-7.1825932
-2.6949873
-1.1954953
-5.0374945
-13.71707
-20.427729
-20.432109
-13.730296
-5.0571325
-1.2158038
-2.7190264
-7.206154
-12.146129
-15.029739
-14.614489
-11.351903
-7.7706719
-5.5765554
-4.6212511
-4.3413164
-4.3777248
-4.6218636
-4.9893427
-5.3579962
-5.6166943
-5.7161246
-5.66008
-5.4731427
-5.1824986
-4.8129505
-4.3867456
-3.9233472
-3.4390435
-2.9470277
-2.4578816
-1.9798058
-1.5188956
-1.0795912
-0.6649392
-0.27676685
0.08388573
0.41660317
0.72151212
0.99904347
1.2499692
1.4752136
1.6758375
1.8530166
2.0078486
2.1414051
2.254757
2.3488485
2.4245129
2.4822006
2.5240985
2.5478563
2.8349173
2.8081624
2.7641639
2.7051646
2.6275776
2.5312026
2.4149906
2.2777282
2.1180688
1.9345522
1.7256433
1.4897472
1.2253506
0.93101811
0.60543551
0.2474672
-0.14374151
-0.56863463
-1.0265415
-1.5165372
-2.0363656
-2.5819872
-3.1477063
-3.72527
-4.3033716
-4.8669942
-5.3966595
-5.8680275
-6.2517626
-6.5119674
-6.6019002
-6.4635204
-6.0495553
-5.4003645
-4.7097265
-4.2007748
-3.9064187
-3.7868355
-4.3098934
-7.0266279
-13.85219
-21.671065
-23.387715
-18.392889