/*--------------------------------*- C++ -*----------------------------------*\
  =========                 |
  \\      /  F ield         | OpenFOAM: The Open Source CFD Toolbox
   \\    /   O peration     | Website:  https://openfoam.org
    \\  /    A nd           | Version:  9
     \\/     M anipulation  |
\*---------------------------------------------------------------------------*/
FoamFile
{
    format      ascii;
    class       volVectorField;
    location    "0.07";
    object      U;
}
// * * * * * * * * * * * * * * * * * * * * * * * * * * * * * * * * * * * * * //

dimensions      [0 1 -1 0 0 0 0];

internalField   nonuniform List<vector> 
10000
(
(-0.0073912117 0.0075022533 0)
(-0.016876929 0.007477869 0)
(-0.022336523 0.007496351 0)
(-0.028689293 0.0075075532 0)
(-0.0350211 0.0075262539 0)
(-0.041378041 0.0075459176 0)
(-0.047763518 0.0075651 0)
(-0.054179165 0.0075835514 0)
(-0.06062355 0.0075995976 0)
(-0.067093982 0.0076083666 0)
(-0.073586538 0.0076062387 0)
(-0.08009302 0.0075926782 0)
(-0.086604437 0.0075604093 0)
(-0.093109659 0.0075084212 0)
(-0.099585377 0.007435814 0)
(-0.1060116 0.0073337291 0)
(-0.11236926 0.0071975443 0)
(-0.11862755 0.0070271217 0)
(-0.12475073 0.0068170441 0)
(-0.13070225 0.0065603626 0)
(-0.13644376 0.0062524973 0)
(-0.14192875 0.0058932589 0)
(-0.14710691 0.0054762506 0)
(-0.15192677 0.0049972512 0)
(-0.15633326 0.0044535356 0)
(-0.16026733 0.0038456263 0)
(-0.16366635 0.003172984 0)
(-0.16646595 0.0024320471 0)
(-0.16859686 0.0016219335 0)
(-0.1699959 0.00073693371 0)
(-0.1706408 -0.0002294512 0)
(-0.17054118 -0.0012513305 0)
(-0.16957632 -0.0022841315 0)
(-0.16761278 -0.0033520444 0)
(-0.16464283 -0.004461869 0)
(-0.16065499 -0.0056040151 0)
(-0.15563117 -0.0067662472 0)
(-0.1495591 -0.0079335602 0)
(-0.1424364 -0.0090914927 0)
(-0.13427468 -0.010225696 0)
(-0.12509922 -0.011321429 0)
(-0.11494823 -0.012359418 0)
(-0.10387214 -0.01332255 0)
(-0.091935617 -0.014196189 0)
(-0.079218689 -0.014969879 0)
(-0.065815194 -0.015633844 0)
(-0.051833442 -0.0161726 0)
(-0.037385948 -0.016574336 0)
(-0.022589734 -0.016836733 0)
(-0.0075764274 -0.016961763 0)
(0.0075255955 -0.016961817 0)
(0.022539248 -0.016836926 0)
(0.037335563 -0.016574694 0)
(0.051783316 -0.016173105 0)
(0.065765102 -0.015634611 0)
(0.079168748 -0.014970451 0)
(0.091886236 -0.014197438 0)
(0.10382346 -0.013323833 0)
(0.11490046 -0.012360626 0)
(0.12505241 -0.011322571 0)
(0.13422889 -0.010226617 0)
(0.14239193 -0.0090921592 0)
(0.14951601 -0.0079341223 0)
(0.15558961 -0.0067667565 0)
(0.16061486 -0.0056046719 0)
(0.16460395 -0.0044625676 0)
(0.16757542 -0.0033526692 0)
(0.16954118 -0.0022846164 0)
(0.17050867 -0.0012520801 0)
(0.17060987 -0.00023066261 0)
(0.16996599 0.0007357112 0)
(0.16856842 0.0016204411 0)
(0.16643865 0.0024299904 0)
(0.16363957 0.0031704179 0)
(0.16024096 0.00384299 0)
(0.15630768 0.004451458 0)
(0.151903 0.0049959186 0)
(0.1470859 0.005475054 0)
(0.1419101 0.0058914792 0)
(0.13642647 0.0062500179 0)
(0.13068557 0.0065575338 0)
(0.124735 0.0068141852 0)
(0.11861361 0.0070249383 0)
(0.11235765 0.0071955715 0)
(0.10600282 0.0073313351 0)
(0.099577788 0.0074326424 0)
(0.093103175 0.0075056528 0)
(0.086600829 0.0075575887 0)
(0.080091893 0.0075894717 0)
(0.073587842 0.0076026484 0)
(0.067098352 0.0076041992 0)
(0.060631227 0.0075943436 0)
(0.054190364 0.007577813 0)
(0.047779283 0.0075588787 0)
(0.041399421 0.0075375364 0)
(0.03504863 0.0075150915 0)
(0.028724948 0.0074928928 0)
(0.022366582 0.0074736011 0)
(0.016935575 0.0074557146 0)
(0.0074358806 0.0074583192 0)
(-0.0074217573 0.016919456 0)
(-0.016894907 0.016893378 0)
(-0.022312773 0.016935665 0)
(-0.028660876 0.016971078 0)
(-0.034981212 0.017017971 0)
(-0.041335176 0.01707293 0)
(-0.047719739 0.017131573 0)
(-0.054136661 0.017188603 0)
(-0.060588985 0.017238196 0)
(-0.067076028 0.01727522 0)
(-0.0735893 0.017293337 0)
(-0.080124472 0.017283822 0)
(-0.086672959 0.017240652 0)
(-0.093217196 0.017155399 0)
(-0.099741623 0.017018611 0)
(-0.10623005 0.016818063 0)
(-0.11265481 0.016548235 0)
(-0.11898587 0.016195674 0)
(-0.12519421 0.015749967 0)
(-0.13124264 0.015202309 0)
(-0.13708614 0.014541761 0)
(-0.14268014 0.013756726 0)
(-0.14797834 0.012838969 0)
(-0.15292579 0.011780197 0)
(-0.15746278 0.010573712 0)
(-0.161528 0.0092129519 0)
(-0.16506289 0.0076931131 0)
(-0.16800331 0.0060126173 0)
(-0.17028172 0.0041690243 0)
(-0.1718394 0.0021552631 0)
(-0.1726203 -2.8943339e-05 0)
(-0.17258219 -0.0023684463 0)
(-0.17165788 -0.004772898 0)
(-0.16976566 -0.0072669777 0)
(-0.16686414 -0.0098523173 0)
(-0.16292304 -0.012509124 0)
(-0.15791927 -0.015210989 0)
(-0.15183857 -0.017927021 0)
(-0.14467929 -0.02062536 0)
(-0.13645254 -0.023271198 0)
(-0.12717956 -0.025827395 0)
(-0.11689671 -0.028257823 0)
(-0.1056587 -0.030527045 0)
(-0.093535882 -0.032599187 0)
(-0.080612674 -0.034439517 0)
(-0.066979587 -0.036017706 0)
(-0.052743312 -0.037310091 0)
(-0.038027823 -0.038292151 0)
(-0.022963462 -0.038950759 0)
(-0.0076965972 -0.03927953 0)
(0.0076464651 -0.039279667 0)
(0.022913616 -0.038951206 0)
(0.037978119 -0.038293057 0)
(0.052693788 -0.037311539 0)
(0.066930361 -0.036019817 0)
(0.080563149 -0.03444204 0)
(0.093486667 -0.032602164 0)
(0.10561071 -0.030530289 0)
(0.11684959 -0.028261207 0)
(0.12713336 -0.025830787 0)
(0.13640743 -0.02327446 0)
(0.14463539 -0.020628271 0)
(0.15179585 -0.017929497 0)
(0.15787783 -0.015213045 0)
(0.16288285 -0.012511007 0)
(0.16682535 -0.0098538662 0)
(0.16972858 -0.0072684636 0)
(0.17162268 -0.0047744834 0)
(0.17254902 -0.0023706231 0)
(0.17258893 -3.1978678e-05 0)
(0.17180925 0.0021517472 0)
(0.1702525 0.0041650024 0)
(0.16797506 0.0060080466 0)
(0.16503563 0.0076884342 0)
(0.16150205 0.009208615 0)
(0.1574383 0.010569791 0)
(0.1529027 0.01177639 0)
(0.14795667 0.012834671 0)
(0.14265977 0.013751553 0)
(0.1370669 0.014536061 0)
(0.13122425 0.015196765 0)
(0.12517751 0.015745018 0)
(0.1189712 0.016190866 0)
(0.11264136 0.016543389 0)
(0.1062183 0.016812844 0)
(0.099731575 0.017012656 0)
(0.093208717 0.017149881 0)
(0.086666465 0.017235072 0)
(0.080120228 0.017277625 0)
(0.073587358 0.017286206 0)
(0.067076393 0.017266887 0)
(0.06059248 0.017228688 0)
(0.054143809 0.017177243 0)
(0.047729209 0.017117858 0)
(0.041347184 0.017056296 0)
(0.034996952 0.016996832 0)
(0.028677852 0.016943869 0)
(0.022325283 0.016901471 0)
(0.016917266 0.016861331 0)
(0.0074376793 0.016861716 0)
(-0.0074241942 0.022437371 0)
(-0.016874975 0.022438029 0)
(-0.022266259 0.022492134 0)
(-0.02860938 0.022551842 0)
(-0.034917549 0.02262609 0)
(-0.041259926 0.022713165 0)
(-0.047640865 0.022807631 0)
(-0.054063418 0.022902065 0)
(-0.060526291 0.022988414 0)
(-0.067027467 0.023060541 0)
(-0.073566052 0.023110939 0)
(-0.08013374 0.023126298 0)
(-0.086721563 0.023099894 0)
(-0.093320857 0.02301905 0)
(-0.099912645 0.022868815 0)
(-0.10647328 0.022635624 0)
(-0.11298448 0.022311795 0)
(-0.11941991 0.021877081 0)
(-0.12573975 0.021317839 0)
(-0.131908 0.0206213 0)
(-0.13788856 0.019774098 0)
(-0.14363212 0.018758784 0)
(-0.14908544 0.017564509 0)
(-0.1541952 0.016180357 0)
(-0.15890441 0.014596788 0)
(-0.16315171 0.012803533 0)
(-0.1668695 0.010794163 0)
(-0.16999104 0.0085686184 0)
(-0.17245247 0.006124904 0)
(-0.17418893 0.0034631643 0)
(-0.17515737 0.00059061158 0)
(-0.17527599 -0.0024773631 0)
(-0.17446416 -0.0057084364 0)
(-0.17268021 -0.0090863981 0)
(-0.16987194 -0.012591168 0)
(-0.16599986 -0.016198056 0)
(-0.16103478 -0.01987113 0)
(-0.15495892 -0.023572152 0)
(-0.14776597 -0.027258401 0)
(-0.13946223 -0.030882827 0)
(-0.13007165 -0.034394594 0)
(-0.11963404 -0.037744001 0)
(-0.10820014 -0.040884571 0)
(-0.095835315 -0.04376365 0)
(-0.082625449 -0.046332191 0)
(-0.068675028 -0.048544285 0)
(-0.054098166 -0.050365053 0)
(-0.039017727 -0.051762283 0)
(-0.023569417 -0.052711102 0)
(-0.0079017078 -0.053193739 0)
(0.007851832 -0.053193958 0)
(0.023519778 -0.05271176 0)
(0.038968252 -0.051763541 0)
(0.054048949 -0.050367104 0)
(0.068626069 -0.048547175 0)
(0.082576807 -0.046335918 0)
(0.095787267 -0.043767428 0)
(0.10815292 -0.040888972 0)
(0.11958777 -0.037748825 0)
(0.13002629 -0.034399469 0)
(0.13941785 -0.030887724 0)
(0.14772297 -0.027263268 0)
(0.15491717 -0.023576744 0)
(0.16099416 -0.019875245 0)
(0.16596049 -0.016201782 0)
(0.16983362 -0.012594211 0)
(0.17264295 -0.009089668 0)
(0.17442847 -0.0057118835 0)
(0.17524217 -0.0024810454 0)
(0.17512514 0.00058645956 0)
(0.17415812 0.0034586277 0)
(0.17242315 0.0061201778 0)
(0.16996332 0.008563706 0)
(0.1668431 0.010789133 0)
(0.163126 0.012798551 0)
(0.15887904 0.014591715 0)
(0.1541706 0.016174903 0)
(0.14906242 0.017558472 0)
(0.14361107 0.018752142 0)
(0.13786928 0.019767229 0)
(0.13188985 0.020614751 0)
(0.1257222 0.021311983 0)
(0.11940346 0.021870953 0)
(0.11296978 0.022305332 0)
(0.10646046 0.02262909 0)
(0.09990153 0.022861706 0)
(0.093311342 0.023012003 0)
(0.086713785 0.023092796 0)
(0.080127754 0.023118686 0)
(0.073562017 0.023102345 0)
(0.067026085 0.023050748 0)
(0.060527291 0.0229773 0)
(0.054066192 0.022888738 0)
(0.047646044 0.022791931 0)
(0.0412673 0.022694904 0)
(0.034926409 0.022604202 0)
(0.028621376 0.022526195 0)
(0.022277906 0.022464587 0)
(0.016891952 0.022412034 0)
(0.0074360903 0.022403149 0)
(-0.0074211816 0.028623588 0)
(-0.016840974 0.028635987 0)
(-0.022197999 0.028706024 0)
(-0.028523648 0.028793833 0)
(-0.03481447 0.028905537 0)
(-0.041146217 0.029031939 0)
(-0.047521527 0.029168215 0)
(-0.053944902 0.029308701 0)
(-0.060418052 0.029443605 0)
(-0.066939613 0.029561275 0)
(-0.073508491 0.029651418 0)
(-0.080119315 0.02970193 0)
(-0.086763073 0.029697364 0)
(-0.093430262 0.029623947 0)
(-0.10010628 0.029466813 0)
(-0.10676743 0.029206973 0)
(-0.11339305 0.028825292 0)
(-0.11995884 0.0283064 0)
(-0.12642844 0.027630495 0)
(-0.13276433 0.026775022 0)
(-0.13892631 0.025722819 0)
(-0.14486727 0.024456633 0)
(-0.15053452 0.022957213 0)
(-0.15587179 0.02120814 0)
(-0.16081888 0.019195039 0)
(-0.1653114 0.016907463 0)
(-0.16928047 0.014337349 0)
(-0.1726574 0.01147781 0)
(-0.17537422 0.0083278409 0)
(-0.17736237 0.0048941311 0)
(-0.17854924 0.0011832918 0)
(-0.17886782 -0.002773014 0)
(-0.17825121 -0.0069653226 0)
(-0.1766307 -0.011365229 0)
(-0.17395633 -0.015940749 0)
(-0.17018208 -0.020653989 0)
(-0.16527137 -0.025459829 0)
(-0.15920313 -0.03030728 0)
(-0.15196682 -0.035139551 0)
(-0.1435653 -0.039895972 0)
(-0.13401757 -0.044512765 0)
(-0.1233644 -0.048921449 0)
(-0.11165752 -0.053053351 0)
(-0.098964122 -0.056842888 0)
(-0.085375058 -0.060228494 0)
(-0.070995684 -0.063151544 0)
(-0.05594668 -0.065557401 0)
(-0.040361281 -0.067402256 0)
(-0.024384331 -0.068652548 0)
(-0.0081748238 -0.069285383 0)
(0.0081252242 -0.069285605 0)
(0.024334968 -0.06865325 0)
(0.040312038 -0.067403432 0)
(0.055897642 -0.065559129 0)
(0.070947078 -0.063153968 0)
(0.085327027 -0.060231519 0)
(0.098916574 -0.056846266 0)
(0.1116107 -0.053057315 0)
(0.12331884 -0.048926035 0)
(0.13397311 -0.044517883 0)
(0.14352161 -0.039901382 0)
(0.15192418 -0.035145221 0)
(0.15916181 -0.030313287 0)
(0.16523127 -0.025465915 0)
(0.17014338 -0.020660043 0)
(0.17391835 -0.015946681 0)
(0.17659351 -0.011370677 0)
(0.17821584 -0.0069702744 0)
(0.17883416 -0.0027776546 0)
(0.17851718 0.0011786157 0)
(0.1773318 0.0048899336 0)
(0.17534485 0.0083234054 0)
(0.17262904 0.011472554 0)
(0.16925322 0.014331114 0)
(0.16528527 0.016900605 0)
(0.16079355 0.019188151 0)
(0.15584717 0.021201515 0)
(0.1505109 0.022950565 0)
(0.14484506 0.024449498 0)
(0.13890578 0.025715169 0)
(0.13274517 0.026767081 0)
(0.12641015 0.027622499 0)
(0.11994148 0.028298657 0)
(0.11337718 0.028817439 0)
(0.10675301 0.029198626 0)
(0.10009359 0.029457851 0)
(0.093419662 0.029614747 0)
(0.086753996 0.029687849 0)
(0.080111787 0.029691728 0)
(0.0735028 0.029640166 0)
(0.066935883 0.0295487 0)
(0.060416273 0.029428865 0)
(0.053945446 0.029292124 0)
(0.04752355 0.029152405 0)
(0.04114905 0.029012273 0)
(0.034819373 0.02888163 0)
(0.028530975 0.028768934 0)
(0.02220554 0.02867691 0)
(0.016851445 0.028605135 0)
(0.0074279961 0.028582715 0)
(-0.0074096088 0.034833555 0)
(-0.016787657 0.034865814 0)
(-0.022103769 0.034957399 0)
(-0.028403786 0.035076597 0)
(-0.034671815 0.035226463 0)
(-0.04098821 0.035398985 0)
(-0.047353571 0.035586738 0)
(-0.053775979 0.03578132 0)
(-0.060260363 0.035971172 0)
(-0.066805406 0.036141882 0)
(-0.073410175 0.036283814 0)
(-0.080071892 0.03637932 0)
(-0.08678324 0.036411212 0)
(-0.093534504 0.036361263 0)
(-0.10031221 0.036210514 0)
(-0.10709728 0.035937906 0)
(-0.11386724 0.035517455 0)
(-0.12059645 0.03492986 0)
(-0.12725284 0.034149427 0)
(-0.13379756 0.033149542 0)
(-0.14018873 0.031909555 0)
(-0.14637954 0.030404335 0)
(-0.15231606 0.028611136 0)
(-0.15794001 0.026509321 0)
(-0.16318836 0.024080337 0)
(-0.16799336 0.021309324 0)
(-0.17228389 0.018184826 0)
(-0.17598603 0.014698942 0)
(-0.17902211 0.0108503 0)
(-0.18131978 0.0066441501 0)
(-0.18281042 0.0020951076 0)
(-0.18340885 -0.0027786589 0)
(-0.18303802 -0.0079552338 0)
(-0.18163491 -0.013400809 0)
(-0.17913793 -0.019076317 0)
(-0.17549436 -0.02493171 0)
(-0.17066204 -0.030912645 0)
(-0.16461159 -0.036954521 0)
(-0.15732703 -0.042987702 0)
(-0.14880763 -0.048935228 0)
(-0.13906962 -0.054716118 0)
(-0.12814809 -0.060246423 0)
(-0.11609634 -0.065436877 0)
(-0.10298673 -0.07020503 0)
(-0.08891193 -0.07446908 0)
(-0.073983672 -0.078153348 0)
(-0.058330693 -0.081189863 0)
(-0.042096691 -0.083521385 0)
(-0.025438468 -0.085103402 0)
(-0.008528561 -0.085905327 0)
(0.0084793436 -0.085905592 0)
(0.025389511 -0.085104265 0)
(0.042047869 -0.083522693 0)
(0.058281958 -0.081191438 0)
(0.073935197 -0.078155223 0)
(0.088864093 -0.074471373 0)
(0.10293947 -0.07020771 0)
(0.11604961 -0.065439989 0)
(0.12810237 -0.060250111 0)
(0.139025 -0.054720609 0)
(0.14876414 -0.048940544 0)
(0.15728457 -0.04299355 0)
(0.16457024 -0.036961008 0)
(0.17062209 -0.030919392 0)
(0.17545582 -0.024938715 0)
(0.17910079 -0.019083654 0)
(0.18159907 -0.013407367 0)
(0.18300352 -0.0079612279 0)
(0.18337558 -0.0027844433 0)
(0.18277875 0.0020894117 0)
(0.18128923 0.0066383622 0)
(0.17899181 0.010844272 0)
(0.17595659 0.014692438 0)
(0.17225589 0.018177679 0)
(0.16796679 0.021301573 0)
(0.16316278 0.02407232 0)
(0.15791497 0.026501434 0)
(0.15229166 0.028603262 0)
(0.14635644 0.030395959 0)
(0.14016733 0.031900603 0)
(0.1337774 0.03314012 0)
(0.12723354 0.034139791 0)
(0.12057807 0.034920247 0)
(0.11384984 0.035507705 0)
(0.10708128 0.035927367 0)
(0.10029814 0.036199665 0)
(0.09352232 0.036349859 0)
(0.08677243 0.036399253 0)
(0.080062354 0.036366593 0)
(0.073402283 0.03627005 0)
(0.066799225 0.036127186 0)
(0.060255998 0.035953761 0)
(0.053776197 0.035762477 0)
(0.047354045 0.035566381 0)
(0.040985599 0.035376945 0)
(0.03467379 0.035202373 0)
(0.028408951 0.035050356 0)
(0.022108053 0.034927804 0)
(0.016793223 0.03483427 0)
(0.0074127938 0.034796389 0)
(-0.0073851244 0.040982477 0)
(-0.016708845 0.041034051 0)
(-0.021979467 0.041151028 0)
(-0.02824624 0.04130741 0)
(-0.034482685 0.04150178 0)
(-0.040775261 0.041728282 0)
(-0.047127172 0.041976695 0)
(-0.053547093 0.042235368 0)
(-0.060042948 0.042491758 0)
(-0.066611398 0.042732362 0)
(-0.073254721 0.042941165 0)
(-0.079974852 0.043098767 0)
(-0.086763418 0.043185585 0)
(-0.093612806 0.043179891 0)
(-0.10051103 0.043057693 0)
(-0.10744151 0.042793642 0)
(-0.11438177 0.04235952 0)
(-0.12130731 0.041727362 0)
(-0.12818906 0.040868336 0)
(-0.1349843 0.039751804 0)
(-0.14165155 0.038348031 0)
(-0.14814579 0.036627938 0)
(-0.15440977 0.034563348 0)
(-0.16038313 0.032128361 0)
(-0.16599995 0.029299372 0)
(-0.17118868 0.026056774 0)
(-0.17587344 0.022385433 0)
(-0.17997534 0.018276582 0)
(-0.18341318 0.013726156 0)
(-0.18610222 0.0087340697 0)
(-0.18795649 0.0033202527 0)
(-0.18890123 -0.0024908853 0)
(-0.18885361 -0.0086844883 0)
(-0.18772956 -0.015216078 0)
(-0.18546285 -0.02203779 0)
(-0.18199216 -0.029092208 0)
(-0.1772665 -0.036310942 0)
(-0.17124952 -0.043616745 0)
(-0.16391842 -0.050927939 0)
(-0.15526463 -0.058147678 0)
(-0.14530019 -0.065176988 0)
(-0.13405747 -0.071911648 0)
(-0.12158944 -0.078244993 0)
(-0.10797102 -0.084071515 0)
(-0.093299605 -0.08928929 0)
(-0.077694279 -0.093803028 0)
(-0.061294093 -0.097527297 0)
(-0.044255677 -0.10038973 0)
(-0.026750779 -0.10233362 0)
(-0.0089691336 -0.10331972 0)
(0.0089203848 -0.10332011 0)
(0.02670227 -0.10233478 0)
(0.0442073 -0.10039146 0)
(0.061245831 -0.097529391 0)
(0.077646109 -0.093805356 0)
(0.093251787 -0.089291813 0)
(0.10792357 -0.08407433 0)
(0.12154244 -0.07824824 0)
(0.13401149 -0.07191543 0)
(0.14525515 -0.06518132 0)
(0.15522073 -0.058152661 0)
(0.16387574 -0.050933579 0)
(0.17120821 -0.043623227 0)
(0.17722663 -0.036317462 0)
(0.1819536 -0.029099233 0)
(0.18542596 -0.022045406 0)
(0.18769418 -0.015223896 0)
(0.18881933 -0.008692347 0)
(0.18886802 -0.0024988451 0)
(0.18792436 0.003312445 0)
(0.18607116 0.0087261255 0)
(0.18338297 0.013718383 0)
(0.17994576 0.018268863 0)
(0.17584485 0.022377286 0)
(0.17116136 0.02604788 0)
(0.1659738 0.029289879 0)
(0.1603577 0.032118791 0)
(0.15438458 0.03455396 0)
(0.14812143 0.03661833 0)
(0.14162874 0.038337785 0)
(0.13496289 0.039740859 0)
(0.12816872 0.040856985 0)
(0.12128782 0.041715954 0)
(0.11436294 0.042348102 0)
(0.10742402 0.042781857 0)
(0.10049558 0.043045475 0)
(0.093599179 0.043166986 0)
(0.086751204 0.043172022 0)
(0.079963919 0.043084207 0)
(0.073245829 0.042926014 0)
(0.066603173 0.042716198 0)
(0.06003629 0.042473812 0)
(0.053543952 0.042215739 0)
(0.047125228 0.041953162 0)
(0.040773574 0.04170464 0)
(0.034483051 0.041477866 0)
(0.028248424 0.041279777 0)
(0.021982942 0.041121107 0)
(0.016714814 0.040999921 0)
(0.0073887327 0.040946621 0)
(-0.0073531932 0.047084285 0)
(-0.016608794 0.047152071 0)
(-0.02182042 0.047302257 0)
(-0.02804278 0.047500303 0)
(-0.034239888 0.047747562 0)
(-0.040501183 0.048035571 0)
(-0.046833189 0.048353449 0)
(-0.053246409 0.048688262 0)
(-0.059747737 0.049027469 0)
(-0.066339311 0.049355277 0)
(-0.073026195 0.049649097 0)
(-0.079809086 0.049889947 0)
(-0.086683027 0.05005221 0)
(-0.09364272 0.050115031 0)
(-0.10067824 0.050047128 0)
(-0.10777476 0.049819178 0)
(-0.11491244 0.049399083 0)
(-0.12206632 0.048751724 0)
(-0.12920688 0.047843828 0)
(-0.13629601 0.046640718 0)
(-0.14329058 0.045102407 0)
(-0.15014223 0.043195507 0)
(-0.15679374 0.040885787 0)
(-0.1631823 0.038140778 0)
(-0.16923861 0.03493109 0)
(-0.1748865 0.031231815 0)
(-0.18004392 0.027022965 0)
(-0.18462588 0.02229081 0)
(-0.18854602 0.017031688 0)
(-0.19170804 0.011250454 0)
(-0.19401805 0.0049556199 0)
(-0.19539544 -0.001828347 0)
(-0.19574209 -0.009080119 0)
(-0.19496459 -0.016745312 0)
(-0.19298818 -0.024770539 0)
(-0.1897397 -0.033088873 0)
(-0.18515742 -0.041621599 0)
(-0.17919848 -0.050279233 0)
(-0.17182744 -0.058958761 0)
(-0.16302624 -0.067548643 0)
(-0.15280359 -0.075929317 0)
(-0.14118682 -0.083974549 0)
(-0.12822789 -0.091554844 0)
(-0.11400381 -0.098540822 0)
(-0.098617432 -0.10480684 0)
(-0.082196866 -0.11023494 0)
(-0.064893696 -0.11471909 0)
(-0.046880343 -0.11816901 0)
(-0.02834714 -0.12051368 0)
(-0.0095053642 -0.12170367 0)
(0.0094569943 -0.12170416 0)
(0.028299104 -0.12051512 0)
(0.046832392 -0.11817122 0)
(0.064845771 -0.11472198 0)
(0.082149026 -0.11023847 0)
(0.09856999 -0.10481095 0)
(0.11395649 -0.098545263 0)
(0.12818067 -0.091559533 0)
(0.14114043 -0.08397968 0)
(0.15275839 -0.075935072 0)
(0.16298225 -0.067554903 0)
(0.17178442 -0.058965452 0)
(0.17915711 -0.050286103 0)
(0.18511756 -0.041628947 0)
(0.18970065 -0.033096791 0)
(0.19295075 -0.024779001 0)
(0.19492887 -0.016754215 0)
(0.19570752 -0.009089166 0)
(0.19536202 -0.0018373609 0)
(0.19398606 0.0049462925 0)
(0.19167717 0.011240753 0)
(0.18851558 0.017021794 0)
(0.1845956 0.022280936 0)
(0.1800143 0.027012984 0)
(0.1748581 0.031221384 0)
(0.16921154 0.034920152 0)
(0.16315614 0.038129615 0)
(0.15676788 0.04087479 0)
(0.15011692 0.043184657 0)
(0.14326659 0.045091498 0)
(0.13627336 0.046629358 0)
(0.12918548 0.047831891 0)
(0.12204607 0.048739667 0)
(0.11489292 0.049387023 0)
(0.10775633 0.049806986 0)
(0.10066165 0.05003434 0)
(0.093627933 0.050101421 0)
(0.086669432 0.050038291 0)
(0.07979703 0.049874186 0)
(0.07301611 0.049632497 0)
(0.06633012 0.049337219 0)
(0.05973995 0.0490089 0)
(0.053241152 0.048668117 0)
(0.046829694 0.048330698 0)
(0.040498631 0.048011074 0)
(0.034238663 0.047721358 0)
(0.028043416 0.047471364 0)
(0.021820852 0.0472706 0)
(0.016612548 0.047116049 0)
(0.0073575423 0.047044731 0)
(-0.0073123448 0.053119799 0)
(-0.016479287 0.053210005 0)
(-0.02161978 0.053398916 0)
(-0.027789025 0.053644591 0)
(-0.03393483 0.0539536 0)
(-0.040155849 0.054313392 0)
(-0.046459867 0.054713244 0)
(-0.052857475 0.055139866 0)
(-0.059359241 0.055578497 0)
(-0.065972094 0.056009031 0)
(-0.072701329 0.056409124 0)
(-0.079552076 0.056756675 0)
(-0.086517814 0.057023413 0)
(-0.093596737 0.057180968 0)
(-0.10078509 0.057197341 0)
(-0.10806722 0.05703759 0)
(-0.11542652 0.056664766 0)
(-0.12283955 0.056038524 0)
(-0.13027663 0.055117212 0)
(-0.13770197 0.053861376 0)
(-0.14507283 0.052224618 0)
(-0.15233836 0.050164804 0)
(-0.15944036 0.047642705 0)
(-0.16631372 0.044616485 0)
(-0.17288496 0.041050773 0)
(-0.17907322 0.036914167 0)
(-0.18479132 0.032181319 0)
(-0.18994407 0.026833473 0)
(-0.19443189 0.020861984 0)
(-0.19815797 0.01427072 0)
(-0.20101596 0.0070700327 0)
(-0.20291786 -0.0007220249 0)
(-0.20374855 -0.0090679178 0)
(-0.20339531 -0.017918956 0)
(-0.20177943 -0.027212885 0)
(-0.19881429 -0.036873527 0)
(-0.19442652 -0.046811123 0)
(-0.18855561 -0.056920201 0)
(-0.1811562 -0.067078457 0)
(-0.17220338 -0.077157487 0)
(-0.16169454 -0.087014615 0)
(-0.149652 -0.096498877 0)
(-0.13612544 -0.10545448 0)
(-0.12119352 -0.11372459 0)
(-0.10496504 -0.12115588 0)
(-0.087578692 -0.12760346 0)
(-0.069201158 -0.13293716 0)
(-0.050023934 -0.13704508 0)
(-0.030260258 -0.13983908 0)
(-0.010148238 -0.14125762 0)
(0.010100289 -0.14125802 0)
(0.03021274 -0.13984034 0)
(0.049976511 -0.13704723 0)
(0.069153608 -0.13294025 0)
(0.087531034 -0.12760742 0)
(0.10491794 -0.12116129 0)
(0.12114678 -0.11373087 0)
(0.13607872 -0.10546126 0)
(0.14960561 -0.096506167 0)
(0.16164905 -0.087022703 0)
(0.17215938 -0.077166404 0)
(0.18111375 -0.067087953 0)
(0.18851433 -0.056929534 0)
(0.19438612 -0.046820779 0)
(0.19877488 -0.03688318 0)
(0.20174168 -0.027222521 0)
(0.20335942 -0.017928984 0)
(0.20371401 -0.0090783663 0)
(0.20288394 -0.00073326802 0)
(0.20098265 0.0070591397 0)
(0.19812586 0.014259482 0)
(0.19440098 0.020849955 0)
(0.18991379 0.02682131 0)
(0.18476161 0.032169409 0)
(0.17904447 0.036902207 0)
(0.17285742 0.041038598 0)
(0.1662871 0.044604235 0)
(0.15941405 0.047630643 0)
(0.15231263 0.050152762 0)
(0.1450483 0.052213226 0)
(0.13767847 0.05384974 0)
(0.13025436 0.055104836 0)
(0.12281846 0.056025929 0)
(0.11540619 0.056651814 0)
(0.10804792 0.057024366 0)
(0.10076747 0.057183523 0)
(0.093581455 0.057166231 0)
(0.086503052 0.057007816 0)
(0.079538298 0.056740063 0)
(0.072690276 0.056391191 0)
(0.065962378 0.055989768 0)
(0.059351256 0.055557974 0)
(0.05285115 0.055117882 0)
(0.04645455 0.054689121 0)
(0.040151779 0.054287165 0)
(0.033932234 0.053924914 0)
(0.027787882 0.053613674 0)
(0.021619268 0.053365226 0)
(0.016481631 0.053174664 0)
(0.0073149706 0.053078978 0)
(-0.0072576662 0.059076126 0)
(-0.01631676 0.059195572 0)
(-0.02137313 0.059424127 0)
(-0.027474863 0.059726121 0)
(-0.033557158 0.060104253 0)
(-0.039726741 0.060549715 0)
(-0.04599092 0.061047182 0)
(-0.052364392 0.061582593 0)
(-0.058860813 0.062137656 0)
(-0.065489906 0.062691697 0)
(-0.072258707 0.063222106 0)
(-0.079174018 0.063702017 0)
(-0.086236957 0.064103444 0)
(-0.093446146 0.064388432 0)
(-0.10079828 0.064523655 0)
(-0.1082834 0.064469308 0)
(-0.11588703 0.064182634 0)
(-0.1235889 0.063618248 0)
(-0.13135856 0.062727447 0)
(-0.13916275 0.061460966 0)
(-0.14696095 0.059768289 0)
(-0.15469762 0.05759828 0)
(-0.1623153 0.054901569 0)
(-0.16974729 0.05162971 0)
(-0.17691395 0.047738954 0)
(-0.18372916 0.043190105 0)
(-0.19009822 0.037951226 0)
(-0.19591954 0.031998475 0)
(-0.20108395 0.025314991 0)
(-0.20547646 0.01789751 0)
(-0.20898896 0.0097623338 0)
(-0.21151283 0.00092652309 0)
(-0.21291609 -0.00855526 0)
(-0.21308416 -0.018653445 0)
(-0.211915 -0.02929177 0)
(-0.20930837 -0.040387772 0)
(-0.20517311 -0.051833833 0)
(-0.19943381 -0.063510006 0)
(-0.19203193 -0.075279132 0)
(-0.18292927 -0.086988665 0)
(-0.17211187 -0.09847175 0)
(-0.15959388 -0.10954939 0)
(-0.14542127 -0.12003544 0)
(-0.12967343 -0.12974154 0)
(-0.11246507 -0.13848111 0)
(-0.093947461 -0.14607739 0)
(-0.074305201 -0.15237095 0)
(-0.053752501 -0.15722392 0)
(-0.032530785 -0.16052748 0)
(-0.01091135 -0.16220544 0)
(0.010864405 -0.16220555 0)
(0.032484109 -0.16052802 0)
(0.053705786 -0.15722519 0)
(0.07425834 -0.15237305 0)
(0.093899939 -0.14608027 0)
(0.1124179 -0.13848601 0)
(0.12962717 -0.12974804 0)
(0.1453753 -0.12004314 0)
(0.15954802 -0.1095581 0)
(0.17206644 -0.098481571 0)
(0.18288513 -0.086999606 0)
(0.19198958 -0.075291127 0)
(0.19939305 -0.063522568 0)
(0.20513342 -0.051846617 0)
(0.20926947 -0.040400294 0)
(0.21187704 -0.029303972 0)
(0.21304733 -0.018665578 0)
(0.21288 -0.0085674077 0)
(0.21147872 0.00091440891 0)
(0.20895691 0.0097500655 0)
(0.20544435 0.017885128 0)
(0.2010523 0.025302253 0)
(0.19588894 0.031985541 0)
(0.19006845 0.037938426 0)
(0.18370025 0.043177351 0)
(0.17688618 0.047725997 0)
(0.16972046 0.051616559 0)
(0.16228857 0.054888433 0)
(0.15467174 0.057585322 0)
(0.1469362 0.059755601 0)
(0.13913818 0.061448239 0)
(0.13133537 0.062714117 0)
(0.12356702 0.06360421 0)
(0.11586573 0.064167948 0)
(0.10826326 0.064454283 0)
(0.10077975 0.064508145 0)
(0.093429566 0.064371903 0)
(0.086221573 0.064085248 0)
(0.079159788 0.063683665 0)
(0.072246421 0.063202351 0)
(0.065478948 0.062670245 0)
(0.058851389 0.062114811 0)
(0.052356922 0.061557968 0)
(0.045984765 0.061021035 0)
(0.039721226 0.060521917 0)
(0.033553101 0.060074956 0)
(0.027472804 0.059693986 0)
(0.02137244 0.059389576 0)
(0.016317898 0.05915892 0)
(0.0072586686 0.059034676 0)
(-0.0071866302 0.064939164 0)
(-0.016117335 0.065090783 0)
(-0.021075201 0.065366639 0)
(-0.027094314 0.065732885 0)
(-0.033096112 0.06619116 0)
(-0.03919715 0.06673328 0)
(-0.045410181 0.067342786 0)
(-0.051749232 0.068003468 0)
(-0.058231328 0.068695998 0)
(-0.06486775 0.069399306 0)
(-0.071670184 0.070087426 0)
(-0.078648735 0.070729044 0)
(-0.085808422 0.071295018 0)
(-0.093152595 0.071745439 0)
(-0.10067939 0.072039746 0)
(-0.1083827 0.072133549 0)
(-0.11625135 0.071978502 0)
(-0.12426784 0.071523771 0)
(-0.13240638 0.070712989 0)
(-0.14063309 0.069484726 0)
(-0.14890689 0.067787931 0)
(-0.15717578 0.06555745 0)
(-0.16537914 0.06273317 0)
(-0.17344619 0.059259393 0)
(-0.18129423 0.055082247 0)
(-0.18883067 0.050153357 0)
(-0.19595289 0.044431853 0)
(-0.20255075 0.037886263 0)
(-0.2085044 0.03049678 0)
(-0.21368379 0.022255951 0)
(-0.21796227 0.013168319 0)
(-0.22121313 0.0032582396 0)
(-0.22330576 -0.0074301114 0)
(-0.22410626 -0.018850823 0)
(-0.22348583 -0.030924748 0)
(-0.22132643 -0.04355634 0)
(-0.2175173 -0.056630347 0)
(-0.21196819 -0.07001134 0)
(-0.20460137 -0.0835429 0)
(-0.195362 -0.097048777 0)
(-0.18422111 -0.11033406 0)
(-0.17118163 -0.123189 0)
(-0.15628369 -0.13539214 0)
(-0.13960559 -0.14671754 0)
(-0.12126758 -0.1569394 0)
(-0.10143538 -0.16584307 0)
(-0.080314556 -0.17323195 0)
(-0.058147083 -0.1789374 0)
(-0.035208761 -0.18282532 0)
(-0.011811712 -0.18480147 0)
(0.011766377 -0.18480138 0)
(0.035163518 -0.18282532 0)
(0.058101623 -0.17893793 0)
(0.080268732 -0.173233 0)
(0.1013881 -0.16584505 0)
(0.12122001 -0.15694249 0)
(0.13955932 -0.14672262 0)
(0.15623817 -0.13539922 0)
(0.17113616 -0.12319758 0)
(0.18417567 -0.11034406 0)
(0.19531765 -0.097060182 0)
(0.20455892 -0.083555813 0)
(0.21192745 -0.070025356 0)
(0.21747773 -0.056645176 0)
(0.22128787 -0.043571443 0)
(0.22344846 -0.030939715 0)
(0.22407021 -0.018865275 0)
(0.223271 -0.0074438913 0)
(0.22117914 0.0032455847 0)
(0.21792911 0.013155325 0)
(0.21365163 0.022243038 0)
(0.2084732 0.030484092 0)
(0.2025204 0.037873723 0)
(0.1959232 0.0444193 0)
(0.18880171 0.05014085 0)
(0.18126623 0.055069621 0)
(0.17341909 0.059246422 0)
(0.16535241 0.062719758 0)
(0.1571496 0.065544001 0)
(0.14888166 0.067773973 0)
(0.14060813 0.069470748 0)
(0.13238214 0.070698681 0)
(0.12424472 0.071508437 0)
(0.11622913 0.071962464 0)
(0.10836177 0.072117033 0)
(0.10065986 0.072022566 0)
(0.09313463 0.071727104 0)
(0.085792123 0.071275146 0)
(0.078633738 0.07070818 0)
(0.071656458 0.070065061 0)
(0.064855709 0.069375562 0)
(0.058221242 0.068671301 0)
(0.051740902 0.067977037 0)
(0.045403355 0.067314691 0)
(0.039191704 0.066703758 0)
(0.033091196 0.066160328 0)
(0.027090496 0.065699543 0)
(0.021073583 0.065331012 0)
(0.016117197 0.065052408 0)
(0.0071866961 0.064897078 0)
(-0.0070990701 0.07069159 0)
(-0.015874387 0.070879384 0)
(-0.020715896 0.07120934 0)
(-0.026634662 0.071648348 0)
(-0.032540524 0.072199569 0)
(-0.038558258 0.072849514 0)
(-0.04470296 0.07358641 0)
(-0.050992428 0.074391327 0)
(-0.057445178 0.075244011 0)
(-0.064077541 0.076121852 0)
(-0.070906967 0.076995641 0)
(-0.077943259 0.077834694 0)
(-0.085196339 0.078602441 0)
(-0.092676171 0.079257793 0)
(-0.10038393 0.079755862 0)
(-0.10831747 0.080046977 0)
(-0.11646876 0.080075683 0)
(-0.12482538 0.079784063 0)
(-0.1333678 0.079109725 0)
(-0.14205715 0.077983863 0)
(-0.15085674 0.076339793 0)
(-0.15972007 0.07410613 0)
(-0.16858032 0.071212042 0)
(-0.17736458 0.067589663 0)
(-0.18598596 0.063174113 0)
(-0.19434537 0.057905626 0)
(-0.20233119 0.05173318 0)
(-0.20982094 0.044616528 0)
(-0.21668175 0.03652555 0)
(-0.22277495 0.027443674 0)
(-0.22795997 0.017377071 0)
(-0.23208681 0.0063502129 0)
(-0.23500227 -0.0055843192 0)
(-0.23655348 -0.018403747 0)
(-0.23659335 -0.032006892 0)
(-0.23498463 -0.046288932 0)
(-0.23159703 -0.061126886 0)
(-0.22631396 -0.076368162 0)
(-0.21903605 -0.091836352 0)
(-0.2096866 -0.10733091 0)
(-0.198218 -0.12262618 0)