/*--------------------------------*- C++ -*----------------------------------*\
  =========                 |
  \\      /  F ield         | OpenFOAM: The Open Source CFD Toolbox
   \\    /   O peration     | Website:  https://openfoam.org
    \\  /    A nd           | Version:  9
     \\/     M anipulation  |
\*---------------------------------------------------------------------------*/
FoamFile
{
    format      ascii;
    class       volScalarField;
    location    "0.006";
    object      mag(U);
}
// * * * * * * * * * * * * * * * * * * * * * * * * * * * * * * * * * * * * * //

dimensions      [0 1 -1 0 0 0 0];

internalField   nonuniform List<scalar> 
100
(
5.87139e-12
2.76867e-11
1.16483e-10
5.0205e-10
2.11861e-09
8.72612e-09
3.50029e-08
1.36676e-07
5.1899e-07
1.91464e-06
6.85486e-06
2.37906e-05
7.99361e-05
0.000259668
0.00081423
0.00246033
0.00714992
0.0199397
0.0532271
0.135596
0.328495
0.753676
1.63037
3.3069
6.20819
10.6025
16.5222
23.8948
32.5467
42.2165
52.636
63.5794
74.878
86.4114
98.0975
109.869
121.694
133.494
145.313
156.977
168.621
180.082
191.312
202.412
213.175
223.561
233.599
243.139
252.073
260.359
267.96
274.548
280.108
284.789
288.381
290.955
292.529
293.161
293.308
293.434
293.657
293.866
293.987
294.097
294.366
294.515
294.119
293.431
292.917
292.699
292.765
292.909
292.904
292.75
292.421
291.815
291.022
290.163
289.186
287.492
284.052
276.915
259.746
204.012
87.8928
16.8705
2.69795
0.400402
0.0586118
0.00857035
0.0012553
0.000184262
2.70999e-05
3.98992e-06
5.87535e-07
8.64303e-08
1.26868e-08
1.8564e-09
2.7063e-10
3.45355e-11
)
;

boundaryField
{
    sides
    {
        type            calculated;
        value           nonuniform List<scalar> 2(3.45355e-11 5.87139e-12);
    }
    empty
    {
        type            empty;
    }
}


// ************************************************************************* //
