/*--------------------------------*- C++ -*----------------------------------*\
  =========                 |
  \\      /  F ield         | OpenFOAM: The Open Source CFD Toolbox
   \\    /   O peration     | Website:  https://openfoam.org
    \\  /    A nd           | Version:  9
     \\/     M anipulation  |
\*---------------------------------------------------------------------------*/
FoamFile
{
    format      ascii;
    class       volScalarField;
    location    "0.006";
    object      p;
}
// * * * * * * * * * * * * * * * * * * * * * * * * * * * * * * * * * * * * * //

dimensions      [1 -1 -2 0 0 0 0];

internalField   nonuniform List<scalar> 
100
(
100000
100000
100000
100000
100000
100000
100000
100000
100000
100000
100000
100000
100000
99999.9
99999.7
99999.1
99997.4
99992.8
99980.8
99950.8
99880.5
99724.9
99403.2
98785.4
97702.2
96060.1
93905.4
91285.6
88299.3
85069.5
81710.9
78312.6
74936.8
71623.6
68398.9
65277.8
62272.7
59383.1
56629.5
53982.1
51495.1
49109.6
46868.3
44764.5
42785.4
40941.7
39239
37679.7
36269.4
34997.9
33888.5
32897.8
32124.3
31495.9
30991.7
30669.5
30435.6
30325.8
30272.2
30269.7
30270.1
30273.1
30283.6
30310.5
30321
30339.1
30276.4
30285.2
30277.4
30265.1
30268.2
30264.3
30209.8
30203.5
30218.2
30194.7
30158.2
30131.9
30104.9
29976.8
29646.5
28988.3
27478.5
23241.9
13287.3
10657.7
10102.5
10015.1
10002.2
10000.3
10000
10000
10000
10000
10000
10000
10000
10000
10000
10000
)
;

boundaryField
{
    sides
    {
        type            zeroGradient;
    }
    empty
    {
        type            empty;
    }
}


// ************************************************************************* //
