/*--------------------------------*- C++ -*----------------------------------*\
  =========                 |
  \\      /  F ield         | OpenFOAM: The Open Source CFD Toolbox
   \\    /   O peration     | Website:  https://openfoam.org
    \\  /    A nd           | Version:  9
     \\/     M anipulation  |
\*---------------------------------------------------------------------------*/
FoamFile
{
    format      ascii;
    class       surfaceScalarField;
    location    "0.006";
    object      phi;
}
// * * * * * * * * * * * * * * * * * * * * * * * * * * * * * * * * * * * * * //

dimensions      [1 0 -1 0 0 0 0];

internalField   nonuniform List<scalar> 
99
(
5.8634e-11
2.49713e-10
1.07553e-09
4.57192e-09
1.89925e-08
7.68792e-08
3.03026e-07
1.16202e-06
4.33112e-06
1.56743e-05
5.50171e-05
0.000187069
0.000615358
0.0019554
0.00599268
0.0176804
0.0501138
0.136142
0.35352
0.874638
2.05391
4.55753
9.51021
18.5611
33.4178
53.8496
79.1077
108.238
139.79
172.319
204.657
235.988
265.801
293.801
319.835
343.827
365.814
385.636
403.856
419.48
433.857
446.901
456.417
465.998
475.133
480.399
483.849
488.848
493.842
495.414
494.431
493.298
495.487
496.923
496.284
494.627
492.541
491.174
490.895
491.305
491.516
491.672
491.227
487.701
474.55
431.873
384.97
352.815
332.346
320.58
314.724
310.044
307.763
307.833
308.272
307.728
309.056
310.332
311.294
305.157
298.227
289.756
257.415
101.408
24.9723
4.25328
0.638642
0.093539
0.0136644
0.00199837
0.000292876
4.30172e-05
6.32933e-06
9.32042e-07
1.37229e-07
2.01778e-08
2.9595e-09
4.32584e-10
6.2188e-11
)
;

boundaryField
{
    sides
    {
        type            calculated;
        value           nonuniform List<scalar> 2(1.28666e-11 -1.86945e-11);
    }
    empty
    {
        type            empty;
        value           nonuniform List<scalar> 0();
    }
}


// ************************************************************************* //
