/*--------------------------------*- C++ -*----------------------------------*\
  =========                 |
  \\      /  F ield         | OpenFOAM: The Open Source CFD Toolbox
   \\    /   O peration     | Website:  https://openfoam.org
    \\  /    A nd           | Version:  9
     \\/     M anipulation  |
\*---------------------------------------------------------------------------*/
FoamFile
{
    format      ascii;
    class       volScalarField;
    location    "0.006";
    object      T;
}
// * * * * * * * * * * * * * * * * * * * * * * * * * * * * * * * * * * * * * //

dimensions      [0 0 0 1 0 0 0];

internalField   nonuniform List<scalar> 
100
(
348.432
348.432
348.432
348.432
348.432
348.432
348.432
348.432
348.432
348.432
348.432
348.432
348.432
348.432
348.432
348.431
348.429
348.425
348.413
348.383
348.313
348.157
347.836
347.216
346.125
344.454
342.231
339.48
336.276
332.722
328.924
324.967
320.914
316.809
312.683
308.552
304.465
300.306
296.543
291.885
289.244
283.922
280.856
278.159
273.295
269.619
267.942
265.263
261.049
257.804
256.654
255.979
254.313
251.578
250.343
250.363
250.801
251.369
251.413
251.297
251.17
251.19
251.44
252.603
256.851
271.339
305.304
338.543
363.955
381.027
391.588
397.336
400.004
401.178
401.386
400.797
398.543
396.708
395.817
395.062
393.812
391.236
384.886
367.183
305.731
284.111
279.567
278.867
278.764
278.749
278.746
278.746
278.746
278.746
278.746
278.746
278.746
278.746
278.746
278.746
)
;

boundaryField
{
    sides
    {
        type            zeroGradient;
    }
    empty
    {
        type            empty;
    }
}


// ************************************************************************* //
