/*--------------------------------*- C++ -*----------------------------------*\
  =========                 |
  \\      /  F ield         | OpenFOAM: The Open Source CFD Toolbox
   \\    /   O peration     | Website:  https://openfoam.org
    \\  /    A nd           | Version:  9
     \\/     M anipulation  |
\*---------------------------------------------------------------------------*/
FoamFile
{
    format      ascii;
    class       volVectorField;
    location    "0.006";
    object      U;
}
// * * * * * * * * * * * * * * * * * * * * * * * * * * * * * * * * * * * * * //

dimensions      [0 1 -1 0 0 0 0];

internalField   nonuniform List<vector> 
100
(
(5.87139e-12 0 0)
(2.76867e-11 0 0)
(1.16483e-10 0 0)
(5.0205e-10 0 0)
(2.11861e-09 0 0)
(8.72612e-09 0 0)
(3.50029e-08 0 0)
(1.36676e-07 0 0)
(5.1899e-07 0 0)
(1.91464e-06 0 0)
(6.85486e-06 0 0)
(2.37906e-05 0 0)
(7.99361e-05 0 0)
(0.000259668 0 0)
(0.00081423 0 0)
(0.00246033 0 0)
(0.00714992 0 0)
(0.0199397 0 0)
(0.0532271 0 0)
(0.135596 0 0)
(0.328495 0 0)
(0.753676 0 0)
(1.63037 0 0)
(3.3069 0 0)
(6.20819 0 0)
(10.6025 0 0)
(16.5222 0 0)
(23.8948 0 0)
(32.5467 0 0)
(42.2165 0 0)
(52.636 0 0)
(63.5794 0 0)
(74.878 0 0)
(86.4114 0 0)
(98.0975 0 0)
(109.869 0 0)
(121.694 0 0)
(133.494 0 0)
(145.313 0 0)
(156.977 0 0)
(168.621 0 0)
(180.082 0 0)
(191.312 0 0)
(202.412 0 0)
(213.175 0 0)
(223.561 0 0)
(233.599 0 0)
(243.139 0 0)
(252.073 0 0)
(260.359 0 0)
(267.96 0 0)
(274.548 0 0)
(280.108 0 0)
(284.789 0 0)
(288.381 0 0)
(290.955 0 0)
(292.529 0 0)
(293.161 0 0)
(293.308 0 0)
(293.434 0 0)
(293.657 0 0)
(293.866 0 0)
(293.987 0 0)
(294.097 0 0)
(294.366 0 0)
(294.515 0 0)
(294.119 0 0)
(293.431 0 0)
(292.917 0 0)
(292.699 0 0)
(292.765 0 0)
(292.909 0 0)
(292.904 0 0)
(292.75 0 0)
(292.421 0 0)
(291.815 0 0)
(291.022 0 0)
(290.163 0 0)
(289.186 0 0)
(287.492 0 0)
(284.052 0 0)
(276.915 0 0)
(259.746 0 0)
(204.012 0 0)
(87.8928 0 0)
(16.8705 0 0)
(2.69795 0 0)
(0.400402 0 0)
(0.0586118 0 0)
(0.00857035 0 0)
(0.0012553 0 0)
(0.000184262 0 0)
(2.70999e-05 0 0)
(3.98992e-06 0 0)
(5.87535e-07 0 0)
(8.64303e-08 0 0)
(1.26868e-08 0 0)
(1.8564e-09 0 0)
(2.7063e-10 0 0)
(3.45355e-11 0 0)
)
;

boundaryField
{
    sides
    {
        type            zeroGradient;
    }
    empty
    {
        type            empty;
    }
}


// ************************************************************************* //
