/*--------------------------------*- C++ -*----------------------------------*\
  =========                 |
  \\      /  F ield         | OpenFOAM: The Open Source CFD Toolbox
   \\    /   O peration     | Website:  https://openfoam.org
    \\  /    A nd           | Version:  9
     \\/     M anipulation  |
\*---------------------------------------------------------------------------*/
FoamFile
{
    format      ascii;
    class       volScalarField;
    location    "2";
    object      p;
}
// * * * * * * * * * * * * * * * * * * * * * * * * * * * * * * * * * * * * * //

dimensions      [1 -1 -2 0 0 0 0];

internalField   nonuniform List<scalar> 
5250
(
1
1.00002
1.00006
1.00015
1.00038
1.00092
1.00234
1.00558
1.01434
1.03428
1.08769
1.22002
1.58647
2.64022
5.83489
12.3622
11.5499
11.1003
11.1855
11.4376
11.6991
11.8598
11.9808
12.0778
12.1518
1
1.00002
1.00005
1.00015
1.00036
1.00096
1.0022
1.00579
1.01365
1.03483
1.08545
1.21933
1.57814
2.62206
5.77623
12.3037
11.5325
11.0902
11.1761
11.4276
11.6881
11.8492
11.9723
12.071
12.1467
1
1.00002
1.00005
1.00015
1.00035
1.00093
1.00216
1.00563
1.01344
1.03395
1.08381
1.21417
1.56477
2.58168
5.65243
12.1718
11.4904
11.0621
11.1456
11.3904
11.6458
11.8046
11.9274
12.0252
12.1005
1
1.00002
1.00006
1.00014
1.00037
1.00084
1.00226
1.0051
1.01374
1.0316
1.08311
1.20431
1.54766
2.52125
5.47098
11.9615
11.4201
11.019
11.0956
11.3239
11.5705
11.725
11.8441
11.9391
12.0144
1
1.00002
1.00005
1.00014
1.00032
1.00088
1.00198
1.0053
1.01227
1.0319
1.07693
1.19875
1.51861
2.44887
5.23894
11.6646
11.3147
10.9674
11.0307
11.2297
11.4654
11.6146
11.7281
11.8187
11.8946
1
1.00002
1.00005
1.00012
1.00033
1.00077
1.00202
1.00473
1.01213
1.02938
1.0741
1.1859
1.49087
2.35994
4.96585
11.2678
11.167
10.9164
10.9532
11.1041
11.3256
11.4665
11.5696
11.6518
11.7275
1
1.00002
1.00004
1.00012
1.00029
1.00078
1.00175
1.00474
1.01069
1.02876
1.06716
1.17639
1.45332
2.26179
4.65499
10.737
11.013
10.8616
10.8599
10.9523
11.1483
11.2765
11.3599
11.4231
11.4898
1
1.00001
1.00004
1.00011
1.00028
1.00067
1.00174
1.00402
1.0107
1.02469
1.06479
1.15802
1.41884
2.14542
4.31272
10.0537
10.9088
10.7806
10.7205
10.7837
10.9349
11.0373
11.0865
11.1105
11.1453
1
1.00001
1.00004
1.0001
1.00025
1.00063
1.0015
1.00387
1.00904
1.0237
1.05625
1.14557
1.37277
2.02537
3.93809
9.21851
10.8246
10.694
10.553
10.5898
10.6881
10.7427
10.7334
10.679
10.6116
1
1.00001
1.00003
1.00009
1.00022
1.00056
1.00135
1.00331
1.00837
1.02008
1.05119
1.12641
1.32864
1.89
3.53991
8.22097
10.7621
10.611
10.3671
10.3723
10.4051
10.3906
10.2979
10.0681
9.70258
1
1.00001
1.00003
1.00007
1.00019
1.00047
1.00115
1.00293
1.00692
1.01796
1.04271
1.10993
1.27786
1.75068
3.11796
7.08034
10.7127
10.5311
10.1845
10.1259
10.099
10.0021
9.73599
9.1187
7.5306
1
1.00001
1.00002
1.00006
1.00016
1.00038
1.00101
1.00231
1.00617
1.01401
1.0374
1.08824
1.23146
1.6044
2.69114
5.82498
10.5888
10.4136
10.0339
9.88416
9.79234
9.59303
9.16623
8.31464
6.64496
1
1.00001
1.00002
1.00005
1.00013
1.00034
1.00077
1.00206
1.00468
1.01252
1.02866
1.07561
1.18323
1.488
2.32882
4.76049
10.1698
10.1567
9.91628
9.64881
9.4813
9.20117
8.67315
7.79471
6.4319
1
1.00001
1.00002
1.00004
1.00011
1.00027
1.00069
1.00159
1.00422
1.00954
1.02554
1.0595
1.15535
1.3951
2.08535
4.06708
9.14742
9.86343
9.71688
9.41702
9.18007
8.85135
8.30905
7.4985
6.40895
1
1
1.00001
1.00003
1.00009
1.00021
1.00056
1.00133
1.0033
1.00823
1.01987
1.05024
1.12414
1.3209
1.86381
3.43256
7.69933
9.61514
9.51379
9.24097
8.9223
8.56026
8.03958
7.31497
6.40662
1
1
1.00001
1.00003
1.00007
1.00017
1.00044
1.00104
1.00271
1.00623
1.01647
1.03836
1.09972
1.2481
1.6656
2.84293
6.16293
9.45018
9.37874
9.11642
8.71642
8.32369
7.82983
7.18245
6.40106
1
1
1.00001
1.00002
1.00005
1.00014
1.00032
1.00085
1.00192
1.00514
1.01154
1.03095
1.07171
1.18766
1.47719
2.29687
4.53335
9.08288
9.21683
9.01435
8.57642
8.13606
7.6603
7.07737
6.39163
1
1
1.00001
1.00002
1.00004
1.00011
1.00025
1.00064
1.00153
1.00379
1.00941
1.02268
1.05715
1.14119
1.36489
1.97983
3.71969
8.07329
8.9532
8.81129
8.45082
7.98058
7.51823
6.98922
6.38028
1
1
1.00001
1.00001
1.00003
1.00008
1.0002
1.00046
1.00122
1.00276
1.00737
1.01675
1.04428
1.10509
1.27515
1.72202
3.00116
6.43091
8.66351
8.59861
8.34785
7.86452
7.40407
6.91517
6.36891
1
1
1
1.00001
1.00002
1.00006
1.00014
1.00036
1.00083
1.00216
1.00508
1.01272
1.03116
1.07706
1.19362
1.50317
2.35352
4.64942
8.2644
8.42717
8.2522
7.83376
7.33229
6.85847
6.35987
1
1
1
1.00001
1.00002
1.00004
1.0001
1.00026
1.0006
1.00157
1.00361
1.00935
1.02206
1.05575
1.13675
1.35261
1.93128
3.52277
7.31276
8.22154
8.1067
7.78841
7.28698
6.81878
6.35437
1
1
1
1.00001
1.00001
1.00003
1.00007
1.00019
1.00043
1.00113
1.00258
1.00668
1.01577
1.03975
1.09724
1.24779
1.64724
2.75442
5.66123
7.93999
7.91499
7.72265
7.29099
6.80792
6.35552
1
1
1
1
1.00001
1.00002
1.00005
1.00013
1.0003
1.00077
1.00176
1.00464
1.01044
1.02775
1.06386
1.16579
1.41407
2.09279
3.83123
7.36713
7.78694
7.65201
7.30253
6.81467
6.36266
1
1
1
1
1.00001
1.00001
1.00004
1.00008
1.00022
1.00051
1.00127
1.00311
1.00742
1.01879
1.04466
1.11318
1.28247
1.74341
2.98186
6.07997
7.55218
7.50409
7.29035
6.84315
6.38268
1
1
1
1
1
1.00001
1.00002
1.00006
1.00014
1.00035
1.00087
1.00202
1.00525
1.01192
1.03132
1.07303
1.18833
1.47613
2.25971
4.26508
7.07602
7.35328
7.23504
6.91319
6.42765
1
1
1
1
1
1.00001
1.00002
1.00004
1.00009
1.00024
1.00054
1.00143
1.0032
1.0085
1.01928
1.0501
1.11891
1.30687
1.78667
3.06116
6.02703
7.1503
7.10801
6.9116
6.49914
1
1
1
1
1
1
1.00001
1.00002
1.00006
1.00015
1.00038
1.00087
1.00222
1.0053
1.01293
1.03194
1.07753
1.19442
1.49601
2.29374
4.30361
6.71731
6.96908
6.8693
6.59703
1
1
1
1
1
1
1.00001
1.00002
1.00004
1.0001
1.00024
1.00056
1.00144
1.00326
1.00856
1.01934
1.0506
1.11867
1.30593
1.77702
2.99342
5.75908
6.77459
6.75206
6.59576
1
1
1
1
1
1
1
1.00001
1.00002
1.00006
1.00014
1.00038
1.00085
1.0022
1.00505
1.01284
1.0304
1.07572
1.1858
1.47422
2.21582
4.05473
6.33068
6.63559
6.55569
1
1
1
1
1
1
1
1.00001
1.00002
1.00004
1.00009
1.00023
1.00052
1.00138
1.00307
1.00811
1.01813
1.04763
1.11063
1.2849
1.71596
2.81758
5.33369
6.42277
6.4339
1
1
1
1
1
1
1
1
1.00001
1.00002
1.00006
1.00013
1.00034
1.0008
1.00193
1.00477
1.01114
1.02826
1.06637
1.16749
1.41505
2.05384
3.59385
5.92049
6.32577
1
1
1
1
1
1
1
1
1.00001
1.00001
1.00004
1.00008
1.00021
1.00047
1.00122
1.00274
1.00705
1.01638
1.04083
1.09855
1.2461
1.61939
2.5649
4.78226
6.07201
1
1
1
1
1
1
1
1
1
1.00001
1.00002
1.00005
1.00012
1.00028
1.0007
1.00162
1.00414
1.00931
1.02419
1.05508
1.14077
1.33953
1.85199
3.04398
5.46564
1
1
1
1
1
1
1
1
1
1.00001
1.00001
1.00003
1.00007
1.00018
1.00039
1.00102
1.00227
1.00596
1.01335
1.03452
1.08009
1.20318
1.50156
2.26744
4.10374
1
1
1
1
1
1
1
1
1
1
1.00001
1.00002
1.00004
1.00009
1.00024
1.00055
1.00138
1.0033
1.00785
1.01943
1.04575
1.1138
1.27716
1.69212
2.68607
1
1
1
1
1
1
1
1
1
1
1
1.00001
1.00002
1.00006
1.00013
1.00032
1.00079
1.00181
1.00462
1.01036
1.02685
1.06102
1.15551
1.37353
1.92775
1
1
1
1
1
1
1
1
1
1
1
1.00001
1.00001
1.00003
1.00007
1.00019
1.00042
1.00109
1.00242
1.00632
1.01412
1.03633
1.0839
1.21183
1.51567
1
1
1
1
1
1
1
1
1
1
1
1
1.00001
1.00002
1.00004
1.0001
1.00025
1.00056
1.00144
1.00322
1.00826
1.01882
1.04705
1.1112
1.27524
1
1
1
1
1
1
1
1
1
1
1
1
1
1.00001
1.00002
1.00006
1.00013
1.00032
1.00075
1.00181
1.00438
1.01021
1.02544
1.05905
1.14687
1
1
1
1
1
1
1
1
1
1
1
1
1
1.00001
1.00001
1.00003
1.00007
1.00018
1.0004
1.00102
1.00228
1.00584
1.0132
1.0332
1.07756
1
1
1
1
1
1
1
1
1
1
1
1
1
1
1.00001
1.00002
1.00004
1.00009
1.00023
1.00051
1.00127
1.003
1.00712
1.01742
1.04071
1
1
1
1
1
1
1
1
1
1
1
1
1
1
1
1.00001
1.00002
1.00005
1.00011
1.00028
1.00066
1.00153
1.00383
1.00859
1.02187
1
1
1
1
1
1
1
1
1
1
1
1
1
1
1
1
1.00001
1.00003
1.00006
1.00015
1.00033
1.00085
1.00188
1.00482
1.01066
1
1
1
1
1
1
1
1
1
1
1
1
1
1
1
1
1.00001
1.00001
1.00003
1.00007
1.00018
1.00041
1.00105
1.00232
1.0059
1
1
1
1
1
1
1
1
1
1
1
1
1
1
1
1
1
1.00001
1.00002
1.00004
1.00009
1.00022
1.0005
1.00126
1.0028
1
1
1
1
1
1
1
1
1
1
1
1
1
1
1
1
1
1
1.00001
1.00002
1.00004
1.00011
1.00025
1.00063
1.00142
1
1
1
1
1
1
1
1
1
1
1
1
1
1
1
1
1
1
1
1.00001
1.00002
1.00006
1.00012
1.00031
1.00069
1
1
1
1
1
1
1
1
1
1
1
1
1
1
1
1
1
1
1
1.00001
1.00001
1.00003
1.00006
1.00015
1.00036
1
1
1
1
1
1
1
1
1
1
1
1
1
1
1
1
1
1
1
1
1.00001
1.00001
1.00003
1.00008
1.00019
1
1
1
1
1
1
1
1
1
1
1
1
1
1
1
1
1
1
1
1
1
1.00001
1.00002
1.00006
1.00013
2.98389
1.5018
1.01416
0.922622
0.950185
1.03474
1.21157
1.34554
1.38364
1.38128
1.37407
1.36756
1.36817
1.37065
1.37617
1.38211
1.38392
1.38368
1.3828
1.38077
1.37738
1.37447
1.37191
1.36918
1.36605
1.36254
1.35875
1.35475
1.35058
1.34624
1.34173
1.33705
1.33221
1.32723
1.32217
1.31712
1.3124
1.30864
1.30902
1.31079
1.31637
1.33085
1.3663
1.45015
1.64644
2.11205
3.21415
4.54066
4.49352
4.55455
4.66594
4.76541
4.81686
4.8338
4.82964
4.81092
4.76758
4.70583
4.6428
4.57968
4.5161
4.45165
4.38626
4.32067
4.2552
4.18994
4.12481
4.05976
3.99477
3.92996
3.8655
3.80151
3.73811
3.67537
3.61342
3.55236
3.49232
3.43335
3.37547
3.31857
3.26284
3.20813
3.15443
3.10159
3.04973
2.99861
2.94865
2.89964
2.85163
2.80438
2.75808
2.71258
2.66805
2.62436
2.58171
2.54012
2.50017
2.46275
2.43089
2.41009
3.69662
2.30473
1.71626
1.47123
1.35809
1.27643
1.25886
1.26683
1.28914
1.33491
1.378
1.39277
1.39194
1.38913
1.38328
1.38028
1.38035
1.38067
1.38119
1.38104
1.38034
1.37863
1.37509
1.37087
1.36687
1.3631
1.35937
1.35551
1.35141
1.34705
1.34247
1.3377
1.33278
1.32776
1.32265
1.31754
1.31269
1.30872
1.30902
1.3106
1.31553
1.32831
1.35958
1.43332
1.60671
2.01167
2.93891
4.73066
4.86898
4.75701
4.68435
4.6938
4.72062
4.75481
4.75968
4.75549
4.73843
4.6977
4.63254
4.56774
4.50371
4.43963
4.37531
4.31094
4.24664
4.18239
4.11815
4.05383
3.98944
3.92515
3.86109
3.79746
3.7343
3.67182
3.61005
3.5492
3.48933
3.43054
3.37277
3.31591
3.26041
3.206
3.1525
3.09988
3.04819
2.99749
2.94759
2.8985
2.85036
2.80315
2.75689
2.71149
2.667
2.62336
2.58068
2.53903
2.49889
2.46093
2.42877
2.40514
4.54352
3.23883
2.4227
1.90648
1.57362
1.36852
1.2484
1.23476
1.24211
1.26334
1.30752
1.3483
1.37392
1.38478
1.3845
1.38322
1.38035
1.37759
1.37644
1.37573
1.37488
1.37354
1.37146
1.36864
1.36536
1.36174
1.35788
1.35382
1.34961
1.34524
1.34074
1.3361
1.33133
1.32645
1.32147
1.31662
1.31184
1.30923
1.30969
1.31176
1.31779
1.333
1.36808
1.44611
1.6144
1.9677
2.68344
3.99812
4.97606
5.05585
5.00396
4.88838
4.79591
4.75456
4.72392
4.69799
4.67599
4.64524
4.60155
4.54712
4.48739
4.42615
4.36377
4.30057
4.23693
4.17316
4.10938
4.0456
3.9819
3.91832
3.85494
3.79175
3.72896
3.66669
3.60527
3.54461
3.48533
3.42704
3.36987
3.31375
3.25833
3.20365
3.1501
3.09739
3.04578
2.99496
2.94519
2.89615
2.84821
2.80102
2.75492
2.70952
2.66517
2.62151
2.57894
2.5372
2.49693
2.45862
2.42467
2.40057
5.01391
3.82623
2.95095
2.34354
1.93751
1.66481
1.49361
1.38455
1.32093
1.30277
1.30598
1.31691
1.34027
1.36731
1.38566
1.39287
1.39237
1.39058
1.38662
1.38149
1.37817
1.37591
1.37409
1.37203
1.36925
1.36573
1.36163
1.35719
1.35259
1.34793
1.3432
1.33839
1.33349
1.3285
1.32347
1.31872
1.31436
1.3143
1.31529
1.31908
1.32953
1.35448
1.41064
1.53018
1.77523
2.26441
2.77998
3.33865
3.98329
4.60961
4.90917
4.92048
4.89304
4.8258
4.73043
4.67155
4.62698
4.58773
4.54591
4.50131
4.45302
4.4008
4.34396
4.28428
4.22275
4.16006
4.09683
4.03341
3.9704
3.90753
3.84505
3.78259
3.72047
3.65878
3.59806
3.53814
3.47918
3.42102
3.36411
3.30804
3.25303
3.1987
3.14552
3.09307
3.04177
2.99115
2.94166
2.89278
2.84505
2.7979
2.75195
2.70652
2.66233
2.61863
2.57621
2.53438
2.49403
2.45547
2.4198
2.39564
5.29276
4.24836
3.40502
2.76881
2.30521
1.96803
1.72334
1.54796
1.42513
1.34789
1.30679
1.30593
1.30924
1.31871
1.33833
1.35727
1.37039
1.37837
1.37831
1.3776
1.37574
1.37199
1.36846
1.36538
1.36245
1.35952
1.35621
1.35257
1.34851
1.34415
1.33963
1.33503
1.33041
1.32576
1.32136
1.31717
1.31609
1.31683
1.31982
1.32835
1.34916
1.39673
1.49922
1.71059
2.13558
2.59823
2.86841
3.08211
3.3446
3.68515
4.11471
4.50558
4.74052
4.80362
4.78622
4.74298
4.6544
4.57914
4.51905
4.46179
4.40873
4.35898
4.30875
4.2568
4.20189
4.14346
4.08204
4.01916
3.95611
3.89305
3.83076
3.76893
3.70843
3.64831
3.58911
3.53027
3.47228
3.41468
3.35814
3.3022
3.24742
3.19327
3.1403
3.08799
3.03689
2.98642
2.93716
2.88843
2.84095
2.79391
2.74817
2.70282
2.65883
2.61516
2.57293
2.53107
2.49076
2.45215
2.4157
2.39065
5.48035
4.57339
3.78771
3.15359
2.66009
2.2819
1.99426
1.7772
1.61485
1.49729
1.41262
1.35755
1.32859
1.32579
1.32813
1.33509
1.34967
1.36533
1.37691
1.38306
1.38283
1.38172
1.37913
1.3739
1.36851
1.36377
1.35976
1.35613
1.35242
1.3482
1.34352
1.33859
1.33348
1.32864
1.32408
1.32215
1.32272
1.32526
1.33279
1.35153
1.39475
1.48892
1.68567
2.08321
2.57175
2.83666
2.93988
3.0016
3.08533
3.21025
3.38226
3.62074
3.97504
4.34439
4.5989
4.70751
4.69384
4.65091
4.56498
4.46922
4.39142
4.32323
4.26635
4.21853
4.17174
4.12191
4.06737
4.00772
3.9441
3.87926
3.81566
3.7534
3.6931
3.63387
3.57598
3.51854
3.46196
3.40553
3.34993
3.29462
3.24034
3.1865
3.13382
3.08169
3.03081
2.98049
2.93145
2.8829
2.83564
2.78876
2.74323
2.69799
2.65421
2.61059
2.56852
2.52677
2.48644
2.44777
2.41104
2.38509
5.61034
4.82062
4.10159
3.48925
2.98775
2.58518
2.26588
2.01363
1.81542
1.66075
1.53995
1.4515
1.38599
1.34681
1.32639
1.32644
1.32835
1.33373
1.34482
1.35582
1.36368
1.36758
1.36728
1.36614
1.36361
1.35909
1.35428
1.34971
1.34561
1.34199
1.33838
1.33452
1.33038
1.32627
1.32372
1.32414
1.32631
1.33299
1.34984
1.38921
1.47596
1.65853
2.02966
2.55392
2.85307
2.95249
2.97542
2.98225
2.985
2.99725
3.03579
3.12107
3.27416
3.50419
3.84095
4.21312
4.48526
4.6155
4.60092
4.55325
4.45393
4.34079
4.25262
4.1815
4.12282
4.07533
4.03173
3.98651
3.93103
3.87042
3.80835
3.74503
3.68262
3.62159
3.56276
3.5051
3.44887
3.39316
3.33851
3.28413
3.23074
3.17766
3.12565
3.07402
3.02356
2.97353
2.92476
2.87641
2.82939
2.78268
2.73744
2.69232
2.6488
2.60538
2.56348
2.52192
2.48168
2.44305
2.40628
2.37969
5.70268
5.00932
4.35613
3.77622
3.28135
2.86862
2.52958
2.25295
2.02811
1.84657
1.70103
1.58594
1.49581
1.42851
1.37872
1.34937
1.33296
1.33213
1.33357
1.33772
1.34649
1.35604
1.36349
1.36757
1.36725
1.36595
1.36296
1.35699
1.35096
1.34539
1.34037
1.33609
1.33212
1.33016
1.33061
1.33257
1.33883
1.35438
1.39102
1.47254
1.64483
1.99716
2.54416
2.87451
2.98789
3.00616
3.00097
2.98103
2.93785
2.89687
2.88475
2.89392
2.93059
3.01331
3.15947
3.38343
3.7107
4.08701
4.37262
4.52532
4.50852
4.45435
4.35391
4.22
4.10883
4.02252
3.96359
3.91805
3.88058
3.83917
3.79009
3.73481
3.67625
3.61583
3.55567
3.49593
3.43803
3.38128
3.32624
3.27198
3.21912
3.16677
3.11557
3.06469
3.01491
2.9654
2.91705
2.86901
2.82225
2.77575
2.73069
2.68577
2.64243
2.59923
2.55749
2.51604
2.47605
2.43749
2.40077
2.37371
5.77087
5.15486
4.56113
4.01765
3.53867
3.1264
2.77762
2.48516
2.24153
2.03936
1.8722
1.7345
1.62189
1.53128
1.45957
1.40518
1.36561
1.34302
1.33058
1.32976
1.33076
1.33367
1.33993
1.34621
1.35091
1.35173
1.35144
1.35035
1.34786
1.34289
1.33769
1.33302
1.32958
1.32987
1.33154
1.33709
1.35154
1.38547
1.4617
1.62301
1.95383
2.52079
2.89594
3.02568
3.0492
3.0429
3.01751
2.9656
2.90601
2.85044
2.80946
2.78141
2.77807
2.78765
2.82353
2.90369
3.04416
3.25817
3.57348
3.95281
4.25339
4.41891
4.40144
4.34596
4.23771
4.10127
3.98145
3.88636
3.82187
3.77373
3.73467
3.69495
3.65043
3.59911
3.5439
3.48662
3.42922
3.37163
3.31543
3.26027
3.2069
3.1544
3.10344
3.05302
3.00389
2.95505
2.90739
2.85994
2.81371
2.76765
2.72296
2.67839
2.6353
2.59236
2.55087
2.5096
2.46983
2.43141
2.3948
2.36741
5.82374
5.26992
4.72786
4.22051
3.76206
3.3574
3.00649
2.7054
2.44896
2.23156
2.04775
1.89291
1.76283
1.65426
1.56461
1.49171
1.43431
1.39033
1.35809
1.33948
1.32891
1.32765
1.32841
1.33072
1.33576
1.34135
1.3467
1.3467
1.34627
1.34494
1.34214
1.33756
1.33666
1.33786
1.34206
1.35531
1.38651
1.45728
1.60934
1.91973
2.50576
2.91529
3.06452
3.09404
3.08779
3.06205
3.00925
2.94585
2.88406
2.82634
2.77456
2.7301
2.69784
2.67379
2.67351
2.68269
2.71584
2.79035
2.92404
3.12597
3.42701
3.80308
4.12492
4.30389
4.28607
4.23032
4.12484
3.98021
3.8575
3.76221
3.69172
3.63837
3.59517
3.55484
3.51225
3.46501
3.41385
3.36014
3.30594
3.2513
3.19746
3.14412
3.09242
3.04151
2.99223
2.94352
2.89624
2.84928
2.80362
2.75817
2.71399
2.66996
2.62727
2.5847
2.54353
2.50252
2.46299
2.42469
2.38823
2.36052
5.86518
5.36214
4.86521
4.39222
3.95629
3.56351
3.21577
2.91141
2.64722
2.41909
2.22275
2.05422
1.90985
1.78653
1.68168
1.59313
1.51929
1.45866
1.41076
1.37395
1.34731
1.33171
1.32307
1.32171
1.32223
1.3238
1.32732
1.33124
1.33439
1.33602
1.3362
1.33657
1.33798
1.34247
1.3544
1.38347
1.44977
1.59213
1.88408
2.46819
2.93811
3.1036
3.13968
3.13389
3.10953
3.05871
2.99215
2.92659
2.86541
2.80816
2.7549
2.70515
2.66037
2.62076
2.5915
2.56889
2.56805
2.57614
2.60566
2.6733
2.79954
2.98699
3.27115
3.63991
3.96141
4.1717
4.1547
4.10271
4.01097
3.8644
3.73902
3.6416
3.56689
3.50924
3.4621
3.41976
3.37812
3.33365
3.28651
3.23652
3.18565
3.13382
3.08252
3.03128
2.98147
2.93225
2.88469
2.83768
2.79221
2.74714
2.70345
2.66
2.61785
2.57581
2.53512
2.49453
2.45535
2.41727
2.38104
2.35308
5.89989
5.43843
4.97993
4.53875
4.1257
3.74708
3.40598
3.10218
2.83411
2.59883
2.39329
2.2141
2.05827
1.92293
1.80571
1.70452
1.61771
1.54392
1.48211
1.43127
1.39113
1.36028
1.3381
1.32481
1.31741
1.31621
1.31669
1.31824
1.3216
1.3263
1.33034
1.33406
1.34087
1.355
1.38507
1.44993
1.58653
1.86707
2.43419
2.95658
3.14759
3.18965
3.18457
3.16138
3.11148
3.04238
2.97397
2.90949
2.84949
2.79285
2.73944
2.68843
2.64029
2.59469
2.55294
2.51534
2.48651
2.46441
2.4612
2.46812
2.49412
2.55451
2.67093
2.84331
3.10435
3.46102
3.79348
4.0324
4.01726
3.9729
3.89341
3.75157
3.62383
3.52459
3.44789
3.38629
3.33552
3.29114
3.2493
3.20643
3.16239
3.1161
3.06877
3.01996
2.97132
2.92237
2.87458
2.82717
2.78133
2.73605
2.69233
2.64907
2.60723
2.56564
2.52541
2.48531
2.44659
2.40886
2.37297
2.34489
5.93161
5.50297
5.07866
4.66625
4.27521
3.9116
3.57904
3.27843
3.00933
2.76975
2.55766
2.37029
2.20531
2.06014
1.93271
1.82102
1.72344
1.63862
1.56538
1.50283
1.45026
1.40703
1.37266
1.34655
1.32801
1.31673
1.31043
1.31048
1.31137
1.31372
1.31903
1.32909
1.34432
1.3751
1.4388
1.57008
1.83772
2.38023
2.96271
3.18845
3.23789
3.23448
3.21331
3.16632
3.09632
3.02466
2.9572
2.89385
2.83463
2.77842
2.72513
2.67384
2.6247
2.57701
2.53151
2.48806
2.44779
2.41162
2.38244
2.36071
2.35449
2.36033
2.38274
2.43521
2.53855
2.69675
2.93351
3.2721
3.61968
3.88759
3.87627
3.84077
3.77266
3.63891
3.5096
3.41017
3.33253
3.26832
3.21515
3.16824
3.12586
3.08421
3.04254
2.99908
2.95501
2.90918
2.86328
2.81682
2.77127
2.72585
2.68187
2.63836
2.59639
2.55483
2.51476
2.47491
2.43661
2.39915
2.36375
2.33569
5.96556
5.56338
5.16694
4.77953
4.40841
4.05947
3.73639
3.44054
3.17235
2.93077
2.7143
2.52098
2.34878
2.19578
2.05988
1.93957
1.83299
1.73913
1.65646
1.58438
1.52178
1.46827
1.42322
1.38614
1.35686
1.33453
1.31946
1.31005
1.3104
1.31255
1.31867
1.33236
1.36131
1.42138
1.54517
1.7968
2.30454
2.94036
3.21192
3.27765
3.27529
3.25827
3.2177
3.14797
3.07452
3.00433
2.93897
2.87743
2.81949
2.76401
2.71104
2.65967
2.61011
2.56171
2.51496
2.46926
2.4256
2.38376
2.3447
2.30972
2.27992
2.25837
2.24914
2.25372
2.27185
2.31631
2.40593
2.54921
2.76263
3.07945
3.43323
3.73
3.73215
3.70751
3.64773
3.52648
3.39853
3.2991
3.22082
3.15627
3.10109
3.05176
3.0085
2.96748
2.92729
2.88614
2.84461
2.80166
2.75858
2.71468
2.6715
2.62825
2.58623
2.5445
2.50426
2.46432
2.42607
2.38859
2.35355
2.32542
6.00931
5.62289
5.24731
4.88055
4.52801
4.19301
3.8795
3.58954
3.32368
3.08166
2.86267
2.66519
2.48758
2.32835
2.18561
2.05812
1.94404
1.84263
1.75204
1.67209
1.6011
1.53917
1.4851
1.43879
1.40004
1.36745
1.34392
1.3234
1.32242
1.32505
1.33377
1.35678
1.40816
1.51762
1.7451
2.20379
2.87088
3.20688
3.30083
3.30392
3.29119
3.25845
3.19117
3.11502
3.0441
2.9784
2.91715
2.85869
2.80274
2.74841
2.69599
2.64476
2.59514
2.54649
2.49925
2.45286
2.40802
2.36406
2.3221
2.28167
2.24383
2.2098
2.17956
2.15817
2.14604
2.14933
2.1631
2.19945
2.27518
2.40365
2.59628
2.88555
3.2398
3.55494
3.59026
3.57064
3.51824
3.4109
3.2904
3.19165
3.11382
3.04883
2.99192
2.94152
2.89726
2.85615
2.81682
2.7773
2.73794
2.6976
2.65718
2.61589
2.57519
2.53414
2.49418
2.4542
2.41591
2.37813
2.34318
2.31465
6.06681
5.68288
5.32232
4.97367
4.6362
4.31403
4.01014
3.72634
3.46418
3.22307
3.00293
2.80274
2.62132
2.45715
2.30908
2.17565
2.05533
1.94757
1.85024
1.76367
1.68562
1.61662
1.55508
1.50106
1.45434
1.41335
1.38225
1.35338
1.35344
1.35802
1.37345
1.41484
1.50833
1.70737
2.11477
2.77258
3.1836
3.30897
3.32397
3.31254
3.28095
3.21549
3.14001
3.07038
3.00726
2.94807
2.89162
2.83647
2.78274
2.72988
2.6784
2.62776
2.57853
2.53004
2.48283
2.43632
2.39107
2.34653
2.30349
2.26124
2.22096
2.18196
2.14559
2.11236
2.08248
2.06106
2.04602
2.04815
2.05813
2.08677
2.14811
2.26219
2.43688
2.69424
3.04461
3.36594
3.44802
3.43064
3.38538
3.29268
3.18626
3.08818
3.01024
2.94421
2.8878
2.83731
2.79192
2.75015
2.71122
2.67286
2.63538
2.5972
2.55934
2.52057
2.48228
2.44338
2.4057
2.368
2.33323
2.30413
6.14586
5.74954
5.39407
5.05768
4.7345
4.4244
4.12997
3.85297
3.59465
3.35569
3.13565
2.93362
2.74979
2.58179
2.42943
2.29132
2.16566
2.05266
1.94959
1.85727
1.77331
1.69814
1.6304
1.56994
1.51632
1.46963
1.43056
1.40359
1.40536
1.41585
1.44773
1.52611
1.69837
2.05382
2.70764
3.16705
3.32404
3.3433
3.33127
3.29782
3.22847
3.15172
3.08403
3.02343
2.9675
2.91358
2.86097
2.80875
2.75736
2.70639
2.65645
2.60707
2.55878
2.51098
2.46429
2.41806
2.37295
2.32842
2.28514
2.24253
2.20142
2.16109
2.12264
2.08532
2.05059
2.01815
1.98935
1.96714
1.95009
1.9502
1.95621
1.97801
2.02888
2.12647
2.28315
2.50969
2.85047
3.16737
3.30336
3.28824
3.24974
3.17872
3.08512
2.98821
2.90882
2.84351
2.78866
2.73797
2.6919
2.64936
2.61061
2.57318
2.53717
2.50075
2.46521
2.42864
2.39283
2.35642
2.32256
2.29359
6.24832
5.82977
5.46788
5.13926
4.8268
4.52705
4.24135
3.97108
3.71734
3.48027
3.26154
3.05866
2.87295
2.70268
2.54652
2.40485
2.27475
2.15707
2.04943
1.95175
1.86304
1.78225
1.70938
1.64341
1.58419
1.53387
1.48915
1.4773
1.48331
1.50725
1.57391
1.72616
2.0443
2.68074
3.16977
3.36079
3.38255
3.37099
3.33115
3.24801
3.16384
3.0922
3.03217
2.9766
2.92457
2.87373
2.82388
2.77425
2.72532
2.67662
2.62875
2.58116
2.5344
2.48787
2.44219
2.39677
2.35232
2.30829
2.26538
2.22303
2.18197
2.14153
2.10257
2.06434
2.02779
1.99231
1.9591
1.92759
1.8999
1.87634
1.85894
1.85438
1.85874
1.87547
1.91637
1.99726
2.13434
2.33579
2.65655
2.96121
3.15308
3.14308
3.11549
3.06892
2.98109
2.88921
2.81062
2.74746
2.69309
2.64271
2.59669
2.55387
2.51522
2.47834
2.44344
2.4084
2.3749
2.34058
2.30861
2.28095
6.33304
5.92189
5.54982
5.22106
4.91543
4.6246
4.34659
4.08216
3.8327
3.5984
3.38057
3.17835
2.99118
2.81931
2.66071
2.51557
2.38242
2.26034
2.14894
2.04665
1.95355
1.86817
1.79068
1.72002
1.65785
1.60306
1.56999
1.57329
1.59185
1.64876
1.78741
2.0848
2.69008
3.22139
3.43824
3.45354
3.43956
3.38931
3.28934
3.20131
3.12238
3.05211
2.98933
2.9325
2.88123
2.83113
2.78263
2.73465
2.68759
2.64091
2.59506
2.54939
2.50443
2.45955
2.41534
2.37126
2.32801
2.285
2.243
2.20142
2.16096
2.12102
2.08234
2.04417
2.00741
1.97125
1.93657
1.90289
1.87101
1.84071
1.81376
1.78949
1.772
1.76326
1.76622
1.77845
1.81002
1.87584
1.99179
2.17539
2.46158
2.75727
2.99175
3.00589
2.98908
2.9501
2.87362
2.79284
2.71854
2.65496
2.60048
2.55134
2.50604
2.46337
2.42474
2.38813
2.3542
2.3206
2.29006
2.26433
6.32629
6.05832
5.65725
5.31074
5.00348
4.71727
4.44479
4.1857
3.94135
3.71005
3.49412
3.2926
3.10534
2.932
2.77178
2.62401
2.48789
2.36267
2.24739
2.14158
2.04427
1.95505
1.87372
1.79945
1.73711
1.68279
1.68371
1.69774
1.74475
1.87295
2.1554
2.74058
3.32724
3.56528
3.57156
3.55261
3.48822
3.37489
3.27146
3.1827
3.10442
3.03362
2.96792
2.90609
2.84839
2.79426
2.74427
2.69549
2.6485
2.60244
2.55757
2.51314
2.46959
2.42622
2.38359
2.34108
2.29933
2.25775
2.21707
2.17666
2.13727
2.09826
2.06035
2.02283
1.98651
1.95055
1.91591
1.8817
1.84886
1.81686
1.78634
1.75742
1.73099
1.70705
1.68926
1.67684
1.6786
1.68704
1.71063
1.76207
1.8585
2.02703
2.26771
2.56304
2.8211
2.87407
2.86246
2.82975
2.76774
2.69852
2.62877
2.56398
2.511
2.46339
2.41943
2.37719
2.33894
2.30284
2.27109
2.24512
6.28056
6.11738
5.77539
5.41028
5.09326
4.80758
4.54016
4.28603
4.04478
3.817
3.60269
3.40261
3.2155
3.04158
2.87994
2.73022
2.59167
2.4635
2.34524
2.23587
2.13528
2.04264
1.95821
1.88435
1.82132
1.80494
1.81591
1.85932
1.9806
2.25566
2.83039
3.479
3.74267
3.73979
3.71369
3.63621
3.49636
3.37166
3.2676
3.17828
3.09949
3.02793
2.9595
2.89434
2.83205
2.77213
2.71623
2.6633
2.61398
2.56635
2.52065
2.476
2.43274
2.39006
2.34842
2.30711
2.26671
2.22655
2.18728
2.14828
2.11023
2.07244
2.03566
1.99916
1.96368
1.92848
1.89439
1.86054
1.82792
1.79559
1.76458
1.73421
1.70519
1.67762
1.65184
1.62879
1.61016
1.59571
1.59544
1.60019
1.61706
1.65772
1.73756
1.88645
2.08279
2.37479
2.63861
2.74138
2.73278
2.70792
2.66849
2.60273
2.53824
2.47705
2.42545
2.37875
2.33663
2.29559
2.25991
2.22969
6.17709
6.09949
5.8949
5.52351
5.19016
4.89848
4.63177
4.38126
4.14426
3.9199
3.70863
3.50888
3.32228
3.14786
2.98533
2.83399
2.69337
2.56287
2.44174
2.32969
2.22608
2.13106
2.04678
1.97389
1.94234
1.95108
1.99069
2.10648
2.37573
2.94359
3.66746
3.95743
3.95247
3.91767
3.82286
3.66125
3.51357
3.38919
3.28361
3.19046
3.10677
3.02913
2.95772
2.89082
2.82525
2.76187
2.70104
2.64256
2.58821
2.53694
2.48868
2.44225
2.39784
2.35452
2.31274
2.27169
2.2319
2.19261
2.15442
2.11661
2.07982
2.04333
2.00782
1.97253
1.9382
1.90406
1.87089
1.83788
1.80592
1.77411
1.74344
1.71298
1.68378
1.65502
1.62762
1.60132
1.57657
1.5544
1.53498
1.52042
1.51564
1.51888
1.53143
1.56285
1.62655
1.75116
1.91502
2.18726
2.45054
2.59728
2.60898
2.59586
2.56548
2.50591
2.44944
2.39411
2.34314
2.29778
2.26023
2.2244
6.04378
6.02886
5.91514
5.65585
5.30338
4.9958
4.72429
4.47469
4.24061
4.01907
3.80923
3.61231
3.42619
3.25179
3.0884
2.93577
2.79335
2.66064
2.53721
2.42277
2.31713
2.22255
2.14022
2.09443
2.10118
2.13746
2.24767
2.513
3.07838
3.8871
4.20721
4.20066
4.15808
4.04377
3.86079
3.69163
3.54917
3.42647
3.31825
3.2198
3.12955
3.04519
2.96677
2.89253
2.82348
2.75845
2.69428
2.63268
2.57379
2.51726
2.46468
2.41519
2.36823
2.32298
2.27984
2.23791
2.19767
2.15832
2.12043
2.08319
2.04722
2.0117
1.97727
1.94313
1.90998
1.877
1.84494
1.813
1.78199
1.75106
1.72113
1.69128
1.66252
1.63392
1.60649
1.57941
1.55364
1.52863
1.50521
1.48369
1.46436
1.44979
1.44101
1.44309
1.45207
1.47553
1.52551
1.62338
1.7695
2.00039
2.26344
2.44416
2.49073
2.48182
2.45737
2.41514
2.36381
2.31275
2.26867
2.22753
5.68728
5.92624
5.87894
5.72853
5.41903
5.09839
4.81885
4.56793
4.33553
4.11666
3.9086
3.71245
3.52755
3.3532
3.18934
3.03558
2.89159
2.75705
2.6318
2.51565
2.41091
2.31946
2.25995
2.26512
2.29895
2.4067
2.67436
3.2469
4.14355
4.491
4.48255
4.43124
4.29554
4.08919
3.89912
3.73782
3.59936
3.47578
3.36345
3.2591
3.16216
3.07101
2.98589
2.90544
2.83026
2.75874
2.6923
2.6292
2.56727
2.50764
2.45086
2.39657
2.34595
2.29791
2.25245
2.20856
2.16683
2.1264
2.08786
2.05034
2.01442
1.97924
1.94538
1.91199
1.87973
1.84773
1.81672
1.78584
1.75587
1.72597
1.69698
1.66803
1.64005
1.61212
1.58523
1.55847
1.53281
1.50745
1.48327
1.45967
1.43757
1.4167
1.39803
1.38306
1.37145
1.37239
1.37819
1.39425
1.43292
1.50921
1.64013
1.82092
2.0806
2.28641
2.36951
2.36889
2.35599
2.32694
2.28398
2.24077
4.86132
5.7121
5.78082
5.71341
5.53816
5.21475
4.92112
4.66408
4.43063
4.21266
4.00713
3.81168
3.62689
3.45246
3.28796
3.13319
2.98797
2.8521
2.72595
2.6107
2.51101
2.43815
2.44189
2.47407
2.58119
2.85628
3.4434
4.42469
4.80578
4.79485
4.73342
4.57359
4.34335
4.13102
3.95153
3.79659
3.6589
3.5325
3.4154
3.30529
3.20224
3.1049
3.01373
2.92742
2.84648
2.76963
2.69766
2.62904
2.56529
2.50396
2.44449
2.38694
2.33225
2.28031
2.23183
2.18526
2.1413
2.09901
2.059
2.02035
1.98366
1.948
1.91399
1.8807
1.84879
1.81732
1.787
1.75692
1.72785
1.69889
1.67085
1.64288
1.61581
1.58879
1.56271
1.53669
1.51166
1.48672
1.46282
1.43914
1.4165
1.39434
1.37343
1.35341
1.33552
1.31988
1.30781
1.30511
1.30832
1.3201
1.34911
1.40962
1.5175
1.66018
1.90068
2.12363
2.23808
2.26637
2.26036
2.24432
3.20522
5.19281
5.65748
5.64779
5.55855
5.35035
5.04296
4.76941
4.52835
4.30818
4.10236
3.90774
3.72318
3.54871
3.38389
3.22867
3.08273
2.94685
2.82145
2.71409
2.62836
2.63086
2.66234
2.76922
3.0484
3.64099
4.7237
5.1473
5.135
5.06251
4.87631
4.61977
4.38604
4.18729
4.01645
3.86369
3.72409
3.59362
3.47146
3.35587
3.24727
3.14436
3.04773
2.95604
2.86986
2.78793
2.71093
2.63765
2.56894
2.50344
2.44243
2.38285
2.32572
2.27039
2.21809
2.16841
2.1219
2.07731
2.03529
1.99488
1.95675
1.91992
1.88505
1.85118
1.81894
1.7874
1.75723
1.72749
1.69892
1.67061
1.64332
1.61618
1.58998
1.56387
1.53868
1.51355
1.48933
1.46516
1.44193
1.41874
1.39652
1.37441
1.35326
1.33246
1.3127
1.29371
1.27643
1.26067
1.2488
1.2419
1.24396
1.25237
1.27327
1.31952
1.40193
1.52711
1.72855
1.95396
2.1047
2.17778
2.27478
4.02176
5.33345
5.55692
5.52661
5.41403
5.17283
4.88426
4.62986
4.40378
4.19609
4.00145
3.81748
3.6432
3.4782
3.32251
3.17747
3.04275
2.92732
2.83029
2.83219
2.86455
2.97354
3.26667
3.89397
5.06658
5.52231
5.50859
5.42039
5.20227
4.91856
4.66221
4.44491
4.25694
4.08947
3.9354
3.79213
3.6569
3.52962
3.40884
3.2951
3.18715
3.08556
2.98902
2.89812
2.81158
2.7301
2.65247
2.5794
2.50977
2.44426
2.38186
2.32344
2.26581
2.21098
2.15807
2.10864
2.06153
2.01724
1.97475
1.93476
1.89629
1.86002
1.82497
1.79182
1.75959
1.72898
1.69902
1.67045
1.64233
1.61539
1.58876
1.56318
1.53779
1.51337
1.48908
1.46569
1.44237
1.41994
1.39752
1.37598
1.35442
1.33377
1.31313
1.29342
1.27389
1.25532
1.23739
1.22072
1.20548
1.19339
1.18378
1.18482
1.19042
1.20421
1.23862
1.30287
1.41596
1.56135
1.84725
1.66858
2.59475
4.57267
5.35183
5.45015
5.40066
5.26903
5.00265
4.73661
4.50198
4.29063
4.09485
3.91079
3.73672
3.57228
3.41808
3.27419
3.15053
3.04458
3.04539
3.07802
3.19081
3.502
4.17128
5.45225
5.93629
5.91877
5.80867
5.55222
5.23873