/*--------------------------------*- C++ -*----------------------------------*\
  =========                 |
  \\      /  F ield         | OpenFOAM: The Open Source CFD Toolbox
   \\    /   O peration     | Website:  https://openfoam.org
    \\  /    A nd           | Version:  9
     \\/     M anipulation  |
\*---------------------------------------------------------------------------*/
FoamFile
{
    format      ascii;
    class       surfaceScalarField;
    location    "2";
    object      phi;
}
// * * * * * * * * * * * * * * * * * * * * * * * * * * * * * * * * * * * * * //

dimensions      [1 0 -1 0 0 0 0];

internalField   nonuniform List<scalar> 
10325
(
0.00840002
8.15337e-11
0.00840003
4.27697e-11
0.00840003
1.53583e-09
0.0084
5.51119e-10
0.00840001
1.0807e-08
0.00839997
5.00489e-09
0.00839964
6.56125e-08
0.00840018
4.1502e-08
0.0083978
3.5038e-07
0.00840007
4.41705e-07
0.0083949
1.7435e-06
0.00838956
3.83301e-06
0.00837495
1.27557e-05
0.00832513
4.23967e-05
0.00809271
0.000199774
0.00741673
0.000644668
0.00675094
0.000661388
0.00608922
0.00066297
0.00540081
0.000690745
0.00466188
0.000738759
0.00385633
0.000802363
0.00298823
0.000868686
0.00205774
0.000928909
0.00106148
0.000991351
0.00105433
0.00840003
7.09014e-11
0.00840001
4.75659e-10
0.00840007
1.53237e-09
0.00839992
4.63136e-09
0.00840026
1.16087e-08
0.00839946
3.07833e-08
0.00840122
7.24e-08
0.00839718
1.94692e-07
0.00840452
4.53487e-07
0.00838989
1.21309e-06
0.00840928
3.00072e-06
0.0083749
8.35869e-06
0.00838579
2.48947e-05
0.00832106
8.55602e-05
0.00809888
0.000393626
0.00742373
0.00128802
0.00675672
0.00132374
0.00609878
0.00132229
0.00541558
0.00137649
0.0046704
0.001484
0.00385273
0.0016169
0.00297326
0.00174876
0.00202897
0.00187163
0.00102775
0.00198765
0.00207491
0.00840003
5.48024e-11
0.00840001
8.67625e-10
0.00840007
1.44568e-09
0.00839993
8.75447e-09
0.00840024
1.15502e-08
0.0083995
5.57841e-08
0.00840103
8.62516e-08
0.0083976
3.19076e-07
0.0084034
6.34374e-07
0.00839161
1.79885e-06
0.00840692
4.4326e-06
0.00837781
1.22151e-05
0.008386
3.60489e-05
0.00832786
0.000124455
0.00813072
0.000563108
0.00747314
0.00191269
0.00679215
0.00199919
0.00613401
0.00198207
0.00546127
0.00205241
0.00471912
0.00222635
0.00389697
0.00243583
0.00300967
0.00263714
0.00205175
0.00282846
0.00103637
0.0029982
0.00310416
0.00840003
2.43113e-10
0.00840004
5.10319e-10
0.0084
4.49495e-09
0.00840008
5.08572e-09
0.00839982
3.19074e-08
0.00840049
3.92086e-08
0.0083986
1.86538e-07
0.00840307
2.88444e-07
0.00839266
1.04396e-06
0.00841149
2.08288e-06
0.00837915
5.98049e-06
0.00840995
1.52214e-05
0.00836575
4.66411e-05
0.00834441
0.000156031
0.00817469
0.000699086
0.0075426
0.00251008
0.00684197
0.00269282
0.00619433
0.00263215
0.00554281
0.00270736
0.00480967
0.00296048
0.00399
0.00325324
0.00309693
0.00353098
0.00212562
0.00379724
0.00108021
0.00403818
0.00417807
0.00840003
1.22189e-10
0.00840001
1.3479e-09
0.00840008
2.92746e-09
0.00839991
1.27724e-08
0.0084003
2.37001e-08
0.00839941
7.67988e-08
0.0084014
1.72013e-07
0.0083969
4.33467e-07
0.00840574
1.1725e-06
0.0083882
2.50221e-06
0.00841288
7.36464e-06
0.00837418
1.79927e-05
0.00839493
5.47252e-05
0.00834314
0.000183462
0.00821868
0.000801059
0.0076046
0.00308693
0.00688025
0.00340728
0.00627834
0.00323805
0.00565448
0.00333573
0.00493173
0.00368412
0.00411984
0.00406165
0.00322438
0.00442656
0.00223546
0.00478438
0.00115142
0.00511679
0.00532001
0.00840002
2.68399e-10
0.00840004
9.63584e-10
0.00839998
5.28908e-09
0.00840012
9.94583e-09
0.00839982
3.73127e-08
0.00840048
7.34236e-08
0.00839903
2.1758e-07
0.00840181
4.91197e-07
0.00839542
1.25243e-06
0.00840661
3.2188e-06
0.00838471
7.82948e-06
0.00840852
2.14296e-05
0.0083697
6.24314e-05
0.00835556
0.000206922
0.00824665
0.000881355
0.0076055
0.00368789
0.00701279
0.00398441
0.00640573
0.00385443
0.00577401
0.00397453
0.00508737
0.0043701
0.00429526
0.00485092
0.00340611
0.00531474
0.00239588
0.00579445
0.00125404
0.00625602
0.00656562
0.00840003
1.4083e-10
0.00840001
1.76498e-09
0.00840005
3.76816e-09
0.00839995
1.72202e-08
0.00840021
2.93038e-08
0.00839947
1.11929e-07
0.0084013
1.90708e-07
0.0083968
6.74414e-07
0.00840712
1.2311e-06
0.00838531
3.95599e-06
0.00841822
8.48513e-06
0.00837081
2.49115e-05
0.00839906
6.90474e-05
0.00834614
0.000231226
0.00827094
0.000939937
0.00768904
0.00422161
0.00718991
0.00448196
0.00659687
0.00445286
0.00591539
0.00465905
0.00526149
0.00502505
0.00451019
0.00559746
0.00364469
0.00618057
0.00262952
0.00680975
0.00142186
0.00746083
0.00798283
0.00840003
3.1795e-10
0.00840003
1.397e-09
0.00840002
6.28464e-09
0.00840003
1.35727e-08
0.00839996
4.69382e-08
0.00840016
8.7369e-08
0.00839929
3.04759e-07
0.00840147
5.30874e-07
0.00839542
1.86813e-06
0.00840653
3.43298e-06
0.00838621
1.09369e-05
0.00840531
2.54261e-05
0.00837451
7.72221e-05
0.00836794
0.000247429
0.0083006
0.000978727
0.00784009
0.00462871
0.00727647
0.0050484
0.00673626
0.00499712
0.00613762
0.0052607
0.00550005
0.00566583
0.00480049
0.00629549
0.0039637
0.00702077
0.0029568
0.00781761
0.00169549
0.00871889
0.00967163
0.00840003
2.44935e-10
0.00840003
1.82843e-09
0.00840001
5.66404e-09
0.00840004
1.82e-08
0.0084
4.13807e-08
0.00839993
1.25055e-07
0.00840018
2.4842e-07
0.00839882
7.96459e-07
0.00840164
1.50153e-06
0.00839442
4.85288e-06
0.00840348
1.01197e-05
0.00838832
2.98558e-05
0.00838869
8.06795e-05
0.00836071
0.00026335
0.00832216
0.00100094
0.008013
0.00487826
0.00745382
0.00561377
0.00693076
0.00552651
0.00639294
0.00579974
0.00581603
0.00624308
0.00517201
0.0069362
0.00441665
0.0077757
0.00349472
0.00874
0.00216967
0.010039
0.0118346
0.00840003
3.14956e-10
0.00840002
1.75855e-09
0.00840005
6.52745e-09
0.00839999
1.71097e-08
0.00840009
4.95445e-08
0.00839988
1.10147e-07
0.00840003
3.26351e-07
0.00839986
6.65128e-07
0.00839891
2.04722e-06
0.00839977
4.16913e-06
0.00839711
1.24052e-05
0.00839329
2.93836e-05
0.00839128
8.6274e-05
0.00837279
0.000269707
0.00835942
0.000999654
0.00830687
0.00486389
0.00773787
0.00619187
0.00719442
0.00607698
0.00672298
0.00627356
0.00620079
0.00676718
0.00567304
0.00746458
0.0050867
0.00836302
0.00426017
0.00956784
0.00300711
0.0112897
0.0148333
0.00840003
2.44015e-10
0.00840003
1.92306e-09
0.00840002
5.72995e-09
0.00840005
1.90754e-08
0.00839999
4.27319e-08
0.0084
1.2977e-07
0.00840009
2.67619e-07
0.00839931
8.14398e-07
0.00840106
1.66537e-06
0.00839651
5.01458e-06
0.00840283
1.09677e-05
0.00839377
3.1448e-05
0.00839693
8.31881e-05
0.00839516
0.000263103
0.00843651
0.000944725
0.00882611
0.00440394
0.00821794
0.00681202
0.00757816
0.00672645
0.00712319
0.00673188
0.00671923
0.00717344
0.00632541
0.00785987
0.00590478
0.0087846
0.00553518
0.00993898
0.00556229
0.0112635
0.0116374
0.00875535
0.00840003
2.9761e-10
0.00840003
1.44997e-09
0.00840002
6.15427e-09
0.00840003
1.42561e-08
0.0084
4.57e-08
0.00840013
9.57239e-08
0.00839964
2.90875e-07
0.00840119
6.04676e-07
0.00839718
1.77851e-06
0.00840705
3.83627e-06
0.00838957
1.08611e-05
0.00841949
2.57837e-05
0.0083979
7.3478e-05
0.0084617
0.000216527
0.00862339
0.000755801
0.00970517
0.00325147
0.0089989
0.00752746
0.0081804
0.00755353
0.00769138
0.00722549
0.00728794
0.00757979
0.00694883
0.00820066
0.00671988
0.00901417
0.00669953
0.00996002
0.00718822
0.0107762
0.0105814
0.00824524
0.00840003
1.80936e-10
0.00840003
1.49965e-09
0.00840003
4.26507e-09
0.00840002
1.47769e-08
0.00840008
3.21388e-08
0.00839988
9.81894e-08
0.00840051
2.02659e-07
0.00839893
6.00942e-07
0.00840344
1.25249e-06
0.00839421
3.61543e-06
0.00841627
7.95717e-06
0.00838621
2.20364e-05
0.00844409
5.52351e-05
0.00845423
0.00016367
0.00868944
0.000534597
0.00971306
0.00218721
0.00943865
0.00778357
0.00902098
0.00796283
0.00833636
0.00791401
0.0079099
0.00800833
0.00763488
0.00847678
0.00753654
0.00911336
0.00774807
0.00974884
0.00830101
0.0102215
0.00994418
0.00893678
0.00840003
2.11006e-10
0.00840003
1.14168e-09
0.00840003
4.40335e-09
0.00840003
1.12821e-08
0.00840002
3.28052e-08
0.00840007
7.42748e-08
0.00839985
2.09887e-07
0.00840069
4.49734e-07
0.00839827
1.29757e-06
0.00840491
2.73445e-06
0.0083924
7.84809e-06
0.00841663
1.77965e-05
0.00839485
4.95507e-05
0.00844292
0.000136391
0.00850819
0.000442792
0.00897296
0.00170968
0.00949402
0.00720646
0.00916238
0.00828518
0.00872185
0.00835014
0.00842456
0.00830616
0.0082662
0.0086362
0.00826607
0.00911497
0.00850292
0.00951444
0.00898738
0.00973938
0.00944584
0.00948703
0.00840003
1.60839e-10
0.00840003
1.1268e-09
0.00840002
3.67226e-09
0.00840005
1.10483e-08
0.00839999
2.73379e-08
0.00840013
7.42218e-08
0.00839988
1.69839e-07
0.00840024
4.69156e-07
0.00839989
1.02292e-06
0.0084
2.90013e-06
0.0084004
6.35625e-06
0.00840215
1.77005e-05
0.00840145
4.32092e-05
0.00842077
0.000123761
0.00846427
0.00038451
0.00874685
0.00141527
0.00956551
0.00632839
0.00937977
0.00846729
0.00911559
0.00861239
0.00886656
0.00855627
0.00878678
0.00871704
0.00884674
0.00905534
0.00906126
0.0092997
0.0094541
0.00934539
0.00902727
0.00987143
0.00840003
1.66385e-10
0.00840003
9.00466e-10
0.00840003
3.50009e-09
0.00840002
8.86914e-09
0.00840004
2.62232e-08
0.00840004
5.8932e-08
0.00839998
1.6792e-07
0.00840032
3.64236e-07
0.00839921
1.03992e-06
0.0084026
2.26298e-06
0.00839557
6.36553e-06
0.00841087
1.4618e-05
0.00839501
4.01409e-05
0.00842825
0.000106271
0.00846333
0.000327913
0.00872417
0.00115133
0.0101252
0.00486319
0.00988784
0.00869761
0.00957431
0.00892241
0.00930028
0.00883297
0.00923039
0.00878888
0.00931523
0.00897291
0.00950098
0.00911587
0.00979845
0.00905064
0.00870265
0.010125
0.00840003
1.12773e-10
0.00840003
7.8726e-10
0.00840003
2.56424e-09
0.00840003
7.73744e-09
0.00840005
1.90454e-08
0.00840001
5.17252e-08
0.0084002
1.18423e-07
0.00839973
3.21139e-07
0.00840147
7.12218e-07
0.00839789
1.95778e-06
0.00840929
4.34683e-06
0.00839179
1.18595e-05
0.00843693
2.80263e-05
0.00842073
7.67735e-05
0.00856804
0.000216906
0.00897375
0.000712672
0.010996
0.00281811
0.010628
0.00903698
0.0103449
0.00920139
0.00993233
0.00924495
0.00972295
0.0090007
0.00974151
0.00895651
0.00988476
0.00897442
0.0100954
0.00883947
0.00847117
0.010326
0.00840003
9.07057e-11
0.00840003
6.44034e-10
0.00840004
2.03333e-09
0.00840002
6.31577e-09
0.00840006
1.53621e-08
0.00839999
4.11948e-08
0.00840019
9.8015e-08
0.00839991
2.49132e-07
0.00840048
6.06289e-07
0.0084002
1.47917e-06
0.0084012
3.72285e-06
0.00840277
8.97117e-06
0.00840973
2.30002e-05
0.00841956
5.88512e-05
0.0084788
0.000164874
0.00865384
0.000521564
0.00947557
0.00198015
0.0107525
0.00769972
0.0106201
0.00932606
0.0103744
0.00948585
0.0101435
0.00923506
0.010099
0.00900358
0.0101927
0.00888073
0.0103409
0.00869086
0.008317
0.0104946
0.00840003
8.60361e-11
0.00840003
4.77574e-10
0.00840003
1.84009e-09
0.00840003
4.70601e-09
0.00840002
1.36475e-08
0.00840006
3.16251e-08
0.00839996
8.52212e-08
0.00840034
1.97677e-07
0.00839947
5.12945e-07
0.00840215
1.22563e-06
0.00839688
3.08156e-06
0.00841094
7.62505e-06
0.00839037
1.9034e-05
0.00843348
4.91483e-05
0.00842215
0.000134371
0.00855914
0.00040955
0.00903466
0.00147064
0.0107721
0.0059036
0.01086
0.00923843
0.0107277
0.00961896
0.0104883
0.00947797
0.0104218
0.00907459
0.0104694
0.00883722
0.0105676
0.00859474
0.00822102
0.0106639
0.00840003
6.15351e-11
0.00840003
3.83558e-10
0.00840003
1.34174e-09
0.00840002
3.78343e-09
0.00840005
9.9703e-09
0.0084
2.51326e-08
0.00840016
6.32616e-08
0.00839991
1.53798e-07
0.00840066
3.86886e-07
0.00839961
9.30727e-07
0.00840258
2.35565e-06
0.00839988
5.66605e-06
0.00841143
1.44603e-05
0.0084106
3.5971e-05
0.0084642
9.60881e-05
0.00857183
0.000276585
0.00911876
0.000920003
0.0114121
0.00353372
0.0113837
0.00925985
0.0113059
0.00970485
0.0110709
0.00971999
0.0108212
0.00932909
0.0107576
0.0089047
0.0107906
0.00856445
0.00817493
0.0108379
0.00840003
4.45924e-11
0.00840003
2.9702e-10
0.00840003
9.93723e-10
0.00840003
2.92618e-09
0.00840005
7.46131e-09
0.00840001
1.92664e-08
0.00840013
4.7021e-08
0.00839992
1.17537e-07
0.0084006
2.86411e-07
0.00839953
7.05636e-07
0.00840293
1.73547e-06
0.00839816
4.24695e-06
0.00841328
1.05799e-05
0.00840251
2.63569e-05
0.00845653
6.82148e-05
0.00850656
0.000188983
0.00885429
0.000592504
0.0101496
0.00219896
0.0116084
0.00776533
0.0116147
0.00969811
0.0114323
0.00990386
0.0111779
0.00958561
0.0110627
0.00902149
0.0110266
0.00859985
0.00817947
0.0110224
0.00840003
3.49554e-11
0.00840003
2.25887e-10
0.00840003
7.57599e-10
0.00840003
2.2224e-09
0.00840004
5.66023e-09
0.00840001
1.45861e-08
0.0084001
3.61036e-08
0.00839995
8.87565e-08
0.00840042
2.23463e-07
0.00839969
5.31173e-07
0.00840198
1.36847e-06
0.00839879
3.20977e-06
0.00840861
8.38922e-06
0.00840059
2.00021e-05
0.00843565
5.2878e-05
0.0084538
0.000140163
0.00864125
0.000423924
0.00931816
0.00149282
0.0115666
0.00546318
0.0118216
0.00943289
0.0118249
0.00989412
0.0116249
0.00978347
0.0113853
0.00926223
0.0112843
0.0087013
0.00823172
0.0112322
0.00840003
2.39846e-11
0.00840003
1.6341e-10
0.00840003
5.41489e-10
0.00840003
1.60897e-09
0.00840003
4.03521e-09
0.00840004
1.065e-08
0.00840004
2.52101e-08
0.00840005
6.49324e-08
0.00840019
1.52356e-07
0.0084
3.88914e-07
0.00840139
9.18132e-07
0.0083994
2.31278e-06
0.00840939
5.56448e-06
0.00839886
1.3943e-05
0.00844481
3.46446e-05
0.00845474
9.03416e-05
0.00865812
0.000253066
0.00930697
0.000811129
0.0118355
0.00291529
0.0123394
0.00889575
0.0123122
0.0099114
0.01207
0.0100193
0.0117267
0.00960571
0.0115614
0.00886798
0.0083472
0.0114475
0.00840003
1.8546e-11
0.00840003
1.12299e-10
0.00840003
4.07622e-10
0.00840003
1.10602e-09
0.00840003
3.01013e-09
0.00840005
7.40855e-09
0.00840002
1.85719e-08
0.00840011
4.61466e-08
0.0084
1.10068e-07
0.00840035
2.81803e-07
0.00840024
6.49134e-07
0.0084009
1.71006e-06
0.00840283
3.86676e-06
0.00840422
1.03143e-05
0.00841736
2.40118e-05
0.00843917
6.41051e-05
0.00851965
0.000169399
0.00880156
0.000520856
0.0098329
0.00186614
0.0121731
0.00649324
0.0124567
0.00961642
0.0124518
0.0100146
0.0121328
0.00992175
0.0118738
0.00913022
0.00852918
0.0116932
0.00840003
1.30169e-11
0.00840003
7.99963e-11
0.00840003
2.82055e-10
0.00840003
7.86542e-10
0.00840003
2.10872e-09
0.00840003
5.14157e-09
0.00840005
1.32992e-08
0.00840004
3.10458e-08
0.00840009
8.09364e-08
0.00840016
1.84989e-07
0.00840015
4.86078e-07
0.00840136
1.10705e-06
0.00839992
2.90762e-06
0.00840905
6.71628e-06
0.00840282
1.74744e-05
0.00844303
4.24126e-05
0.00847196
0.000113329
0.00868741
0.000320384
0.00946136
0.00106276
0.0121565
0.00372947
0.012719
0.00903472
0.0127996
0.00993277
0.0126589
0.0100604
0.0122475
0.00954589
0.0087988
0.0119826
0.00840003
8.1774e-12
0.00840003
5.81242e-11
0.00840003
1.85444e-10
0.00840003
5.71533e-10
0.00840003
1.38011e-09
0.00840003
3.74937e-09
0.00840004
8.63587e-09
0.00840003
2.27122e-08
0.00840012
5.23086e-08
0.00839997
1.34371e-07
0.00840067
3.16491e-07
0.00839964
7.90774e-07
0.00840384
1.91286e-06
0.00839854
4.67346e-06
0.00841937
1.16448e-05
0.00840481
2.84405e-05
0.00848336
7.34859e-05
0.00855237
0.000198526
0.0090426
0.000607184
0.0105875
0.00213588
0.0127062
0.00687354
0.012933
0.00970193
0.0130028
0.00998904
0.0126265
0.0099241
0.00911206
0.0123226
0.00840003
6.13951e-12
0.00840003
3.67476e-11
0.00840003
1.34269e-10
0.00840003
3.62431e-10
0.00840003
9.93149e-10
0.00840003
2.41305e-09
0.00840003
6.13458e-09
0.00840006
1.48357e-08
0.00840002
3.63594e-08
0.00840019
8.99623e-08
0.00840001
2.13862e-07
0.00840079
5.4252e-07
0.00840038
1.25994e-06
0.0084031
3.26714e-06
0.00840451
7.5296e-06
0.00841624
1.97049e-05
0.00843426
4.73138e-05
0.00851298
0.000127253
0.00874131
0.000360519
0.0096615
0.00120571
0.0124317
0.00403382
0.0131249
0.0089896
0.013246
0.00986888
0.0131092
0.0100625
0.00952037
0.0127055
0.00840003
4.11291e-12
0.00840003
2.47447e-11
0.00840003
8.86208e-11
0.00840003
2.43145e-10
0.00840003
6.56394e-10
0.00840003
1.59202e-09
0.00840004
4.10504e-09
0.00840003
9.62161e-09
0.00840005
2.47381e-08
0.00840008
5.7124e-08
0.0084001
1.47197e-07
0.00840047
3.39949e-07
0.00840013
8.70292e-07
0.00840328
2.03356e-06
0.00840027
5.147e-06
0.00841922
1.23114e-05
0.00841218
3.10854e-05
0.00849152
7.81231e-05
0.0086002
0.000213111
0.00917341
0.000647965
0.0109593
0.00221424
0.0131192
0.0067815
0.013314
0.00966852
0.0134852
0.00988835
0.00986632
0.0131419
0.00840003
2.47634e-12
0.00840003
1.67682e-11
0.00840003
5.53682e-11
0.00840003
1.65101e-10
0.00840003
4.12416e-10
0.00840003
1.07972e-09
0.00840003
2.58013e-09
0.00840003
6.48103e-09
0.00840006
1.55979e-08
0.00840002
3.82558e-08
0.00840022
9.31824e-08
0.0084
2.24865e-07
0.00840104
5.57423e-07
0.00840012
1.3219e-06
0.00840521
3.32551e-06
0.00840232
7.86332e-06
0.00842583
2.00205e-05
0.00843191
4.8753e-05
0.0085425
0.000129026
0.00878833
0.000364033
0.00980529
0.00119918
0.012643
0.00386901
0.0135157
0.00877618
0.0136567
0.00974817
0.0100124
0.0135124
0.00840003
1.59547e-12
0.00840003
1.07415e-11
0.00840003
3.59864e-11
0.00840003
1.05522e-10
0.00840003
2.66843e-10
0.00840003
6.9385e-10
0.00840003
1.65063e-09
0.00840003
4.21861e-09
0.00840004
9.83663e-09
0.00840004
2.50143e-08
0.00840011
5.84862e-08
0.00840005
1.47479e-07
0.00840066
3.47544e-07
0.00839994
8.64512e-07
0.00840415
2.07876e-06
0.00839968
5.08756e-06
0.00842307
1.24801e-05
0.00840939
3.07455e-05
0.00850441
7.8043e-05
0.00860416
0.000209241
0.00919791
0.000631085
0.0109261
0.00210776
0.0133631
0.00628762
0.0136296
0.00947284
0.00974239
0.0139007
0.00840003
1.05172e-12
0.00840003
6.54702e-12
0.00840003
2.32304e-11
0.00840003
6.43666e-11
0.00840003
1.7198e-10
0.00840003
4.24291e-10
0.00840003
1.05827e-09
0.00840004
2.57435e-09
0.00840003
6.25523e-09
0.00840006
1.53606e-08
0.00840004
3.66549e-08
0.00840018
9.0907e-08
0.00840015
2.14745e-07
0.00840063
5.37858e-07
0.00840129
1.25847e-06
0.00840243
3.17563e-06
0.0084092
7.46387e-06
0.00841513
1.88584e-05
0.00845444
4.58893e-05
0.00853041
0.000119643
0.00883176
0.000331884
0.00985173
0.00106547
0.0127292
0.00333911
0.013857
0.00832443
0.00965863
0.0139409
0.00840003
6.84803e-13
0.00840003
4.00087e-12
0.00840003
1.48185e-11
0.00840003
3.94228e-11
0.00840003
1.08907e-10
0.00840003
2.59369e-10
0.00840003
6.73352e-10
0.00840003
1.56858e-09
0.00840003
3.99011e-09
0.00840005
9.33015e-09
0.00840003
2.33505e-08
0.00840014
5.55042e-08
0.00840003
1.35971e-07
0.00840068
3.30133e-07
0.00840016
7.93282e-07
0.00840344
1.96011e-06
0.00840171
4.65626e-06
0.00841655
1.17114e-05
0.00841965
2.80173e-05
0.00848669
7.21323e-05
0.00859616
0.000188061
0.00912317
0.00055973
0.0105809
0.00184093
0.0134208
0.0054326
0.00909098
0.0139765
0.00840003
3.8466e-13
0.00840003
2.57921e-12
0.00840003
8.55655e-12
0.00840003
2.53384e-11
0.00840003
6.36448e-11
0.00840003
1.64282e-10
0.00840003
3.96087e-10
0.00840003
9.76087e-10
0.00840003
2.3785e-09
0.00840003
5.67582e-09
0.00840005
1.41071e-08
0.00840005
3.29143e-08
0.00840012
8.3207e-08
0.00840026
1.91375e-07
0.00840038
4.86763e-07
0.00840181
1.11899e-06
0.0084014
2.84077e-06
0.00841199
6.58445e-06
0.00840981
1.66647e-05
0.00846542
3.99303e-05
0.00851184
0.000103292
0.00882866
0.000277854
0.00976952
0.000861697
0.0125427
0.002645
0.00749509
0.0141017
0.00840003
2.33054e-13
0.00840003
1.55439e-12
0.00840003
5.23887e-12
0.00840003
1.52641e-11
0.00840003
3.87426e-11
0.00840003
9.97524e-11
0.00840003
2.37666e-10
0.00840003
6.0215e-10
0.00840003
1.39877e-09
0.00840003
3.55484e-09
0.00840004
8.182e-09
0.00840004
2.07931e-08
0.00840011
4.80387e-08
0.00840006
1.20629e-07
0.00840061
2.83133e-07
0.00840011
6.99664e-07
0.00840345
1.66907e-06
0.00840092
4.06152e-06
0.00841856
9.91953e-06
0.00841175
2.40018e-05
0.00848971
6.04575e-05
0.00855786
0.000155583
0.00901542
0.000446815
0.010167
0.00144287
0.00432624
0.0132749
0.00840003
1.51626e-13
0.00840003
8.87063e-13
0.00840003
3.28719e-12
0.00840003
8.73396e-12
0.00840003
2.41698e-11
0.00840003
5.71324e-11
0.00840003
1.48506e-10
0.00840003
3.43655e-10
0.00840003
8.72367e-10
0.00840003
2.03491e-09
0.00840003
5.05893e-09
0.00840005
1.2006e-08
0.00840004
2.92421e-08
0.00840016
7.08744e-08
0.00840012
1.68673e-07
0.00840067
4.17424e-07
0.0084009
9.76261e-07
0.00840268
2.45489e-06
0.00840683
5.69001e-06
0.00841426
1.44765e-05
0.00844217
3.41813e-05
0.00850538
8.8451e-05
0.00871633
0.000231254
0.00945304
0.000694739
0.00217592
0.0115836
0.00840003
8.07683e-14
0.00840003
5.54579e-13
0.00840003
1.81433e-12
0.00840003
5.44009e-12
0.00840003
1.3439e-11
0.00840003
3.51795e-11
0.00840003
8.32764e-11
0.00840003
2.08283e-10
0.00840003
4.95708e-10
0.00840003
1.20623e-09
0.00840004
2.92456e-09
0.00840003
6.9414e-09
0.00840006
1.71593e-08
0.00840007
3.99777e-08
0.00840014
1.00338e-07
0.00840035
2.30788e-07
0.00840048
5.82949e-07
0.00840233
1.34087e-06
0.00840206
3.3785e-06
0.00841482
7.84472e-06
0.00841396
1.97342e-05
0.00848073
4.74038e-05
0.00854559
0.000122605
0.00894411
0.00033344
0.00104059
0.010032
0.00840003
5.0084e-14
0.00840003
3.08108e-13
0.00840003
1.1029e-12
0.00840003
3.03601e-12
0.00840003
8.09254e-12
0.00840003
1.99217e-11
0.00840003
4.9224e-11
0.00840003
1.201e-10
0.00840003
2.86286e-10
0.00840003
7.08566e-10
0.00840003
1.65135e-09
0.00840003
4.15015e-09
0.00840004
9.51837e-09
0.00840005
2.41477e-08
0.00840013
5.52773e-08
0.00840009
1.39377e-07
0.0084007
3.22376e-07
0.00840029
8.0358e-07
0.00840401
1.8846e-06
0.00840197
4.63588e-06
0.00842187
1.11222e-05
0.00841795
2.71843e-05
0.00851046
6.7666e-05
0.00860845
0.000175115
0.000502445
0.00919704
0.00840003
2.85659e-14
0.00840003
1.79801e-13
0.00840003
6.2495e-13
0.00840003
1.76113e-12
0.00840003
4.61319e-12
0.00840003
1.13708e-11
0.00840003
2.84543e-11
0.00840003
6.72857e-11
0.00840003
1.68345e-10
0.00840003
3.89589e-10
0.00840003
9.81349e-10
0.00840003
2.25776e-09
0.00840003
5.67775e-09
0.00840006
1.31154e-08
0.00840004
3.26743e-08
0.00840019
7.64818e-08
0.00840011
1.87635e-07
0.00840097
4.45899e-07
0.00840062
1.0761e-06
0.00840517
2.60574e-06
0.0084043
6.19802e-06
0.00842682
1.52907e-05
0.00843656
3.66379e-05
0.00854751
9.31445e-05
0.000244258
0.008763
0.00840003
1.53824e-14
0.00840003
1.03267e-13
0.00840003
3.45649e-13
0.00840003
1.01274e-12
0.00840003
2.54264e-12
0.00840003
6.56721e-12
0.00840003
1.55121e-11
0.00840003
3.8997e-11
0.00840003
9.10158e-11
0.00840003
2.25905e-10
0.00840003
5.29584e-10
0.00840003
1.29567e-09
0.00840004
3.07937e-09
0.00840003
7.41845e-09
0.00840007
1.78472e-08
0.00840006
4.24439e-08
0.00840023
1.03305e-07
0.00840025
2.42885e-07
0.00840094
5.97207e-07
0.00840185
1.39167e-06
0.0084041
3.44358e-06
0.00841257
8.04874e-06
0.00842355
1.99812e-05
0.00847577
4.79974e-05
0.000122823
0.00858087
0.00840003
9.05219e-15
0.00840003
5.53788e-14
0.00840003
2.00004e-13
0.00840003
5.46193e-13
0.00840003
1.46465e-12
0.00840003
3.56921e-12
0.00840003
8.8683e-12
0.00840003
2.13348e-11
0.00840003
5.13132e-11
0.00840003
1.25127e-10
0.00840003
2.93306e-10
0.00840003
7.27463e-10
0.00840003
1.67987e-09
0.00840003
4.19281e-09
0.00840005
9.66158e-09
0.00840005
2.40839e-08
0.00840015
5.5693e-08
0.0084001
1.37536e-07
0.00840074
3.22525e-07
0.00840046
7.83992e-07
0.00840398
1.87173e-06
0.00840307
4.47372e-06
0.00842088
1.09197e-05
0.00842394
2.60329e-05
6.53554e-05
0.00851006
0.00840003
4.92344e-15
0.00840003
3.13285e-14
0.00840003
1.08442e-13
0.00840003
3.0581e-13
0.00840003
7.99467e-13
0.00840003
1.97024e-12
0.00840003
4.91241e-12
0.00840003
1.15755e-11
0.00840003
2.88671e-11
0.00840003
6.65563e-11
0.00840003
1.67041e-10
0.00840003
3.83304e-10
0.00840003
9.56978e-10
0.00840003
2.21326e-09
0.00840003
5.46685e-09
0.00840006
1.27912e-08
0.00840005
3.11232e-08
0.00840018
7.41908e-08
0.00840018
1.76914e-07
0.00840078
4.29694e-07
0.00840118
1.00818e-06
0.00840338
2.49002e-06
0.00840827
5.77863e-06
0.00841779
1.44624e-05
3.40477e-05
0.0084505
0.00840003
2.67841e-15
0.00840003
1.70755e-14
0.00840003
5.83909e-14
0.00840003
1.6898e-13
0.00840003
4.27291e-13
0.00840003
1.09779e-12
0.00840003
2.58578e-12
0.00840003
6.51128e-12
0.00840003
1.50262e-11
0.00840003
3.76505e-11
0.00840003
8.65834e-11
0.00840003
2.15124e-10
0.00840003
4.99773e-10
0.00840003
1.22313e-09
0.00840004
2.88235e-09
0.00840004
6.94266e-09
0.00840006
1.66346e-08
0.00840007
3.92824e-08
0.00840019
9.59154e-08
0.00840034
2.22449e-07
0.00840073
5.50268e-07
0.00840227
1.26493e-06
0.0084032
3.14404e-06
0.00841458
7.25131e-06
1.80295e-05
0.00841904
0.00840003
1.54539e-15
0.00840003
8.95527e-15
0.00840003
3.25944e-14
0.00840003
8.82027e-14
0.00840003
2.38251e-13
0.00840003
5.68717e-13
0.00840003
1.44736e-12
0.00840003
3.35663e-12
0.00840003
8.38588e-12
0.00840003
1.94142e-11
0.00840003
4.78782e-11
0.00840003
1.11953e-10
0.00840003
2.71415e-10
0.00840003
6.46185e-10
0.00840003
1.53304e-09
0.00840004
3.71811e-09
0.00840004
8.6718e-09
0.00840006
2.13371e-08
0.00840011
4.90527e-08
0.00840016
1.21825e-07
0.00840059
2.79145e-07
0.0084006
6.90485e-07
0.00840356
1.59561e-06
0.00840299
3.90713e-06
9.17763e-06
0.00842083
0.00840003
6.16044e-16
0.00840003
4.97961e-15
0.00840003
1.67154e-14
0.00840003
4.90755e-14
0.00840003
1.21347e-13
0.00840003
3.15847e-13
0.00840003
7.37394e-13
0.00840003
1.85353e-12
0.00840003
4.29733e-12
0.00840003
1.0604e-11
0.00840003
2.47612e-11
0.00840003
6.01932e-11
0.00840003
1.42437e-10
0.00840003
3.39923e-10
0.00840003
8.19536e-10
0.00840003
1.91931e-09
0.00840004
4.6894e-09
0.00840005
1.08697e-08
0.00840005
2.67676e-08
0.00840016
6.16143e-08
0.00840014
1.52118e-07
0.00840083
3.50928e-07
0.00840068
8.61233e-07
0.00840451
2.00624e-06
4.87742e-06
0.00840431
0.00840003
3.5944e-16
0.00840003
2.42628e-15
0.00840003
8.61184e-15
0.00840003
2.45347e-14
0.00840003
6.5781e-14
0.00840003
1.59732e-13
0.00840003
4.00029e-13
0.00840003
9.40528e-13
0.00840003
2.31694e-12
0.00840003
5.39767e-12
0.00840003
1.32526e-11
0.00840003
3.07685e-11
0.00840003
7.5444e-11
0.00840003
1.75595e-10
0.00840003
4.27434e-10
0.00840003
1.00286e-09
0.00840003
2.41748e-09
0.00840004
5.73285e-09
0.00840005
1.3643e-08
0.00840008
3.27606e-08
0.00840016
7.70275e-08
0.00840026
1.86908e-07
0.00840085
4.35405e-07
0.0084011
1.06417e-06
2.47169e-06
0.0084053
0.00840003
2.90973e-16
0.00840003
1.41605e-15
0.00840003
4.74927e-15
0.00840003
1.33186e-14
0.00840003
3.34031e-14
0.00840003
8.43598e-14
0.00840003
2.03455e-13
0.00840003
4.94948e-13
0.00840003
1.17747e-12
0.00840003
2.84175e-12
0.00840003
6.70793e-12
0.00840003
1.62349e-11
0.00840003
3.80509e-11
0.00840003
9.22287e-11
0.00840003
2.16271e-10
0.00840003
5.22769e-10
0.00840003
1.2281e-09
0.00840003
2.9576e-09
0.00840005
6.97845e-09
0.00840004
1.6717e-08
0.00840012
3.96027e-08
0.00840012
9.43873e-08
0.00840052
2.2476e-07
0.00840064
5.32366e-07
1.27428e-06
0.00840249
0.00840003
7.10423e-17
0.00840003
6.71961e-16
0.00840003
2.26352e-15
0.00840003
6.20215e-15
0.00840003
1.7115e-14
0.00840003
4.15671e-14
0.00840003
1.03917e-13
0.00840003
2.4626e-13
0.00840003
5.99689e-13
0.00840003
1.41674e-12
0.00840003
3.4111e-12
0.00840003
8.05372e-12
0.00840003
1.93238e-11
0.00840003
4.58456e-11
0.00840003
1.08816e-10
0.00840003
2.60585e-10
0.00840003
6.12945e-10
0.00840003
1.47754e-09
0.00840004
3.45301e-09
0.00840004
8.34673e-09
0.00840008
1.94575e-08
0.00840008
4.70392e-08
0.0084003
1.09675e-07
0.00840032
2.64094e-07
6.18164e-07
0.00840145
0.00840003
3.071e-17
0.00840003
2.31179e-16
0.00840003
8.92813e-16
0.00840003
3.09239e-15
0.00840003
7.89584e-15
0.00840003
2.06305e-14
0.00840003
4.9827e-14
0.00840003
1.20587e-13
0.00840003
2.86493e-13
0.00840003
6.92399e-13
0.00840003
1.61701e-12
0.00840003
3.96249e-12
0.00840003
9.08836e-12
0.00840003
2.24721e-11
0.00840003
5.13039e-11
0.00840003
1.26425e-10
0.00840003
2.90611e-10
0.00840003
7.07732e-10
0.00840003
1.64603e-09
0.00840003
3.95023e-09
0.00840005
9.32713e-09
0.00840006
2.19498e-08
0.00840014
5.27579e-08
0.00840024
1.21942e-07
2.97142e-07
0.00840055
0.00840003
-3.46945e-17
0.00840003
5.2638e-17
0.00840003
3.6028e-16
0.00840003
1.13277e-15
0.00840003
3.53772e-15
0.00840003
8.14271e-15
0.00840003
2.08777e-14
0.00840003
4.77974e-14
0.00840003
1.17374e-13
0.00840003
2.70745e-13
0.00840003
6.6159e-13
0.00840003
1.52934e-12
0.00840003
3.70698e-12
0.00840003
8.65089e-12
0.00840003
2.07031e-11
0.00840003
4.87887e-11
0.00840003
1.15696e-10
0.00840003
2.74099e-10
0.00840003
6.44893e-10
0.00840004
1.53523e-09
0.00840004
3.58846e-09
0.00840005
8.5792e-09
0.00840008
1.99066e-08
0.00840014
4.75852e-08
1.107e-07
0.00840036
0.00840003
0.00840003
0.00840003
0.00840003
0.00840003
0.00840003
0.00840003
0.00840003
0.00840003
0.00840003
0.00840003
0.00840003
0.00840003
0.00840003
0.00840003
0.00840003
0.00840003
0.00840003
0.00840003
0.00840003
0.00840003
0.00840005
0.00840006
0.00840011
0.00840022
0.00472584
0.00402765
0.00312727
0.00159802
0.00244691
0.000680223
0.00217618
0.000270434
0.00216254
1.3426e-05
0.00235439
-0.000192426
0.00256863
-0.000215159
0.00268883
-0.000121501
0.00273058
-4.29381e-05
0.00272628
3.17365e-06
0.00270402
2.12172e-05
0.00269195
1.108e-05
0.00268978
1.20276e-06
0.00269892
-9.90451e-06
0.00271106
-1.33753e-05
0.00272213
-1.19783e-05
0.00273088
-9.74823e-06
0.00273731
-7.29453e-06
0.00274178
-5.29421e-06
0.00274534
-4.33079e-06
0.00274996
-5.13735e-06
0.00275666
-6.81767e-06
0.00276482
-7.94543e-06
0.00277365
-8.33074e-06
0.00278274
-8.40529e-06
0.0027919
-8.43168e-06
0.00280098
-8.50726e-06
0.00280986
-8.6157e-06
0.00281844
-8.7104e-06
0.00282668
-8.75479e-06
0.00283455
-8.74253e-06
0.00284189
-8.68324e-06
0.00284873
-8.59087e-06
0.00285488
-8.48494e-06
0.00286026
-8.36657e-06
0.00286494
-8.24473e-06
0.0028688
-8.08152e-06
0.00286988
-7.9899e-06
0.00287063
-8.1197e-06
0.00287058
-8.40833e-06
0.0028665
-8.73634e-06
0.00285656
-8.84887e-06
0.00283505
-8.06285e-06
0.00278634
-4.9823e-06
0.002664
9.97076e-06
0.00232149
7.96468e-05
0.0013461
0.000389177
0.000570337
0.000500939
0.000582157
6.87575e-05
0.0010654
-0.000458913
0.00160522
-0.000559793
0.00209684
-0.000518196
0.00255001
-0.000465923
0.0029604
-0.000415311
0.00331573
-0.000358228
0.00361367
-0.000297856
0.00386798
-0.000254843
0.00410225
-0.000229749
0.00430884
-0.000201318
0.00448987
-0.00017906
0.00465016
-0.000160359
0.00479233
-0.000143414
0.00491994
-0.000128447
0.00503396
-0.000115315
0.00513632
-0.000103985
0.00522814
-9.4107e-05
0.00530988
-8.54067e-05
0.00538251
-7.75144e-05
0.00544726
-7.0224e-05
0.00550422