/*--------------------------------*- C++ -*----------------------------------*\
  =========                 |
  \\      /  F ield         | OpenFOAM: The Open Source CFD Toolbox
   \\    /   O peration     | Website:  https://openfoam.org
    \\  /    A nd           | Version:  9
     \\/     M anipulation  |
\*---------------------------------------------------------------------------*/
FoamFile
{
    format      ascii;
    class       volScalarField;
    location    "2";
    object      T;
}
// * * * * * * * * * * * * * * * * * * * * * * * * * * * * * * * * * * * * * //

dimensions      [0 0 0 1 0 0 0];

internalField   nonuniform List<scalar> 
5250
(
1
1.00001
1.00003
1.00008
1.00017
1.00049
1.00107
1.00292
1.00675
1.01761
1.04313
1.11364
1.30282
1.80543
2.57339
2.78124
2.75066
2.73811
2.75137
2.76679
2.78563
2.79474
2.80235
2.81342
2.84803
1
1.00001
1.00003
1.00008
1.00017
1.0005
1.00101
1.00303
1.00638
1.01793
1.04195
1.11323
1.29874
1.79768
2.56724
2.77924
2.74948
2.73716
2.75039
2.76563
2.78434
2.79343
2.80104
2.81213
2.84669
1
1.00001
1.00003
1.00008
1.00016
1.00049
1.00099
1.00295
1.00628
1.01748
1.04111
1.11056
1.29182
1.78034
2.55319
2.77449
2.74666
2.73478
2.74765
2.76241
2.78107
2.79008
2.79709
2.80849
2.8432
1
1.00001
1.00003
1.00007
1.00017
1.00043
1.00109
1.00256
1.00675
1.01573
1.04155
1.10462
1.2835
1.75378
2.53102
2.76688
2.74245
2.73114
2.74336
2.75725
2.77487
2.78323
2.79049
2.80093
2.8352
1
1.00001
1.00003
1.00007
1.00016
1.00045
1.00094
1.00274
1.00579
1.01634
1.03777
1.10227
1.26827
1.72175
2.50047
2.75567
2.73639
2.72675
2.7379
2.74975
2.76706
2.77611
2.78379
2.79384
2.82562
1
1.00001
1.00003
1.00006
1.00017
1.00035
1.00107
1.00216
1.00638
1.01383
1.03818
1.09356
1.2555
1.6809
2.45958
2.74
2.73067
2.72247
2.73068
2.74065
2.75671
2.76396
2.76968
2.78028
2.81456
1
1.00001
1.00002
1.00006
1.00015
1.00038
1.00087
1.00236
1.0052
1.01445
1.03329
1.08997
1.23511
1.63594
2.40601
2.7185
2.72235
2.71724
2.72092
2.73009
2.74442
2.75358
2.75505
2.76055
2.79276
1
1.00001
1.00002
1.00006
1.00013
1.00035
1.00082
1.00207
1.00512
1.01253
1.03185
1.08096
1.21634
1.57994
2.33399
2.69073
2.71491
2.70994
2.71011
2.71673
2.72853
2.73339
2.73593
2.73772
2.76017
1
1.00001
1.00002
1.00005
1.00013
1.00029
1.00079
1.00179
1.0047
1.01126
1.0288
1.07277
1.19405
1.52128
2.24195
2.65534
2.70696
2.69975
2.69612
2.70064
2.70959
2.71121
2.7076
2.70323
2.7122
1
1.00001
1.00002
1.00005
1.0001
1.00029
1.00062
1.00174
1.00388
1.0104
1.02471
1.0649
1.16868
1.45716
2.12589
2.60795
2.69777
2.68905
2.68221
2.68423
2.68877
2.68641
2.67501
2.64919
2.61517
1
1.00001
1.00002
1.00003
1.0001
1.00022
1.00061
1.00135
1.0036
1.00848
1.02187
1.05439
1.14393
1.38601
1.98218
2.5477
2.6823
2.67049
2.66103
2.66119
2.66089
2.65301
2.62953
2.57424
2.47325
1
1
1.00001
1.00003
1.00007
1.0002
1.00047
1.00119
1.00293
1.00709
1.0182
1.04468
1.11744
1.31236
1.81045
2.46902
2.65827
2.6488
2.6381
2.63645
2.63266
2.61801
2.58248
2.50587
2.38086
1
1
1.00001
1.00003
1.00007
1.00016
1.00039
1.00099
1.00233
1.00613
1.0142
1.03763
1.09316
1.25098
1.65742
2.37222
2.62244
2.62029
2.61356
2.60562
2.5987
2.57912
2.53836
2.45561
2.34477
1
1
1.00001
1.00002
1.00005
1.00014
1.00032
1.00082
1.00199
1.00485
1.01234
1.03007
1.07795
1.20463
1.54705
2.25271
2.57646
2.60005
2.59178
2.58168
2.56839
2.54466
2.50524
2.42562
2.32173
1
1
1.00001
1.00002
1.00005
1.0001
1.00029
1.00061
1.00173
1.00382
1.01027
1.0242
1.0636
1.16422
1.44278
2.08224
2.5068
2.58114
2.57196
2.55901
2.54105
2.5098
2.47534
2.40833
2.31324
1
1
1.00001
1.00002
1.00003
1.00009
1.0002
1.00054
1.00126
1.0032
1.00786
1.01946
1.04933
1.12781
1.34218
1.87638
2.41263
2.55664
2.55278
2.53754
2.52025
2.48467
2.44658
2.39261
2.31066
1
1
1
1.00001
1.00003
1.00006
1.00017
1.0004
1.00097
1.00247
1.00575
1.01521
1.03575
1.09474
1.245
1.64352
2.28589
2.50999
2.52114
2.50801
2.49118
2.46198
2.42023
2.37183
2.30493
1
1
1
1.00001
1.00002
1.00006
1.00011
1.00034
1.0007
1.00198
1.00435
1.01169
1.02752
1.07225
1.18621
1.49655
2.14354
2.45686
2.49427
2.48388
2.46499
2.43891
2.40213
2.35593
2.29894
1
1
1
1.00001
1.00002
1.00004
1.00009
1.00023
1.00058
1.00137
1.00361
1.00824
1.02196
1.05268
1.14066
1.37054
1.93129
2.36489
2.4625
2.4582
2.4405
2.41529
2.38186
2.33946
2.2889
1
1
1
1
1.00001
1.00003
1.00006
1.00019
1.00038
1.00113
1.00231
1.00662
1.01466
1.03932
1.09672
1.25862
1.66653
2.23777
2.41916
2.42974
2.4176
2.39326
2.36279
2.32447
2.27948
1
1
1
1
1.00001
1.00002
1.00005
1.00013
1.00028
1.00081
1.00165
1.00485
1.01031
1.02842
1.0676
1.18112
1.47134
2.06814
2.35782
2.39968
2.39149
2.36978
2.34083
2.30792
2.26845
1
1
1
1
1.00001
1.00002
1.00003
1.0001
1.0002
1.00058
1.00118
1.00346
1.00736
1.02028
1.04762
1.1271
1.33071
1.83525
2.25374
2.36489
2.36686
2.35257
2.3242
2.29186
2.25519
1
1
1
1
1
1.00001
1.00003
1.00006
1.00016
1.00036
1.0009
1.0022
1.00524
1.01341
1.0319
1.08276
1.21145
1.55309
2.10154
2.30601
2.33446
2.32714
2.30673
2.27597
2.24389
1
1
1
1
1
1.00001
1.00002
1.00004
1.00011
1.00023
1.00066
1.00142
1.00385
1.00878
1.02275
1.05543
1.14477
1.37781
1.90511
2.23149
2.30117
2.30023
2.28584
2.25899
2.22822
1
1
1
1
1
1.00001
1.00001
1.00003
1.00006
1.00018
1.0004
1.00104
1.00245
1.00604
1.01498
1.03674
1.09395
1.24345
1.62717
2.10167
2.25555
2.27304
2.26468
2.2439
2.214
1
1
1
1
1
1
1.00001
1.00002
1.00005
1.00012
1.00027
1.0007
1.00153
1.00425
1.00919
1.0251
1.05863
1.15608
1.4017
1.91052
2.18305
2.23918
2.23875
2.22416
2.2001
1
1
1
1
1
1
1.00001
1.00001
1.00003
1.00007
1.0002
1.0004
1.00116
1.0024
1.00668
1.01497
1.03936
1.09647
1.25371
1.641
2.06186
2.19683
2.21316
2.20566
2.18585
1
1
1
1
1
1
1
1.00001
1.00002
1.00005
1.00011
1.00029
1.00067
1.00165
1.00405
1.00965
1.02452
1.05951
1.15389
1.40018
1.87626
2.12424
2.17783
2.18045
2.16886
1
1
1
1
1
1
1
1.00001
1.00001
1.00003
1.00007
1.00019
1.00039
1.00113
1.00229
1.00661
1.01416
1.03837
1.09179
1.24223
1.60561
2.0043
2.13585
2.15517
2.14991
1
1
1
1
1
1
1
1
1.00001
1.00002
1.00005
1.00011
1.00026
1.00066
1.0015
1.00396
1.00875
1.02352
1.05461
1.14351
1.36936
1.81388
2.06081
2.11892
2.12494
1
1
1
1
1
1
1
1
1
1.00001
1.00003
1.00006
1.00017
1.00036
1.001
1.00217
1.0057
1.01323
1.03341
1.08224
1.21153
1.53291
1.9304
2.07502
2.09907
1
1
1
1
1
1
1
1
1
1.00001
1.00002
1.00004
1.0001
1.00022
1.00061
1.00126
1.00361
1.00756
1.02065
1.04758
1.12471
1.31659
1.72755
1.99388
2.06606
1
1
1
1
1
1
1
1
1
1
1.00001
1.00003
1.00005
1.00015
1.00032
1.00082
1.00193
1.00464
1.01153
1.02728
1.06912
1.17202
1.44027
1.84121
2.01208
1
1
1
1
1
1
1
1
1
1
1.00001
1.00001
1.00003
1.00008
1.00019
1.0005
1.00109
1.00295
1.00628
1.01725
1.0386
1.10222
1.25499
1.61649
1.92289
1
1
1
1
1
1
1
1
1
1
1
1.00001
1.00002
1.00004
1.00012
1.00025
1.00071
1.00149
1.00401
1.00899
1.02304
1.055
1.14033
1.35868
1.74498
1
1
1
1
1
1
1
1
1
1
1
1.00001
1.00001
1.00003
1.00006
1.00016
1.00036
1.00091
1.00216
1.00513
1.01279
1.03008
1.07628
1.18975
1.47291
1
1
1
1
1
1
1
1
1
1
1
1
1.00001
1.00001
1.00004
1.00009
1.00021
1.00053
1.00115
1.00312
1.00661
1.01812
1.04024
1.10634
1.2634
1
1
1
1
1
1
1
1
1
1
1
1
1
1.00001
1.00002
1.00005
1.00012
1.00026
1.00072
1.00148
1.00418
1.00866
1.02359
1.05353
1.13892
1
1
1
1
1
1
1
1
1
1
1
1
1
1
1.00001
1.00003
1.00006
1.00016
1.00033
1.00092
1.00198
1.00515
1.01181
1.0294
1.07107
1
1
1
1
1
1
1
1
1
1
1
1
1
1
1.00001
1.00001
1.00003
1.00008
1.00019
1.0005
1.00105
1.00293
1.00603
1.01669
1.03665
1
1
1
1
1
1
1
1
1
1
1
1
1
1
1
1.00001
1.00002
1.00004
1.00011
1.00023
1.00065
1.00135
1.00361
1.008
1.02037
1
1
1
1
1
1
1
1
1
1
1
1
1
1
1
1
1.00001
1.00003
1.00005
1.00014
1.0003
1.00077
1.00177
1.00425
1.01026
1
1
1
1
1
1
1
1
1
1
1
1
1
1
1
1
1.00001
1.00001
1.00003
1.00007
1.00017
1.00039
1.00091
1.00231
1.00504
1
1
1
1
1
1
1
1
1
1
1
1
1
1
1
1
1
1.00001
1.00001
1.00004
1.00009
1.00019
1.00051
1.00107
1.00294
1
1
1
1
1
1
1
1
1
1
1
1
1
1
1
1
1
1
1.00001
1.00002
1.00005
1.0001
1.00025
1.00058
1.00137
1
1
1
1
1
1
1
1
1
1
1
1
1
1
1
1
1
1
1
1.00001
1.00002
1.00006
1.00011
1.00031
1.00064
1
1
1
1
1
1
1
1
1
1
1
1
1
1
1
1
1
1
1
1
1.00001
1.00003
1.00006
1.00015
1.00031
1
1
1
1
1
1
1
1
1
1
1
1
1
1
1
1
1
1
1
1
1.00001
1.00001
1.00003
1.00008
1.00016
1
1
1
1
1
1
1
1
1
1
1
1
1
1
1
1
1
1
1
1
1
1.00001
1.00002
1.00004
1.00009
1
1
1
1
1
1
1
1
1
1
1
1
1
1
1
1
1
1
1
1
1
1
1.00001
1.00002
1.00007
2.26397
2.09698
2.04772
2.08038
2.14344
2.21609
2.28546
2.3167
2.3234
2.32151
2.31734
2.31685
2.31781
2.31905
2.32108
2.32267
2.32188
2.32094
2.31964
2.31777
2.31537
2.31262
2.30941
2.30571
2.30154
2.29704
2.29242
2.28787
2.2835
2.27931
2.27533
2.2715
2.26802
2.26466
2.26191
2.25954
2.25765
2.25806
2.25951
2.26283
2.2678
2.27991
2.30667
2.36502
2.49037
2.74191
3.09106
3.36038
3.35296
3.34769
3.32448
3.30014
3.2727
3.24172
3.21671
3.19149
3.16722
3.14589
3.12398
3.10532
3.08547
3.06839
3.05044
3.03413
3.01835
3.00352
2.98891
2.97534
2.96161
2.94824
2.93535
2.92249
2.91028
2.89821
2.88638
2.87524
2.86354
2.85335
2.84173
2.83251
2.82086
2.81251
2.80091
2.79332
2.78181
2.77481
2.76363
2.75684
2.74572
2.73881
2.72795
2.72093
2.71038
2.70328
2.69292
2.68599
2.67621
2.67074
2.66439
2.66753
2.24974
2.15908
2.10628
2.071
2.03463
2.00554
1.99796
2.00137
2.01427
2.03339
2.04685
2.05279
2.0521
2.05072
2.04899
2.04828
2.04821
2.04811
2.04794
2.04757
2.04687
2.04551
2.04359
2.0414
2.03921
2.03682
2.03443
2.03165
2.02893
2.02586
2.02289
2.01967
2.01675
2.01326
2.01078
2.00712
2.00506
2.00308
2.00311
2.004
2.00633
2.01375
2.03216
2.07479
2.17045
2.36844
2.69419
3.05431
3.03129
2.97399
2.91334
2.86374
2.82637
2.79993
2.77694
2.75717
2.73952
2.72339
2.70751
2.69228
2.67756
2.66359
2.65007
2.6373
2.62467
2.61253
2.60009
2.58788
2.57559
2.56297
2.5513
2.5382
2.52687
2.51337
2.50198
2.48848
2.47698
2.46384
2.45226
2.43957
2.42798
2.41561
2.40404
2.39199
2.38064
2.36913
2.35815
2.34734
2.33717
2.32724
2.31794
2.30886
2.30042
2.29218
2.2846
2.27738
2.27085
2.26559
2.26219
2.26656
2.24771
2.16089
2.08367
2.00888
1.93845
1.88437
1.85749
1.85598
1.8597
1.87174
1.8863
1.89958
1.90532
1.90841
1.90783
1.9073
1.90645
1.90586
1.9056
1.90545
1.90512
1.90467
1.9037
1.90282
1.90111
1.89994
1.89774
1.8963
1.89384
1.89202
1.88955
1.88726
1.88509
1.88225
1.88035
1.87748
1.87558
1.87449
1.87462
1.8754
1.87795
1.88563
1.90402
1.94412
2.02969
2.16875
2.37529
2.59492
2.68927
2.66943
2.64477
2.61059
2.58248
2.56449
2.55105
2.53963
2.52939
2.51914
2.50851
2.49794
2.48706
2.47599
2.46496
2.45344
2.44315
2.432
2.42227
2.41119
2.40083
2.38986
2.3787
2.36804
2.35647
2.34579
2.33384
2.323
2.31068
2.29979
2.28716
2.27634
2.26353
2.2529
2.24004
2.22964
2.21687
2.20678
2.19436
2.18466
2.17274
2.16351
2.15216
2.14348
2.13272
2.12475
2.11459
2.10756
2.09815
2.0929
2.08599
2.08805
2.23377
2.1524
2.07251
1.99853
1.93245
1.87903
1.83685
1.8077
1.7906
1.78739
1.78868
1.79496
1.80306
1.81232
1.8161
1.81843
1.81781
1.81699
1.81566
1.81434
1.81361
1.81312
1.81264
1.81202
1.8109
1.80968
1.80792
1.8062
1.80414
1.80198
1.79983
1.79732
1.79495
1.79233
1.78967
1.78717
1.78531
1.7844
1.78459
1.78579
1.79055
1.80294
1.83108
1.89394
1.99336
2.12788
2.21476
2.31092
2.40582
2.47701
2.4969
2.48256
2.46894
2.4503
2.43235
2.41874
2.40822
2.39709
2.38822
2.37849
2.37024
2.36045
2.35055
2.3402
2.32957
2.31994
2.30905
2.30006
2.28829
2.27981
2.26782
2.25961
2.24744
2.23913
2.22691
2.21835
2.20624
2.19782
2.18621
2.17802
2.16672
2.15845
2.14722
2.13902
2.12777
2.11979
2.10837
2.10055
2.08885
2.08128
2.06933
2.06216
2.05005
2.04336
2.03117
2.02511
2.01314
2.00821
1.99825
1.9984
2.2232
2.14162
2.06789
2.00053
1.93727
1.88161
1.83168
1.7904
1.75845
1.73792
1.72986
1.73011
1.73175
1.73723
1.74308
1.7496
1.75252
1.75491
1.75462
1.7543
1.75372
1.75248
1.75185
1.7507
1.75008
1.74878
1.74793
1.7462
1.74487
1.74298
1.74108
1.73916
1.73703
1.73492
1.73284
1.73117
1.7303
1.73047
1.73143
1.73537
1.7457
1.76955
1.82334
1.916
2.03844
2.11137
2.13579
2.16026
2.20405
2.2594
2.3172
2.35935
2.37946
2.37797
2.37145
2.36071
2.34273
2.32977
2.31796
2.30831
2.29806
2.28932
2.27937
2.27098
2.2603
2.25208
2.2405
2.23236
2.22049
2.21259
2.2008
2.19324
2.18181
2.17453
2.1635
2.15649
2.1456
2.13867
2.12789
2.12103
2.11046
2.10365
2.09323
2.08644
2.07596
2.06923
2.05834
2.05172
2.04023
2.03373
2.02171
2.01539
2.00301
1.99682
1.98439
1.97831
1.96606
1.96073
1.95043
1.94907
2.22463
2.14485
2.07126
2.00491
1.94431
1.88913
1.84028
1.79764
1.76134
1.73208
1.70881
1.69473
1.68799
1.68803
1.68907
1.69299
1.6974
1.70289
1.70525
1.7072
1.70684
1.70634
1.70512
1.70394
1.70191
1.70095
1.69931
1.69838
1.69681
1.69516
1.6935
1.69144
1.68954
1.68755
1.68592
1.68528
1.68547
1.68639
1.68993
1.6992
1.72075
1.76795
1.86315
1.98216
2.05886
2.08572
2.08314
2.08534
2.0925
2.11071
2.14067
2.18124
2.23416
2.2813
2.30571
2.31066
2.30403
2.2937
2.27762
2.26418
2.25058
2.24051
2.22939
2.22245
2.21291
2.20671
2.1962
2.18852
2.17679
2.16894
2.15708
2.14952
2.13859
2.13184
2.12134
2.11482
2.10442
2.09804
2.08777
2.08148
2.07127
2.06496
2.05478
2.04843
2.03823
2.03189
2.02137
2.01511
2.00396
1.99779
1.98599
1.97989
1.96764
1.96148
1.94909
1.94299
1.93073
1.92502
1.91486
1.91285
2.22732
2.15177
2.0797
2.01436
1.95415
1.90002
1.84994
1.80579
1.76581
1.73249
1.70365
1.68007
1.663
1.65267
1.64891
1.64907
1.64993
1.653
1.65609
1.66013
1.66153
1.66312
1.66281
1.66226
1.66149
1.65982
1.65866
1.6572
1.65583
1.65501
1.65336
1.65234
1.65074
1.6493
1.64893
1.64918
1.65008
1.65335
1.66189
1.6818
1.72558
1.8195
1.93696
2.02999
2.06178
2.05861
2.0514
2.04623
2.03542
2.03345
2.03721
2.05349
2.08457
2.12714
2.17778
2.22566
2.2528
2.2636
2.25848
2.24852
2.23106
2.21622
2.20103
2.19098
2.1798
2.17428
2.16573
2.16031
2.1495
2.14191
2.13037
2.12284
2.11137
2.10398
2.09303
2.08648
2.0762
2.07007
2.05985
2.05374
2.04355
2.03767
2.02758
2.02171
2.01144
2.00552
1.99496
1.98916
1.9781
1.97234
1.96075
1.95486
1.943
1.93701
1.92495
1.91897
1.90708
1.90106
1.89117
1.88881
2.23099
2.16136
2.09345
2.02982
1.97048
1.91634
1.86654
1.82153
1.78058
1.74338
1.71123
1.68405
1.66153
1.64339
1.63042
1.62268
1.61963
1.61981
1.62051
1.62329
1.62568
1.62956
1.63093
1.63261
1.63229
1.63174
1.63064
1.62862
1.62728
1.62561
1.62429
1.62338
1.62222
1.62232
1.62285
1.62389
1.62714
1.63524
1.65371
1.69463
1.7845
1.90342
2.00794
2.04349
2.04882
2.04381
2.03174
2.01712
1.99836
1.98656
1.98119
1.98199
1.98657
2.00234
2.03104
2.07253
2.12457
2.17553
2.20789
2.22184
2.21682
2.20577
2.18818
2.17108
2.15278
2.14116
2.13124
2.12641
2.11874
2.11374
2.10379
2.09689
2.08579
2.07832
2.06705
2.05989
2.04912
2.04251
2.03207
2.02586
2.01567
2.00972
1.99958
1.99374
1.98353
1.97768
1.9672
1.96147
1.9507
1.94517
1.93407
1.92846
1.91717
1.91149
1.9001
1.89448
1.88316
1.87791
1.86816
1.86648
2.23041
2.16843
2.10576
2.04596
1.98887
1.93605
1.88625
1.84105
1.79926
1.7618
1.7276
1.69741
1.67045
1.64789
1.62922
1.61445
1.60444
1.5986
1.59664
1.59687
1.59743
1.59892
1.60197
1.60326
1.60527
1.60535
1.60543
1.60521
1.60456
1.60328
1.60243
1.6012
1.60136
1.60203
1.6032
1.6064
1.61428
1.63188
1.67063
1.75635
1.87847
1.99241
2.03366
2.04359
2.03449
2.02346
2.00687
1.99086
1.97099
1.95748
1.94323
1.93467
1.9303
1.93123
1.93635
1.95202
1.98164
2.02288
2.07565
2.13058
2.16443
2.17937
2.17449
2.16422
2.14449
2.12772
2.10825
2.09568
2.08431
2.07879
2.07082
2.06618
2.05685
2.05044
2.03973
2.03263
2.02162
2.01459
2.00377
1.99715
1.9867
1.98068
1.97052
1.96473
1.95452
1.94891
1.93864
1.9332
1.92272
1.91745
1.90687
1.90156
1.89087
1.8855
1.87471
1.86938
1.85861
1.85382
1.84426
1.84311
2.22709
2.17156
2.11476
2.05896
2.00471
1.95416
1.90639
1.86173
1.82028
1.78186
1.7471
1.71517
1.68699
1.6615
1.63961
1.6209
1.60585
1.59392
1.58584
1.58115
1.57928
1.57945
1.57991
1.58114
1.5839
1.58506
1.58741
1.58745
1.5876
1.58741
1.58685
1.58668
1.58703
1.58825
1.59113
1.59837
1.61495
1.6508
1.73153
1.85284
1.97674
2.02457
2.03529
2.02719
2.01513
2.00257
1.98456
1.96662
1.94639
1.93163
1.91561
1.9063
1.89574
1.88821
1.88404
1.88516
1.89085
1.90715
1.93644
1.97774
2.02949
2.08375
2.12191
2.13958
2.13455
2.12412
2.10566
2.08715
2.06695
2.05424
2.04167
2.03541
2.02685
2.02229
2.01321
2.00744
1.99719
1.99063
1.97998
1.97339
1.96261
1.95626
1.94585
1.9401
1.92982
1.92426
1.91398
1.90876
1.89856
1.89348
1.88333
1.87823
1.86801
1.86286
1.85253
1.8474
1.83705
1.8324
1.82314
1.82205
2.22303
2.17284
2.12068
2.07
2.01963
1.97106
1.92505
1.88205
1.84163
1.80387
1.76872
1.73621
1.70651
1.67947
1.65529
1.63367
1.61499
1.59892
1.586
1.57578
1.5689
1.56484
1.56316
1.56328
1.5637
1.56459
1.56667
1.56766
1.56949
1.57016
1.57061
1.57159
1.57265
1.57551
1.58226
1.5976
1.63122
1.70772
1.82581
1.96169
2.01698
2.02805
2.01896
2.01012
1.99618
1.98076
1.96094
1.94301
1.9257
1.91181
1.89645
1.8851
1.87069
1.85977
1.84985
1.84236
1.84072
1.8423
1.84801
1.86336
1.8912
1.92927
1.98017
2.03564
2.07533
2.0993
2.09433
2.08405
2.06726
2.04825
2.02734
2.01428
2.00119
1.99457
1.98549
1.98056
1.97149
1.96621
1.95647
1.95068
1.94039
1.93417
1.92345
1.9175
1.9072
1.90173
1.89139
1.88612
1.87609
1.87108
1.86123
1.85631
1.84648
1.84155
1.83165
1.82671
1.81673
1.81216
1.80318
1.80214
2.21404
2.17079
2.12402
2.07609
2.02962
1.98488
1.94071
1.89891
1.85941
1.82251
1.78789
1.75554
1.72537
1.69742
1.67178
1.6484
1.62741
1.60878
1.59268
1.57902
1.56809
1.55957
1.55393
1.55053
1.54933
1.54949
1.54996
1.55087
1.55294
1.55443
1.55644
1.5582
1.56172
1.56888
1.58388
1.61569
1.68641
1.80207
1.94517
2.0078
2.02123
2.01448
2.00355
1.99249
1.9754
1.95926
1.93987
1.92406
1.90678
1.89322
1.87924
1.86824
1.85228
1.84064
1.82544
1.81538
1.80662
1.80063
1.79907
1.8003
1.80467
1.81783
1.84334
1.87924
1.92823
1.98531
2.02966
2.05783
2.05251
2.04311
2.02758
2.00899
1.98782
1.97464
1.96147
1.95439
1.94453
1.93942
1.93048
1.92571
1.91648
1.9115
1.90151
1.89592
1.88554
1.88018
1.87004
1.86475
1.85472
1.84972
1.84008
1.8353
1.82578
1.82101
1.81147
1.80672
1.79713
1.7927
1.78395
1.78299
2.20618
2.16673
2.12427
2.0819
2.0374
1.99486
1.95431
1.91469
1.87614
1.84014
1.80556
1.77385
1.7434
1.71552
1.68897
1.66473
1.64214
1.62167
1.60326
1.58689
1.57298
1.56112
1.55195
1.5447
1.54018
1.5372
1.5366
1.53683
1.53738
1.53876
1.54162
1.54621
1.55336
1.56812
1.59859
1.66446
1.77769
1.92616
1.99936
2.0165
2.01028
2.00207
1.98867
1.97419
1.95651
1.9399
1.92072
1.90498
1.88885
1.87717
1.86379
1.85057
1.83474
1.82189
1.80571
1.79527
1.78202
1.77354
1.76465
1.75836
1.7545
1.75494
1.75803
1.76951
1.7931
1.82744
1.87422
1.93141
1.98175
2.01363
2.00834
2.00047
1.98676
1.96885
1.94764
1.93469
1.92153
1.9139
1.9038
1.89839
1.88951
1.88501
1.87658
1.87199
1.86262
1.85751
1.84769
1.84272
1.83297
1.82795
1.81833
1.81355
1.80426
1.79967
1.79048
1.78592
1.77672
1.77251
1.76403
1.76332
2.19663
2.15992
2.12268
2.08283
2.04397
2.00357
1.96355
1.92691
1.8907
1.85573
1.82241
1.79051
1.76076
1.73232
1.70622
1.68112
1.65843
1.63667
1.61732
1.59909
1.58323
1.56884
1.55669
1.54662
1.53827
1.53281
1.52826
1.52744
1.52781
1.52903
1.53213
1.53887
1.55268
1.58164
1.64165
1.75431
1.90116
1.98707
2.01085
2.00741
1.99867
1.98835
1.97132
1.95594
1.93747
1.9203
1.90188
1.88751
1.87235
1.86058
1.84566
1.83271
1.81772
1.80379
1.78793
1.77613
1.76147
1.75188
1.73941
1.7305
1.72071
1.71391
1.70884
1.70916
1.71162
1.72199
1.74395
1.7758
1.8204
1.87671
1.93174
1.96847
1.96462
1.95789
1.94648
1.92947
1.90837
1.8957
1.88269
1.87494
1.86441
1.85838
1.8496
1.84544
1.83754
1.83307
1.82405
1.81932
1.81019
1.80556
1.79625
1.79151
1.78224
1.77767
1.7686
1.76417
1.75522
1.75119
1.74297
1.7426
2.18491
2.15384
2.11933
2.08354
2.04579
2.01023
1.97373
1.93601
1.9021
1.86873
1.83637
1.80568
1.77621
1.74793
1.72173
1.69629
1.67334
1.65071
1.63112
1.61118
1.59491
1.57793
1.56486
1.55133
1.54161
1.53216
1.52578
1.52203
1.52233
1.52408
1.52893
1.54052
1.5659
1.61942
1.72933
1.86882
1.97028
2.00226
2.00264
1.99703
1.98389
1.9685
1.95123
1.93567
1.91688
1.90083
1.88317
1.86875
1.85375
1.84185
1.82732
1.81499
1.7988
1.78448
1.76914
1.75657
1.74229
1.73217
1.71851
1.70883
1.69637
1.6868
1.67674
1.67009
1.6649
1.66524
1.66746
1.67641
1.69603
1.7255
1.76782
1.82209
1.88186
1.92285
1.92294
1.91746
1.90731
1.89118
1.87122
1.85877
1.84576
1.8375
1.82655
1.82036
1.8117
1.80764
1.79968
1.79501
1.78647
1.78217
1.77363
1.76921
1.76026
1.75574
1.7468
1.74243
1.73362
1.72967
1.72152
1.72133
2.17099
2.14249
2.11216
2.07969
2.04666
2.01149
1.97812
1.9459
1.91023
1.87943
1.84834
1.81808
1.79006
1.76243
1.73623
1.71131
1.68788
1.66491
1.64511
1.62409
1.60764
1.58919
1.57546
1.55994
1.54868
1.53699
1.52821
1.52342
1.52384
1.52685
1.5354
1.55629
1.60288
1.70378
1.83812
1.95064
1.99044
1.99908
1.99045
1.97704
1.96003
1.94557
1.92837
1.91297
1.89497
1.87919
1.86172
1.84867
1.83465
1.82281
1.8084
1.79545
1.7793
1.76625
1.75099
1.73827
1.72451
1.71357
1.70009
1.69048
1.67699
1.66705
1.6548
1.64508
1.63549
1.62921
1.62415
1.62439
1.62635
1.63357
1.64959
1.67716
1.71704
1.76795
1.83244
1.87654
1.88369
1.87775
1.86928
1.85395
1.83623
1.82381
1.81033
1.80179
1.791
1.78471
1.77604
1.77178
1.76354
1.75887
1.75092
1.74691
1.73881
1.73455
1.72595
1.72168
1.71304
1.70917
1.70108
1.70089
2.15976
2.13196
2.10453
2.07575
2.04446
2.01342
1.98024
1.9489
1.91963
1.88616
1.85765
1.82921
1.79945
1.77502
1.74786
1.72396
1.70142
1.67749
1.65876
1.63635
1.6199
1.60066
1.58545
1.5702
1.55598
1.54528
1.53386
1.53149
1.53301
1.53905
1.55552
1.59436
1.68368
1.81262
1.93248
1.98247
1.99167
1.98351
1.96765
1.95233
1.93434
1.9197
1.90303
1.88828
1.87058
1.85569
1.84021
1.82832
1.81422
1.80265
1.78853
1.77591
1.76087
1.74806
1.73256
1.7205
1.70683
1.69573
1.68306
1.6729
1.65942
1.64963
1.63613
1.62627
1.61465
1.60541
1.59658
1.59028
1.58511
1.58451
1.58587
1.59094
1.60424
1.62941
1.66629
1.71393
1.78226
1.8289
1.84394
1.8384
1.83079
1.81853
1.80258
1.78991
1.77598
1.7676
1.75675
1.75044
1.74188
1.73707
1.72858
1.72423
1.71689
1.71308
1.70529
1.7012
1.69291
1.68917
1.68139
1.68136
2.14578
2.11974
2.09278
2.06693
2.04028
2.01151
1.98225
1.95195
1.92173
1.89563
1.86271
1.83888
1.80994
1.78344
1.76077
1.73336
1.71402
1.68934
1.67008
1.6498
1.62987
1.61373
1.59451
1.58119
1.56465
1.55393
1.54438
1.54472
1.54914
1.56208
1.59484
1.67365
1.7935
1.9215
1.976
1.98643
1.97637
1.96316
1.94485
1.92698
1.90887
1.89412
1.87711
1.86252
1.84626
1.83343
1.81884
1.80677
1.79315
1.78231
1.76867
1.75691
1.74229
1.72926
1.7143
1.70252
1.68865
1.67805
1.66554
1.65511
1.64247
1.63242
1.61896
1.60944
1.59649
1.58728
1.57639
1.56781
1.55951
1.55291
1.54782
1.54577
1.54678
1.55022
1.5612
1.58348
1.6167
1.66236
1.73185
1.78022
1.8047
1.79941
1.79348
1.78483
1.76929
1.7568
1.74298
1.73477
1.7235
1.71759
1.70887
1.7036
1.69509
1.69112
1.68391
1.68022
1.67267
1.66909
1.66165
1.66173
2.13286
2.10902
2.08402
2.05834
2.03285
2.00664
1.9802
1.95274
1.9247
1.89737
1.871
1.84237
1.81939
1.79192
1.76883
1.74564
1.72134
1.70242
1.67884
1.66173
1.64093
1.62386
1.60692
1.5896
1.57733
1.56337
1.56158
1.56461
1.57505
1.60247
1.67015
1.78597
1.91778
1.97738
1.98708
1.97702
1.96043
1.9431
1.92185
1.90377
1.8842
1.86876
1.85271
1.83976
1.82442
1.81114
1.7959
1.78437
1.77172
1.76133
1.74818
1.73654
1.72172
1.70923
1.69507
1.68355
1.67036
1.66024
1.64764
1.63769
1.6255
1.61532
1.60275
1.59309
1.58013
1.57127
1.55922
1.55075
1.54051
1.53232
1.52407
1.51698
1.51173
1.50838
1.50899
1.51141
1.52033
1.53971
1.56894
1.61415
1.68046
1.73208
1.76555
1.76272
1.75806
1.75088
1.7359
1.72546
1.71167
1.70276
1.69159
1.68647
1.67712
1.67174
1.66329
1.65955
1.65224
1.64894
1.64196
1.64204
2.11663
2.0983
2.07432
2.05064
2.0267
2.00234
1.97737
1.95164
1.92477
1.90044
1.87311
1.84919
1.82298
1.80023
1.77568
1.75315
1.73157
1.70861
1.69052
1.66835
1.65202
1.63231
1.61675
1.60039
1.58685
1.58114
1.58281
1.59169
1.61477
1.6719
1.78824
1.92115
1.98514
1.99399
1.98147
1.96649
1.94523
1.92363
1.90031
1.88206
1.86476
1.85103
1.83421
1.81878
1.80088
1.7868
1.77267
1.76247
1.7502
1.73977
1.72637
1.7145
1.70039
1.68895
1.67533
1.6644
1.65172
1.64159
1.62944
1.62019
1.60828
1.59878
1.58683
1.57705
1.56476
1.55575
1.54344
1.5353
1.52387
1.51585
1.50582
1.49779
1.48934
1.48221
1.4768
1.47259
1.47304
1.47515
1.48213
1.49754
1.52415
1.56802
1.62706
1.68498
1.72451
1.72737
1.72322
1.71682
1.70358
1.69534
1.68085
1.67178
1.66167
1.65675
1.64687
1.64186
1.63335
1.62992
1.6229
1.623
2.09735
2.08362
2.06259
2.03888
2.01646
1.99337
1.97036
1.94812
1.92331
1.89991
1.87652
1.85102
1.82911
1.80446
1.78307
1.76055
1.73884
1.71893
1.69682
1.67964
1.65844
1.64304
1.62468
1.61139
1.60207
1.60275
1.61059
1.63148
1.68168
1.79217
1.92814
1.99837
2.00799
1.99603
1.97836
1.95681
1.92824
1.90377
1.88177
1.86575
1.84864
1.83299
1.81411
1.79771
1.78041
1.76758
1.75395
1.743
1.72965
1.71838
1.70467
1.69344
1.6802
1.66906
1.65574
1.64514
1.63256
1.62292
1.61154
1.60265
1.59128
1.58241
1.57059
1.56117
1.54925
1.53986
1.52789
1.51945
1.50764
1.50001
1.48904
1.48144
1.47177
1.46412
1.45583
1.44915
1.44335
1.43892
1.439
1.44048
1.44496
1.45738
1.48161
1.52177
1.57231
1.6371
1.68039
1.69281
1.68664
1.68215
1.67343
1.6649
1.65039
1.64304
1.63317
1.62787
1.61798
1.61386
1.60563
1.60561
2.07664
2.07043
2.05379
2.03096
2.00867
1.98643
1.96461
1.94211
1.91962
1.89633
1.87526
1.85315
1.82986
1.80915
1.78653
1.76595
1.74543
1.72453
1.7062
1.68537
1.66907
1.64969
1.63632
1.62375
1.62409
1.63097
1.6499
1.69457
1.79909
1.93965
2.01558
2.02714
2.01416
1.99654
1.9698
1.94064
1.91205
1.89007
1.86977
1.85303
1.83371
1.81615
1.79673
1.781
1.76452
1.75131
1.73603
1.72353
1.70943
1.69822
1.68514
1.67431
1.66072
1.64926
1.6358
1.62511
1.61284
1.60373
1.59257
1.58402
1.57314
1.56449
1.55308
1.54422
1.53247
1.52344
1.51192
1.5033
1.49202
1.4844
1.47333
1.46638
1.45599
1.44894
1.4397
1.43244
1.42448
1.41798
1.41182
1.4076
1.40629
1.40732
1.41043
1.42052
1.44088
1.4756
1.5206
1.58831
1.63552
1.65591
1.65232
1.64966
1.64359
1.63414
1.62159
1.61596
1.60508
1.60009
1.5913
1.59047
2.04495
2.04856
2.03944
2.02102
1.99968
1.9776
1.95724
1.93706
1.91605
1.89497
1.87269
1.85214
1.83146
1.80984
1.79
1.76931
1.74925
1.73045
1.71042
1.69342
1.67432
1.66011
1.64618
1.64567
1.65174
1.6691
1.71074
1.80795
1.94941
2.03327
2.04744
2.03555
2.01613
1.9883
1.95525
1.9267
1.90084
1.88023
1.85929
1.84029
1.81927
1.80102
1.78211
1.76668
1.74992
1.73577
1.71999
1.70728
1.69287
1.68108
1.6671
1.65511
1.64097
1.62945
1.61618
1.60587
1.59391
1.58477
1.57366
1.56536
1.55462
1.54638
1.5355
1.52699
1.51567
1.50718
1.49592
1.48768
1.47695
1.46924
1.45877
1.45186
1.44143
1.43504
1.42505
1.41852
1.40952
1.40267
1.39493
1.38847
1.38224
1.378
1.37528
1.37592
1.3784
1.38615
1.40278
1.42979
1.47436
1.53768
1.58974
1.61734
1.62058
1.61837
1.61237
1.60535
1.59477
1.58933
1.57907
1.57768
2.01269
2.0274
2.02368
2.01032
1.99137
1.97049
1.94973
1.93107
1.91088
1.89202
1.87167
1.85125
1.83124
1.8115
1.79137
1.77194
1.75298
1.73363
1.71615
1.69762
1.68278
1.66858
1.66685
1.67272
1.68896
1.72863
1.81814
1.96112
2.05291
2.07029
2.05762
2.03921
2.00736
1.9742
1.9425
1.91683
1.89264
1.87177
1.84961
1.82954
1.8083
1.78988
1.77037
1.75359
1.73562
1.72093
1.70527
1.69241
1.67765
1.66519
1.65057
1.63834
1.62423
1.61258
1.59908
1.58839
1.57601
1.5667
1.55566
1.54738
1.53682
1.52875
1.51802
1.50979
1.49898
1.49089
1.48017
1.47245
1.46197
1.45452
1.44442
1.43731
1.42739
1.42091
1.41095
1.40498
1.39527
1.38924
1.38037
1.37395
1.36632
1.35995
1.35386
1.34925
1.34553
1.34597
1.34802
1.35284
1.3659
1.38746
1.43268
1.48336
1.54312
1.57816
1.59037
1.58592
1.58243
1.57846
1.56937
1.56764
1.94492
1.99365
2.00133
1.99567
1.98119
1.96205
1.94246
1.92408
1.90569
1.88644
1.86795
1.84912
1.82981
1.81098
1.79218
1.7736
1.75485
1.7373
1.71937
1.70422
1.68992
1.6876
1.69339
1.70892
1.74732
1.83043
1.97785
2.07704
2.09515
2.08256
2.06168
2.02897
1.99253
1.96112
1.93269
1.90907
1.8855
1.86427
1.84149
1.82095
1.79913
1.77985
1.75937
1.74186
1.72354
1.70846
1.69224
1.6789
1.6639
1.65112
1.63625
1.62353
1.6088
1.59657
1.58273
1.57177
1.55937
1.54992
1.53856
1.52991
1.51898
1.51067
1.49996
1.49202
1.48154
1.47388
1.46361
1.45617
1.44604
1.43891
1.42899
1.42216
1.4126
1.40605
1.39672
1.39064
1.38123
1.37564
1.36626
1.36072
1.35194
1.34604
1.3384
1.33238
1.32635
1.32137
1.31757
1.31718
1.3183
1.32156
1.33165
1.35061
1.38916
1.42914
1.49746
1.53753
1.55666
1.55659
1.5548
1.55506
1.81632
1.95039
1.97697
1.97803
1.96962
1.95374
1.93393
1.91535
1.89807
1.88068
1.86317
1.84551
1.82797
1.80948
1.79164
1.77363
1.75638
1.73899
1.72361
1.70971
1.70689
1.71258
1.72802
1.76575
1.84946
1.99479
2.09852
2.11926
2.1057
2.08545
2.04958
2.01336
1.97927
1.95114
1.9248
1.90197
1.87827
1.85652
1.83352
1.81276
1.79065
1.77097
1.75002
1.73194
1.71281
1.69677
1.67979
1.66587
1.65063
1.63796
1.62316
1.61027
1.59524
1.58265
1.56853
1.55732
1.54449
1.53442
1.5225
1.51334
1.50216
1.49378
1.48318
1.47536
1.46509
1.45766
1.44761
1.44048
1.43069
1.42383
1.41427
1.40765
1.39828
1.39192
1.38281
1.37671
1.36786
1.36212
1.35325
1.34795
1.33896
1.33388
1.32521
1.31993
1.31227
1.30677
1.30066
1.29565
1.29194
1.29001
1.29073
1.29325
1.30078
1.31643
1.34332
1.38738
1.44998
1.49036
1.52717
1.52833
1.60838
1.8668
1.94496
1.95973
1.95753
1.94671
1.92937
1.90964
1.89149
1.87418
1.85752
1.84042
1.82405
1.80727
1.79031
1.7732
1.75668
1.74168
1.72796
1.72453
1.73021
1.74642
1.7842
1.86808
2.01267
2.12046
2.14255
2.12954
2.10752
2.0719
2.03358
2.0001
1.96911
1.94282
1.91729
1.89455
1.87085
1.84928
1.82635
1.80531
1.78276
1.76238
1.74084
1.72219
1.70283
1.68683
1.6699
1.65587
1.64011
1.62656
1.61099
1.59784
1.58281
1.57029
1.55608
1.5446
1.53141
1.521
1.5087
1.4992
1.48767
1.47896
1.46805
1.46005
1.44971
1.44234
1.43248
1.42559
1.416
1.40933
1.39988
1.39334
1.38406
1.37776
1.36878
1.36287
1.35424
1.34869
1.34032
1.33502
1.32666
1.32161
1.3131
1.30832
1.29988
1.29518
1.28747
1.28262
1.27631
1.27166
1.26763
1.2646
1.26512
1.26736
1.27177
1.28367
1.3053
1.35309
1.39579
1.43668
1.34679
1.70002
1.88037
1.92621
1.93593
1.93234
1.92061
1.90329
1.88579
1.86854
1.85206
1.83552
1.819
1.80275
1.78688
1.77113
1.75688
1.74408
1.74091
1.7469
1.76398
1.80152
1.88701
2.0302
2.14183
2.16615
2.15209
2.13058
2.09269
2.05511
2.01969
1.9887
1.95935
1.93402
1.90909
1.88669
1.86336
1.84177
1.81858
1.79706
1.77408
1.75339
1.73195
1.71354
1.6946
1.67862
1.66144
1.64667
1.6301
1.6159
1.60005
1.58678
1.57197
1.55971
1.54555