/*--------------------------------*- C++ -*----------------------------------*\
  =========                 |
  \\      /  F ield         | OpenFOAM: The Open Source CFD Toolbox
   \\    /   O peration     | Website:  https://openfoam.org
    \\  /    A nd           | Version:  9
     \\/     M anipulation  |
\*---------------------------------------------------------------------------*/
FoamFile
{
    format      ascii;
    class       volVectorField;
    location    "2";
    object      U;
}
// * * * * * * * * * * * * * * * * * * * * * * * * * * * * * * * * * * * * * //

dimensions      [0 1 -1 0 0 0 0];

internalField   nonuniform List<vector> 
5250
(
(3 1.10131e-08 0)
(2.99999 6.11712e-09 0)
(2.99998 2.21385e-07 0)
(2.99994 7.32194e-08 0)
(2.99985 1.55368e-06 0)
(2.99961 7.48193e-07 0)
(2.99906 9.4274e-06 0)
(2.99764 6.30651e-06 0)
(2.99423 5.01829e-05 0)
(2.98553 6.37074e-05 0)
(2.96352 0.000248745 0)
(2.90437 0.000510316 0)
(2.73585 0.00154145 0)
(2.23166 0.00420043 0)
(1.07045 0.012556 0)
(0.371826 0.021191 0)
(0.542348 0.0240861 0)
(0.595574 0.0259412 0)
(0.540152 0.0278078 0)
(0.445575 0.02999 0)
(0.355164 0.0327649 0)
(0.282152 0.0360517 0)
(0.210157 0.0395564 0)
(0.127973 0.0437616 0)
(0.0581669 0.0494376 0)
(3 2.14847e-08 0)
(2.99999 7.94108e-08 0)
(2.99998 4.5512e-07 0)
(2.99994 7.82711e-07 0)
(2.99985 3.33744e-06 0)
(2.99962 5.43982e-06 0)
(2.99906 2.04552e-05 0)
(2.99768 3.56256e-05 0)
(2.99428 0.000118239 0)
(2.9857 0.000242287 0)
(2.96388 0.00068139 0)
(2.90547 0.00164928 0)
(2.73887 0.00459999 0)
(2.2408 0.0129429 0)
(1.0839 0.0383619 0)
(0.380267 0.0631956 0)
(0.544018 0.0691011 0)
(0.595898 0.0715799 0)
(0.540399 0.0741986 0)
(0.446188 0.0779997 0)
(0.355888 0.082979 0)
(0.282106 0.0883558 0)
(0.208765 0.0932869 0)
(0.125036 0.0981896 0)
(0.0549003 0.103208 0)
(3 2.06985e-08 0)
(2.99999 1.88217e-07 0)
(2.99998 4.47506e-07 0)
(2.99994 1.8974e-06 0)
(2.99985 3.45348e-06 0)
(2.99963 1.23256e-05 0)
(2.99909 2.37118e-05 0)
(2.99772 7.35283e-05 0)
(2.9944 0.000161716 0)
(2.986 0.000436573 0)
(2.96468 0.00105979 0)
(2.90766 0.00282364 0)
(2.74525 0.00749492 0)
(2.26019 0.0215858 0)
(1.11399 0.0639538 0)
(0.400783 0.107448 0)
(0.548897 0.117511 0)
(0.598162 0.120775 0)
(0.543553 0.125042 0)
(0.450947 0.132736 0)
(0.361358 0.142233 0)
(0.286879 0.151923 0)
(0.212165 0.161012 0)
(0.126743 0.169491 0)
(0.0546975 0.176513 0)
(3 4.11945e-08 0)
(2.99999 2.00588e-07 0)
(2.99998 8.56177e-07 0)
(2.99994 2.02047e-06 0)
(2.99986 6.29949e-06 0)
(2.99964 1.39054e-05 0)
(2.99912 3.95137e-05 0)
(2.99779 8.94267e-05 0)
(2.99458 0.000242684 0)
(2.98644 0.00056846 0)
(2.96589 0.0014915 0)
(2.91078 0.0037499 0)
(2.75469 0.0102418 0)
(2.28849 0.0290618 0)
(1.16006 0.0865117 0)
(0.433053 0.150888 0)
(0.556527 0.166751 0)
(0.601492 0.169385 0)
(0.549566 0.174771 0)
(0.460316 0.187368 0)
(0.371711 0.202015 0)
(0.296512 0.216484 0)
(0.220332 0.230418 0)
(0.132533 0.243287 0)
(0.0568588 0.252919 0)
(3 5.31172e-08 0)
(2.99999 2.75408e-07 0)
(2.99998 1.09827e-06 0)
(2.99994 2.6424e-06 0)
(2.99986 8.21085e-06 0)
(2.99966 1.71697e-05 0)
(2.99915 5.27826e-05 0)
(2.99789 0.000106065 0)
(2.9948 0.000325561 0)
(2.98704 0.000665682 0)
(2.96733 0.00191448 0)
(2.91496 0.00455237 0)
(2.76639 0.0126147 0)
(2.32472 0.0354879 0)
(1.22166 0.105927 0)
(0.477656 0.194349 0)
(0.566176 0.218027 0)
(0.604062 0.217307 0)
(0.557811 0.222813 0)
(0.474011 0.241023 0)
(0.386254 0.261379 0)
(0.310238 0.281199 0)
(0.232596 0.300726 0)
(0.141701 0.318925 0)
(0.0609195 0.331996 0)
(3 5.80498e-08 0)
(2.99999 3.35024e-07 0)
(2.99998 1.22178e-06 0)
(2.99995 3.29853e-06 0)
(2.99987 9.04048e-06 0)
(2.99967 2.18652e-05 0)
(2.99919 5.76862e-05 0)
(2.99802 0.000134045 0)
(2.99504 0.000356952 0)
(2.98777 0.000825764 0)
(2.96913 0.00218037 0)
(2.91968 0.00540882 0)
(2.78058 0.0146598 0)
(2.36708 0.0412666 0)
(1.29961 0.123088 0)
(0.535458 0.241768 0)
(0.576545 0.267383 0)
(0.603113 0.263919 0)
(0.567683 0.270781 0)
(0.492162 0.294166 0)
(0.405427 0.321153 0)
(0.32881 0.347353 0)
(0.249961 0.374056 0)
(0.155263 0.399872 0)
(0.0673849 0.419107 0)
(3 5.62367e-08 0)
(2.99999 4.08171e-07 0)
(2.99998 1.31552e-06 0)
(2.99995 4.05202e-06 0)
(2.99988 9.80138e-06 0)
(2.9997 2.75655e-05 0)
(2.99924 6.02411e-05 0)
(2.99814 0.000172967 0)
(2.99538 0.000363454 0)
(2.98856 0.00105321 0)
(2.97115 0.00234809 0)
(2.92536 0.00638931 0)
(2.79632 0.0166253 0)
(2.41577 0.0470554 0)
(1.39702 0.139054 0)
(0.605887 0.293872 0)
(0.584534 0.31045 0)
(0.603244 0.308963 0)
(0.580603 0.321347 0)
(0.51508 0.347066 0)
(0.430349 0.380884 0)
(0.353535 0.415068 0)
(0.274359 0.451233 0)
(0.175949 0.488207 0)
(0.0783767 0.518968 0)
(3 6.92376e-08 0)
(2.99999 4.6506e-07 0)
(2.99998 1.49999e-06 0)
(2.99995 4.53713e-06 0)
(2.99989 1.13571e-05 0)
(2.99972 2.94431e-05 0)
(2.99931 7.3756e-05 0)
(2.99827 0.000178316 0)
(2.99578 0.000458646 0)
(2.98942 0.00108692 0)
(2.97357 0.002799 0)
(2.93161 0.00699988 0)
(2.8144 0.0186745 0)
(2.46992 0.0522949 0)
(1.51709 0.153331 0)
(0.688816 0.34731 0)
(0.590904 0.352016 0)
(0.610623 0.352649 0)
(0.597598 0.372234 0)
(0.541191 0.399789 0)
(0.462364 0.439817 0)
(0.387034 0.484056 0)
(0.308943 0.532983 0)
(0.208073 0.586581 0)
(0.0974964 0.639711 0)
(3 8.16455e-08 0)
(2.99999 4.78251e-07 0)
(2.99998 1.77394e-06 0)
(2.99996 4.70654e-06 0)
(2.9999 1.31353e-05 0)
(2.99975 3.15677e-05 0)
(2.99937 8.20872e-05 0)
(2.99846 0.000197316 0)
(2.99613 0.000498248 0)
(2.99051 0.00121955 0)
(2.97609 0.00305557 0)
(2.93855 0.00771642 0)
(2.83419 0.0204209 0)
(2.52851 0.0569619 0)
(1.65842 0.166135 0)
(0.785406 0.401777 0)
(0.596013 0.396199 0)
(0.622907 0.394895 0)
(0.62031 0.41982 0)
(0.571919 0.451214 0)
(0.50233 0.497584 0)
(0.432056 0.553294 0)
(0.358531 0.617559 0)
(0.261133 0.697797 0)
(0.133201 0.796628 0)
(3 8.17684e-08 0)
(2.99999 5.35974e-07 0)
(2.99999 1.81187e-06 0)
(2.99996 5.28168e-06 0)
(2.99991 1.35525e-05 0)
(2.99977 3.51755e-05 0)
(2.99945 8.56456e-05 0)
(2.99862 0.000218128 0)
(2.99663 0.000527557 0)
(2.99155 0.00133446 0)
(2.97898 0.0032848 0)
(2.94609 0.0083523 0)
(2.85543 0.0219347 0)
(2.59195 0.0610082 0)
(1.82275 0.177093 0)
(0.899916 0.454462 0)
(0.60459 0.440922 0)
(0.641627 0.436413 0)
(0.650638 0.462903 0)
(0.610005 0.500074 0)
(0.551911 0.55239 0)
(0.490563 0.618857 0)
(0.430392 0.70448 0)
(0.353268 0.830657 0)
(0.202507 1.05274 0)
(3 8.4282e-08 0)
(3 5.50645e-07 0)
(2.99999 1.84664e-06 0)
(2.99997 5.4321e-06 0)
(2.99992 1.39002e-05 0)
(2.99981 3.60575e-05 0)
(2.99952 8.94686e-05 0)
(2.99883 0.000222355 0)
(2.99706 0.000557481 0)
(2.99281 0.00137232 0)
(2.98194 0.00344472 0)
(2.9541 0.00871887 0)
(2.87814 0.0227727 0)
(2.65853 0.0632758 0)
(2.00816 0.183583 0)
(1.03663 0.499108 0)
(0.628597 0.489551 0)
(0.671342 0.484003 0)
(0.691904 0.503429 0)
(0.658752 0.543942 0)
(0.611652 0.600095 0)
(0.56759 0.67579 0)
(0.539892 0.781144 0)
(0.545837 0.939329 0)
(0.597066 1.20173 0)
(3 8.00723e-08 0)
(3 5.06092e-07 0)
(2.99999 1.78057e-06 0)
(2.99997 5.00802e-06 0)
(2.99994 1.32879e-05 0)
(2.99984 3.39158e-05 0)
(2.9996 8.40262e-05 0)
(2.99901 0.00021342 0)
(2.99759 0.000517687 0)
(2.99396 0.00132403 0)
(2.98511 0.00323694 0)
(2.9622 0.00826539 0)
(2.90105 0.02146 0)
(2.727 0.058923 0)
(2.21113 0.171061 0)
(1.21367 0.492819 0)
(0.696786 0.530388 0)
(0.722771 0.53978 0)
(0.745741 0.545319 0)
(0.721149 0.583322 0)
(0.684334 0.640971 0)
(0.65936 0.721421 0)
(0.665004 0.833502 0)
(0.73077 0.988227 0)
(0.893558 1.19021 0)
(3 7.07211e-08 0)
(3 4.37367e-07 0)
(2.99999 1.54517e-06 0)
(2.99998 4.30122e-06 0)
(2.99995 1.15377e-05 0)
(2.99987 2.87377e-05 0)
(2.99967 7.30944e-05 0)
(2.99919 0.000178484 0)
(2.99799 0.000448018 0)
(2.99508 0.00109709 0)
(2.98772 0.00274835 0)
(2.96931 0.0068388 0)
(2.9204 0.0176 0)
(2.78396 0.0473162 0)
(2.38504 0.135 0)
(1.41309 0.405085 0)
(0.788395 0.559992 0)
(0.774537 0.590523 0)
(0.793455 0.594575 0)
(0.787211 0.624881 0)
(0.763415 0.678931 0)
(0.756134 0.755487 0)
(0.784934 0.8587 0)
(0.874601 0.986912 0)
(1.05756 1.11584 0)
(3 5.7628e-08 0)
(3 3.89809e-07 0)
(2.99999 1.27558e-06 0)
(2.99998 3.84095e-06 0)
(2.99996 9.55943e-06 0)
(2.99989 2.54097e-05 0)
(2.99973 6.07147e-05 0)
(2.99932 0.000154552 0)
(2.99835 0.000374098 0)
(2.99588 0.000928732 0)
(2.98989 0.00229125 0)
(2.97457 0.00568866 0)
(2.93474 0.0143753 0)
(2.82405 0.0379411 0)
(2.50204 0.105564 0)
(1.62446 0.31368 0)
(0.892666 0.605678 0)
(0.805819 0.636382 0)
(0.825986 0.645906 0)
(0.839679 0.665588 0)
(0.835342 0.712327 0)
(0.844322 0.779446 0)
(0.887562 0.864675 0)
(0.98216 0.962226 0)
(1.15316 1.04457 0)
(3 5.51197e-08 0)
(3 3.36479e-07 0)
(2.99999 1.19986e-06 0)
(2.99999 3.31232e-06 0)
(2.99996 8.93146e-06 0)
(2.99991 2.20297e-05 0)
(2.99978 5.63504e-05 0)
(2.99945 0.000136262 0)
(2.99863 0.000343786 0)
(2.99667 0.000832386 0)
(2.99169 0.00208725 0)
(2.97936 0.00513912 0)
(2.94724 0.0130067 0)
(2.85914 0.034018 0)
(2.60484 0.0940693 0)
(1.87137 0.274346 0)
(1.0451 0.648541 0)
(0.832277 0.670881 0)
(0.850201 0.682354 0)
(0.879102 0.695376 0)
(0.896602 0.735786 0)
(0.91954 0.793618 0)
(0.97101 0.861946 0)
(1.06382 0.934211 0)
(1.21562 0.989978 0)
(3 4.85618e-08 0)
(3 3.03217e-07 0)
(3 1.07251e-06 0)
(2.99999 2.98317e-06 0)
(2.99997 8.02441e-06 0)
(2.99993 1.99546e-05 0)
(2.99982 5.0646e-05 0)
(2.99956 0.000124941 0)
(2.99893 0.000309486 0)
(2.99733 0.000773193 0)
(2.99348 0.00189893 0)
(2.98367 0.00477003 0)
(2.95878 0.0119897 0)
(2.89146 0.0312501 0)
(2.6992 0.086086 0)
(2.13038 0.249858 0)
(1.23926 0.668176 0)
(0.882218 0.70362 0)
(0.885646 0.713187 0)
(0.919129 0.720093 0)
(0.9524 0.750911 0)
(0.984808 0.800055 0)
(1.03939 0.855578 0)
(1.12746 0.909841 0)
(1.26028 0.949372 0)
(3 4.16753e-08 0)
(3 2.51007e-07 0)
(3 9.03753e-07 0)
(2.99999 2.47284e-06 0)
(2.99998 6.74338e-06 0)
(2.99995 1.64942e-05 0)
(2.99986 4.26766e-05 0)
(2.99967 0.000102183 0)
(2.99917 0.000261083 0)
(2.998 0.000628227 0)
(2.99502 0.00158924 0)
(2.98778 0.00389389 0)
(2.9693 0.00982578 0)
(2.92101 0.025191 0)
(2.78698 0.068132 0)
(2.39693 0.195481 0)
(1.50377 0.570836 0)
(0.993006 0.713389 0)
(0.947832 0.73962 0)
(0.968029 0.750125 0)
(1.00761 0.767744 0)
(1.04578 0.805403 0)
(1.09897 0.849609 0)
(1.17973 0.890775 0)
(1.2952 0.919377 0)
(3 2.99974e-08 0)
(3 2.11913e-07 0)
(3 6.78246e-07 0)
(2.99999 2.0729e-06 0)
(2.99998 5.06937e-06 0)
(2.99996 1.36818e-05 0)
(2.9999 3.18087e-05 0)
(2.99974 8.38363e-05 0)
(2.99937 0.000193136 0)
(2.99844 0.000503348 0)
(2.9962 0.0011741 0)
(2.99054 0.00301609 0)
(2.97652 0.00724515 0)
(2.93996 0.018585 0)
(2.83961 0.0482159 0)
(2.55113 0.133887 0)
(1.76727 0.400009 0)
(1.10926 0.725267 0)
(0.997953 0.76536 0)
(1.00917 0.783563 0)
(1.05113 0.790461 0)
(1.09743 0.814577 0)
(1.15021 0.847249 0)
(1.22382 0.877794 0)
(1.32447 0.898087 0)
(3 2.62731e-08 0)
(3 1.66653e-07 0)
(3 5.74911e-07 0)
(2.99999 1.63764e-06 0)
(2.99999 4.30427e-06 0)
(2.99997 1.08211e-05 0)
(2.99992 2.71972e-05 0)
(2.9998 6.63768e-05 0)
(2.99952 0.000166153 0)
(2.99882 0.000401463 0)
(2.99711 0.00100812 0)
(2.99283 0.00244728 0)
(2.98227 0.00612235 0)
(2.95495 0.0153068 0)
(2.88137 0.0397728 0)
(2.67105 0.108911 0)
(2.05842 0.318629 0)
(1.28666 0.751334 0)
(1.04534 0.799262 0)
(1.04405 0.81458 0)
(1.08401 0.815307 0)
(1.13865 0.823954 0)
(1.19323 0.846234 0)
(1.26124 0.868807 0)
(1.3498 0.883114 0)
(3 2.1932e-08 0)
(3 1.28063e-07 0)
(3 4.73189e-07 0)
(3 1.26144e-06 0)
(2.99999 3.51154e-06 0)
(2.99998 8.43363e-06 0)
(2.99994 2.20907e-05 0)
(2.99986 5.22334e-05 0)
(2.99965 0.000133976 0)
(2.99914 0.000320466 0)
(2.99791 0.000808635 0)
(2.9948 0.00196732 0)
(2.98723 0.00492195 0)
(2.96796 0.0122405 0)
(2.91724 0.0315987 0)
(2.77661 0.0851501 0)
(2.36293 0.245684 0)
(1.5508 0.674764 0)
(1.14335 0.808657 0)
(1.09906 0.832797 0)
(1.12109 0.838777 0)
(1.17494 0.83667 0)
(1.23302 0.848172 0)
(1.29599 0.863411 0)
(1.37383 0.872984 0)
(3 1.57471e-08 0)
(3 1.00786e-07 0)
(3 3.44891e-07 0)
(3 9.90276e-07 0)
(2.99999 2.57011e-06 0)
(2.99998 6.54576e-06 0)
(2.99996 1.62452e-05 0)
(2.9999 3.99805e-05 0)
(2.99975 9.90427e-05 0)
(2.99938 0.00024077 0)
(2.99849 0.00060003 0)
(2.99626 0.00145174 0)
(2.99083 0.00363461 0)
(2.97717 0.00891916 0)
(2.94191 0.0226237 0)
(2.8463 0.0593762 0)
(2.5715 0.165823 0)
(1.84942 0.491257 0)
(1.27228 0.802828 0)
(1.15659 0.843859 0)
(1.16103 0.860816 0)
(1.20704 0.856753 0)
(1.26712 0.855665 0)
(1.32748 0.862331 0)
(1.39707 0.867322 0)
(3 1.18064e-08 0)
(3 7.75444e-08 0)
(3 2.59167e-07 0)
(3 7.6176e-07 0)
(2.99999 1.94064e-06 0)
(2.99999 5.00862e-06 0)
(2.99997 1.22914e-05 0)
(2.99993 3.05174e-05 0)
(2.99982 7.53845e-05 0)
(2.99956 0.000182887 0)
(2.99892 0.000458546 0)
(2.99732 0.00109966 0)
(2.99346 0.00278364 0)
(2.98375 0.0067309 0)
(2.9591 0.0171151 0)
(2.89328 0.0438623 0)
(2.70726 0.119686 0)
(2.16663 0.351526 0)
(1.45947 0.799486 0)
(1.21634 0.867707 0)
(1.20163 0.882488 0)
(1.23342 0.879104 0)
(1.29261 0.868379 0)
(1.35462 0.866326 0)
(1.4193 0.866479 0)
(3 8.74967e-09 0)
(3 5.77241e-08 0)
(3 1.92027e-07 0)
(3 5.66992e-07 0)
(3 1.43094e-06 0)
(2.99999 3.73214e-06 0)
(2.99998 9.04977e-06 0)
(2.99995 2.27275e-05 0)
(2.99987 5.54937e-05 0)
(2.9997 0.000136033 0)
(2.99925 0.00033757 0)
(2.9982 0.000814925 0)
(2.99552 0.0020521 0)
(2.9891 0.00495335 0)
(2.97281 0.012545 0)
(2.93088 0.0316286 0)
(2.81678 0.0847556 0)
(2.48502 0.242479 0)
(1.75192 0.663887 0)
(1.32984 0.85921 0)
(1.26053 0.889391 0)
(1.27069 0.897196 0)
(1.31951 0.885257 0)
(1.38055 0.87549 0)
(1.44141 0.870379 0)
(3 6.28716e-09 0)
(3 4.07365e-08 0)
(3 1.39966e-07 0)
(3 3.98928e-07 0)
(3 1.0374e-06 0)
(2.99999 2.65086e-06 0)
(2.99999 6.43917e-06 0)
(2.99996 1.6295e-05 0)
(2.99991 3.85325e-05 0)
(2.99979 9.82775e-05 0)
(2.99948 0.000229581 0)
(2.99875 0.000587877 0)
(2.9969 0.00137404 0)
(2.99249 0.00350993 0)
(2.98131 0.00837002 0)
(2.95302 0.0213361 0)
(2.87719 0.0544931 0)
(2.66265 0.149432 0)
(2.07 0.437092 0)
(1.47705 0.836619 0)
(1.31618 0.899451 0)
(1.30789 0.914821 0)
(1.34289 0.906101 0)
(1.40192 0.887939 0)
(1.46165 0.877102 0)
(3 4.66915e-09 0)
(3 2.83942e-08 0)
(3 1.01665e-07 0)
(3 2.7834e-07 0)
(3 7.53185e-07 0)
(3 1.84454e-06 0)
(2.99999 4.68821e-06 0)
(2.99998 1.1341e-05 0)
(2.99994 2.81085e-05 0)
(2.99986 6.85932e-05 0)
(2.99966 0.000167105 0)
(2.99915 0.000413927 0)
(2.99796 0.000995779 0)
(2.99492 0.00249239 0)
(2.98764 0.0060288 0)
(2.96908 0.0151593 0)
(2.92085 0.0383872 0)
(2.78839 0.102749 0)
(2.40091 0.296463 0)
(1.72713 0.74147 0)
(1.40547 0.895042 0)
(1.35627 0.922401 0)
(1.37014 0.925105 0)
(1.42057 0.906043 0)
(1.48098 0.887565 0)
(3 3.13527e-09 0)
(3 2.03661e-08 0)
(3 6.86351e-08 0)
(3 1.99511e-07 0)
(3 5.10921e-07 0)
(3 1.30484e-06 0)
(2.99999 3.21118e-06 0)
(2.99998 7.88558e-06 0)
(2.99996 1.95006e-05 0)
(2.99991 4.68214e-05 0)
(2.99977 0.000117445 0)
(2.99944 0.000277912 0)
(2.99864 0.000704545 0)
(2.99668 0.00166114 0)
(2.99186 0.00422269 0)
(2.97993 0.010133 0)
(2.94942 0.0258674 0)
(2.86822 0.066797 0)
(2.63674 0.185879 0)
(2.04232 0.530701 0)
(1.54286 0.86728 0)
(1.41407 0.92512 0)
(1.40567 0.939015 0)
(1.43905 0.927563 0)
(1.49569 0.901824 0)
(3 2.1127e-09 0)
(3 1.39926e-08 0)
(3 4.69906e-08 0)
(3 1.3693e-07 0)
(3 3.48191e-07 0)
(3 9.02518e-07 0)
(3 2.1656e-06 0)
(2.99999 5.49923e-06 0)
(2.99997 1.29919e-05 0)
(2.99994 3.28581e-05 0)
(2.99985 7.76376e-05 0)
(2.99964 0.000195213 0)
(2.99911 0.000463698 0)
(2.99785 0.00115972 0)
(2.99469 0.00278634 0)
(2.98708 0.00694113 0)
(2.96777 0.017025 0)
(2.91751 0.0436658 0)
(2.77981 0.116141 0)
(2.38092 0.337034 0)
(1.7684 0.775704 0)
(1.49396 0.916248 0)
(1.44986 0.943246 0)
(1.46161 0.944876 0)
(1.50826 0.922254 0)
(3 1.51453e-09 0)
(3 9.05696e-09 0)
(3 3.27249e-08 0)
(3 8.86582e-08 0)
(3 2.41503e-07 0)
(3 5.85617e-07 0)
(3 1.49847e-06 0)
(2.99999 3.57356e-06 0)
(2.99998 8.94063e-06 0)
(2.99996 2.14801e-05 0)
(2.99991 5.28197e-05 0)
(2.99977 0.000128833 0)
(2.99944 0.000311455 0)
(2.99862 0.000772928 0)
(2.99667 0.00184711 0)
(2.99178 0.00463304 0)
(2.97991 0.0111979 0)
(2.94945 0.028367 0)
(2.86879 0.0734248 0)
(2.63923 0.20465 0)
(2.07505 0.566059 0)
(1.62553 0.883449 0)
(1.50755 0.942425 0)
(1.49578 0.955527 0)
(1.52292 0.944095 0)
(3 9.74431e-10 0)
(3 6.10825e-09 0)
(3 2.10846e-08 0)
(3 5.97271e-08 0)
(3 1.55981e-07 0)
(3 3.90241e-07 0)
(3 9.74657e-07 0)
(3 2.35044e-06 0)
(2.99999 5.8801e-06 0)
(2.99998 1.39153e-05 0)
(2.99994 3.50416e-05 0)
(2.99985 8.23405e-05 0)
(2.99965 0.000208054 0)
(2.99913 0.000488449 0)
(2.99791 0.00123141 0)
(2.99487 0.00291976 0)
(2.9875 0.00732903 0)
(2.96898 0.0178048 0)
(2.921 0.0456074 0)
(2.79045 0.120816 0)
(2.41609 0.347443 0)
(1.84788 0.777604 0)
(1.58586 0.926202 0)
(1.53872 0.955384 0)
(1.54523 0.958947 0)
(3 6.00982e-10 0)
(3 4.0475e-09 0)
(3 1.3368e-08 0)
(3 3.9527e-08 0)
(3 9.91236e-08 0)
(3 2.58679e-07 0)
(3 6.16909e-07 0)
(3 1.56024e-06 0)
(2.99999 3.70721e-06 0)
(2.99998 9.22644e-06 0)
(2.99996 2.20998e-05 0)
(2.99991 5.42874e-05 0)
(2.99978 0.000131807 0)
(2.99947 0.00031853 0)
(2.9987 0.000785952 0)
(2.99686 0.00188051 0)
(2.9923 0.00468943 0)
(2.9812 0.0113254 0)
(2.95291 0.0285608 0)
(2.87861 0.0734045 0)
(2.6681 0.203292 0)
(2.15173 0.554432 0)
(1.71852 0.886127 0)
(1.5956 0.952451 0)
(1.57861 0.966915 0)
(3 3.90643e-10 0)
(3 2.54038e-09 0)
(3 8.65765e-09 0)
(3 2.47713e-08 0)
(3 6.39291e-08 0)
(3 1.62712e-07 0)
(3 3.94209e-07 0)
(3 9.87968e-07 0)
(3 2.34011e-06 0)
(2.99999 5.8705e-06 0)
(2.99998 1.3827e-05 0)
(2.99995 3.46544e-05 0)
(2.99987 8.16631e-05 0)
(2.99968 0.00020372 0)
(2.99921 0.000484099 0)
(2.99812 0.00119722 0)
(2.99537 0.00287799 0)
(2.98881 0.0070958 0)
(2.97231 0.0173853 0)
(2.93026 0.043947 0)
(2.81698 0.115976 0)
(2.49321 0.329946 0)
(1.95504 0.750406 0)
(1.67984 0.924736 0)
(1.62333 0.960435 0)
(3 2.56103e-10 0)
(3 1.54562e-09 0)
(3 5.54952e-09 0)
(3 1.50822e-08 0)
(3 4.07984e-08 0)
(3 9.91741e-08 0)
(3 2.51229e-07 0)
(3 6.00482e-07 0)
(3 1.48548e-06 0)
(2.99999 3.57678e-06 0)
(2.99999 8.69545e-06 0)
(2.99997 2.11971e-05 0)
(2.99992 5.07881e-05 0)
(2.9998 0.000125604 0)
(2.99953 0.000296721 0)
(2.99886 0.000741963 0)
(2.99722 0.00174685 0)
(2.99327 0.00438192 0)
(2.98348 0.0104688 0)
(2.95903 0.0263476 0)
(2.89521 0.0667844 0)
(2.71654 0.182546 0)
(2.26207 0.499182 0)
(1.82223 0.867155 0)
(1.67925 0.950277 0)
(3 1.57813e-10 0)
(3 9.63201e-10 0)
(3 3.40588e-09 0)
(3 9.40835e-09 0)
(3 2.50307e-08 0)
(3 6.14253e-08 0)
(3 1.54994e-07 0)
(3 3.68723e-07 0)
(3 9.23033e-07 0)
(3 2.17349e-06 0)
(2.99999 5.42881e-06 0)
(2.99998 1.28042e-05 0)
(2.99995 3.17658e-05 0)
(2.99988 7.54999e-05 0)
(2.99973 0.000185451 0)
(2.99933 0.000445512 0)
(2.9984 0.00108397 0)
(2.99608 0.00263631 0)
(2.99057 0.00639402 0)
(2.97681 0.015767 0)
(2.94235 0.0393229 0)
(2.85105 0.102794 0)
(2.59151 0.288872 0)
(2.08165 0.691479 0)
(1.77507 0.908825 0)
(3 9.06951e-11 0)
(3 6.04259e-10 0)
(3 2.00149e-09 0)
(3 5.88142e-09 0)
(3 1.47976e-08 0)
(3 3.81539e-08 0)
(3 9.1459e-08 0)
(3 2.2778e-07 0)
(3 5.44533e-07 0)
(3 1.33102e-06 0)
(3 3.21041e-06 0)
(2.99999 7.73524e-06 0)
(2.99997 1.88862e-05 0)
(2.99993 4.48792e-05 0)
(2.99984 0.00011063 0)
(2.99961 0.000261108 0)
(2.99904 0.000646403 0)
(2.99769 0.0015216 0)
(2.9944 0.00377834 0)
(2.98637 0.00898484 0)
(2.9664 0.0223997 0)
(2.91504 0.055823 0)
(2.77424 0.149162 0)
(2.39691 0.409853 0)
(1.94206 0.80879 0)
(3 5.63249e-11 0)
(3 3.56623e-10 0)
(3 1.2381e-09 0)
(3 3.47142e-09 0)
(3 9.0989e-09 0)
(3 2.26501e-08 0)
(3 5.57967e-08 0)
(3 1.36528e-07 0)
(3 3.28108e-07 0)
(3 8.07155e-07 0)
(3 1.91285e-06 0)
(2.99999 4.73844e-06 0)
(2.99998 1.11658e-05 0)
(2.99996 2.76799e-05 0)
(2.99991 6.5285e-05 0)
(2.99977 0.000161563 0)
(2.99945 0.000382197 0)
(2.99869 0.000941988 0)
(2.99679 0.00224971 0)
(2.99229 0.00552281 0)
(2.98109 0.0133931 0)
(2.95326 0.0334027 0)
(2.88053 0.0855183 0)
(2.67511 0.235477 0)
(2.2184 0.602424 0)
(3 3.41452e-11 0)
(3 2.09889e-10 0)
(3 7.39036e-10 0)
(3 2.04592e-09 0)
(3 5.42067e-09 0)
(3 1.33013e-08 0)
(3 3.33827e-08 0)
(3 7.94672e-08 0)
(3 1.96966e-07 0)
(3 4.66316e-07 0)
(3 1.1491e-06 0)
(3 2.72394e-06 0)
(2.99999 6.67513e-06 0)
(2.99998 1.59263e-05 0)
(2.99995 3.86729e-05 0)
(2.99987 9.30516e-05 0)
(2.99969 0.000223931 0)
(2.99925 0.000544295 0)
(2.99822 0.0012985 0)
(2.99565 0.00318364 0)
(2.98957 0.00762662 0)
(2.9744 0.0188391 0)
(2.93637 0.0467931 0)
(2.83476 0.122715 0)
(2.55244 0.341236 0)
(3 1.91403e-11 0)
(3 1.25627e-10 0)
(3 4.21314e-10 0)
(3 1.22155e-09 0)
(3 3.09558e-09 0)
(3 7.91897e-09 0)
(3 1.90217e-08 0)
(3 4.71445e-08 0)
(3 1.12149e-07 0)
(3 2.74651e-07 0)
(3 6.55689e-07 0)
(3 1.58958e-06 0)
(2.99999 3.81978e-06 0)
(2.99999 9.18227e-06 0)
(2.99997 2.22687e-05 0)
(2.99993 5.29548e-05 0)
(2.99982 0.000129429 0)
(2.99958 0.000306348 0)
(2.99898 0.000750879 0)
(2.99756 0.00177582 0)
(2.99411 0.00436719 0)
(2.98571 0.0104354 0)
(2.96489 0.0258662 0)
(2.91161 0.064727 0)
(2.76492 0.173898 0)
(3 1.14894e-11 0)
(3 7.09158e-11 0)
(3 2.49594e-10 0)
(3 6.89787e-10 0)
(3 1.82646e-09 0)
(3 4.4899e-09 0)
(3 1.11509e-08 0)
(3 2.68687e-08 0)
(3 6.52258e-08 0)
(3 1.57425e-07 0)
(3 3.77646e-07 0)
(3 9.18911e-07 0)
(3 2.17969e-06 0)
(2.99999 5.34598e-06 0)
(2.99998 1.26175e-05 0)
(2.99996 3.09828e-05 0)
(2.9999 7.31728e-05 0)
(2.99977 0.000179398 0)
(2.99944 0.000424615 0)
(2.99866 0.00103874 0)
(2.99678 0.00247638 0)
(2.99227 0.0060447 0)
(2.98119 0.0146207 0)
(2.95369 0.0363109 0)
(2.88239 0.0926554 0)
(3 6.43517e-12 0)
(3 4.10614e-11 0)
(3 1.3979e-10 0)
(3 3.98294e-10 0)
(3 1.02469e-09 0)
(3 2.56823e-09 0)
(3 6.2863e-09 0)
(3 1.52012e-08 0)
(3 3.70747e-08 0)
(3 8.79819e-08 0)
(3 2.15971e-07 0)
(3 5.07622e-07 0)
(3 1.25167e-06 0)
(3 2.93145e-06 0)
(2.99999 7.21731e-06 0)
(2.99998 1.69646e-05 0)
(2.99995 4.15345e-05 0)
(2.99987 9.81458e-05 0)
(2.9997 0.000238572 0)
(2.99927 0.000568713 0)
(2.99828 0.00136999 0)
(2.99582 0.00330152 0)
(2.99003 0.00794215 0)
(2.97563 0.0194027 0)
(2.93984 0.0480128 0)
(3 3.55431e-12 0)
(3 2.30113e-11 0)
(3 7.8416e-11 0)
(3 2.23359e-10 0)
(3 5.73087e-10 0)
(3 1.44823e-09 0)
(3 3.48013e-09 0)
(3 8.6107e-09 0)
(3 2.02972e-08 0)
(3 5.00742e-08 0)
(3 1.17244e-07 0)
(3 2.88368e-07 0)
(3 6.77553e-07 0)
(3 1.65344e-06 0)
(2.99999 3.91267e-06 0)
(2.99999 9.46244e-06 0)
(2.99997 2.25933e-05 0)
(2.99993 5.40317e-05 0)
(2.99984 0.000130543 0)
(2.99961 0.000308445 0)
(2.99906 0.000752761 0)
(2.99774 0.00176845 0)
(2.99458 0.00434178 0)
(2.98687 0.0102837 0)
(2.968 0.025411 0)
(3 2.03868e-12 0)
(3 1.25339e-11 0)
(3 4.43228e-11 0)
(3 1.21822e-10 0)
(3 3.23498e-10 0)
(3 7.90213e-10 0)
(3 1.9663e-09 0)
(3 4.69094e-09 0)
(3 1.14316e-08 0)
(3 2.73127e-08 0)
(3 6.5597e-08 0)
(3 1.58259e-07 0)
(3 3.75639e-07 0)
(3 9.12744e-07 0)
(3 2.15528e-06 0)
(2.99999 5.25563e-06 0)
(2.99998 1.23675e-05 0)
(2.99996 3.01849e-05 0)
(2.99991 7.1169e-05 0)
(2.99979 0.000173032 0)
(2.9995 0.000410367 0)
(2.99881 0.000991943 0)
(2.99712 0.00237312 0)
(2.99314 0.00572676 0)
(2.98332 0.0138732 0)
(3 1.10917e-12 0)
(3 6.9888e-12 0)
(3 2.39003e-11 0)
(3 6.7743e-11 0)
(3 1.74598e-10 0)
(3 4.36419e-10 0)
(3 1.06562e-09 0)
(3 2.57061e-09 0)
(3 6.23635e-09 0)
(3 1.47994e-08 0)
(3 3.60338e-08 0)
(3 8.49731e-08 0)
(3 2.06909e-07 0)
(3 4.87802e-07 0)
(3 1.18562e-06 0)
(3 2.7997e-06 0)
(2.99999 6.77882e-06 0)
(2.99998 1.6092e-05 0)
(2.99995 3.86982e-05 0)
(2.99989 9.24279e-05 0)
(2.99974 0.000220905 0)
(2.99937 0.00053169 0)
(2.99853 0.00126167 0)
(2.99644 0.0030608 0)
(2.99156 0.00728621 0)
(3 6.14149e-13 0)
(3 3.75824e-12 0)
(3 1.30055e-11 0)
(3 3.66166e-11 0)
(3 9.45697e-11 0)
(3 2.36527e-10 0)
(3 5.7198e-10 0)
(3 1.39942e-09 0)
(3 3.31844e-09 0)
(3 8.09187e-09 0)
(3 1.90491e-08 0)
(3 4.63535e-08 0)
(3 1.09189e-07 0)
(3 2.64733e-07 0)
(3 6.24526e-07 0)
(3 1.50842e-06 0)
(3 3.57707e-06 0)
(2.99999 8.56503e-06 0)
(2.99998 2.0471e-05 0)
(2.99994 4.85849e-05 0)
(2.99986 0.000116972 0)
(2.99968 0.000275368 0)
(2.99922 0.00066675 0)
(2.99816 0.00156457 0)
(2.99559 0.00379613 0)
(3 3.11055e-13 0)
(3 2.00739e-12 0)
(3 7.06093e-12 0)
(3 1.95363e-11 0)
(3 5.10666e-11 0)
(3 1.25378e-10 0)
(3 3.09584e-10 0)
(3 7.37612e-10 0)
(3 1.79579e-09 0)
(3 4.24604e-09 0)
(3 1.02784e-08 0)
(3 2.43391e-08 0)
(3 5.85057e-08 0)
(3 1.39333e-07 0)
(3 3.3237e-07 0)
(3 7.96136e-07 0)
(3 1.88625e-06 0)
(2.99999 4.54777e-06 0)
(2.99999 1.06987e-05 0)
(2.99997 2.58936e-05 0)
(2.99993 6.08379e-05 0)
(2.99983 0.000146945 0)
(2.9996 0.000346387 0)
(2.99905 0.00083318 0)
(2.99773 0.00197634 0)
(3 1.35357e-13 0)
(3 1.05103e-12 0)
(3 3.5897e-12 0)
(3 1.04223e-11 0)
(3 2.64489e-11 0)
(3 6.72586e-11 0)
(3 1.60657e-10 0)
(3 3.94873e-10 0)
(3 9.33971e-10 0)
(3 2.26048e-09 0)
(3 5.36603e-09 0)
(3 1.28407e-08 0)
(3 3.07531e-08 0)
(3 7.27169e-08 0)
(3 1.75954e-07 0)
(3 4.12035e-07 0)
(3 1.00267e-06 0)
(3 2.34052e-06 0)
(2.99999 5.70182e-06 0)
(2.99998 1.33028e-05 0)
(2.99996 3.23285e-05 0)
(2.99992 7.58234e-05 0)
(2.9998 0.000182867 0)
(2.99952 0.000432705 0)
(2.99884 0.00103496 0)
(3 9.43281e-14 0)
(3 5.45264e-13 0)
(3 1.89349e-12 0)
(3 5.34119e-12 0)
(3 1.39994e-11 0)
(3 3.44165e-11 0)
(3 8.51212e-11 0)
(3 2.02284e-10 0)
(3 4.92653e-10 0)
(3 1.1606e-09 0)
(3 2.81349e-09 0)
(3 6.61856e-09 0)
(3 1.5991e-08 0)
(3 3.77079e-08 0)
(3 9.06564e-08 0)
(3 2.14739e-07 0)
(3 5.13245e-07 0)
(3 1.22311e-06 0)
(3 2.90161e-06 0)
(2.99999 6.96421e-06 0)
(2.99998 1.64059e-05 0)
(2.99996 3.95895e-05 0)
(2.9999 9.28306e-05 0)
(2.99976 0.000224631 0)
(2.99943 0.000526249 0)
(3 5.32533e-14 0)
(3 3.05302e-13 0)
(3 1.01595e-12 0)
(3 2.78606e-12 0)
(3 7.15052e-12 0)
(3 1.77652e-11 0)
(3 4.33142e-11 0)
(3 1.04346e-10 0)
(3 2.501e-10 0)
(3 5.99075e-10 0)
(3 1.42287e-09 0)
(3 3.41589e-09 0)
(3 8.06251e-09 0)
(3 1.94119e-08 0)
(3 4.56617e-08 0)
(3 1.10088e-07 0)
(3 2.58441e-07 0)
(3 6.22975e-07 0)
(3 1.46366e-06 0)
(3 3.51794e-06 0)
(2.99999 8.28114e-06 0)
(2.99998 1.98331e-05 0)
(2.99995 4.68597e-05 0)
(2.99988 0.000111543 0)
(2.99972 0.000264822 0)
(3 1.4741e-14 0)
(3 1.2678e-13 0)
(3 4.32133e-13 0)
(3 1.28007e-12 0)
(3 3.47455e-12 0)
(3 8.66829e-12 0)
(3 2.15036e-11 0)
(3 5.13434e-11 0)
(3 1.2417e-10 0)
(3 2.95564e-10 0)
(3 7.04494e-10 0)
(3 1.68382e-09 0)
(3 3.97907e-09 0)
(3 9.571e-09 0)
(3 2.24025e-08 0)
(3 5.41935e-08 0)
(3 1.26338e-07 0)
(3 3.05781e-07 0)
(3 7.12355e-07 0)
(3 1.71909e-06 0)
(3 4.0185e-06 0)
(2.99999 9.633e-06 0)
(2.99997 2.26562e-05 0)
(2.99994 5.38222e-05 0)
(2.99986 0.000127532 0)
(3 -2.97278e-15 0)
(3 3.36631e-14 0)
(3 1.66252e-13 0)
(3 5.88173e-13 0)
(3 1.61115e-12 0)
(3 4.0547e-12 0)
(3 9.94931e-12 0)
(3 2.36348e-11 0)
(3 5.66154e-11 0)
(3 1.34901e-10 0)
(3 3.18858e-10 0)
(3 7.68767e-10 0)
(3 1.78801e-09 0)
(3 4.35422e-09 0)
(3 1.00523e-08 0)
(3 2.44864e-08 0)
(3 5.66594e-08 0)
(3 1.3703e-07 0)
(3 3.19124e-07 0)
(3 7.64395e-07 0)
(3 1.79741e-06 0)
(2.99999 4.24596e-06 0)
(2.99999 1.01016e-05 0)
(2.99997 2.35345e-05 0)
(2.99992 5.66303e-05 0)
(3 -6.04667e-15 0)
(3 6.45252e-15 0)
(3 5.9199e-14 0)
(3 1.82579e-13 0)
(3 5.44728e-13 0)
(3 1.20671e-12 0)
(3 3.02376e-12 0)
(3 6.78614e-12 0)
(3 1.65263e-11 0)
(3 3.78243e-11 0)
(3 9.22915e-11 0)
(3 2.12468e-10 0)
(3 5.14914e-10 0)
(3 1.19913e-09 0)
(3 2.86636e-09 0)
(3 6.74812e-09 0)
(3 1.59641e-08 0)
(3 3.77957e-08 0)
(3 8.86638e-08 0)
(3 2.10939e-07 0)
(3 4.91143e-07 0)
(3 1.17412e-06 0)
(2.99999 2.70992e-06 0)
(2.99998 6.47688e-06 0)
(2.99995 1.49992e-05 0)
(1.28589 1.10402 0)
(1.70297 0.900081 0)
(1.88852 0.630609 0)
(1.9151 0.36151 0)
(1.86412 0.136585 0)
(1.76797 -0.0113792 0)
(1.67122 -0.0469245 0)
(1.62505 -0.0156157 0)
(1.61925 0.0248158 0)
(1.62359 0.0451797 0)
(1.62953 0.043474 0)
(1.63267 0.0323182 0)
(1.63252 0.0217527 0)
(1.63197 0.0133945 0)
(1.6308 0.0100107 0)
(1.63096 0.0105654 0)
(1.63319 0.0118517 0)
(1.63617 0.0129078 0)
(1.63967 0.0134054 0)
(1.64412 0.0131073 0)
(1.64916 0.0116245 0)
(1.65429 0.00962176 0)
(1.65966 0.008072 0)
(1.66543 0.00719017 0)
(1.67162 0.00670115 0)
(1.67816 0.00633612 0)
(1.68498 0.0059547 0)
(1.69203 0.00553177 0)
(1.69929 0.00509542 0)
(1.70674 0.00468266 0)
(1.71436 0.00431528 0)
(1.72212 0.00399942 0)
(1.73 0.00373107 0)
(1.73795 0.00350115 0)
(1.74594 0.00330354 0)
(1.75383 0.00314171 0)
(1.76146 0.00302211 0)
(1.76768 0.00298981 0)
(1.77242 0.00292352 0)
(1.77599 0.00285218 0)
(1.7764 0.00291909 0)
(1.76934 0.00343973 0)
(1.74527 0.00517565 0)
(1.68248 0.00985821 0)
(1.5303 0.0211995 0)
(1.17295 0.0484042 0)
(0.564341 0.118661 0)
(0.134427 0.140165 0)
(0.0683795 0.00162217 0)
(0.218725 -0.109103 0)
(0.365742 -0.125753 0)
(0.473097 -0.110235 0)
(0.572956 -0.0880292 0)
(0.664418 -0.0711642 0)
(0.74356 -0.056659 0)
(0.813915 -0.045056 0)
(0.882465 -0.0378376 0)
(0.949596 -0.0347702 0)
(1.01067 -0.0316965 0)
(1.06532 -0.0289313 0)
(1.11515 -0.0263427 0)
(1.16168 -0.0238643 0)
(1.20571 -0.021585 0)
(1.2476 -0.0195636 0)
(1.28766 -0.017826 0)
(1.32607 -0.0163358 0)
(1.36302 -0.0150444 0)
(1.39864 -0.0138925 0)
(1.43308 -0.0128361 0)
(1.46645 -0.0118472 0)
(1.49885 -0.0109097 0)
(1.53038 -0.0100232 0)
(1.5611 -0.00917378 0)
(1.59107 -0.00836758 0)
(1.62032 -0.00759416 0)
(1.64886 -0.00686223 0)
(1.67672 -0.00616974 0)
(1.70392 -0.00551827 0)
(1.73051 -0.00489747 0)
(1.75647 -0.00429456 0)
(1.78186 -0.0037561 0)
(1.8067 -0.0032929 0)
(1.83107 -0.00288527 0)
(1.85496 -0.00254182 0)
(1.87844 -0.00225196 0)
(1.90147 -0.00205862 0)
(1.92412 -0.00188314 0)
(1.94643 -0.00168638 0)
(1.96845 -0.00146145 0)
(1.99019 -0.00124371 0)
(2.01166 -0.00103339 0)
(2.03284 -0.000844387 0)
(2.05373 -0.000659533 0)
(2.07431 -0.000483269 0)
(2.09456 -0.000296631 0)
(2.11435 -9.49105e-05 0)
(2.13345 0.000149463 0)
(2.15112 0.000516077 0)
(2.16586 0.000940923 0)
(2.17699 0.00199059 0)
(1.3761 1.00942 0)
(1.69517 0.721578 0)
(1.87126 0.402374 0)
(1.95635 0.129487 0)
(2.00728 -0.0656638 0)
(2.03826 -0.167454 0)
(2.04835 -0.172424 0)
(2.04773 -0.130792 0)
(2.03524 -0.0822045 0)
(2.01473 -0.0434014 0)
(1.99934 -0.0216386 0)
(1.99575 -0.0153848 0)
(1.99736 -0.0172151 0)
(2.00041 -0.0216751 0)
(2.0038 -0.0242506 0)
(2.00593 -0.0245249 0)
(2.00731 -0.0233369 0)
(2.0086 -0.0213747 0)
(2.01002 -0.0193421 0)
(2.0117 -0.0177417 0)
(2.01376 -0.016951 0)
(2.01658 -0.0166562 0)
(2.0201 -0.0164966 0)
(2.02381 -0.0162966 0)
(2.02747 -0.0160379 0)
(2.03113 -0.0157363 0)
(2.03487 -0.0154084 0)
(2.03877 -0.0150583 0)
(2.04285 -0.0146914 0)
(2.0471 -0.0143143 0)