/*--------------------------------*- C++ -*----------------------------------*\
  =========                 |
  \\      /  F ield         | OpenFOAM: The Open Source CFD Toolbox
   \\    /   O peration     | Website:  https://openfoam.org
    \\  /    A nd           | Version:  9
     \\/     M anipulation  |
\*---------------------------------------------------------------------------*/
FoamFile
{
    format      ascii;
    class       volScalarField;
    location    "25";
    object      p;
}
// * * * * * * * * * * * * * * * * * * * * * * * * * * * * * * * * * * * * * //

dimensions      [0 2 -2 0 0 0 0];

internalField   nonuniform List<scalar> 
400
(
4.3519889e-07
-0.00067238453
-0.0013848543
-0.0019422073
-0.0022194965
-0.0021559902
-0.0017272837
-0.00092569274
0.00023592632
0.0017079086
0.0033877865
0.0051126939
0.0066739743
0.0078496001
0.0084588928
0.008424196
0.007813917
0.0068450429
0.0058618263
0.0052994714
0.00065832588
-4.0033462e-05
-0.00056916486
-0.00094012727
-0.0011103616
-0.0010394165
-0.00070528339
-9.5036466e-05
0.00078960729
0.0019166919
0.0032100884
0.0045552061
0.0057824657
0.0067167627
0.0072149347
0.0072150445
0.0067704748
0.0060532917
0.0053110519
0.0047390117
0.0014241839
0.00044113887
-0.00011610821
-0.00045274796
-0.00061430952
-0.00058430888
-0.00034607502
0.00012025077
0.00082896868
0.0017704154
0.0028947986
0.0040986704
0.0052287464
0.0061114823
0.0065943801
0.0065981771
0.0061562521
0.0054220278
0.0045942665
0.0037487565
0.002014677
0.00068217166
1.7258487e-05
-0.00035836042
-0.00057105221
-0.00062605834
-0.00050957761
-0.00019012221
0.00036901408
0.0011849006
0.0022304277
0.0034179392
0.0045918765
0.0055574523
0.0061240676
0.0061670758
0.0056841367
0.0048175692
0.0037478145
0.0024741234
0.0021677462
0.00049660084
-0.00029577204
-0.00074821404
-0.0010577567
-0.0012447683
-0.0012922413
-0.0011507902
-0.00075453436
-5.2580731e-05
0.0009575457
0.0022108024
0.0035452265
0.0047331805
0.0055223622
0.0057104036
0.0052298069
0.0042021268
0.0028067092
0.00098448979
0.0016544376
-0.00031399615
-0.0012382997
-0.001798808
-0.002252163
-0.0026274034
-0.0028981081
-0.0029905633
-0.0028020135
-0.0022371505
-0.0012505667
0.00013142212
0.001745175
0.0033276373
0.0045421696
0.0050663031
0.0047180195
0.0035667241
0.0017901212
-0.00072538959
0.00028750401
-0.0019190841
-0.0029725066
-0.0036708836
-0.0043197898
-0.0049526853
-0.0055295964
-0.005947421
-0.0060584641
-0.0057068381
-0.0047751699
-0.0032581499
-0.0012659654
0.00090771748
0.0028236616
0.0039873673
0.0040256236
0.0028882375
0.00071591095
-0.0026799628
-0.0020759424
-0.0044506984
-0.005626305
-0.0064918155
-0.0073924017
-0.0083652325
-0.0093563802
-0.01023123
-0.010790408
-0.010804273
-0.010062792
-0.0084611936
-0.0060402033
-0.0030826606
-0.00012575902
0.0021131632
0.0029643624
0.0021361157
-0.00036549693
-0.004872066
-0.0055236685
-0.0079916098
-0.0092774121
-0.010333272
-0.011537468
-0.012934869
-0.014462147
-0.015955747
-0.017161878
-0.017765439
-0.017437485
-0.015918882
-0.013122373
-0.0092511812
-0.0048984406
-0.0010294601
0.0012699561
0.0012783056
-0.0013334141
-0.0072011254
-0.0100764
-0.012564579
-0.013936144
-0.015183476
-0.016717839
-0.018602064
-0.020773623
-0.023048175
-0.025121084
-0.026585737
-0.026968731
-0.025812326
-0.022845068
-0.018073848
-0.012050503
-0.0059513794
-0.001370179
0.00030114575
-0.0019466518
-0.0093816666
-0.01568446
-0.018131884
-0.019537023
-0.020926269
-0.022757191
-0.025129312
-0.027996423
-0.031165803
-0.034290856
-0.036876223
-0.038293541
-0.037843644
-0.035065227
-0.02960085
-0.021821892
-0.012984988
-0.0051844031
-0.00071518979
-0.0017636428
-0.010791694
-0.022243058
-0.024612499
-0.02594505
-0.027334406
-0.029323602
-0.032078661
-0.035588357
-0.039664046
-0.043926652
-0.047800671
-0.05052955
-0.051235843
-0.048956242
-0.043142921
-0.033768404
-0.021925748
-0.010036304
-0.0014148786
-9.3091704e-06
-0.010225061
-0.029640664
-0.031923349
-0.0329782
-0.034079312
-0.035938941
-0.038830942
-0.042795029
-0.047650981
-0.052989913
-0.058162956
-0.062283612
-0.064264898
-0.06287453
-0.057111569
-0.046476138
-0.031648498
-0.015037287
-0.000863827
0.0046473168
-0.0055209882
-0.037865447
-0.040047962
-0.040439592
-0.040751965
-0.042014478
-0.044652487
-0.048757607
-0.054143459
-0.060355418
-0.066664723
-0.072060063
-0.075267663
-0.074810752
-0.06926867
-0.057627725
-0.039960939
-0.018247413
0.0027895881
0.014445699
0.0069080815
-0.047230033
-0.049133805
-0.048140032
-0.046881759
-0.046904947
-0.048798122
-0.05266771
-0.058275422
-0.065075498
-0.072231386
-0.078595159
-0.08271172
-0.082879623
-0.077308823
-0.064523388
-0.043934417
-0.016747458
0.012503473
0.032939306
0.032409466
-0.05889625
-0.05963934
-0.05588336
-0.051940526
-0.049971794
-0.050629334
-0.053928083
-0.059494762
-0.06661127
-0.074284701
-0.081190576
-0.085678824
-0.085831236
-0.079521656
-0.064875583
-0.040688765
-0.0072404262
0.032139866
0.064981945
0.07774967
-0.076225991
-0.072613227
-0.063515637
-0.055434853
-0.050724516
-0.049781084
-0.052311804
-0.057663805
-0.064891245
-0.07277439
-0.07977879
-0.084036185
-0.083391114
-0.075348447
-0.057602184
-0.028374669
0.01293379
0.065396942
0.11555198
0.15150669
-0.10809172
-0.089555892
-0.071233346
-0.057232499
-0.049071632
-0.046329715
-0.048076746
-0.053202064
-0.060434062
-0.068295297
-0.07502683
-0.078526365
-0.07638848
-0.065809175
-0.043865006
-0.0078179943
0.044394112
0.11299859
0.18838087
0.27186121
-0.17684499
-0.10828925
-0.076202055
-0.054650787
-0.04299191
-0.038997543
-0.040570005
-0.045927515
-0.053440991
-0.061437802
-0.06802703
-0.070962016
-0.067550613
-0.054739339
-0.029148343
0.013564051
0.078147395
0.17006479
0.2894959
0.47421865
-0.37208299
-0.12470799
-0.054972604
-0.031962062
-0.022063097
-0.020300047
-0.024358962
-0.031957483
-0.041261023
-0.050640338
-0.05831635
-0.062186921
-0.059782028
-0.04805631
-0.022658053
0.021474663
0.092819163
0.2101532
0.40288886
0.77640972
)
;

boundaryField
{
    movingWall
    {
        type            zeroGradient;
    }
    fixedWalls
    {
        type            zeroGradient;
    }
    frontAndBack
    {
        type            empty;
    }
}


// ************************************************************************* //
