/*--------------------------------*- C++ -*----------------------------------*\
  =========                 |
  \\      /  F ield         | OpenFOAM: The Open Source CFD Toolbox
   \\    /   O peration     | Website:  https://openfoam.org
    \\  /    A nd           | Version:  9
     \\/     M anipulation  |
\*---------------------------------------------------------------------------*/
FoamFile
{
    format      ascii;
    class       surfaceScalarField;
    location    "25";
    object      phi;
}
// * * * * * * * * * * * * * * * * * * * * * * * * * * * * * * * * * * * * * //

dimensions      [0 3 -1 0 0 0 0];

internalField   nonuniform List<scalar> 
760
(
1.2700571e-05
-1.270561e-05
-2.8724349e-05
4.1424925e-05
-0.00012229242
9.3568075e-05
-0.00025039668
0.00012810427
-0.00039607582
0.00014567915
-0.00054539245
0.00014931665
-0.0006862735
0.00014088106
-0.00080689456
0.00012062107
-0.00089495522
8.8060663e-05
-0.0009383934
4.3438172e-05
-0.00092727707
-1.1116337e-05
-0.00085686394
-7.041314e-05
-0.00073043055
-0.00012643341
-0.00056134238
-0.00016908819
-0.00037276058
-0.00018858179
-0.00019447412
-0.00017828643
-5.6522038e-05
-0.00013795204
1.9614313e-05
-7.6136323e-05
3.0411229e-05
-1.0796907e-05
3.0411244e-05
-4.3183856e-05
3.0478251e-05
-0.00020456716
0.00020280825
-0.00046832538
0.00035732631
-0.00080070843
0.00046048733
-0.001167351
0.00051232177
-0.0015364499
0.00051841554
-0.001878228
0.00048265913
-0.0021636824
0.00040607548
-0.0023645443
0.0002889226
-0.0024553511
0.00013424495
-0.002418144
-4.8323413e-05
-0.0022453595
-0.00024319769
-0.0019475573
-0.00042423555
-0.0015544696
-0.00056217594
-0.0011143214
-0.00062872998
-0.00068747468
-0.00060513307
-0.00033452557
-0.00049090111
-0.00010089679
-0.00030976508
-1.551991e-06
-0.00011014168
2.8859262e-05
-0.00011002771
0.00014050597
-0.0004030329
0.00049581344
-0.00083139047
0.0007856839
-0.0013456207
0.00097471755
-0.001898603
0.0010653041
-0.002446586
0.0010663985
-0.0029480381
0.00098411124
-0.0033626245
0.00082066191
-0.0036518962
0.00057819436
-0.0037823227
0.00026467143
-0.0037298276
-0.00010081841
-0.0034858148
-0.00048721048
-0.0030632753
-0.00084677507
-0.0024999932
-0.001125458
-0.0018582337
-0.0012704895
-0.0012181435
-0.0012452233
-0.00066373628
-0.0010453083
-0.00026308954
-0.00071041182
-4.7956356e-05
-0.00032527485
-1.9097095e-05
-0.00017344019
0.00031394617
-0.00059329426
0.00091566752
-0.001177699
0.0013700886
-0.0018583758
0.0016553944
-0.0025769164
0.0017838448
-0.003281317
0.0017707991
-0.0039228031
0.0016255974
-0.0044541455
0.0013520042
-0.0048302679
0.00095431683
-0.0050112404
0.00044564398
-0.0049672576
-0.00014480116
-0.0046844336
-0.00077003448
-0.0041723482
-0.0013588604
-0.0034691249
-0.0018286814
-0.0026440075
-0.0020956069
-0.0017931994
-0.0020960314
-0.0010258497
-0.0018126581
-0.00044021461
-0.0012960469
-9.6723819e-05
-0.00066876563
-0.00011582091
-0.00022979618
0.00054374236
-0.00076507686
0.0014509482
-0.0014914896
0.0020965014
-0.0023225539
0.0024864587
-0.003190149
0.0026514398
-0.0040368325
0.0026174826
-0.0048100477
0.0023988126
-0.0054589759
0.0020009325
-0.0059341924
0.0014295333
-0.0061898227
0.00070127427
-0.0061884027
-0.00014622109
-0.005905573
-0.0010528642
-0.0053404099
-0.0019240235
-0.0045231101
-0.0026459812
-0.0035229719
-0.003095745
-0.0024498017
-0.0031692016
-0.0014425376
-0.0028199221
-0.00064123048
-0.002097354
-0.00014883674
-0.0011611594
-0.00026465765
-0.00027729849
0.00082104085
-0.00091154922
0.0020851989
-0.0017607344
0.0029456866
-0.0027228148
0.0034485391
-0.0037222191
0.0036508442
-0.0046987038
0.0035939673
-0.0055989011
0.0032990099
-0.0063712012
0.0027732326
-0.0069637383
0.0020220705
-0.0073248456
0.0010623816
-0.0074074675
-6.3599181e-05
-0.0071716988
-0.0012886329
-0.0065988883
-0.0024968339
-0.0057016771
-0.0035431923
-0.0045400155
-0.0042574067
-0.0032318391
-0.004477378
-0.0019490185
-0.0041027427
-0.00088728654
-0.0031590859
-0.00021159393
-0.001836852
-0.00047625159
-0.00031411595
0.0011351568
-0.001026339
0.002797422
-0.0019735078
0.0038928554
-0.003041754
0.0045167853
-0.0041507163
0.0047598065
-0.0052399432
0.0046831942
-0.0062580724
0.004317139
-0.0071555244
0.0036706846
-0.0078803657
0.0027469118
-0.0083768402
0.001558856
-0.0085853868
0.00014494742
-0.0084513166
-0.0014227031
-0.0079294956
-0.0030186549
-0.0070049595
-0.0044677284
-0.0057150394
-0.0055473267
-0.0041735774
-0.00601884
-0.0025818418
-0.0056944782
-0.0012041032
-0.0045368245
-0.00029450365
-0.0027464515
-0.00077075524
-0.00033824797
0.0014734048
-0.0011031674
0.0035623415
-0.0021176308
0.0049073188
-0.0032598846
0.0056590391
-0.0044474002
0.0059473221
-0.0056219532
0.0058577473
-0.0067369386
0.0054321244
-0.0077479553
0.0046817013
-0.0086063619
0.0036053185
-0.0092552376
0.0022077318
-0.0096270013
0.00051671106
-0.009649193
-0.0014005113
-0.0092489687
-0.0034188792
-0.0083739328
-0.0053427642
-0.0070220641
-0.0068991955
-0.0052818074
-0.0077590967
-0.0033676628
-0.0076086229
-0.0016173614
-0.0062871259
-0.00040826839
-0.0039555445
-0.0011790236
-0.0003481556
0.0018215604
-0.0011372132
0.004351399
-0.0021827851
0.0059528907
-0.0033586147
0.0068348688
-0.0045822356
0.007170943
-0.0057998137
0.0070753255
-0.0069721851
0.0066044957
-0.0080636575
0.0057731737
-0.0090334307
0.0045750916
-0.0098289825
0.0030032837
-0.010381263
0.001068992
-0.010604515
-0.0011772597
-0.010400768
-0.0036226266
-0.0096748864
-0.0060686455
-0.0083686672
-0.0082054147
-0.0065156794
-0.0096120844
-0.0043098806
-0.0098144217
-0.0021483212
-0.0084486853
-0.00056492471
-0.005538941
-0.0017439483
-0.00034393446
0.0021654948
-0.0011278585
0.0051353231
-0.0021647077
0.0069897399
-0.0033258989
0.00799606
-0.0045307984
0.0083758425
-0.0057319394
0.0082764665
-0.0069002158
0.0077727722
-0.0080123755
0.0068853334
-0.0090408199
0.0056035361
-0.0099449607
0.0039074245
-0.010663389
0.0017874199
-0.011106739
-0.0007339088
-0.011163414
-0.0035659519
-0.010697122
-0.0065349377
-0.0095825935
-0.009319943
-0.0077667722
-0.011427906
-0.0053714974
-0.012209696
-0.0028071766
-0.011013006
-0.00077836828
-0.0075677493
-0.0025223166
-0.00032890789
0.0024944027
-0.0010824212
0.0058888365
-0.0020707766
0.0079780953
-0.0031636121
0.0090888954
-0.0042839009
0.0094961313
-0.0053928522
0.0093854179
-0.0064741393
0.0088540594
-0.0075205472
0.0079317413
-0.0085229174
0.0066059063
-0.0094603444
0.0048448515
-0.010291332
0.0026184075
-0.010933227
-9.2014042e-05
-0.011283211
-0.0032159672
-0.011173632
-0.0066445171
-0.010415712
-0.010077863
-0.0088467336
-0.012996884
-0.0064557514
-0.014600679
-0.0035815251
-0.013887232
-0.0010642221
-0.010085052
-0.0035865387
-0.00031178446
0.0028061872
-0.0010206798
0.0065977318
-0.0019261015
0.008883517
-0.0028949511
0.010057745
-0.0038568854
0.010458066
-0.0047855668
0.010314099
-0.0056807705
0.009749263
-0.0065544604
0.0088054313
-0.0074198947
0.0074713406
-0.0082818308
0.0057067876
-0.0091251614
0.003461738
-0.0099086455
0.00069147009
-0.010527262
-0.0025973511
-0.010827018
-0.0063447611
-0.01057363
-0.01033125
-0.0094932091
-0.014077305
-0.0073911382
-0.01670275
-0.0044189135
-0.016859457
-0.001437211
-0.013066755
-0.0050237497
-0.00031004339
0.0031162306
-0.00098036647
0.0072680549
-0.0017790519
0.0096822023
-0.0025693704
0.010848064
-0.0032946014
0.011183297
-0.0039479037
0.010967401
-0.0045499784
0.010351338
-0.0051347946
0.0093902476
-0.0057399299
0.0080764759
-0.0063985346
0.0063653924
-0.0071301374
0.0041933407
-0.007930269
0.0014916017
-0.0087388149
-0.0017888052
-0.0094303666
-0.0056532093
-0.009768587
-0.00999303
-0.0094003473
-0.014445545
-0.007930581
-0.018172516
-0.0052061613
-0.019583877
-0.0019026117
-0.016370304
-0.0069263614
-0.00035604102
0.0034722717
-0.0010239995
0.0079360134
-0.0017042345
0.010362437
-0.0022608047
0.011404634
-0.0026657295
0.011588222
-0.002944019
0.011245691
-0.0031442594
0.010551578
-0.0033248782
0.0095708663
-0.0035472042
0.008298802
-0.0038710573
0.0066892456
-0.0043491825
0.0046714659
-0.0050183916
0.0021608109
-0.0058766238
-0.00093057308
-0.0068578451
-0.004671988
-0.0077762965
-0.0090745785
-0.0082658414
-0.013956
-0.0077687437
-0.018669614
-0.0057511008
-0.02160152
-0.0024366712
-0.019684734
-0.0093630326
-0.0005082621
0.0039805338
-0.0012456343
0.0086733858
-0.0017958889
0.010912692
-0.0020480067
0.011656751
-0.0020325156
0.011572731
-0.0018254373
0.011038613
-0.0015122051
0.010238346
-0.0011778738
0.009236535
-0.00090472776
0.0080256559
-0.00077373521
0.006558253
-0.00086350518
0.0047612359
-0.0012473723
0.002544678
-0.0019828457
-0.0001950997
-0.0030818806
-0.0035729531
-0.0044600422
-0.0076964169
-0.0058274951
-0.012588547
-0.0065661691
-0.01793094
-0.0057684494
-0.022399239
-0.0029512254
-0.022501958
-0.012314258
-0.00086855439
0.0048490881
-0.0017629862
0.0095678176
-0.0021213598
0.011271066
-0.0019368511
0.011472243
-0.0013509286
0.010986808
-0.00051619995
0.010203884
0.00043703345
0.0092851126
0.0013996058
0.0082739627
0.0022723691
0.0071528926
0.0029609078
0.0058697143
0.0033691431
0.0043530006
0.0033967919
0.0025170293
0.002938538
0.00026315419
0.0019096034
-0.0025440185
0.00026967775
-0.0060564912
-0.0018541696
-0.010464699
-0.0039516006
-0.015833508
-0.004860837
-0.021490003
-0.0032547042
-0.024108091
-0.015568962
-0.0015910847
0.0064401727
-0.0026108552
0.010587588
-0.0025131397
0.011173351
-0.0015899105
0.010549014
-0.00017217532
0.0095690726
0.0014927955
0.0085389131
0.0032328918
0.0075450163
0.004923231
0.0065836236
0.0064629898
0.0056131338
0.0077574943
0.0045752098
0.0087075001
0.0034029948
0.0092014885
0.0020230409
0.0091033338
0.0003613089
0.0082750832
-0.0017157679
0.0065654537
-0.0043468617
0.0039042293
-0.007803475
0.00055894987
-0.012488229
-0.0024680571
-0.018462996
-0.0030273178
-0.02354883
-0.01859628
-0.0027183595
0.0091585324
-0.0031498668
0.011019095
-0.0018030006
0.0098264847
0.00046669869
0.0082793146
0.0030894199
0.0069463516
0.0057738065
0.0058545264
0.0083628927
0.0049559301
0.01076039
0.0041861266
0.012893485
0.0034800389
0.014690653
0.0027780417
0.016068338
0.0020253098
0.016923277
0.0011681018
0.017119706
0.00016487998
0.016490823
-0.0010868849
0.014816835
-0.0026728732
0.011846653
-0.0048332931
0.0074354889
-0.0080770654
0.0022629272
-0.013290434
-0.0012724674
-0.020013435
-0.019868747
-0.0024132786
0.011571812
2.8056964e-05
0.0085777584
0.0042551375
0.0055994037
0.0084161205
0.0041183315
0.012231481
0.0031309907
0.015656259
0.002429749
0.018686541
0.001925648
0.021329183
0.0015434843
0.023583483
0.0012257391
0.025429218
0.00093230695
0.026820162
0.00063436616
0.027677174
0.00031108978
0.027900198
-5.8144807e-05
0.02734722
-0.00053390675
0.025771629
-0.0010972816
0.022843045
-0.0019047091
0.018054769
-0.0032887892
0.011113586
-0.0063492512
0.003388675
-0.012288525
-0.016480072
0.011571812
0.02014957
0.025748974
0.029867306
0.032998296
0.035428045
0.037353693
0.038897178
0.040122917
0.041055224
0.04168959
0.04200068
0.041942535
0.041408628
0.040311347
0.038406638
0.035117848
0.028768597
0.016480072
)
;

boundaryField
{
    movingWall
    {
        type            calculated;
        value           uniform 0;
    }
    fixedWalls
    {
        type            calculated;
        value           uniform 0;
    }
    frontAndBack
    {
        type            empty;
        value           nonuniform List<scalar> 0();
    }
}


// ************************************************************************* //
