/*--------------------------------*- C++ -*----------------------------------*\
  =========                 |
  \\      /  F ield         | OpenFOAM: The Open Source CFD Toolbox
   \\    /   O peration     | Website:  https://openfoam.org
    \\  /    A nd           | Version:  9
     \\/     M anipulation  |
\*---------------------------------------------------------------------------*/
FoamFile
{
    format      ascii;
    class       surfaceScalarField;
    location    "25";
    object      phi_0;
}
// * * * * * * * * * * * * * * * * * * * * * * * * * * * * * * * * * * * * * //

dimensions      [0 3 -1 0 0 0 0];

internalField   nonuniform List<scalar> 
760
(
1.2700562e-05
-1.270562e-05
-2.8724354e-05
4.142492e-05
-0.00012229242
9.3568072e-05
-0.00025039667
0.00012810426
-0.00039607581
0.00014567915
-0.00054539245
0.00014931664
-0.0006862735
0.00014088106
-0.00080689456
0.00012062107
-0.00089495522
8.8060669e-05
-0.00093839339
4.3438181e-05
-0.00092727706
-1.1116327e-05
-0.00085686393
-7.0413126e-05
-0.00073043053
-0.00012643339
-0.00056134235
-0.00016908818
-0.00037276055
-0.00018858179
-0.0001944741
-0.00017828644
-5.652204e-05
-0.00013795205
1.9614304e-05
-7.6136337e-05
3.0411226e-05
-1.0796916e-05
3.0411233e-05
-4.3183859e-05
3.0478244e-05
-0.00020456716
0.00020280824
-0.00046832538
0.0003573263
-0.00080070842
0.00046048732
-0.001167351
0.00051232176
-0.0015364499
0.00051841553
-0.0018782279
0.00048265913
-0.0021636824
0.00040607549
-0.0023645443
0.00028892262
-0.0024553511
0.00013424498
-0.002418144
-4.8323378e-05
-0.0022453595
-0.00024319766
-0.0019475573
-0.00042423552
-0.0015544695
-0.00056217593
-0.0011143213
-0.00062872998
-0.00068747466
-0.00060513309
-0.00033452557
-0.00049090113
-0.00010089679
-0.0003097651
-1.5519927e-06
-0.0001101417
2.8859248e-05
-0.00011002771
0.00014050596
-0.00040303289
0.00049581343
-0.00083139046
0.00078568388
-0.0013456207
0.00097471753
-0.001898603
0.0010653041
-0.0024465859
0.0010663985
-0.002948038
0.00098411123
-0.0033626244
0.00082066191
-0.0036518962
0.00057819436
-0.0037823226
0.00026467145
-0.0037298276
-0.00010081838
-0.0034858148
-0.00048721045
-0.0030632753
-0.00084677505
-0.0024999932
-0.001125458
-0.0018582337
-0.0012704895
-0.0012181435
-0.0012452233
-0.00066373627
-0.0010453083
-0.00026308954
-0.00071041182
-4.7956358e-05
-0.00032527486
-1.9097103e-05
-0.00017344019
0.00031394616
-0.00059329425
0.0009156675
-0.001177699
0.0013700886
-0.0018583758
0.0016553944
-0.0025769164
0.0017838448
-0.003281317
0.0017707991
-0.0039228031
0.0016255973
-0.0044541454
0.0013520042
-0.0048302678
0.00095431681
-0.0050112403
0.00044564397
-0.0049672575
-0.00014480115
-0.0046844335
-0.00077003446
-0.0041723482
-0.0013588604
-0.0034691249
-0.0018286813
-0.0026440075
-0.0020956069
-0.0017931994
-0.0020960313
-0.0010258497
-0.001812658
-0.0004402146
-0.0012960469
-9.672382e-05
-0.00066876563
-0.00011582092
-0.00022979618
0.00054374234
-0.00076507685
0.0014509482
-0.0014914896
0.0020965014
-0.0023225539
0.0024864587
-0.0031901489
0.0026514398
-0.0040368324
0.0026174826
-0.0048100476
0.0023988125
-0.0054589758
0.0020009325
-0.0059341923
0.0014295333
-0.0061898226
0.00070127425
-0.0061884026
-0.00014622109
-0.0059055729
-0.0010528642
-0.0053404098
-0.0019240235
-0.00452311
-0.0026459811
-0.0035229719
-0.003095745
-0.0024498016
-0.0031692016
-0.0014425376
-0.0028199221
-0.00064123047
-0.002097354
-0.00014883674
-0.0011611594
-0.00026465766
-0.00027729849
0.00082104083
-0.0009115492
0.0020851989
-0.0017607344
0.0029456866
-0.0027228147
0.003448539
-0.003722219
0.0036508441
-0.0046987037
0.0035939673
-0.005598901
0.0032990098
-0.0063712011
0.0027732326
-0.0069637382
0.0020220705
-0.0073248455
0.0010623816
-0.0074074674
-6.3599181e-05
-0.0071716987
-0.0012886329
-0.0065988883
-0.0024968339
-0.0057016771
-0.0035431923
-0.0045400155
-0.0042574066
-0.0032318391
-0.0044773779
-0.0019490185
-0.0041027426
-0.00088728654
-0.0031590859
-0.00021159393
-0.0018368519
-0.00047625159
-0.00031411594
0.0011351568
-0.001026339
0.002797422
-0.0019735078
0.0038928554
-0.0030417539
0.0045167852
-0.0041507163
0.0047598064
-0.0052399431
0.0046831941
-0.0062580723
0.004317139
-0.0071555243
0.0036706846
-0.0078803656
0.0027469118
-0.0083768401
0.0015588561
-0.0085853867
0.00014494744
-0.0084513165
-0.0014227031
-0.0079294955
-0.0030186548
-0.0070049594
-0.0044677284
-0.0057150394
-0.0055473267
-0.0041735773
-0.0060188399
-0.0025818418
-0.0056944782
-0.0012041032
-0.0045368245
-0.00029450364
-0.0027464515
-0.00077075523
-0.00033824796
0.0014734048
-0.0011031674
0.0035623414
-0.0021176308
0.0049073187
-0.0032598846
0.005659039
-0.0044474001
0.005947322
-0.0056219532
0.0058577472
-0.0067369385
0.0054321243
-0.0077479552
0.0046817013
-0.0086063618
0.0036053184
-0.0092552376
0.0022077318
-0.0096270012
0.00051671109
-0.009649193
-0.0014005113
-0.0092489686
-0.0034188791
-0.0083739328
-0.0053427642
-0.007022064
-0.0068991954
-0.0052818074
-0.0077590966
-0.0033676627
-0.0076086228
-0.0016173613
-0.0062871259
-0.00040826838
-0.0039555445
-0.0011790236
-0.0003481556
0.0018215604
-0.0011372131
0.004351399
-0.002182785
0.0059528906
-0.0033586147
0.0068348687
-0.0045822356
0.0071709429
-0.0057998137
0.0070753254
-0.006972185
0.0066044957
-0.0080636575
0.0057731737
-0.0090334306
0.0045750916
-0.0098289825
0.0030032837
-0.010381263
0.001068992
-0.010604515
-0.0011772596
-0.010400768
-0.0036226265
-0.0096748864
-0.0060686454
-0.0083686671
-0.0082054146
-0.0065156794
-0.0096120843
-0.0043098806
-0.0098144216
-0.0021483212
-0.0084486852
-0.0005649247
-0.005538941
-0.0017439483
-0.00034393446
0.0021654948
-0.0011278585
0.005135323
-0.0021647076
0.0069897398
-0.0033258988
0.0079960599
-0.0045307983
0.0083758424
-0.0057319393
0.0082764664
-0.0069002158
0.0077727722
-0.0080123754
0.0068853333
-0.0090408199
0.0056035361
-0.0099449606
0.0039074245
-0.010663389
0.0017874199
-0.011106739
-0.00073390875
-0.011163414
-0.0035659518
-0.010697122
-0.0065349376
-0.0095825935
-0.0093199429
-0.0077667722
-0.011427906
-0.0053714974
-0.012209696
-0.0028071765
-0.011013006
-0.00077836826
-0.0075677492
-0.0025223166
-0.00032890789
0.0024944027
-0.0010824212
0.0058888364
-0.0020707766
0.0079780952
-0.0031636121
0.0090888953
-0.0042839008
0.0094961312
-0.0053928522
0.0093854178
-0.0064741393
0.0088540593
-0.0075205472
0.0079317412
-0.0085229174
0.0066059063
-0.0094603444
0.0048448515
-0.010291332
0.0026184075
-0.010933227
-9.2014015e-05
-0.011283211
-0.0032159671
-0.011173632
-0.006644517
-0.010415712
-0.010077863
-0.0088467336
-0.012996884
-0.0064557513
-0.014600679
-0.0035815251
-0.013887232
-0.0010642221
-0.010085052
-0.0035865387
-0.00031178447
0.0028061872
-0.0010206798
0.0065977318
-0.0019261015
0.0088835169
-0.0028949511
0.010057745
-0.0038568855
0.010458066
-0.0047855668
0.010314099
-0.0056807705
0.0097492629
-0.0065544605
0.0088054313
-0.0074198948
0.0074713406
-0.0082818308
0.0057067876
-0.0091251614
0.0034617381
-0.0099086455
0.00069147011
-0.010527262
-0.0025973511
-0.010827018
-0.006344761
-0.01057363
-0.01033125
-0.0094932091
-0.014077305
-0.0073911382
-0.016702749
-0.0044189135
-0.016859457
-0.001437211
-0.013066755
-0.0050237497
-0.00031004342
0.0031162306
-0.0009803665
0.0072680549
-0.0017790519
0.0096822023
-0.0025693705
0.010848064
-0.0032946015
0.011183297
-0.0039479037
0.010967401
-0.0045499784
0.010351338
-0.0051347946
0.0093902475
-0.0057399299
0.0080764759
-0.0063985347
0.0063653924
-0.0071301374
0.0041933408
-0.0079302691
0.0014916018
-0.0087388149
-0.0017888052
-0.0094303666
-0.0056532093
-0.009768587
-0.0099930299
-0.0094003474
-0.014445545
-0.007930581
-0.018172516
-0.0052061613
-0.019583877
-0.0019026117
-0.016370304
-0.0069263613
-0.00035604104
0.0034722717
-0.0010239996
0.0079360134
-0.0017042346
0.010362437
-0.0022608047
0.011404634
-0.0026657296
0.011588222
-0.0029440191
0.011245691
-0.0031442595
0.010551578
-0.0033248782
0.0095708663
-0.0035472043
0.008298802
-0.0038710574
0.0066892456
-0.0043491826
0.0046714659
-0.0050183917
0.0021608109
-0.0058766238
-0.00093057303
-0.0068578451
-0.004671988
-0.0077762966
-0.0090745785
-0.0082658414
-0.013956
-0.0077687437
-0.018669613
-0.0057511008
-0.021601519
-0.0024366712
-0.019684734
-0.0093630325
-0.00050826208
0.0039805338
-0.0012456343
0.0086733857
-0.001795889
0.010912692
-0.0020480067
0.011656751
-0.0020325156
0.011572731
-0.0018254374
0.011038613
-0.0015122052
0.010238346
-0.0011778739
0.009236535
-0.00090472785
0.008025656
-0.00077373529
0.006558253
-0.00086350526
0.0047612359
-0.0012473724
0.0025446781
-0.0019828458
-0.00019509965
-0.0030818806
-0.0035729531
-0.0044600422
-0.0076964169
-0.0058274951
-0.012588547
-0.0065661691
-0.01793094
-0.0057684495
-0.022399239
-0.0029512254
-0.022501958
-0.012314258
-0.00086855434
0.0048490881
-0.0017629861
0.0095678175
-0.0021213599
0.011271066
-0.0019368512
0.011472243
-0.0013509286
0.010986808
-0.00051619999
0.010203884
0.00043703336
0.0092851125
0.0013996057
0.0082739627
0.002272369
0.0071528926
0.0029609078
0.0058697143
0.003369143
0.0043530006
0.0033967918
0.0025170293
0.0029385379
0.00026315422
0.0019096033
-0.0025440184
0.0002696777
-0.0060564912
-0.0018541696
-0.010464699
-0.0039516006
-0.015833508
-0.004860837
-0.021490003
-0.0032547042
-0.024108091
-0.015568962
-0.0015910847
0.0064401728
-0.002610855
0.010587588
-0.0025131398
0.011173351
-0.0015899107
0.010549014
-0.00017217541
0.0095690727
0.0014927955
0.0085389131
0.0032328917
0.0075450163
0.0049232309
0.0065836235
0.0064629897
0.0056131338
0.0077574942
0.0045752099
0.0087075
0.0034029948
0.0092014884
0.002023041
0.0091033337
0.00036130892
0.0082750832
-0.0017157679
0.0065654537
-0.0043468617
0.0039042292
-0.007803475
0.00055894984
-0.012488229
-0.0024680571
-0.018462996
-0.0030273178
-0.02354883
-0.01859628
-0.0027183598
0.0091585326
-0.0031498666
0.011019095
-0.0018030005
0.0098264845
0.0004666986
0.0082793145
0.0030894198
0.0069463515
0.0057738064
0.0058545264
0.0083628927
0.0049559301
0.01076039
0.0041861266
0.012893485
0.0034800389
0.014690653
0.0027780417
0.016068338
0.0020253098
0.016923277
0.0011681018
0.017119706
0.00016487999
0.016490823
-0.0010868849
0.014816834
-0.0026728732
0.011846653
-0.0048332931
0.0074354889
-0.0080770654
0.0022629272
-0.013290434
-0.0012724674
-0.020013435
-0.019868747
-0.002413279
0.011571812
2.8056904e-05
0.0085777587
0.0042551376
0.0055994039
0.0084161206
0.0041183315
0.012231481
0.0031309907
0.015656259
0.0024297489
0.018686541
0.001925648
0.021329183
0.0015434843
0.023583483
0.0012257391
0.025429218
0.00093230695
0.026820161
0.00063436616
0.027677174
0.00031108979
0.027900198
-5.81448e-05
0.02734722
-0.00053390674
0.025771629
-0.0010972816
0.022843045
-0.0019047091
0.018054769
-0.0032887892
0.011113586
-0.0063492512
0.003388675
-0.012288525
-0.016480072
0.011571812
0.02014957
0.025748974
0.029867306
0.032998296
0.035428045
0.037353693
0.038897178
0.040122917
0.041055224
0.04168959
0.04200068
0.041942535
0.041408628
0.040311347
0.038406637
0.035117848
0.028768597
0.016480072
)
;

boundaryField
{
    movingWall
    {
        type            calculated;
        value           uniform 0;
    }
    fixedWalls
    {
        type            calculated;
        value           uniform 0;
    }
    frontAndBack
    {
        type            empty;
        value           nonuniform List<scalar> 0();
    }
}


// ************************************************************************* //
