/*--------------------------------*- C++ -*----------------------------------*\
  =========                 |
  \\      /  F ield         | OpenFOAM: The Open Source CFD Toolbox
   \\    /   O peration     | Website:  https://openfoam.org
    \\  /    A nd           | Version:  9
     \\/     M anipulation  |
\*---------------------------------------------------------------------------*/
FoamFile
{
    format      ascii;
    class       volScalarField;
    location    "15";
    object      p;
}
// * * * * * * * * * * * * * * * * * * * * * * * * * * * * * * * * * * * * * //

dimensions      [0 2 -2 0 0 0 0];

internalField   nonuniform List<scalar> 
400
(
8.6639305e-07
-0.00067146185
-0.001383253
-0.0019398899
-0.0022165303
-0.002152451
-0.0017233146
-0.00092147396
0.00024019447
0.0017120279
0.0033916174
0.0051162063
0.0066772696
0.0078529063
0.0084625129
0.0084284203
0.0078189298
0.0068508762
0.0058681923
0.0053060274
0.00065840198
-3.9502352e-05
-0.00056811956
-0.00093848687
-0.0011081381
-0.0010366103
-0.00070195175
-9.1289691e-05
0.00079362972
0.0019208326
0.0032142134
0.0045592487
0.0057864601
0.0067208464
0.0072193124
0.0072199236
0.0067759909
0.0060594408
0.0053176292
0.0047457959
0.0014235794
0.00044123425
-0.00011549082
-0.00045155309
-0.00061250562
-0.00058184716
-0.00034295624
0.00012395074
0.00083312347
0.0017748577
0.0028993612
0.0041032473
0.0052333211
0.0061161462
0.006599306
0.0066035567
0.006162222
0.0054286037
0.0046013147
0.0037560634
0.0020133959
0.00068185974
1.7542472e-05
-0.00035744755
-0.00056942726
-0.00062362107
-0.00050627742
-0.00018601324
0.00037379199
0.0011901347
0.0022358826
0.0034234361
0.0045973297
0.005562909
0.0061296902
0.0061730756
0.0056906838
0.0048247282
0.0037555258
0.0024822821
0.0021660875
0.00049614311
-0.00029554577
-0.00074726395
-0.0010559252
-0.0012418935
-0.0012882217
-0.0011456661
-0.00074847305
-4.5862714e-05
0.00096458244
0.00221788
0.0035521507
0.0047399202
0.0055290537
0.0057172896
0.0052371322
0.0042100416
0.0028152605
0.00099370459
0.0016529153
-0.00031416756
-0.0012376948
-0.0017973387
-0.0022495704
-0.0026234524
-0.0028926469
-0.0029836266
-0.0027938111
-0.0022280531
-0.0012410589
0.00014097891
0.0017544137
0.0033363978
0.0045505199
0.0050745002
0.0047264093
0.0035755972
0.0017996783
-0.00071494557
0.00028680467
-0.0019183988
-0.0029709637
-0.0036683035
-0.0043157872
-0.0049469362
-0.0055218934
-0.0059377933
-0.0060471721
-0.0056943288
-0.0047619862
-0.0032450253
-0.0012533863
0.00091943233
0.0028344535
0.0039974629
0.0040354621
0.002898299
0.00072662114
-0.0026681609
-0.0020750653
-0.004448531
-0.005623217
-0.0064874999
-0.0073863315
-0.0083569834
-0.0093456828
-0.010218102
-0.010775157
-0.010787456
-0.010045145
-0.0084435267
-0.006023272
-0.003067019
-0.00011166026
0.0021258449
0.0029761145
0.002147621
-0.00035352096
-0.0048588529
-0.0055205187
-0.0079873956
-0.0092722439
-0.010326691
-0.011528801
-0.012923591
-0.014447926
-0.015938579
-0.017142116
-0.017743737
-0.017414723
-0.015896036
-0.013100405
-0.00923089
-0.0048803201
-0.0010135612
0.0012840817
0.001291492
-0.0013201328
-0.0071865822
-0.010070452
-0.012557918
-0.013928549
-0.015174325
-0.016706324
-0.018587563
-0.020755754
-0.023026914
-0.025096821
-0.026559227
-0.026940961
-0.025784361
-0.022818103
-0.018048854
-0.01202818
-0.0059319936
-0.00135343
0.00031611695
-0.0019321699
-0.0093660896
-0.015675462
-0.01812263
-0.019526936
-0.02091458
-0.022742975
-0.025111859
-0.027975319
-0.03114102
-0.034262822
-0.036845779
-0.038261735
-0.037811437
-0.035034367
-0.029572191
-0.021796173
-0.012962627
-0.0051653118
-0.0006986542
-0.0017483033
-0.010775681
-0.022231098
-0.024600809
-0.025932734
-0.027320597
-0.029307291
-0.032059041
-0.035564986
-0.039636922
-0.043896257
-0.047767928
-0.050495732
-0.051202516
-0.048923937
-0.043112851
-0.033741303
-0.02190202
-0.010016004
-0.0013975517
6.2049469e-06
-0.010209557
-0.029626186
-0.031909697
-0.03296425
-0.034064168
-0.035921547
-0.038810378
-0.042770788
-0.047623085
-0.052958928
-0.058129924
-0.062249877
-0.06423186
-0.062843321
-0.057082973
-0.046450535
-0.031626006
-0.015017857
-0.00084719045
0.0046618961
-0.0055072485
-0.037849222
-0.040033101
-0.040424901
-0.040736568
-0.041997287
-0.044632438
-0.048734066
-0.054116436
-0.06032557
-0.066633248
-0.072028468
-0.075237447
-0.074783087
-0.069244191
-0.057606475
-0.039942573
-0.018231477
0.0028034587
0.014457823
0.0069186838
-0.047213123
-0.049118719
-0.048125734
-0.046867413
-0.046889364
-0.048780041
-0.052646299
-0.058250643
-0.065048067
-0.07220266
-0.078566823
-0.082685459
-0.082856724
-0.077289897
-0.064508253
-0.043922268
-0.0167373
0.012512444
0.032947313
0.032415803
-0.058880002
-0.059625214
-0.055870764
-0.051928636
-0.049959184
-0.050614442
-0.053909816
-0.059473082
-0.066586863
-0.0742591
-0.081165695
-0.08565655
-0.085813004
-0.079508194
-0.064866671
-0.040683307
-0.0072370788
0.032142714
0.064984663
0.077751219
-0.076211981
-0.072601425
-0.063506101
-0.055426701
-0.050715964
-0.049770112
-0.052297286
-0.057645512
-0.064869983
-0.072751807
-0.079756962
-0.08401717
-0.083376516
-0.075339179
-0.057598103
-0.028374766
0.012931003
0.065394371
0.11554949
0.15150358
-0.10808116
-0.089547498
-0.071227725
-0.057228617
-0.049067311
-0.046322739
-0.048065798
-0.053186938
-0.060415647
-0.068275308
-0.07500742
-0.078509671
-0.076376154
-0.065802275
-0.043863587
-0.0078211258
0.044388104
0.11299185
0.18837449
0.27185447
-0.17683776
-0.10828356
-0.07619975
-0.054650221
-0.04299078
-0.03899358
-0.040561828
-0.045914918
-0.053424845
-0.061419786
-0.06800927
-0.070946693
-0.06753966
-0.054733118
-0.029147332
0.013560485
0.078140733
0.17005672
0.28948769
0.47421076
-0.37207587
-0.12470309
-0.054971023
-0.03196266
-0.02206351
-0.020297923
-0.024352782
-0.031946848
-0.0412466
-0.05062361
-0.058299262
-0.062171445
-0.059769841
-0.048049175
-0.022656012
0.021472271
0.09281351
0.21014589
0.40288118
0.77640222
)
;

boundaryField
{
    movingWall
    {
        type            zeroGradient;
    }
    fixedWalls
    {
        type            zeroGradient;
    }
    frontAndBack
    {
        type            empty;
    }
}


// ************************************************************************* //
