/*--------------------------------*- C++ -*----------------------------------*\
  =========                 |
  \\      /  F ield         | OpenFOAM: The Open Source CFD Toolbox
   \\    /   O peration     | Website:  https://openfoam.org
    \\  /    A nd           | Version:  9
     \\/     M anipulation  |
\*---------------------------------------------------------------------------*/
FoamFile
{
    format      ascii;
    class       surfaceScalarField;
    location    "15";
    object      phi;
}
// * * * * * * * * * * * * * * * * * * * * * * * * * * * * * * * * * * * * * //

dimensions      [0 3 -1 0 0 0 0];

internalField   nonuniform List<scalar> 
760
(
1.2679425e-05
-1.2689343e-05
-2.8731977e-05
4.1411352e-05
-0.000122254
9.3522102e-05
-0.00025028886
0.00012803506
-0.00039588617
0.0001455973
-0.00054511729
0.00014923123
-0.00068591767
0.00014080047
-0.00080647178
0.0001205542
-0.00089448848
8.8016811e-05
-0.00093791402
4.3425617e-05
-0.00092682177
-1.1092217e-05
-0.00085646911
-7.0352662e-05
-0.0007301258
-0.00012634332
-0.00056114382
-0.00016898198
-0.0003726662
-0.00018847758
-0.00019446305
-0.00017820308
-5.6559231e-05
-0.00013790374
1.956748e-05
-7.6126706e-05
3.0385445e-05
-1.0818016e-05
3.038545e-05
-4.3168579e-05
3.0479238e-05
-0.00020446488
0.0002027074
-0.00046806813
0.00035712499
-0.00080025092
0.00046021784
-0.0011666724
0.00051201864
-0.0015355518
0.00051811055
-0.0018771338
0.00048238247
-0.0021624368
0.00040585725
-0.0023632114
0.00028879147
-0.0024540091
0.0001342235
-0.0024168773
-4.8223814e-05
-0.0022442474
-0.00024298229
-0.0019466619
-0.00042392861
-0.0015538243
-0.00056181938
-0.0011139243
-0.00062837745
-0.00068728786
-0.00060483943
-0.00033448284
-0.00049070856
-0.00010091963
-0.00030968958
-1.574246e-06
-0.00011016311
2.8811243e-05
-0.00010996083
0.00014044016
-0.00040277854
0.0004955253
-0.0008308614
0.00078520773
-0.0013447655
0.00097412214
-0.0018974057
0.0010646589
-0.0024450627
0.0010657677
-0.0029462355
0.0009835554
-0.0033606172
0.00082023895
-0.0036497815
0.00057795581
-0.0037802125
0.00026465452
-0.003727838
-0.0001005984
-0.0034840505
-0.00048676974
-0.0030618182
-0.0008461609
-0.0024988902
-0.0011247473
-0.0018574888
-0.0012697787
-0.0012177164
-0.0012446118
-0.00066354925
-0.0010448758
-0.00026304471
-0.00071019409
-4.7962538e-05
-0.00032524517
-1.9151308e-05
-0.00017331952
0.00031375952
-0.00059288678
0.00091509264
-0.0011769035
0.0013692242
-0.0018571437
0.0016543624
-0.002575244
0.0017827593
-0.0032792394
0.001769763
-0.0039203895
0.0016247057
-0.0044514946
0.0013513442
-0.0048275005
0.00095396182
-0.005008489
0.00044564314
-0.0049646554
-0.00014443196
-0.0046820997
-0.00076932544
-0.0041703783
-0.0013578823
-0.0034675797
-0.0018275458
-0.0026429046
-0.0020944537
-0.001792508
-0.0020950083
-0.0010254932
-0.0018118906
-0.00044008455
-0.0012956028
-9.6704825e-05
-0.00066862485
-0.00011585613
-0.00022963015
0.00054338956
-0.00076454198
0.0014500047
-0.0014904769
0.0020951588
-0.0023210219
0.0024849075
-0.0031881087
0.0026498461
-0.0040343368
0.0026159911
-0.0048071837
0.0023975526
-0.0054558579
0.0020000183
-0.0059309522
0.0014290562
-0.0061866
0.00070129089
-0.0061853363
-0.00014569561
-0.0059027859
-0.0010518759
-0.0053380067
-0.0019226616
-0.0045211667
-0.0026443857
-0.0035215262
-0.0030940942
-0.0024488434
-0.0031676911
-0.0014420031
-0.0028187308
-0.00064100872
-0.0020965973
-0.00014879092
-0.0011608427
-0.00026464706
-0.00027710304
0.00082049242
-0.00091093365
0.0020838355
-0.001759588
0.002943813
-0.0027211047
0.0034464242
-0.0037199694
0.0036487109
-0.0046959807
0.0035920024
-0.0055958022
0.0032973742
-0.006367846
0.0027720621
-0.006960258
0.0020214682
-0.0073213727
0.0010624055
-0.0074041382
-6.2930104e-05
-0.007168626
-0.0012873881
-0.0065961803
-0.0024951073
-0.0056994226
-0.0035411435
-0.0045382755
-0.0042552413
-0.0032306333
-0.0044753333
-0.0019483089
-0.0041010551
-0.00088697105
-0.0031579351
-0.00021152032
-0.0018362934
-0.00047616742
-0.00031391238
0.0011344046
-0.0010257043
0.0027956277
-0.0019723354
0.0038904439
-0.0030400193
0.0045141081
-0.0041484526
0.0047571442
-0.0052372239
0.0046807737
-0.0062549977
0.0043151479
-0.0071522096
0.0036692739
-0.0078769311
0.0027461897
-0.0083734053
0.0015588796
-0.0085820517
0.00014571627
-0.0084481941
-0.0014212458
-0.0079266809
-0.0030166205
-0.0070025441
-0.0044652803
-0.0057131041
-0.0055446813
-0.0041721761
-0.0060162614
-0.0025809758
-0.0056922554
-0.0012036964
-0.0045352145
-0.00029440108
-0.0027455888
-0.00077056854
-0.00033806059
0.0014724651
-0.0011025834
0.0035601507
-0.0021165533
0.0049044137
-0.0032582957
0.0056558505
-0.0044453374
0.0059441859
-0.005619491
0.0058549273
-0.0067341724
0.0054298293
-0.0077449887
0.0046800902
-0.0086032959
0.0036044969
-0.0092521634
0.002207747
-0.0096239987
0.00051755154
-0.0096463343
-0.0013989102
-0.0092463269
-0.003416628
-0.0083715867
-0.0053400204
-0.0070201012
-0.0068961668
-0.0052803124
-0.0077560503
-0.0033666861
-0.0076058818
-0.001616875
-0.0062850257
-0.0004081366
-0.0039543271
-0.0011787052
-0.00034800882
0.0018204737
-0.0011367496
0.0043488916
-0.0021819233
0.0059495875
-0.0033573416
0.0068312686
-0.0045805878
0.0071674323
-0.0057978609
0.0070722003
-0.0069700125
0.0066019809
-0.0080613519
0.0057714296
-0.0090310689
0.0045742138
-0.0098266248
0.0030033029
-0.010378953
0.0010698792
-0.01060228
-0.0011755823
-0.01039864
-0.0036202682
-0.0096729118
-0.006065749
-0.0083669176
-0.0082021611
-0.0065142541
-0.0096087138
-0.0043088791
-0.0098112568
-0.0021477838
-0.008446121
-0.0005647665
-0.0055373443
-0.0017434718
-0.00034384954
0.0021643232
-0.0011275771
0.0051326192
-0.002164169
0.0069861796
-0.0033250924
0.0079921919
-0.004529755
0.008372095
-0.0057307182
0.0082731635
-0.0068988872
0.0077701498
-0.0080110058
0.0068835482
-0.0090394599
0.0056026679
-0.0099436383
0.0039074813
-0.010662107
0.0017883478
-0.011105472
-0.00073221698
-0.011162147
-0.0035635929
-0.010695849
-0.006532047
-0.0095813462
-0.0093166643
-0.007765636
-0.011424424
-0.0053706034
-0.012206289
-0.0028066413
-0.011010083
-0.00077819244
-0.0075657931
-0.0025216643
-0.00032890001
0.0024932232
-0.0010823674
0.0058860865
-0.0020706414
0.0079744538
-0.0031633857
0.009084936
-0.0042836029
0.0094923125
-0.0053925246
0.0093820853
-0.0064738315
0.0088514566
-0.0075203013
0.007930018
-0.0085227568
0.0066051234
-0.0094602661
0.0048449905
-0.010291313
0.0026193949
-0.010933159
-9.0370854e-05
-0.01128307
-0.0032136821
-0.011173341
-0.0066417766
-0.010415241
-0.010074764
-0.0088461254
-0.01299354
-0.0064551333
-0.014597282
-0.0035810736
-0.013884143
-0.0010640465
-0.01008282
-0.0035857108
-0.00031186083
0.0028050841
-0.0010208771
0.0065951026
-0.0019264131
0.0088799902
-0.0028953662
0.010053889
-0.0038574066
0.010454353
-0.0047862101
0.010310889
-0.0056815555
0.009746802
-0.0065553981
0.0088038606
-0.0074209774
0.0074707027
-0.0082830253
0.0057070384
-0.0091263941
0.0034627637
-0.0099098837
0.00069311881
-0.010528339
-0.0025952267
-0.010827836
-0.0063422795
-0.010574105
-0.010328495
-0.0094933174
-0.014074327
-0.0073909633
-0.016699636
-0.0044186472
-0.016856459
-0.0014370642
-0.013064403
-0.005022775
-0.00031020253
0.0031152868
-0.00098081315
0.0072657131
-0.0017798105
0.009678988
-0.0025704282
0.010844507
-0.0032959381
0.011179863
-0.0039495004
0.010964451
-0.0045518149
0.010349117
-0.005136843
0.0093888887
-0.0057421488
0.0080760086
-0.0064008661
0.0063657557
-0.007132506
0.0041944037
-0.0079325825
0.0014931953
-0.0087409523
-0.0017868569
-0.0094321982
-0.0056510336
-0.0097699868
-0.0099907068
-0.0094012298
-0.014443084
-0.0079309549
-0.01816991
-0.005206176
-0.019581238
-0.0019025315
-0.016368047
-0.0069253065
-0.00035627246
0.0034715595
-0.0010246669
0.0079341072
-0.0017053936
0.010359715
-0.002262441
0.011401554
-0.002667797
0.011585219
-0.0029464568
0.011243111
-0.0031469983
0.010549658
-0.0033278438
0.0095697342
-0.0035503176
0.0082984823
-0.0038742369
0.0066896749
-0.0043523444
0.0046725113
-0.005021448
0.002162299
-0.0058794765
-0.00092882843
-0.0068603835
-0.0046701265
-0.0077783936
-0.0090726967
-0.0082673757
-0.013954102
-0.0077696507
-0.018667635
-0.0057514454
-0.021599443
-0.0024366955
-0.019682797
-0.0093620019
-0.0005085442
0.003980104
-0.0012464605
0.008672023
-0.0017973457
0.010910601
-0.0020500813
0.01165429
-0.0020351385
0.011570276
-0.001828506
0.011036479
-0.0015155978
0.01023675
-0.0011814696
0.0092356061
-0.00090840704
0.0080254197
-0.000777393
0.0065586609
-0.00086705687
0.0047621751
-0.0012507487
0.0025459908
-0.0019859808
-0.00019359626
-0.0030847034
-0.0035714038
-0.0044624621
-0.0076949379
-0.0058293984
-0.012587165
-0.0065674523
-0.017929581
-0.0057690871
-0.022397808
-0.002951373
-0.022500511
-0.012313375
-0.00086884611
0.0048489505
-0.0017638597
0.0095670363
-0.0021229307
0.011269672
-0.0019391177
0.011470477
-0.0013538115
0.01098497
-0.00051956548
0.010202233
0.00043333109
0.0092838535
0.0013957321
0.0082732052
0.0022684702
0.0071526816
0.0029571084
0.0058700226
0.0033655399
0.0043537437
0.0033934505
0.0025180802
0.0029355006
0.00026435363
0.0019068942
-0.0025427973
0.00026733461
-0.0060553782
-0.0018560896
-0.010463741
-0.0039530102
-0.015832661
-0.0048616324
-0.021489186
-0.0032549499
-0.024107194
-0.015568325
-0.001591311
0.0064402618
-0.0026115941
0.010587319
-0.0025145309
0.011172609
-0.001591981
0.010547927
-0.00017486042
0.0095678496
0.0014896096
0.0085377626
0.003229368
0.007544095
0.0049195361
0.006583037
0.0064592864
0.0056129313
0.0077539233
0.0045753858
0.0087041706
0.0034034964
0.0091984728
0.002023778
0.009100672
0.00036215445
0.0082727745
-0.0017148998
0.0065634935
-0.004346097
0.0039026312
-0.0078028786
0.00055777636
-0.012487806
-0.0024688129
-0.018462597
-0.0030276022
-0.023548404
-0.018595927
-0.0027184464
0.0091587084
-0.0031502488
0.011019122
-0.0018038628
0.0098262227
0.00046527361
0.0082787907
0.0030874349
0.0069456883
0.0057713385
0.005853859
0.0083600639
0.0049553695
0.010757351
0.0041857504
0.012890394
0.0034798879
0.01468766
0.00277812
0.016065567
0.0020255895
0.016920813
0.0011685314
0.017117603
0.00016536449
0.016489085
-0.0010863809
0.014815435
-0.0026724473
0.011845546
-0.0048329895
0.0074346353
-0.008076895
0.0022623654
-0.013290327
-0.0012727256
-0.020013313
-0.019868652
-0.0024132059
0.011571914
2.8078058e-05
0.008577838
0.0042549386
0.0055993622
0.0084155524
0.0041181769
0.012230475
0.0031307655
0.015654825
0.0024295088
0.018684753
0.0019254415
0.021327158
0.0015433458
0.023581359
0.0012256868
0.025427137
0.00093234204
0.026818252
0.00063447429
0.02767554
0.00031124356
0.027898837
-5.7932482e-05
0.027346195
-0.00053373958
0.025770895
-0.0010971472
0.022842533
-0.0019046267
0.018054408
-0.0032887702
0.011113347
-0.0063492656
0.0033885744
-0.01228854
-0.016480078
0.011571914
0.020149752
0.025749115
0.029867292
0.032998057
0.035427566
0.037353007
0.038896353
0.04012204
0.041054382
0.041688856
0.0420001
0.041942167
0.041408428
0.040311281
0.038406654
0.035117884
0.028768618
0.016480078
)
;

boundaryField
{
    movingWall
    {
        type            calculated;
        value           uniform 0;
    }
    fixedWalls
    {
        type            calculated;
        value           uniform 0;
    }
    frontAndBack
    {
        type            empty;
        value           nonuniform List<scalar> 0();
    }
}


// ************************************************************************* //
