/*--------------------------------*- C++ -*----------------------------------*\
  =========                 |
  \\      /  F ield         | OpenFOAM: The Open Source CFD Toolbox
   \\    /   O peration     | Website:  https://openfoam.org
    \\  /    A nd           | Version:  9
     \\/     M anipulation  |
\*---------------------------------------------------------------------------*/
FoamFile
{
    format      ascii;
    class       surfaceScalarField;
    location    "15";
    object      phi_0;
}
// * * * * * * * * * * * * * * * * * * * * * * * * * * * * * * * * * * * * * //

dimensions      [0 3 -1 0 0 0 0];

internalField   nonuniform List<scalar> 
760
(
1.2679429e-05
-1.2689149e-05
-2.8731859e-05
4.1411266e-05
-0.00012225359
9.3521735e-05
-0.0002502882
0.00012803459
-0.00039588502
0.00014559675
-0.00054511573
0.00014923065
-0.00068591569
0.00014079994
-0.00080646944
0.00012055375
-0.00089448593
8.80165e-05
-0.00093791141
4.3425512e-05
-0.00092681931
-1.1092086e-05
-0.00085646698
-7.0352304e-05
-0.00073012414
-0.00012634279
-0.00056114272
-0.00016898138
-0.00037266567
-0.00018847703
-0.00019446297
-0.00017820267
-5.655947e-05
-0.00013790349
1.9567149e-05
-7.6126583e-05
3.0385268e-05
-1.0818029e-05
3.0385403e-05
-4.3168494e-05
3.0479343e-05
-0.00020446423
0.00020270704
-0.00046806645
0.00035712398
-0.00080024832
0.00046021641
-0.0011666686
0.00051201702
-0.0015355468
0.00051810887
-0.0018771278
0.00048238093
-0.00216243
0.00040585598
-0.002363204
0.00028879062
-0.0024540017
0.00013422323
-0.0024168703
-4.8223438e-05
-0.0022442413
-0.00024298128
-0.001946657
-0.00042392708
-0.0015538208
-0.00056181757
-0.0011139222
-0.00062837566
-0.00068728679
-0.00060483796
-0.00033448256
-0.00049070766
-0.0001009198
-0.0003096893
-1.5744993e-06
-0.00011016328
2.8810943e-05
-0.00010996041
0.00014043971
-0.00040277715
0.00049552373
-0.00083085827
0.0007852051
-0.0013447607
0.00097411882
-0.0018973991
0.0010646553
-0.0024450543
0.0010657641
-0.0029462257
0.00098355228
-0.0033606062
0.00082023656
-0.0036497699
0.00057795443
-0.003780201
0.00026465434
-0.0037278271
-0.00010059731
-0.0034840409
-0.00048676748
-0.0030618102
-0.00084615771
-0.0024988842
-0.0011247436
-0.0018574848
-0.001269775
-0.0012177141
-0.0012446086
-0.00066354817
-0.0010448736
-0.00026304443
-0.00071019304
-4.7962634e-05
-0.00032524518
-1.9151721e-05
-0.00017331876
0.00031375848
-0.00059288461
0.00091508955
-0.001176899
0.0013692195
-0.0018571369
0.0016543567
-0.0025752348
0.0017827533
-0.0032792279
0.0017697572
-0.0039203763
0.0016247007
-0.0044514801
0.0013513404
-0.0048274854
0.00095395974
-0.005008474
0.00044564299
-0.0049646412
-0.0001444301
-0.004682087
-0.00076932173
-0.0041703675
-0.0013578772
-0.0034675713
-0.0018275398
-0.0026428985
-0.0020944477
-0.0017925042
-0.0020950029
-0.0010254913
-0.0018118865
-0.00044008383
-0.0012956006
-9.670474e-05
-0.00066862427
-0.00011585648
-0.0002296291
0.00054338761
-0.00076453915
0.0014499996
-0.0014904712
0.0020951516
-0.0023210135
0.002484899
-0.0031880975
0.0026498374
-0.0040343231
0.0026159829
-0.0048071681
0.0023975457
-0.0054558408
0.0020000132
-0.0059309345
0.0014290535
-0.0061865824
0.00070129085
-0.0061853196
-0.00014569288
-0.0059027707
-0.0010518706
-0.0053379936
-0.0019226543
-0.0045211561
-0.0026443772
-0.0035215183
-0.0030940854
-0.0024488382
-0.003167683
-0.0014420002
-0.0028187244
-0.0006410075
-0.0020965933
-0.00014879067
-0.0011608411
-0.00026464717
-0.0002771018
0.00082048944
-0.00091093039
0.0020838281
-0.0017595816
0.0029438028
-0.0027210953
0.0034464127
-0.0037199571
0.0036486992
-0.0046959658
0.0035919916
-0.0055957853
0.0032973652
-0.0063678277
0.0027720556
-0.0069602391
0.0020214648
-0.0073213538
0.0010624055
-0.0074041201
-6.2926568e-05
-0.0071686093
-0.0012873815
-0.0065961656
-0.002495098
-0.0056994103
-0.0035411324
-0.004538266
-0.0042552296
-0.0032306266
-0.0044753223
-0.001948305
-0.0041010461
-0.00088696933
-0.003157929
-0.00021151993
-0.0018362905
-0.00047616711
-0.00031391109
0.0011344006
-0.001025701
0.002795618
-0.001972329
0.0038904308
-0.0030400098
0.0045140936
-0.0041484403
0.0047571297
-0.0052372091
0.0046807605
-0.0062549809
0.004315137
-0.0071521915
0.0036692662
-0.0078769124
0.0027461857
-0.0083733866
0.0015588797
-0.0085820335
0.00014572039
-0.008448177
-0.001421238
-0.0079266655
-0.0030166095
-0.0070025309
-0.004465267
-0.0057130936
-0.0055446669
-0.0041721685
-0.0060162474
-0.0025809711
-0.0056922434
-0.0012036942
-0.0045352058
-0.00029440055
-0.0027455841
-0.00077056761
-0.0003380594
0.00147246
-0.0011025803
0.0035601388
-0.0021165474
0.004904398
-0.003258287
0.0056558332
-0.0044453262
0.0059441689
-0.0056194776
0.005854912
-0.0067341574
0.0054298168
-0.0077449726
0.0046800814
-0.0086032793
0.0036044924
-0.0092521466
0.0022077471
-0.0096239823
0.0005175561
-0.0096463187
-0.0013989015
-0.0092463124
-0.0034166158
-0.0083715739
-0.0053400054
-0.0070200905
-0.0068961503
-0.0052803043
-0.0077560336
-0.0033666808
-0.0076058668
-0.0016168723
-0.0062850143
-0.00040813592
-0.0039543205
-0.0011787035
-0.00034800788
0.0018204679
-0.0011367471
0.004348878
-0.0021819187
0.0059495696
-0.0033573346
0.0068312491
-0.0045805789
0.0071674132
-0.0057978502
0.0070721834
-0.0069700006
0.0066019672
-0.0080613394
0.0057714201
-0.009031056
0.0045742091
-0.009826612
0.0030033031
-0.01037894
0.0010698841
-0.010602268
-0.0011755731
-0.010398629
-0.0036202553
-0.009672901
-0.0060657331
-0.008366908
-0.0082021433
-0.0065142463
-0.0096086954
-0.0043088736
-0.0098112395
-0.0021477809
-0.008446107
-0.00056476569
-0.0055373356
-0.0017434691
-0.00034384899
0.0021643169
-0.0011275755
0.0051326045
-0.0021641662
0.0069861603
-0.003325088
0.0079921709
-0.0045297494
0.0083720747
-0.0057307115
0.0082731456
-0.0068988799
0.0077701356
-0.0080109983
0.0068835385
-0.0090394525
0.0056026632
-0.0099436311
0.0039074817
-0.0106621
0.001788353
-0.011105465
-0.00073220767
-0.011162141
-0.00356358
-0.010695842
-0.0065320311
-0.0095813394
-0.0093166464
-0.0077656298
-0.011424405
-0.0053705985
-0.012206271
-0.0028066384
-0.011010067
-0.00077819154
-0.0075657824
-0.0025216606
-0.00032889995
0.0024932169
-0.001082367
0.0058860716
-0.0020706408
0.0079744341
-0.0031633844
0.0090849145
-0.0042836014
0.0094922917
-0.0053925229
0.0093820672
-0.0064738298
0.0088514425
-0.0075203
0.0079300087
-0.008522756
0.0066051192
-0.0094602657
0.0048449914
-0.010291313
0.0026194004
-0.010933159
-9.0361789e-05
-0.011283069
-0.0032136695
-0.011173339
-0.0066417616
-0.010415238
-0.010074747
-0.008846122
-0.012993521
-0.0064551299
-0.014597263
-0.0035810711
-0.013884126
-0.0010640456
-0.010082808
-0.0035857062
-0.0003118613
0.0028050782
-0.001020878
0.0065950884
-0.001926415
0.0088799711
-0.0028953685
0.010053868
-0.0038574095
0.010454333
-0.0047862137
0.010310871
-0.0056815598
0.0097467886
-0.0065554032
0.0088038521
-0.0074209833
0.0074706993
-0.0082830318
0.0057070398
-0.0091264008
0.0034627694
-0.0099098905
0.00069312784
-0.010528345
-0.0025952151
-0.01082784
-0.006342266
-0.010574107
-0.01032848
-0.0094933179
-0.01407431
-0.0073909623
-0.016699619
-0.0044186457
-0.016856442
-0.0014370634
-0.01306439
-0.0050227696
-0.00031020353
0.0031152817
-0.00098081538
0.0072657003
-0.0017798149
0.0096789706
-0.0025704341
0.010844487
-0.0032959454
0.011179844
-0.0039495092
0.010964435
-0.0045518249
0.010349104
-0.0051368541
0.0093888813
-0.0057421609
0.008076006
-0.0064008788
0.0063657576
-0.0071325189
0.0041944095
-0.0079325951
0.001493204
-0.0087409639
-0.0017868463
-0.0094322081
-0.0056510217
-0.0097699944
-0.0099906941
-0.0094012345
-0.01444307
-0.0079309569
-0.018169896
-0.005206176
-0.019581223
-0.0019025311
-0.016368035
-0.0069253007
-0.00035627395
0.0034715557
-0.0010246703
0.0079340968
-0.0017054001
0.0103597
-0.00226245
0.011401537
-0.0026678083
0.011585203
-0.0029464701
0.011243097
-0.0031470133
0.010549648
-0.00332786
0.009569728
-0.0035503346
0.0082984806
-0.0038742542
0.0066896772
-0.0043523616
0.0046725169
-0.0050214646
0.002162307
-0.005879492
-0.00092881892
-0.0068603973
-0.0046701163
-0.007778405
-0.0090726864
-0.008267384
-0.013954091
-0.0077696557
-0.018667625
-0.0057514473
-0.021599432
-0.0024366956
-0.019682787
-0.0093619963
-0.00050854606
0.0039801017
-0.0012464648
0.0086720156
-0.0017973537
0.010910589
-0.0020500927
0.011654276
-0.0020351529
0.011570263
-0.0018285228
0.011036467
-0.0015156163
0.010236741
-0.0011814892
0.009235601
-0.00090842708
0.0080254184
-0.00077741289
0.006558663
-0.00086707617
0.0047621802
-0.001250767
0.0025459979
-0.0019859978
-0.00019358812
-0.0030847187
-0.0035713954
-0.0044624753
-0.0076949298
-0.0058294087
-0.012587158
-0.0065674593
-0.017929574
-0.0057690905
-0.0223978
-0.0029513738
-0.022500503
-0.01231337
-0.00086884804
0.0048489497
-0.0017638644
0.0095670321
-0.0021229393
0.011269664
-0.0019391302
0.011470467
-0.0013538274
0.01098496
-0.0005195839
0.010202224
0.00043331089
0.0092838465
0.0013957109
0.008273201
0.002268449
0.0071526804
0.0029570878
0.0058700242
0.0033655203
0.0043537476
0.0033934323
0.0025180858
0.0029354841
0.0002643601
0.0019068795
-0.0025427907
0.00026732185
-0.0060553721
-0.0018561001
-0.010463736
-0.0039530178
-0.015832656
-0.0048616367
-0.021489181
-0.0032549512
-0.024107189
-0.015568321
-0.0015913125
0.0064402622
-0.0026115982
0.010587318
-0.0025145385
0.011172605
-0.0015919924
0.010547921
-0.00017487517
0.0095678428
0.0014895921
0.0085377563
0.0032293487
0.0075440899
0.0049195159
0.0065830338
0.0064592663
0.0056129301
0.0077539039
0.0045753867
0.0087041525
0.0034034991
0.0091984564
0.002023782
0.0091006576
0.00036215905
0.008272762
-0.0017148951
0.0065634828
-0.0043460929
0.0039026225
-0.0078028754
0.00055776996
-0.012487803
-0.002468817
-0.018462594
-0.0030276038
-0.023548402
-0.018595925
-0.0027184471
0.0091587092
-0.0031502511
0.011019122
-0.0018038676
0.0098262212
0.00046526574
0.0082787878
0.003087424
0.0069456846
0.005771325
0.0058538553
0.0083600484
0.0049553664
0.010757334
0.0041857483
0.012890377
0.003479887
0.014687644
0.0027781204
0.016065552
0.002025591
0.0169208
0.0011685338
0.017117592
0.00016536717
0.016489075
-0.0010863781
0.014815427
-0.0026724451
0.01184554
-0.0048329879
0.0074346307
-0.0080768942
0.0022623623
-0.013290326
-0.0012727269
-0.020013313
-0.019868652
-0.0024132056
0.011571915
2.8078071e-05
0.0085778384
0.0042549374
0.0055993619
0.0084155492
0.0041181761
0.01223047
0.0031307642
0.015654818
0.0024295075
0.018684744
0.0019254404
0.021327147
0.0015433452
0.023581347
0.0012256866
0.025427125
0.00093234229
0.026818241
0.00063447489
0.027675531
0.00031124435
0.027898829
-5.79314e-05
0.02734619
-0.00053373872
0.025770891
-0.0010971465
0.02284253
-0.0019046263
0.018054406
-0.0032887702
0.011113346
-0.0063492658
0.0033885738
-0.01228854
-0.016480078
0.011571915
0.020149753
0.025749115
0.029867291
0.032998056
0.035427563
0.037353004
0.038896349
0.040122035
0.041054378
0.041688852
0.042000097
0.041942165
0.041408427
0.04031128
0.038406654
0.035117884
0.028768618
0.016480078
)
;

boundaryField
{
    movingWall
    {
        type            calculated;
        value           uniform 0;
    }
    fixedWalls
    {
        type            calculated;
        value           uniform 0;
    }
    frontAndBack
    {
        type            empty;
        value           nonuniform List<scalar> 0();
    }
}


// ************************************************************************* //
