/*--------------------------------*- C++ -*----------------------------------*\
  =========                 |
  \\      /  F ield         | OpenFOAM: The Open Source CFD Toolbox
   \\    /   O peration     | Website:  https://openfoam.org
    \\  /    A nd           | Version:  9
     \\/     M anipulation  |
\*---------------------------------------------------------------------------*/
FoamFile
{
    format      ascii;
    class       volVectorField;
    location    "15";
    object      U_0;
}
// * * * * * * * * * * * * * * * * * * * * * * * * * * * * * * * * * * * * * //

dimensions      [0 1 -1 0 0 0 0];

internalField   nonuniform List<vector> 
400
(
(0.00028412577 -0.00028118498 0)
(0.00011021134 8.0027414e-05 0)
(-0.0013270248 0.00047786383 0)
(-0.0036205081 0.00073559119 0)
(-0.0064206999 0.00086708022 0)
(-0.0094268109 0.0009067801 0)
(-0.012381633 0.00087437485 0)
(-0.015048563 0.00077108981 0)
(-0.017185528 0.00058816396 0)
(-0.018543243 0.00031994033 0)
(-0.018893119 -2.4723298e-05 0)
(-0.018077504 -0.00041792931 0)
(-0.016072798 -0.00079917225 0)
(-0.01304387 -0.0010924138 0)
(-0.0093634957 -0.0012205589 0)
(-0.0055767136 -0.0011289884 0)
(-0.0023007774 -0.00081264728 0)
(-8.3944602e-05 -0.00033804608 0)
(0.00075934997 0.00015200034 0)
(0.00040915786 0.00038906499 0)
(-8.6143032e-05 -0.00012324676 0)
(-0.0018684965 0.0017865417 0)
(-0.0063032122 0.0036241791 0)
(-0.012445687 0.0048597893 0)
(-0.019589322 0.0054953736 0)
(-0.027091112 0.0056174065 0)
(-0.034338797 0.0052829784 0)
(-0.040745214 0.0045018732 0)
(-0.045732046 0.0032645991 0)
(-0.048748773 0.0015892145 0)
(-0.049340203 -0.00043454846 0)
(-0.047229757 -0.0026159347 0)
(-0.042431746 -0.0046612136 0)
(-0.035346045 -0.0062150093 0)
(-0.026768299 -0.0069337441 0)
(-0.01782167 -0.0065891549 0)
(-0.009773583 -0.0051778991 0)
(-0.0037464476 -0.0029989449 0)
(-0.00038951992 -0.00066616668 0)
(0.00028951956 0.00078275378 0)
(-0.00058775928 0.0014332019 0)
(-0.0042401906 0.00637408 0)
(-0.01175111 0.010634378 0)
(-0.021455024 0.013475547 0)
(-0.032345678 0.014889363 0)
(-0.043560661 0.015008474 0)
(-0.054253867 0.01392815 0)
(-0.063604049 0.011677983 0)
(-0.070814136 0.0082776587 0)
(-0.075145605 0.0038281219 0)
(-0.075998077 -0.0014029862 0)
(-0.073019833 -0.0069294711 0)
(-0.066234188 -0.012063009 0)
(-0.056143648 -0.015990119 0)
(-0.043762418 -0.017932685 0)
(-0.03055774 -0.01737147 0)
(-0.01824493 -0.014284241 0)
(-0.0084161209 -0.0093097851 0)
(-0.0021511389 -0.00376203 0)
(-2.2044134e-06 0.00031583499 0)
(-0.0010523229 0.0042980431 0)
(-0.0065103441 0.013557499 0)
(-0.016987517 0.020851139 0)
(-0.030010743 0.025545395 0)
(-0.044271453 0.027744501 0)
(-0.058746523 0.027671535 0)
(-0.072442189 0.025473291 0)
(-0.084395711 0.021207613 0)
(-0.09367411 0.014939122 0)
(-0.099408363 0.0068780959 0)
(-0.10087599 -0.0024955441 0)
(-0.097612939 -0.012367127 0)
(-0.089549616 -0.021589729 0)
(-0.077146819 -0.028806637 0)
(-0.061478565 -0.032687816 0)
(-0.04423589 -0.032284027 0)
(-0.027552146 -0.02743437 0)
(-0.013577439 -0.019074515 0)
(-0.0040254213 -0.0092693082 0)
(-0.0002677931 -0.001109222 0)
(-0.0014547645 0.0083597525 0)
(-0.0085429381 0.023166277 0)
(-0.021731136 0.034029813 0)
(-0.037766974 0.040737409 0)
(-0.055060847 0.043675039 0)
(-0.072473624 0.04323375 0)
(-0.088930031 0.039639894 0)
(-0.1033977 0.032985522 0)
(-0.11486763 0.023375838 0)
(-0.12237126 0.011116884 0)
(-0.12505148 -0.0031199972 0)
(-0.12226052 -0.018202348 0)
(-0.11370894 -0.032518163 0)
(-0.099654297 -0.044105325 0)
(-0.081066356 -0.050938363 0)
(-0.059752318 -0.051416143 0)
(-0.038276581 -0.044994402 0)
(-0.019513476 -0.032743923 0)
(-0.0060903842 -0.017487586 0)
(-0.00051093103 -0.0035224081 0)
(-0.0017875984 0.013466452 0)
(-0.010262556 0.034937783 0)
(-0.025788238 0.04987641 0)
(-0.044438046 0.058758006 0)
(-0.064387632 0.062420909 0)
(-0.084427078 0.06151611 0)
(-0.10345741 0.056386862 0)
(-0.12043793 0.047161185 0)
(-0.13433451 0.033959474 0)
(-0.14410334 0.017132819 0)
(-0.14873446 -0.0025239591 0)
(-0.1473284 -0.023613795 0)
(-0.13925257 -0.044111401 0)
(-0.12438534 -0.061405392 0)
(-0.10339129 -0.072603983 0)
(-0.078026313 -0.075138375 0)
(-0.051241973 -0.067678153 0)
(-0.026799781 -0.051105401 0)
(-0.0086092762 -0.028957182 0)
(-0.00078681138 -0.0070513325 0)
(-0.0020406291 0.019423407 0)
(-0.011598222 0.048497079 0)
(-0.028978035 0.067955118 0)
(-0.049728428 0.079177667 0)
(-0.07185106 0.08360898 0)
(-0.094111403 0.08225343 0)
(-0.11544108 0.075613035 0)
(-0.13485 0.063850827 0)
(-0.15133466 0.047062647 0)
(-0.16381498 0.025568366 0)
(-0.17112368 0.00017763924 0)
(-0.17208909 -0.02758305 0)
(-0.16565549 -0.055358014 0)
(-0.15113897 -0.079900027 0)
(-0.12865652 -0.097302431 0)
(-0.099636295 -0.10365191 0)
(-0.067219163 -0.096246856 0)
(-0.036106887 -0.0751927 0)
(-0.011925603 -0.0445258 0)
(-0.0011703621 -0.011998886 0)
(-0.0022000013 0.025996212 0)
(-0.012477893 0.063379184 0)
(-0.031123574 0.08771059 0)
(-0.053327645 0.10143083 0)
(-0.076980601 0.10671837 0)
(-0.10086597 0.10502065 0)
(-0.12399681 0.097044746 0)
(-0.14549338 0.082990773 0)
(-0.16444827 0.062886623 0)
(-0.17981359 0.036931377 0)
(-0.1903376 0.0058121338 0)
(-0.19459628 -0.029002043 0)
(-0.19108057 -0.0649742 0)
(-0.17843919 -0.098337976 0)
(-0.15598117 -0.12411955 0)
(-0.12440979 -0.13670557 0)
(-0.086621638 -0.13127881 0)
(-0.04804941 -0.1061955 0)
(-0.01642415 -0.065372464 0)
(-0.0017531073 -0.018873435 0)
(-0.0022547304 0.032912627 0)
(-0.012848361 0.079040686 0)
(-0.032085905 0.1084719 0)
(-0.054960246 0.12479529 0)
(-0.079305086 0.13102536 0)
(-0.10395742 0.1291389 0)
(-0.12805819 0.12010248 0)
(-0.1508994 0.1041674 0)
(-0.1717498 0.081261135 0)
(-0.1896968 0.051376058 0)
(-0.20352896 0.01493319 0)
(-0.21168311 -0.026842455 0)
(-0.21228106 -0.071484981 0)
(-0.20329662 -0.1149681 0)
(-0.18302496 -0.15138255 0)
(-0.15098548 -0.17321928 0)
(-0.10914076 -0.17276153 0)
(-0.063010932 -0.14519645 0)
(-0.022518826 -0.092949684 0)
(-0.0026580109 -0.028414234 0)
(-0.0022081243 0.039881456 0)
(-0.012713965 0.094891053 0)
(-0.031833291 0.12947021 0)
(-0.054483171 0.14838247 0)
(-0.078481102 0.15556161 0)
(-0.1027477 0.15360102 0)
(-0.12659521 0.14379375 0)
(-0.14954892 0.12647744 0)
(-0.17114305 0.10147473 0)
(-0.19072854 0.068517918 0)
(-0.20730084 0.027646095 0)
(-0.2193521 -0.020359713 0)
(-0.22486234 -0.073413457 0)
(-0.22128101 -0.12762919 0)
(-0.20582922 -0.17655321 0)
(-0.1764518 -0.21092134 0)
(-0.13332549 -0.21954547 0)
(-0.080884406 -0.19269767 0)
(-0.030635233 -0.12881642 0)
(-0.0040688416 -0.041625627 0)
(-0.0020934179 0.046639235 0)
(-0.012189404 0.1103628 0)
(-0.030534494 0.14989228 0)
(-0.052013897 0.17116317 0)
(-0.07445946 0.17911541 0)
(-0.09691323 0.1770535 0)
(-0.11890725 0.16667656 0)
(-0.14026061 0.148467 0)
(-0.16085781 0.1221756 0)
(-0.18044087 0.087274601 0)
(-0.19840216 0.043372107 0)
(-0.21353631 -0.0093546555 0)
(-0.22401297 -0.069629103 0)
(-0.22707887 -0.13407562 0)
(-0.21908202 -0.19638759 0)
(-0.19625534 -0.24618166 0)
(-0.15620623 -0.26878993 0)
(-0.10069471 -0.24792601 0)
(-0.041139616 -0.17429203 0)
(-0.0062691538 -0.059818849 0)
(-0.0019970159 0.053034088 0)
(-0.011568242 0.12502845 0)
(-0.028666206 0.16897191 0)
(-0.048063977 0.19202936 0)
(-0.067647755 0.20027986 0)
(-0.086655408 0.19784615 0)
(-0.10491007 0.18691566 0)
(-0.12258666 0.16818503 0)
(-0.13998438 0.14139459 0)
(-0.15732072 0.10580294 0)
(-0.1745405 0.060592186 0)
(-0.19110922 0.0052599314 0)
(-0.20562563 -0.059877652 0)
(-0.21552565 -0.13255473 0)
(-0.21691483 -0.20746799 0)
(-0.20458394 -0.27425308 0)
(-0.17317367 -0.31565049 0)
(-0.12016552 -0.30801674 0)
(-0.05414253 -0.22983638 0)
(-0.0096733523 -0.084634665 0)
(-0.002100879 0.059163296 0)
(-0.011420613 0.13876497 0)
(-0.027127581 0.18610446 0)
(-0.043643302 0.20987142 0)
(-0.059005415 0.21752866 0)
(-0.072807371 0.214135 0)
(-0.085284549 0.20242598 0)
(-0.097040375 0.18336437 0)
(-0.1088318 0.15674496 0)
(-0.12139652 0.12169246 0)
(-0.13530185 0.077036443 0)
(-0.15075068 0.02165073 0)
(-0.16716777 -0.045069723 0)
(-0.18278089 -0.12246919 0)
(-0.19408684 -0.20707488 0)
(-0.1952584 -0.29005942 0)
(-0.17830667 -0.35352641 0)
(-0.13540838 -0.3673798 0)
(-0.069086931 -0.29410514 0)
(-0.014793689 -0.11796355 0)
(-0.0027694685 0.065602991 0)
(-0.012749375 0.15195509 0)
(-0.027348372 0.2009366 0)
(-0.040272944 0.22361592 0)
(-0.049966129 0.22926524 0)
(-0.056688964 0.22398123 0)
(-0.061284863 0.21103852 0)
(-0.064873631 0.19165655 0)
(-0.068682172 0.16571256 0)
(-0.073938722 0.13228166 0)
(-0.081792517 0.089981621 0)
(-0.093183311 0.037231166 0)
(-0.10852947 -0.027441944 0)
(-0.12726889 -0.10493612 0)
(-0.14710169 -0.19417892 0)
(-0.1628406 -0.28944292 0)
(-0.1651154 -0.37505313 0)
(-0.14091332 -0.41767871 0)
(-0.084063547 -0.36277062 0)
(-0.02201095 -0.1615525 0)
(-0.004721668 0.073823119 0)
(-0.017232645 0.16569307 0)
(-0.031307246 0.21332927 0)
(-0.039719079 0.23211773 0)
(-0.041931124 0.2337469 0)
(-0.039408703 0.2253467 0)
(-0.033877911 0.21057688 0)
(-0.02707109 0.19079004 0)
(-0.020665729 0.16589258 0)
(-0.0162899 0.13494798 0)
(-0.015549635 0.096491195 0)
(-0.019995981 0.048718428 0)
(-0.030984782 -0.010379887 0)
(-0.049294885 -0.082886503 0)
(-0.074452558 -0.17011003 0)
(-0.10332076 -0.27047046 0)
(-0.12728697 -0.37366253 0)
(-0.12975388 -0.44865278 0)
(-0.094921105 -0.42747246 0)
(-0.030931068 -0.21610826 0)
(-0.0093020474 0.086946538 0)
(-0.027442731 0.18183186 0)
(-0.041006105 0.22299833 0)
(-0.042718396 0.23374675 0)
(-0.034457597 0.22875875 0)
(-0.019685867 0.21588461 0)
(-0.0013097817 0.19875115 0)
(0.018269158 0.17854777 0)
(0.036993096 0.15507921 0)
(0.052978064 0.12736683 0)
(0.064346955 0.09395351 0)
(0.069160943 0.053038633 0)
(0.06535079 0.0024901165 0)
(0.050989389 -0.060311591 0)
(0.024591767 -0.13835104 0)
(-0.013745237 -0.23414882 0)
(-0.058787657 -0.34514941 0)
(-0.093532969 -0.44951843 0)
(-0.094479183 -0.47556513 0)
(-0.039217676 -0.28046726 0)
(-0.018581721 0.11087138 0)
(-0.046048328 0.2017664 0)
(-0.055251294 0.2279104 0)
(-0.044019852 0.22498894 0)
(-0.019420637 0.21058195 0)
(0.012274029 0.19225158 0)
(0.046925427 0.17276273 0)
(0.081681383 0.15264022 0)
(0.11436327 0.13134852 0)
(0.14307984 0.10780035 0)
(0.16594718 0.080604184 0)
(0.1809171 0.048130293 0)
(0.18551877 0.0084702738 0)
(0.1771155 -0.040796486 0)
(0.15271634 -0.10315752 0)
(0.10945274 -0.18389117 0)
(0.047211364 -0.28854291 0)
(-0.021459644 -0.4104994 0)
(-0.072262481 -0.49100473 0)
(-0.041149602 -0.35053317 0)
(-0.033352305 0.15561869 0)
(-0.068605453 0.22040265 0)
(-0.055199612 0.21728274 0)
(-0.016101561 0.19530853 0)
(0.034476909 0.17090459 0)
(0.088462942 0.14847624 0)
(0.14171512 0.12859744 0)
(0.19190971 0.11056755 0)
(0.23747863 0.093293646 0)
(0.27705852 0.075577259 0)
(0.30915972 0.056189019 0)
(0.33199026 0.033834845 0)
(0.34312948 0.0070410658 0)
(0.33978999 -0.025896754 0)
(0.31810088 -0.067729879 0)
(0.2732521 -0.12409916 0)
(0.20042754 -0.20584173 0)
(0.10212555 -0.32506507 0)
(-0.012394641 -0.4545673 0)
(-0.023758541 -0.4086368 0)
(-0.033080111 0.23907643 0)
(-0.042645437 0.21792226 0)
(0.042206141 0.16426445 0)
(0.12759727 0.12783012 0)
(0.20768247 0.10142751 0)
(0.2802572 0.08164973 0)
(0.3448406 0.066640849 0)
(0.40154433 0.054698061 0)
(0.4505084 0.044397417 0)
(0.49157751 0.034640891 0)
(0.52412109 0.024554185 0)
(0.54694986 0.013387155 0)
(0.55819184 0.00040596875 0)
(0.55568522 -0.015131072 0)
(0.53550849 -0.034963816 0)
(0.49243426 -0.062484508 0)
(0.41796427 -0.10694586 0)
(0.30410011 -0.19317487 0)
(0.12313444 -0.33691869 0)
(0.052373098 -0.3943788 0)
(0.24300042 0.15257593 0)
(0.3052993 0.11854445 0)
(0.45481566 0.076108773 0)
(0.56001048 0.050839729 0)
(0.63223103 0.035124787 0)
(0.68654215 0.024810652 0)
(0.72942658 0.017958564 0)
(0.763781 0.013254881 0)
(0.79126192 0.009761858 0)
(0.81273385 0.006854763 0)
(0.82839519 0.0041195441 0)
(0.83793053 0.0012782644 0)
(0.84056092 -0.0018429837 0)
(0.83496973 -0.0053249943 0)
(0.81886439 -0.00982785 0)
(0.78942834 -0.016232066 0)
(0.73784365 -0.026935508 0)
(0.65316841 -0.051286688 0)
(0.45609799 -0.1137463 0)
(0.31788989 -0.17206026 0)
)
;

boundaryField
{
    movingWall
    {
        type            fixedValue;
        value           uniform (1 0 0);
    }
    fixedWalls
    {
        type            fixedValue;
        value           uniform (0 0 0);
    }
    frontAndBack
    {
        type            empty;
    }
}


// ************************************************************************* //
