/*--------------------------------*- C++ -*----------------------------------*\
  =========                 |
  \\      /  F ield         | OpenFOAM: The Open Source CFD Toolbox
   \\    /   O peration     | Website:  https://openfoam.org
    \\  /    A nd           | Version:  9
     \\/     M anipulation  |
\*---------------------------------------------------------------------------*/
FoamFile
{
    format      ascii;
    class       volScalarField;
    location    "13";
    object      p;
}
// * * * * * * * * * * * * * * * * * * * * * * * * * * * * * * * * * * * * * //

dimensions      [0 2 -2 0 0 0 0];

internalField   nonuniform List<scalar> 
400
(
3.5809114e-07
-0.00067086787
-0.0013811864
-0.0019363504
-0.0022116468
-0.0021464236
-0.0017163508
-0.00091389952
0.00024795934
0.0017195967
0.0033986986
0.005122734
0.0066834126
0.0078590892
0.0084693258
0.0084364427
0.0078285375
0.0068621422
0.0058805506
0.0053187739
0.00065733969
-3.9534269e-05
-0.00056701285
-0.00093619503
-0.0011046055
-0.0010318946
-0.00069614159
-8.4570304e-05
0.00080095514
0.0019284603
0.003221863
0.0045667842
0.0057939345
0.0067285244
0.0072276038
0.0072292357
0.0067865693
0.00607126
0.0053303169
0.0047589176
0.001421343
0.00044043317
-0.00011520531
-0.00045015576
-0.00060979849
-0.00057776437
-0.00033751096
0.00013064504
0.00084079882
0.0017831771
0.0029079653
0.0041119076
0.0052419932
0.0061250121
0.0066087196
0.0066138966
0.0061737354
0.0054412919
0.0046149145
0.0037701954
0.0020100145
0.00068039859
1.7314625e-05
-0.00035648712
-0.00056697872
-0.00061949037
-0.00050040371
-0.00017847088
0.00038272966
0.0012000433
0.0022462748
0.0034339381
0.004607767
0.0055733723
0.0061404968
0.0061846347
0.0057033342
0.0048385812
0.0037704564
0.0024980993
0.0021620249
0.00049442248
-0.00029579701
-0.00074611512
-0.00105298
-0.0012368066
-0.0012808391
-0.001136052
-0.00073695127
-3.2992259e-05
0.00097812073
0.0022315249
0.0035655268
0.004752972
0.0055420272
0.0057306315
0.0052513257
0.0042254015
0.0028318714
0.0010116306
0.0016492227
-0.00031527633
-0.0012371328
-0.001795077
-0.0022450727
-0.0026162019
-0.0028823778
-0.0029704029
-0.0027780504
-0.0022104962
-0.0012226591
0.00015951486
0.001772369
0.0033534643
0.0045668059
0.0050904703
0.0047427257
0.0035928656
0.0018182966
-0.00069456158
0.0002848273
-0.0019177611
-0.0029685132
-0.003663783
-0.0043084616
-0.0049361085
-0.0055071888
-0.0059192661
-0.0060253369
-0.0056700806
-0.0047363743
-0.0032194729
-0.0012288501
0.00094231395
0.0028555465
0.0040171853
0.0040546585
0.0029179385
0.0007475383
-0.0026450739
-0.0020738872
-0.0044449384
-0.0056177301
-0.0064795314
-0.0073749044
-0.0083412087
-0.0093250829
-0.010192714
-0.010745571
-0.010754767
-0.010010789
-0.0084090589
-0.0059901832
-0.0030364305
-8.409088e-05
0.0021506359
0.0029990782
0.002170109
-0.00033010755
-0.0048329827
-0.0055148555
-0.0079797431
-0.009262685
-0.010314255
-0.011512258
-0.012901856
-0.014420408
-0.015905291
-0.017103711
-0.017701483
-0.017370337
-0.015851418
-0.013057447
-0.0091911938
-0.0048448861
-0.00098249225
0.001311673
0.0013172461
-0.0012941913
-0.0071581221
-0.010059309
-0.012545422
-0.013914235
-0.015156841
-0.016684197
-0.018559516
-0.020721085
-0.022985618
-0.025049625
-0.026507564
-0.02688676
-0.025729716
-0.022765378
-0.017999977
-0.01198455
-0.0058941432
-0.0013207573
0.00034530279
-0.0019039428
-0.0093356557
-0.015658366
-0.018105008
-0.019507732
-0.020892113
-0.022715573
-0.025078067
-0.027934322
-0.031092816
-0.034208244
-0.036786426
-0.038199637
-0.037748473
-0.034974035
-0.029516173
-0.021745928
-0.012918987
-0.0051280932
-0.00066644736
-0.0017184469
-0.010744448
-0.022208234
-0.024578404
-0.025909182
-0.027293973
-0.029275777
-0.032021042
-0.035519577
-0.039584118
-0.043837028
-0.047704072
-0.050429712
-0.051137423
-0.048860799
-0.04305409
-0.033688372
-0.021855718
-0.0099764365
-0.0013638042
3.639186e-05
-0.01017936
-0.029598415
-0.031883449
-0.032937542
-0.034034953
-0.035887878
-0.038770512
-0.042723679
-0.047568755
-0.052898509
-0.05806547
-0.062184008
-0.064167315
-0.062782323
-0.057027082
-0.046400516
-0.031582095
-0.014979961
-0.00081475529
0.0046902953
-0.0054804907
-0.037818051
-0.040004463
-0.040396754
-0.040706909
-0.041963994
-0.044593517
-0.048688278
-0.054063773
-0.060267325
-0.066571792
-0.071966756
-0.07517842
-0.074729031
-0.06919636
-0.057564968
-0.039906711
-0.018200371
0.002830531
0.014481473
0.0069393511
-0.047180633
-0.049089585
-0.048098268
-0.0468398
-0.046859206
-0.048744906
-0.052604607
-0.058202323
-0.064994513
-0.072146544
-0.078511461
-0.082634153
-0.082811993
-0.077252931
-0.0644787
-0.043898534
-0.016717437
0.012529992
0.03296296
0.032428163
-0.058848812
-0.05959793
-0.05584648
-0.051905721
-0.049934791
-0.050585489
-0.053874199
-0.059430774
-0.066539209
-0.074209096
-0.08111709
-0.085613041
-0.0857774
-0.07948191
-0.064849279
-0.040672631
-0.0072305
0.032148339
0.064990015
0.077754245
-0.076185097
-0.072578681
-0.063487687
-0.055410965
-0.05069942
-0.049748778
-0.05226896
-0.057609787
-0.064828461
-0.072707716
-0.079714353
-0.083980058
-0.083348017
-0.075321079
-0.057590139
-0.028374932
0.012925598
0.065389434
0.11554472
0.15149756
-0.10806088
-0.089531384
-0.07121691
-0.057221147
-0.049058966
-0.046309183
-0.048044444
-0.0531574
-0.060379682
-0.068236287
-0.074969547
-0.078477111
-0.076352104
-0.065788778
-0.043860793
-0.0078272004
0.044376415
0.11297876
0.18836213
0.27184139
-0.17682382
-0.10827266
-0.076195421
-0.054649227
-0.042988643
-0.038985877
-0.040545878
-0.045890323
-0.053393323
-0.061384629
-0.067974626
-0.07091682
-0.067518318
-0.054720944
-0.029145293
0.013553607
0.078127797
0.17004104
0.28947178
0.47419545
-0.37206201
-0.1246936
-0.054968035
-0.031963933
-0.022064408
-0.020293853
-0.024340783
-0.03192615
-0.041218502
-0.050591003
-0.058265924
-0.062141222
-0.059746025
-0.048035177
-0.022651917
0.021467751
0.092802613
0.21013173
0.40286634
0.77638771
)
;

boundaryField
{
    movingWall
    {
        type            zeroGradient;
    }
    fixedWalls
    {
        type            zeroGradient;
    }
    frontAndBack
    {
        type            empty;
    }
}


// ************************************************************************* //
