/*--------------------------------*- C++ -*----------------------------------*\
  =========                 |
  \\      /  F ield         | OpenFOAM: The Open Source CFD Toolbox
   \\    /   O peration     | Website:  https://openfoam.org
    \\  /    A nd           | Version:  9
     \\/     M anipulation  |
\*---------------------------------------------------------------------------*/
FoamFile
{
    format      ascii;
    class       surfaceScalarField;
    location    "13";
    object      phi;
}
// * * * * * * * * * * * * * * * * * * * * * * * * * * * * * * * * * * * * * //

dimensions      [0 3 -1 0 0 0 0];

internalField   nonuniform List<scalar> 
760
(
1.2645215e-05
-1.2650362e-05
-2.8742475e-05
4.1387384e-05
-0.00012217532
9.3433205e-05
-0.00025007529
0.00012790001
-0.00039551255
0.00014543722
-0.00054457686
0.00014906408
-0.00068521983
0.00014064278
-0.00080564324
0.00012042331
-0.00089357421
8.7930969e-05
-0.00093697523
4.34011e-05
-0.00092593027
-1.1044883e-05
-0.00085569604
-7.0234155e-05
-0.00072952909
-0.00012616692
-0.00056075502
-0.00016877405
-0.00037248137
-0.00018827362
-0.00019444135
-0.00017803998
-5.6632113e-05
-0.00013780918
1.947566e-05
-7.6107718e-05
3.0334897e-05
-1.0859176e-05
3.0334955e-05
-4.313602e-05
3.0485396e-05
-0.00020426138
0.00020251329
-0.00046756127
0.00035673272
-0.00079935256
0.00045969165
-0.0011653412
0.00051142636
-0.0015337914
0.00051751425
-0.0018749902
0.00048184137
-0.0021599972
0.00040543029
-0.002360601
0.00028853477
-0.0024513812
0.00013418133
-0.002414397
-4.8029199e-05
-0.0022420701
-0.00024256108
-0.0019449089
-0.00042332819
-0.0015525611
-0.00056112177
-0.0011131471
-0.00062768771
-0.00068692206
-0.00060426502
-0.00033439909
-0.00049033215
-0.00010096447
-0.00030954228
-1.6181119e-06
-0.00011020544
2.8716885e-05
-0.00010982841
0.00014031413
-0.0004022788
0.00049496366
-0.00082982327
0.00078427696
-0.0013430893
0.00097295755
-0.0018950598
0.0010633967
-0.0024420791
0.0010645334
-0.0029427056
0.00098246782
-0.0033566867
0.00081941143
-0.0036456409
0.00057748916
-0.0037760811
0.00026462156
-0.0037239424
-0.00010016778
-0.0034805963
-0.0004859072
-0.0030589654
-0.00084495893
-0.0024967307
-0.0011233563
-0.0018560307
-0.0012683877
-0.0012168805
-0.0012434152
-0.00066318307
-0.0010440295
-0.00026295694
-0.00070976834
-4.7974784e-05
-0.00032518752
-1.925788e-05
-0.00017308254
0.00031339646
-0.00059208799
0.0009139698
-0.0011753443
0.0013675335
-0.00185473
0.0016523431
-0.0025719685
0.001780635
-0.0032751705
0.0017677353
-0.0039156632
0.0016229605
-0.0044463042
0.0013500524
-0.0048220821
0.00095326714
-0.0050031021
0.00044564164
-0.0049595606
-0.00014370922
-0.0046775302
-0.00076793756
-0.0041665212
-0.0013559679
-0.0034645544
-0.0018253231
-0.0026407453
-0.0020921967
-0.0017911545
-0.0020930059
-0.0010247955
-0.0018103884
-0.00043982986
-0.0012947339
-9.6667678e-05
-0.00066834963
-0.00011592553
-0.00022930447
0.00054270066
-0.00076349424
0.0014481598
-0.0014884927
0.0020925321
-0.0023180213
0.0024818715
-0.0031841131
0.0026467267
-0.0040294496
0.0026130718
-0.0048015756
0.0023950867
-0.0054497524
0.0019982292
-0.0059246078
0.0014281225
-0.0061802898
0.00070132373
-0.0061793323
-0.00014466663
-0.0058973287
-0.001049941
-0.0053333012
-0.0019199954
-0.0045173617
-0.0026412625
-0.0035186957
-0.0030908627
-0.0024469673
-0.0031647342
-0.0014409568
-0.0028163988
-0.00064057451
-0.0020951161
-0.00014870121
-0.0011602229
-0.00026462668
-0.00027671962
0.00081942026
-0.0009097282
0.0020811682
-0.0017573422
0.0029401462
-0.0027177554
0.0034422846
-0.0037155638
0.0036445351
-0.0046906483
0.0035881563
-0.0055897341
0.0032941726
-0.0063612759
0.0027697711
-0.006953443
0.0020202896
-0.0073145719
0.0010624527
-0.0073976189
-6.1619521e-05
-0.0071626089
-0.001284951
-0.0065908775
-0.0024917267
-0.0056950078
-0.0035371322
-0.0045348686
-0.0042510019
-0.0032282722
-0.0044713305
-0.0019469195
-0.0040977514
-0.00088635331
-0.0031556822
-0.00021137621
-0.0018351999
-0.00047600282
-0.00031351304
0.0011329334
-0.0010244616
0.0027921164
-0.0019700391
0.0038857237
-0.0030366219
0.0045088675
-0.0041440194
0.0047519326
-0.0052318986
0.0046760356
-0.0062489763
0.0043112505
-0.007145718
0.0036665129
-0.007870205
0.0027447766
-0.0083666786
0.0015589264
-0.0085755203
0.00014722225
-0.008442079
-0.0014183921
-0.0079211687
-0.003012637
-0.0069978141
-0.0044604867
-0.0057093144
-0.0055395015
-0.0041694322
-0.0060112126
-0.00257928
-0.0056879035
-0.0012028999
-0.0045320623
-0.00029420027
-0.0027438994
-0.00077020302
-0.000337693
0.0014706265
-0.0011014396
0.0035558627
-0.0021144429
0.004898727
-0.0032551836
0.0056496083
-0.0044412974
0.0059380465
-0.0056146686
0.0058494069
-0.0067287548
0.0054253366
-0.0077391786
0.0046769367
-0.008597291
0.0036028891
-0.009246142
0.0022077775
-0.0096181176
0.00051919786
-0.0096407351
-0.0013957746
-0.0092411525
-0.0034122196
-0.0083669918
-0.0053346473
-0.007016257
-0.0068902361
-0.0052773846
-0.007750085
-0.0033647735
-0.0076005145
-0.0016159224
-0.0062809133
-0.00040787857
-0.0039519432
-0.0011780815
-0.0003477208
0.0018183474
-0.0011358414
0.0043439833
-0.0021802355
0.0059431211
-0.0033548476
0.0068242205
-0.0045773602
0.0071605592
-0.0057940356
0.0070660823
-0.0069657568
0.0065970578
-0.0080568355
0.0057680154
-0.0090264423
0.0045724959
-0.009822006
0.0030033413
-0.010374425
0.0010716172
-0.010597903
-0.0011722972
-0.010394473
-0.0036156495
-0.0096690436
-0.0060600764
-0.0083634904
-0.0081957893
-0.0065114623
-0.009602113
-0.0043069175
-0.0098050592
-0.0021467312
-0.0084410996
-0.00056445678
-0.0055342175
-0.0017425383
-0.00034368277
0.0021620302
-0.0011270252
0.0051273259
-0.0021631136
0.0069792093
-0.0033235119
0.0079846189
-0.0045277109
0.0083647582
-0.0057283257
0.0082666971
-0.0068962839
0.007765016
-0.0080083219
0.0068800534
-0.0090367948
0.0056009687
-0.0099410467
0.0039075933
-0.010659595
0.0017901655
-0.011102988
-0.00072890402
-0.011159665
-0.0035589728
-0.010693356
-0.0065263853
-0.009578902
-0.009310243
-0.0077634099
-0.011417605
-0.0053688519
-0.012199617
-0.0028055929
-0.011004359
-0.00077784822
-0.0075619621
-0.0025203865
-0.00032888432
0.0024909145
-0.001082261
0.0058807028
-0.0020703761
0.0079673243
-0.0031629411
0.0090771838
-0.0042830186
0.0094848356
-0.0053918822
0.0093755608
-0.0064732274
0.0088463612
-0.0075198185
0.0079266445
-0.008522441
0.0066035911
-0.0094601113
0.0048452635
-0.010291275
0.0026213297
-0.010933025
-8.7154853e-05
-0.011282791
-0.0032092059
-0.011172768
-0.0066364088
-0.010414317
-0.010068694
-0.0088449329
-0.012986989
-0.0064539219
-0.014590628
-0.0035801887
-0.013878092
-0.0010637025
-0.010078448
-0.0035840891
-0.00031201034
0.0028029247
-0.0010212624
0.0065899549
-0.0019270231
0.0088730849
-0.0028961782
0.010046339
-0.0038584264
0.010447084
-0.0047874693
0.010304604
-0.005683092
0.0097419839
-0.0065572332
0.0088007858
-0.0074230964
0.0074694543
-0.008285363
0.0057075301
-0.009128806
0.0034647727
-0.0099123081
0.00069634726
-0.010530448
-0.0025910661
-0.010829437
-0.0063374191
-0.010575032
-0.010323099
-0.0094935279
-0.014068493
-0.0073906197
-0.016693536
-0.0044181249
-0.016850587
-0.0014367766
-0.013059797
-0.0050208658
-0.00031051433
0.0031134389
-0.00098168694
0.0072611276
-0.0017812964
0.0096726942
-0.0025724992
0.010837542
-0.0032985551
0.011173139
-0.0039526271
0.010958675
-0.0045554113
0.010344768
-0.005140854
0.0093862285
-0.0057464937
0.0080750939
-0.0064054311
0.0063664675
-0.0071371439
0.0041964854
-0.0079371125
0.0014963159
-0.0087451373
-0.0017830414
-0.0094357841
-0.0056467723
-0.009772727
-0.0099861564
-0.0094029566
-0.014438263
-0.0079316861
-0.018164807
-0.0052062041
-0.019576069
-0.0019023744
-0.016363626
-0.0069232402
-0.00035672622
0.003470165
-0.0010259729
0.0079303742
-0.0017076637
0.010354385
-0.0022656456
0.011395524
-0.0026718456
0.011579339
-0.0029512308
0.011238061
-0.0031523622
0.010545899
-0.0033336519
0.0095675181
-0.0035564149
0.008297857
-0.0038804634
0.0066905161
-0.0043585365
0.0046745585
-0.0050274336
0.002165213
-0.0058850631
-0.00092541192
-0.0068653544
-0.0046664809
-0.0077824999
-0.0090690109
-0.0082703797
-0.013950384
-0.0077714264
-0.01866376
-0.0057521199
-0.021595375
-0.0024367428
-0.019679004
-0.0093599829
-0.00050909761
0.0039792625
-0.001248078
0.0086693547
-0.0018001986
0.010906505
-0.0020541447
0.011649469
-0.0020402756
0.01156547
-0.0018345159
0.011032301
-0.0015222422
0.010233626
-0.0011885119
0.0092337879
-0.00091561276
0.0080249578
-0.00078455667
0.00655946
-0.00087401279
0.0047640146
-0.0012573613
0.0025485615
-0.0019921208
-0.00019065239
-0.0030902318
-0.0035683699
-0.0044672015
-0.0076920412
-0.0058331256
-0.01258446
-0.0065699652
-0.01792692
-0.0057703356
-0.022395005
-0.0029516619
-0.022497677
-0.012311645
-0.00086941856
0.0048486809
-0.0017655705
0.0095655067
-0.0021260074
0.011266942
-0.001943557
0.011467019
-0.001359458
0.010981371
-0.00052615697
0.010199
0.00042608021
0.0092813885
0.0013881459
0.0082717222
0.0022608347
0.007152269
0.0029496679
0.0058706268
0.0033584835
0.004355199
0.0033869068
0.0025201382
0.0029295519
0.00026670243
0.0019015882
-0.0025404062
0.00026274562
-0.0060531986
-0.00185985
-0.010461864
-0.0039557707
-0.015831
-0.0048631899
-0.021487586
-0.0032554309
-0.024105436
-0.015567076
-0.001591755
0.0064404357
-0.0026130421
0.010586794
-0.0025172558
0.011171156
-0.0015960364
0.010545799
-0.00018011978
0.0095654549
0.0014833699
0.0085355102
0.0032224672
0.0075422913
0.0049123005
0.006581889
0.0064520345
0.0056125351
0.0077469307
0.0045757305
0.0086976507
0.0034044789
0.0091925674
0.0020252214
0.0090954595
0.0003638102
0.0082682532
-0.0017132
0.0065596544
-0.0043445999
0.0038995014
-0.0078017109
0.00055547819
-0.012486977
-0.002470293
-0.018461814
-0.0030281592
-0.02354757
-0.018595235
-0.0027186167
0.0091590522
-0.003150998
0.011019175
-0.0018055521
0.0098257098
0.00046248223
0.0082777651
0.0030835473
0.0069443898
0.0057665052
0.0058525523
0.0083545243
0.0049542722
0.010751399
0.004185014
0.012884342
0.0034795924
0.014681799
0.0027782733
0.016060141
0.0020261372
0.016915989
0.0011693727
0.017113486
0.00016631336
0.01648568
-0.0010853941
0.014812694
-0.0026716137
0.011843378
-0.0048323952
0.0074329635
-0.0080765616
0.002261265
-0.013290116
-0.0012732311
-0.020013074
-0.019868466
-0.0024130631
0.011572115
2.8118822e-05
0.0085779931
0.0042545483
0.0055992805
0.0084144392
0.0041178742
0.012228504
0.0031303247
0.015652018
0.0024290389
0.018681253
0.0019250375
0.021323191
0.0015430751
0.023577199
0.0012255847
0.025423061
0.0009324109
0.026814513
0.00063468598
0.027672341
0.00031154442
0.027896171
-5.7516794e-05
0.027344189
-0.00053341245
0.02576946
-0.0010968843
0.02284153
-0.0019044655
0.018053702
-0.0032887334
0.011112881
-0.0063492941
0.0033883772
-0.01228857
-0.016480089
0.011572115
0.020150108
0.025749389
0.029867263
0.032997588
0.035426627
0.037351664
0.038894739
0.040120324
0.041052735
0.041687421
0.041998965
0.041941448
0.041408036
0.040311152
0.038406686
0.035117953
0.028768659
0.016480089
)
;

boundaryField
{
    movingWall
    {
        type            calculated;
        value           uniform 0;
    }
    fixedWalls
    {
        type            calculated;
        value           uniform 0;
    }
    frontAndBack
    {
        type            empty;
        value           nonuniform List<scalar> 0();
    }
}


// ************************************************************************* //
