/*--------------------------------*- C++ -*----------------------------------*\
  =========                 |
  \\      /  F ield         | OpenFOAM: The Open Source CFD Toolbox
   \\    /   O peration     | Website:  https://openfoam.org
    \\  /    A nd           | Version:  9
     \\/     M anipulation  |
\*---------------------------------------------------------------------------*/
FoamFile
{
    format      ascii;
    class       surfaceScalarField;
    location    "13";
    object      phi_0;
}
// * * * * * * * * * * * * * * * * * * * * * * * * * * * * * * * * * * * * * //

dimensions      [0 3 -1 0 0 0 0];

internalField   nonuniform List<scalar> 
760
(
1.264735e-05
-1.264763e-05
-2.8740987e-05
4.1388138e-05
-0.0001221735
9.3432857e-05
-0.00025007285
0.00012789908
-0.00039550896
0.00014543616
-0.0005445717
0.000149063
-0.00068521331
0.00014064168
-0.00080563578
0.00012042234
-0.0008935661
8.7930283e-05
-0.00093696705
4.3400911e-05
-0.00092592251
-1.1044464e-05
-0.00085568937
-7.0233158e-05
-0.00072952398
-0.00012616547
-0.00056075167
-0.00016877236
-0.00037247968
-0.00018827196
-0.00019444094
-0.00017803865
-5.663249e-05
-0.0001378084
1.9475064e-05
-7.6107551e-05
3.0334545e-05
-1.085951e-05
3.0334521e-05
-4.3134804e-05
3.0486962e-05
-0.00020425876
0.00020251277
-0.00046755614
0.00035672998
-0.00079934445
0.00045968742
-0.0011653298
0.0005114216
-0.0015337764
0.0005175096
-0.0018749719
0.00048183719
-0.0021599766
0.00040542701
-0.002360579
0.00028853286
-0.0024513592
0.00013418116
-0.0024143762
-4.8027455e-05
-0.002242052
-0.00024255753
-0.0019448943
-0.0004233232
-0.0015525506
-0.000561116
-0.0011131405
-0.00062768199
-0.00068691882
-0.00060426023
-0.00033439818
-0.00049032901
-0.00010096469
-0.00030954106
-1.6184442e-06
-0.00011020581
2.8716073e-05
-0.00010982674
0.00014031405
-0.00040227435
0.00049495992
-0.00082981419
0.00078427001
-0.0013430748
0.00097294842
-0.0018950399
0.0010633867
-0.002442054
0.0010645236
-0.002942676
0.00098245915
-0.0033566539
0.00081940482
-0.0036456064
0.00057748552
-0.0037760467
0.00026462146
-0.0037239101
-0.00010016412
-0.0034805677
-0.00048590007
-0.0030589418
-0.00084494906
-0.0024967128
-0.0011233449
-0.0018560185
-0.0012683762
-0.0012168734
-0.0012434053
-0.00066317989
-0.0010440225
-0.0002629561
-0.00070976485
-4.7974861e-05
-0.00032518707
-1.925878e-05
-0.00017308009
0.00031339401
-0.00059208126
0.00091396096
-0.0011753312
0.0013675202
-0.0018547096
0.001652327
-0.002571941
0.001780618
-0.0032751366
0.001767719
-0.0039156239
0.0016229465
-0.004446261
0.001350042
-0.0048220371
0.00095326164
-0.0050030575
0.00044564179
-0.0049595185
-0.00014370317
-0.0046774925
-0.00076792611
-0.0041664894
-0.0013559522
-0.0034645293
-0.0018253049
-0.0026407274
-0.0020921781
-0.0017911432
-0.0020929894
-0.0010247896
-0.0018103761
-0.00043982769
-0.0012947268
-9.6667347e-05
-0.00066834743
-0.00011592612
-0.00022930143
0.00054269563
-0.00076348528
0.0014481451
-0.0014884761
0.002092511
-0.0023179962
0.0024818471
-0.0031840798
0.0026467015
-0.004029409
0.0026130481
-0.0048015291
0.0023950668
-0.0054497018
0.0019982148
-0.0059245552
0.0014281151
-0.0061802377
0.00070132409
-0.0061792828
-0.00014465814
-0.0058972838
-0.0010499251
-0.0053332624
-0.0019199735
-0.0045173303
-0.0026412368
-0.0035186723
-0.0030908361
-0.0024469518
-0.0031647099
-0.0014409481
-0.0028163796
-0.00064057088
-0.002095104
-0.00014870042
-0.0011602179
-0.00026462658
-0.00027671631
0.00081941212
-0.00090971783
0.0020811468
-0.0017573235
0.0029401165
-0.0027177275
0.0034422511
-0.0037155272
0.0036445012
-0.004690604
0.0035881251
-0.0055896838
0.0032941466
-0.0063612215
0.0027697525
-0.0069533866
0.0020202801
-0.0073145158
0.0010624532
-0.0073975652
-6.160877e-05
-0.0071625594
-0.0012849309
-0.0065908338
-0.0024916989
-0.0056949714
-0.0035370992
-0.0045348404
-0.004250967
-0.0032282527
-0.0044712976
-0.001946908
-0.0040977243
-0.00088634821
-0.0031556637
-0.00021137496
-0.001835191
-0.00047600154
-0.00031350974
0.0011329219
-0.001024451
0.002792088
-0.00197002
0.0038856853
-0.0030365937
0.0045088248
-0.0041439826
0.0047518902
-0.0052318544
0.004675997
-0.0062489265
0.0043112187
-0.0071456644
0.0036664904
-0.0078701495
0.0027447651
-0.0083666231
0.0015589268
-0.0085754664
0.00014723461
-0.0084420286
-0.0014183687
-0.0079211232
-0.0030126043
-0.0069977751
-0.0044604473
-0.0057092832
-0.0055394589
-0.0041694096
-0.0060111712
-0.0025792661
-0.0056878678
-0.0012028933
-0.0045320365
-0.00029419858
-0.0027438857
-0.00077020011
-0.00033769006
0.0014706118
-0.0011014299
0.003555828
-0.0021144252
0.0048986807
-0.0032551577
0.0056495574
-0.0044412639
0.0059379964
-0.0056146287
0.0058493618
-0.00672871
0.0054252999
-0.0077391306
0.0046769109
-0.0085972414
0.0036028759
-0.0092460924
0.0022077778
-0.0096180691
0.00051921145
-0.0096406889
-0.0013957488
-0.0092411098
-0.0034121833
-0.0083669539
-0.0053346032
-0.0070162254
-0.0068901874
-0.0052773605
-0.007750036
-0.0033647578
-0.0076004705
-0.0016159146
-0.0062808797
-0.00040787643
-0.0039519237
-0.0011780765
-0.0003477185
0.0018183302
-0.0011358338
0.0043439434
-0.0021802213
0.0059430683
-0.0033548268
0.0068241629
-0.0045773334
0.0071605031
-0.0057940039
0.0070660323
-0.0069657215
0.0065970175
-0.0080567981
0.0057679875
-0.009026404
0.0045724818
-0.0098219679
0.0030033417
-0.010374388
0.0010716316
-0.010597867
-0.0011722701
-0.010394438
-0.0036156115
-0.0096690117
-0.0060600299
-0.0083634622
-0.008195737
-0.0065114394
-0.0096020589
-0.0043069014
-0.0098050085
-0.0021467226
-0.0084410585
-0.0005644542
-0.005534192
-0.0017425307
-0.00034368136
0.0021620116
-0.0011270206
0.0051272828
-0.0021631046
0.0069791524
-0.0033234987
0.0079845569
-0.0045276938
0.0083646981
-0.0057283058
0.0082666441
-0.0068962623
0.007764974
-0.0080082996
0.0068800249
-0.0090367725
0.0056009548
-0.0099410251
0.0039075943
-0.010659574
0.0017901805
-0.011102967
-0.00072887672
-0.011159644
-0.0035589348
-0.010693335
-0.0065263389
-0.009578882
-0.0093101903
-0.0077633917
-0.011417549
-0.0053688376
-0.012199563
-0.0028055844
-0.011004312
-0.00077784533
-0.0075619308
-0.0025203761
-0.00032888403
0.0024908957
-0.0010822601
0.0058806588
-0.0020703737
0.007967266
-0.0031629372
0.0090771203
-0.0042830135
0.0094847743
-0.0053918767
0.0093755073
-0.0064732222
0.0088463194
-0.0075198143
0.007926617
-0.008522438
0.0066035787
-0.0094601096
0.0048452659
-0.010291275
0.0026213457
-0.010933023
-8.7128444e-05
-0.011282789
-0.0032091691
-0.011172763
-0.0066363648
-0.01041431
-0.010068644
-0.0088449232
-0.012986936
-0.006453912
-0.014590574
-0.0035801816
-0.013878042
-0.0010636996
-0.010078412
-0.0035840758
-0.00031201136
0.0028029072
-0.0010212654
0.0065899128
-0.0019270279
0.0088730283
-0.0028961847
0.010046277
-0.0038584345
0.010447024
-0.0047874793
0.010304552
-0.0056831043
0.0097419445
-0.0065572479
0.0088007606
-0.0074231135
0.0074694441
-0.0082853818
0.0057075342
-0.0091288255
0.0034647893
-0.0099123277
0.00069637374
-0.010530465
-0.002591032
-0.01082945
-0.0063373792
-0.010575039
-0.010323055
-0.0094935297
-0.014068445
-0.0073906169
-0.016693486
-0.0044181207
-0.016850538
-0.0014367742
-0.013059759
-0.00502085
-0.00031051675
0.0031134239
-0.00098169406
0.00726109
-0.0017813084
0.0096726426
-0.002572516
0.010837485
-0.0032985764
0.011173084
-0.0039526525
0.010958628
-0.0045554405
0.010344732
-0.0051408866
0.0093862068
-0.005746529
0.0080750865
-0.0064054683
0.0063664734
-0.0071371817
0.0041965025
-0.0079371495
0.0014963415
-0.0087451715
-0.0017830102
-0.0094358134
-0.0056467374
-0.0097727495
-0.0099861191
-0.0094029708
-0.014438224
-0.0079316921
-0.018164765
-0.0052062043
-0.019576026
-0.0019023731
-0.01636359
-0.0069232231
-0.00035672987
0.0034701537
-0.0010259836
0.0079303438
-0.0017076821
0.010354341
-0.0022656716
0.011395474
-0.0026718786
0.011579291
-0.0029512696
0.011238019
-0.0031524059
0.010545869
-0.0033336992
0.0095675
-0.0035564646
0.0082978519
-0.0038805143
0.0066905229
-0.0043585871
0.0046745752
-0.0050274826
0.0021652368
-0.0058851088
-0.000925384
-0.0068653952
-0.004666451
-0.0077825335
-0.0090689807
-0.0082704043
-0.013950353
-0.0077714409
-0.018663728
-0.0057521254
-0.021595342
-0.0024367431
-0.019678972
-0.0093599662
-0.00050910207
0.0039792558
-0.0012480912
0.008669333
-0.0018002218
0.010906472
-0.0020541777
0.01164943
-0.0020403175
0.011565431
-0.0018345648
0.011032267
-0.0015222964
0.0102336
-0.0011885694
0.009233773
-0.00091567165
0.008024954
-0.00078461525
0.0065594664
-0.00087406971
0.0047640296
-0.0012574154
0.0025485824
-0.0019921711
-0.00019062838
-0.0030902771
-0.0035683451
-0.0044672403
-0.0076920175
-0.005833156
-0.012584437
-0.0065699857
-0.017926899
-0.0057703458
-0.022394982
-0.0029516642
-0.022497654
-0.01231163
-0.00086942311
0.0048486789
-0.0017655845
0.0095654944
-0.0021260324
0.01126692
-0.0019435931
0.011466991
-0.0013595041
0.010981342
-0.00052621081
0.010198973
0.00042602094
0.0092813684
0.0013880838
0.00827171
0.0022607722
0.0071522655
0.002949607
0.0058706316
0.0033584257
0.0043552108
0.0033868533
0.0025201549
0.0029295033
0.0002667216
0.0019015449
-0.0025403866
0.0002627082
-0.0060531807
-0.0018598807
-0.010461848
-0.0039557931
-0.015830986
-0.0048632026
-0.021487572
-0.0032554348
-0.024105422
-0.015567065
-0.0015917584
0.0064404374
-0.0026130539
0.01058679
-0.002517278
0.011171144
-0.0015960694
0.010545782
-0.00018016272
0.0095654353
0.0014833189
0.0085354917
0.0032224108
0.0075422765
0.0049122413
0.0065818795
0.0064519751
0.0056125317
0.0077468734
0.0045757332
0.0086975974
0.0034044868
0.0091925191
0.0020252331
0.009095417
0.00036382373
0.0082682163
-0.001713186
0.0065596233
-0.0043445876
0.0038994759
-0.0078017012
0.00055545955
-0.01248697
-0.0024703049
-0.018461808
-0.0030281638
-0.023547563
-0.018595229
-0.0027186179
0.0091590553
-0.003151004
0.011019176
-0.0018055659
0.0098257058
0.00046245946
0.0082777568
0.0030835155
0.0069443792
0.0057664656
0.0058525416
0.0083544789
0.0049542632
0.010751351
0.0041850079
0.012884292
0.0034795899
0.014681751
0.0027782745
0.016060096
0.0020261416
0.01691595
0.0011693795
0.017113453
0.00016632111
0.016485653
-0.0010853859
0.014812672
-0.0026716068
0.011843361
-0.0048323903
0.0074329499
-0.0080765588
0.0022612561
-0.013290114
-0.0012732352
-0.020013072
-0.019868464
-0.0024130618
0.011572117
2.8119312e-05
0.0085779944
0.0042545451
0.0055992798
0.0084144301
0.0041178718
0.012228488
0.003130321
0.015651995
0.002429035
0.018681224
0.0019250341
0.021323159
0.0015430728
0.023577165
0.0012255837
0.025423028
0.00093241141
0.026814482
0.00063468773
0.027672315
0.00031154698
0.027896149
-5.7513303e-05
0.027344173
-0.00053340973
0.025769449
-0.0010968821
0.022841522
-0.0019044641
0.018053696
-0.003288733
0.011112877
-0.0063492943
0.0033883756
-0.012288571
-0.016480089
0.011572117
0.020150111
0.025749391
0.029867263
0.032997584
0.035426619
0.037351653
0.038894726
0.04012031
0.041052721
0.041687409
0.041998956
0.041941443
0.041408033
0.040311151
0.038406687
0.035117954
0.028768659
0.016480089
)
;

boundaryField
{
    movingWall
    {
        type            calculated;
        value           uniform 0;
    }
    fixedWalls
    {
        type            calculated;
        value           uniform 0;
    }
    frontAndBack
    {
        type            empty;
        value           nonuniform List<scalar> 0();
    }
}


// ************************************************************************* //
