/*--------------------------------*- C++ -*----------------------------------*\
  =========                 |
  \\      /  F ield         | OpenFOAM: The Open Source CFD Toolbox
   \\    /   O peration     | Website:  https://openfoam.org
    \\  /    A nd           | Version:  9
     \\/     M anipulation  |
\*---------------------------------------------------------------------------*/
FoamFile
{
    format      ascii;
    class       volVectorField;
    location    "13";
    object      U;
}
// * * * * * * * * * * * * * * * * * * * * * * * * * * * * * * * * * * * * * //

dimensions      [0 1 -1 0 0 0 0];

internalField   nonuniform List<vector> 
400
(
(0.00028365064 -0.00028063615 0)
(0.00010947396 8.0209345e-05 0)
(-0.0013266007 0.0004775653 0)
(-0.0036177409 0.00073494321 0)
(-0.0064149004 0.00086622734 0)
(-0.0094176696 0.00090582919 0)
(-0.012369178 0.00087341709 0)
(-0.015033157 0.00077023038 0)
(-0.017167894 0.00058752985 0)
(-0.018524463 0.00031966119 0)
(-0.018874557 -2.4548529e-05 0)
(-0.018060634 -0.00041727022 0)
(-0.016058955 -0.00079810166 0)
(-0.013033985 -0.001091113 0)
(-0.0093578598 -0.0012192903 0)
(-0.0055748751 -0.0011280332 0)
(-0.0023016238 -0.00081221359 0)
(-8.5864301e-05 -0.00033816923 0)
(0.00075780125 0.00015143033 0)
(0.00040860945 0.00038853309 0)
(-8.6236463e-05 -0.00012239583 0)
(-0.0018669026 0.001785259 0)
(-0.0062966827 0.0036205695 0)
(-0.012431977 0.0048545363 0)
(-0.019567159 0.0054892319 0)
(-0.027060131 0.0056110454 0)
(-0.0342995 0.0052770297 0)
(-0.040698953 0.0044969915 0)
(-0.045680981 0.0032614484 0)
(-0.04869575 0.0015883708 0)
(-0.049288493 -0.00043274629 0)
(-0.047182662 -0.0026115359 0)
(-0.042392121 -0.0046547247 0)
(-0.035315825 -0.0062073839 0)
(-0.026748127 -0.0069262426 0)
(-0.01781074 -0.0065830778 0)
(-0.009769764 -0.0051742288 0)
(-0.0037467344 -0.0029979843 0)
(-0.00039100554 -0.00066738922 0)
(0.00028879276 0.00078121075 0)
(-0.00058710907 0.0014324648 0)
(-0.004235046 0.0063674577 0)
(-0.011736517 0.010622302 0)
(-0.02142828 0.013459829 0)
(-0.032305545 0.01487192 0)
(-0.043507167 0.014991089 0)
(-0.054188269 0.013912529 0)
(-0.063528762 0.011665801 0)
(-0.070732589 0.0082704631 0)
(-0.075061992 0.003827107 0)
(-0.075916973 -0.0013972802 0)
(-0.072945667 -0.0069174161 0)
(-0.066170706 -0.012045957 0)
(-0.056093437 -0.015970339 0)
(-0.043726509 -0.01791305 0)
(-0.030535407 -0.017354916 0)
(-0.01823377 -0.014273055 0)
(-0.0084125132 -0.0093048773 0)
(-0.0021511699 -0.0037624016 0)
(-2.6570596e-06 0.00031363978 0)
(-0.0010508702 0.0042935563 0)
(-0.0065015222 0.013541501 0)
(-0.016964845 0.020825914 0)
(-0.029971379 0.025514507 0)
(-0.044214536 0.027711448 0)
(-0.058672717 0.027639532 0)
(-0.072353585 0.025445358 0)
(-0.084295671 0.021186591 0)
(-0.093567021 0.014927478 0)
(-0.099299291 0.0068775625 0)
(-0.10077025 -0.0024843695 0)
(-0.097515569 -0.012345102 0)
(-0.089464881 -0.021559184 0)
(-0.077077841 -0.028771269 0)
(-0.061426928 -0.03265225 0)
(-0.044201352 -0.032253055 0)
(-0.027532559 -0.02741191 0)
(-0.013569045 -0.019062461 0)
(-0.0040236115 -0.0092665971 0)
(-0.00026793317 -0.0011112182 0)
(-0.0014526238 0.0083495443 0)
(-0.0085310197 0.023137257 0)
(-0.021701784 0.033987387 0)
(-0.037717405 0.040687546 0)
(-0.054990721 0.043623159 0)
(-0.072384278 0.043184673 0)
(-0.088824281 0.039598015 0)
(-0.10327958 0.032954812 0)
(-0.11474207 0.02335956 0)
(-0.12224369 0.011117158 0)
(-0.12492743 -0.0031026363 0)
(-0.12214518 -0.018169287 0)
(-0.1136068 -0.032472633 0)
(-0.099568938 -0.044052311 0)
(-0.081000071 -0.050884137 0)
(-0.059705714 -0.051367417 0)
(-0.038248242 -0.044957043 0)
(-0.019499936 -0.032721343 0)
(-0.0060865876 -0.017479296 0)
(-0.00051075371 -0.003523139 0)
(-0.0017850039 0.013449024 0)
(-0.010248648 0.034893047 0)
(-0.025754698 0.049813903 0)
(-0.044382274 0.058686626 0)
(-0.064309785 0.062348233 0)
(-0.084329055 0.061448626 0)
(-0.10334253 0.056330273 0)
(-0.12031054 0.047120428 0)
(-0.13419963 0.033938399 0)
(-0.14396624 0.017133706 0)
(-0.14860044 -0.0025007694 0)
(-0.14720236 -0.023569914 0)
(-0.13913885 -0.044050804 0)
(-0.12428781 -0.061334058 0)
(-0.10331295 -0.072529531 0)
(-0.077968869 -0.075069335 0)
(-0.051205192 -0.067622603 0)
(-0.026781014 -0.051068929 0)
(-0.0086034064 -0.028940717 0)
(-0.00078630352 -0.0070497314 0)
(-0.0020379009 0.019398003 0)
(-0.011583805 0.048435355 0)
(-0.028943574 0.067871309 0)
(-0.049671573 0.079083892 0)
(-0.071772348 0.083515086 0)
(-0.094013092 0.082167528 0)
(-0.1153267 0.075541979 0)
(-0.1347239 0.063800286 0)
(-0.15120158 0.047036808 0)
(-0.16367965 0.025569525 0)
(-0.17099044 0.00020593799 0)
(-0.1719621 -0.027529608 0)
(-0.16553876 -0.055283759 0)
(-0.15103615 -0.079811415 0)
(-0.12857102 -0.097207889 0)
(-0.099570895 -0.1035614 0)
(-0.06717518 -0.096170711 0)
(-0.036083147 -0.075139321 0)
(-0.011917593 -0.044498589 0)
(-0.0011694784 -0.011993834 0)
(-0.0021975063 0.02596298 0)
(-0.012464652 0.063300914 0)
(-0.031091874 0.0876062 0)
(-0.053275422 0.10131567 0)
(-0.0769086 0.10660455 0)
(-0.10077658 0.10491777 0)
(-0.12389351 0.096960615 0)
(-0.14538021 0.082931514 0)
(-0.16432935 0.062856487 0)
(-0.17969275 0.036932474 0)
(-0.19021817 0.0058443046 0)
(-0.19448118 -0.028941281 0)
(-0.19097257 -0.064889175 0)
(-0.17834117 -0.098235086 0)
(-0.15589637 -0.12400731 0)
(-0.12434169 -0.13659462 0)
(-0.086573196 -0.13118134 0)
(-0.048021597 -0.1061231 0)
(-0.016414037 -0.065332187 0)
(-0.0017517783 -0.018863768 0)
(-0.0022528343 0.032872689 0)
(-0.012837983 0.078948121 0)
(-0.032060661 0.10834968 0)
(-0.054918372 0.12466173 0)
(-0.079247351 0.13089464 0)
(-0.10388612 0.12902199 0)
(-0.12797652 0.12000792 0)
(-0.15081089 0.10410148 0)
(-0.17165777 0.081227849 0)
(-0.189604 0.051377003 0)
(-0.2034374 0.014967618 0)
(-0.2115941 -0.026777301 0)
(-0.21219565 -0.071393276 0)
(-0.20321618 -0.11485584 0)
(-0.18295166 -0.15125757 0)
(-0.15092269 -0.17309183 0)
(-0.10909266 -0.17264465 0)
(-0.062981023 -0.14510465 0)
(-0.022506921 -0.092894694 0)
(-0.002656168 -0.028398817 0)
(-0.0022071377 0.039836845 0)
(-0.012707928 0.094788153 0)
(-0.031817776 0.12933484 0)
(-0.05445673 0.14823531 0)
(-0.07844434 0.15541867 0)
(-0.10270258 0.15347446 0)
(-0.12654444 0.14369261 0)
(-0.14949536 0.12640795 0)
(-0.17108911 0.10144037 0)
(-0.19067586 0.068519474 0)
(-0.20725004 0.027681971 0)
(-0.21930254 -0.020292866 0)
(-0.22481311 -0.073319615 0)
(-0.22123156 -0.12751382 0)
(-0.20577975 -0.17642281 0)
(-0.17640446 -0.21078452 0)
(-0.1332847 -0.21941449 0)
(-0.080855841 -0.19258878 0)
(-0.030622339 -0.12874641 0)
(-0.0040664598 -0.04160353 0)
(-0.0020935487 0.046592712 0)
(-0.012188773 0.11025494 0)
(-0.030531154 0.14975003 0)
(-0.052006727 0.17100874 0)
(-0.07444871 0.17896625 0)
(-0.096900277 0.17692275 0)
(-0.11889407 0.1665736 0)
(-0.14024915 0.14839784 0)
(-0.16084951 0.12214301 0)
(-0.1804363 0.087278402 0)
(-0.19840066 0.043409865 0)
(-0.21353528 -0.0092868962 0)
(-0.22400978 -0.069537042 0)
(-0.22707108 -0.13396368 0)
(-0.21906736 -0.19626036 0)
(-0.19623376 -0.24604512 0)
(-0.15618099 -0.2686537 0)
(-0.10067238 -0.24780587 0)
(-0.041127235 -0.17420882 0)
(-0.0062663185 -0.059789654 0)
(-0.0019983417 0.052988866 0)
(-0.011573533 0.12492195 0)
(-0.028676343 0.16883019 0)
(-0.048078187 0.19187504 0)
(-0.067665743 0.20013129 0)
(-0.08667766 0.19771717 0)
(-0.10493746 0.18681587 0)
(-0.12261995 0.1681201 0)
(-0.14002377 0.1413665 0)
(-0.15736544 0.10581045 0)
(-0.17458866 0.06063162 0)
(-0.19115857 0.0053260802 0)
(-0.2056721 -0.059790996 0)
(-0.2155639 -0.1324518 0)
(-0.21694086 -0.20735203 0)
(-0.20459531 -0.27412712 0)
(-0.17317129 -0.31552016 0)
(-0.12015497 -0.30789464 0)
(-0.054132939 -0.22974469 0)
(-0.0096703506 -0.084598878 0)
(-0.0021033456 0.059122708 0)
(-0.011431734 0.13866648 0)
(-0.027151179 0.1859711 0)
(-0.043678982 0.20972496 0)
(-0.059052188 0.21738763 0)
(-0.072864519 0.21401356 0)
(-0.085351454 0.20233378 0)
(-0.097116233 0.18330672 0)
(-0.10891538 0.15672319 0)
(-0.12148592 0.12170436 0)
(-0.13539449 0.077077076 0)
(-0.15084337 0.021713609 0)
(-0.1672562 -0.044990342 0)
(-0.1828599 -0.12237846 0)
(-0.19415119 -0.20697559 0)
(-0.19530354 -0.28995232 0)
(-0.17833064 -0.35341278 0)
(-0.13541401 -0.36726694 0)
(-0.069082883 -0.29401259 0)
(-0.014791098 -0.11792304 0)
(-0.0027728939 0.065570158 0)
(-0.012765592 0.15187096 0)
(-0.027383972 0.20081919 0)
(-0.040327968 0.22348481 0)
(-0.050038846 0.22913823 0)
(-0.056777237 0.22387228 0)
(-0.061386245 0.2109571 0)
(-0.064985416 0.19160774 0)
(-0.068801436 0.1656973 0)
(-0.07406236 0.13229736 0)
(-0.081917314 0.090022926 0)
(-0.093305946 0.037291175 0)
(-0.10864625 -0.027370094 0)
(-0.12737568 -0.10485819 0)
(-0.14719366 -0.19409795 0)
(-0.16291252 -0.28935868 0)
(-0.16516315 -0.37496357 0)
(-0.14093622 -0.4175853 0)
(-0.084067377 -0.36268663 0)
(-0.022009626 -0.16151075 0)
(-0.0047256983 0.073800583 0)
(-0.01725244 0.16562858 0)
(-0.031351654 0.21323429 0)
(-0.03978868 0.23200841 0)
(-0.042023612 0.23363931 0)
(-0.039520574 0.22525391 0)
(-0.03400483 0.21050786 0)
(-0.027208415 0.19074982 0)
(-0.020808858 0.16588206 0)
(-0.016434492 0.13496484 0)
(-0.015691876 0.096530447 0)
(-0.020132664 0.048773393 0)
(-0.031113163 -0.010316368 0)
(-0.049412479 -0.082820728 0)
(-0.074556249 -0.17004592 0)
(-0.10340631 -0.27040831 0)
(-0.12734975 -0.373599 0)
(-0.12979049 -0.44858503 0)
(-0.094933291 -0.42740568 0)
(-0.030931852 -0.21606998 0)
(-0.0093060074 0.086935667 0)
(-0.027463344 0.18179013 0)
(-0.041053599 0.22293005 0)
(-0.042794068 0.23366368 0)
(-0.034559111 0.22867428 0)
(-0.019808958 0.21581014 0)
(-0.0014487124 0.19869504 0)
(0.01812042 0.17851477 0)
(0.036840375 0.15507068 0)
(0.052826813 0.12738123 0)
(0.064201546 0.093986882 0)
(0.069024551 0.053085271 0)
(0.065225575 0.0025434709 0)
(0.050876468 -0.060257761 0)
(0.024492236 -0.13830142 0)
(-0.01382928 -0.23410497 0)
(-0.058853308 -0.34510886 0)
(-0.093575678 -0.44947668 0)
(-0.094497126 -0.47552036 0)
(-0.039220693 -0.28043709 0)
(-0.018584442 0.11087119 0)
(-0.046065165 0.20174674 0)
(-0.055292605 0.22786917 0)
(-0.044088027 0.22493318 0)
(-0.019514508 0.21052175 0)
(0.012158262 0.19219626 0)
(0.046793424 0.17271952 0)
(0.081539374 0.15261345 0)
(0.11421768 0.13134009 0)
(0.14293669 0.10780967 0)
(0.16581141 0.080628584 0)
(0.18079229 0.048165513 0)
(0.18540726 0.0085110819 0)
(0.17701788 -0.040755592 0)
(0.1526326 -0.10312114 0)
(0.10938277 -0.18386187 0)
(0.047154804 -0.28852002 0)
(-0.021499112 -0.41047798 0)
(-0.072280948 -0.49098088 0)
(-0.041153698 -0.35051419 0)
(-0.033352422 0.15562499 0)
(-0.068612856 0.2203992 0)
(-0.0552235 0.2172643 0)
(-0.016146153 0.19527771 0)
(0.034410236 0.17086787 0)
(0.088375608 0.14844044 0)
(0.14161102 0.12856794 0)
(0.19179418 0.110548 0)
(0.23735779 0.093285932 0)
(0.27693849 0.075581465 0)
(0.30904596 0.056203666 0)
(0.331887 0.033857258 0)
(0.34303961 0.0070679018 0)
(0.33971444 -0.025870056 0)
(0.31803946 -0.067706738 0)
(0.27320328 -0.12408202 0)
(0.2003893 -0.20583122 0)
(0.10209795 -0.32505718 0)
(-0.012408921 -0.45455875 0)
(-0.023762193 -0.4086292 0)
(-0.033078162 0.23908274 0)
(-0.04264211 0.21792643 0)
(0.042204039 0.16426088 0)
(0.12758305 0.12781912 0)
(0.20765233 0.10141202 0)
(0.28020979 0.081633359 0)
(0.34477745 0.066626704 0)
(0.40146918 0.054688374 0)
(0.45042634 0.044393403 0)
(0.4914942 0.034642736 0)
(0.52404192 0.024561138 0)
(0.54687957 0.013397713 0)
(0.5581326 0.00041803389 0)
(0.55563827 -0.015118936 0)
(0.53547409 -0.034953408 0)
(0.49241038 -0.062477359 0)
(0.41794792 -0.10694245 0)
(0.30408881 -0.19317376 0)
(0.12312789 -0.336918 0)
(0.052370952 -0.39437816 0)
(0.24300265 0.15257811 0)
(0.30530534 0.1185475 0)
(0.45482243 0.076109996 0)
(0.56001364 0.050838824 0)
(0.63222677 0.035122268 0)
(0.68652852 0.024807439 0)
(0.72940386 0.017955586 0)
(0.7637512 0.013252852 0)
(0.79122815 0.0097611882 0)
(0.81269962 0.0068555377 0)
(0.82836374 0.0041215262 0)
(0.83790442 0.0012809875 0)
(0.84054184 -0.0018406331 0)
(0.83495843 -0.0053225474 0)
(0.81885937 -0.0098256937 0)
(0.78942772 -0.016230747 0)
(0.73784515 -0.026935126 0)
(0.65316991 -0.051286955 0)
(0.45609861 -0.11374683 0)
(0.31788991 -0.17206071 0)
)
;

boundaryField
{
    movingWall
    {
        type            fixedValue;
        value           uniform (1 0 0);
    }
    fixedWalls
    {
        type            fixedValue;
        value           uniform (0 0 0);
    }
    frontAndBack
    {
        type            empty;
    }
}


// ************************************************************************* //
