/*--------------------------------*- C++ -*----------------------------------*\
  =========                 |
  \\      /  F ield         | OpenFOAM: The Open Source CFD Toolbox
   \\    /   O peration     | Website:  https://openfoam.org
    \\  /    A nd           | Version:  9
     \\/     M anipulation  |
\*---------------------------------------------------------------------------*/
FoamFile
{
    format      ascii;
    class       volVectorField;
    location    "13";
    object      U_0;
}
// * * * * * * * * * * * * * * * * * * * * * * * * * * * * * * * * * * * * * //

dimensions      [0 1 -1 0 0 0 0];

internalField   nonuniform List<vector> 
400
(
(0.000283669 -0.00028060929 0)
(0.00010950626 8.021992e-05 0)
(-0.0013265695 0.00047756638 0)
(-0.0036176993 0.00073493969 0)
(-0.0064148405 0.00086622286 0)
(-0.0094175818 0.00090582416 0)
(-0.01236906 0.00087341112 0)
(-0.015033015 0.00077022436 0)
(-0.017167736 0.0005875249 0)
(-0.018524298 0.00031965904 0)
(-0.018874395 -2.4546817e-05 0)
(-0.018060487 -0.00041726458 0)
(-0.016058835 -0.00079809279 0)
(-0.0130339 -0.0010911024 0)
(-0.0093578101 -0.00121928 0)
(-0.0055748559 -0.0011280255 0)
(-0.0023016263 -0.00081221 0)
(-8.5876346e-05 -0.00033817015 0)
(0.00075779072 0.00015142565 0)
(0.00040860557 0.00038852854 0)
(-8.6228209e-05 -0.00012235099 0)
(-0.0018668707 0.0017852686 0)
(-0.0062966096 0.0036205481 0)
(-0.012431847 0.0048544958 0)
(-0.019566964 0.005489185 0)
(-0.027059865 0.0056109983 0)
(-0.034299164 0.0052769853 0)
(-0.04069856 0.0044969546 0)
(-0.045680549 0.0032614247 0)
(-0.048695303 0.0015883657 0)
(-0.049288058 -0.00043272973 0)
(-0.047182267 -0.0026114986 0)
(-0.04239179 -0.0046546707 0)
(-0.035315572 -0.0062073208 0)
(-0.026747957 -0.0069261804 0)
(-0.017810645 -0.0065830272 0)
(-0.009769728 -0.005174198 0)
(-0.0037467331 -0.0029979761 0)
(-0.00039101584 -0.00066739945 0)
(0.00028878723 0.00078119747 0)
(-0.00058709838 0.0014324834 0)
(-0.0042349948 0.0063674228 0)
(-0.011736388 0.010622214 0)
(-0.021428046 0.013459705 0)
(-0.032305201 0.01487178 0)
(-0.043506714 0.014990951 0)
(-0.054187717 0.013912406 0)
(-0.06352813 0.011665705 0)
(-0.070731907 0.0082704077 0)
(-0.075061294 0.003827102 0)
(-0.075916297 -0.0013972305 0)
(-0.072945051 -0.0069173155 0)
(-0.06617018 -0.012045816 0)
(-0.05609302 -0.015970176 0)
(-0.04372621 -0.017912887 0)
(-0.030535219 -0.017354779 0)
(-0.018233674 -0.014272962 0)
(-0.0084124806 -0.0093048368 0)
(-0.0021511688 -0.0037624051 0)
(-2.6605091e-06 0.00031362109 0)
(-0.0010508534 0.0042935344 0)
(-0.0065014429 0.013541382 0)
(-0.016964654 0.020825719 0)
(-0.029971045 0.025514262 0)
(-0.044214055 0.027711183 0)
(-0.058672098 0.027639276 0)
(-0.072352845 0.025445134 0)
(-0.084294837 0.021186422 0)
(-0.093566129 0.014927386 0)
(-0.099298385 0.0068775614 0)
(-0.10076938 -0.002484275 0)
(-0.097514763 -0.01234492 0)
(-0.08946418 -0.021558932 0)
(-0.07707727 -0.028770978 0)
(-0.061426499 -0.032651956 0)
(-0.044201064 -0.032252799 0)
(-0.027532395 -0.027411725 0)
(-0.013568973 -0.019062362 0)
(-0.0040235955 -0.0092665756 0)
(-0.00026793404 -0.0011112352 0)
(-0.0014526026 0.0083494719 0)
(-0.0085309143 0.023137026 0)
(-0.021701536 0.033987049 0)
(-0.03771699 0.040687147 0)
(-0.054990133 0.04362274 0)
(-0.072383532 0.043184275 0)
(-0.088823401 0.039597676 0)
(-0.1032786 0.032954564 0)
(-0.11474103 0.02335943 0)
(-0.12224263 0.011117162 0)
(-0.1249264 -0.0031024918 0)
(-0.12214423 -0.018169014 0)
(-0.11360595 -0.032472258 0)
(-0.099568232 -0.044051874 0)
(-0.080999522 -0.05088369 0)
(-0.059705327 -0.051367015 0)
(-0.038248006 -0.044956735 0)
(-0.019499823 -0.032721158 0)
(-0.0060865552 -0.017479229 0)
(-0.00051075172 -0.003523146 0)
(-0.0017849811 0.013448894 0)
(-0.010248527 0.034892687 0)
(-0.025754414 0.049813398 0)
(-0.044381809 0.058686048 0)
(-0.064309136 0.062347643 0)
(-0.084328239 0.061448077 0)
(-0.10334157 0.056329813 0)
(-0.12030948 0.047120098 0)
(-0.13419851 0.033938229 0)
(-0.1439651 0.017133715 0)
(-0.14859933 -0.0025005781 0)
(-0.14720131 -0.023569552 0)
(-0.13913792 -0.044050304 0)
(-0.12428701 -0.06133347 0)
(-0.10331231 -0.072528917 0)
(-0.077968394 -0.075068766 0)
(-0.051204887 -0.067622146 0)
(-0.026780859 -0.05106863 0)
(-0.0086033572 -0.028940583 0)
(-0.00078629875 -0.0070497196 0)
(-0.0020378783 0.019397806 0)
(-0.011583682 0.048434856 0)
(-0.028943283 0.067870627 0)
(-0.049671099 0.079083129 0)
(-0.071771693 0.083514321 0)
(-0.094012275 0.082166827 0)
(-0.11532575 0.075541399 0)
(-0.13472286 0.063799874 0)
(-0.15120047 0.047036598 0)
(-0.16367853 0.025569535 0)
(-0.17098933 0.00020617091 0)
(-0.17196105 -0.027529168 0)
(-0.16553779 -0.055283146 0)
(-0.1510353 -0.079810684 0)
(-0.12857031 -0.09720711 0)
(-0.099570355 -0.10356065 0)
(-0.067174817 -0.096170086 0)
(-0.036082951 -0.075138883 0)
(-0.011917526 -0.044498367 0)
(-0.0011694708 -0.011993794 0)
(-0.0021974864 0.025962717 0)
(-0.012464541 0.063300279 0)
(-0.031091607 0.087605347 0)
(-0.053274986 0.10131473 0)
(-0.076908001 0.10660362 0)
(-0.10077583 0.10491693 0)
(-0.12389265 0.096959926 0)
(-0.14537927 0.082931029 0)
(-0.16432837 0.062856241 0)
(-0.17969175 0.036932484 0)
(-0.19021718 0.0058445701 0)
(-0.19448023 -0.02894078 0)
(-0.19097167 -0.064888474 0)
(-0.17834036 -0.098234238 0)
(-0.15589567 -0.12400638 0)
(-0.12434113 -0.13659371 0)
(-0.086572797 -0.13118054 0)
(-0.048021368 -0.10612251 0)
(-0.016413953 -0.065331857 0)
(-0.0017517672 -0.01886369 0)
(-0.0022528192 0.032872367 0)
(-0.012837897 0.078947367 0)
(-0.032060448 0.10834868 0)
(-0.054918021 0.12466063 0)
(-0.07924687 0.13089357 0)
(-0.10388552 0.12902104 0)
(-0.12797584 0.12000714 0)
(-0.15081015 0.10410094 0)
(-0.17165701 0.081227575 0)
(-0.18960323 0.051377012 0)
(-0.20343664 0.014967903 0)
(-0.21159336 -0.026776763 0)
(-0.21219494 -0.071392519 0)
(-0.20321552 -0.11485491 0)
(-0.18295105 -0.15125654 0)
(-0.15092217 -0.17309078 0)
(-0.10909227 -0.17264369 0)
(-0.062980777 -0.14510389 0)
(-0.022506823 -0.092894245 0)
(-0.0026561526 -0.028398692 0)
(-0.0022071292 0.039836482 0)
(-0.012707877 0.094787313 0)
(-0.031817645 0.12933373 0)
(-0.054456506 0.1482341 0)
(-0.078444031 0.1554175 0)
(-0.1027022 0.15347342 0)
(-0.12654402 0.14369178 0)
(-0.14949491 0.12640738 0)
(-0.17108866 0.10144009 0)
(-0.19067542 0.068519488 0)
(-0.20724962 0.027682268 0)
(-0.21930213 -0.020292313 0)
(-0.2248127 -0.073318842 0)
(-0.22123115 -0.12751287 0)
(-0.20577934 -0.17642173 0)
(-0.17640407 -0.21078339 0)
(-0.13328437 -0.21941341 0)
(-0.080855607 -0.19258789 0)
(-0.030622233 -0.12874583 0)
(-0.0040664397 -0.04160335 0)
(-0.0020935483 0.046592333 0)
(-0.012188765 0.11025406 0)
(-0.030531123 0.14974886 0)
(-0.052006663 0.17100748 0)
(-0.074448616 0.17896502 0)
(-0.096900165 0.17692167 0)
(-0.11889395 0.16657276 0)
(-0.14024905 0.14839728 0)
(-0.16084944 0.12214274 0)
(-0.18043626 0.087278436 0)
(-0.19840064 0.043410177 0)
(-0.21353526 -0.0092863371 0)
(-0.22400975 -0.069536283 0)
(-0.22707102 -0.13396276 0)
(-0.21906724 -0.19625932 0)
(-0.19623358 -0.24604399 0)
(-0.15618078 -0.26865259 0)
(-0.1006722 -0.24780489 0)
(-0.041127133 -0.17420814 0)
(-0.0062662947 -0.059789415 0)
(-0.0019983507 0.052988497 0)
(-0.011573574 0.12492107 0)
(-0.028676424 0.16882902 0)
(-0.0480783 0.19187377 0)
(-0.067665887 0.20013007 0)
(-0.086677838 0.19771611 0)
(-0.10493768 0.18681505 0)
(-0.12262022 0.16811957 0)
(-0.14002409 0.14136628 0)
(-0.1573658 0.10581052 0)
(-0.17458905 0.060631946 0)
(-0.19115897 0.0053266248 0)
(-0.20567248 -0.059790283 0)
(-0.21556421 -0.13245095 0)
(-0.21694108 -0.20735107 0)
(-0.2045954 -0.27412609 0)
(-0.17317127 -0.31551908 0)
(-0.12015488 -0.30789363 0)
(-0.05413286 -0.22974394 0)
(-0.0096703257 -0.084598582 0)
(-0.0021033645 0.059122377 0)
(-0.011431823 0.13866567 0)
(-0.02715137 0.18597 0)
(-0.043679271 0.20972375 0)
(-0.059052568 0.21738647 0)
(-0.072864984 0.21401257 0)
(-0.085351998 0.20233302 0)
(-0.097116851 0.18330625 0)
(-0.10891606 0.15672301 0)
(-0.12148665 0.12170446 0)
(-0.13539525 0.077077411 0)
(-0.15084413 0.021714125 0)
(-0.16725692 -0.04498969 0)
(-0.18286055 -0.12237771 0)
(-0.19415172 -0.20697478 0)
(-0.19530391 -0.28995144 0)
(-0.17833084 -0.35341185 0)
(-0.13541406 -0.367266 0)
(-0.06908285 -0.29401183 0)
(-0.014791077 -0.1179227 0)
(-0.0027729213 0.06556989 0)
(-0.012765725 0.15187027 0)
(-0.027384262 0.20081823 0)
(-0.040328416 0.22348373 0)
(-0.050039439 0.22913719 0)
(-0.056777957 0.22387139 0)
(-0.061387072 0.21095644 0)
(-0.06498633 0.19160734 0)
(-0.068802411 0.16569718 0)
(-0.074063372 0.13229749 0)
(-0.081918336 0.090023265 0)
(-0.093306952 0.037291667 0)
(-0.10864721 -0.027369506 0)
(-0.12737656 -0.10485755 0)
(-0.14719442 -0.19409728 0)
(-0.16291311 -0.28935799 0)
(-0.16516354 -0.37496284 0)
(-0.14093641 -0.41758452 0)
(-0.084067407 -0.36268593 0)
(-0.022009614 -0.1615104 0)
(-0.0047257306 0.073800401 0)
(-0.017252602 0.16562805 0)
(-0.031352017 0.21323351 0)
(-0.039789247 0.23200751 0)
(-0.042024367 0.23363843 0)
(-0.039521489 0.22525315 0)
(-0.034005869 0.2105073 0)
(-0.027209539 0.19074949 0)
(-0.020810031 0.16588198 0)
(-0.016435677 0.13496498 0)
(-0.015693043 0.096530767 0)
(-0.020133786 0.048773843 0)
(-0.031114217 -0.010315848 0)
(-0.049413444 -0.082820189 0)
(-0.0745571 -0.17004539 0)
(-0.10340701 -0.2704078 0)
(-0.12735027 -0.37359847 0)
(-0.12979079 -0.44858447 0)
(-0.09493339 -0.42740512 0)
(-0.030931857 -0.21606966 0)
(-0.0093060385 0.086935581 0)
(-0.027463511 0.18178979 0)
(-0.041053987 0.22292949 0)
(-0.042794685 0.233663 0)
(-0.034559941 0.22867359 0)
(-0.019809965 0.21580953 0)
(-0.0014498508 0.19869458 0)
(0.0181192 0.1785145 0)
(0.036839122 0.15507061 0)
(0.052825572 0.12738135 0)
(0.064200353 0.093987153 0)
(0.069023432 0.053085652 0)
(0.065224549 0.0025439074 0)
(0.050875542 -0.060257319 0)
(0.024491421 -0.13830102 0)
(-0.013829968 -0.23410461 0)
(-0.058853844 -0.34510852 0)
(-0.093576026 -0.44947633 0)
(-0.094497273 -0.47551999 0)
(-0.039220718 -0.28043684 0)
(-0.018584463 0.11087119 0)
(-0.0460653 0.20174658 0)
(-0.055292943 0.22786883 0)
(-0.044088584 0.22493273 0)
(-0.019515276 0.21052126 0)
(0.012157314 0.19219581 0)
(0.046792341 0.17271917 0)
(0.081538208 0.15261323 0)
(0.11421649 0.13134002 0)
(0.14293552 0.10780974 0)
(0.1658103 0.080628781 0)
(0.18079126 0.0481658 0)
(0.18540634 0.008511416 0)
(0.17701708 -0.040755255 0)
(0.15263191 -0.10312084 0)
(0.1093822 -0.18386163 0)
(0.047154342 -0.28851983 0)
(-0.021499433 -0.4104778 0)
(-0.072281098 -0.49098068 0)
(-0.041153732 -0.35051403 0)
(-0.033352421 0.15562504 0)
(-0.068612913 0.22039917 0)
(-0.055223694 0.21726415 0)
(-0.016146518 0.19527746 0)
(0.03440969 0.17086757 0)
(0.088374892 0.14844015 0)
(0.14161016 0.1285677 0)
(0.19179323 0.11054783 0)
(0.2373568 0.093285866 0)
(0.27693751 0.075581497 0)
(0.30904503 0.056203784 0)
(0.33188615 0.03385744 0)
(0.34303888 0.0070681217 0)
(0.33971383 -0.025869836 0)
(0.31803896 -0.067706546 0)
(0.27320288 -0.12408188 0)
(0.20038899 -0.20583113 0)
(0.10209772 -0.32505711 0)
(-0.012409037 -0.45455868 0)
(-0.023762223 -0.40862913 0)
(-0.033078145 0.2390828 0)
(-0.04264208 0.21792647 0)
(0.042204024 0.16426086 0)
(0.12758294 0.12781903 0)
(0.20765208 0.10141189 0)
(0.28020941 0.081633224 0)
(0.34477693 0.066626586 0)
(0.40146856 0.054688292 0)
(0.45042566 0.044393368 0)
(0.49149352 0.03464275 0)
(0.52404127 0.024561195 0)
(0.546879 0.0133978 0)
(0.55813212 0.0004181335 0)
(0.55563789 -0.015118835 0)
(0.53547382 -0.034953321 0)
(0.49241019 -0.062477299 0)
(0.41794779 -0.10694242 0)
(0.30408872 -0.19317375 0)
(0.12312784 -0.33691799 0)
(0.052370935 -0.39437815 0)
(0.24300267 0.15257813 0)
(0.30530539 0.11854753 0)
(0.45482249 0.076110006 0)
(0.56001367 0.050838817 0)
(0.63222674 0.035122247 0)
(0.68652841 0.024807413 0)
(0.72940367 0.017955561 0)
(0.76375095 0.013252835 0)
(0.79122788 0.0097611819 0)
(0.81269934 0.0068555436 0)
(0.82836349 0.0041215427 0)
(0.83790421 0.0012810107 0)
(0.84054169 -0.0018406132 0)
(0.83495834 -0.005322527 0)
(0.81885934 -0.0098256752 0)
(0.78942772 -0.016230735 0)
(0.73784517 -0.026935123 0)
(0.65316992 -0.051286957 0)
(0.45609861 -0.11374683 0)
(0.31788991 -0.17206071 0)
)
;

boundaryField
{
    movingWall
    {
        type            fixedValue;
        value           uniform (1 0 0);
    }
    fixedWalls
    {
        type            fixedValue;
        value           uniform (0 0 0);
    }
    frontAndBack
    {
        type            empty;
    }
}


// ************************************************************************* //
