/*--------------------------------*- C++ -*----------------------------------*\
  =========                 |
  \\      /  F ield         | OpenFOAM: The Open Source CFD Toolbox
   \\    /   O peration     | Website:  https://openfoam.org
    \\  /    A nd           | Version:  9
     \\/     M anipulation  |
\*---------------------------------------------------------------------------*/
FoamFile
{
    format      ascii;
    class       volScalarField;
    location    "26";
    object      p;
}
// * * * * * * * * * * * * * * * * * * * * * * * * * * * * * * * * * * * * * //

dimensions      [0 2 -2 0 0 0 0];

internalField   nonuniform List<scalar> 
918
(
0.4898279
1.7199467
0.016875562
0.45325128
-0.017258172
1.6906065
-1.0274216
1.2687176
0.5112484
-0.22831086
-0.10839373
0.7398809
1.5620003
1.3216178
-0.78124075
-0.019178887
1.1605514
-0.82830438
0.50729542
-0.11027993
1.3618616
0.46006214
0.48715581
0.46122655
0.91626898
1.2995905
1.4249273
-0.038842378
0.0020940477
-0.031586799
-0.02702892
-0.074005536
-0.06203015
1.5668827
1.6209034
1.6445928
0.50611857
0.4816605
-0.7796828
-0.90414151
-0.84589734
-1.1046097
1.2501572
1.2511801
-0.36824461
1.2715691
1.2891915
0.47557261
0.50609301
0.51650504
0.45567914
0.48590353
0.50210241
0.41715428
-0.24583201
-0.30669428
-0.18701942
-0.16287135
0.017670091
-0.10506085
-0.10725337
-0.10675999
-0.099672466
0.56447865
0.70555689
0.68577499
0.75642808
0.79241613
1.6570429
1.6204848
1.647464
1.5942881
1.5845933
1.5418469
1.5049982
1.3603442
1.3677098
1.3191203
1.2829271
-1.3149453
-2.3620876
-0.19951938
0.10961617
-0.022141013
-0.00071454073
-0.011721199
1.1362782
1.1268381
1.1690728
1.1894365
1.2333266
-0.76709261
-1.0377384
0.51002798
0.50344803
0.49551947
0.47730191
0.52354607
0.56880549
-0.11762785
-0.10368687
-0.094617513
-0.10915255
-0.092944735
1.3417002
1.3333583
0.4757672
0.48041269
0.80981271
0.87010962
0.84918728
0.41074745
0.93782953
0.97447783
1.0952997
1.2912482
1.3023767
1.2835321
1.41113
1.3664817
1.4716034
1.4971914
-0.0076126543
-0.014258765
-0.0058885311
-0.029227364
-0.029774493
0.51807326
0.53055616
0.52929551
0.49994002
0.50183541
0.42535706
0.28475329
0.57026775
0.58759933
-0.61018447
-0.69853674
-0.88856506
-0.91080339
-1.1210875
0.85014301
1.2324406
1.2319733
-0.43096473
-0.27629584
-0.51623118
-0.18387572
-0.24863641
0.49144731
0.48826996
0.48824411
0.47589795
0.47829289
0.47854784
0.49084763
0.491483
0.50646099
0.48776672
0.6283087
0.36615025
0.31063931
-0.52934032
-0.33520907
-0.50924098
-0.14487351
-0.13262427
0.038149459
0.085131615
0.017827688
0.021019974
-0.11900631
-0.10614637
-0.11475008
-0.10724027
-0.096971275
0.55353382
0.55433722
0.55534983
0.56192353
0.60548111
0.61546759
0.65870557
0.641126
1.4309633
1.4546339
1.4993249
1.4622618
-3.7580966
-6.4453736
0.44016818
0.62316272
-0.045430729
-0.03111773
-0.012517852
-0.0093691225
-0.019020184
-0.013652113
-0.0038457467
-0.0044948368
-0.0011173439
-0.0084583033
1.0958693
1.0811175
1.1802723
1.2175481
1.0977581
1.0880285
0.51521645
0.51221999
0.51841511
0.51061722
-0.10714751
-0.1087189
-0.097517982
1.2933768
1.3186007
1.3112859
0.32544577
0.22564309
0.44876259
0.48766302
1.0496585
1.0014046
1.0334209
1.1705985
1.2050547
1.4866948
1.4987202
1.5365772
1.5333503
1.5816464
1.573971
1.5324412
0.54900593
0.53427075
0.55221172
0.51347883
0.52230248
0.51823217
0.57698705
0.55135993
0.56605965
0.11871464
-0.21899553
0.66507162
0.65643232
0.63349268
0.6283343
0.92545042
1.0156615
1.1936302
1.2132413
1.2125536
-0.055647816
-0.10322772
0.24285859
0.21820074
0.50909588
0.5383856
0.53575177
1.4050782
1.4054176
1.4518016
1.4140651
1.3553915
1.3781425
-0.24605342
-1.4137015
-0.79608965
1.0283412
0.80718025
0.91227662
-0.017450403
-0.011858543
-0.033097679
1.1897883
1.2516108
0.68755351
0.93806041
0.94005441
1.2531146
1.2759098
1.3474436
1.2729969
1.2994641
1.3239981
1.3070178
0.79668723
0.70180605
0.7264225
1.0615178
1.1135711
0.15916206
0.058025508
0.042412426
0.096167446
0.15096192
0.11968545
1.2178609
1.1569629
1.2274688
0.48652066
0.47852652
-0.048329757
-0.056259324
0.51611951
0.48979055
-0.025413853
-0.043103097
0.88742672
-0.53023161
0.19383243
0.51786054
0.50144493
0.50016454
-0.21815415
0.37607632
-0.10127739
0.018985216
-0.033671446
0.72181702
0.58281367
0.56312349
-0.076284463
-0.063436625
-0.087574893
-0.43406176
0.49363774
0.47305353
0.49001024
0.47461659
0.50711383
-0.086718569
-0.074164154
-0.054313157
-0.11453902
-0.10833636
-0.10602435
0.53215924
0.56104506
-0.32552425
0.50445596
0.49126587
0.50801559
0.46736329
0.52587494
0.47881201
-0.054559206
-0.03952524
-0.05199281
0.36364204
0.50333199
1.2062297
1.3611568
1.2236356
0.83704568
0.50695423
1.0628643
1.1609308
1.0244731
1.2032879
1.2081723
1.2516368
0.26212978
0.048574735
0.28839115
0.21647727
0.51537283
0.51791868
0.50008294
0.49470132
0.50809015
0.48046198
0.50893362
0.51120767
0.50877078
0.52486479
-0.14511706
-0.18054819
-0.21243831
-0.30009293
0.39049997
0.6681402
0.29148806
0.33272501
0.13665718
-0.087486322
-0.097095211
-0.097339066
-0.10809443
-0.011801726
-0.065963413
0.045462419
0.040991117
0.029758284
-0.029864836
-0.047053123
-0.060872825
-0.029913537
0.67920376
0.65795568
0.7135062
0.76680971
0.57469118
0.56099504
0.56601633
0.57691798
0.56506306
0.51310682
0.5595964
0.52881696
-0.055144608
-0.087610292
-0.054562892
-0.054512491
-0.032161769
-0.13811471
-0.13651968
-0.11447786
-0.082667348
-0.11586196
-0.08740015
-0.085278454
-0.38329279
-0.54641525
1.132852
0.99184217
0.17906864
0.47205749
0.47141431
0.45849541
0.49810531
0.48618225
0.49100965
0.49149242
0.48823349
0.51322079
0.50195168
0.56276255
0.58622448
-0.24114974
-0.47725109
-0.21391457
-0.26619699
0.34955343
1.035136
0.50598838
0.42441803
0.42658003
0.84051295
1.416772
1.2827131
1.3092484
1.3485706
-0.170859
0.313988
0.026047047
0.7040259
0.92675869
1.1774532
1.2358975
1.24041
1.210049
1.1459327
-0.07782499
0.91610717
-0.10839344
-0.0951678
0.24807631
0.065929581
1.2609746
1.1812455
1.1855223
1.233671
1.2696972
1.1953181
1.1368401
1.1551993
1.2245725
1.2250298
0.84827369
0.39967239
0.30950468
0.29453161
1.1354087
0.91855194
1.0162345
0.84676087
0.50696523
0.5241286
0.50761631
0.49939316
0.50425679
0.49014837
0.53572952
0.55569619
0.52430453
0.49669845
0.52892682
0.50292631
-0.13812234
-0.13763439
-0.098963285
-0.30560849
-0.29043695
-0.40644759
-0.18091857
0.046472636
0.010626374
0.22882798
0.35814502
0.0033461267
-0.19320891
-0.13589372
-0.075601517
0.14619962
0.2035341
0.066652615
0.1332545
0.11503575
0.090761419
0.23592136
0.24205071
-0.063478334
-0.054256655
-0.082448336
-0.079991874
0.0029298332
0.10691675
0.11259948
-0.0233201
-0.031131188
-0.085595348
-0.090353165
-0.040799156
-0.069885558
-0.048690617
-0.03143502
-0.12940979
-0.068997054
-0.063125095
-0.043800816
-0.016018919
-0.005628617
0.61068699
0.63164058
0.6170296
0.7876141
0.7846093
0.82172368
0.79174094
0.53717073
0.55032244
0.54127906
0.60009921
0.57164779
0.60888519
0.62728053
0.66360137
0.67597658
0.57742829
0.55546959
0.6449771
0.60102401
0.59540506
0.60671565
0.62784853
0.56745129
0.58734359
-0.13781736
-0.10212818
-0.096449629
-0.12928613
-0.08667432
-0.097006104
-0.030825563
-0.024321601
-0.058305902
-0.013422165
-0.014144057
-0.12923893
-0.13979741
-0.2062672
-0.04210748
-0.43334859
-0.46902958
-0.57025608
1.0256476
1.184384
0.92581648
0.64588348
0.67979783
0.96475402
1.107233
0.61962064
0.75198593
0.86643968
0.81370285
1.0490218
0.49403721
0.48666518
0.49966309
0.47805538
0.50661435
-0.052180031
0.14102193
0.074045835
0.25287411
0.46714645
0.51641106
0.33843928
0.279885
0.43687552
0.33125647
1.0352756
1.0723613
0.93561738
0.9947669
0.98993664
0.65285084
0.86295825
0.99143925
0.85995564
0.94443342
0.98277602
0.90730803
0.96894672
0.87726363
0.75794004
0.78108617
0.59042427
0.6605638
0.61802194
0.58432046
0.69735879
0.65594083
0.69465209
0.68289938
0.74500014
0.84631634
0.82600536
0.83656691
0.8889137
0.73694284
0.65950742
0.683507
0.7554824
0.63390216
0.65312408
0.69240785
0.33692831
0.34946251
0.22221185
0.12140361
0.20466524
0.045735985
0.023516636
0.057258432
0.37107722
-0.26275772
-0.24836443
-0.61876042
0.78963909
1.4417018
1.1870823
1.1786985
1.2686379
1.2284093
1.2171265
1.2814654
1.2896978
1.1286545
1.1724516
1.1704291
1.06631
1.1116105
1.2043885
1.1858946
0.87890448
0.60646711
0.56442945
0.53627434
0.28715017
0.36345966
0.74514171
0.5998245
0.46251905
0.4612812
0.7803851
0.52940633
0.65677985
0.77678875
0.61621519
0.52996222
0.93107085
1.0701699
1.0608717
1.0095565
0.82986806
0.86640565
0.93742632
1.0052549
1.0449757
1.122615
0.51003566
0.51778248
0.51236151
0.49560944
0.5228715
0.526354
0.52498558
0.5101454
0.51434948
0.51379011
0.52589944
-0.10572463
-0.09298388
-0.11079956
-0.11898643
-0.071427904
-0.091830072
-0.017148133
-0.042255715
-0.059031501
-0.05267799
-0.092074628
-0.10893349
-0.085819609
-0.069613442
0.097007885
0.13021004
0.07618367
0.065628311
0.26781859
0.40511776
0.46050465
0.37778576
0.19664512
0.22056766
0.28811763
-0.014249213
0.0063191682
0.022510634
0.038275013
0.039942146
-0.074611585
-0.085782221
-0.075558277
-0.060422955
-0.057777721
-0.085641438
-0.08767933
-0.097746815
-0.087153065
-0.084854688
-0.090780855
0.53642185
0.55733657
0.6097974
0.57476975
0.57136774
0.59421203
0.5644101
0.58189827
0.58495226
0.6146368
0.6030256
0.64017351
0.62906673
-0.09654532
-0.12191381
-0.12737524
-0.088906083
-0.1028817
-0.12195415
-0.10659642
0.19037137
0.045071217
0.080270447
-0.040583128
-0.27713539
-0.16967902
0.55733636
0.69098129
0.6873318
0.91743626
0.70378199
0.65338866
0.80022486
0.9240538
0.35565963
0.58231458
0.3960419
1.0479465
0.95316218
1.1262598
0.67245856
0.35129627
0.58221076
0.67030588
0.36262253
0.47356713
0.47291565
0.30805754
0.38182128
0.40244336
0.55310237
0.35488267
0.40917151
0.33944747
0.36378808
0.41821874
0.43979982
0.53309163
0.59404751
0.28850938
0.25382774
0.18578079
1.0549906
1.0731566
1.11015
1.079504
1.1145434
0.90527604
0.89870579
0.94035059
0.94591138
0.91931287
-0.45040304
-0.54900099
-0.89080918
-0.34700879
0.26428908
0.82808854
0.71250641
1.2780177
1.0213541
1.2477218
1.1968374
1.1445896
1.05924
1.0370558
1.1253748
0.59945257
0.77713072
0.75083719
0.72447976
0.54647301
0.45694684
1.0203843
1.0029565
1.0763538
1.1094493
1.0490834
1.1299215
0.5332615
0.55337141
0.53016716
0.54686979
0.53442889
0.54144566
0.023326394
-0.030990521
0.08177893
0.062373022
-0.016369305
-0.041951723
-0.064777281
-0.057113257
-0.076507396
-0.077104729
-0.070656888
-0.057781503
0.21245629
0.17073773
-0.022981089
0.091043682
-0.078713091
-0.17829979
-0.24019402
-0.055985301
0.073754651
0.092007325
0.483303
0.76539363
0.61105988
0.72188955
0.54774965
0.65967966
0.63480104
0.5901074
0.63009696
0.51071377
0.52835047
0.51310411
-0.27494732
0.056866186
1.3259094
1.2604613
0.87060958
0.72037176
0.66465396
0.99822232
0.91945148
0.76688368
0.86671796
0.98821082
0.97589348
0.29647309
0.27922827
0.62765629
0.76292718
0.41442648
0.29335557
0.26002511
0.42820066
0.47915268
)
;

boundaryField
{
    wall-4
    {
        type            zeroGradient;
    }
    velocity-inlet-5
    {
        type            zeroGradient;
    }
    velocity-inlet-6
    {
        type            zeroGradient;
    }
    pressure-outlet-7
    {
        type            fixedValue;
        value           uniform 0;
    }
    wall-8
    {
        type            zeroGradient;
    }
    frontAndBackPlanes
    {
        type            empty;
    }
}


// ************************************************************************* //
