/*--------------------------------*- C++ -*----------------------------------*\
  =========                 |
  \\      /  F ield         | OpenFOAM: The Open Source CFD Toolbox
   \\    /   O peration     | Website:  https://openfoam.org
    \\  /    A nd           | Version:  9
     \\/     M anipulation  |
\*---------------------------------------------------------------------------*/
FoamFile
{
    format      ascii;
    class       surfaceScalarField;
    location    "26";
    object      phi;
}
// * * * * * * * * * * * * * * * * * * * * * * * * * * * * * * * * * * * * * //

dimensions      [0 3 -1 0 0 0 0];

internalField   nonuniform List<scalar> 
1300
(
1.7582594
5.6264299
-5.8724018
1.7582594
-6.9370662
5.6264299
-6.1381005
6.1381005
-1.4479049
1.4479049
3.7342817
3.6504076
-4.3322795
4.3322795
-3.7715704
3.7715704
-1.9151282
1.9151282
-5.2377126
5.2377126
-5.0569446
5.0569446
4.754774
-4.754774
-6.4716662
6.4716662
-1.9684665
1.9684665
-5.4360582
5.4360582
1.4847084
-1.4847084
-4.0250045
4.0250045
-0.35017057
0.35017057
-0.574817
5.1462913
1.1834423
1.1834423
-2.1610348
2.1610348
-4.8505096
4.8505096
6.2142634
-6.2142634
8.6108862
-8.6108862
-2.7384844
-3.7451651
1.4527968
-11.432666
-5.4842694
-5.4842694
-8.4382668
8.4382668
-2.8118368
2.8145931
1.5483771
-1.5483771
-1.7696802
1.7696802
-6.1100322
-0.028068297
-6.1100322
6.1505831
-0.012482578
6.1505831
-1.6132213
0.16531636
-1.6132213
5.3208084
-5.3208084
1.2492584
0.19864648
1.2492584
1.2511012
-1.2511012
-3.7371243
7.471406
3.647565
-3.0524018
8.1986931
-3.3945492
7.0449568
-6.5649516
6.5649516
-4.5948393
0.26255977
-4.5948393
4.1513556
0.1809239
4.1513556
-7.4679289
7.4679289
-3.8216582
0.050087841
-3.8216582
3.7700786
0.0014918621
3.7700786
2.3925952
-2.3925952
-1.7789516
-0.13617663
-1.7789516
2.0363055
-0.12117735
2.0363055
0.35898309
5.2674469
-5.985413
8.8000061
-5.2674469
0.029734233
5.2000713
0.037641344
5.2000713
-5.0935622
0.036617603
-5.0935622
5.013966
0.042978579
5.013966
4.8513054
-0.096531408
4.8513054
-4.8560408
0.10126681
-4.8560408
-3.5993855
-5.3744854
-6.8842941
0.41262794
-6.8842941
-1.956705
-0.011761494
-1.956705
1.9452325
0.023233946
1.9452325
-4.13171
4.13171
-5.8697823
0.4337241
-5.8697823
1.3574107
0.12729767
1.3574107
2.0099755
2.5614989
3.7682348
-3.7682348
2.2835264
-3.9425662
-0.082438358
-3.9425662
-4.1640662
-4.4468201
4.1640663
-0.13906183
-0.7526388
0.40246822
-0.75263881
1.2328552
-0.049412898
1.2328552
2.1298955
-0.09358997
-2.1298955
-0.031139293
3.6143584
-3.6143584
1.6544365
0.50659831
1.6544364
-5.5757936
5.5757936
4.9527479
0.061218112
-4.9527479
0.10223833
6.1538048
0.060458599
6.1538048
-6.1927061
-0.021557269
-6.1927061
2.8927632
-6.6379283
-4.2071493
5.9630988
0.50856749
-5.963099
0.47882962
1.7315836
-0.18320641
1.7315836
-1.2657047
1.2657047
-1.4496129
-0.098764222
-1.4496129
-2.1029904
0.33331025
-2.1029904
1.4998946
0.26978556
1.4998946
-5.8978105
-0.21222172
-5.8978104
-6.0789984
0.20921613
6.0789984
0.071584742
1.4160619
-1.4160619
-1.763396
0.15017471
-1.763396
-5.5967041
-0.30110632
5.5967041
-0.27589567
-5.0947538
-0.22605458
-5.0947538
-1.3325911
-0.11702187
1.3325911
-0.081489862
1.2575409
-0.024685677
-1.2575409
0.006439655
-3.0523858
5.6138847
-3.3945652
7.0421302
-6.1869993
-0.37795227
-6.1869993
6.900377
-0.33542538
6.900377
5.0325835
0.4034746
-5.0325835
0.43774424
4.0206794
0.13067619
4.0206794
-7.4268916
-0.041037237
-7.4268916
7.4958822
-0.027953312
7.4958823
3.9142792
0.10640029
-3.9142792
0.092620977
3.8132882
-0.043209593
3.8132882
2.6236766
-0.2310814
2.6236766
-2.1689184
-0.22367688
-2.1689184
1.4944743
-1.4944743
1.6381045
-0.14363014
-1.6381045
-0.14084712
-11.148726
11.127168
-0.035783211
-11.112942
5.1642881
5.1642881
4.060014
0.79129139
4.060014
-5.0460164
0.18997552
-5.0460164
3.0294468
-7.2365961
4.8893658
-8.4887513
5.4348361
-16.867502
4.1280519
-9.5025372
7.3601744
-7.3601744
7.1799104
0.18026404
-7.1799102
0.29561608
-1.9031057
-0.053599327
-1.9031057
-3.5100991
-0.6216109
-3.5100991
4.7983047
-0.66659472
4.7983047
-1.3145816
1.3145816
-1.3200238
0.005442206
1.3200238
0.037386859
3.8788669
-0.065578696
-3.8788668
-0.063699418
1.0172934
0.23196498
-1.0172934
0.26465463
4.0391649
-0.42480654
4.0391649
-3.1820684
-0.43228994
-3.1820684
-1.7930648
-0.11004085
1.7930648
-0.1386284
-5.8205382
0.24474459
-5.8205382
-11.213436
0.10049392
-11.175795
-6.0922122
-6.0922122
2.3460546
11.146061
-1.9446408
-0.22427757
1.9446408
-0.21305726
1.3042303
0.010351273
-1.3042303
0.038525599
-1.3602726
-0.13420174
1.3602726
-0.094567903
-2.5306869
0.42769655
-2.5306869
-1.222984
1.222984
-1.3112351
0.088251143
1.311235
0.18865967
1.7235974
-0.30753545
1.7235974
1.8750624
0.070170135
-1.8750624
0.11166641
-4.7700453
-0.32470842
-4.7700453
7.158964
-0.25858703
7.158964
-2.8924456
-0.2896228
2.8924457
-0.26876906
-0.035225705
11.162394
-5.1290624
0.035500171
5.1290624
-11.222853
11.258353
-3.1109723
0.58028544
3.1109723
0.94904167
5.3085194
0.26727417
-5.3085194
0.26250306
7.4490094
0.046872894
-7.4490093
0.088834861
-2.9990687
-0.5110304
-2.9990687
-5.5459724
-0.64102691
5.5459724
-0.74766773
-11.475686
-0.19552977
11.671216
-11.432707
6.016068
0.13773681
-6.016068
11.39609
-1.2473843
-0.16867759
1.2473842
-0.02440021
2.0716925
-0.34809508
2.0716925
4.4612649
-0.42210004
-4.4612649
-0.30878039
-7.3150438
-0.11184775
7.3150438
-0.15607976
-2.5133364
-0.48573228
2.5133364
-0.44164382
-5.3387662
5.2893533
2.8599269
-2.7328446
-3.9050837
-7.1796647
2.5484553
3.0654293
4.8319818
-10.902987
-5.9645148
-10.424157
7.2752027
-7.0126996
-9.5028352
9.4063038
9.8508485
-10.076903
-7.3511727
7.3885596
8.6980375
-8.7795274
3.7767446
3.6946614
10.861392
-10.598832
-16.834434
16.456481
10.340315
-10.290227
16.967567
-17.008605
-19.144988
19.191861
-7.3765586
7.2403819
-8.9538636
8.7301868
-9.104719
8.8359499
-2.9489906
-5.5397607
14.334827
-13.922199
10.862479
-10.944917
-11.526784
11.960508
4.0477248
1.2416284
4.0230392
-3.6187878
7.3955324
-3.4261689
6.2860958
4.3140318
-7.2630222
2.9225642
-6.8276479
5.5279403
5.3345388
-5.3888786
-1.7907861
-8.0832754
7.9000689
-7.6069082
7.5123403
12.06579
-12.093858
-3.6032905
7.2979519
-3.4388396
6.5042689
-3.7069418
-3.644231
3.5796441
1.2523376
8.4887515
5.8460755
-8.997319
-1.4268383
-10.222278
9.8001781
-10.780928
10.348638
-0.45562425
5.7896154
-5.3339912
4.3948853
-1.4728326
7.262448
5.8023701
5.9923456
5.8683279
-5.6010537
1.1443717
-6.4783629
-6.3761246
-3.4106298
3.5608045
3.3331323
-3.1344858
7.8645045
1.986344
7.5886089
-7.0155126
-3.0613904
-7.340221
4.4641296
2.92443
4.4695718
5.2680218
3.4300157
5.1509999
5.8696642
-5.9511269
0.081462653
-5.4592005
11.328865
1.346825
-9.1034315
-7.8510939
6.9105883
3.9508039
7.0915122
-7.5161394
-3.082693
-7.0783952
-10.255248
-6.5791854
-10.896275
10.982319
5.4741619
10.646894
-12.89438
12.738301
6.7284686
3.6118467
6.7299605
-6.8677018
-3.4225256
-6.7750808
13.118541
-3.0699286
-10.048613
-11.087438
-8.0575503
11.115391
5.8521761
11.813697
7.3781643
11.902532
4.7834564
8.3350851
-10.635633
2.5780823
-4.5030908
-2.8734678
-4.6439379
4.5527768
2.6876051
4.4315994
-5.2823232
-3.6715405
-5.5066007
-5.2115071
-3.8932119
5.4425885
3.2875982
-5.3526134
-5.4283146
5.6422361
3.1937138
5.1617285
-11.126243
4.3408087
-9.8805694
-10.032729
-3.8894705
-9.7371126
5.1368794
2.8103219
-7.9472013
-2.1261428
10.744577
-5.4100382
8.9537908
-6.8048214
-4.1400961
-6.8685208
-9.1770661
-2.3497181
-8.9678499
-9.5377562
9.0267258
-9.9334035
9.2668087
13.864752
-6.7580468
-7.1067053
-4.883243
-3.8962844
4.8768033
-0.85376419
-7.2133388
7.2948015
0.18219357
6.4682894
7.7099178
6.8561536
-4.5342623
-3.0726459
-4.4957367
4.702503
2.8098373
4.5683013
9.1543437
2.9114465
9.1418611
-8.5584428
-3.5354156
-8.7706645
9.5370459
-9.2037356
3.3590189
-3.4690597
6.7781798
3.5704582
-6.3533733
-3.8689048
9.0847226
-4.163299
-4.9214236
-12.079812
10.656125
1.4236866
-4.8173639
-0.42247856
-0.072307996
-5.5779387
-3.9248965
5.4766719
0.51567373
11.171799
7.2469025
-5.5174813
5.7622259
6.1537343
6.2149524
-0.16117217
6.0769117
-5.4966263
7.1341962
-3.1115903
-4.0226059
6.9542701
-7.2553764
-1.8163944
-7.1732953
5.3569009
0.33323247
2.2723582
-1.86989
-2.6769721
-0.73365771
-2.5653057
1.9647974
1.3683349
2.1967624
1.3049454
2.2558591
-3.9899323
0.71331039
3.2766219
-2.6849869
-2.4211754
-4.9922177
-1.4064268
6.3986445
7.1993079
2.6008702
-6.8905276
-0.44969345
3.4455465
-3.4223125
-1.0719269
-3.9202908
2.8794574
-3.9513843
-5.2464245
-2.4046655
7.65109
-3.7677182
-0.72801851
3.757367
0.71220479
-4.7482619
-3.3350135
4.8470261
0.30397379
-5.2912019
10.932849
-5.6416472
-8.3638478
4.5356162
6.7932484
7.4600462
-9.1514888
4.7386724
4.4128164
-2.3582404
5.9316469
1.1598653
6.0623231
-9.1267045
6.0440115
7.8665011
4.0940072
-8.2699757
1.1915805
-7.9351241
10.546809
-9.2101751
-1.3366339
5.2230908
5.3237182
7.5880468
6.2767053
-6.0311312
13.619178
-1.4859935
-7.7241815
9.4211176
-5.3271104
6.1437953
-11.470906
-12.420501
4.6963191
-9.8767048
11.912287
-2.0355826
-3.8489952
-9.0453852
13.7257
-1.3429217
-12.382778
9.3039723
-5.5619649
-5.6005809
11.162546
-8.6318935
9.0231065
-2.6273494
-6.3957571
-10.85977
-6.1488345
10.971618
1.7666828
-11.773022
14.351105
-3.4379371
5.765167
0.96479354
5.7219574
4.1702913
-6.6887683
2.518477
4.4616022
-7.0889515
2.6441743
-9.3329426
-7.5373509
13.777253
-6.2399022
-11.426821
-10.358625
-1.0681966
2.8079291
11.543175
-10.186093
8.0129416
2.1731517
3.9598496
0.60845167
-3.8162195
-0.82771844
0.66926043
6.6475703
-7.3168307
5.1008598
5.0072699
5.1164659
1.5311044
5.0565376
2.8435313
-4.8434804
-0.66312037
-6.1784929
2.285281
-2.8908947
-6.1173453
8.4026263
-6.9026014
0.78525609
-4.1418553
-6.1091033
10.250959
-7.0153231
5.3002384
5.6326108
8.1100756
-8.5301765
2.4210732
-4.3677625
-4.162414
4.4815281
-7.3724228
3.1569606
5.2456658
6.3506743
0.92235974
7.1216642
6.6555889
-9.9319861
0.051416686
12.501665
-11.074826
2.6799886
9.2225432
-10.69293
0.33430529
-9.4028072
1.2734984
-6.6835366
-6.6737027
6.746785
-9.0965032
-4.7241206
8.3257267
0.81613447
-8.3973114
-0.57053847
-6.5059598
-3.0317964
-6.9916921
-3.3058005
-6.627603
-9.3369317
-1.7775119
-7.5594198
7.2492139
-7.2305881
-3.665687
7.9782558
1.288553
-7.9881815
7.819504
-8.040253
7.692158
0.26647251
7.0283289
7.1226261
3.2263417
-4.6700885
7.8964302
-6.7450607
9.6565072
-11.333586
4.5885249
5.3734879
-8.9089035
-5.9600976
5.4517387
4.0853073
5.7215242
9.3523447
-10.808283
1.4559388
-11.008694
12.580974
-1.5722795
-17.054094
6.0453995
-7.701749
3.2505961
0.10842276
3.1969968
0.96016409
2.8282076
-3.7883717
-2.5088957
-2.6475241
-3.4292325
-5.1541931
8.5834257
1.8052442
-4.9196126
3.1143684
-4.6875192
6.4927634
0.23783698
-5.1574495
7.0583036
-4.230096
7.1667264
-4.4496822
2.7170441
4.8546267
8.5866821
-3.7320554
6.2631549
-2.6926967
2.7599431
-6.4919985
-2.39425
-4.8797743
7.5673794
-5.3711843
6.1564404
-0.25054866
6.406989
-5.6954009
1.5321019
-0.57893498
4.4283349
4.3971956
6.6674909
-5.1363865
4.7459313
-7.438628
-1.7460672
-6.5162683
-1.2706025
-0.50871265
-5.0366804
5.545393
6.690864
-7.1995766
-5.3626197
9.7480075
-4.3853878
8.061747
-5.5435269
-2.5182201
-4.5503928
-4.6533428
4.1226962
1.9542155
10.015963
0.26990851
-5.8134354
-5.2267178
-4.2776761
4.4202503
2.7139459
-2.3751354
3.798822
2.4474434
-0.17508519
0.80434298
1.3924194
2.4958932
-1.6915502
0.21281593
2.2830773
-1.6570741
2.5732887
0.87225774
-2.6434589
0.078153217
-1.8943532
4.7738106
1.3822687
-2.7506036
1.0590533
1.6153865
-4.7269768
6.4399542
-3.1602563
-3.2796979
8.0553408
1.6024624
-4.7627188
5.5708328
-5.2376004
3.1690718
-4.5754986
-1.5936469
-6.8312473
-4.8449033
-3.8253263
6.9396946
-4.7580994
7.3589696
1.6932701
-6.9092762
8.6025463
-4.739783
2.3351175
-4.2329474
5.1052051
-1.7529804
-2.4799669
3.8527456
3.7983444
-4.0011924
0.080901632
-0.14844685
3.1688527
-3.3172995
-0.78253167
-3.4675186
-7.4940176
7.7979914
-3.8324283
8.5711007
4.0640019
-3.493201
12.064302
3.259373
-6.752574
-5.1044748
-5.8324934
-2.3397576
5.1202886
-0.8349218
-5.940159
-7.2306789
5.8337587
0.22856434
-9.1976096
10.287026
-1.0894168
-5.2468057
-0.79720577
6.0202965
-7.7608717
0.67192019
-5.1166974
5.170329
6.3301943
6.5587587
-12.165267
-0.2175117
-6.6911047
1.3314391
-8.0225438
6.6551573
-3.7897073
8.4860264
-11.118024
7.4523367
-9.8294707
7.1493925
-0.8731513
7.0743338
-4.5558568
2.9742791
-9.1231135
-7.3564306
7.2398321
-3.6279853
8.2046256
-4.0966235
12.301249
-7.5345606
6.8283658
5.4728833
-1.2318285
-5.6366922
-6.8480523
5.6162238
-0.019686482
5.7022709
7.6435727
-4.8000414
6.9804524
4.063511
-8.4312735
-3.3089119
-11.718202
3.2869282
-6.0855909
-3.047971
6.3348992
5.0621047
5.6705563
2.1724852
-4.8428379
8.5549137
-9.6231103
-2.3150115
-4.3586912
6.6628353
-1.0466116
4.1607975
-8.5194887
-2.5227392
5.6993542
-0.65898972
-5.0403644
1.0586926
-5.7828132
2.2688303
-8.0516436
6.8276728
-7.3982113
2.3441783
-10.045927
-5.6440032
-5.6684034
-2.4216813
-5.6185717
-7.9387964
5.5171151
-1.8933969
5.9261071
-8.8688098
8.2098202
-3.712164
9.2292791
-5.8509368
-1.1407553
6.2925806
1.3995774
10.628856
0.31799469
-6.2780923
-2.6454962
5.4459527
-2.8004564
1.7747541
-4.7186857
0.72726702
3.3868814
4.6684593
-8.7437823
-0.16512118
-6.4432135
-4.1508296
8.2361369
5.5971779
12.288042
1.4797585
9.3894604
-1.1533235
10.869219
4.5682007
4.7568604
-4.0614709
5.5174098
1.4839222
6.0724471
-0.94775052
3.6647947
2.2492463
2.2374848
1.1848277
2.648495
1.7487006
4.1805969
0.39222514
-2.2552989
4.70613
-8.9838061
-1.1073054
-8.1925147
1.213789
5.8859362
-4.6721472
4.2616726
-1.5477267
1.4612162
0.091630893
-2.4018508
2.3102199
-3.930975
-2.576936
-0.29385877
-2.1495841
3.2086374
2.6242265
-2.9147787
-1.0161964
0.37366509
-5.2185684
4.2018335
-4.1209319
-0.32258745
8.2799588
-3.7304828
0.41318329
-1.3953653
-3.0543353
-3.787993
3.7098398
11.47451
0.58979215
5.8328623
8.3877835
5.0527701
0.25272864
4.8208516
-6.8564343
-4.512091
-7.073946
-0.4187887
5.6015078
2.0387755
9.5043999
7.5116588
6.4650473
-2.0544414
-11.677552
8.1901678
-2.672758
6.6178883
-1.5775239
-6.4741196
6.5824567
3.0740505
-7.3985912
0.0003799251
-6.4737397
-9.1464976
-0.4805601
8.6903803
-10.148296
9.0075411
5.9757447
1.583675
-4.805035
-0.86336831
4.7167838
0.040076624
10.909296
-1.2058314
-7.1360704
8.3419018
-4.6801048
3.5727994
0.97936541
2.8194565
3.2895853
1.7418586
-5.3942118
-10.066359
-2.5843426
-2.1426342
-5.8640405
0.53460401
-3.1588305
6.2923536
-2.7195542
3.7741335
5.6223476
7.0835638
-2.0555055
-5.1440711
6.4408933
-2.6667598
4.416804
)
;

boundaryField
{
    wall-4
    {
        type            calculated;
        value           uniform 0;
    }
    velocity-inlet-5
    {
        type            calculated;
        value           nonuniform List<scalar> 8(-1.7582594 -1.7582594 -7.3846893 -4.5714743 -7.3846893 -6.446951 -4.5714743 -6.446951);
    }
    velocity-inlet-6
    {
        type            calculated;
        value           uniform -5.6264299;
    }
    pressure-outlet-7
    {
        type            calculated;
        value           nonuniform List<scalar> 8(5.8724018 6.9370662 6.4836495 9.9798689 8.9738709 7.0999125 7.9188126 9.562888);
    }
    wall-8
    {
        type            calculated;
        value           uniform 0;
    }
    frontAndBackPlanes
    {
        type            empty;
        value           nonuniform List<scalar> 0();
    }
}


// ************************************************************************* //
