/*--------------------------------*- C++ -*----------------------------------*\
  =========                 |
  \\      /  F ield         | OpenFOAM: The Open Source CFD Toolbox
   \\    /   O peration     | Website:  https://openfoam.org
    \\  /    A nd           | Version:  9
     \\/     M anipulation  |
\*---------------------------------------------------------------------------*/
FoamFile
{
    format      ascii;
    class       volVectorField;
    location    "26";
    object      U;
}
// * * * * * * * * * * * * * * * * * * * * * * * * * * * * * * * * * * * * * //

dimensions      [0 1 -1 0 0 0 0];

internalField   nonuniform List<vector> 
918
(
(0.40877226 -0.00014071108 0)
(0.0090456142 2.9576279 0)
(-0.040271479 1.5493532 0)
(0.28981152 -0.0086737076 0)
(-0.030606214 1.8395319 6.2549897e-20)
(-0.011744057 2.948578 -3.3147962e-18)
(1.0775577 1.6586074 8.5782263e-19)
(0.44971086 0.26497508 -2.7082163e-20)
(1.9884085 0.0033214454 0)
(0.023033392 1.2397681 0)
(-0.0026996647 1.0534248 0)
(0.48449376 -0.020982273 0)
(0.012838354 2.9163486 0)
(0.013778468 2.790767 0)
(0.10131374 3.1834975 3.9860054e-19)
(-0.054853809 2.0066712 8.4749093e-21)
(0.57602115 0.1394161 1.7482766e-18)
(0.2248054 1.7030649 6.5088886e-19)
(0.36156041 0.0036861478 0)
(-0.017987862 1.1626886 0)
(0.082138363 0.25662272 -1.3541422e-18)
(1.0473592 -0.02225178 0)
(0.54299893 -0.028930948 0)
(0.24664786 -0.0072763283 0)
(0.60269425 -0.011720892 0)
(0.024235146 2.6152719 0)
(-0.0099558004 2.9059165 1.2168889e-18)
(-0.065005421 1.5094602 0)
(-0.12546201 1.7218173 0)
(-0.053559872 1.5188097 0)
(-0.10742597 2.6709044 0)
(-0.033986156 1.9602121 -4.8950268e-20)
(-0.030556413 1.7281927 0)
(-0.018161765 2.9813229 -1.2327876e-22)
(-0.018375167 3.007023 2.5735682e-18)
(0.00085988209 3.0015936 0)
(0.31486215 0.010293261 0)
(0.4317398 0.91061484 2.7421095e-19)
(1.1752002 1.6358355 -9.9072946e-19)
(1.2439703 1.5147825 1.0614581e-18)
(0.98752672 1.7730899 -1.9405607e-19)
(0.87848203 1.7774155 1.1317402e-18)
(0.56290381 0.31578801 2.6338123e-20)
(0.48345921 0.24315938 0)
(1.4826865 0.85829429 0)
(0.5023574 0.32235863 1.2075813e-19)
(0.40625021 0.27131677 -1.257978e-19)
(0.24138055 -0.011803198 0)
(1.9895353 7.9146505e-05 0)
(1.9886878 -0.0025659734 0)
(1.3557368 0.00055601289 0)
(1.8675184 0.0048905752 0)
(1.7380242 0.0029204146 0)
(0.026048219 2.0311635 -7.4035987e-19)
(0.04457577 1.4561602 0)
(0.047259145 1.3317422 0)
(0.025394348 1.4077042 0)
(0.016970033 1.1715002 0)
(0.0013726136 2.2353066 0)
(0.0069127761 1.2721403 0)
(0.0087306176 1.0715681 0)
(-0.0081739082 1.2686798 0)
(-0.010704663 1.05214 0)
(0.63162502 0.03122857 0)
(0.68009229 -0.033364927 0)
(0.43097077 -0.018133986 0)
(0.70703376 -0.029676724 0)
(0.53569821 -0.01806983 0)
(0.01673893 3.0145157 1.2682865e-18)
(0.012391108 3.0113797 0)
(0.0077281798 3.003577 0)
(0.013328051 3.0004885 1.3504989e-23)
(0.01055681 2.9476306 -1.8113396e-18)
(0.0168425 2.9848912 0)
(0.013436312 2.8938365 0)
(0.017695969 2.9238781 2.9008649e-24)
(0.013862948 2.8181428 0)
(0.017722751 2.9102211 0)
(0.011250119 2.7539261 0)
(0.25160964 3.6438013 0)
(0.17915536 3.5808159 0)
(0.13509985 3.3166628 -3.728755e-19)
(0.050090159 3.006753 0)
(-0.24014594 2.3960618 0)
(-0.063947015 2.2295672 -8.3207058e-21)
(-0.044298103 2.1073628 5.28848e-21)
(0.71641498 0.1591564 -6.0111047e-19)
(0.58432798 0.10320666 -5.7426411e-19)
(0.70386869 0.20147569 -1.8202499e-18)
(0.56152423 0.17206539 -1.2101588e-18)
(0.17959534 1.1592679 0)
(0.34763375 1.8461633 -7.1109319e-19)
(0.4368732 1.8296727 1.1896697e-18)
(0.54803208 0.037957 0)
(0.30198459 0.023312524 0)
(1.2187363 -0.0013827645 0)
(0.73849217 -0.03525171 0)
(0.65024749 0.017174062 -2.6565094e-18)
(0.64787004 -0.026284619 2.0892427e-18)
(-0.020058005 1.3013377 0)
(-0.012342885 1.1339807 0)
(-0.072353145 1.4772216 0)
(-0.027060637 1.3376878 0)
(-0.017244578 1.2066535 0)
(0.16422625 0.30263758 4.1314818e-19)
(0.24997856 0.25208659 0)
(0.50300456 0.0183522 0)
(0.24289434 0.013295407 0)
(0.72500058 -0.023777431 0)
(0.73065839 -0.018667638 0)
(0.58089384 -0.01517642 0)
(1.0391134 0.054169116 0)
(0.71262214 0.0070083464 0)
(0.54477228 0.011928549 2.3450151e-18)
(0.0021259701 2.8616298 1.0495117e-18)
(0.021627989 2.8990294 0)
(0.036383876 2.8736929 0)
(0.015946154 2.7026695 0)
(-0.010405129 2.9857747 1.1746452e-18)
(-0.0090744171 2.8908345 0)
(-0.011751628 2.9907625 -3.6104625e-18)
(-0.0095904601 2.9158747 1.2355959e-18)
(-0.15784284 1.786405 0)
(-0.19069157 1.8931915 0)
(-0.071924194 2.1162601 7.7086413e-22)
(-0.059763508 1.9969888 0)
(-0.053933795 1.8640959 0)
(0.66349366 0.041196739 0)
(0.37502171 0.02471615 0)
(0.24634901 0.0076301666 0)
(0.62014529 0.020551985 0)
(0.28786873 0.019453056 0)
(0.51840868 1.0907268 -3.3771565e-19)
(0.55189418 1.1280089 0)
(0.41002694 0.89625869 4.5201215e-20)
(0.31719862 0.68206002 0)
(1.3052018 1.4555159 -2.9600399e-19)
(1.3517224 1.2995245 5.7120853e-19)
(0.56252384 1.8995764 0)
(0.78307408 1.8720468 0)
(0.66406791 1.8418225 0)
(0.15080566 0.25710343 -3.9660766e-19)
(0.61232644 0.29634061 0)
(0.51528888 0.22548152 3.4388757e-19)
(1.4055818 1.2415389 0)
(1.4746702 1.0168812 0)
(1.429665 1.0762962 -4.2962555e-19)
(1.5215367 0.80362926 0)
(1.5079815 0.66053095 7.9725984e-20)
(0.58610677 0.03200062 0)
(0.54144443 0.018048693 0)
(0.25705828 0.016533008 0)
(0.52031253 0.0065524881 0)
(0.52865017 -0.013489769 0)
(0.25060492 0.0065162415 0)
(1.4988393 -0.0021452812 0)
(1.8698787 -0.0025369684 0)
(1.7318477 0.00011682452 0)
(0.040520428 2.2532614 4.0460741e-19)
(0.050506574 1.9559577 0)
(0.032637259 2.3421098 6.3670196e-19)
(0.019918076 2.0921226 -5.2005053e-19)
(0.16436204 1.6926554 -5.3525128e-19)
(0.07625211 1.5403651 0)
(0.098351125 1.5044843 0)
(0.020044664 1.3614096 0)
(0.01469665 1.1338418 0)
(-0.0014584831 2.4136615 -3.8595218e-22)
(0.003951019 2.2295842 0)
(0.0062442383 2.4193216 -1.5137827e-20)
(0.0013618989 2.2442137 1.648271e-20)
(0.019078657 1.3248498 0)
(0.017199857 1.293715 0)
(0.01432608 1.1009634 0)
(-0.016965562 1.2709992 0)
(-0.014121254 1.0737324 0)
(0.87350971 0.049418148 0)
(0.7082438 0.031403579 0)
(0.81370364 0.048939164 0)
(0.54609858 0.025328784 0)
(0.32081941 -0.019342397 0)
(0.61243751 -0.029572203 0)
(0.64594574 -0.028518962 0)
(0.38042769 -0.017730443 0)
(0.0037226696 3.0719794 -1.0849426e-20)
(0.010795892 3.0616396 0)
(0.016170154 2.9688041 0)
(0.013255188 2.867718 0)
(0.73150863 4.2314179 0)
(1.2315461 3.2952541 9.0257713e-19)
(0.072733916 3.1375798 0)
(0.030147886 2.9087053 0)
(-0.20486246 1.9198821 0)
(-0.24115549 2.2662381 0)
(-0.24540202 2.1082142 0)
(-0.14802176 2.6665309 -1.4123834e-20)
(-0.21550983 2.5321105 0)
(-0.18622931 2.5527505 0)
(-0.015187164 2.2024241 -2.8912758e-21)
(-0.024719923 2.3778583 -3.1952083e-21)
(-0.04402165 2.3193173 -5.6168383e-21)
(-0.028889475 2.1724988 0)
(0.72318788 0.11148517 8.7746417e-19)
(0.58763673 0.0659237 -8.6600787e-19)
(0.30567944 1.7020914 0)
(0.2072888 0.93716668 -3.5655545e-19)
(0.22642153 1.8442266 -1.1070422e-18)
(0.13807074 1.401558 1.1105323e-18)
(0.27235371 -0.0054733044 0)
(0.53798621 -0.0039397206 0)
(0.53107451 0.011368257 0)
(0.27607464 0.0027704661 0)
(-0.018956263 1.2789295 0)
(-0.017901849 1.2877456 0)
(-0.012591456 1.1049145 0)
(0.4306383 0.3232512 1.1128463e-18)
(0.33733743 0.31168852 -1.3291797e-18)
(0.33959559 0.26841739 0)
(1.2645814 0.12898345 3.67189e-20)
(1.2308553 0.12324811 0)
(1.1244271 0.086645797 0)
(0.89432994 0.039904262 0)
(0.71381403 0.064528769 0)
(0.69671885 0.027031053 -3.7705691e-18)
(0.56965123 0.03367897 1.4351867e-18)
(0.0032220251 2.985882 1.0561481e-18)
(-0.0032557494 2.8658533 4.6796511e-20)
(0.0038458432 3.0539337 -2.2718953e-20)
(0.012753465 3.0472629 8.1796372e-19)
(-0.0093892134 2.9952599 4.0164568e-20)
(-0.0083894216 2.9361821 -1.6125551e-22)
(-0.013157227 3.0201634 -7.5721259e-19)
(0.0012163498 3.0231492 5.4577826e-19)
(0.0066764935 3.0398122 -8.1855238e-19)
(0.76534155 0.045474984 0)
(0.71941516 0.046609747 0)
(0.45391622 0.02271831 0)
(0.53496125 0.0032502908 0)
(0.53357575 0.015367667 0)
(0.26946877 -0.0030602069 0)
(0.58513223 -0.037029098 0)
(0.54711807 -0.024830721 0)
(0.27064631 -0.019237835 0)
(0.70541503 1.3775025 -5.5644408e-20)
(0.77344401 1.4594233 0)
(0.16293844 0.34882307 9.2519591e-20)
(0.3340602 0.76490742 6.9806401e-19)
(0.3538659 0.79501578 -4.1075966e-19)
(0.22635883 0.48087176 7.9801021e-19)
(0.42022937 0.96642516 2.0337926e-18)
(0.16771953 0.34138912 4.5982312e-19)
(0.68300383 0.23792487 1.2850019e-18)
(0.65291992 0.27146164 3.2993594e-19)
(0.54180197 0.19850778 6.4334457e-19)
(1.5137576 0.59552738 1.2499976e-19)
(1.4684526 0.44491029 8.8272142e-20)
(0.022942942 2.3972525 2.3016886e-19)
(0.010663011 2.1639243 0)
(1.0187701 0.06016052 0)
(0.942242 0.055167825 0)
(0.8030305 0.035159715 0)
(0.010042948 3.0770223 0)
(0.016990908 2.9386983 1.5941485e-18)
(0.016547463 2.9536941 0)
(0.013509477 2.8433557 -1.5913238e-18)
(0.0095623542 3.0917435 3.6468781e-19)
(0.0037981356 3.0887568 0)
(0.86396654 1.7491118 -1.1225164e-19)
(1.1300106 2.3612494 1.0582455e-19)
(0.84350174 1.8660244 -8.6586145e-19)
(0.01512675 2.9997947 -9.6266214e-19)
(0.036576287 3.0409331 0)
(0.012885109 2.8751274 0)
(-0.0064092042 2.4047404 -2.1145337e-20)
(-0.0077128619 2.4084235 2.3864004e-20)
(-0.0033138701 2.2322602 2.20412e-21)
(0.34488108 1.5386031 1.1230478e-18)
(0.21189711 0.75368242 -7.7137199e-19)
(0.088609846 2.1643502 7.6198715e-19)
(0.16730572 2.0249294 -9.4452408e-19)
(0.083000263 1.6909533 1.2279168e-19)
(0.014453689 3.1141147 -2.4104786e-18)
(0.017013154 3.1196218 2.7286758e-18)
(-0.0085397692 2.9803784 1.1212036e-18)
(-0.0050849769 2.9776267 -1.0982454e-18)
(-0.0075113699 2.8764379 -1.1421578e-18)
(0.0047633447 3.1054853 -2.8358109e-18)
(0.0096639648 3.1047383 2.8157441e-18)
(0.37929517 0.83571944 0)
(0.3334073 0.77421994 -1.5793105e-18)
(0.13513709 0.27984849 7.0290746e-19)
(0.41439534 1.0872365 1.315044e-18)
(0.1917708 0.43429349 -2.0416446e-18)
(1.4140792 0.23882026 8.9833784e-20)
(1.478553 0.39279431 0)
(1.3880883 0.25544222 -1.807378e-20)
(0.0082740903 2.420136 -1.2873603e-21)
(0.0077656453 2.4089906 0)
(0.0046158351 2.2017935 0)
(0.39316406 1.4021199 -4.0389596e-19)
(0.42326296 1.2570637 -9.0782977e-19)
(0.2012318 0.5739753 1.6310151e-18)
(1.1938307 0.0050527805 0)
(1.3359769 0.0013070939 4.279266e-19)
(-0.13828388 1.7543847 0)
(-0.11116031 1.6929475 0)
(1.5133553 -0.0019047705 2.3566504e-21)
(1.1034252 0.015851171 9.4037672e-19)
(-0.15510103 2.6904939 1.8342725e-20)
(-0.13807592 2.7205519 0)
(0.064228962 3.1816666 7.6030721e-19)
(0.54040174 3.5572572 0)
(1.4432424 0.90866863 -9.2648363e-20)
(1.2847369 0.0060275447 2.4363671e-20)
(1.3731965 0.02565414 0)
(1.998767 0.0064615224 7.318268e-21)
(0.10685356 1.8697896 0)
(0.12041701 2.7575723 0)
(0.023629611 1.8075321 0)
(0.0013722412 2.8153087 8.1285067e-21)
(-0.016040231 2.7520183 1.0629995e-21)
(1.2717191 -0.031980458 1.7044949e-20)
(1.3796855 0.068685785 0)
(1.404126 0.093163099 0)
(-0.22826286 2.2625064 0)
(-0.10265534 2.792284 0)
(-0.017163938 1.6645137 0)
(0.35006422 1.9891749 -3.2980569e-19)
(1.2985222 0.0091883046 0)
(1.0972599 0.008064295 0)
(1.9704877 0.0091562199 5.5760244e-19)
(1.656667 0.015349699 -6.4016413e-19)
(1.9057941 0.0095147999 0)
(-0.18421304 2.0224059 0)
(-0.13575936 1.788624 0)
(-0.19133498 1.9276704 0)
(-0.027408731 1.6525837 0)
(-0.061537076 1.6444878 0)
(-0.043989181 1.6055807 0)
(1.3925115 0.055039906 0)
(1.3167056 -0.021017316 2.4570867e-20)
(1.0303327 1.7205492 4.8861916e-19)
(1.9565943 -0.00014232978 -5.6723658e-19)
(1.7074225 -0.0058276705 6.7441266e-19)
(1.897274 -0.0071147986 0)
(1.3130311 -0.00049735569 5.5243734e-19)
(1.1868522 0.0012107297 -6.9999848e-19)
(0.93404779 0.020826804 0)
(-0.11846856 2.8154462 0)
(-0.14513828 2.770984 -5.6542908e-20)
(-0.13054928 2.7785229 3.6686899e-20)
(1.5368705 0.38080816 8.3849422e-19)
(1.4940444 0.16322065 0)
(0.082771776 3.054983 -1.4367166e-18)
(0.046290631 2.8433202 -1.016015e-19)
(0.18473495 3.1827212 2.1790611e-18)
(0.1687202 3.2473816 -3.3556541e-19)
(0.16663257 3.294241 0)
(0.032743886 3.1354552 4.0549729e-19)
(0.087227611 3.1745797 1.4122286e-18)
(0.083702613 3.2024618 -7.5591714e-19)
(0.051895283 3.1084374 0)
(0.87525379 0.43821598 0)
(0.75909246 0.5034861 0)
(1.3946775 0.96409386 2.1179586e-19)
(1.3964726 1.1414842 -1.8433493e-19)
(1.4678889 0.78158542 0)
(1.4910017 0.74312807 0)
(1.2818307 0.011128304 -1.117749e-18)
(1.1068223 0.0083124461 1.4355471e-18)
(1.3835432 0.025180848 0)
(1.2422512 0.02906928 0)
(2.0033266 0.010259583 0)
(1.8773324 -0.00056906094 0)
(1.9371873 0.0061372984 0)
(1.7299168 -0.010613523 0)
(1.6679356 -0.0043243661 0)
(1.7989923 -0.0039209339 0)
(0.092197897 1.85815 0)
(0.06796864 1.8493097 0)
(0.13746263 1.8987988 0)
(0.14755146 1.9295146 0)
(0.14157681 2.7878217 0)
(0.18192118 2.8662377 -4.5437483e-19)
(0.097307937 2.860475 0)
(0.079514272 2.8723778 1.8412913e-19)
(0.026010673 2.8843244 -1.363752e-19)
(0.02218073 1.8070874 0)
(0.010482327 1.7754924 0)
(0.026358557 1.8169409 0)
(0.030528271 1.7980525 0)
(-0.0088324346 2.2421234 2.5406554e-20)
(-0.017114401 2.8038271 -5.5512472e-20)
(-0.0034117521 2.8594214 3.7862598e-21)
(-0.0048091713 2.8897225 0)
(-0.014973475 2.8097177 -8.7902322e-21)
(-0.015730095 2.8082292 3.5377877e-20)
(-0.0065377823 2.2345849 -1.395403e-20)
(-0.017267572 2.5612272 7.3317263e-20)
(-0.025690466 2.6031473 -4.8132588e-21)
(1.2967315 -0.030109582 1.4777297e-18)
(1.1351582 -0.04483801 -1.8103067e-18)
(1.2558512 -0.023256584 -1.5821388e-18)
(1.1554681 -0.028335868 2.0973628e-18)
(1.414145 0.059808474 0)
(1.3027174 0.070905216 0)
(1.4329992 0.08291911 0)
(1.4133948 0.068938143 0)
(1.2632178 0.071816541 0)
(1.4957802 0.14278859 0)
(1.4414578 0.10135555 0)
(1.3077478 0.092643225 0)
(-0.179641 2.6583565 1.0526464e-20)
(-0.20023849 2.4508498 0)
(-0.20940907 2.5396838 0)
(-0.075474019 2.8179389 -3.5553057e-20)
(-0.063381917 2.8221703 3.5162381e-22)
(-0.081447079 2.1316232 -1.504757e-19)
(-0.13507514 2.0157042 1.5206969e-19)
(-0.024144716 1.7709146 0)
(-0.079601611 1.7757515 0)
(-0.1145407 1.7994985 0)
(0.013426839 1.6786743 0)
(-0.01081976 1.6523005 0)
(0.4915845 1.9985321 5.7953867e-19)
(0.51050278 2.025019 2.7520846e-19)
(0.59336234 2.6393279 -2.5817041e-19)
(0.3827833 2.7724052 6.6511406e-19)
(0.40742149 2.246072 7.4291685e-20)
(1.4013552 0.023216493 0)
(1.3326746 0.022103585 0)
(1.149041 0.014124963 0)
(1.9803657 0.014111417 0)
(1.960597 0.010092631 0)
(1.7235632 0.016563887 0)
(1.6286463 0.015476895 0)
(1.644959 0.020652352 0)
(1.3508605 -0.017199755 1.1246345e-18)
(1.0824192 0.00085593809 -1.3978687e-18)
(1.3062551 -0.018521656 -1.2293473e-18)
(1.1766689 -0.029211317 1.6200213e-18)
(0.98732225 1.7413326 0)
(0.88017777 1.888506 4.8593365e-19)
(1.1221619 1.6025224 1.927991e-19)
(1.1752778 1.5997406 -2.5683741e-19)
(1.2705789 2.7087281 6.4808007e-19)
(0.9501549 0.089845217 9.2828822e-19)
(1.5001813 0.18538597 0)
(1.5403523 0.27817646 -6.5715187e-19)
(1.4655657 0.23468576 -2.5970823e-20)
(1.4878625 0.13516578 0)
(0.2302608 2.9317299 9.2609415e-19)
(0.11434732 2.8202952 -2.0800764e-18)
(0.045617833 2.3756938 1.3156837e-18)
(0.079010822 0.042562427 -6.6700682e-19)
(0.37257655 3.4710479 -2.8522653e-20)
(0.23968503 3.3756241 0)
(0.25220105 3.439265 4.0206617e-20)
(0.27416137 3.0921468 -2.3051239e-18)
(0.40812523 3.1806847 0)
(0.014548097 3.1192856 7.3823539e-20)
(0.017658286 3.1324927 -7.9194595e-19)
(0.032471703 3.1177187 1.2308898e-18)
(0.039665531 3.1487063 0)
(0.037760685 3.1574479 0)
(1.3538994 2.8055656 0)
(0.73122818 1.0986255 -8.0139979e-19)
(1.3264068 1.3656012 -1.712438e-20)
(1.2428376 1.420324 0)
(1.0852441 1.3001774 -1.5366639e-19)
(1.3441483 1.2002153 4.5422214e-20)
(0.45792986 0.5284816 -1.5678877e-18)
(0.94462811 0.43373477 -3.9363759e-20)
(0.88659486 0.36740152 7.0522212e-19)
(0.77912788 0.55364901 5.1477867e-20)
(0.66374555 0.50297037 -2.1220039e-18)
(0.90037541 0.47928885 0)
(0.95292883 0.58552756 1.1502613e-18)
(0.97224772 0.54937113 0)
(0.83773708 0.51875933 0)
(0.79778174 0.44499024 0)
(1.0668078 0.83797015 6.6396308e-19)
(1.5327836 0.40607122 -7.1766441e-19)
(1.5192093 0.58227792 0)
(1.5240005 0.53388808 0)
(0.96115948 0.26737908 1.0483136e-18)
(1.1053206 0.73400938 -6.4712249e-19)
(1.0201681 0.69676678 1.149466e-18)
(1.3184989 0.52918441 -1.204077e-18)
(1.2748665 -0.0076709885 7.4378793e-19)
(1.2495435 0.0021145348 -7.6852112e-19)
(1.0360139 0.001159001 0)
(1.4170078 0.04898413 0)
(1.3748111 0.037374725 -7.0733657e-19)
(1.2022291 0.036687229 6.9921002e-19)
(1.8134649 -0.0010512671 0)
(1.6988607 -0.01858134 0)
(1.9097678 -0.0028028086 0)
(1.6770316 -0.0024810539 0)
(1.9501814 0.0095602869 0)
(1.937575 0.0078721278 0)
(0.059261867 1.841602 0)
(0.047462641 1.8225527 0)
(0.17016049 1.8158081 6.9846966e-20)
(0.32690556 1.9786179 1.7583375e-19)
(0.19776582 1.9645743 3.9632512e-19)
(0.22354544 1.9873768 -6.3533946e-19)
(0.21182015 1.8551107 0)
(0.17423867 1.969818 -2.6238511e-20)
(0.15350987 1.9555903 0)
(0.37947505 2.2040027 -1.0295804e-19)
(0.36298938 2.5082784 5.9668812e-19)
(0.23424221 1.9045931 2.3507483e-20)
(0.31840109 1.8562843 8.2050286e-20)
(0.26245433 1.8395827 -6.6818851e-20)
(0.3484313 1.7787473 -3.442668e-20)
(0.27249049 1.9446733 0)
(0.32294509 1.9607086 6.412528e-20)
(0.034733973 2.478448 -1.7310113e-20)
(0.031432742 2.8785326 0)
(0.063401783 2.5845805 1.057624e-19)
(0.053782791 2.5893325 0)
(0.057033049 2.8939441 -2.0505275e-19)
(0.043400025 2.931992 0)
(0.016199042 1.8575748 6.8666225e-20)
(0.013904189 1.8895928 0)
(0.025367805 1.8362032 0)
(0.021999904 1.8333216 -7.7864501e-20)
(0.0025919665 2.8495433 -5.3228798e-21)
(0.012690899 2.8890899 1.5333188e-19)
(0.0071382065 2.9226244 1.0617382e-21)
(0.024508025 2.1416142 -2.3687483e-20)
(0.0044258382 2.0434095 -1.4358217e-20)
(0.012669715 1.7802454 0)
(-0.0028862275 1.7367562 0)
(0.034023249 1.9593812 -4.7560988e-20)
(0.025233085 1.8657023 -7.8839726e-20)
(0.025851127 1.9200006 9.0030792e-20)
(0.044830903 1.9807937 0)
(-0.083680966 2.5705004 2.3844375e-19)
(-0.085429574 2.7646893 -1.0226574e-19)
(-0.050111656 2.6776641 1.7833279e-20)
(0.026100712 2.1500364 2.8032503e-20)
(-0.018275678 2.6638367 1.1027277e-20)
(-0.014152015 2.6250728 1.1341203e-20)
(1.2665123 -0.033509015 -8.8200881e-19)
(1.2759635 -0.039850386 9.4803994e-19)
(1.1001675 -0.044660879 0)
(1.4768877 0.04452843 1.5592944e-18)
(1.1980723 -0.016189771 -1.7477313e-18)
(1.1591685 -0.020323976 1.9779326e-18)
(1.4992515 0.075293318 -2.146035e-19)
(1.3942015 0.055381835 0)
(1.3968689 0.060693403 7.7311986e-19)
(1.2983889 0.063720262 -7.6577774e-19)
(1.6020675 0.081310441 -4.9925533e-20)
(1.5915953 0.069209413 4.2245217e-19)
(1.7150817 0.083154336 0)
(1.789099 0.077356026 -1.6503781e-19)
(1.6940126 0.015678694 0)
(1.5712696 -0.0020515568 0)
(1.8350105 -0.002616943 0)
(1.6463009 -0.019428329 0)
(1.8148792 0.030546012 3.2093912e-19)
(1.8074529 0.013222991 -6.6564308e-19)
(1.7717772 0.066051141 -3.2950558e-19)
(1.7841955 0.062520577 -3.7806283e-19)
(1.7370123 0.10305801 7.7688487e-19)
(1.591029 0.10927401 0)
(1.6290393 0.15100924 0)
(-0.09858343 2.5830735 1.5545196e-19)
(-0.17843472 2.4518896 1.3982055e-20)
(-0.13763978 2.435717 0)
(-0.13381315 2.708894 -1.6006692e-19)
(-0.17153689 2.6687527 -2.331527e-20)
(-0.15123848 2.710721 1.7518176e-20)
(-0.026455476 2.8266257 -2.5390352e-20)
(-0.034244172 2.7610655 1.4452379e-21)
(-0.02011633 2.7230109 -1.4114156e-20)
(-0.038668799 2.817648 8.2107716e-21)
(-0.036960574 2.8196667 -1.0420611e-20)
(0.0053983483 1.8997374 3.4512412e-21)
(-0.017984572 2.1052201 -1.5087795e-19)
(0.4929478 1.893463 -2.6068381e-19)
(0.4518055 1.8132392 -1.8896991e-20)
(0.84838869 1.9047372 -4.7125831e-19)
(0.67759448 1.9910202 -2.6583249e-19)
(0.7040233 1.9939387 0)
(0.64369577 2.6006042 2.332068e-19)
(0.69896555 2.6160381 3.7620179e-19)
(0.44933218 2.7019968 1.1217584e-19)
(0.45973399 2.7059148 -6.0288911e-19)
(0.54673378 2.6341251 6.1534538e-19)
(0.55503549 2.6564892 0)
(0.48596882 2.7160243 -5.9640435e-19)
(0.22840906 2.7884328 1.1689743e-18)
(0.33572774 2.7732813 -4.9285942e-20)
(0.2707554 2.8641814 -1.6133298e-18)
(1.0230632 2.5383424 9.270428e-19)
(0.89262548 2.5545911 0)
(1.9525261 0.020087534 2.2073139e-20)
(1.6556373 0.022364533 -1.8874687e-20)
(1.6743755 0.023233761 -3.3422454e-19)
(1.8735263 0.02663794 3.3505141e-19)
(1.9860849 0.024272278 0)
(0.8803555 1.6850225 0)
(0.84383227 1.567144 0)
(1.0078348 1.476289 0)
(0.86523413 1.4908495 0)
(1.277167 2.7420746 1.2343639e-21)
(1.1885961 2.5685043 0)
(0.93233397 2.2722534 5.0977922e-21)
(0.87953375 2.532361 0)
(0.99487471 2.6050157 -4.48227e-19)
(1.0222859 2.5932367 3.0625878e-19)
(1.0054074 0.12535999 0)
(0.95451312 0.15454645 2.5993545e-19)
(1.1201943 0.089994352 1.4365929e-18)
(1.0036248 0.072004569 -5.4542062e-19)
(0.94124935 0.033642228 -1.6728359e-18)
(1.5908135 0.30847568 -1.268376e-18)
(1.4587172 0.36774705 -2.2467943e-20)
(1.2562262 0.30316603 1.4158433e-18)
(1.4805238 0.25617502 1.148831e-18)
(1.2805068 0.13411643 -1.9309436e-18)
(1.2385763 0.14813913 2.4605575e-19)
(1.3071797 0.22090736 -5.2740451e-19)
(1.2547239 0.19651461 0)
(1.4770469 0.17630158 9.4827757e-19)
(1.5807458 0.22094941 0)
(1.5669244 0.2668626 0)
(1.586963 0.19297894 3.8762789e-19)
(1.677369 0.23229056 -2.1791578e-20)
(1.5984239 0.31765452 -2.1966588e-19)
(1.5815842 0.27965957 0)
(1.5357948 0.0043321424 7.9103079e-19)
(1.7549261 0.053430721 9.7235421e-19)
(1.7186847 0.026840723 -7.5261931e-19)
(1.7073141 0.071812675 -6.6363318e-19)
(1.5255032 0.039593225 -1.1197459e-18)
(1.3813056 0.097019938 0)
(1.4047885 0.085982093 0)
(1.1485675 0.0039147831 -7.1745354e-19)
(1.0885679 0.0084908398 2.9189853e-19)
(1.6318385 0.099771689 9.8623451e-19)
(1.7013967 0.17086936 -1.1294255e-18)
(1.6820151 0.18605735 1.0298718e-18)
(1.6415152 0.16580007 0)
(1.697322 0.14035189 0)
(1.738947 0.11959651 -4.4053183e-19)
(1.7197558 0.10449978 -8.0507253e-19)
(0.7253957 1.4787069 1.9410028e-19)
(0.81183876 1.8295833 -2.1965512e-19)
(1.1781869 2.7821186 -2.3221179e-19)
(1.2967606 3.1355407 3.9533812e-20)
(1.3403715 2.82353 -4.8110324e-19)
(1.3953737 2.8931841 2.2813148e-20)
(1.2664205 2.5655211 2.6705643e-20)
(1.3293716 3.0583683 -1.5235279e-19)
(1.3372531 3.075153 3.1669033e-19)
(1.3165052 3.3421668 -8.9536393e-20)
(1.4336135 3.1082479 9.24332e-20)
(1.451163 3.0364549 0)
(0.73531689 1.1681502 -6.9573331e-20)
(0.2704223 1.3646384 8.4404566e-19)
(0.64722167 0.73138264 1.0388728e-18)
(0.42182743 0.30583697 1.1938812e-18)
(0.68632255 0.5583222 1.1888435e-18)
(0.73588372 0.65966635 -1.9543273e-18)
(0.71706204 0.67962603 1.5825942e-18)
(0.62792556 0.58580321 -6.1357496e-19)
(0.54027067 0.47757815 1.3942546e-18)
(1.0003288 0.31460151 -5.8803927e-19)
(0.96070292 0.37008552 0)
(0.91054065 0.32269148 1.8212042e-20)
(0.96519768 0.70450905 6.1682145e-19)
(0.93744154 0.66453756 -2.2401773e-18)
(0.7943854 0.67397235 3.0657301e-20)
(0.83348423 0.63393545 0)
(0.85047765 1.037657 6.3722943e-19)
(1.0658659 1.0438064 5.6359625e-19)
(0.98432706 1.1711301 -6.4847805e-19)
(1.117169 1.0703384 -2.3651874e-19)
(1.2187729 1.1440042 -5.3225058e-20)
(1.1861412 1.1410318 5.3678997e-20)
(1.1342578 0.86370484 -1.1109283e-18)
(1.1710089 0.97041115 2.2189378e-19)
(1.2705608 0.97978586 0)
(1.2962411 0.93731252 -3.0838537e-19)
(1.4817169 0.41171801 3.4543137e-19)
(1.5532094 0.42924594 4.244659e-19)
(1.5638657 0.37351882 5.3582884e-19)
(1.4300592 0.50362821 -7.0344571e-19)
(1.4375739 0.58189419 0)
(1.4734517 0.56182143 0)
(1.231818 0.4514322 1.2170219e-20)
(1.136547 0.3456011 0)
(1.1738552 0.30423491 6.8560947e-19)
(1.2409547 0.32276562 -2.9368888e-20)
(1.2915937 0.58224179 3.1476042e-18)
(1.1962289 0.67790774 8.6420167e-19)
(1.2035335 0.60427566 -9.5865191e-19)
(1.1119484 0.57793976 1.0358428e-18)
(1.070644 0.59121252 6.1982725e-19)
(1.0261301 0.55603259 -6.0729895e-19)
(1.6504372 0.038316275 5.8602769e-19)
(1.9402978 0.026617058 0)
(1.9042453 0.034070261 3.9444883e-19)
(1.6708724 0.036059594 -8.86121e-19)
(1.9175609 0.014779686 4.3619878e-19)
(1.8681645 -0.0037985466 -9.2275499e-19)
(1.688042 -0.011753622 0)
(1.5787901 -0.0052721395 -1.8754772e-19)
(1.8387009 -0.0012460612 4.6937506e-19)
(1.6708842 -0.00028603831 -2.4129513e-19)
(1.6074974 0.00072664042 1.770746e-19)
(0.031808666 1.817531 0)
(0.032661241 1.8178259 0)
(0.039800055 1.8215611 0)
(0.034308846 1.8066998 0)
(0.080889626 1.8243489 -1.6423114e-19)
(0.098037102 1.8087553 5.9068087e-20)
(0.13563204 1.8956627 9.0438163e-21)
(0.11877245 1.7917893 -3.8295596e-20)
(0.033681813 1.8714326 7.9002309e-20)
(0.03847279 1.8657661 -6.0861576e-20)
(0.072303005 1.8141702 -2.082785e-20)
(0.06197415 1.8212681 1.2873043e-19)
(0.046343742 1.8065129 1.759026e-20)
(0.036079682 1.8148788 1.0974998e-20)
(0.09168939 2.5254091 -1.1353458e-19)
(0.095024393 2.5595627 0)
(0.16364655 2.2623074 8.0498811e-20)
(0.14956809 2.0476724 3.1926351e-20)
(0.2713627 2.2275124 -7.9908424e-20)
(0.23586911 2.6088088 0)
(0.27976202 2.5948779 -5.7331425e-19)
(0.33003939 2.4922118 4.123416e-19)
(0.23291392 2.1894097 -1.9291695e-19)
(0.17956483 2.3551278 1.4515757e-19)
(0.16945409 2.4951052 0)
(0.0077561546 2.2037006 1.1106051e-20)
(0.01114906 2.5867206 -1.3805741e-20)
(0.0018881878 2.3452427 0)
(0.011520824 2.6497029 -1.601721e-20)
(0.029670561 2.4821492 9.0584522e-21)
(0.021539175 1.8527501 -1.3573212e-20)
(0.025189577 1.8395591 2.2525643e-19)
(0.031022753 1.8454663 -7.7674847e-20)
(0.02945796 1.8395731 -6.3847763e-20)
(0.017701972 1.8656416 0)
(0.035648628 1.8179382 0)
(0.0066222244 1.7112439 -9.3983853e-20)
(0.045241545 1.7696776 3.0395692e-20)
(0.034908912 1.7880871 0)
(0.0049820539 1.7448293 -6.7240688e-20)
(-0.012261529 1.6912012 1.3636977e-19)
(1.5955608 0.042555346 0)
(1.586168 0.043222023 -7.1639315e-20)
(1.8857961 0.03465037 -5.5175813e-19)
(1.7475952 0.048333469 0)
(1.5817115 0.043213479 0)
(1.864192 0.025657716 1.3174437e-20)
(1.8715928 0.025440438 7.9670255e-19)
(1.7490394 -0.003644411 1.0396784e-18)
(1.6366921 -0.016377482 0)
(1.5585717 -0.01641921 0)
(1.7284293 0.0079717381 5.5298494e-19)
(1.5739746 -0.0050939282 0)
(1.5528391 -0.021889125 0)
(0.0076874203 2.3224907 0)
(0.023343059 2.1318931 4.5597368e-21)
(0.0022718645 2.2614758 -6.7942507e-20)
(0.047669525 1.777806 0)
(0.051450724 1.976351 -5.607927e-20)
(0.044001546 1.8540879 4.9352056e-20)
(0.042771418 1.7495279 0)
(0.50037438 1.9000638 0)
(0.45179751 1.7015545 -4.9658824e-21)
(0.41379695 1.7117214 0)
(0.54515324 1.7391822 -1.2451377e-19)
(0.64034734 1.9071278 0)
(0.57736466 1.8516019 1.0078739e-19)
(1.1116967 2.7955919 -1.884459e-20)
(1.0437331 2.5572769 -1.0672848e-18)
(1.039254 2.4495249 1.2133412e-18)
(0.92041436 2.5409818 3.1121796e-19)
(0.91073377 2.5985604 0)
(0.97528603 2.5791473 0)
(0.99802343 2.542999 0)
(0.97763392 2.5404716 -1.1256497e-18)
(0.73867497 2.5426755 -4.6773902e-19)
(0.86091204 2.5691753 -1.1149189e-19)
(0.86098302 2.522226 8.9210647e-20)
(0.74890754 2.5770101 0)
(0.84929589 2.5672048 0)
(0.80445403 2.5879211 -4.0989058e-19)
(0.80639609 2.5922889 0)
(0.80767517 1.4483608 0)
(0.69142304 1.2659715 -6.7813624e-19)
(0.76655419 1.289128 -4.1750626e-20)
(0.73089227 1.3807036 0)
(0.72071368 1.3516928 1.0345721e-18)
(1.0023444 1.2131045 -1.7362146e-19)
(1.0165226 1.3471918 0)
(1.0202521 1.2712733 2.5999255e-19)
(0.84025008 1.4072461 0)
(0.86250795 1.2885401 0)
(1.2472675 2.8203464 -3.0326107e-19)
(1.2069861 2.860337 -2.1665008e-19)
(0.9966084 2.3687149 3.7134815e-19)
(0.9969798 2.3982086 -1.2969793e-19)
(1.2173187 2.8076716 0)
(1.1749433 2.7618066 1.6481392e-19)
(1.2017597 2.6401736 -3.1640526e-19)
(1.1134422 2.4828051 -2.9133916e-20)
(0.67423829 1.6800095 0)
(0.68115301 1.4718821 -1.7086185e-19)
(0.72720197 1.5381531 0)
(1.1258474 0.22133228 0)
(0.99182677 0.18203675 0)
(0.9105267 0.20134578 0)
(1.1212075 0.25057693 -1.066692e-18)
(1.0016075 0.23979486 6.1836591e-19)
(1.0845761 0.007796866 -5.7716032e-19)
(1.1708878 0.061961321 0)
(1.1483818 0.081852931 2.588639e-19)
(1.0090109 0.025678721 1.0513822e-18)
(0.95738171 0.005464826 -6.6508145e-19)
(1.3262813 3.4671416 -3.22431e-19)
(1.3077293 3.3991596 0)
(1.3472325 3.4214908 -7.2625786e-19)
(0.53506524 3.5227291 6.91972e-19)
(0.78144769 3.0554341 -3.0633396e-19)
(0.63779707 1.167156 8.7328208e-19)
(0.608537 1.1822649 0)
(0.55132699 0.74857572 -2.568862e-19)
(0.64993779 1.0229523 1.3248236e-18)
(0.67426257 0.70653883 -3.5860912e-19)
(0.66029415 0.74993577 3.9935466e-19)
(0.84794486 0.73250807 8.3874454e-19)
(0.92602712 0.75850146 0)
(0.84750817 0.86413449 0)
(0.78308854 0.81488418 0)
(1.2975607 0.8230427 1.2649102e-19)
(1.2112598 0.73874403 -8.2408103e-19)
(1.2102976 0.78891896 6.3237434e-19)
(1.2830762 0.69619868 -6.389611e-19)
(1.4008904 0.69784721 0)
(1.4075019 0.76874614 -1.534167e-19)
(1.1275785 0.51526746 -1.4039019e-18)
(1.1524016 0.49046222 -1.6866564e-18)
(1.0783713 0.50615884 1.094879e-18)
(1.0686328 0.47479333 -1.1233204e-18)
(1.1398442 0.39583243 -8.7156248e-19)
(1.0666531 0.39935139 1.0813454e-18)
(1.8991559 0.01746294 -4.8207852e-19)
(1.9233951 0.020002101 9.7724587e-19)
(1.6485098 0.038069659 6.0727645e-19)
(1.6609072 0.043630654 -7.2279602e-19)
(1.7477294 0.042708244 0)
(1.9111192 0.034300488 -1.2877441e-18)
(0.06948112 2.0252688 6.7930722e-21)
(0.062772424 1.9656447 0)
(0.10652483 2.0216482 1.3437312e-19)
(0.12050015 2.0114459 -1.23819e-19)
(0.10115424 1.9238351 -1.6027748e-20)
(0.089597043 1.9146234 0)
(0.046201489 2.0701055 0)
(0.052436369 1.921619 2.0257805e-20)
(0.064905166 1.8564312 -1.8329361e-20)
(0.057295776 1.9627226 9.2371988e-21)
(0.030505692 2.2377261 3.8410576e-20)
(0.026511858 2.2336945 -9.0182133e-21)
(0.65955641 1.6859234 -3.6092149e-19)
(0.62320713 1.7212441 3.8188029e-19)
(0.58255577 1.7105801 5.0101257e-20)
(0.58150608 1.6635227 1.1278022e-20)
(0.82174307 1.7198185 0)
(0.70584273 1.8240518 2.5346344e-19)
(0.77348323 1.8352782 -2.460363e-19)
(0.61768884 1.7291318 -4.9717931e-20)
(0.68496337 1.6536392 0)
(0.7334222 1.6248231 0)
(0.71687646 2.5128864 6.8478047e-19)
(0.71630017 2.5831331 1.3309702e-18)
(0.76252142 2.5821076 -9.5654573e-19)
(0.63511543 2.5919125 -2.0412006e-19)
(0.62455802 2.6482857 3.2574053e-19)
(0.57784107 2.6216477 -8.2354233e-19)
(1.0882377 2.5398582 -6.5722642e-19)