/*--------------------------------*- C++ -*----------------------------------*\
  =========                 |
  \\      /  F ield         | OpenFOAM: The Open Source CFD Toolbox
   \\    /   O peration     | Website:  https://openfoam.org
    \\  /    A nd           | Version:  9
     \\/     M anipulation  |
\*---------------------------------------------------------------------------*/
FoamFile
{
    format      ascii;
    class       volScalarField;
    location    "0.34";
    object      alpha.phase1;
}
// * * * * * * * * * * * * * * * * * * * * * * * * * * * * * * * * * * * * * //

dimensions      [0 0 0 0 0 0 0];

internalField   nonuniform List<scalar> 
10000
(
5.8894147e-98
5.8894147e-98
7.7814156e-98
3.9404637e-96
4.2658823e-94
4.2218051e-92
3.8126411e-90
3.1640219e-88
2.2693475e-86
1.7341731e-84
2.6419523e-82
1.5852404e-79
4.1031051e-77
9.2207312e-76
6.0848621e-75
2.2550277e-74
5.3021209e-74
1.8298203e-73
2.2832993e-73
2.4230377e-73
2.5412032e-73
2.6313559e-73
2.6889293e-73
7.4108984e-72
7.5388457e-70
6.85326e-68
7.8652552e-66
1.1180348e-63
3.4629698e-61
1.5196264e-58
4.7617115e-57
2.0179824e-56
2.261409e-55
1.1210019e-54
1.3442039e-53
4.1336764e-52
1.3070797e-50
3.7766962e-49
9.8377011e-48
2.2738038e-46
4.5568479e-45
7.7731862e-44
1.1263604e-42
1.381325e-41
1.3768062e-40
1.0647581e-39
6.442133e-39
3.0919373e-38
1.115522e-37
2.8630299e-37
2.9175721e-37
1.1943269e-37
3.2321909e-38
6.4092436e-39
9.4398157e-40
9.7432634e-41
6.1169048e-42
2.0032706e-43
3.048343e-45
2.0105606e-47
8.583782e-50
1.4122953e-52
4.2792596e-55
1.3035098e-56
1.3089867e-56
3.8999788e-56
5.3147464e-56
4.5281936e-56
1.3303951e-56
1.0114868e-57
3.7151658e-59
9.9277545e-62
8.3866525e-64
8.9139094e-66
6.7869966e-68
5.1758146e-70
8.0934549e-72
3.5064374e-72
1.8530265e-72
1.1159253e-72
8.6417456e-73
6.0638485e-73
3.0999075e-73
1.0143531e-73
4.5186634e-74
1.4981916e-74
3.9656727e-75
7.9581378e-76
4.1123408e-77
3.5468877e-79
1.4671237e-81
5.6600613e-84
1.7210009e-86
4.6333655e-89
1.6739565e-91
9.8491546e-94
6.0323199e-96
1.168784e-97
9.4326203e-98
9.4326203e-98
6.031693e-98
1.6474623e-96
8.3239062e-96
2.4871742e-95
1.1136994e-93
6.7896108e-92
5.2784014e-90
4.7693029e-88
5.4940691e-86
1.4956923e-83
4.133606e-81
3.3203412e-79
4.1842029e-77
9.2647737e-76
6.0207564e-75
2.5311626e-74
6.3234565e-74
1.7641495e-73
6.8737203e-73
2.6853233e-72
3.3628303e-72
1.8830461e-72
4.2370832e-73
1.1537751e-71
1.0857102e-69
5.4822968e-69
8.4476785e-67
1.8453693e-64
2.2757775e-61
1.6972452e-58
4.6744013e-57
1.1423582e-55
2.0338861e-53
1.8246093e-52
3.2975036e-51
9.8869679e-50
2.8761413e-48
7.6081489e-47
1.8048963e-45
3.7882163e-44
6.9085324e-43
1.0750208e-41
1.4100434e-40
1.5389764e-39
1.3326406e-38
8.2521855e-38
3.2840596e-37
8.490269e-37
1.8483706e-36
3.3776383e-36
3.420354e-36
1.9273712e-36
8.7218402e-37
3.2694361e-37
7.6491713e-38
9.8724955e-39
6.7867885e-40
2.4850505e-41
4.4531503e-43
3.9217268e-45
1.5671919e-47
2.5113492e-50
5.9638987e-53
1.820644e-54
8.7861985e-54
1.4200647e-53
1.3180795e-53
3.433174e-54
3.234171e-56
1.1261321e-57
4.7174732e-59
3.8581212e-61
1.0561666e-64
2.1658352e-67
1.968532e-69
6.8704327e-70
1.0300673e-70
3.5286789e-71
5.293758e-72
2.9603244e-72
8.3917411e-72
5.5617864e-72
9.8068212e-73
1.4621906e-73
7.9219127e-74
1.8108128e-74
4.5663839e-75
8.2288178e-76
4.5132728e-77
6.4864079e-79
5.7026417e-81
2.7611412e-83
5.6479161e-86
1.0454016e-88
8.3313556e-91
9.3749302e-93
1.4332499e-94
2.0966692e-95
2.9007391e-96
9.5936708e-98
4.9299835e-95
1.6460724e-93
1.1109345e-91
8.8743462e-91
2.8444647e-90
2.6574422e-89
1.724065e-87
2.1297353e-85
5.5919715e-83
1.8663085e-80
4.86496e-78
2.561179e-76
2.1032508e-75
8.7077442e-75
9.0460656e-75
2.9520229e-72
7.4530383e-72
3.3800275e-72
3.4418726e-70
1.3580106e-69
1.5731672e-69
5.7135957e-70
9.948608e-71
5.2177282e-70
4.9324098e-68
7.2808824e-66
3.081983e-63
8.3507613e-60
1.6543399e-57
7.6006752e-56
6.2798808e-55
2.0717462e-52
2.469194e-50
1.2292873e-49
8.2187622e-49
1.8801354e-47
5.1983993e-46
1.3182597e-44
2.9939902e-43
6.0072803e-42
1.0468871e-40
1.5592723e-39
1.9624759e-38
2.0627055e-37
1.7367039e-36
1.0651306e-35
4.2792558e-35
1.116566e-34
2.3916008e-34
4.4443566e-34
4.5019737e-34
2.4895287e-34
1.1415257e-34
4.2418739e-35
9.8246347e-36
1.2838098e-36
9.2481846e-38
3.7008675e-39
7.637645e-41
8.0762634e-43
3.9572735e-45
8.0620738e-48
1.6961532e-50
1.9595011e-51
8.729718e-51
1.3110539e-50
1.148229e-50
2.7531044e-51
1.8858371e-53
1.6647512e-55
1.2038847e-56
4.6889009e-58
3.1292504e-60
4.6212304e-64
3.5207617e-67
7.0358459e-68
1.0377611e-67
2.4833952e-68
2.7522197e-69
8.6477561e-70
4.0388402e-69
3.5118572e-69
5.4509906e-70
3.3730292e-71
2.7605396e-71
3.7035727e-72
6.8774353e-73
7.5793429e-74
6.4846529e-75
4.2169416e-76
7.2400048e-78
5.198046e-80
2.7267985e-82
1.121249e-84
4.6827901e-87
5.9217421e-89
3.2158374e-90
2.3670837e-91
3.0856166e-93
7.4438684e-95
1.7013157e-92
7.8925298e-91
7.0499493e-89
4.4117224e-87
9.297191e-86
2.3454285e-85
1.9919026e-84
2.5891411e-82
6.0356807e-80
1.7083958e-77
3.9039543e-75
2.1269424e-73
1.9284516e-72
9.0940098e-72
8.7524065e-72
4.4966699e-69
4.3549678e-69
1.8433475e-69
1.551299e-67
5.0436646e-67
5.4475721e-67
1.5095912e-67
5.4650615e-68
6.3792473e-67
5.7573361e-65
9.0101229e-63
1.4796539e-59
1.408447e-56
1.3725127e-54
4.2321579e-53
4.4465808e-52
2.9195771e-49
2.563103e-47
9.3040517e-47
2.4394361e-46
2.867348e-45
7.2765365e-44
1.7632108e-42
3.825557e-41
7.3295793e-40
1.219945e-38
1.7357669e-37
2.0900866e-36
2.1102204e-35
1.7224047e-34
1.0403039e-33
4.1866434e-33
1.0975247e-32
2.3206391e-32
4.3714972e-32
4.4298536e-32
2.4130958e-32
1.1170119e-32
4.1307424e-33
9.5403233e-34
1.2690838e-34
9.6110783e-36
4.2084352e-37
9.9955875e-39
1.25886e-40
7.265916e-43
2.1273577e-45
5.5892016e-48
2.0906129e-48
7.0538396e-48
9.3910857e-48
7.0817113e-48
1.3773433e-48
7.9961919e-51
1.0238068e-52
6.9117885e-54
3.051882e-55
2.8269116e-57
1.4716354e-59
1.3242123e-63
4.0014995e-65
6.2439832e-65
1.4917407e-65
1.6887444e-66
2.2280991e-67
1.1963302e-66
1.6648957e-66
2.9026815e-67
1.8915907e-68
1.5531105e-68
2.488963e-69
4.9352975e-70
7.374648e-71
5.8734275e-72
3.4082145e-73
6.229437e-75
5.7884297e-77
4.2765649e-79
3.1538008e-81
2.479612e-83
3.0324591e-85
1.1503445e-86
1.7176542e-88
1.4657167e-90
2.4862144e-92
4.5620945e-90
2.5549572e-88
2.6049709e-86
2.0364971e-84
1.196323e-82
2.9213586e-81
1.1338154e-80
3.1500687e-79
5.1561263e-77
1.0882535e-74
2.2126185e-72
1.1833145e-70
1.2068497e-69
6.670406e-69
4.0570739e-68
2.1685385e-66
1.752751e-66
2.3222583e-66
5.4294257e-65
1.5298305e-64
1.5417239e-64
3.7740482e-65
2.67788e-65
2.9186032e-64
2.9791111e-62
1.1159435e-59
2.170065e-56
1.0683561e-53
7.1627499e-52
1.6837725e-50
2.0094176e-49
1.2391047e-46
1.1752484e-44
4.7044815e-44
8.7618298e-44
4.0387584e-43
8.231157e-42
1.8888346e-40
3.9002769e-39
7.1077667e-38
1.1257942e-36
1.5259223e-35
1.7533092e-34
1.695219e-33
1.3377987e-32
7.9386842e-32
3.1887658e-31
8.3617117e-31
1.7409655e-30
3.2985506e-30
3.3439857e-30
1.808951e-30
8.471649e-31
3.1306839e-31
7.2336132e-32
9.8061056e-33
7.8065525e-34
3.7435638e-35
1.0190923e-36
1.510634e-38
1.0935191e-40
4.2249332e-43
2.3374333e-45
1.8499365e-45
4.7280352e-45
5.536256e-45
3.065244e-45
3.9202978e-46
1.7765958e-48
4.8722508e-50
2.7888386e-51
1.2731453e-52
1.2611334e-54
8.4759763e-57
3.4318078e-59
1.2459501e-61
2.6515753e-62
7.5942612e-63
8.9916958e-64
7.0130146e-65
2.3897895e-64
6.1888623e-64
1.0668294e-64
8.2968532e-66
6.6449087e-66
1.2513182e-66
2.5268801e-67
4.4662358e-68
3.4306986e-69
1.9622035e-70
3.6573903e-72
3.9106063e-74
3.5741626e-76
2.7713088e-78
2.2620042e-80
3.7691203e-82
6.6630797e-84
6.5511747e-86
4.658884e-88
6.452543e-90
9.9707184e-88
6.3328517e-86
7.0968669e-84
6.0922157e-82
4.3359676e-80
2.3536322e-78
5.0651717e-77
3.3954406e-76
3.3156029e-74
5.197886e-72
9.5470672e-70
5.3729012e-68
5.5247731e-67
3.6245811e-66
5.4767705e-65
7.4739145e-64
5.74235e-64
7.9344914e-64
1.5480785e-62
3.9824029e-62
3.6743142e-62
8.0286289e-63
1.1527209e-62
7.8695536e-62
1.243198e-59
2.2009991e-56
1.4470795e-53
2.9610583e-51
1.0188495e-49
6.440996e-48
6.4699781e-47
1.3322867e-44
1.9838259e-42
1.5006295e-41
3.2400356e-41
7.1252099e-41
7.998805e-40
1.6768617e-38
3.2732171e-37
5.6507515e-36
8.4819774e-35
1.0904732e-33
1.1901831e-32
1.0974101e-31
8.3393665e-31
4.8453342e-30
1.9376287e-29
5.0730666e-29
1.0391343e-28
1.9716863e-28
2.0000184e-28
1.079071e-28
5.1169784e-29
1.8931775e-29
4.382838e-30
6.0622174e-31
5.0803105e-32
2.6734009e-33
8.3316336e-35
1.4386864e-36
1.3013834e-38
6.5362417e-41
8.7540092e-43
1.2814363e-42
2.6055642e-42
2.7133758e-42
1.0919498e-42
9.0298952e-44
4.0456464e-46
1.8220204e-47
7.4174416e-49
3.7703907e-50
3.8620229e-52
2.7289276e-54
3.6175837e-56
1.5403142e-58
1.168678e-59
3.2177971e-60
3.9468424e-61
3.2393711e-62
6.732337e-62
1.8983242e-61
3.2044835e-62
2.9752338e-63
2.336635e-63
4.8944281e-64
9.9533889e-65
2.0029393e-65
1.562628e-66
8.4527889e-68
1.6127042e-69
1.9273468e-71
1.7900239e-73
1.1395661e-75
1.1466329e-77
2.1423818e-79
2.1531575e-81
1.7700094e-83
1.1311345e-85
1.3633523e-87
1.8341295e-85
1.2785812e-83
1.5212187e-81
1.4225055e-79
1.0908224e-77
7.1126766e-76
3.4967903e-74
2.8959399e-73
1.3881457e-71
2.0353174e-69
3.4268237e-67
1.8168253e-65
2.0590235e-64
1.6608606e-63
3.0773771e-62
2.0816979e-61
1.5746644e-61
2.1400917e-61
3.8248902e-60
9.1947007e-60
7.1933677e-60
1.4362797e-60
4.4817406e-60
2.2108122e-59
3.1514566e-57
6.0025796e-54
1.3577654e-51
1.3836613e-49
2.6384194e-48
6.2936372e-46
1.5439111e-44
1.4421391e-42
1.4302565e-40
4.5031992e-39
1.2367784e-38
1.8165353e-38
8.0919769e-38
1.2847695e-36
2.3074044e-35
3.7592792e-34
5.3221092e-33
6.4632398e-32
6.6707415e-31
5.8364824e-30
4.2497913e-29
2.4083026e-28
9.5626465e-28
2.4962136e-27
5.027116e-27
9.5158315e-27
9.6594593e-27
5.2177133e-27
2.5065905e-27
9.2928011e-28
2.1577161e-28
3.0502248e-29
2.6975975e-30
1.5607115e-31
5.5380861e-33
1.0985982e-34
1.2021278e-36
8.0872136e-39
3.1725247e-40
7.1390079e-40
1.1713751e-39
1.0873536e-39
3.3141639e-40
1.9956229e-41
1.1580124e-43
5.3254035e-45
8.7343171e-47
1.2292362e-47
1.0560841e-49
9.4534292e-52
1.3835732e-53
2.9258909e-56
5.1833862e-57
1.1566407e-57
1.4942472e-58
1.0871692e-59
1.680202e-59
4.9669784e-59
8.3188657e-60
8.9447336e-61
6.8167072e-61
1.5648691e-61
3.2870395e-62
7.2344469e-63
5.7958496e-64
2.8386966e-65
5.7255394e-67
7.3517513e-69
5.4655314e-71
4.2387521e-73
6.5916081e-75
6.321478e-77
5.1424725e-79
3.7524885e-81
2.2315998e-83
2.4201595e-85
2.9060708e-83
2.1811079e-81
2.7094128e-79
2.6984337e-77
2.2328687e-75
1.5669659e-73
9.3872621e-72
3.7665279e-70
4.6339829e-69
5.9060873e-67
9.0941106e-65
5.2386999e-63
6.7942542e-62
6.2215657e-61
9.6736125e-60
4.8717673e-59
3.7205495e-59
5.0180825e-59
8.5148528e-58
1.9248648e-57
1.0310105e-57
2.1563336e-58
1.5330061e-57
9.4180819e-57
5.2447182e-55
2.9127995e-52
2.0825515e-50
1.6237125e-48
5.1299384e-46
8.6702733e-45
4.896268e-42
7.2941998e-40
2.1379814e-38
1.2607954e-36
4.6642532e-36
5.9876588e-36
2.787888e-35
8.6944447e-35
1.3804883e-33
2.1206248e-32
2.8172573e-31
3.2147474e-30
3.121828e-29
2.5781839e-28
1.7892636e-27
9.8474125e-27
3.874186e-26
1.0072486e-25
1.9925503e-25
3.747535e-25
3.8071011e-25
2.0668734e-25
1.0064985e-25
3.7400328e-26
8.716893e-27
1.2618978e-27
1.1806391e-28
7.4917082e-30
2.9922401e-31
6.7597124e-33
8.93684e-35
8.7881016e-37
1.2967421e-37
3.1921742e-37
4.3648641e-37
3.3384869e-37
7.3499102e-38
3.7411689e-39
3.3275475e-41
1.3579849e-42
1.7442407e-44
9.9812516e-45
1.0839116e-46
3.5666612e-49
6.2674093e-52
4.5336776e-54
2.0866959e-54
3.7632288e-55
4.870008e-56
2.8716831e-57
3.7738261e-57
1.1257491e-56
1.8959283e-57
2.3092252e-58
1.7099589e-58
4.2714164e-59
9.1164936e-60
2.1787056e-60
1.7481343e-61
8.3718771e-63
1.7420953e-64
2.1192437e-66
1.4614206e-68
1.8785825e-70
1.9148609e-72
1.3881631e-74
9.8295069e-77
6.5977143e-79
3.7115202e-81
3.6925133e-83
4.0351503e-81
3.2215586e-79
4.1397144e-77
4.3177157e-75
3.8219755e-73
2.8858886e-71
1.9106921e-69
1.0330051e-67
1.6933442e-66
1.2839729e-64
1.7296305e-62
1.3174001e-60
1.9591388e-59
2.0665681e-58
2.3677763e-57
9.918747e-57
7.7257127e-57
1.0828121e-56
1.7332442e-55
3.6948081e-55
1.3261307e-55
4.390215e-56
5.1254271e-55
3.2265753e-54
6.8927012e-53
4.7372704e-51
5.976427e-49
1.33755e-46
1.876674e-44
1.5817771e-42
1.7197019e-39
2.2966077e-37
2.8862504e-36
1.9656701e-34
1.2506984e-33
2.0076421e-33
1.4883231e-32
4.3729303e-33
7.2443953e-32
1.0225238e-30
1.270486e-29
1.3550346e-28
1.2311985e-27
9.5319843e-27
6.261051e-26
3.3275411e-25
1.2927492e-24
3.33846e-24
6.4611989e-24
1.2028735e-23
1.22322e-23
6.6961876e-24
3.3159553e-24
1.2378552e-24
2.9009225e-25
4.3108511e-26
4.2867641e-27
2.9851916e-28
1.3329809e-29
3.4226202e-31
5.556695e-33
1.0687227e-34
5.4620024e-35
1.1290325e-34
1.2717348e-34
6.259595e-35
7.5777189e-36
3.5470129e-37
8.2615459e-39
2.8502958e-40
1.3445698e-42
4.121003e-43
1.1008655e-44
2.2503777e-47
6.4880479e-51
1.6297259e-51
6.2337055e-52
1.0975261e-52
1.3167171e-53
7.5182803e-55
7.6551991e-55
2.2425471e-54
3.8334356e-55
5.2159511e-56
3.7956363e-56
1.0105544e-56
2.2326833e-57
5.8282354e-58
4.5518665e-59
2.1660076e-60
4.6180371e-62
4.4072649e-64
4.530658e-66
5.7214593e-68
3.9974911e-70
2.4755071e-72
1.5838774e-74
9.9376412e-77
5.3334618e-79
4.9258272e-81
4.9760228e-79
4.1928871e-77
5.5423252e-75
5.9974841e-73
5.5811765e-71
4.5326306e-69
3.2531371e-67
2.0421368e-65
9.0840705e-64
2.2256333e-62
2.7268939e-60
2.838922e-58
5.1868291e-57
7.0553307e-56
4.9265021e-55
1.7888943e-54
1.4281523e-54
2.2038901e-54
3.1847686e-53
6.5465217e-53
2.2693988e-53
1.0257246e-53
1.3920674e-52
9.3443721e-52
1.2719561e-50
7.2002855e-49
4.3445445e-46
5.825642e-44
4.4497637e-43
2.8280668e-40
2.1045491e-37
2.558872e-35
3.4181722e-34
2.2797079e-32
2.549207e-31
6.5162228e-31
7.3454537e-30
1.284922e-30
3.2564453e-30
4.224022e-29
4.9245114e-28
4.8777795e-27
4.1206708e-26
2.967948e-25
1.8264598e-24
9.2895271e-24
3.5449977e-23
9.048475e-23
1.7005697e-22
3.1389471e-22
3.1972537e-22
1.7599045e-22
8.9171404e-23
3.3601747e-23
7.9396996e-24
1.2183095e-24
1.2981529e-25
9.9444775e-27
4.9497994e-28
1.4525057e-29
3.0778057e-31
2.1322128e-32
2.4187423e-32
3.3518345e-32
3.0942458e-32
8.5789096e-33
2.0337797e-34
2.0221994e-35
2.4558203e-36
5.5492217e-38
7.9078869e-41
2.6653958e-42
3.4446377e-43
6.0687163e-46
1.2994341e-48
5.4525632e-49
1.7228801e-49
2.8534033e-50
2.8246127e-51
1.7303848e-52
1.4231764e-52
4.0005308e-52
6.9493407e-53
1.0472067e-53
7.6881778e-54
2.1739078e-54
4.8353345e-55
1.3476447e-55
1.0555713e-56
4.872643e-58
1.0184048e-59
9.8439555e-62
1.4224503e-63
1.157393e-65
6.7956853e-68
3.7662365e-70
2.2167703e-72
1.3104735e-74
6.7406862e-77
5.8222022e-79
5.5075435e-77
4.8725676e-75
6.6016018e-73
7.369733e-71
7.1421174e-69
6.1297929e-67
4.7553726e-65
3.3208748e-63
2.0257716e-61
4.5029569e-60
3.9749681e-58
5.6983247e-56
1.2886076e-54
1.5806125e-53
8.7187954e-53
2.8908646e-52
2.3713709e-52
4.2163362e-52
5.1443232e-51
1.0634782e-50
3.5807508e-51
2.2735824e-51
3.5683109e-50
2.7040215e-49
1.030773e-48
1.183436e-46
1.08729e-43
8.3174739e-42
3.1242555e-41
2.9451045e-38
1.4676727e-35
5.6303307e-34
3.5992033e-32
9.7241176e-31
3.6527493e-29
1.9561503e-28
3.1709995e-27
5.6511158e-28
1.1339593e-28
1.5244552e-27
1.6449037e-26
1.5064751e-25
1.1755329e-24
7.8154014e-24
4.446636e-23
2.1368434e-22
8.004978e-22
2.054275e-21
3.8319841e-21
7.0854048e-21
7.2272619e-21
3.9616865e-21
2.0080485e-21
7.4948075e-22
1.7767695e-22
2.8419983e-23
3.2875459e-24
2.7830153e-25
1.5437842e-26
5.2323553e-28
1.8052676e-29
3.2481273e-30
1.3890971e-29
1.0348956e-29
8.6794166e-30
2.1349405e-30
3.2288258e-32
2.9870075e-33
8.0460257e-34
1.3830048e-35
7.1789158e-39
1.685207e-40
1.1150282e-42
1.169181e-44
2.3598643e-46
1.7748918e-46
4.214654e-47
6.6486589e-48
5.7319693e-49
3.5392665e-50
2.4177163e-50
6.4477081e-50
1.1454293e-50
1.9027281e-51
1.5058354e-51
4.6986657e-52
9.7246882e-53
2.7772731e-53
2.17958e-54
9.8697605e-56
1.7869028e-57
2.5255603e-59
2.8401983e-61
1.8835831e-63
9.9055779e-66
5.0311653e-68
2.7490708e-70
1.5370484e-72
7.5945259e-75
6.1622642e-77
5.5181417e-75
5.1084266e-73
7.0767723e-71
8.1205266e-69
8.1485295e-67
7.3170328e-65
6.0455778e-63
4.6314519e-61
3.3698891e-59
1.9944075e-57
5.9401561e-56
1.0456022e-53
2.9686292e-52
2.820845e-51
1.3489871e-50
4.2197531e-50
3.5604179e-50
7.4582059e-50
7.5934783e-49
1.5812588e-48
5.2476912e-49
4.2165154e-49
7.3902512e-48
6.3158412e-47
3.0977212e-46
2.5859114e-45
1.2787001e-42
1.3038383e-40
5.7114601e-39
9.2802225e-36
3.1332877e-33
7.2997185e-32
7.6378047e-30
1.0715658e-28
6.466955e-27
6.3840839e-26
1.1702539e-24
2.1788255e-25
2.3976451e-26
5.2430497e-26
4.7548357e-25
4.0215739e-24
2.8769117e-23
1.7542597e-22
9.1730666e-22
4.1334508e-21
1.5387562e-20
4.2685908e-20
8.7907233e-20
1.6017734e-19
1.6255064e-19
9.1311928e-20
4.1978698e-20
1.4247624e-20
3.3095838e-21
5.549953e-22
7.0063101e-23
6.5549607e-24
4.0815137e-25
1.6665669e-26
6.9972216e-28
9.0924907e-28
7.4904317e-27
2.6148542e-27
1.9497582e-27
4.3518244e-28
6.0476866e-30
3.108822e-31
1.5304981e-31
3.5536077e-33
1.3235762e-36
5.1763879e-39
2.4874579e-40
3.5803592e-43
6.2191121e-44
4.3436542e-44
9.059381e-45
1.3884392e-45
1.0196686e-46
6.9407037e-48
3.8766555e-48
9.4189579e-48
1.7439308e-48
3.1034485e-49
2.6588863e-49
8.5978969e-50
1.9188922e-50
4.9694017e-51
4.1788917e-52
1.8168934e-53
3.2053594e-55
5.17682e-57
4.4433964e-59
2.6255782e-61
1.27471e-63
6.0129348e-66
3.0651154e-68
1.6230807e-70
7.7096778e-73
5.8908269e-75
5.0401578e-73
4.8720831e-71
6.8890901e-69
8.1062548e-67
8.3907496e-65
7.8353077e-63
6.8191229e-61
5.6467578e-59
4.6927011e-57
4.0974832e-55
1.7608853e-53
1.9316456e-51
5.6708342e-50
4.2733697e-49
1.8570419e-48
5.5906522e-48
4.9614684e-48
1.2128334e-47
1.0420377e-46
2.1538813e-46
7.1475864e-47
6.8359427e-47
1.3605395e-45
1.4298568e-44
7.5341505e-44
2.2737153e-43
1.8261835e-41
2.8298261e-39
8.4677283e-37
1.9388492e-33
2.2259443e-31
1.252482e-30
5.647371e-29
1.1942693e-26
9.8448494e-25
2.0541388e-23
3.6866797e-22
7.0108604e-23
5.7934167e-24
2.4433824e-24
1.2080043e-23
9.3422808e-23
6.1051787e-22
3.4043363e-21
1.6631431e-20
7.1272283e-20
2.629858e-19
7.8497021e-19
1.7938535e-18
3.0546826e-18
3.0680911e-18
1.8665857e-18
7.8397696e-19
2.4052818e-19
5.4728051e-20
9.5223146e-21
1.2802475e-21
1.318887e-22
9.4568499e-24
5.3392596e-25
1.7580918e-25
4.3729517e-25
3.8408889e-24
5.5928683e-25
3.3234477e-25
6.5197493e-26
8.9329998e-28
3.5618064e-29
1.4625435e-29
3.2197278e-31
1.2209819e-34
1.0748234e-37
1.4527193e-38
2.4808631e-41
2.3299628e-41
8.5182557e-42
1.7330148e-42
2.2886648e-43
1.6357367e-44
1.2504246e-45
5.5295218e-46
1.2526767e-45
2.4923813e-46
4.5032723e-47
3.989405e-47
1.3015765e-47
3.0962018e-48
7.5915854e-49
7.2034716e-50
3.0444532e-51
6.3606459e-53
7.8901086e-55
5.9190439e-57
3.2358033e-59
1.4748842e-61
6.5164686e-64
3.1076329e-66
1.5582333e-68
7.1138546e-71
5.1227659e-73
4.2216788e-71
4.2561033e-69
6.1350654e-67
7.3905153e-65
7.8705204e-63
7.6125649e-61
6.9331477e-59
6.1274377e-57
5.6803109e-55
6.1500851e-53
6.625581e-51
3.8159969e-49
8.5656259e-48
5.6267408e-47
2.2993292e-46
6.7267299e-46
6.7630605e-46
1.8170091e-45
1.3284063e-44
2.6867599e-44
9.0434923e-45
1.0096569e-44
2.2289483e-43
2.6908741e-42
1.4826142e-41
6.5082932e-41
2.546553e-39
3.396701e-37
5.2306499e-35
7.1625789e-32
1.4264599e-29
1.7287585e-28
6.3316356e-27
1.4579003e-24
1.4723848e-22
6.4395935e-21
9.8502039e-20
1.8793548e-20
1.2310965e-21
1.4088284e-22
3.1666957e-22
1.9367436e-21
1.1755242e-20
5.9495301e-20
2.6702909e-19
1.0597734e-18
3.6003339e-18
1.0059064e-17
2.2280623e-17
3.5282694e-17
3.5112115e-17
2.2812914e-17
9.9608e-18
3.1987437e-18
7.7587969e-19
1.4302547e-19
2.079214e-20
2.4331076e-21
2.1176375e-22
2.3098049e-23
4.6465482e-23
2.1425194e-22
1.7042716e-21
1.2325543e-22
4.4500051e-23
7.2994552e-24
9.7818674e-26
3.6384807e-27
8.2086675e-28
1.1030625e-29
2.607039e-33
4.5787432e-36
2.1557234e-38
3.5754294e-39
5.5797104e-39
1.685208e-39
3.0081515e-40
3.4202379e-41
2.334004e-42
1.8878844e-43
7.4347205e-44
1.5338046e-43
3.3424789e-44
5.8870143e-45
5.2319327e-45
1.6954362e-45
4.133243e-46
9.8768743e-47
1.1031096e-47
4.6944232e-49
9.5840395e-51
1.0103997e-52
6.9632909e-55
3.5930158e-57
1.5540502e-59
6.4707181e-62
2.8917906e-64
1.3713404e-66
6.0103281e-69
4.0772483e-71
3.2592404e-69
3.425075e-67
5.0285084e-65
6.1939096e-63
6.7738955e-61
6.7677465e-59
6.4231657e-57
6.0153527e-55
6.1144985e-53
7.716371e-51
1.1133685e-48
6.9740813e-47
1.1000808e-45
6.5804483e-45
2.5812362e-44
7.224813e-44
8.4665936e-44
2.480408e-43
1.5731111e-42
3.0646925e-42
1.0494712e-42
1.4040869e-42
3.5239135e-41
4.8373959e-40
2.83643e-39
8.6537039e-39
4.1542731e-37
5.2584697e-35
8.1098337e-33
2.5212138e-30
9.392706e-28
4.3933459e-26
1.830498e-24
2.7189244e-22
3.0024443e-20
1.8684814e-18
2.2161854e-17
4.1616534e-18
2.2127804e-19
1.2051136e-20
1.2162828e-20
3.8501347e-20
2.1443096e-19
9.6490191e-19
3.6142824e-18
1.1864151e-17
3.4720754e-17
8.5790272e-17
1.7725261e-16
2.7677976e-16
2.7137632e-16
1.8411278e-16
8.5319953e-17
2.9422001e-17
7.9526924e-18
1.7050697e-18
3.0910704e-19
4.48894e-20
5.3602156e-21
1.6358252e-21
5.9133683e-21
8.3577766e-20
6.1339369e-19
3.6094286e-20
5.2748035e-21
7.4141528e-22
9.9336966e-24
1.2027938e-25
4.0729077e-26
5.9940232e-28
1.2329546e-31
2.7383646e-34
2.023909e-36
1.1372209e-36
1.1708934e-36
3.0149015e-37
4.7490581e-38
4.998575e-39
3.1650143e-40
2.7011642e-41
8.9469057e-42
1.7394568e-41
4.1940366e-42
6.9996278e-43
6.0829795e-43
1.9499035e-43
4.7826048e-44
1.1210807e-44
1.4134735e-45
6.4739469e-47
1.1858239e-48
1.1378622e-50
7.3849606e-53
3.6408788e-55
1.5056057e-57
5.9366263e-60
2.4891653e-62
1.1142378e-64
4.6793032e-67
2.985748e-69
2.3293753e-67
2.5516501e-65
3.8128663e-63
4.7976721e-61
5.3810189e-59
5.5423255e-57
5.466139e-55
5.4013501e-53
5.9643965e-51
8.4911322e-49
1.4382174e-46
9.3664879e-45
1.2344515e-43
6.9306942e-43
2.6415184e-42
7.1478676e-42
9.613402e-42
3.0580754e-41
1.7312504e-40
3.1822103e-40
1.1342175e-40
1.8613511e-40
4.8672629e-39
7.1380497e-38
4.4859937e-37
1.5364267e-36
1.4703924e-34
1.785068e-32
1.8622082e-30
4.6911258e-28
7.4901701e-26
8.8786798e-24
6.7808938e-22
9.0758029e-20
8.7334607e-18
4.343722e-16
3.3780404e-15
7.5496067e-16
2.8093117e-17
1.8268962e-18
1.4145428e-18
8.2862079e-19
3.3857225e-18
1.3056885e-17
3.841541e-17
9.9857034e-17
2.3852485e-16
4.6735999e-16
8.506743e-16
1.3544506e-15
1.4096098e-15
9.3017288e-16
4.407799e-16
1.7698992e-16
5.3930002e-17
1.4917595e-17
3.6656821e-18
6.8837488e-19
1.558328e-19
1.2517718e-19
6.7342666e-19
2.4913429e-17
1.6834994e-16
1.3702339e-17
7.4998686e-19
8.651778e-20
1.1873149e-21
3.557348e-24
7.908871e-25
8.5975571e-27
2.089871e-30
7.8421813e-33
2.3382235e-34
2.6731268e-34
2.0372899e-34
4.8549303e-35
6.8990046e-36
6.6108366e-37
4.1028772e-38
3.1790503e-39
9.7832829e-40
1.8330095e-39
4.8908934e-40
7.7513939e-41
6.3133968e-41
2.0096745e-41
4.9113118e-42
1.1312229e-42
1.5446073e-43
7.4055456e-45
1.2805403e-46
1.1538775e-48
7.1558242e-51
3.3987391e-53
1.3515163e-55
5.0676299e-58
1.9955235e-60
8.4123023e-63
3.3762012e-65
2.0210845e-67
1.5471162e-65
1.7673681e-63
2.6864952e-61
3.4505325e-59
3.9646342e-57
4.203546e-55
4.2999057e-53
4.4722159e-51
5.3361745e-49
8.4099866e-47
1.5834573e-44
1.050816e-42
1.2380955e-41
6.6331991e-41
2.4751272e-40
6.5684541e-40
9.9925582e-40
3.415918e-39
1.7698971e-38
3.0173006e-38
1.1448262e-38
2.3961931e-38
5.6213099e-37
9.5400213e-36
5.8992193e-35
4.8824379e-34
6.4859775e-32
7.7363394e-30
7.5965965e-28
1.0872153e-25
2.753128e-23
2.3643889e-21
1.5858565e-19
1.4514823e-17
1.6574506e-15
7.50993e-14
4.5265219e-13
1.0732547e-13
2.8353518e-15
2.3435474e-16
4.171756e-16
2.1371166e-17
4.4673701e-17
1.3925796e-16
3.9016135e-16
7.9266056e-16
1.3340309e-15
4.5837815e-15
3.5852482e-15
4.6172498e-15
4.7148332e-15
3.9191591e-15
1.7685548e-15
8.5620814e-16
3.97171e-16
1.6122012e-16
3.2708135e-17
7.9342404e-18
5.2436237e-18
1.477266e-17
7.0143208e-17
5.4561821e-15
3.0014679e-14
4.2407699e-15
1.9010287e-16
1.8523425e-17
2.5497819e-19
7.83328e-22
6.3599122e-23
2.6162446e-25
2.103567e-28
1.3333819e-30
1.4608762e-32
5.6024074e-32
2.9674656e-32
6.988277e-33
8.7832449e-34
8.157879e-35
4.8119426e-36
3.3010717e-37
9.9872538e-38
1.8003502e-37
5.3130385e-38
8.4812784e-39
5.8544129e-39
1.8738477e-39
4.537405e-40
1.0288321e-40
1.4902489e-41
7.4077981e-43
1.2414436e-44
1.0691991e-46
6.3962039e-49
2.9444408e-51
1.1311895e-53
4.0489185e-56
1.4991921e-58
5.9366807e-61
2.2694914e-63
1.2699751e-65
9.5820301e-64
1.1424385e-61
1.7657722e-59
2.3135199e-57
2.7206362e-55
2.9660129e-53
3.1427995e-51
3.4362055e-49
4.4170375e-47
7.6150393e-45
1.5480337e-42
1.0351036e-40
1.1251111e-39
5.8051201e-39
2.1315827e-38
5.5982906e-38
9.5440119e-38
3.4723264e-37
1.6817836e-36
2.6173441e-36
1.0736605e-36
2.855342e-36
5.9856673e-35
1.1903895e-33
6.9432196e-33
1.4464691e-31
2.2246045e-29
2.620746e-27
2.5730762e-25
1.0781902e-22
1.3109274e-20
3.8729855e-19
2.1301918e-17
6.0019025e-16
1.5557168e-13
9.6421882e-12
4.7838664e-11
1.2164456e-11
2.3965776e-13
4.6476304e-14
5.1404973e-15
7.700308e-16
8.8569078e-16
2.3313845e-15
8.4072477e-15
1.3410068e-14
2.4422731e-14
9.8662188e-14
5.984638e-14
3.059235e-14
1.9207833e-14
5.538951e-14
2.0403746e-14
8.7769085e-15
7.5839171e-15
5.4842475e-15
1.1550412e-15
3.9066336e-16
3.7225028e-16
3.3037474e-16
5.6092484e-15
8.5449228e-13
3.988512e-12
9.2978138e-13
3.0032037e-16
5.4489022e-17
1.5273264e-18
4.7427785e-20
1.7551377e-20
7.7171554e-22
1.0254115e-24
2.7115936e-28
2.4720139e-30
9.732246e-30
4.0922546e-30
9.458777e-31
1.0306313e-31
9.3801467e-33
4.7817264e-34
3.0940103e-35
9.3686536e-36
1.6486377e-35
5.3632214e-36
9.4810031e-37
4.9155416e-37
1.5902555e-37
3.8048239e-38
8.5116027e-39
1.2946609e-39
6.6558694e-41
1.0985296e-42
9.1458511e-45
5.3132631e-47
2.3817665e-49
8.8753386e-52
3.0437262e-54
1.0614454e-56
3.9385824e-59
1.4284863e-61
7.437147e-64
5.5513024e-62
6.9153808e-60
1.0863739e-57
1.4511889e-55
1.745289e-53
1.9545734e-51
2.1436019e-49
2.4630356e-47
3.4057613e-45
6.3682563e-43
1.3725167e-40
9.1701246e-39
9.345365e-38
4.6669242e-37
1.6923237e-36
4.4253571e-36
8.3920129e-36
3.2225389e-35
1.4814606e-34
2.0861432e-34
9.3867793e-35
3.0883095e-34
5.795641e-33
1.3442359e-31
7.8636687e-31
1.8360583e-29
5.1615862e-27
6.3318077e-25
7.8758918e-23
3.9151644e-20
1.1051779e-18
4.5545142e-17
4.4407915e-16
1.2938068e-14
6.6342989e-12
9.71222e-10
3.7367495e-09
1.0341528e-09
1.7186711e-11
6.0220459e-12
5.2291295e-15
1.5687526e-14
4.1123531e-14
2.5981093e-14
7.0349166e-14
8.840289e-14
1.9723586e-13
2.8514889e-13
2.6548399e-13
1.520541e-13
1.0656519e-13
1.7512352e-13
1.4421369e-13
9.2260132e-14
5.9625885e-14
3.3698002e-14
1.0479699e-14
6.6063958e-15
4.891996e-15
4.8199471e-15
3.7290533e-13
9.4487617e-11
3.3189879e-10
1.3868245e-10
4.5400752e-14
1.6681768e-15
4.3081917e-17
7.8893706e-19
9.0329116e-19
3.4177106e-19
1.9838462e-20
1.4913424e-23
6.1275152e-28
1.183876e-27
5.362932e-28
1.162325e-28
1.1506603e-29
8.7242956e-31
4.2215534e-32
2.6805446e-33
8.036549e-34
1.4030425e-33
4.8691594e-34
9.1421822e-35
3.838227e-35
1.2328019e-35
2.913734e-36
6.446233e-37
1.0250181e-37
5.4560689e-39
8.9721851e-41
7.2782604e-43
4.1267341e-45
1.8082106e-47
6.5586101e-50
2.1628704e-52
7.119202e-55
2.4700114e-57
8.4616547e-60
4.0746855e-62
3.0170408e-60
3.932144e-58
6.2762323e-56
8.5430848e-54
1.0500082e-51
1.2070691e-49
1.3696164e-47
1.6546094e-45
2.4597999e-43
4.9562135e-41
1.1180965e-38
7.4105177e-37
7.1398059e-36
3.4592467e-35
1.2413943e-34
3.245599e-34
6.8023312e-34
2.7355019e-33
1.2070451e-32
1.5334692e-32
7.5242576e-33
3.0439544e-32
5.2253724e-31
1.3327567e-29
1.1409839e-28
1.2899388e-27
5.0961279e-25
1.3765951e-22
8.6124793e-20
2.4952086e-18
4.3628818e-17
2.0646512e-15
5.5778699e-14
1.9078972e-12
4.6816268e-10
6.5415312e-08
2.7040269e-07
1.2897917e-06
5.9439396e-10
8.3358872e-11
5.5377544e-15
7.9943215e-14
1.4201634e-12
1.0479602e-12
6.2637813e-13
1.3928258e-12
2.9937728e-13
2.4928329e-13
1.1312028e-13
1.1312028e-13
1.4932745e-13
1.4653913e-13
1.7322958e-13
1.9201834e-13
1.6790335e-13
8.59207e-14
2.4392681e-14
7.8027848e-15
5.0751253e-15
6.3696602e-15
2.8669272e-11
7.0137804e-09
1.19509e-08
1.4059399e-08
8.2712639e-12
3.7356684e-13
9.5904972e-14
2.4923472e-13
1.4714555e-14
2.1734958e-17
7.1008447e-19
2.5348313e-22
1.7331524e-25
1.2937154e-25
6.115544e-26
1.260876e-26
1.1389506e-27
7.1601656e-29
3.2587736e-30
2.1244262e-31
6.3640701e-32
1.1076676e-31
3.9873152e-32
7.7784392e-33
2.7662783e-33
8.7638005e-34
2.0472309e-34
4.4900336e-35
7.4564795e-36
4.1231357e-37
6.8206742e-39
5.4227067e-41
3.0122463e-43
1.294229e-45
4.5837786e-48
1.4588501e-50
4.545097e-53
1.4724102e-55
4.7415721e-58
2.0968548e-60
1.5423849e-58
2.1063455e-56
3.4145298e-54
4.7336138e-52
5.9416992e-50
7.0071837e-48
8.2258147e-46
1.0460848e-43
1.6721768e-41
3.6112994e-39
8.4427897e-37
5.5129749e-35
5.0393429e-34
2.3703002e-33
8.4302159e-33
2.2094542e-32
5.0836483e-32
2.1278023e-31
9.0533536e-31
1.0458289e-30
5.4520991e-31
2.5907353e-30
4.3539949e-29
1.1417593e-27
1.5359355e-26
3.4443197e-26
1.0465718e-23
1.2243679e-20
1.2737832e-17
1.6970196e-16
2.6352596e-15
1.3382723e-13
3.7023678e-12
1.1915243e-10
2.609824e-08
1.3841901e-06
3.1292419e-05
5.6017071e-05
4.9842947e-06
1.1033826e-13
8.6848e-15
1.1034875e-13
2.5061309e-10
3.2914122e-09
3.2888e-11
6.936091e-11
4.0971498e-12
3.1758989e-13
2.1053605e-13
6.1991759e-14
6.0100302e-15
-2.2566528e-13
-7.323893e-14
6.661465e-14
2.4672208e-13
1.6399046e-13
3.4509695e-14
9.2329247e-12
6.3696602e-15
6.3606066e-14
6.4812259e-07
1.0879042e-05
1.0500922e-05
5.4208498e-06
8.0813065e-07
7.2634514e-11
3.0158113e-12
3.6965182e-13
1.6894157e-14
2.3196793e-16
1.6590422e-17
7.3780338e-19
5.1024025e-23
1.784007e-23
5.7163324e-24
1.2503218e-24
9.7589345e-26
4.3690593e-27
2.4058696e-28
1.4351525e-29
4.5490487e-30
8.074235e-30
2.9517247e-30
5.9178343e-31
1.8371975e-31
5.7300209e-32
1.3243124e-32
2.8862477e-33
5.0134924e-34
2.8944914e-35
4.8592452e-37
3.803056e-39
2.075674e-41
8.7685339e-44
3.0412052e-46
9.3748496e-49
2.7742363e-51
8.3887768e-54
2.527457e-56
1.0178263e-58
7.4365201e-57
1.0658979e-54
1.7541326e-52
2.4753114e-50
3.1709033e-48
3.8343636e-46
4.6587552e-44
6.2487472e-42
1.074601e-39
2.4760094e-37
5.9506856e-35