/*--------------------------------*- C++ -*----------------------------------*\
  =========                 |
  \\      /  F ield         | OpenFOAM: The Open Source CFD Toolbox
   \\    /   O peration     | Website:  https://openfoam.org
    \\  /    A nd           | Version:  9
     \\/     M anipulation  |
\*---------------------------------------------------------------------------*/
FoamFile
{
    format      ascii;
    class       volScalarField;
    location    "0.34";
    object      p;
}
// * * * * * * * * * * * * * * * * * * * * * * * * * * * * * * * * * * * * * //

dimensions      [1 -1 -2 0 0 0 0];

internalField   nonuniform List<scalar> 
10000
(
0
0.042629703
0.10971658
0.19565684
0.30402483
0.43461565
0.58708788
0.76140866
0.95747838
1.1751801
1.4149066
1.6766863
1.958804
2.2591614
2.5811277
2.9205212
3.2648995
3.6191232
3.9840284
4.3518731
4.7325835
5.1312913
5.5425236
5.9647038
6.3955078
6.8327569
7.2743572
7.7182242
8.1621852
8.6040184
9.0413069
9.470751
9.8908493
10.300227
10.696979
11.078906
11.443611
11.78877
12.113789
12.417306
12.698541
12.955981
13.187467
13.391608
13.567358
13.713911
13.829886
13.913602
13.964114
13.98099
13.964023
13.913447
13.829757
13.713669
13.565965
13.387717
13.179994
12.943676
12.679374
12.388724
12.073729
11.735847
11.376982
10.998843
10.603449
10.192447
9.7676994
9.3307357
8.8831319
8.4266983
7.9648032
7.4997294
7.033863
6.5692289
6.1080356
5.6524345
5.2046463
4.767007
4.3421924
3.9335734
3.5380981
3.1476297
2.7688543
2.3923486
2.0316881
1.6888103
1.365796
1.0639984
0.78364673
0.52482414
0.28759385
0.072082907
-0.12160613
-0.29339214
-0.44319744
-0.57096582
-0.67649327
-0.7598291
-0.82372869
-0.86281513
-0.045006232
-0.0025124098
0.064375828
0.14996022
0.25789149
0.38788407
0.53967642
0.71304418
0.90786172
1.1238394
1.3610917
1.6217049
1.9022568
2.1952563
2.5079343
2.8380105
3.1892946
3.5512382
3.9213391
4.3000227
4.6909035
5.095603
5.5122058
5.9391565
6.3745198
6.8162998
7.2624687
7.7109545
8.159583
8.6060879
9.0481523
9.4833197
9.9096453
10.325225
10.728144
11.116539
11.488115
11.838881
12.168945
12.477495
12.764655
13.026632
13.261684
13.468251
13.645517
13.793775
13.911875
13.996404
14.046931
14.063286
14.045517
13.993858
13.908776
13.790996
13.640951
13.459703
13.249017
13.009613
12.74067
12.445115
12.124923
11.782024
11.41801
11.034617
10.633601
10.216833
9.7861274
9.3434304
8.8905732
8.4296615
7.9631776
7.4935888
7.0230896
6.5540136
6.0884276
5.628459
5.1761965
4.7336626
4.3027386
3.8849457
3.4794125
3.0830205
2.6933593
2.3244199
1.9738406
1.6350829
1.3145897
1.0152459
0.73666352
0.47907495
0.24276377
0.027974349
-0.16511684
-0.33638431
-0.48572147
-0.61306273
-0.71823233
-0.80123408
-0.86479984
-0.90364458
-0.11331401
-0.070965724
-0.0043108581
0.081098577
0.18873094
0.31842443
0.4698318
0.64280316
0.83697607
1.051573
1.2846337
1.5448832
1.8213293
2.1222771
2.4382491
2.7709104
3.1207134
3.4841062
3.8591784
4.2458062
4.6445538
5.0558235
5.4785877
5.9114389
6.352631
6.8003192
7.2525754
7.707315
8.1623549
8.6155122
9.0645502
9.5071661
9.9412314
10.364835
10.77613
11.173598
11.556636
11.916337
12.258401
12.578643
12.872666
13.140626
13.381402
13.593529
13.775132
13.923657
14.038204
14.120393
14.16923
14.184199
14.164873
14.111338
14.023816
13.903017
13.749619
13.564439
13.349549
13.107163
12.830939
12.528379
12.201716
11.852023
11.480984
11.09035
10.68194
10.257597
9.8193286
9.3691042
8.9089882
8.4411969
7.9680988
7.4919762
7.0151339
6.5398011
6.0681624
5.6022889
5.144176
4.695658
4.2583351
3.8331976
3.4203645
3.0192873
2.6303397
2.2573986
1.8991307
1.5624556
1.2432421
0.94605559
0.6683766
0.41124905
0.17527612
-0.039189768
-0.23194451
-0.40285501
-0.55182635
-0.67877987
-0.78359335
-0.86626338
-0.92947779
-0.96799164
-0.19989612
-0.15780789
-0.091375967
-0.0060911779
0.10150922
0.2311811
0.38278987
0.55630379
0.75177083
0.96905157
1.2079807
1.4611101
1.7377767
2.0361561
2.3528215
2.6870992
3.0383216
3.4047411
3.7850301
4.1784731
4.5847905
5.0035539
5.4338054
5.8741737
6.3230535
6.7786742
7.2390869
7.7021992
8.1658742
8.6279344
9.0861058
9.5380749
9.9816376
10.414665
10.834917
11.23993
11.626722
12.000689
12.351689
12.679097
12.981085
13.256218
13.503069
13.720134
13.905851
14.058492
14.177162
14.261738
14.311827
14.327049
14.307086
14.252048
14.162164
14.037906
13.880165
13.689843
13.466794
13.211576
12.93341
12.627673
12.295379
11.938705
11.559937
11.160942
10.743724
10.310269
9.8626795
9.4031103
8.9337365
8.456814
7.9747287
7.4898336
7.0044073
6.5207158
6.0409629
5.5672226
5.1014613
4.6454476
4.200668
3.7682636
3.3488996
2.9430776
2.5517034
2.1766553
1.8186861
1.4806312
1.1635037
0.86320258
0.58376547
0.32580647
0.089439102
-0.12516456
-0.31786902
-0.4886018
-0.63732958
-0.76398461
-0.86846032
-0.9508036
-1.0136282
-1.0517572
-0.30944809
-0.26772165
-0.20172589
-0.11666837
-0.0093308779
0.12014101
0.27156666
0.44484268
0.63988174
0.85681073
1.0951112
1.3524142
1.6306675
1.9298108
2.24838
2.5853762
2.939885
3.3107674
3.696966
4.0975907
4.5119436
4.9392334
5.3783445
5.8278992
6.2863394
6.7518727
7.2225293
7.6962319
8.170845
8.6441297
9.1137456
9.5773431
10.032677
10.477515
10.909512
11.326407
11.726395
12.108654
12.469272
12.806056
13.117058
13.400533
13.654833
13.87835
14.069543
14.227001
14.34972
14.437144
14.488767
14.504345
14.483669
14.426884
14.334283
14.206312
14.043849
13.84788
13.619172
13.359379
13.071688
12.756388
12.414788
12.048724
11.659859
11.250238
10.821966
10.377185
9.918047
9.4468083
8.9658006
8.477353
7.9838789
7.4878084
6.9914879
6.4972263
6.0072612
5.5236985
5.0485039
4.5834486
4.1300765
3.6896564
3.2631916
2.8515872
2.4558751
2.07728
1.7169183
1.376194
1.0555727
0.75473524
0.47512467
0.21686941
-0.019681839
-0.23431793
-0.42690964
-0.5974204
-0.74584193
-0.87212685
-0.9761844
-1.058093
-1.1204298
-1.1580658
-0.44062821
-0.39936986
-0.33380733
-0.24907053
-0.14195487
-0.012633623
0.13873106
0.31211946
0.50746366
0.72468053
0.96344965
1.2231381
1.5028805
1.8042059
2.1255423
2.4660863
2.825024
3.2014277
3.5943309
4.0028269
4.4260358
4.8629146
5.3122362
5.7726024
6.2424043
6.7197991
7.2027896
7.6893022
8.1771305
8.6639412
9.1473349
9.6248992
10.094332
10.553245
10.999214
11.43019
11.843694
12.237994
12.610352
12.958421
13.280116
13.573502
13.836757
14.068175
14.266187
14.429412
14.556751
14.64747
14.701031
14.717276
14.695826
14.636933
14.540998
14.408594
14.240632
14.038176
13.802386
13.534872
13.237604
12.911881
12.559298
12.181598
11.780514
11.358205
10.916765
10.458418
9.9854545
9.5002274
9.0051785
8.5027515
7.9954582
7.4858163
6.9762687
6.469196
5.9668894
5.4715298
4.9851245
4.5095174
4.0463169
3.5969096
3.1624706
2.7441033
2.342844
1.9597423
1.5957879
1.2519154
0.92863929
0.6262805
0.34542781
0.0863915
-0.15061045
-0.36544104
-0.55800938
-0.72832001
-0.8764135
-1.0022798
-1.1058726
-1.1872889
-1.2490692
-1.2861304
-0.59361359
-0.55286511
-0.48786201
-0.40346125
-0.29663122
-0.16750675
-0.016138416
0.15737188
0.35308958
0.57094889
0.81072976
1.0721173
1.3548929
1.6584527
1.9832759
2.3281847
2.6924742
3.0753093
3.4758194
3.8931053
4.3261472
4.7737919
5.2347575
5.7075746
6.1905491
6.6817778
7.1792513
7.6808253
8.1841803
8.6868828
9.1864714
9.680457
10.166339
10.641614
11.103792
11.55077
11.979913
12.388901
12.775267
13.136666
13.470909
13.775921
14.049741
14.290553
14.496691
14.666712
14.799418
14.893927
14.949636
14.966915
14.944435
14.883049
14.783198
14.645561
14.471141
14.261086
14.016722
13.739572
13.431442
13.093895
12.728584
12.337398
11.92217
11.485048
11.028258
10.554055
10.064874
9.5631998
9.0515985
8.5326671
8.009047
7.4833513
6.9581559
6.435959
5.919143
5.4099781
4.9105612
4.4227985
3.948397
3.4888513
3.0454003
2.619226
2.2113741
1.8228125
1.4543842
1.1068193
0.78063844
0.47620106
0.19384934
-0.066190257
-0.30377633
-0.51884729
-0.71140366
-0.88148945
-1.0292086
-1.1546193
-1.2576769
-1.3384972
-1.3996277
-1.4360096
-0.76837799
-0.72831626
-0.66390297
-0.57993384
-0.47349348
-0.34459787
-0.19331798
-0.019647669
0.17653037
0.39518955
0.63622901
0.89953939
1.1849645
1.4922542
1.8207482
2.1706788
2.5410738
2.931189
3.3402327
3.7672719
4.2112409
4.6709463
5.1450538
5.6320062
6.1300031
6.6371254
7.1512897
7.6702284
8.1915098
8.7126105
9.2309357
9.743857
10.248698
10.74275
11.223648
11.68895
12.135905
12.561938
12.964587
13.341456
13.690243
14.008748
14.294889
14.546687
14.762325
14.940234
15.079151
15.178083
15.236385
15.254408
15.230805
15.166523
15.062105
14.918372
14.736409
14.517459
14.263023
13.974649
13.654104
13.30312
12.923364
12.51676
12.085325
11.631303
11.156842
10.66437
10.156447
9.6357417
9.1049439
8.5668335
8.0242302
7.4798881
6.9365286
6.3968012
5.8632256
5.3381794
4.8238577
4.3222482
3.8351556
3.3642875
2.9106998
2.4756938
2.0603219
1.665473
1.2918977
0.94018322
0.6107566
0.3039023
0.019829467
-0.24133993
-0.47956719
-0.69488283
-0.88737484
-1.0571529
-1.2043854
-1.3291832
-1.431573
-1.5116985
-1.5720534
-1.6076664
-0.96499327
-0.92570015
-0.86201885
-0.7786176
-0.67264204
-0.5441094
-0.3930249
-0.21921841
-0.022606498
0.19688633
0.43932196
0.70469658
0.99293058
1.3039001
1.6373683
1.9924529
2.3696339
2.7678311
3.186296
3.6240825
4.080144
4.5532802
5.0420725
5.5448665
6.059836
6.5849802
7.118113
7.6568129
8.1985526
8.7406873
9.2804232
9.8149431
10.341352
10.856799
11.358567
11.844932
12.31218
12.757678
13.178962
13.573585
13.939094
14.273127
14.573452
14.837943
15.064571
15.251591
15.397655
15.501669
15.562956
15.581507
15.55663
15.488968
15.379228
15.228364
15.037636
14.808426
14.542376
14.241182
13.906579
13.540379
13.144416
12.720464
12.270485
11.797482
11.302957
10.789646
10.260318
9.7178239
9.1650145
8.6049158
8.0405294
7.4747977
6.9106307
6.3508631
5.7981769
5.2550757
4.7238715
4.2066452
3.7051738
3.2220207
2.7569673
2.312126
1.8884047
1.4865952
1.1073253
0.75106347
0.41812808
0.10868378
-0.17719551
-0.43950561
-0.678319
-0.89378089
-1.0861076
-1.2554345
-1.4020394
-1.5260797
-1.6276353
-1.7069345
-1.7663903
-1.8010941
-1.1834292
-1.145076
-1.0822891
-0.99957536
-0.89425625
-0.76624806
-0.61542867
-0.44168535
-0.24477518
-0.024485124
0.21934242
0.48679994
0.77795193
1.0927901
1.4311692
1.7927796
2.1768887
2.5838476
3.0125688
3.4621317
3.9315094
4.4194665
4.9245106
5.4449383
5.9788912
6.5242674
7.0787249
7.6397311
8.2046167
8.7705608
9.3345626
9.8935209
10.444333
10.983871
11.508884
12.019217
12.509321
12.976774
13.419121
13.833869
14.21844
14.570236
14.886817
15.165869
15.405127
15.602619
15.756856
15.866632
15.931205
15.950391
15.923893
15.852218
15.736233
15.577061
15.376185
15.13523
14.855931
14.540175
14.189813
13.806628
13.392551
12.949467
12.479534
11.984314
11.467091
10.930232
10.376665
9.8093995
9.2316117
8.6465274
8.0573644
7.46732
6.8795333
6.2970518
5.722749
5.1593086
4.6091882
4.0746088
3.5575276
3.0598072
2.5825059
2.1269796
1.6941833
1.2848319
0.89945613
0.53838325
0.20178571
-0.1103092
-0.39794975
-0.66130755
-0.90058827
-1.1159935
-1.3079008
-1.4765495
-1.6222692
-1.7453347
-1.8458869
-1.9241664
-1.9825907
-2.0162472
-1.4237285
-1.3864784
-1.3247174
-1.2429343
-1.1384975
-1.0112076
-0.86088034
-0.68746032
-0.49043383
-0.26951519
-0.024450209
0.24501361
0.53908024
0.85784684
1.2013193
1.569408
1.9618587
2.3776783
2.8174695
3.2798334
3.7637365
4.2679063
4.7908359
5.3307878
5.8858181
6.4537005
7.0319648
7.617966
8.2088386
8.8015453
9.3928531
9.9793639
10.557756
11.124498
11.676002
12.212669
12.728067
13.219893
13.685742
14.123092
14.529229
14.901291
15.236508
15.532227
15.785934
15.995415
16.158955
16.275233
16.343474
16.363386
16.334772
16.258306
16.134996
15.96619
15.75358
15.499142
15.204826
14.872682
14.504712
14.102768
13.66864
13.204158
12.711293
12.192236
11.649665
11.086439
10.505594
9.9104458
9.3044679
8.6911664
8.0740343
7.4565453
6.8421189
6.2340733
5.6355144
5.0493202
4.4781012
3.9242472
3.3897871
2.8764821
2.3856878
1.9185786
1.476054
1.058703
0.6669251
0.30089996
-0.039364955
-0.35401377
-0.64322726
-0.90736897
-1.1468039
-1.361888
-1.5530508
-1.7207086
-1.8652717
-1.987064
-2.0863477
-2.1634249
-2.2206279
-2.2530986
-1.6858767
-1.6498685
-1.5893788
-1.5087704
-1.4054687
-1.2792461
-1.1298417
-0.95694311
-0.76009318
-0.53886636
-0.29283185
-0.021579141
0.27522293
0.59784183
0.94648202
1.3212123
1.7218818
2.1481316
2.5992591
3.0753724
3.5749571
4.0967518
4.639259
5.2006998
5.7789766
6.3717563
6.9764583
7.5902877
8.2101603
8.8327655
9.4546291
10.0721
10.681461
11.278995
11.860625
12.425879
12.968914
13.487545
13.979416
14.441994
14.872466
15.267613
15.624158
15.938963
16.209213
16.432397
16.60653
16.730133
16.802402
16.822971
16.791772
16.709589
16.577617
16.397569
16.171433
15.901511
15.590201
15.239764
14.852272
14.429671
13.973639
13.485722
12.967752
12.421964
11.851312
11.258586
10.647218
10.020835
9.3831972
8.7381628
8.089586
7.4412733
6.7969956
6.1603446
5.5347026
4.923181
4.3285626
3.7535107
3.1999527
2.6698063
2.1644685
1.6850067
1.2322146
0.80655583
0.40826235
0.037327768
-0.30643892
-0.62336788
-0.91383585
-1.1783803
-1.4175064
-1.6318099
-1.8218075
-1.9880508
-2.1310685
-2.2512812
-2.3489852
-2.424615
-2.4804031
-2.5115395
-1.9697877
-1.9352658
-1.8762667
-1.7970883
-1.6952905
-1.5705408
-1.4225079
-1.2504945
-1.0542962
-0.83321079
-0.58663328
-0.31400985
-0.01481654
0.3114398
0.66514821
1.0465321
1.4556396
1.8923436
2.3562174
2.8466635
3.3630537
3.9039145
4.4677284
5.0526365
5.6564107
6.2766176
6.9105352
7.5551705
8.2072178
8.8631018
9.5190276
10.171041
10.81508
11.447255
12.064887
12.659083
13.232027
13.780014
14.300504
14.791181
15.249142
15.670603
16.051581
16.388343
16.677578
16.916408
17.102567
17.234418
17.311047
17.332147
17.297729
17.208717
17.06654
16.873239
16.631388
16.343734
16.013161
15.642313
15.233396
14.788307
14.308515
13.795245
13.24986
12.674469
12.072499
11.447003
10.80158
10.140256
9.4671894
8.7866261
8.1028607
7.4201135
6.7425099
6.0739692
5.4182091
4.7786291
4.1582756
3.5598567
2.9855793
2.4373073
1.9164565
1.4239839
0.96054037
0.52643236
0.1216837
-0.25392959
-0.60080868
-0.91950966
-1.2107113
-1.4750668
-1.713302
-1.9262097
-2.1144668
-2.2787964
-2.4197871
-2.5379829
-2.6337768
-2.7076453
-2.7618028
-2.7914458
-2.2754045
-2.242567
-2.1853018
-2.1079189
-2.0080269
-1.8851522
-1.738862
-1.5684545
-1.3735653
-1.1532465
-0.90676984
-0.63337999
-0.33230719
-0.0028412783
0.35560387
0.74348427
1.1610992
1.6085166
2.0854925
2.5914552
3.1255939
3.6869803
4.2738332
4.8842255
5.5158502
6.166135
6.8321717
7.5107401
8.1983139
8.8910702
9.5848841
10.275273
10.957562
11.627066
12.278877
12.910279
13.517031
14.097107
14.648931
15.170941
15.660115
16.111804
16.520978
16.883062
17.194054
17.450705
17.650499
17.791646
17.873096
17.894474
17.855966
17.758681
17.604385
17.395495
17.135246
16.827168
16.474717
16.081035
15.648674
15.179458
14.674428
14.134008
13.558599
12.950029
12.313725
11.651826
10.968458
10.268187
9.5556211
8.8354483
8.1124543
7.391339
6.6766179
5.9726268
5.2834846
4.6129084
3.9643222
3.3404869
2.7438299
2.1761947
1.638963
1.1329732
0.65868663
0.21621483
-0.19466885
-0.57447715
-0.92386485
-1.2436329
-1.5347538
-1.7981333
-2.0347239
-2.2454906
-2.4312963
-2.5930213
-2.7314232
-2.8471098
-2.9405602
-3.0123342
-3.064607
-3.0926009
-2.6025492
-2.5716041
-2.5164139
-2.4412116
-2.3436717
-2.2232517
-2.079436
-1.9114701
-1.7184784
-1.4997301
-1.2541882
-0.98082529
-0.67862971
-0.3466563
0.015962162
0.40998157
0.83595254
1.2941465
1.7845336
2.3067683
2.8599438
3.4431413
4.0547303
4.692724
5.3546625
6.0377688
6.7389333
7.4547083
8.1813746
8.9148517
9.6506219
10.383664
11.108549
11.819637
12.511649
13.181385
13.824274
14.43846
15.024035
15.581049
16.105992
16.592821
17.034863
17.426247
17.762173
18.03907
18.254221
18.405696
18.492437
18.513958
18.470428
18.363102
18.194194
17.966812
17.684915
17.353031
16.975577
16.556412
16.098506
15.603681
15.072311
14.503354
13.895445
13.248643
12.575284
11.872745
11.147152
10.403628
9.647176
8.883038
8.1165024
7.3527493
6.5967911
5.8535138
5.1274864
4.422842
3.7433215
3.0919702
2.4712918
1.8831387
1.3288081
0.8090219
0.32398572
-0.12647755
-0.54290765
-0.92612148
-1.2770837
-1.596928
-1.8869818
-2.1483508
-2.3822843
-2.5899587
-2.7724748
-2.9308201
-3.0659242
-3.1785373
-3.269156
-3.3384467
-3.3885503
-3.414726
-2.950988
-2.9221995
-2.8694002
-2.7967909
-2.7021742
-2.5848996
-2.4443224
-2.2795764
-2.0894907
-1.8733757
-1.6298203
-1.357553
-1.0553017
-0.72180024
-0.3558285
0.043683148
0.47756283
0.94636831
1.4503639
1.9894183
2.5628998
3.1691939
3.8070943
4.4749612
5.1697854
5.8885419
6.6279292
7.3842914
8.1537395
8.9319594
9.7140454
10.494445
11.266803
12.023981
12.757857
13.471437
14.152972
14.802861
15.424069
16.020248
16.586903
17.11547
17.596417
18.021796
18.386187
18.68597
18.918353
19.081258
19.173669
19.195044
19.145478
19.026184
18.839715
18.590079
18.282388
17.922476
17.516117
17.068306
16.582691
16.061164
15.503144
14.905182
14.263118
13.58108
12.857918
12.10873
11.336158
10.544828
9.7399767
8.9272873
8.1125714
7.3015671
6.499959
5.7132407
4.9465498
4.2045491
3.4913277
2.8102388
2.1639365
1.5542662
0.98236568
0.44876945
-0.046630943
-0.50438962
-0.92541412
-1.3108858
-1.6621889
-1.9809258
-2.2684614
-2.5265042
-2.7565368
-2.9599728
-3.1381087
-3.292151
-3.4231592
-3.5319969
-3.6192552
-3.6856496
-3.733274
-3.7574729
-3.320443
-3.2940023
-3.2439257
-3.1744281
-3.0833867
-2.9700206
-2.8335893
-2.6730998
-2.4872921
-2.274865
-2.0346317
-1.7648627
-1.4639347
-1.1301925
-0.76204409
-0.35806794
0.082943877
0.56194306
1.0795235
1.6357892
2.230288
2.8620622
3.5268898
4.2273218
4.9576827
5.7149893
6.4957581
7.2961222
8.1119755
8.9388926
9.7718718
10.604788
11.430046
12.239319
13.018812
13.779294
14.500251
15.188568
15.84518
16.486085
17.10286
17.682344
18.209937
18.674743
19.071332
19.39665
19.648113
19.823698
19.922267
19.943121
19.88622
19.752735
19.545247
19.268645
18.929755
18.536452
18.096357
17.616015
17.100302
16.551529
15.967691
15.340342
14.657075
13.924153
13.153278
12.35486
11.531844
10.688894
9.8312462
8.9652833
8.0975475
7.2344801
6.3824551
5.5477384
4.736229
3.9532877
3.2034823
2.490492
1.8171021
1.1851256
0.59548387
0.048393023
-0.45659411
-0.92048171
-1.3446873
-1.7308413
-2.0808037
-2.3966096
-2.6800821
-2.9332204
-3.1578456
-3.3556911
-3.5282395
-3.6768843
-3.8028475
-3.9071212
-3.9903943
-4.0534505
-4.0982891
-4.1203797
-3.710461
-3.6865367
-3.6395885
-3.573758
-3.4869902
-3.3784271
-3.247235
-3.0922515
-2.9120306
-2.7047309
-2.469611
-2.2040743
-1.9061951
-1.5739175
-1.2052331
-0.79825045
-0.35125434
0.13717394
0.66799904
1.241598
1.8576764
2.5151468
3.2117518
3.9459926
4.7142973
5.5131208
6.3384599
7.186132
8.0518164
8.9310723
9.8192828
10.710303
11.594772
12.465327
13.30444
14.10584
14.866041
15.59574
16.280928
16.973655
17.653094
18.296828
18.881347
19.391663
19.823763
20.176582
20.448795
20.638127
20.743602
20.764086
20.698923
20.54874
20.315992
20.006486
19.629437
19.195687
18.715475
18.197499
17.648593
17.07228
16.466339
15.814499
15.075985
14.281499
13.456195
12.606128
11.729783
10.831742
9.9170798
8.9931687
8.0676222
7.1474024
6.2397418
5.3519966
4.4911665
3.6634466
2.8740258
2.1269811
1.4251772
0.77036597
0.16322023
-0.39650236
-0.90975729
-1.3780988
-1.8035356
-2.1882796
-2.5347836
-2.8455284
-3.1228614
-3.3691551
-3.5865876
-3.7771878
-3.9427021
-4.08472
-4.2045786
-4.3034118
-4.3820077
-4.4412127
-4.4829653
-4.502825
-4.1204751
-4.0992466
-4.055807
-3.9942129
-3.9125204
-3.8097905
-3.6850599
-3.5370153
-3.3640877
-3.1645429
-2.9357972
-2.6764819
-2.3838279
-2.0552504
-1.6881959
-1.2801584
-0.82881656
-0.33220026
0.21114213
0.80199519
1.4403413
2.1252424
2.8547086
3.6259379
4.4347506
5.2784017
6.1515929
7.0496487
7.9680316
8.902303
9.8484734
10.801319
11.748243
12.688303
13.614468
14.440915
15.208074
15.971011
16.710105
17.471493
18.236917
18.964766
19.620245
20.182463
20.652156
21.033051
21.327273
21.53111
21.643792
21.664524
21.591115
21.42188
21.158502
20.808088
20.383598
19.900317
19.37173
18.809097
18.222485
17.618472
16.99887
16.333536
15.51016
14.63076
13.744083
12.846191
11.918541
10.965808
9.9916672
9.0061063
8.0181485
7.0353393
6.0663567
5.1199652
4.2048846
3.3281896
2.4959418
1.7127002
0.98144431
0.30375049
-0.32012131
-0.89100532
-1.4105327
-1.880942
-2.3049703
-2.6856022
-3.0259791
-3.3289854
-3.5976527
-3.8347584
-4.0428775
-4.2243461
-4.3811688
-4.515118
-4.6277188
-4.720167
-4.7933505
-4.8481489
-4.8864884
-4.9040627
-4.5498085
-4.5313534
-4.4917754
-4.4350543
-4.3593237
-4.2635366
-4.1466261
-4.0071581
-3.8433589
-3.6531088
-3.4336658
-3.1832765
-2.8986463
-2.5766029
-2.2139419
-1.8074478
-1.354072
-0.85112415
-0.29647888
0.31121454
0.97229446
1.6859461
2.4502119
3.2622431
4.113153
5.0059317
5.9304098
6.8816358
7.854877
8.8454604
9.8509922
10.871114
11.883167
12.867384
13.817589
14.634245
15.398446
16.297967
17.098177
17.955095
18.853254
19.698523
20.44276
21.060384
21.564269
21.971045
22.28894
22.508
22.628142
22.651271
22.57151
22.381907
22.081498
21.679244
21.194598
20.649555
20.061358
19.444001
18.812016
18.173647
17.551187
16.823505
15.864112
14.883886
13.977964
13.061878
12.091864
11.085302
10.048741
8.9984568
7.9436316
6.8924861
5.8558
4.8443041
3.86926
2.9389256
2.0604616
1.2390793
0.47783671
-0.22212829
-0.86119517
-1.4409193
-1.9638356
-2.4330697
-2.8522133
-3.2253645
-3.5561087
-3.8481601
-4.1051513
-4.3303409
-4.5267041
-4.6968718
-4.8431367
-4.967432
-5.0714435
-5.1564651
-5.2234264
-5.2732754
-5.3078539
-5.3231189
-4.9975323
-4.981829
-4.9464881
-4.8953064
-4.8264571
-4.7388306
-4.6312999
-4.5022983
-4.34984
-4.171573
-3.964791
-3.7257328
-3.452488
-3.1404466
-2.7857048
-2.3842194
-1.9319819
-1.4253358
-0.86125668
-0.23765562
0.44629024
1.18993
1.9909447
2.8453123
3.7469245
4.6911053
5.6701958
6.6771856
7.706281
8.7519628
9.8127469
10.888538
11.923288
12.884701
13.861188
14.787422
16.66165
18.882199
17.563875
18.452671
19.514438
20.522445
21.374973
22.044488
22.57515
22.995756
23.33748
23.572813
23.701338
23.73034
23.650209
23.441668
23.096204
22.626479
22.065034
21.442825
20.780463
20.091241
19.39337
18.699173
18.099746
17.472863
16.198931
15.087423
14.024816
13.136364
12.199795
11.174763
10.080335
8.9640031
7.8385588
6.7125137
5.5996916
4.5161946
3.4742979
2.4849729
1.5568319
0.69572471
-0.095432685
-0.81617428
-1.4677946
-2.052924
-2.5752408
-3.0389663
-3.4485637
-3.8101086
-4.1270273
-4.4041852
-4.6458666
-4.855912
-5.0376876
-5.1941492
-5.3277697
-5.4406786
-5.5346545
-5.6111191
-5.6710086
-5.715307
-5.7458265
-5.7587773
-5.4623783
-5.4493844
-5.4186382
-5.3736617
-5.3126899
-5.2345865
-5.1381501
-5.0216716
-4.8829928
-4.7195506
-4.5283131
-4.305656
-4.0471274
-3.7492914
-3.4069739
-3.0150468
-2.5682147
-2.0615482
-1.490803
-0.8529026
-0.1462802
0.62870582
1.469444
2.3710183
3.3264404
4.3277717
5.366308
6.4324478
7.518203
8.6163444
9.7252202
10.845728
11.911589
12.951717
14.133137
15.687577
19.777912
20.888231
19.81663
18.902467
20.205229
21.460903
22.44902
23.158211
23.676203
24.081989
24.476592
24.73478
24.868674
24.908827
24.842724
24.622846
24.221031
23.654237
22.988471
22.273253
21.522615
20.736806
19.925149
19.141115
18.966708
18.564843
18.006467
16.100732
13.956216
13.01917
12.207403
11.213918
10.075292
8.8972654
7.6982339
6.4898598
5.2881062
4.1240706
3.0071657
1.9526643
0.97141754
0.069642321
-0.75027699
-1.488935
-2.1490048
-2.7345991
-3.2508951
-3.7036567
-4.0992893
-4.4424955
-4.7402336
-4.9977802
-5.2199587
-5.4111837
-5.5751654
-5.7151888
-5.8339108
-5.9335552
-6.0159797
-6.0826636
-6.1346048
-6.1727304
-6.1988362
-6.2094833
-5.9425601
-5.9323115
-5.9065433
-5.8685122
-5.816515
-5.7493763
-5.665835
-5.564111
-5.4419569
-5.2966275
-5.1247529
-4.9222345
-4.6840009
-4.4055479
-4.0813528
-3.7049617
-3.2692732
-2.7676667
-2.1942968
-1.5446596
-0.81607221
-0.0083673474
0.87560452
1.8298402
2.8452323
3.9105194
5.0153792
6.1456206
7.2905134
8.4404182
9.592734
10.751049
11.852018
12.944113
14.169817
16.632772
20.08948
20.619528
21.010345
19.217699
20.911175
22.536052
23.733732
24.502829
24.951298
25.278394
25.68428
25.97833
26.099134
26.169684
26.165421
25.958857
25.487895
24.776859
23.960913
23.132583
22.282201
21.373319
20.378999
19.455564
19.27118
18.483363
16.224242
14.556605
13.457491
12.725208
12.11785
11.189802
10.031555
8.7992985
7.5201454
6.2127715
4.9160602
3.6550401
2.451301
1.3240853
0.28639306
-0.65578471
-1.5015037
-2.2531577
-2.9154319
-3.4944833
-3.9974186
-4.4316957
-4.804903
-5.1241727
-5.3968131
-5.6292496
-5.827119
-5.9953387
-6.1380151
-6.2586255
-6.3600102
-6.4444279
-6.5137459
-6.5694296
-6.6124628
-6.6437703
-6.6650153
-6.6731841
-6.4356548
-6.4284814
-6.408229
-6.3779671
-6.336059
-6.2813379
-6.2125794
-6.128029
-6.0254108
-5.9018433
-5.7537055
-5.5765331
-5.3648765
-5.1115016
-4.8123653
-4.4595138
-4.0426278
-3.5530791
-2.9829617
-2.3256407
-1.5766818
-0.73488525
0.19681864
1.2108538
2.2953165
3.4349393
4.6140079
5.8180814
7.027227
8.231593
9.4257278
10.614443
11.737165
12.782534
13.864155
16.105634
20.001557
20.374245
19.573251
19.429027
21.681182
23.737846
25.200381
26.122828
26.268102
26.443091
27.124977
27.333402
27.372727
27.474575
27.594792
27.424819
26.836706
25.926494
25.077422
24.115836
23.064458
21.978829
20.753284
19.837978
19.71011
17.301241
15.496914
13.91367
12.878119
12.486117
12.058346
11.170518
9.986855
8.6896917
7.3151008
5.877924
4.4665128
3.0898573
1.7836074
0.574505
-0.5222121
-1.5021775
-2.3675933
-3.124205
-3.7795269
-4.3421817
-4.8220432
-5.2284659
-5.5704245
-5.8572385
-6.0973999
-6.2983222
-6.466397
-6.6069913
-6.7245286
-6.8225917
-6.9040838
-6.9712515
-7.0258585
-7.0693135
-7.10253
-7.1263358
-7.142269
-7.1476205
-6.9392584
-6.9356143
-6.921481
-6.8997839
-6.8690344
-6.8281916
-6.7761651
-6.7112972
-6.6313648
-6.533483
-6.4139524
-6.2680985
-6.0900756
-5.872567
-5.6029018
-5.28491
-4.8968785
-4.4290252
-3.8706112
-3.2118786
-2.4455816
-1.5686386
-0.58368911
0.49990138
1.6663016
2.8942788
4.15969
5.4558238
6.7365292
8.0011769
9.2411936
10.459778
11.607067
12.614667
13.623603
14.799578
17.528557
18.815913
17.903983
19.798988
22.353169
24.956029
27.893584
27.079786
27.460154
27.629283
28.865875
28.522658
28.689125
28.885025
29.199135
29.114147
28.305605
26.923552
25.743623
24.934449
23.879853
22.668488
21.411326
20.504241
20.375981
17.61899
15.748324
14.251795
13.279915
12.861569
12.300327
11.291526
10.014789
8.6019341
7.0774528
5.5003962
3.928302
2.4027886
0.97054363
-0.33205374
-1.4878711
-2.4978744
-3.3716296
-4.1204641
-4.7556666
-5.2881273
-5.7330657
-6.0990023
-6.3986071
-6.6429816
-6.8419412
-7.0039476
-7.1360299
-7.2439375
-7.3322663
-7.4045526
-7.463607
-7.5115186
-7.5499085
-7.5799724
-7.6025123
-7.6181636
-7.6283099
-7.6305163
-7.4509801
-7.4512851
-7.4437927
-7.4313726
-7.4127985
-7.3872477
-7.3538285
-7.3110854
-7.2570167
-7.1889428
-7.1032848
-6.9953349
-6.8590554
-6.68705
-6.4711743
-6.1894486
-5.8417762
-5.408681
-4.8743535
-4.2240112
-3.4459145
-2.5337168
-1.4888438
-0.32238137
0.94467468
2.283233
3.661286
5.0524534
6.4282228
7.7647957
9.0604198
10.322721
11.529123
12.619125
13.750046
15.111614
16.397886
17.354559
18.375493
19.979797
22.381993
28.345906
30.914378
26.807593
27.542947
29.37937
33.102376
48.170572
45.224317
32.116527
31.52537
31.617777
30.675915
28.64503
26.743383
25.788547
24.76432
23.422096
22.17351
20.626454
21.208278
18.319759
17.023451
15.711869
14.630971
13.936188
12.91123
11.630245
10.170313
8.5800189
6.8292064
5.0558192
3.2738857
1.5509112
-0.042075653
-1.4502085
-2.6571521
-3.6797895
-4.5423222
-5.2640569
-5.8609691
-6.3485529
-6.7382711
-7.0480584
-7.2915155
-7.4814654
-7.6291364
-7.7438802
-7.8332227
-7.903086
-7.9580022
-8.0012981
-8.0354845
-8.062321
-8.0830988
-8.0987632
-8.1098518
-8.1168219
-8.120736
-8.1194762
-7.9683112
-7.9728535
-7.972415
-7.9698876
-7.9643713
-7.9553237
-7.9421531
-7.9237898
-7.8986768
-7.864566
-7.8182269
-7.7551389
-7.669151
-7.5520947
-7.3931422
-7.1766231
-6.886706
-6.5074913
-6.0154868
-5.3888689
-4.6089002
-3.6634868
-2.5510474
-1.2838955
0.11006219
1.589491
3.107306
4.62096
6.1203904
7.5390887
8.900688
10.220297
11.504778
12.728947
13.992815
15.371044
16.605622
17.482558
18.161387
19.39369
21.719223
27.360681
27.268919
27.158867
25.704111
33.208551
39.867695
46.023394
50.753303
48.810564
35.273118
35.163716
33.846834
31.406807
30.728901
34.000372
29.133237
23.860806
23.075979
21.254967
21.900019
19.710269
18.760134
17.61814
16.412015
15.166963
13.730129
12.153691
10.453781
8.6272935
6.5784277
4.5343932
2.462052
0.46486653
-1.3427237
-2.8674252
-4.099171
-5.0978074
-5.9158102
-6.5805335
-7.1119183
-7.5274748
-7.843882
-8.0791257
-8.249961
-8.3714111
-8.4561748
-8.5144057
-8.5538195
-8.5801784
-8.5975866
-8.6089045
-8.6160206
-8.6202003
-8.6222494
-8.6227106
-8.6217951
-8.6196827
-8.6170534
-8.6120498
-8.4885842
-8.4975426
-8.5044585
-8.5122455
-8.5203821
-8.5287045
-8.5370783
-8.5450229
-8.5516491
-8.5554112
-8.5537845
-8.5428833
-8.5169591
-8.4677671
-8.3837352
-8.2490483
-8.0435676
-7.7435742
-7.3207515
-6.7420454
-5.977619
-5.005402
-3.8176069
-2.4262587
-0.86800542
0.7977402
2.5003465
4.1746656
5.8214742
7.3354455
8.7693112
10.149217
11.507974
12.839085
14.143112
15.376464
16.335757
17.662058
18.464717
18.835702
21.34666
25.985112
24.982884
27.330275
25.512868
45.44071
41.634896
48.128247
52.032214
46.646705
39.389796
39.40657
38.036378
36.57805
38.794517
53.143555
48.823451
28.323234
25.157395
23.283728
21.608882
21.101942
20.179888
19.370287
18.037447
16.375608
14.623881
12.790054
10.825087
8.6861962
6.3464906
3.9079273
1.4267021
-0.96406311
-3.0792989
-4.7344013
-5.9258609
-6.8242461
-7.5380747
-8.0975732
-8.5267019
-8.8411704
-9.0574594
-9.1947697
-9.2728913
-9.309297
-9.3180883
-9.3098271
-9.2919524
-9.269508
-9.2457178
-9.2224868
-9.2008662
-9.1812787
-9.163889
-9.1486556
-9.1354349
-9.1240211
-9.1146709
-9.1057425
-9.0090674
-9.0225307
-9.036895
-9.0551005
-9.0771073
-9.1032391
-9.1339634
-9.1695645
-9.2100636
-9.2549908
-9.3030441
-9.3516305
-9.3961841
-9.4293462
-9.4398237
-9.4113011
-9.3209929
-9.1374418
-8.8234076
-8.3312461
-7.6129899
-6.6287159
-5.3592816
-3.8129958
-2.0362498
-0.11504769
1.8408115
3.730958
5.5417286
7.1642209
8.6658681
10.08912
11.490135
12.9248
14.361183
15.643125
16.616411
17.437422
18.72276