/*--------------------------------*- C++ -*----------------------------------*\
  =========                 |
  \\      /  F ield         | OpenFOAM: The Open Source CFD Toolbox
   \\    /   O peration     | Website:  https://openfoam.org
    \\  /    A nd           | Version:  9
     \\/     M anipulation  |
\*---------------------------------------------------------------------------*/
FoamFile
{
    format      ascii;
    class       surfaceScalarField;
    location    "0.34";
    object      phi;
}
// * * * * * * * * * * * * * * * * * * * * * * * * * * * * * * * * * * * * * //

dimensions      [0 3 -1 0 0 0 0];

internalField   nonuniform List<scalar> 
19800
(
7.1988033e-05
-5.8392918e-05
6.3783094e-05
-5.7038753e-05
5.4845067e-05
-5.5724927e-05
4.4989228e-05
-5.3912697e-05
3.4033555e-05
-5.1601733e-05
2.1837501e-05
-4.8881424e-05
8.2354311e-06
-4.5732008e-05
-6.9192494e-06
-4.2090459e-05
-2.3788528e-05
-3.7959116e-05
-4.2514757e-05
-3.3326886e-05
-6.3264325e-05
-2.8147259e-05
-8.5912585e-05
-2.2687131e-05
-0.00011037175
-1.6876237e-05
-0.0001371204
-1.0176794e-05
-0.00016568537
-3.238737e-06
-0.0001943911
3.0777483e-06
-0.00022373327
1.1212958e-05
-0.00025391824
1.994334e-05
-0.00028359733
2.7775173e-05
-0.00031379571
3.4047834e-05
-0.00034571919
3.8622439e-05
-0.00037859718
4.1992637e-05
-0.00041209877
4.4748425e-05
-0.00044556444
4.640557e-05
-0.00047844264
4.7302003e-05
-0.00051017075
4.7353738e-05
-0.00054022455
4.6744142e-05
-0.00056814892
4.5702727e-05
-0.00059330802
4.4059794e-05
-0.00061499815
4.229616e-05
-0.00063179308
4.0487126e-05
-0.00064301746
3.8588355e-05
-0.00064900396
3.5954945e-05
-0.00064979222
3.3119762e-05
-0.00064524735
3.033253e-05
-0.00063511959
2.764517e-05
-0.00061921696
2.534112e-05
-0.00059766551
2.4136972e-05
-0.00057075682
2.5204645e-05
-0.00053822437
2.6456307e-05
-0.00049989828
2.8299596e-05
-0.00045578354
3.1752036e-05
-0.00040612907
3.6291307e-05
-0.0003514589
4.2133854e-05
-0.00029224993
4.8337628e-05
-0.0002290507
5.4599692e-05
-0.00016251895
6.0193471e-05
-9.3587541e-05
6.5165464e-05
-2.3391652e-05
6.9497272e-05
4.6986136e-05
7.276933e-05
0.0001166107
7.4912495e-05
0.00018468948
7.5918441e-05
0.00025027839
7.5753869e-05
0.00031233362
7.4697112e-05
0.00037006145
7.2602586e-05
0.00042258584
7.0347312e-05
0.00046944886
6.7411533e-05
0.00051006445
6.5048812e-05
0.00054421419
6.3089114e-05
0.00057189307
6.1236345e-05
0.00059265971
6.1424411e-05
0.0006071599
6.0800541e-05
0.00061508746
6.2194033e-05
0.00061724465
6.2704845e-05
0.00061340455
6.4830973e-05
0.0006042516
6.5689514e-05
0.00058957811
6.7286884e-05
0.00056982527
6.7638307e-05
0.00054450766
6.7736268e-05
0.00051451
6.7066645e-05
0.0004810261
6.6861774e-05
0.00044532645
6.5776485e-05
0.00040798786
6.4706085e-05
0.00036983714
6.2659569e-05
0.00033147002
6.0030636e-05
0.0002934855
5.6634879e-05
0.00025648619
5.244213e-05
0.00022106274
4.7424704e-05
0.00018778599
4.1533677e-05
0.00015765801
3.4495196e-05
0.00012837489
2.5308823e-05
9.9742348e-05
1.4177201e-05
7.1925136e-05
3.0045669e-06
4.4084398e-05
-5.4119541e-06
1.8760458e-05
-1.4748904e-05
-3.9017872e-06
-2.3305266e-05
-2.3772335e-05
-3.1330737e-05
-4.086488e-05
-3.8744439e-05
-5.5340897e-05
-4.5488875e-05
-6.7375182e-05
-5.1598035e-05
-7.7146547e-05
-5.7102814e-05
-8.4831145e-05
-6.2020709e-05
-9.061302e-05
-6.6366473e-05
-9.4679887e-05
-7.014631e-05
-9.7224132e-05
-7.3368829e-05
-9.8432526e-05
-7.6091231e-05
-9.848414e-05
-7.837057e-05
-9.7573662e-05
-8.0119769e-05
-9.5899174e-05
-8.1276077e-05
-8.2462335e-05
7.2844875e-05
-5.1240184e-05
6.5072813e-05
-4.9269725e-05
5.6607908e-05
-4.7256193e-05
4.7251991e-05
-4.4564613e-05
3.6828917e-05
-4.1176853e-05
2.5183758e-05
-3.7241203e-05
1.2176225e-05
-3.2714379e-05
-2.3506136e-06
-2.7563682e-05
-1.8521022e-05
-2.1786167e-05
-3.6495938e-05
-1.5345426e-05
-5.664483e-05
-7.9996583e-06
-7.8612725e-05
-7.1085179e-07
-0.00010171314
6.2297286e-06
-0.00012683978
1.4948739e-05
-0.00015373648
2.3663869e-05
-0.00018296847
3.2311277e-05
-0.00021316976
4.1409335e-05
-0.0002438015
5.0575799e-05
-0.00027515579
5.9128974e-05
-0.00030703694
6.5923071e-05
-0.00034019378
7.1778302e-05
-0.00037417041
7.5971282e-05
-0.00040843864
7.9013727e-05
-0.0004426052
8.0570275e-05
-0.00047611299
8.0813564e-05
-0.00050857297
7.9815765e-05
-0.00053924575
7.7415467e-05
-0.00056739058
7.384905e-05
-0.00059242983
6.9102283e-05
-0.00061360149
6.34664e-05
-0.00063010753
5.6989173e-05
-0.00064133224
4.9812642e-05
-0.00064736881
4.1992415e-05
-0.0006478042
3.3551955e-05
-0.00064245593
2.4979404e-05
-0.00063139367
1.6581764e-05
-0.00061427655
8.2253271e-06
-0.00059148816
1.3468092e-06
-0.00056256501
-3.7224697e-06
-0.0005285051
-7.6032486e-06
-0.00048962064
-1.0582522e-05
-0.00044529926
-1.2569324e-05
-0.00039580721
-1.3201294e-05
-0.00034141322
-1.2260634e-05
-0.00028285024
-1.0223147e-05
-0.00022051361
-7.7369406e-06
-0.00015518012
-5.145322e-06
-8.7837489e-05
-2.1822967e-06
-1.9350214e-05
1.0059505e-06
4.938943e-05
4.0287895e-06
0.00011741413
6.8846971e-06
0.0001838595
9.4703854e-06
0.0002478166
1.1794335e-05
0.00030812515
1.4390641e-05
0.00036421361
1.6515946e-05
0.00041582435
1.8738089e-05
0.00046198718
2.1247488e-05
0.00050221194
2.4824453e-05
0.00053653322
2.8769209e-05
0.00056411133
3.3659054e-05
0.00058631475
3.9221183e-05
0.00060165158
4.5461937e-05
0.0006109206
5.2925498e-05
0.00061347703
6.0149886e-05
0.00061032449
6.7982613e-05
0.00060083611
7.517817e-05
0.00058593086
8.2192015e-05
0.00056541497
8.8155878e-05
0.00053988053
9.3274027e-05
0.00050968828
9.7261621e-05
0.00047655009
0.0001000018
0.00044044124
0.00010188599
0.00040302615
0.00010212211
0.00036434303
0.00010134544
0.00032535315
9.902348e-05
0.00028661947
9.536959e-05
0.00024879129
9.0270935e-05
0.000212347
8.3868838e-05
0.0001779651
7.5914002e-05
0.00014558648
6.6873831e-05
0.0001147797
5.6116261e-05
8.4834103e-05
4.4122726e-05
5.6249593e-05
3.1588938e-05
3.0542827e-05
2.0294849e-05
7.6742935e-06
8.1209758e-06
-1.3721687e-05
-1.9081612e-06
-3.2511482e-05
-1.2540159e-05
-4.8594254e-05
-2.2660516e-05
-6.2183647e-05
-3.1899936e-05
-7.3421962e-05
-4.0358825e-05
-8.2457098e-05
-4.8065822e-05
-8.9449981e-05
-5.5024916e-05
-9.457507e-05
-6.1237998e-05
-9.8017907e-05
-6.6703094e-05
-9.9969409e-05
-7.1419225e-05
-0.00010061217
-7.5447553e-05
-0.00010012223
-7.8859822e-05
-9.8706624e-05
-8.1535182e-05
-9.6586671e-05
-8.3392579e-05
-8.521793e-05
7.4677625e-05
-4.4644183e-05
6.7460116e-05
-4.2046843e-05
5.9566059e-05
-3.9365626e-05
5.0802921e-05
-3.579615e-05
4.0981628e-05
-3.1367135e-05
2.9959341e-05
-2.6218392e-05
1.7566547e-05
-2.0327375e-05
3.6732483e-06
-1.3671976e-05
-1.1795706e-05
-6.313956e-06
-2.8920186e-05
1.772436e-06
-4.8505248e-05
1.1586282e-05
-6.9772627e-05
2.0558134e-05
-9.3279995e-05
2.9733861e-05
-0.00011836816
4.0042165e-05
-0.00014529573
5.0596328e-05
-0.00017432849
6.1342482e-05
-0.00020476831
7.1851702e-05
-0.00023630788
8.2117756e-05
-0.00026848976
9.1306629e-05
-0.00030227747
9.9708933e-05
-0.00033668547
0.00010618835
-0.00037201566
0.0001112995
-0.00040766511
0.00011466045
-0.00044337456
0.00011628231
-0.00047844173
0.00011588321
-0.00051224657
0.00011361917
-0.00054410282
0.00010927213
-0.00057339113
0.00010314078
-0.00059945393
9.5165092e-05
-0.00062151643
8.5525153e-05
-0.00063887777
7.4348978e-05
-0.00065092947
6.1865231e-05
-0.00065729761
4.8358855e-05
-0.00065786649
3.4116772e-05
-0.0006524761
1.9587306e-05
-0.00064109384
5.1999948e-06
-0.00062292307
-9.9462166e-06
-0.00059876482
-2.2814016e-05
-0.00056815446
-3.4334919e-05
-0.00053170822
-4.404783e-05
-0.00048970834
-5.2580698e-05
-0.00044271018
-5.9569225e-05
-0.00039115885
-6.4752621e-05
-0.00033541456
-6.8003693e-05
-0.00027577595
-6.9860752e-05
-0.00021320267
-7.0312026e-05
-0.00014814362
-7.0209722e-05
-8.1949821e-05
-6.8378526e-05
-1.4694255e-05
-6.6250976e-05
5.273833e-05
-6.3404057e-05
0.00011944311
-5.9823072e-05
0.00018458807
-5.5676021e-05
0.0002477267
-5.1344646e-05
0.00030748087
-4.5360573e-05
0.00036337196
-3.9373559e-05
0.00041554252
-3.3430696e-05
0.00046202923
-2.5239723e-05
0.00050429467
-1.7439069e-05
0.00053991506
-6.850461e-06
0.00056940205
4.1732303e-06
0.00059242983
1.6191089e-05
0.0006087698
2.9120896e-05
0.00061883377
4.2860232e-05
0.00062194706
5.7037196e-05
0.00061868632
7.1247614e-05
0.00060888914
8.4973966e-05
0.000593199
9.7881775e-05
0.00057180454
0.00010955063
0.00054532996
0.00011974941
0.00051438645
0.00012820746
0.00047990043
0.00013448972
0.00044274169
0.00013904601
0.00040357668
0.00014128648
0.00036339655
0.0001415253
0.00032290949
0.00013951183
0.00028265656
0.00013562191
0.00024332482
0.00012960071
0.00020564414
0.00012154919
0.00016951893
0.0001120398
0.00013562956
0.00010076347
0.00010363882
8.8107207e-05
7.3573716e-05
7.41876e-05
4.4907449e-05
6.0255695e-05
1.9482086e-05
4.5718846e-05
-4.4259743e-06
3.2030471e-05
-2.5154762e-05
1.8821941e-05
-4.2918389e-05
5.2241745e-06
-5.8029206e-05
-7.552086e-06
-7.0821862e-05
-1.9106169e-05
-8.1311349e-05
-2.9868804e-05
-8.9607242e-05
-3.9769561e-05
-9.5865879e-05
-4.8765192e-05
-0.00010026433
-5.6837964e-05
-0.00010299198
-6.3975462e-05
-0.00010424357
-7.0171393e-05
-0.00010421023
-7.5479557e-05
-0.00010308815
-7.9979018e-05
-0.00010108017
-8.3540342e-05
-9.8391182e-05
-8.6077418e-05
-8.8553178e-05
7.6544896e-05
-3.8700168e-05
7.0073367e-05
-3.5579895e-05
6.2944358e-05
-3.2229764e-05
5.4934282e-05
-2.7787769e-05
4.5874216e-05
-2.2301585e-05
3.5582153e-05
-1.5930512e-05
2.387465e-05
-8.6235207e-06
1.0566706e-05
-3.6050412e-07
-4.5032482e-06
8.7523197e-06
-2.1555679e-05
1.882696e-05
-3.9717501e-05
2.9751184e-05
-6.0014934e-05
4.0851573e-05
-8.3066517e-05
5.2787285e-05
-0.00010813769
6.5116896e-05
-0.00013516456
7.7620925e-05
-0.00016390767
9.0086889e-05
-0.0001944682
0.00010241587
-0.00022674481
0.0001143921
-0.00026055681
0.00012511673
-0.0002954374
0.00013459217
-0.00033161324
0.00014236403
-0.00036867681
0.00014836028
-0.00040609974
0.00015208478
-0.0004436118
0.00015379719
-0.00048038052
0.00015265087
-0.00051604557
0.00014928337
-0.00054978827
0.00014301784
-0.00058093516
0.00013428919
-0.0006086428
0.00012286958
-0.00063218358
0.00010906342
-0.00065086725
9.3033659e-05
-0.00066421635
7.5214223e-05
-0.00067143027
5.5569317e-05
-0.00067239101
3.5075042e-05
-0.00066678342
1.3980578e-05
-0.00065418966
-7.3940499e-06
-0.00063593946
-2.8199732e-05
-0.00061099747
-4.775781e-05
-0.00057967486
-6.5657038e-05
-0.00054164613
-8.2075319e-05
-0.00049831043
-9.591616e-05
-0.00044995251
-0.00010792899
-0.00039669669
-0.00011800743
-0.00033939315
-0.00012530556
-0.00027850384
-0.00013075109
-0.00021451878
-0.00013429956
-0.00014830039
-0.00013643125
-8.0241977e-05
-0.00013643622
-1.1861956e-05
-0.0001346311
5.6358739e-05
-0.00013162616
0.00012371737
-0.00012718528
0.00018953054
-0.00012148934
0.00025346047
-0.0001152724
0.00031460199
-0.00010649813
0.00037183124
-9.6601503e-05
0.00042447244
-8.6070039e-05
0.00047260265
-7.336986e-05
0.0005148257
-5.9659307e-05
0.00055167804
-4.3703889e-05
0.00058247132
-2.6620365e-05
0.00060631562
-7.655782e-06
0.00062330147
1.2135508e-05
0.00063354446
3.2622645e-05
0.00063657353
5.4005905e-05
0.00063272042
7.5100103e-05
0.00062198367
9.5709274e-05
0.00060487989
0.00011498275
0.00058179335
0.00013263982
0.0005534832
0.00014806432
0.00052066359
0.00016102701
0.00048405178
0.0001710999
0.00044470767
0.0001783905
0.0004033769
0.00018261837
0.00036109631
0.00018380806
0.00031863338
0.00018197639
0.00027640789
0.00017784617
0.00023537919
0.00017062748
0.00019574879
0.00016117905
0.00015833854
0.00014945015
0.00012301504
0.00013608671
8.9963956e-05
0.00012115853
5.9037665e-05
0.00010511277
3.1137998e-05
8.8155279e-05
5.2864715e-06
7.1571072e-05
-1.7544185e-05
5.4863824e-05
-3.6913824e-05
3.8192283e-05
-5.4187489e-05
2.2498829e-05
-6.9021878e-05
7.2810855e-06
-8.1196052e-05
-6.9321146e-06
-9.0893259e-05
-2.0170763e-05
-9.8323015e-05
-3.2339589e-05
-0.00010368461
-4.3405134e-05
-0.00010717453
-5.3349166e-05
-0.00010899372
-6.2154932e-05
-0.00010934897
-6.9818393e-05
-0.00010844
-7.6388286e-05
-0.00010646668
-8.195241e-05
-0.00010363232
-8.6375934e-05
-0.00010013815
-8.9570889e-05
-9.2551198e-05
7.9121463e-05
-3.3670197e-05
7.3585331e-05
-3.003786e-05
6.7389307e-05
-2.6043031e-05
6.0347102e-05
-2.0739198e-05
5.2252966e-05
-1.4209474e-05
4.2919542e-05
-6.6002685e-06
3.2162538e-05
2.1345527e-06
1.980833e-05
1.1987188e-05
5.6603317e-06
2.2899964e-05
-1.0335136e-05
3.4826066e-05
-2.8220857e-05
4.7634289e-05
-4.8425763e-05
6.105815e-05
-7.087193e-05
7.5237807e-05
-9.5486117e-05
8.9729506e-05
-0.00012247394
0.00010460918
-0.00015162653
0.0001192436
-0.0001829544
0.00013374286
-0.00021603148
0.00014746689
-0.00025092771
0.00016001528
-0.00028768521
0.00017135079
-0.00032566971
0.00018034621
-0.0003647024
0.00018739364
-0.00040452551
0.00019191103
-0.0004443141
0.00019358539
-0.00048392692
0.00019226198
-0.0005221466
0.00018750512
-0.00055848133
0.00017935519
-0.0005920792
0.0001678855
-0.00062218681
0.00015297464
-0.00064790571
0.00013478319
-0.00066851718
0.00011364667
-0.00068326393
8.9959171e-05
-0.00069150693
6.3809461e-05
-0.00069298886
3.655671e-05
-0.00068744018
8.4328696e-06
-0.00067457765
-2.0258523e-05
-0.0006550195
-4.77618e-05
-0.00062851337
-7.4264057e-05
-0.00059528428
-9.8883983e-05
-0.00055601185
-0.00012134787
-0.00051069134
-0.00014123753
-0.00046013249
-0.00015848839
-0.0004051101
-0.000173028
-0.00034576182
-0.00018465231
-0.00028286945
-0.00019364519
-0.00021708895
-0.00020008141
-0.00014924467
-0.00020427658
-7.9898178e-05
-0.0002057816
-9.684745e-06
-0.00020484569
6.0535693e-05
-0.00020184866
0.0001302188
-0.00019686994
0.00019777911
-0.00018904792
0.00026239343
-0.00017988377
0.00032465567
-0.00016875836
0.00038363898
-0.00015558471
0.00043748828
-0.0001399177
0.00048683012
-0.00012271026
0.00053076518
-0.00010359189
0.00056889781
-8.1836561e-05
0.0006005941
-5.8317048e-05
0.00062582809
-3.2888356e-05
0.00064378925
-5.826922e-06
0.00065437449
2.203808e-05
0.00065722555
5.1154033e-05
0.00065272726
7.9593667e-05
0.00064079865
0.00010763818
0.00062204647
0.00013373674
0.00059687407
0.00015781285
0.00056613297
0.00017880719
0.00053058813
0.00019657187
0.00049113288
0.00021055458
0.00044877274
0.00022075135
0.00040455483
0.00022683728
0.00035927767
0.00022908645
0.00031364602
0.00022760921
0.00026922339
0.00022226938
0.00022572844
0.00021412293
0.00018425494
0.00020265357
0.00014481746
0.00018888845
0.00010799901
0.0001729044
7.3889219e-05
0.00015526598
4.2573595e-05
0.00013642596
1.3974735e-05
0.00011675239
-1.1378109e-05
9.6924105e-05
-3.3700375e-05
7.7185239e-05
-5.3189754e-05
5.7679992e-05
-6.9641635e-05
3.894771e-05
-8.3384343e-05
2.1021589e-05
-9.4468375e-05
4.148023e-06
-0.00010308169
-1.1560821e-05
-0.00010940205
-2.6018891e-05
-0.00011363481
-3.9171043e-05
-0.00011599308
-5.0991811e-05
-0.00011668314
-6.1462365e-05
-0.00011592256
-7.0576881e-05
-0.00011392617
-7.8383358e-05
-0.00011089607
-8.4979615e-05
-0.0001070495
-9.0222726e-05
-0.0001025798
-9.4039114e-05
-9.7480062e-05
8.214302e-05
-2.9729208e-05
7.7733826e-05
-2.5629819e-05
7.267912e-05
-2.0985602e-05
6.6784108e-05
-1.4847181e-05
5.9835842e-05
-7.2638125e-06
5.1640033e-05
1.5991138e-06
4.199132e-05
1.1778301e-05
3.0694912e-05
2.3282251e-05
1.7567833e-05
3.602992e-05
2.4505011e-06
4.9940458e-05
-1.479996e-05
6.4885214e-05
-3.4449526e-05
8.0711874e-05
-5.6378632e-05
9.7165683e-05
-8.0970851e-05
0.00011432148
-0.00010784345
0.00013148617
-0.00013742111
0.00014882187
-0.00016925553
0.00016557519
-0.00020346213
0.00018167539
-0.00023997035
0.0001965253
-0.00027831094
0.00020968933
-0.00031857588
0.000220611
-0.00036022779
0.00022904887
-0.00040279635
0.00023448022
-0.00044585553
0.00023664245
-0.00048840473
0.00023481219
-0.00053013836
0.000229242
-0.00056986788
0.0002190848
-0.00060689139
0.00020490723
-0.00064022559
0.00018631003
-0.00066890101
0.00016346133
-0.0006919805
0.00013672577
-0.00070837208
0.00010634827
-0.0007185132
7.3950169e-05
-0.00072081321
3.8857569e-05
-0.0007147461
2.3646423e-06
-0.00070182918
-3.3178241e-05
-0.00068091584
-6.8677047e-05
-0.00065253804
-0.00010264039
-0.00061715282
-0.00013426709
-0.00057532684
-0.00016317498
-0.00052752246
-0.00018904273
-0.00047439524
-0.00021161434
-0.00041648878
-0.0002309324
-0.00035447645
-0.00024666367
-0.00028901497
-0.00025910827
-0.00022054635
-0.00026855017
-0.00015059861
-0.00027422468
-7.8900482e-05
-0.00027748003
-6.329704e-06
-0.0002774186
6.5940287e-05
-0.00027412096
0.00013705944
-0.0002679887
0.00020679611
-0.00025878285
0.00027391305
-0.00024699791
0.00033801793
-0.00023286239
0.00039829949
-0.00021586544
0.00045448789
-0.00019610577
0.00050570373
-0.0001739252
0.00055185238
-0.00014974035
0.00059179615
-0.00012177935
0.00062504878
-9.1569261e-05
0.00065215188
-5.9992119e-05
0.00067129615
-2.4968499e-05
0.00068250316
1.0828858e-05
0.00068528766
4.8367652e-05
0.00067993005
8.4949717e-05
0.00066665837
0.00012090681
0.00064574975
0.0001546429
0.00061774527
0.00018581793
0.00058368497
0.00021286929
0.00054448859
0.00023576831
0.00050117013
0.0002538725
0.00045487592
0.00026704613
0.00040666018
0.00027505437
0.00035761951
0.00027812816
0.00030885021
0.00027637904
0.00026080013
0.00027032101
0.00021457586
0.00026034859
0.00017034063
0.00024688938
0.00012893483
0.00023029369
9.0335291e-05
0.00021150301
5.5044548e-05
0.00019055477
2.2858707e-05
0.00016861101
-5.8559354e-06
0.00014546685
-3.1196401e-05
0.00012226601
-5.3148386e-05
9.9136041e-05
-7.1921102e-05
7.6452447e-05
-8.7569858e-05
5.4594642e-05
-0.00010025467
3.3703079e-05
-0.00011017575
1.4066388e-05
-0.00011753405
-4.2039173e-06
-0.00012254816
-2.100657e-05
-0.00012544219
-3.6278599e-05
-0.00012644806
-4.9987615e-05
-0.00012579295
-6.211792e-05
-0.00012370846
-7.266038e-05
-0.00012041431
-8.1674986e-05
-0.00011612696
-8.9263185e-05
-0.00011105962
-9.5287813e-05
-0.00010540935
-9.9687581e-05
-0.00010352722
8.5590024e-05
-2.7098289e-05
8.2528449e-05
-2.2555732e-05
7.882158e-05
-1.7283032e-05
7.4285877e-05
-1.0314003e-05
6.8695108e-05
-1.6710176e-06
6.1828423e-05
8.4613999e-06
5.3486028e-05
2.0120777e-05
4.3429938e-05
3.3342369e-05
3.146233e-05
4.7995546e-05
1.7394535e-05
6.4008678e-05
1.0321068e-06
8.1251835e-05
-1.7807202e-05
9.9550019e-05
-3.9346872e-05
0.00011870406
-6.3455842e-05
0.0001384343
-9.0537125e-05
0.00015856887
-0.0001203779
0.00017866077
-0.00015314408
0.00019834296
-0.00018863404
0.00021716771
-0.00022670634
0.00023459588
-0.00026739416
0.00025037618
-0.00031014275
0.00026336269
-0.00035470245
0.00027361018
-0.00040070357
0.0002804794
-0.00044712697
0.00028306588
-0.00049386095
0.00028154955
-0.0005395429
0.00027492565
-0.0005838871
0.0002634282
-0.00062527318
0.00024629458
-0.00066281971
0.00022386012
-0.0006953824
0.000196025
-0.00072198011
0.00016332107
-0.00074164013
0.00012600723
-0.00075325786
8.5569797e-05
-0.00075672195
4.2321943e-05
-0.00075127093
-3.0895226e-06
-0.00073709002
-4.7361098e-05
-0.00071443201
-9.1333838e-05
-0.00068375818
-0.00013331237
-0.00064562369
-0.00017240113
-0.00060074334
-0.0002080564
-0.00054969742
-0.00024008801
-0.00049324329
-0.00026806574
-0.0004321685
-0.00029200609
-0.00036659098
-0.00031224217
-0.00029791924
-0.00032778221
-0.00022650668
-0.00033996244
-0.00015285432
-0.00034787646
-7.827771e-05
-0.00035205764
-2.8921874e-06
-0.0003528058
7.1995075e-05
-0.00034901082
0.00014576969
-0.00034176213
0.00021795513
-0.00033096762
0.00028777151
-0.00031681287
0.00035469123
-0.0002997836
0.00041719904
-0.00027837235
0.00047634588
-0.00025525139
0.00053038765
-0.00022796542
0.00057885174
-0.00019820567
0.00062166011
-0.00016459148
0.00065777487
-0.00012768228
0.00068622196
-8.8440437e-05
0.00070677079
-4.5515441e-05
0.00071792262
-3.2084323e-07
0.00072143857
4.4848149e-05
0.00071489508
9.1488955e-05
0.00069999385
0.00013580563
0.00067605095
0.00017858489
0.00064457508
0.00021729378
0.00060624469
0.0002511995
0.00056229851
0.00027971555
0.00051400281
0.00030217006
0.00046272388
0.0003183265
0.00040959426
0.00032818575
0.00035600701
0.00033171714
0.00030274267
0.00032964387
0.00025079147
0.00032227371
0.00020090017
0.00031024064
0.00015388348
0.00029390545
0.00010987078
0.00027430576
6.9534005e-05
0.00025183906
3.2777014e-05
0.0002273104
9.9803114e-09
0.00020137637
-2.9069294e-05
0.00017454609
-5.4350454e-05
0.00014754787
-7.586824e-05
0.00012065302
-9.3850384e-05
9.4431354e-05
-0.0001084436
6.9185403e-05
-0.00011991256
4.5170606e-05
-0.00012846582
2.2619176e-05
-0.00013435294
1.6831465e-06
-0.00013782977
-1.7529089e-05
-0.00013915343
-3.4952986e-05
-0.0001385784
-5.0560602e-05
-0.00013635185
-6.4341581e-05
-0.00013271764
-7.629219e-05
-0.00012790993
-8.6483292e-05
-0.0001221509
-9.5023107e-05
-0.00011565364
-0.00010178255
-0.00010861821
-0.00010672716
-0.00011089976
8.9457721e-05
-2.5980107e-05
8.7944939e-05
-2.104241e-05
8.5808754e-05
-1.5147795e-05
8.2853972e-05
-7.354755e-06
7.8831699e-05
2.3458573e-06
7.3521144e-05
1.377146e-05
6.6690161e-05
2.695609e-05
5.8089074e-05
4.1941994e-05
4.74831e-05
5.8602148e-05
3.4648426e-05
7.6847896e-05
1.9350899e-05
9.6548562e-05
1.3778847e-06
0.00011752103
-1.9465349e-05
0.00013955031
-4.3386334e-05
0.00016235687
-7.0387077e-05
0.00018556779
-0.00010069184
0.00020896681
-0.00013433021
0.00023198412
-0.00017113388
0.00025397009
-0.00021121133
0.00027467168
-0.00025403298
0.00029320046
-0.00029982818
0.00030916026
-0.00034806925
0.00032184979
-0.00039776882
0.00033017841
-0.00044905966
0.00033435998
-0.00050047393
0.00033296665
-0.00055147681
0.00032592866
-0.00060087876
0.00031283131
-0.00064757109
0.00029299044
-0.00069028384
0.0002665746
-0.00072775492
0.00023349422
-0.00075879973
0.00019436431
-0.00078186266
0.00014907157
-0.00079596432
9.967321e-05
-0.00080000736
4.6363575e-05
-0.00079551177
-7.5880178e-06
-0.00078043822
-6.2434331e-05
-0.00075574303
-0.00011602612
-0.00072207733
-0.00016697731
-0.00068022355
-0.00021425648
-0.00063146802
-0.00025681222
-0.00057688935
-0.00029466483
-0.00051676931
-0.00032818361
-0.00045151796
-0.00035725808
-0.00038253538
-0.00038122677
-0.00030984964
-0.00040046905
-0.00023444917
-0.00041536236
-0.00015702522
-0.00042530004
-7.8465746e-05
-0.00043061993
3.0427187e-07
-0.00043157661
7.8957133e-05
-0.00042766439
0.00015644958
-0.00041925198
0.00023199553
-0.00040651397
0.00030533613
-0.00039015477
0.00037471577
-0.00036916668
0.00044112791
-0.00034478508
0.00050309137
-0.00031721459
0.00056019348
-0.00028506747
0.00061158928
-0.00024960184
0.00065796629
-0.00021097005
0.00069701365
-0.00016673007
0.00072771127
-0.00011913552
0.00075106977
-6.887377e-05
0.00076433387
-1.3587199e-05
0.00076704803
4.2132102e-05
0.00075977017
9.8766459e-05
0.00074203882
0.00015353568
0.00071418581
0.00020643713
0.00067812326
0.00025335751
0.00063438341
0.0002949404
0.00058447334
0.00032962566
0.00052992456
0.00035672009
0.00047238582
0.000375868
0.00041322433
0.00038734985
0.00035378484
0.00039115835
0.00029523898
0.00038819021
0.00023861293
0.00037890066
0.00018474046
0.00036411394
0.00013423413
0.00034441121
8.7354408e-05
0.00032118483
4.4933371e-05
0.00029425814
6.8171369e-06
0.00026542631
-2.6872999e-05
0.00023506638
-5.6214237e-05
0.00020388723
-8.1213667e-05
0.00017254498
-0.00010214052
0.00014157812
-0.00011915013
0.00011144046
-0.00013251059
8.2544972e-05
-0.00014251398
5.5171003e-05
-0.00014944434
2.9548507e-05
-0.00015360076
5.8384965e-06
-0.00015528235
-1.5850705e-05
-0.00015477804
-3.5459051e-05
-0.00015236982
-5.2969537e-05
-0.00014832775
-6.8381812e-05
-0.00014291056
-8.170632e-05
-0.00013636324
-9.3028289e-05
-0.00012891312
-0.00010247257
-0.00012077996
-0.00010991292
-0.00011215893
-0.00011534733
-0.00011978644
9.3711145e-05
-2.6598085e-05
9.3972969e-05
-2.1302698e-05
9.3633035e-05
-1.4804685e-05
9.2483459e-05
-6.2082147e-06
9.0270537e-05
4.5593008e-06
8.6756924e-05
1.7288518e-05
8.1671362e-05
3.2039693e-05
7.4762509e-05
4.8851232e-05
6.5754243e-05
6.7614711e-05
5.4374054e-05
8.8227184e-05
4.0359117e-05
0.00011056084
2.3448152e-05
0.00013443407
3.3933884e-06
0.00015960624
-2.0031838e-05
0.00018577997
-4.7062568e-05
0.00021259946
-7.774766e-05
0.00023965516
-0.00011215785
0.00026639369
-0.00015040575
0.00029221599
-0.00019262614
0.00031689414
-0.00023828586
0.00033886305
-0.00028730623
0.00035817977
-0.00033922872
0.00037377132
-0.00039383387
0.00038478657
-0.00045000082
0.00039053062
-0.00050743111
0.00039039781
-0.00056452044
0.0003830187
-0.00062048417
0.00036879809
-0.00067373911
0.0003462474
-0.00072296752
0.00031580121
-0.00076652627
0.00027705091
-0.00080265799
0.00023049747
-0.00083071125
0.00017712712
-0.00084818881
0.00011715
-0.00085503694
5.3209218e-05
-0.00084992705
-1.2698227e-05
-0.00083299233
-7.9366895e-05
-0.00080455661
-0.00014446021
-0.000766933
-0.00020460176
-0.0007212017
-0.00025998963
-0.00066824323
-0.00030977009
-0.00060912599
-0.00035378085
-0.00054494755
-0.00039236259
-0.00047512648
-0.00042708063
-0.00040144924
-0.00045490434
-0.00032420324
-0.00047771311
-0.00024425225
-0.00049531296
-0.00016234365
-0.000507209
-7.9278794e-05
-0.00051368801
4.1499533e-06
-0.0005150055
8.7234851e-05
-0.00051074926
0.00016917816
-0.0005011947
0.00024855489
-0.00048589218
0.00032482095
-0.00046642207
0.00039857348
-0.0004429212
0.00046868169
-0.0004148931
0.00053375142
-0.00038228625
0.00059538046
-0.00034669806
0.00065104763
-0.00030527341
0.00070004921
-0.00025996841
0.00074386176
-0.00021054134
0.00077869837
-0.00015397307
0.00080327917
-9.3454021e-05
0.00081935647
-2.9665852e-05
0.00082229939
3.9187674e-05
0.00081385737
0.00010720782
0.00079237247
0.00017502031
0.00076110952
0.0002376997
0.00071909411
0.00029537056
0.00066846605
0.00034556658
0.00061109723
0.00038699462
0.00054888353
0.00041893626
0.0004836629
0.00044109182
0.00041716665
0.00045384795
0.0003507693
0.00045755728
0.00028591543
0.00045304679
0.0002237214
0.0004410978
0.00016509549
0.00042274289
0.0001105727
0.0003989361
6.0918992e-05
0.00037083982
1.6049409e-05
0.00033912705
-2.3619737e-05
0.0003050951
-5.8133441e-05
0.00026958126
-8.7632501e-05
0.00023338606
-0.00011226683
0.00019717805
-0.00013234612
0.00016165462
-0.00014812768
0.00012721943
-0.00015996427
9.4381474e-05
-0.0001682094
6.3415973e-05
-0.00017321958
3.4557497e-05
-0.00017534632
7.9654363e-06
-0.00017493768
-1.625814e-05
-0.00017231843
-3.8074902e-05
-0.00016780544
-5.748248e-05
-0.00016168828
-7.4498214e-05
-0.000154242
-8.915394e-05
-0.00014572531
-0.00010154791
-0.00013636266
-0.00011183297
-0.0001263838
-0.0001198905
-0.00011597741
-0.00012575358
-0.00013038546
9.8324463e-05
-2.916347e-05
0.00010058531
-2.3559057e-05
0.00010227532
-1.6501996e-05
0.00010317525
-7.1059975e-06
0.00010302507
4.7131842e-06
0.00010155472
1.8755581e-05
9.8498891e-05
3.5095124e-05
9.3550037e-05
5.3803667e-05
8.6405533e-05
7.4757672e-05
7.6756848e-05
9.7872469e-05
6.4290635e-05
0.00012302815
4.8682396e-05
0.00015004272
2.9636502e-05
0.00017864933
6.8724561e-06
0.00020854434
-1.9856875e-05
0.0002393323
-5.1027086e-05
0.00027082553
-8.6265303e-05
0.00030162996
-0.00012610745
0.00033205978
-0.0001702588
0.00036104861
-0.0002188871
0.00038749099
-0.00027164336
0.00041093481
-0.00032817094
0.00043030149
-0.00038807159
0.00044469129
-0.00045045103
0.00045291142
-0.00051429505
0.00045424209
-0.0005788599
0.00044758568
-0.0006425358
0.00043247592
-0.00070388554
0.00040759573
-0.00076127475
0.00037318768
-0.0008126158
0.00032839226
-0.00085607221
0.00027395656
-0.00088973996
0.00021079536
-0.00091133835
0.00013874603
-0.00092024115
6.2110839e-05
-0.00091508858
-1.7848564e-05
-0.00089617214
-9.8281488e-05
-0.00086543195
-0.00017520204
-0.00082337255
-0.00024666305
-0.00077224114
-0.00031112137
-0.00071348738
-0.00036852247
-0.00064820567
-0.00041906193
-0.00057757607
-0.00046299393
-0.00050308523
-0.00050157193
-0.0004238752
-0.0005341135
-0.0003412209
-0.00056036435
-0.00025584262
-0.00058069132
-0.00016845837
-0.00059459333
-7.964477e-05
-0.00060250188
8.9656403e-06
-0.00060361561
9.7010456e-05
-0.00059879452
0.00018315914
-0.00058734572
0.00026735123
-0.00057008722
0.00034902331
-0.00054809457
0.00042670269
-0.00052060202
0.00050055289
-0.00048874246
0.00057041538
-0.00045215076
0.00063513301
-0.00041141636
0.00069598064
-0.00036612475
0.00075070224
-0.0003146919
0.00079760969
-0.00025744643
0.00083822325
-0.00019458574
0.00086804031
-0.00012327271
0.00088478491
-4.6415068e-05
0.00089009835
3.3871508e-05
0.0008795464
0.00011776021
0.00085574446
0.00019882316
0.00081786703
0.00027557632
0.00076848328
0.00034475271
0.00070915958
0.00040489096
0.00064251755
0.00045363794
0.00057077621
0.00049067798
0.0004962192
0.00051564896
0.00042082516
0.00052924172
0.00034618593
0.00053219609
0.00027395736
0.00052527576
0.00020529917
0.00050975708
0.00014119932
0.00048684424
8.2289869e-05
0.00045784688
2.9140187e-05
0.00042398761
-1.8055457e-05
0.00038632102
-5.92293e-05
0.00034626726
-9.4450798e-05
0.00030480219
-0.00012392314
0.00026285783
-0.00014793804
0.00022119126
-0.00016685142
0.00018056773
-0.00018107829
0.0001414469
-0.00019103808
0.0001043424
-0.00019716828
6.9548597e-05
-0.00019989797
3.7289943e-05
-0.0001996483
7.7186327e-06
-0.00019681704
-1.909182e-05
-0.0001917688
-4.3120821e-05
-0.00018485154
-6.4397003e-05
-0.00017638295
-8.2966771e-05
-0.00016665186
-9.8882039e-05
-0.00015592386
-0.00011227539
-0.00014443746
-0.00012332286
-0.00013240019
-0.00013192774
-0.00012001457
-0.00013813765
-0.00014287757
0.00010325819
-3.3900058e-05
0.00010774414
-2.804882e-05
0.00011172061
-2.0478843e-05
0.00011492339
-1.0306546e-05
0.00011709671
2.5361173e-06
0.00011795864
1.7892494e-05
0.00011723155
3.5824477e-05
0.00011453996
5.64926e-05
0.00010957556
7.9717989e-05
0.00010198265
0.00010546576
9.1368545e-05
0.00013364192
7.7373403e-05
0.0001640343
5.9624281e-05
0.00019639808
3.7754873e-05
0.00023041715
1.142234e-05
0.00026566549
-1.9690206e-05
0.00030193631
-5.5855709e-05
0.00033779686
-9.708966e-05
0.00037329696
-0.00014354859
0.00040750748
-0.00019535687
0.00043929771
-0.00025219964
0.00046777951
-0.00031371221
0.00049181808
-0.00037974729
0.00051072777
-0.00044904895
0.00052221252
-0.00052082595
0.00052602024
-0.00059404026