/*--------------------------------*- C++ -*----------------------------------*\
  =========                 |
  \\      /  F ield         | OpenFOAM: The Open Source CFD Toolbox
   \\    /   O peration     | Website:  https://openfoam.org
    \\  /    A nd           | Version:  9
     \\/     M anipulation  |
\*---------------------------------------------------------------------------*/
FoamFile
{
    format      ascii;
    class       volScalarField;
    location    "23";
    object      p;
}
// * * * * * * * * * * * * * * * * * * * * * * * * * * * * * * * * * * * * * //

dimensions      [0 2 -2 0 0 0 0];

internalField   nonuniform List<scalar> 
918
(
0.39700846
1.6129932
0.020812288
0.35802941
-0.012226841
1.5836506
-1.129832
1.1640078
0.41777957
-0.32217713
-0.21133964
0.67287702
1.4550475
1.2147799
-0.89152499
-0.10654869
1.0723606
-0.93249999
0.41067095
-0.098171039
1.2622525
0.36702803
0.39431942
0.3682324
0.85173179
1.1947131
1.3179518
-0.014924715
0.017110375
-0.015327994
-0.015636421
-0.082447599
-0.082674083
1.4599272
1.5139474
1.5376381
0.43364938
0.37902632
-0.8836099
-1.0106341
-0.94789903
-1.2053122
1.1441064
1.1455501
-0.4919069
1.165254
1.1838768
0.38582766
0.41245751
0.4223256
0.36269216
0.3926175
0.40889818
0.31648873
-0.34076905
-0.40232776
-0.27934701
-0.25806176
-0.080053885
-0.22179041
-0.21959437
-0.21484385
-0.19737524
0.50592415
0.63625106
0.61972391
0.68770679
0.72244774
1.5500894
1.5135304
1.5405106
1.4873348
1.4776401
1.4348977
1.39805
1.2534595
1.2608041
1.2123389
1.1762455
-1.4260455
-2.474563
-0.30928675
0.00031931514
-0.01177414
-0.10752337
-0.099489716
1.0485673
1.0470485
1.0730103
1.0924447
1.1337861
-0.87053716
-1.1425544
0.4131621
0.40624718
0.40036957
0.38219539
0.42824203
0.47343644
-0.11375412
-0.13541359
-0.065041085
-0.075580598
-0.073820568
1.2397746
1.2302122
0.38310209
0.38813214
0.7411531
0.80384404
0.78009454
0.35240494
0.87721072
0.91747377
0.98760594
1.1847272
1.1966529
1.1773781
1.3041367
1.2594654
1.3646337
1.3902265
0.012972456
0.003340025
-0.11635367
-0.094837459
-0.094651439
0.44705385
0.46490812
0.44804178
0.42157917
0.42233841
0.32152908
0.17923074
0.46926182
0.48746526
-0.7156878
-0.80990016
-0.99165543
-1.0125544
-1.223479
0.74443973
1.1254551
1.1271725
-0.5375757
-0.38275145
-0.6328159
-0.29081681
-0.37477043
0.40746023
0.39925164
0.4031389
0.38394955
0.38763045
0.38695746
0.3956783
0.39692381
0.4116403
0.38556297
0.52697085
0.2644173
0.21252261
-0.62960865
-0.43166826
-0.60968765
-0.24283204
-0.23634842
-0.05348012
-0.0049159257
-0.059411784
-0.062325749
-0.22834453
-0.22451373
-0.22562597
-0.2066763
-0.19061256
0.49413129
0.49654809
0.49227474
0.50066994
0.53987186
0.54911126
0.59194006
0.57651001
1.3240157
1.3476867
1.3923778
1.3553176
-3.8735928
-6.5667565
0.33127252
0.51444528
-0.018236794
-0.0062349133
-0.0012298675
0.012808642
-0.0065358497
-0.018318448
-0.07323964
-0.070730641
-0.085638877
-0.084565403
1.0187547
1.0107912
1.0796239
1.1177988
0.9972626
0.98814921
0.42140872
0.41705776
0.42213803
0.41543348
-0.19511255
-0.16316872
-0.17077532
1.1866144
1.2129596
1.2062041
0.27000764
0.16039137
0.39729852
0.43414701
0.98399412
0.94359206
0.97276325
1.0630435
1.0976828
1.3797442
1.3917696
1.4296154
1.426393
1.47469
1.467017
1.4254831
0.48531641
0.46790727
0.48895097
0.42190818
0.43674057
0.4296984
0.50554724
0.47043398
0.49486875
0.011808481
-0.32801338
0.56471119
0.55764438
0.53425527
0.52939529
0.81937476
0.90985277
1.0914403
1.1074332
1.1113854
-0.15090021
-0.21917733
0.14362713
0.11959656
0.45404069
0.4810858
0.48115981
1.2981362
1.2984936
1.3448613
1.3071326
1.248463
1.2712
-0.35550311
-1.5261487
-0.90774308
0.92043328
0.69881266
0.80415814
-0.085033709
-0.06522417
-0.10537713
1.0887833
1.1505133
0.58609299
0.83744317
0.83933076
1.1461102
1.168987
1.2403829
1.1657699
1.1923458
1.2170614
1.2000969
0.69203987
0.59975917
0.62269024
0.95599322
1.0088776
0.088122972
-0.021752474
-0.044123784
-0.0024369114
0.050944551
0.021222699
1.1147191
1.052699
1.1246064
0.39342796
0.38539902
0.0030282017
-0.011760967
0.42079316
0.39372314
-0.017898825
-0.041038236
0.77868704
-0.64032619
0.10311761
0.42101147
0.41272586
0.4067959
-0.31284981
0.27780333
-0.1931241
-0.081174937
-0.16244155
0.65421265
0.5208659
0.50670023
-0.020698193
-0.11772616
-0.13730545
-0.5334112
0.40086464
0.380651
0.39712633
0.38199952
0.41404217
-0.03899941
-0.021231502
-0.02127271
-0.12893572
-0.083160621
-0.079971847
0.46450327
0.4856337
-0.42718814
0.41050224
0.39636426
0.41346447
0.37060739
0.42950536
0.38191537
-0.097445189
-0.058010293
-0.1126649
0.3126652
0.44716729
1.0976879
1.2567955
1.1120605
0.72762665
0.39879594
0.9548393
1.0531803
0.91596447
1.0964191
1.0993509
1.1406811
0.17815498
-0.049459733
0.19812999
0.13898235
0.41912809
0.42269178
0.41545323
0.41138226
0.41567063
0.38913134
0.41538214
0.41703675
0.4138756
0.4301761
-0.23811485
-0.27267825
-0.30940394
-0.39341314
0.29219776
0.56922573
0.19601535
0.23330599
0.038290472
-0.20519211
-0.19211545
-0.18267669
-0.20965928
-0.12318504
-0.17875403
-0.065461407
-0.073281908
-0.11683869
-0.12986657
-0.1666336
-0.17347931
-0.13837905
0.6143097
0.59506623
0.6446461
0.69640706
0.51304637
0.50151409
0.50687626
0.51379
0.50622375
0.45887479
0.49787791
0.47285421
-0.049526929
-0.027289094
-0.028697464
-0.10031541
-0.11648229
-0.098638867
-0.075235451
-0.09278617
-0.083555199
-0.09071268
-0.17274851
-0.17135836
-0.48430188
-0.64601239
1.0324027
0.89057953
0.071578249
0.3829257
0.37911308
0.36777203
0.40607352
0.39367785
0.39913449
0.40016398
0.39745718
0.43785827
0.41830906
0.48723424
0.51799003
-0.3424042
-0.57882758
-0.31341418
-0.36784444
0.24597613
0.95709161
0.44164321
0.37366645
0.38076398
0.76733332
1.2989451
1.1674617
1.2061564
1.2500845
-0.28055441
0.20608026
-0.083415696
0.59579536
0.81757885
1.0700411
1.129011
1.1336173
1.1031291
1.0383622
-0.18606089
0.8059469
-0.20943652
-0.19273419
0.14808854
-0.029651335
1.1550593
1.0722928
1.0789562
1.1231503
1.1594552
1.0847039
1.0266169
1.0420002
1.1145018
1.116272
0.74121501
0.3384966
0.23685837
0.23007623
1.0391302
0.80703551
0.90483628
0.74063156
0.41865769
0.43152529
0.4161581
0.42972264
0.42547377
0.41696769
0.45654355
0.47413971
0.4341283
0.40496839
0.44121142
0.41504035
-0.22973348
-0.23894634
-0.19672553
-0.40569151
-0.38905543
-0.50358547
-0.28143532
-0.05451143
-0.088632765
0.12593898
0.2536686
-0.098462165
-0.29506586
-0.23736761
-0.17980113
0.042677891
0.10130506
-0.01166961
0.033367648
0.032824316
0.0079701356
0.1410698
0.14548308
-0.16409872
-0.15168603
-0.17370787
-0.1802442
-0.10145335
0.006959019
0.013677046
-0.19927483
-0.18813757
-0.19449772
-0.18972444
-0.12801533
-0.1601464
-0.144388
-0.11517171
-0.1209607
-0.085620745
-0.13051331
-0.22750352
-0.16627874
-0.1646536
0.54211145
0.56602486
0.55194514
0.71573076
0.7105365
0.75355555
0.72129436
0.46683888
0.48489906
0.47542255
0.53622076
0.50779001
0.54534598
0.56140292
0.59468142
0.60765671
0.50154949
0.48023013
0.57534733
0.53155338
0.52996005
0.53905075
0.56532733
0.50690594
0.52660518
-0.1039369
-0.064461519
-0.073628953
-0.12729498
-0.044101491
-0.060451161
-0.15113199
-0.13668
-0.17418677
-0.10717803
-0.12387355
-0.12962735
-0.1385172
-0.310214
-0.14704704
-0.53482109
-0.57038019
-0.6708164
0.92381866
1.0821006
0.82463629
0.54273806
0.5760221
0.86296675
1.006268
0.51957407
0.64957587
0.76587772
0.70851722
0.94346397
0.4031449
0.39624534
0.40997898
0.3905196
0.4175987
-0.15526786
0.037078669
-0.027720477
0.15099373
0.36408886
0.41470792
0.23084953
0.16783946
0.32477537
0.21975639
0.95665304
0.9878303
0.86631545
0.92120491
0.92113724
0.58366301
0.76059673
0.8852764
0.78293496
0.86397183
0.89097969
0.81976247
0.86875581
0.79876198
0.69439774
0.71373146
0.5298724
0.59321695
0.54884725
0.52287127
0.62738035
0.58819975
0.62392201
0.61667675
0.67477774
0.77597519
0.7583244
0.76546045
0.81781574
0.67082093
0.59722429
0.61895659
0.68622944
0.57320133
0.5895344
0.62661278
0.23170233
0.24605493
0.11732178
0.016033138
0.10019868
-0.061389115
-0.082678325
-0.048341997
0.26564318
-0.36961271
-0.35732919
-0.72839749
0.68315701
1.3254611
1.0830511
1.074262
1.1593466
1.1190037
1.1080351
1.17406
1.1814858
1.0259804
1.0646852
1.0654118
0.95554727
1.0010014
1.0948042
1.0769351
0.77018348
0.50647548
0.46021761
0.43893064
0.1904738
0.26594927
0.64221017
0.50326878
0.36713981
0.37143884
0.68835478
0.46055002
0.58488305
0.68146077
0.53483734
0.45881096
0.82635505
0.96382093
0.95804453
0.90563102
0.72167259
0.75917491
0.82229423
0.89327073
0.93238498
1.0087083
0.43075811
0.43445281
0.42914506
0.41434317
0.44406885
0.44391273
0.44252571
0.42470845
0.42666133
0.42386145
0.43759278
-0.20102886
-0.18684142
-0.21170128
-0.22347296
-0.17153406
-0.19219848
-0.11627402
-0.14028069
-0.14894587
-0.13832762
-0.19067714
-0.20257773
-0.18864008
-0.16947627
0.0037146289
0.030667385
-0.025304387
-0.031155522
0.16426614
0.30313652
0.35763701
0.27623479
0.093511118
0.11785689
0.18789992
-0.099776803
-0.089336391
-0.068790978
-0.057298798
-0.043033652
-0.20371889
-0.20360809
-0.17735685
-0.20134788
-0.17899597
-0.18284139
-0.19452195
-0.20688537
-0.20491677
-0.20151975
-0.19492836
0.46559671
0.48869562
0.54304773
0.50920305
0.50469952
0.52515121
0.49272585
0.51040874
0.51318757
0.5445011
0.53324132
0.57154858
0.55945344
-0.19442949
-0.1794056
-0.199901
-0.20010804
-0.16534836
-0.15763052
-0.15968115
0.078983972
-0.063971198
-0.030661666
-0.14662365
-0.37967387
-0.27348273
0.44934796
0.58569279
0.58397597
0.81195989
0.59756274
0.54792799
0.69574525
0.81793018
0.24490047
0.47450108
0.28554131
0.94412167
0.8480988
1.0220851
0.56530269
0.24863912
0.47742567
0.56838088
0.25737625
0.36841968
0.36952362
0.20632839
0.28072205
0.30039836
0.45155506
0.25073097
0.30379843
0.23521913
0.25849019
0.31412865
0.33452176
0.43206709
0.49432341
0.18195608
0.14879051
0.081789446
0.96367529
0.98754055
1.0188073
0.98008454
1.0208168
0.8358103
0.83004834
0.86898691
0.87912533
0.85586372
-0.55994551
-0.65724397
-1.0004196
-0.45688166
0.15584555
0.72111402
0.60846077
1.1628327
0.91295458
1.1365582
1.0864716
1.0352202
0.9512018
0.9284614
1.015303
0.5065654
0.67522524
0.64932871
0.62788532
0.45732022
0.36633209
0.91132842
0.8942686
0.96685848
1.0001161
0.94196347
1.0186343
0.45698351
0.47682803
0.45296581
0.47123482
0.4606773
0.46674181
-0.065650022
-0.11504128
-0.014560791
-0.033453345
-0.11152153
-0.13192644
-0.26627211
-0.19857678
-0.20711013
-0.20385352
-0.22560664
-0.26208513
0.10457479
0.063496278
-0.13083584
-0.01793879
-0.18196929
-0.27975605
-0.34148724
-0.16175378
-0.033911246
-0.013067031
0.37565538
0.65988227
0.5037716
0.61684849
0.44275885
0.5551262
0.53230746
0.48984384
0.5302285
0.40577813
0.42131017
0.40774648
-0.38222536
-0.050626893
1.2112536
1.1461724
0.7627585
0.61362659
0.55625764
0.88815809
0.81086285
0.66189048
0.75891054
0.88032617
0.86858597
0.19124299
0.17418106
0.52397657
0.65981724
0.31121286
0.18875964
0.15576542
0.32513076
0.37701255
)
;

boundaryField
{
    wall-4
    {
        type            zeroGradient;
    }
    velocity-inlet-5
    {
        type            zeroGradient;
    }
    velocity-inlet-6
    {
        type            zeroGradient;
    }
    pressure-outlet-7
    {
        type            fixedValue;
        value           uniform 0;
    }
    wall-8
    {
        type            zeroGradient;
    }
    frontAndBackPlanes
    {
        type            empty;
    }
}


// ************************************************************************* //
