/*--------------------------------*- C++ -*----------------------------------*\
  =========                 |
  \\      /  F ield         | OpenFOAM: The Open Source CFD Toolbox
   \\    /   O peration     | Website:  https://openfoam.org
    \\  /    A nd           | Version:  9
     \\/     M anipulation  |
\*---------------------------------------------------------------------------*/
FoamFile
{
    format      ascii;
    class       volVectorField;
    location    "23";
    object      U;
}
// * * * * * * * * * * * * * * * * * * * * * * * * * * * * * * * * * * * * * //

dimensions      [0 1 -1 0 0 0 0];

internalField   nonuniform List<vector> 
918
(
(0.40842827 -0.00011494816 0)
(0.0090456056 2.9576279 0)
(-0.027145861 1.7604481 0)
(0.28970062 -0.0087327504 0)
(-0.0061055813 1.8343535 6.3764719e-20)
(-0.011744078 2.9485779 -3.1011508e-18)
(1.0771157 1.6572076 9.4341384e-19)
(0.48081303 0.28254329 -2.4756036e-20)
(1.9884416 0.0032530999 0)
(0.025525623 1.2674425 0)
(-0.016680942 1.1007437 0)
(0.60612008 -0.025045061 0)
(0.012838844 2.9163471 0)
(0.013787201 2.7907063 0)
(0.10157233 3.1846788 4.8575034e-19)
(-0.017598013 1.758708 9.1645178e-20)
(0.6311757 0.15552393 1.606552e-18)
(0.22510931 1.7168651 7.4583702e-19)
(0.35763212 0.002821928 0)
(-0.018902957 1.3238419 0)
(0.098280188 0.26974275 -1.2518134e-18)
(1.0471151 -0.022309722 0)
(0.54336074 -0.029154693 0)
(0.24569536 -0.0070078132 0)
(0.74017535 -0.009484611 0)
(0.02461474 2.6141495 0)
(-0.0099515496 2.9059325 1.1288643e-18)
(-0.050962522 1.7487616 0)
(-0.086797475 1.9456821 0)
(-0.039160084 1.7459596 0)
(-0.026750377 2.4089304 0)
(0.008796457 1.8957037 -4.9900167e-20)
(0.010119814 1.6875627 0)
(-0.018161604 2.9813238 -1.1486375e-22)
(-0.018374893 3.0070232 2.4076964e-18)
(0.0008601322 3.0015938 0)
(0.3562336 0.015428968 0)
(0.43632105 0.91692814 2.0988694e-19)
(1.1761196 1.6341771 -1.1530922e-18)
(1.2469551 1.5154333 1.1930968e-18)
(0.98591346 1.7706337 -2.1415296e-19)
(0.87728229 1.7765974 1.2375496e-18)
(0.60037982 0.33481618 2.4071478e-20)
(0.52143153 0.26026708 0)
(1.5333916 0.87543877 0)
(0.53595762 0.34524685 1.1048446e-19)
(0.43141936 0.28836278 -1.1514144e-19)
(0.24117168 -0.0080064 0)
(1.9894544 -6.3314574e-05 0)
(1.9886798 -0.0027277337 0)
(1.356557 0.00035636967 0)
(1.8674149 0.0048332182 0)
(1.7379312 0.0028879119 0)
(0.027535002 2.03928 -5.6260714e-19)
(0.044053414 1.4745759 0)
(0.046342192 1.3550945 0)
(0.030400333 1.4217264 0)
(0.023001581 1.1907814 0)
(-0.0091756513 2.2590765 0)
(-0.01301159 1.2777984 0)
(-0.0070031162 1.0998775 0)
(-0.023426743 1.2914998 0)
(-0.018547193 1.1217376 0)
(0.70633679 0.033914182 0)
(0.7625549 -0.03904331 0)
(0.5421549 -0.024774586 0)
(0.7979199 -0.033129615 0)
(0.66581548 -0.020897855 0)
(0.01673893 3.0145157 1.1842026e-18)
(0.012391283 3.011378 0)
(0.0077283645 3.0035776 0)
(0.01332877 3.0004883 1.258741e-23)
(0.010556869 2.9476308 -1.6912527e-18)
(0.016842911 2.9848912 0)
(0.01343674 2.8938339 0)
(0.017709644 2.9238555 2.6699722e-24)
(0.013865364 2.8181213 0)
(0.017759874 2.9101676 0)
(0.011274408 2.7537842 0)
(0.25212167 3.6457935 0)
(0.17948745 3.5829116 0)
(0.13543672 3.3180048 -4.5441504e-19)
(0.050309376 3.0077117 0)
(-0.16066886 2.2518142 0)
(-0.04109637 1.9775961 -9.0041559e-20)
(-0.038177403 1.8444004 7.6863225e-20)
(0.77669899 0.17715455 -5.5304265e-19)
(0.65296419 0.11950492 -5.3160056e-19)
(0.74957139 0.21660913 -1.6684158e-18)
(0.60913304 0.18626285 -1.1061994e-18)
(0.18073401 1.1674416 0)
(0.34672553 1.8556882 -7.9246664e-19)
(0.43665353 1.8389169 1.3197985e-18)
(0.55015694 0.036875826 0)
(0.29687635 0.021682654 0)
(1.2186751 -0.0013638284 0)
(0.73885904 -0.035217067 0)
(0.65139309 0.017152995 -2.1813892e-18)
(0.64737985 -0.02637666 1.7256315e-18)
(-0.034044587 1.4462266 0)
(-0.019832405 1.2570297 0)
(-0.070778235 1.7140365 0)
(-0.039915069 1.5292195 0)
(-0.023327794 1.4110686 0)
(0.18733696 0.31763308 3.8152508e-19)
(0.26869738 0.26691511 0)
(0.50373382 0.018366819 0)
(0.24102545 0.013297009 0)
(0.82956609 -0.028791666 0)
(0.85028018 -0.018971553 0)
(0.71753953 -0.018695687 0)
(1.1218639 0.059808559 0)
(0.83883737 0.010466036 0)
(0.69033966 0.02053482 2.1913006e-18)
(0.0022168829 2.8619634 9.4284452e-19)
(0.021748598 2.8988849 0)
(0.03674692 2.8732679 0)
(0.016036571 2.7022404 0)
(-0.010392512 2.9857829 1.0860209e-18)
(-0.0090632769 2.8908755 0)
(-0.011746552 2.9907642 -3.3460011e-18)
(-0.0095888597 2.9158825 1.1465598e-18)
(-0.13558134 2.014777 0)
(-0.12959517 2.069977 0)
(-0.016417209 1.9027967 3.1144699e-21)
(0.0052655351 1.8571923 0)
(-0.0063069923 1.7049156 0)
(0.68914101 0.047193902 0)
(0.42755923 0.028960718 0)
(0.27718569 -0.0036496881 0)
(0.64183246 0.02889476 0)
(0.30918875 0.022031657 0)
(0.52329556 1.096916 -2.6048953e-19)
(0.55623509 1.1331893 0)
(0.41484494 0.90399815 3.6411649e-20)
(0.32112938 0.68926907 0)
(1.3119576 1.4561967 -3.371534e-19)
(1.3625312 1.3039389 6.6197691e-19)
(0.56069957 1.9034158 0)
(0.78083096 1.8712937 0)
(0.66340845 1.8451699 0)
(0.15163536 0.25909337 -3.4921198e-19)
(0.64788512 0.31026552 0)
(0.55596559 0.24046511 3.1356178e-19)
(1.4236062 1.245565 0)
(1.5106314 1.0245594 0)
(1.4555115 1.0862196 -5.2605169e-19)
(1.5821126 0.81245804 0)
(1.5898499 0.68233242 9.2152553e-20)
(0.60283325 0.039759926 0)
(0.55221074 0.025931083 0)
(0.26599423 0.021615007 0)
(0.52182871 0.0069526219 0)
(0.53198719 -0.010186724 0)
(0.24872479 0.0062344692 0)
(1.498912 -0.0022417507 0)
(1.8698998 -0.0027810535 0)
(1.7318591 -1.6784492e-06 0)
(0.041281308 2.2562821 3.1388333e-19)
(0.051170279 1.9634349 0)
(0.034036905 2.3446668 4.6117057e-19)
(0.021594499 2.1005751 -3.5218746e-19)
(0.16365069 1.7054396 -6.1503325e-19)
(0.074369208 1.5561675 0)
(0.097992054 1.5237212 0)
(0.028631235 1.3633245 0)
(0.018359495 1.1387268 0)
(-0.0058870918 2.4335456 7.7314128e-22)
(0.0022066414 2.2529125 0)
(-0.015177876 2.4338775 4.7414412e-20)
(-0.023453782 2.2350413 -1.0466761e-19)
(0.017733147 1.3147234 0)
(-5.2731262e-05 1.2851572 0)
(0.0072073908 1.105174 0)
(-0.024375187 1.3099884 0)
(-0.020627648 1.1567938 0)
(0.91686312 0.050875043 0)
(0.78655426 0.033903368 0)
(0.85560781 0.052111021 0)
(0.61613283 0.030943812 0)
(0.40272609 -0.024203247 0)
(0.67276648 -0.037915432 0)
(0.71734922 -0.036764208 0)
(0.47827623 -0.023257742 0)
(0.0037282614 3.0719705 -1.0052779e-20)
(0.010798257 3.061645 0)
(0.016171005 2.968803 0)
(0.013255725 2.8677141 0)
(0.73268322 4.234234 0)
(1.2335958 3.298522 9.287843e-19)
(0.072913912 3.1384734 0)
(0.030201888 2.9094764 0)
(-0.18282436 2.0627928 0)
(-0.20357876 2.2104835 0)
(-0.17529557 2.1431427 0)
(-0.072557511 2.4080308 -3.7151405e-21)
(-0.1632758 2.3252446 0)
(-0.10865146 2.3206109 0)
(-0.049005334 2.083001 2.1697833e-21)
(-0.06968132 2.2090272 -5.6238941e-20)
(-0.062888486 2.0841921 -7.8204873e-20)
(-0.052694632 1.9641096 0)
(0.79948098 0.13349803 8.166349e-19)
(0.67948884 0.085486475 -8.0255736e-19)
(0.30679721 1.7067495 0)
(0.20905803 0.94433619 -3.2723102e-19)
(0.22677692 1.8487829 -1.0055273e-18)
(0.13837451 1.4095727 1.0084066e-18)
(0.27541927 -0.0074569794 0)
(0.54662477 -0.0068740817 0)
(0.53772274 0.0089180704 0)
(0.27303553 0.0018791269 0)
(-0.026685233 1.3408222 0)
(-0.028578193 1.3832199 0)
(-0.021051685 1.2037532 0)
(0.45813183 0.34395309 1.0161251e-18)
(0.36000998 0.32916407 -1.2173127e-18)
(0.36082642 0.2834247 0)
(1.3505631 0.13736129 3.1443585e-20)
(1.3283148 0.13321337 0)
(1.1862145 0.089568203 0)
(0.98160961 0.042371909 0)
(0.8112522 0.089288774 0)
(0.81408848 0.044735953 -3.5258469e-18)
(0.68836935 0.05225701 1.3427752e-18)
(0.0033170587 2.9860845 9.6062571e-19)
(-0.0031918243 2.8660755 4.6934698e-20)
(0.0038469442 3.0539245 -2.1118708e-20)
(0.012753559 3.0472701 7.6024011e-19)
(-0.0093877876 2.9952595 3.7335504e-20)
(-0.0083892529 2.9361856 -1.5000728e-22)
(-0.013156569 3.0201628 -7.0590396e-19)
(0.0012168003 3.0231528 5.0879642e-19)
(0.0066768819 3.0398058 -7.6078727e-19)
(0.80053516 0.050845061 0)
(0.74952026 0.050783418 0)
(0.51616084 0.026069717 0)
(0.55059068 -0.0054098399 0)
(0.56284486 -0.0013900716 0)
(0.28288543 -0.0078322561 0)
(0.63655677 -0.044442056 0)
(0.59330892 -0.039238964 0)
(0.33108613 -0.024786373 0)
(0.70962787 1.3822686 2.9827653e-20)
(0.77698163 1.4635821 0)
(0.16522836 0.35520559 7.8774121e-20)
(0.33635076 0.77213597 5.8969319e-19)
(0.35766148 0.80303063 -3.4806971e-19)
(0.22973499 0.48890248 6.7237998e-19)
(0.42157398 0.96983296 1.8029051e-18)
(0.16844223 0.34237728 4.1693972e-19)
(0.72129641 0.25134003 1.1765012e-18)
(0.687394 0.28310482 2.9915007e-19)
(0.58275686 0.2127122 5.8905202e-19)
(1.5954598 0.60683339 2.1387284e-19)
(1.5752616 0.46385069 1.8656126e-19)
(0.025885123 2.4003421 1.4811645e-19)
(0.014182554 2.1757976 0)
(1.0709522 0.061795341 0)
(0.98998269 0.057280464 0)
(0.88481249 0.037472586 0)
(0.010049739 3.0770246 0)
(0.016995435 2.9386891 1.4732338e-18)
(0.016549266 2.9536907 0)
(0.013510577 2.8433471 -1.4706233e-18)
(0.0095802553 3.0917393 3.3560634e-19)
(0.0038145358 3.0887481 0)
(0.86729238 1.7528436 -1.3575906e-19)
(1.1324865 2.3642143 1.7856935e-19)
(0.84635867 1.8694154 -9.3969505e-19)
(0.015233206 3.0001922 -8.6504102e-19)
(0.036678136 3.0415855 0)
(0.01296041 2.8756142 0)
(-0.043537649 2.3842729 -1.7108334e-20)
(-0.056490706 2.3167105 1.2194334e-19)
(-0.038320542 2.1843956 7.7865534e-21)
(0.34662303 1.5428988 1.0283585e-18)
(0.21369007 0.75962301 -7.0730053e-19)
(0.088856975 2.1678228 6.6730775e-19)
(0.16720498 2.0289099 -8.4300665e-19)
(0.082984607 1.6984923 1.2278111e-19)
(0.014556505 3.1140559 -2.2067269e-18)
(0.017089539 3.1196199 2.4980373e-18)
(-0.0085083856 2.9804067 1.0304616e-18)
(-0.0050197886 2.9777078 -1.0030901e-18)
(-0.0074836111 2.8765382 -1.0497168e-18)
(0.0048041892 3.1054771 -2.605709e-18)
(0.0097095011 3.1047129 2.586782e-18)
(0.38010203 0.83985892 0)
(0.33411829 0.78029249 -1.3481171e-18)
(0.13616502 0.28401406 6.014003e-19)
(0.4161571 1.0907796 1.1896644e-18)
(0.19269113 0.43557199 -1.8457842e-18)
(1.5131784 0.24693889 6.3698741e-20)
(1.5703239 0.40251625 0)
(1.4993417 0.26668622 1.8710749e-20)
(0.013211271 2.4405897 -6.1392118e-23)
(0.012473554 2.4187114 0)
(0.0091287548 2.2168969 0)
(0.3952556 1.4062662 -3.6923101e-19)
(0.42543069 1.2611226 -8.3258164e-19)
(0.20248825 0.57667954 1.4888059e-18)
(1.1957908 0.0049899062 0)
(1.3353431 0.0013697302 3.4450803e-19)
(-0.15631973 1.9581652 0)
(-0.13417532 1.9132288 0)
(1.5135951 -0.0024844683 1.6977407e-21)
(1.1048091 0.01596588 7.6292228e-19)
(-0.08078041 2.4483846 4.839686e-21)
(-0.043259152 2.4870312 0)
(0.064717529 3.1823267 6.6388196e-19)
(0.54137122 3.558233 0)
(1.4702875 0.89860662 -5.7211903e-20)
(1.288688 0.0028491989 2.4614253e-20)
(1.3735467 0.02907725 0)
(1.9985949 0.0058413849 6.7763232e-21)
(0.10273856 1.8706717 0)
(0.11762153 2.7553055 0)
(0.021304699 1.7484272 0)
(0.0091205966 2.8085434 -7.6574181e-20)
(-0.052238185 2.7980177 -9.7190165e-20)
(1.2650399 -0.043460129 1.5077143e-20)
(1.357543 0.071643977 0)
(1.3772807 0.098915712 0)
(-0.22909723 2.2159789 0)
(-0.12555692 2.6775787 0)
(-0.12732295 1.7348263 0)
(0.34312357 1.9872892 -4.1080349e-19)
(1.2985512 0.0096307387 0)
(1.1009994 0.0086616276 0)
(1.9699274 0.0084760201 4.5264147e-19)
(1.6557229 0.015640872 -5.1540116e-19)
(1.9057182 0.0093253206 0)
(-0.23853576 2.1037734 0)
(-0.19317258 1.9679817 0)
(-0.20263871 2.0495723 0)
(-0.12824779 1.7424278 0)
(-0.13058292 1.8183438 0)
(-0.11058611 1.7544393 0)
(1.3777761 0.061591551 0)
(1.3163266 -0.036702864 2.4484045e-20)
(1.0339762 1.7168333 5.6870563e-19)
(1.956406 -0.00080989896 -4.614749e-19)
(1.7075632 -0.0065679758 5.4690474e-19)
(1.8973268 -0.0076429047 0)
(1.3156646 -0.002960802 4.4314045e-19)
(1.1893333 0.00056714421 -5.6822584e-19)
(0.9375027 0.020260302 0)
(-0.12395889 2.6677504 0)
(-0.086312342 2.5643137 -8.5040415e-20)
(-0.070208844 2.5921997 6.829881e-20)
(1.5232783 0.40039134 7.3250343e-19)
(1.4607847 0.17825054 0)
(0.084270432 3.0552507 -1.3048722e-18)
(0.046904264 2.84235 -9.3209334e-20)
(0.18501175 3.1841555 1.9897517e-18)
(0.1687585 3.2480505 -2.827705e-19)
(0.16667331 3.2948206 0)
(0.032980445 3.1356603 3.6339449e-19)
(0.087681825 3.1749304 1.2813138e-18)
(0.0841804 3.2029657 -6.7873433e-19)
(0.052518467 3.1083747 0)
(0.88186831 0.44411146 0)
(0.76138346 0.51292669 0)
(1.4173162 0.95077541 9.9061884e-20)
(1.4234929 1.1368287 -3.1570744e-20)
(1.485682 0.76977017 0)
(1.5210787 0.7453596 0)
(1.2833654 0.0068200927 -9.0973528e-19)
(1.118738 0.0036629436 1.172943e-18)
(1.3771338 0.02957289 0)
(1.2430168 0.036788822 0)
(2.0022295 0.0088751209 0)
(1.8760784 -0.0030785762 0)
(1.9370609 0.0046845652 0)
(1.7303176 -0.013710595 0)
(1.6682406 -0.0060860571 0)
(1.7992127 -0.0053110167 0)
(0.087625579 1.8629167 0)
(0.076708305 1.8535196 0)
(0.12761682 1.8969334 0)
(0.14341874 1.93027 0)
(0.13822788 2.786541 0)
(0.18093143 2.8662679 -3.8386499e-19)
(0.093829758 2.8571633 0)
(0.077360225 2.8685614 1.2048296e-19)
(0.031554868 2.8757037 -2.5483171e-20)
(0.023288655 1.7394825 0)
(-0.0043997759 1.6764993 0)
(0.038739362 1.7800008 0)
(0.023051721 1.7771772 0)
(0.050833776 2.2449677 1.1451485e-19)
(-0.03320191 2.8336557 -1.5432508e-19)
(-0.00020585965 2.852697 -1.0212883e-19)
(-0.021025034 2.8938182 0)
(-0.067686327 2.8498131 2.4126166e-19)
(-0.092983437 2.8410403 1.6401914e-19)
(0.057801708 2.2762297 -6.9174403e-20)
(-0.0027208079 2.6242312 2.0377421e-19)
(0.0019757704 2.6347263 1.2949931e-19)
(1.2878586 -0.039313609 1.3375027e-18)
(1.1395828 -0.056311265 -1.6331881e-18)
(1.2513252 -0.035880059 -1.4334017e-18)
(1.1494741 -0.042021682 1.9013547e-18)
(1.3806174 0.062320427 0)
(1.2872349 0.076361761 0)
(1.3946323 0.085346529 0)
(1.378154 0.07165163 0)
(1.2437163 0.074859679 0)
(1.4564305 0.15250985 0)
(1.3989551 0.10814567 0)
(1.2940658 0.10023736 0)
(-0.16554827 2.4369022 7.077956e-21)
(-0.23098494 2.3257889 0)
(-0.18284741 2.355399 0)
(-0.15046542 2.7382495 -5.3546601e-20)
(-0.13210329 2.7476153 2.2305136e-21)
(-0.24933229 2.1605807 -9.5396837e-20)
(-0.24358538 2.0939974 9.6081404e-20)
(-0.20514503 1.8892593 0)
(-0.21334628 1.9300852 0)
(-0.21898859 1.966864 0)
(-0.11693683 1.7004055 0)
(-0.06089447 1.6286424 0)
(0.48396881 1.9944536 7.4788544e-19)
(0.50293548 2.0218877 3.2968362e-19)
(0.59455466 2.645096 -2.3575548e-19)
(0.38243065 2.7754568 5.8543388e-19)
(0.40191942 2.2482203 3.6947768e-20)
(1.3977208 0.025444173 0)
(1.33232 0.022880759 0)
(1.154133 0.015996156 0)
(1.9791178 0.012930812 0)
(1.9599873 0.0092623094 0)
(1.7224958 0.016323835 0)
(1.6261494 0.015786357 0)
(1.6428203 0.021780001 0)
(1.3482151 -0.030227722 9.5671997e-19)
(1.0977079 -0.014295072 -1.1681101e-18)
(1.3016954 -0.033879469 -1.0709775e-18)
(1.1844277 -0.04441995 1.4265919e-18)
(0.98968753 1.73657 0)
(0.87864171 1.884635 5.9432472e-19)
(1.1294097 1.5980074 2.7250174e-19)
(1.1852442 1.5978937 -3.6295428e-19)
(1.2752074 2.712002 4.3360572e-19)
(1.0319299 0.12430056 8.5551693e-19)
(1.4643282 0.20015963 0)
(1.5069874 0.29681053 -5.7310103e-19)
(1.4588053 0.25912372 -2.2350339e-20)
(1.4472858 0.11520249 0)
(0.23197575 2.9340573 8.003058e-19)
(0.11684637 2.8219161 -1.8967974e-18)
(0.049123722 2.3734153 1.2065543e-18)
(0.079952281 0.072388849 -6.1054871e-19)
(0.37320762 3.4717996 -8.1006712e-20)
(0.23987099 3.3759432 0)
(0.2525829 3.4403215 1.1419572e-19)
(0.27539379 3.0925367 -2.0382652e-18)
(0.4091698 3.180664 0)
(0.014659022 3.1192389 6.7065826e-20)
(0.017815737 3.1325066 -7.2364123e-19)
(0.032732374 3.1176543 1.1247206e-18)
(0.03998736 3.1487636 0)
(0.038121616 3.1576487 0)
(1.3581564 2.8084535 0)
(0.72522745 1.0935291 -7.1256951e-19)
(1.3453458 1.3641509 -7.7848539e-20)
(1.2573171 1.4161516 0)
(1.0902422 1.2881035 -1.0469649e-19)
(1.3662139 1.1937204 4.62823e-20)
(0.46103986 0.53648409 -1.432761e-18)
(0.95070359 0.44346058 -4.0899502e-20)
(0.90651222 0.38064451 6.3857059e-19)
(0.77855796 0.56249579 4.6916746e-20)
(0.66871524 0.51599707 -1.9388178e-18)
(0.90217814 0.48366468 0)
(0.94191233 0.5834382 1.0379426e-18)
(0.96326442 0.55317738 0)
(0.83706739 0.52369269 0)
(0.80496562 0.45396558 0)
(1.0465483 0.82334009 5.7521344e-19)
(1.5148584 0.4173002 -6.154862e-19)
(1.5250181 0.58493933 0)
(1.5375367 0.54797758 0)
(1.0015295 0.29630065 9.5395186e-19)
(1.0737371 0.72633422 -5.7709004e-19)
(1.0055358 0.6977135 1.0172692e-18)
(1.2557994 0.53893739 -1.050702e-18)
(1.2797368 -0.017900478 6.1644594e-19)
(1.2542585 -0.0048495576 -6.2991377e-19)
(1.053079 -0.0084253279 0)
(1.401967 0.05515977 0)
(1.3668495 0.043616633 -5.9931305e-19)
(1.1973435 0.047258909 5.9256129e-19)
(1.8023684 -0.0082093116 0)
(1.6895385 -0.027769061 0)
(1.9079849 -0.005799263 0)
(1.6749671 -0.0091540875 0)
(1.9454637 0.0065696372 0)
(1.9339903 0.0051314644 0)
(0.069756045 1.8510727 0)
(0.061284258 1.8309572 0)
(0.16481582 1.8079686 1.6786799e-19)
(0.32070147 1.9763717 2.2388005e-19)
(0.19278576 1.9631557 5.0712419e-19)
(0.2173388 1.9873622 -8.1157451e-19)
(0.21019563 1.8513917 0)
(0.16840102 1.9631632 7.4771749e-20)
(0.14532745 1.9480193 0)
(0.37366548 2.2051353 -5.1204363e-20)
(0.35987502 2.5110974 4.8137493e-19)
(0.22943181 1.8974333 -6.6994068e-20)
(0.31433806 1.8496311 1.318429e-19)
(0.25790899 1.8310974 -1.0736117e-19)
(0.34153064 1.7681828 9.1358822e-20)
(0.26707923 1.9388609 0)
(0.31626742 1.9554236 -2.7812592e-20)
(0.030630248 2.4513341 1.7338072e-20)
(0.035455444 2.8679205 0)
(0.05479781 2.5682108 1.7993806e-20)
(0.047903044 2.5719717 0)
(0.057216208 2.8884453 -1.3464653e-19)
(0.046098294 2.9246349 0)
(0.090364798 1.849233 1.6424917e-19)
(0.083426879 1.9185949 0)
(0.062361291 1.843776 0)
(0.068840713 1.814245 -1.8621864e-19)
(0.01395936 2.8373346 -2.2007745e-21)
(0.020628371 2.8738927 1.7219264e-20)
(0.01479942 2.9126657 5.070294e-23)
(0.037624096 2.2258278 -1.468386e-19)
(0.088474367 2.0616736 -6.0674827e-20)
(0.0001605612 1.6760585 0)
(-0.019736993 1.6242348 0)
(0.050927134 1.9711621 -1.6576024e-19)
(0.065423157 1.8762773 -2.0037154e-19)
(0.061741991 1.9317258 2.4216836e-19)
(0.047399266 1.979776 0)
(-0.23394141 2.5253355 2.7670589e-19)
(-0.19276475 2.7092315 -1.0203931e-19)
(-0.19344654 2.6937289 2.8633887e-20)
(-0.00026772927 2.2410346 1.7366104e-19)
(-0.13838551 2.7381859 6.6247378e-20)
(-0.08365833 2.6798362 -1.8640728e-19)
(1.2625886 -0.047202051 -7.8141326e-19)
(1.2721638 -0.050449449 8.5323561e-19)
(1.109742 -0.058477919 0)
(1.4595192 0.025976655 1.4153387e-18)
(1.2045134 -0.029847739 -1.5886861e-18)
(1.1605726 -0.035392424 1.8069018e-18)
(1.4763263 0.056033048 -1.9551911e-19)
(1.3766952 0.061358828 0)
(1.375215 0.064235735 6.8059581e-19)
(1.2873756 0.071009425 -6.7400949e-19)
(1.5611692 0.080352323 -4.4567644e-20)
(1.5564603 0.06728514 3.7635746e-19)
(1.6807837 0.08020289 0)
(1.7611528 0.071183245 -1.4800657e-19)
(1.6747741 0.0070839033 0)
(1.5502066 -0.0087615125 0)
(1.8212516 -0.0099875104 0)
(1.6329864 -0.029988606 0)
(1.7951817 0.021249645 2.8593071e-19)
(1.7897932 0.0058617546 -5.8918843e-19)
(1.7430704 0.06008445 -2.9332664e-19)
(1.7580385 0.059100526 -3.3692702e-19)
(1.6992406 0.10040597 7.0164863e-19)
(1.5493688 0.11395167 0)
(1.5766206 0.15970477 0)
(-0.23797768 2.5126001 1.3523206e-19)
(-0.24616264 2.3585611 8.0918885e-21)
(-0.25549993 2.3723758 0)
(-0.18992142 2.5826596 -1.3979809e-19)
(-0.17988897 2.4711781 -1.4434875e-20)
(-0.16501588 2.537431 1.6261074e-20)
(-0.10699995 2.8436521 -1.3183844e-19)
(-0.1568699 2.7622624 9.432838e-21)
(-0.1544231 2.7547562 -5.1781475e-20)
(-0.13749783 2.8048415 7.2158527e-20)
(-0.12484457 2.80674 -8.753031e-20)
(-0.23913905 2.0116693 -3.7289394e-21)
(-0.2373211 2.1699915 -1.6928987e-19)
(0.48459782 1.8877625 -3.5078578e-19)
(0.44364497 1.8044653 -1.4875093e-19)
(0.84560864 1.899602 -5.7637424e-19)
(0.67140327 1.9862938 -3.1839312e-19)
(0.69831051 1.9902831 0)
(0.6451404 2.607456 2.0595227e-19)
(0.70143661 2.6229592 3.4386742e-19)
(0.44926609 2.706583 1.1265913e-19)
(0.45869464 2.7110152 -4.6332795e-19)
(0.54591125 2.640085 5.1986397e-19)
(0.55575912 2.6621457 0)
(0.48665501 2.7204689 -5.3733791e-19)
(0.22684846 2.7903843 1.0016096e-18)
(0.3347017 2.7771209 -4.8876054e-20)
(0.27011301 2.8659208 -1.4053489e-18)
(1.0249601 2.5482151 7.9576394e-19)
(0.89550069 2.5642577 0)
(1.9507314 0.018811484 1.799602e-20)
(1.6521751 0.023593773 -1.5389368e-20)
(1.670058 0.024931634 -2.7369377e-19)
(1.8689161 0.026694235 2.7439722e-19)
(1.9830012 0.022393757 0)
(0.88282786 1.6761934 0)
(0.84658612 1.5564255 0)
(1.0112832 1.4663331 0)
(0.86970547 1.4812846 0)
(1.2818487 2.745782 1.0204164e-21)
(1.1933785 2.5741911 0)
(0.93886517 2.2733022 3.5635144e-21)
(0.8834528 2.5401695 0)
(0.99885837 2.6125251 -3.2132934e-19)
(1.0273314 2.5991201 2.1958964e-19)
(1.0783729 0.16247765 0)
(1.0315069 0.19759243 2.3968729e-19)
(1.1632315 0.092716084 1.3238713e-18)
(1.0736572 0.091864173 -4.9937285e-19)
(1.016053 0.055354139 -1.5467958e-18)
(1.499754 0.31679396 -1.1392927e-18)
(1.365039 0.37904966 -2.8280346e-20)
(1.2328562 0.3310088 1.2696781e-18)
(1.4005453 0.26152782 1.0394693e-18)
(1.2776526 0.12864044 -1.7671154e-18)
(1.2393927 0.15953627 2.2396066e-19)
(1.2916437 0.24533473 -4.7845104e-19)
(1.2584693 0.22325523 0)
(1.420268 0.154116 8.6815741e-19)
(1.5000964 0.21474878 0)
(1.4739016 0.261954 0)
(1.5304376 0.20550167 3.5043516e-19)
(1.5909929 0.23796677 -2.3356185e-20)
(1.5131332 0.3272725 -1.9748268e-19)
(1.5165452 0.30290885 0)
(1.5230787 -0.0059934642 7.1169395e-19)
(1.7299796 0.045549287 8.7479329e-19)
(1.697889 0.01752473 -6.7732982e-19)
(1.680741 0.060767969 -5.978432e-19)
(1.5074994 0.024395415 -1.0167456e-18)
(1.3560012 0.067295192 0)
(1.3786891 0.053743139 0)
(1.1593444 -0.012935771 -6.5727738e-19)
(1.1189177 -0.0013305953 2.6872951e-19)
(1.5991805 0.085552895 8.977022e-19)
(1.6374822 0.17147974 -1.0239933e-18)
(1.6161761 0.18273171 9.335148e-19)
(1.5873099 0.15199255 0)
(1.6478948 0.14006366 0)
(1.6949217 0.11326301 -3.973157e-19)
(1.6819478 0.094255961 -7.3123263e-19)
(0.73372387 1.4802362 1.2567782e-19)
(0.8177187 1.8290274 -1.5335607e-19)
(1.1822168 2.7805391 -1.464451e-19)
(1.2999555 3.1345638 1.8868642e-20)
(1.3448648 2.8261919 -2.9102863e-19)
(1.3994472 2.8952089 -4.8266176e-20)
(1.2717898 2.5705569 2.6775182e-20)
(1.3331706 3.0579518 -6.8030305e-20)
(1.3409596 3.0749318 1.8190816e-19)
(1.3195818 3.3424587 -1.2733982e-19)
(1.4370447 3.109679 1.3142085e-19)
(1.4547045 3.0385203 0)
(0.73151544 1.1612631 -5.9731194e-20)
(0.27178315 1.3723054 7.7476837e-19)
(0.64249109 0.73682282 9.5147103e-19)
(0.41583804 0.31834834 1.0970733e-18)
(0.68637175 0.56776719 1.0850654e-18)
(0.72943119 0.66351641 -1.7796239e-18)
(0.71019136 0.68328931 1.4409244e-18)
(0.62598043 0.59274658 -5.6197133e-19)
(0.54706084 0.4897374 1.2787978e-18)
(1.0312285 0.34071194 -5.358817e-19)
(0.97989604 0.38839563 0)
(0.94451814 0.34476605 1.8302462e-20)
(0.95069308 0.70362658 5.5480127e-19)
(0.92365107 0.66323925 -2.0177785e-18)
(0.78420422 0.67756733 3.0658092e-20)
(0.82450345 0.63757315 0)
(0.84250731 1.0326884 5.6093662e-19)
(1.0605638 1.0300503 4.6276132e-19)
(0.98377458 1.1610749 -5.3563608e-19)
(1.1136127 1.0525882 -1.961793e-19)
(1.224726 1.1253997 -3.73552e-20)
(1.1893779 1.124812 3.7696254e-20)
(1.1135563 0.84419267 -9.6405046e-19)
(1.1619339 0.94828271 1.8404225e-19)
(1.2682057 0.95446743 0)
(1.2912853 0.90958376 -2.5668178e-19)
(1.3819682 0.42175958 3.0414003e-19)
(1.4924404 0.43389844 3.658901e-19)
(1.467372 0.38124704 4.8000825e-19)
(1.3359861 0.50140573 -6.2078604e-19)
(1.3839673 0.5662037 0)
(1.4290245 0.55541678 0)
(1.2042439 0.47834271 8.8951783e-21)
(1.1362557 0.37744191 0)
(1.1712122 0.34605175 6.2154253e-19)
(1.2151341 0.35446201 -2.8551131e-20)
(1.2346849 0.58090735 2.7499475e-18)
(1.153639 0.66781851 7.5577021e-19)
(1.157458 0.60481565 -8.4826155e-19)
(1.0936285 0.58832816 9.1471699e-19)
(1.0551061 0.59737337 5.5527836e-19)
(1.0135701 0.562422 -5.4400386e-19)
(1.6374687 0.039698189 4.9323215e-19)
(1.9330318 0.02501643 0)
(1.8970489 0.033178828 3.3011898e-19)
(1.6594091 0.037448848 -7.435293e-19)
(1.9086928 0.0097130289 3.6902646e-19)
(1.8617272 -0.010592895 -7.7894606e-19)
(1.6806087 -0.021944245 0)
(1.5737732 -0.015525103 -1.5611525e-19)
(1.835118 -0.0068594952 3.9004343e-19)
(1.6681265 -0.0073433353 -1.9969953e-19)
(1.6030658 -0.0080536708 1.4739646e-19)
(0.044153932 1.812909 0)
(0.052380466 1.8234531 0)
(0.057163069 1.8330551 0)
(0.04307342 1.8090927 0)
(0.072198548 1.8312595 -3.6281453e-19)
(0.090784497 1.8121237 1.2108821e-19)
(0.12318993 1.8924981 6.1536514e-20)
(0.10736653 1.7886883 -9.0775066e-20)
(0.056803053 1.8827252 2.0190086e-19)
(0.051623163 1.8742498 -1.5609992e-19)
(0.066410016 1.8247783 -1.7034557e-20)
(0.06457094 1.836629 2.4858607e-19)
(0.056738666 1.8246797 3.5291223e-20)
(0.055826038 1.8386037 2.7155923e-20)
(0.081566007 2.5194953 -1.8598704e-20)
(0.093056145 2.5536103 0)
(0.15458263 2.2600622 3.4375368e-20)
(0.13749041 2.0361303 -1.2717208e-20)
(0.26759426 2.2259151 -4.4515105e-20)
(0.23369214 2.6103487 0)
(0.27664795 2.5965395 -4.3567621e-19)
(0.32693523 2.4946719 3.1334055e-19)
(0.22912646 2.1874073 -9.2833989e-20)
(0.17570774 2.3535048 9.2576233e-20)
(0.16419997 2.4945033 0)
(0.027878792 2.1926109 1.3366288e-19)
(0.026233366 2.5614512 1.5016301e-19)
(0.026317405 2.3443213 0)
(0.014214997 2.6261146 -1.537153e-20)
(0.029076097 2.4545995 -4.6461728e-20)
(0.067927013 1.8033858 -3.4633388e-20)
(0.035672382 1.7460907 5.3704006e-19)
(0.058804921 1.7672443 -1.596956e-19)
(0.10239933 1.8222259 -1.7956626e-19)
(0.10224596 1.8541766 0)
(0.017652804 1.7122895 0)
(-0.059100931 1.6474421 -2.0462634e-19)
(-0.048769137 1.6893615 6.6137873e-20)
(-0.010209281 1.6919802 0)
(-0.024356249 1.6389758 -1.5231375e-19)
(-0.042168799 1.6125553 3.0355447e-19)
(1.5723243 0.040958946 0)
(1.5600812 0.040664787 -6.3053298e-20)
(1.8660891 0.028408978 -4.8998534e-19)
(1.7214959 0.043569468 0)
(1.5520843 0.039955689 0)
(1.8461878 0.020627012 1.5454554e-20)
(1.8557522 0.020052014 6.9117208e-19)
(1.7325322 -0.012076298 9.1539754e-19)
(1.6216058 -0.026848668 0)
(1.5431591 -0.025706981 0)
(1.7101064 -5.3527023e-05 4.9003261e-19)
(1.5580481 -0.012884586 0)
(1.5347072 -0.030038753 0)
(-0.17712653 2.4039565 0)
(-0.21714181 2.1987612 -1.943902e-20)
(-0.21698037 2.3257876 -6.5411643e-20)
(-0.085554841 1.7424181 0)
(-0.19462357 2.0690992 -1.1289129e-19)
(-0.205921 1.9409236 5.6329483e-20)
(-0.14933558 1.7577517 0)
(0.49838573 1.9040812 0)
(0.44347402 1.6909403 2.18934e-19)
(0.40698965 1.7075804 0)
(0.53554787 1.7300584 -3.7848542e-19)
(0.63419436 1.9002915 0)
(0.56861089 1.8436584 2.0976805e-19)
(1.1143797 2.8026419 -1.571071e-20)
(1.0458777 2.5672109 -9.1677586e-19)
(1.0413616 2.4592665 1.0284865e-18)
(0.92291408 2.5506807 2.7526209e-19)
(0.91365132 2.6075426 0)
(0.97813058 2.5875702 0)
(1.0001579 2.5530341 0)
(0.98012382 2.5506524 -9.958146e-19)
(0.7395966 2.5513794 -3.4996747e-19)
(0.86336773 2.5783239 -8.7078929e-20)
(0.86433994 2.5303632 6.9674955e-20)
(0.75115092 2.5852828 0)
(0.85193966 2.576537 0)
(0.80726456 2.5963667 -3.7224105e-19)
(0.80858358 2.6016879 0)
(0.81298291 1.4391479 0)
(0.69413369 1.261348 -5.3891309e-19)
(0.76539671 1.2771782 -3.3362581e-20)
(0.73726686 1.3775901 0)
(0.72575437 1.3497655 8.2485852e-19)
(1.0036045 1.2034869 -1.3316359e-19)
(1.0213193 1.3380462 0)
(1.0238018 1.2608757 1.8620841e-19)
(0.84376125 1.3983389 0)
(0.86420225 1.2782029 0)
(1.2515576 2.8215077 -2.2770209e-19)
(1.2110124 2.8595096 -1.5735554e-19)
(1.0019958 2.3679076 2.6295108e-19)
(1.0023328 2.398474 -9.591407e-20)
(1.2212513 2.8105336 0)
(1.1788572 2.7654514 1.2222526e-19)
(1.2062564 2.6459615 -2.5996894e-19)
(1.1175354 2.4899697 -2.9637156e-20)
(0.68290084 1.6827888 0)
(0.68847816 1.4710929 -1.1062976e-19)
(0.73127934 1.5316807 0)
(1.1526434 0.25842563 0)
(1.0595055 0.22311724 0)
(0.98539819 0.23662766 0)
(1.1430773 0.29451061 -9.6462796e-19)
(1.0475876 0.27584879 5.6466204e-19)
(1.1154025 -0.00031227736 -5.3065432e-19)
(1.1920981 0.047295811 0)
(1.1715578 0.068771426 2.3940887e-19)
(1.0678599 0.030295783 9.7435701e-19)
(1.0215477 0.0099708084 -6.1630076e-19)
(1.3287618 3.4677209 -3.8037613e-19)
(1.3104658 3.3992181 0)
(1.3496646 3.4223128 -8.4188448e-19)
(0.53588392 3.5235582 8.0541543e-19)
(0.78265654 3.0557063 -2.2932949e-19)
(0.63707684 1.1661464 7.6318633e-19)
(0.60972471 1.1820879 0)
(0.54773682 0.75187422 -2.3385772e-19)
(0.64261304 1.0181852 1.1777579e-18)
(0.6650998 0.71156953 -3.257883e-19)
(0.65257482 0.75175608 3.6332567e-19)
(0.83523848 0.73327343 7.6099505e-19)
(0.91158811 0.75653273 0)
(0.8349214 0.86323277 0)
(0.77160682 0.81472986 0)
(1.270441 0.79452265 9.0598082e-20)
(1.1736364 0.72262898 -7.2058542e-19)
(1.1815179 0.76828183 5.4233912e-19)
(1.23501 0.68536505 -5.5587645e-19)
(1.3695505 0.68094935 0)
(1.3842291 0.74514508 -1.277364e-19)
(1.1117499 0.53131619 -1.2577505e-18)
(1.1355747 0.51188226 -1.5022437e-18)
(1.0663439 0.51887554 9.8102566e-19)
(1.0586725 0.48990332 -1.0162531e-18)
(1.133892 0.423577 -7.8393807e-19)
(1.0652484 0.4225493 9.7296714e-19)
(1.8882587 0.013829936 -4.1469496e-19)
(1.9113202 0.016004357 8.4143939e-19)
(1.6337315 0.039525034 5.2171056e-19)
(1.6444767 0.043855275 -6.2104328e-19)
(1.7293697 0.040237965 0)
(1.8962363 0.030662076 -1.1154219e-18)
(0.054619352 2.0157542 -1.3521863e-20)
(0.048339156 1.9545552 0)
(0.088733244 2.0103665 -5.1276298e-20)
(0.10573041 2.0012725 4.2952076e-20)
(0.084764804 1.9180044 -1.0909465e-19)
(0.071570403 1.9112565 0)
(-0.0087413019 2.1781865 0)
(-0.019642068 1.9011706 6.1977295e-20)
(-0.075156318 1.8559772 -5.6072557e-20)
(-0.15227605 2.0547535 -1.7040893e-20)
(-0.13015672 2.3556107 1.1053855e-19)
(-0.10231155 2.3697222 -5.3840996e-20)
(0.662725 1.6853299 -1.5739694e-19)
(0.62445781 1.7235126 1.6899906e-19)
(0.57635407 1.7030861 1.8654167e-19)
(0.57898922 1.6611502 1.3994703e-21)
(0.82162001 1.7104783 0)
(0.70020795 1.8145901 3.7667673e-19)
(0.77105153 1.8266975 -3.6567399e-19)
(0.61014809 1.7191599 -1.8510486e-19)
(0.68405718 1.6469107 0)
(0.73459353 1.6171331 0)
(0.71675016 2.5212361 5.1233774e-19)
(0.71734505 2.5919269 1.1291846e-18)
(0.76372122 2.5912761 -8.1156493e-19)
(0.6355311 2.5997889 -1.8025569e-19)
(0.62349359 2.6569673 2.6964779e-19)
(0.57647573 2.6288333 -6.891801e-19)
(1.0909094 2.5485719 -5.542925e-19)