/*--------------------------------*- C++ -*----------------------------------*\
  =========                 |
  \\      /  F ield         | OpenFOAM: The Open Source CFD Toolbox
   \\    /   O peration     | Website:  https://openfoam.org
    \\  /    A nd           | Version:  9
     \\/     M anipulation  |
\*---------------------------------------------------------------------------*/
FoamFile
{
    format      ascii;
    class       volScalarField;
    location    "16";
    object      p;
}
// * * * * * * * * * * * * * * * * * * * * * * * * * * * * * * * * * * * * * //

dimensions      [0 2 -2 0 0 0 0];

internalField   nonuniform List<scalar> 
400
(
1.0215591e-06
-0.00067147234
-0.0013835595
-0.0019405173
-0.0022174429
-0.0021536355
-0.0017247063
-0.00092298736
0.00023865752
0.0017105692
0.0033902995
0.0051150338
0.0066761862
0.0078518045
0.0084612632
0.0084269073
0.0078170877
0.0068487016
0.0058658075
0.0053035683
0.00065874907
-3.9334168e-05
-0.00056817376
-0.00093881935
-0.0011087288
-0.0010374774
-0.00070306964
-9.259413e-05
0.00079221201
0.0019193799
0.0032127783
0.0045578484
0.0057850728
0.0067194104
0.0072177427
0.0072181396
0.006773941
0.0060571278
0.0053151387
0.0047432402
0.0014242056
0.00044156289
-0.00011537659
-0.00045170283
-0.00061292691
-0.00058257022
-0.00034397532
0.00012268498
0.00083167432
0.0017732992
0.0028977576
0.0041016345
0.0052316991
0.0061144743
0.0065975157
0.0066015754
0.0061599945
0.005426119
0.0045986332
0.0037532844
0.002014311
0.00068235801
1.7798506e-05
-0.00035747446
-0.0005697673
-0.00062432043
-0.0005073558
-0.00018743516
0.00037209418
0.0011882528
0.0022339105
0.0034214439
0.0045953493
0.0055609163
0.0061276166
0.0061708386
0.0056882173
0.0048220025
0.0037525769
0.0024791526
0.0021671597
0.00049669584
-0.00029526857
-0.00074730441
-0.0010563464
-0.001242763
-0.0012895847
-0.0011474972
-0.0007506978
-4.8362923e-05
0.00096194717
0.0022152261
0.0035495593
0.0047374021
0.0055265484
0.0057146926
0.0052343419
0.0042070061
0.0028119682
0.00099013923
0.0016539337
-0.00031373514
-0.0012375783
-0.0017975957
-0.0022503093
-0.0026247686
-0.0028946116
-0.0029862174
-0.0027969359
-0.0022315564
-0.0012447345
0.000137286
0.0017508585
0.0033330442
0.0045473329
0.0050713638
0.004723177
0.0035721657
0.0017959692
-0.00071902296
0.00028747687
-0.0019183266
-0.0029712436
-0.0036690245
-0.0043171161
-0.0049490042
-0.0055248013
-0.005941522
-0.0060516012
-0.0056992664
-0.0047672005
-0.003250205
-0.0012583306
0.00091485086
0.0028302519
0.0039935391
0.0040316341
0.002894382
0.00072243731
-0.0026728014
-0.0020750644
-0.0044490903
-0.0056241558
-0.0064889519
-0.0073885325
-0.0083601053
-0.0093498537
-0.010223308
-0.010781252
-0.010794197
-0.010052219
-0.008450594
-0.0060300235
-0.0030732326
-0.00011723766
0.0021208504
0.0029715077
0.0021431231
-0.00035821705
-0.0048640682
-0.0055214904
-0.007988832
-0.0092740752
-0.010329106
-0.011532105
-0.012927995
-0.01445358
-0.01594548
-0.017150097
-0.017752512
-0.017423924
-0.015905257
-0.013109252
-0.0092390397
-0.0048875704
-0.0010198859
0.0012785075
0.0012863186
-0.00132535
-0.0071923244
-0.010072629
-0.012560408
-0.013931424
-0.015177836
-0.016710839
-0.018593328
-0.020762935
-0.023035519
-0.02510667
-0.026569997
-0.026952243
-0.025795719
-0.022829045
-0.018058977
-0.01203719
-0.0059397678
-0.0013600844
0.00031021906
-0.0019378639
-0.0093722302
-0.015678955
-0.018126236
-0.019530883
-0.020919171
-0.02274863
-0.025118866
-0.027983847
-0.03115108
-0.034274227
-0.036858177
-0.038274699
-0.037824579
-0.035046956
-0.029583873
-0.021806625
-0.012971658
-0.0051729507
-0.00070520094
-0.0017543404
-0.010781986
-0.022235865
-0.024605455
-0.025937636
-0.027326088
-0.029313824
-0.032066953
-0.035574454
-0.039647946
-0.043908634
-0.04778128
-0.050509542
-0.051216139
-0.048937166
-0.043125165
-0.033752373
-0.021911658
-0.010024179
-0.001404447
8.880075e-08
-0.01021566
-0.029632025
-0.031915165
-0.032969844
-0.034070228
-0.035928535
-0.038818684
-0.042780619
-0.047634428
-0.05297155
-0.058143401
-0.062263661
-0.064245387
-0.062856122
-0.057094706
-0.04646102
-0.031635176
-0.015025715
-0.00085383606
0.0046561374
-0.0055126488
-0.037855791
-0.040039056
-0.040430796
-0.040742744
-0.042004206
-0.044640546
-0.04874362
-0.054127423
-0.060337719
-0.066646074
-0.072041363
-0.075249806
-0.074794424
-0.06925423
-0.057615176
-0.039950063
-0.018237919
0.0027979286
0.014453054
0.0069145657
-0.047219964
-0.049124743
-0.048131448
-0.046873154
-0.046895633
-0.048787355
-0.05265499
-0.058260709
-0.065059206
-0.072214327
-0.078578344
-0.082696156
-0.082866068
-0.077297621
-0.064514414
-0.043927175
-0.016741341
0.012508945
0.03294425
0.032413456
-0.058886544
-0.059630822
-0.055875759
-0.051933352
-0.049964218
-0.050620439
-0.053917213
-0.059481867
-0.066596742
-0.074269451
-0.081175752
-0.085665556
-0.085820371
-0.079513611
-0.064870212
-0.040685396
-0.0072382492
0.032141788
0.064983817
0.077750869
-0.076217563
-0.072606053
-0.063509815
-0.055429859
-0.050719302
-0.049774472
-0.052303113
-0.057652877
-0.06487854
-0.072760884
-0.079765723
-0.084024785
-0.083382329
-0.075342805
-0.057599585
-0.028374494
0.012932428
0.065395729
0.11555084
0.15150519
-0.10808529
-0.089550693
-0.071229791
-0.05722998
-0.049068879
-0.046325425
-0.048070124
-0.053192966
-0.060422997
-0.068283281
-0.075015148
-0.078516293
-0.076380993
-0.065804883
-0.043863923
-0.0078195537
0.044390894
0.11299497
0.18837748
0.27185762
-0.17684051
-0.10828565
-0.076200414
-0.054650179
-0.042990998
-0.038994986
-0.040564969
-0.045919857
-0.053431216
-0.06142691
-0.068016294
-0.070952736
-0.067543924
-0.054735447
-0.029147493
0.01356225
0.078143808
0.1700604
0.28949145
0.47421439
-0.3720786
-0.12470487
-0.054971399
-0.031962131
-0.02206307
-0.020298542
-0.024355069
-0.031950952
-0.041252246
-0.050630201
-0.058306014
-0.062177557
-0.059774632
-0.048051886
-0.022656599
0.021473555
0.092816177
0.21014926
0.40288471
0.77640568
)
;

boundaryField
{
    movingWall
    {
        type            zeroGradient;
    }
    fixedWalls
    {
        type            zeroGradient;
    }
    frontAndBack
    {
        type            empty;
    }
}


// ************************************************************************* //
