/*--------------------------------*- C++ -*----------------------------------*\
  =========                 |
  \\      /  F ield         | OpenFOAM: The Open Source CFD Toolbox
   \\    /   O peration     | Website:  https://openfoam.org
    \\  /    A nd           | Version:  9
     \\/     M anipulation  |
\*---------------------------------------------------------------------------*/
FoamFile
{
    format      ascii;
    class       surfaceScalarField;
    location    "16";
    object      phi;
}
// * * * * * * * * * * * * * * * * * * * * * * * * * * * * * * * * * * * * * //

dimensions      [0 3 -1 0 0 0 0];

internalField   nonuniform List<scalar> 
760
(
1.2686219e-05
-1.2698294e-05
-2.8729722e-05
4.1415925e-05
-0.00012227036
9.3540719e-05
-0.00025033408
0.00012806376
-0.00039596555
0.00014563152
-0.00054523252
0.00014926706
-0.00068606679
0.00014083433
-0.00080664908
0.0001205823
-0.00089468435
8.8035225e-05
-0.00093811525
4.3430882e-05
-0.00092701287
-1.1102348e-05
-0.00085663477
-7.0378043e-05
-0.00073025362
-0.0001263811
-0.00056122704
-0.0001690265
-0.00037270571
-0.00018852127
-0.00019446766
-0.00017823805
-5.6543694e-05
-0.00013792398
1.9587006e-05
-7.6130633e-05
3.0396156e-05
-1.0808968e-05
3.0396312e-05
-4.3176075e-05
3.0477769e-05
-0.00020450889
0.00020274868
-0.00046817679
0.00035720868
-0.00080044339
0.00046033046
-0.0011669574
0.00051214565
-0.0015359288
0.00051823847
-0.0018775931
0.00048249856
-0.0021629597
0.0004059488
-0.002363771
0.00028884644
-0.0024545725
0.00013423244
-0.0024174091
-4.8265664e-05
-0.0022447142
-0.00024307275
-0.0019470377
-0.00042405749
-0.0015540951
-0.00056196908
-0.001114091
-0.00062852547
-0.00068736627
-0.0006049628
-0.0003345008
-0.00049078956
-0.00010091012
-0.00030972143
-1.5650509e-06
-0.00011015421
2.8831429e-05
-0.00010998948
0.00014046734
-0.00040288623
0.0004956454
-0.00083108426
0.00078540675
-0.0013451251
0.00097437143
-0.0018979087
0.0010649294
-0.0024457024
0.0010660322
-0.0029469925
0.00098378858
-0.00336146
0.00082041639
-0.0036506694
0.00057805586
-0.0037810985
0.00026466156
-0.0037286733
-0.00010069077
-0.0034847912
-0.00048695475
-0.0030624298
-0.00084641871
-0.0024993532
-0.0011250456
-0.0018578016
-0.0012700771
-0.0012178958
-0.0012448685
-0.0006636278
-0.0010450574
-0.00026306355
-0.00071028555
-4.7960069e-05
-0.00032525768
-1.9128537e-05
-0.00017337043
0.0003138378
-0.00059305845
0.00091533342
-0.001177238
0.0013695863
-0.0018576615
0.001654795
-0.0025759466
0.0017832145
-0.0032801119
0.0017701976
-0.0039214031
0.0016250797
-0.0044526077
0.0013516211
-0.0048286625
0.0009541107
-0.0050096443
0.00044564339
-0.004965748
-0.00014458699
-0.0046830795
-0.00076962309
-0.0041712052
-0.0013582929
-0.0034682284
-0.0018280225
-0.0026433676
-0.0020949379
-0.0017927984
-0.0020954378
-0.001025643
-0.0018122127
-0.00044013916
-0.0012957892
-9.6712837e-05
-0.00066868391
-0.0001158413
-0.00022969992
0.00054353772
-0.0007647669
0.0014504004
-0.0014909024
0.0020957219
-0.0023216655
0.0024855581
-0.0031889656
0.0026505147
-0.0040353848
0.0026166168
-0.0048083863
0.0023980812
-0.0054571671
0.0020004019
-0.0059323127
0.0014292564
-0.0061879531
0.00070128383
-0.0061866237
-0.00014591624
-0.005903956
-0.0010522908
-0.0053390156
-0.0019232333
-0.0045219826
-0.0026450555
-0.0035221332
-0.0030947872
-0.0024492458
-0.0031683251
-0.0014422276
-0.0028192308
-0.00064110183
-0.0020969148
-0.00014881015
-0.0011609755
-0.00026465142
-0.00027718508
0.00082072276
-0.00091119228
0.0020844077
-0.0017600695
0.0029445991
-0.0027218229
0.0034473115
-0.0037209141
0.003649606
-0.0046971241
0.0035928269
-0.0055971034
0.0032980605
-0.0063692548
0.0027725532
-0.0069617193
0.0020217209
-0.0073228308
0.0010623954
-0.007405536
-6.3211045e-05
-0.007169916
-0.0012879107
-0.0065973172
-0.0024958321
-0.0057003691
-0.0035420035
-0.004539006
-0.0042561503
-0.0032311395
-0.0044761916
-0.0019486068
-0.0041017635
-0.00088710352
-0.0031584181
-0.0002115512
-0.0018365278
-0.00047620268
-0.00031399778
0.0011347205
-0.0010259709
0.0027963809
-0.0019728277
0.003891456
-0.0030407477
0.0045152316
-0.0041494031
0.0047582615
-0.0052383657
0.0046817895
-0.0062562886
0.0043159835
-0.0071536013
0.0036698659
-0.0078783732
0.0027464927
-0.0083748474
0.0015588696
-0.0085834519
0.00014539343
-0.008449505
-0.0014218576
-0.0079278626
-0.0030174746
-0.0070035581
-0.004466308
-0.0057139166
-0.0055457918
-0.0041727643
-0.0060173438
-0.0025813394
-0.0056931885
-0.0012038672
-0.0045358903
-0.00029444413
-0.0027459509
-0.0007706469
-0.00033813917
0.0014728597
-0.0011028286
0.0035610704
-0.0021170057
0.0049056331
-0.0032589628
0.0056571888
-0.0044462035
0.0059455022
-0.0056205248
0.0058561109
-0.0067353338
0.0054307925
-0.0077462342
0.0046807663
-0.0086045832
0.0036048416
-0.0092534541
0.0022077405
-0.0096252593
0.00051719858
-0.0096475345
-0.0013995825
-0.009247436
-0.0034175731
-0.0083725717
-0.0053411723
-0.0070209253
-0.0068974382
-0.00528094
-0.0077573291
-0.0033670961
-0.0076070325
-0.0016170791
-0.0062859074
-0.00040819194
-0.0039548382
-0.0011788389
-0.00034807034
0.0018209301
-0.0011369442
0.0043499443
-0.0021822852
0.0059509742
-0.003357876
0.0068327798
-0.0045812796
0.0071689058
-0.0057986808
0.007073512
-0.0069709247
0.0066030364
-0.0080623199
0.0057721615
-0.0090320605
0.0045745821
-0.0098276147
0.0030032946
-0.010379923
0.0010695066
-0.010603219
-0.0011762866
-0.010399533
-0.0036212583
-0.0096737408
-0.0060669649
-0.0083676521
-0.0082035269
-0.0065148524
-0.0096101288
-0.0043092995
-0.0098125854
-0.0021480094
-0.0084471975
-0.00056483297
-0.0055380147
-0.0017436719
-0.00034388511
0.0021648153
-0.0011276951
0.0051337544
-0.0021643952
0.0069876742
-0.0033254309
0.0079938156
-0.004530193
0.008373668
-0.0057312309
0.0082745499
-0.006899445
0.0077712504
-0.0080115809
0.0068842973
-0.0090400309
0.0056030321
-0.0099441935
0.0039074572
-0.010662645
0.0017879581
-0.011106004
-0.00073292734
-0.011162679
-0.0035645833
-0.010696384
-0.0065332605
-0.0095818699
-0.0093180407
-0.007766113
-0.011425886
-0.0053709787
-0.01220772
-0.002806866
-0.01101131
-0.00077826633
-0.0075666144
-0.0025219382
-0.00032890332
0.0024937186
-0.0010823899
0.0058872411
-0.0020706982
0.0079759825
-0.0031634807
0.009086598
-0.0042837281
0.0094939154
-0.0053926622
0.0093834841
-0.0064739608
0.0088525489
-0.0075204047
0.0079307411
-0.0085228243
0.0066054517
-0.009460299
0.0048449319
-0.010291321
0.0026189801
-0.010933188
-9.1060698e-05
-0.011283129
-0.0032146414
-0.011173463
-0.006642927
-0.010415439
-0.010076065
-0.0088463808
-0.012994943
-0.0064553928
-0.014598708
-0.0035812632
-0.01388544
-0.0010641203
-0.010083757
-0.0035860583
-0.00031182887
0.0028055474
-0.0010207942
0.0065962065
-0.0019262823
0.0088814707
-0.0028951919
0.010055508
-0.0038571879
0.010455911
-0.0047859401
0.010312236
-0.005681226
0.0097478349
-0.0065550045
0.0088045197
-0.007420523
0.0074709702
-0.0082825238
0.0057069328
-0.0091258766
0.003462333
-0.0099093638
0.0006924266
-0.010527887
-0.0025961186
-0.010827492
-0.0063433212
-0.010573906
-0.010329652
-0.009493272
-0.014075577
-0.0073910368
-0.016700943
-0.004418759
-0.016857717
-0.0014371258
-0.01306539
-0.005023184
-0.00031013587
0.0031156831
-0.00098062557
0.0072666962
-0.0017794921
0.0096803373
-0.0025699841
0.010846
-0.003295377
0.011181304
-0.0039488302
0.01096569
-0.004551044
0.010350049
-0.0051359831
0.0093894589
-0.0057412173
0.0080762045
-0.0063998873
0.0063656029
-0.0071315116
0.0041939573
-0.0079316112
0.0014925262
-0.008740055
-0.0017876749
-0.0094314293
-0.0056519469
-0.0097693993
-0.0099916819
-0.0094008595
-0.014444117
-0.0079307981
-0.018171004
-0.0052061699
-0.019582345
-0.0019025652
-0.016368995
-0.0069257492
-0.00035617542
0.0034718584
-0.0010243867
0.0079349074
-0.001704907
0.010360858
-0.002261754
0.011402847
-0.002666929
0.011586479
-0.0029454334
0.011244194
-0.0031458486
0.010550464
-0.0033265989
0.0095702093
-0.0035490106
0.0082986163
-0.0038729021
0.0066894945
-0.0043510169
0.0046720722
-0.0050201648
0.0021616741
-0.0058782788
-0.00092956095
-0.0068593179
-0.004670908
-0.0077775133
-0.0090734866
-0.0082667317
-0.013954898
-0.0077692701
-0.018668466
-0.0057513009
-0.021600315
-0.0024366853
-0.01968361
-0.0093624345
-0.00050842586
0.0039802844
-0.0012461135
0.0086725951
-0.001796734
0.010911479
-0.0020492103
0.011655323
-0.0020340374
0.011571306
-0.0018272178
0.011037374
-0.0015141736
0.01023742
-0.0011799602
0.0092359958
-0.00090686255
0.0080255187
-0.00077585744
0.0065584894
-0.00086556578
0.0047617806
-0.0012493312
0.0025454395
-0.0019846646
-0.0001942276
-0.0030835184
-0.0035720544
-0.0044614464
-0.0076955589
-0.0058285996
-0.012587745
-0.0065669138
-0.017930151
-0.0057688196
-0.022398409
-0.0029513111
-0.022501119
-0.012313746
-0.00086872373
0.0048490083
-0.0017634928
0.0095673643
-0.0021222711
0.011270257
-0.0019381661
0.011471218
-0.0013526012
0.010985742
-0.00051815261
0.010202926
0.00043488527
0.0092843818
0.0013973581
0.008273523
0.0022701069
0.00715277
0.0029587034
0.0058698929
0.0033670525
0.0043534315
0.0033948532
0.0025176388
0.0029367757
0.00026384985
0.0019080314
-0.0025433102
0.00026831808
-0.0060558456
-0.0018552838
-0.010464144
-0.0039524186
-0.015833017
-0.0048612986
-0.021489529
-0.0032548468
-0.02410757
-0.015568592
-0.001591216
0.0064402244
-0.0026112837
0.010587432
-0.0025139466
0.01117292
-0.0015911116
0.010548383
-0.00017373311
0.0095683629
0.001490947
0.0085382455
0.0032308472
0.0075444816
0.004921087
0.0065832831
0.006460841
0.0056130161
0.0077554223
0.0045753116
0.0087055683
0.0034032856
0.0091997388
0.0020234683
0.0091017894
0.00036179923
0.0082737436
-0.0017152644
0.0065643162
-0.0043464182
0.0039033018
-0.0078031291
0.00055826877
-0.012487983
-0.0024684958
-0.018462764
-0.0030274828
-0.023548583
-0.018596075
-0.00271841
0.0091586345
-0.0031500883
0.011019111
-0.0018035006
0.0098263327
0.00046587206
0.0082790106
0.0030882683
0.0069459667
0.0057723746
0.0058541391
0.0083612513
0.0049556047
0.010758626
0.0041859081
0.012891691
0.003479951
0.014688916
0.0027780869
0.01606673
0.0020254719
0.016921848
0.0011683509
0.017118486
0.00016516096
0.016489814
-0.0010865926
0.014816022
-0.0026726262
0.01184601
-0.004833117
0.0074349934
-0.0080769666
0.0022626011
-0.013290372
-0.0012726172
-0.020013365
-0.019868692
-0.0024132363
0.011571871
2.8069273e-05
0.0085778046
0.0042550223
0.0055993796
0.0084157911
0.0041182418
0.012230898
0.00313086
0.015655427
0.0024296096
0.018685504
0.0019255281
0.021328008
0.0015434039
0.02358225
0.0012257087
0.02542801
0.00093232725
0.026819053
0.00063442884
0.027676226
0.00031117894
0.027899408
-5.802166e-05
0.027346626
-0.00053380979
0.025771203
-0.0010972037
0.022842747
-0.0019046614
0.018054559
-0.0032887783
0.011113447
-0.0063492596
0.0033886166
-0.012288534
-0.016480076
0.011571871
0.020149676
0.025749056
0.029867298
0.032998158
0.035427767
0.037353295
0.038896699
0.040122408
0.041054736
0.041689164
0.042000343
0.041942322
0.041408512
0.040311308
0.038406647
0.035117869
0.028768609
0.016480076
)
;

boundaryField
{
    movingWall
    {
        type            calculated;
        value           uniform 0;
    }
    fixedWalls
    {
        type            calculated;
        value           uniform 0;
    }
    frontAndBack
    {
        type            empty;
        value           nonuniform List<scalar> 0();
    }
}


// ************************************************************************* //
