/*--------------------------------*- C++ -*----------------------------------*\
  =========                 |
  \\      /  F ield         | OpenFOAM: The Open Source CFD Toolbox
   \\    /   O peration     | Website:  https://openfoam.org
    \\  /    A nd           | Version:  9
     \\/     M anipulation  |
\*---------------------------------------------------------------------------*/
FoamFile
{
    format      ascii;
    class       surfaceScalarField;
    location    "16";
    object      phi_0;
}
// * * * * * * * * * * * * * * * * * * * * * * * * * * * * * * * * * * * * * //

dimensions      [0 3 -1 0 0 0 0];

internalField   nonuniform List<scalar> 
760
(
1.268614e-05
-1.269824e-05
-2.8729767e-05
4.1415889e-05
-0.00012227027
9.3540559e-05
-0.00025033381
0.00012806352
-0.00039596506
0.00014563124
-0.00054523176
0.00014926676
-0.00068606573
0.00014083404
-0.00080664775
0.00012058208
-0.00089468279
8.8035118e-05
-0.00093811365
4.3430895e-05
-0.00092701138
-1.1102236e-05
-0.00085663353
-7.0377854e-05
-0.0007302527
-0.00012638084
-0.00056122645
-0.00016902619
-0.00037270542
-0.00018852097
-0.00019446761
-0.0001782378
-5.654377e-05
-0.00013792384
1.9586897e-05
-7.613063e-05
3.0396106e-05
-1.0809104e-05
3.0396242e-05
-4.3176035e-05
3.0477759e-05
-0.0002045086
0.00020274832
-0.00046817602
0.00035720801
-0.00080044202
0.0004603296
-0.0011669554
0.00051214467
-0.0015359261
0.0005182375
-0.0018775897
0.00048249771
-0.0021629557
0.00040594817
-0.0023637667
0.00028884609
-0.0024545682
0.0001342324
-0.002417405
-4.8265371e-05
-0.0022447107
-0.00024307209
-0.0019470349
-0.00042405654
-0.0015540931
-0.00056196798
-0.0011140897
-0.00062852437
-0.00068736566
-0.00060496186
-0.00033450064
-0.00049078894
-0.00010091021
-0.00030972122
-1.5651392e-06
-0.00011015428
2.8831185e-05
-0.00010998931
0.00014046707
-0.00040288546
0.00049564444
-0.0008310826
0.00078540518
-0.0013451225
0.00097436949
-0.0018979051
0.0010649273
-0.0024456977
0.0010660302
-0.0029469868
0.00098378684
-0.0033614536
0.00082041508
-0.0036506627
0.00057805513
-0.0037810918
0.00026466152
-0.003728667
-0.0001006901
-0.0034847856
-0.0004869534
-0.0030624253
-0.0008464168
-0.0024993498
-0.0011250434
-0.0018577992
-0.0012700749
-0.0012178944
-0.0012448666
-0.00066362721
-0.0010450561
-0.0002630634
-0.00071028491
-4.7960043e-05
-0.0003252576
-1.9128743e-05
-0.00017337006
0.00031383717
-0.0005930572
0.00091533156
-0.0011772355
0.0013695836
-0.0018576577
0.0016547916
-0.0025759414
0.001783211
-0.0032801054
0.0017701943
-0.0039213954
0.0016250769
-0.0044525993
0.001351619
-0.0048286537
0.00095410954
-0.0050096355
0.00044564333
-0.0049657397
-0.00014458589
-0.0046830722
-0.00076962091
-0.004171199
-0.0013582899
-0.0034682235
-0.0018280189
-0.0026433641
-0.0020949342
-0.0017927961
-0.0020954346
-0.0010256418
-0.0018122103
-0.00044013871
-0.0012957878
-9.6712744e-05
-0.0006686835
-0.00011584145
-0.0002296994
0.00054353658
-0.00076476524
0.0014503974
-0.0014908992
0.0020957176
-0.0023216607
0.0024855531
-0.0031889592
0.0026505096
-0.0040353769
0.0026166121
-0.0048083773
0.0023980772
-0.0054571572
0.0020003989
-0.0059323024
0.0014292547
-0.0061879429
0.00070128377
-0.006186614
-0.00014591468
-0.0059039472
-0.0010522877
-0.005339008
-0.001923229
-0.0045219764
-0.0026450504
-0.0035221286
-0.003094782
-0.0024492427
-0.0031683204
-0.0014422259
-0.0028192271
-0.00064110108
-0.0020969125
-0.00014880998
-0.0011609746
-0.00026465146
-0.00027718446
0.000820721
-0.00091119036
0.0020844033
-0.0017600659
0.0029445931
-0.0027218175
0.0034473048
-0.0037209071
0.0036495992
-0.0046971156
0.0035928206
-0.0055970936
0.0032980553
-0.0063692441
0.0027725494
-0.0069617083
0.0020217189
-0.0073228198
0.0010623954
-0.0074055254
-6.3208982e-05
-0.0071699063
-0.0012879068
-0.0065973086
-0.0024958266
-0.0057003619
-0.0035419971
-0.0045390005
-0.0042561434
-0.0032311357
-0.0044761852
-0.0019486045
-0.0041017582
-0.00088710247
-0.0031584145
-0.00021155096
-0.001836526
-0.00047620246
-0.00031399713
0.0011347181
-0.0010259689
0.0027963751
-0.001972824
0.0038914483
-0.0030407422
0.0045152231
-0.004149396
0.004758253
-0.0052383572
0.0046817818
-0.0062562789
0.0043159771
-0.0071535908
0.0036698614
-0.0078783623
0.0027464903
-0.0083748365
0.0015588697
-0.0085834413
0.00014539587
-0.008449495
-0.001421853
-0.0079278536
-0.0030174681
-0.0070035505
-0.0044663002
-0.0057139105
-0.0055457834
-0.0041727599
-0.0060173356
-0.0025813366
-0.0056931814
-0.0012038659
-0.0045358851
-0.00029444382
-0.0027459481
-0.00077064627
-0.00033813858
0.0014728567
-0.0011028268
0.0035610634
-0.0021170023
0.0049056238
-0.0032589578
0.0056571786
-0.004446197
0.0059454922
-0.0056205171
0.0058561019
-0.0067353251
0.0054307852
-0.0077462248
0.0046807612
-0.0086045734
0.003604839
-0.0092534443
0.0022077406
-0.0096252497
0.0005172013
-0.0096475254
-0.0013995773
-0.0092474276
-0.0034175659
-0.0083725643
-0.0053411636
-0.0070209191
-0.0068974286
-0.0052809353
-0.0077573194
-0.003367093
-0.0076070236
-0.0016170776
-0.0062859005
-0.00040819156
-0.0039548342
-0.0011788378
-0.0003480699
0.0018209266
-0.0011369428
0.0043499362
-0.0021822825
0.0059509636
-0.0033578721
0.0068327683
-0.0045812745
0.0071688946
-0.0057986747
0.0070735021
-0.0069709178
0.0066030284
-0.0080623126
0.005772156
-0.0090320529
0.0045745794
-0.0098276072
0.0030032948
-0.010379915
0.0010695095
-0.010603212
-0.0011762812
-0.010399527
-0.0036212508
-0.0096737345
-0.0060669557
-0.0083676465
-0.0082035166
-0.0065148479
-0.009610118
-0.0043092963
-0.0098125752
-0.0021480077
-0.0084471892
-0.00056483248
-0.0055380094
-0.0017436702
-0.00034388488
0.0021648115
-0.0011276943
0.0051337457
-0.0021643935
0.0069876628
-0.0033254284
0.0079938033
-0.0045301898
0.0083736561
-0.0057312271
0.0082745394
-0.0068994408
0.0077712422
-0.0080115765
0.0068842917
-0.0090400265
0.0056030294
-0.0099441893
0.0039074575
-0.010662641
0.0017879611
-0.011106
-0.00073292196
-0.011162675
-0.0035645758
-0.01069638
-0.0065332514
-0.0095818659
-0.0093180303
-0.0077661093
-0.011425875
-0.0053709758
-0.012207709
-0.0028068643
-0.011011301
-0.00077826575
-0.007566608
-0.002521936
-0.00032890331
0.0024937148
-0.0010823897
0.0058872323
-0.0020706978
0.0079759709
-0.00316348
0.0090865855
-0.0042837271
0.0094939033
-0.0053926612
0.0093834735
-0.0064739598
0.0088525407
-0.0075204038
0.0079307358
-0.0085228238
0.0066054494
-0.0094602988
0.0048449324
-0.010291321
0.0026189833
-0.010933187
-9.1055506e-05
-0.011283129
-0.0032146343
-0.011173462
-0.0066429185
-0.010415437
-0.010076055
-0.0088463787
-0.012994933
-0.0064553907
-0.014598697
-0.0035812617
-0.01388543
-0.0010641197
-0.01008375
-0.0035860557
-0.00031182909
0.0028055439
-0.0010207947
0.0065961981
-0.0019262833
0.0088814595
-0.0028951933
0.010055495
-0.0038571895
0.0104559
-0.0047859422
0.010312226
-0.0056812285
0.0097478271
-0.0065550074
0.0088045148
-0.0074205264
0.0074709682
-0.0082825277
0.0057069337
-0.0091258806
0.0034623362
-0.0099093679
0.00069243173
-0.01052789
-0.002596112
-0.010827495
-0.0063433135
-0.010573907
-0.010329643
-0.0094932722
-0.014075568
-0.0073910361
-0.016700933
-0.0044187581
-0.016857708
-0.0014371254
-0.013065383
-0.0050231811
-0.00031013631
0.0031156802
-0.00098062688
0.0072666889
-0.0017794945
0.0096803272
-0.0025699875
0.010845988
-0.0032953812
0.011181293
-0.0039488352
0.01096568
-0.0045510498
0.010350042
-0.0051359896
0.0093894546
-0.0057412244
0.008076203
-0.0063998948
0.0063656041
-0.0071315193
0.0041939606
-0.0079316187
0.0014925312
-0.0087400618
-0.0017876688
-0.0094314351
-0.0056519401
-0.0097694036
-0.0099916747
-0.0094008621
-0.014444109
-0.007930799
-0.018170996
-0.0052061698
-0.019582337
-0.0019025649
-0.016368988
-0.006925746
-0.00035617609
0.0034718563
-0.0010243887
0.0079349015
-0.0017049108
0.010360849
-0.0022617593
0.011402837
-0.0026669356
0.01158647
-0.0029454411
0.011244186
-0.0031458572
0.010550458
-0.0033266082
0.0095702056
-0.0035490205
0.0082986153
-0.0038729122
0.0066894959
-0.0043510272
0.0046720756
-0.0050201747
0.0021616788
-0.0058782881
-0.00092955538
-0.006859326
-0.0046709021
-0.0077775199
-0.0090734807
-0.0082667364
-0.013954892
-0.0077692728
-0.018668459
-0.0057513018
-0.021600308
-0.0024366853
-0.019683604
-0.0093624313
-0.00050842672
0.0039802832
-0.0012461162
0.0086725909
-0.0017967388
0.010911472
-0.002049217
0.011655315
-0.0020340457
0.011571299
-0.0018272275
0.011037368
-0.0015141843
0.010237415
-0.0011799715
0.0092359928
-0.00090687415
0.0080255179
-0.00077586911
0.0065584908
-0.00086557725
0.0047617837
-0.0012493421
0.0025454438
-0.0019846748
-0.00019422269
-0.0030835275
-0.0035720493
-0.004461454
-0.0076955541
-0.0058286054
-0.012587741
-0.0065669176
-0.017930147
-0.0057688214
-0.022398404
-0.0029513115
-0.022501114
-0.012313743
-0.00086872465
0.0048490079
-0.0017634957
0.0095673619
-0.0021222762
0.011270253
-0.0019381734
0.011471212
-0.0013526105
0.010985736
-0.00051816326
0.01020292
0.00043487369
0.0092843778
0.001397346
0.0082735205
0.0022700946
0.0071527693
0.0029586913
0.005869894
0.0033670409
0.0043534339
0.0033948424
0.0025176422
0.0029367659
0.00026385382
0.0019080227
-0.0025433061
0.00026831069
-0.0060558419
-0.0018552897
-0.01046414
-0.0039524229
-0.015833014
-0.0048613009
-0.021489526
-0.0032548475
-0.024107567
-0.01556859
-0.0015912168
0.0064402247
-0.0026112862
0.010587431
-0.0025139513
0.011172918
-0.0015911184
0.01054838
-0.00017374176
0.009568359
0.001490937
0.0085382418
0.0032308362
0.0075444787
0.0049210756
0.0065832812
0.0064608294
0.0056130155
0.007755411
0.0045753123
0.0087055576
0.0034032873
0.009199729
0.0020234708
0.0091017807
0.00036180205
0.0082737362
-0.0017152616
0.00656431
-0.0043464157
0.0039032969
-0.0078031271
0.00055826518
-0.012487982
-0.002468498
-0.018462763
-0.0030274837
-0.023548582
-0.018596074
-0.0027184103
0.0091586351
-0.0031500896
0.01101911
-0.0018035035
0.0098263318
0.00046586733
0.0082790089
0.0030882619
0.0069459646
0.0057723668
0.005854137
0.0083612426
0.004955603
0.010758617
0.004185907
0.012891682
0.0034799507
0.014688907
0.0027780872
0.016066721
0.0020254728
0.01692184
0.0011683523
0.017118479
0.00016516252
0.016489809
-0.001086591
0.014816018
-0.0026726248
0.011846007
-0.004833116
0.0074349909
-0.008076966
0.0022625994
-0.013290371
-0.001272618
-0.020013364
-0.019868692
-0.0024132363
0.011571871
2.8069228e-05
0.0085778049
0.0042550216
0.0055993795
0.0084157891
0.0041182414
0.012230894
0.0031308594
0.015655423
0.0024296089
0.018685498
0.0019255276
0.021328002
0.0015434035
0.023582244
0.0012257086
0.025428004
0.00093232734
0.026819047
0.00063442913
0.02767622
0.00031117937
0.027899404
-5.8021065e-05
0.027346622
-0.00053380927
0.025771201
-0.0010972032
0.022842746
-0.0019046611
0.018054558
-0.0032887782
0.011113447
-0.0063492597
0.0033886163
-0.012288534
-0.016480076
0.011571872
0.020149677
0.025749056
0.029867297
0.032998157
0.035427766
0.037353293
0.038896697
0.040122405
0.041054733
0.041689162
0.042000341
0.04194232
0.041408511
0.040311308
0.038406647
0.035117869
0.028768609
0.016480076
)
;

boundaryField
{
    movingWall
    {
        type            calculated;
        value           uniform 0;
    }
    fixedWalls
    {
        type            calculated;
        value           uniform 0;
    }
    frontAndBack
    {
        type            empty;
        value           nonuniform List<scalar> 0();
    }
}


// ************************************************************************* //
