/*--------------------------------*- C++ -*----------------------------------*\
  =========                 |
  \\      /  F ield         | OpenFOAM: The Open Source CFD Toolbox
   \\    /   O peration     | Website:  https://openfoam.org
    \\  /    A nd           | Version:  9
     \\/     M anipulation  |
\*---------------------------------------------------------------------------*/
FoamFile
{
    format      ascii;
    class       volVectorField;
    location    "16";
    object      U;
}
// * * * * * * * * * * * * * * * * * * * * * * * * * * * * * * * * * * * * * //

dimensions      [0 1 -1 0 0 0 0];

internalField   nonuniform List<vector> 
400
(
(0.0002842185 -0.00028131578 0)
(0.00011035991 7.9978373e-05 0)
(-0.0013271146 0.00047792422 0)
(-0.0036211017 0.00073573069 0)
(-0.0064219517 0.00086726642 0)
(-0.0094287901 0.00090698875 0)
(-0.012384336 0.00087458524 0)
(-0.015051911 0.00077127848 0)
(-0.017189364 0.00058830304 0)
(-0.018547331 0.00032000164 0)
(-0.01889716 -2.4761158e-05 0)
(-0.018081177 -0.00041807286 0)
(-0.01607581 -0.00079940546 0)
(-0.01304602 -0.0010926969 0)
(-0.009364721 -0.0012208348 0)
(-0.0055771129 -0.0011291961 0)
(-0.0023005933 -0.00081274148 0)
(-8.3527636e-05 -0.00033801883 0)
(0.00075968579 0.00015212525 0)
(0.00040927654 0.00038918009 0)
(-8.6131726e-05 -0.00012344519 0)
(-0.0018688583 0.0017868055 0)
(-0.0063046423 0.0036249549 0)
(-0.012448675 0.0048609291 0)
(-0.019594146 0.0054967116 0)
(-0.027097854 0.0056187945 0)
(-0.03434735 0.0052842772 0)
(-0.040755286 0.0045029391 0)
(-0.045743167 0.0032652874 0)
(-0.048760323 0.0015893999 0)
(-0.049351466 -0.00043493986 0)
(-0.047240014 -0.0026168922 0)
(-0.042440375 -0.0046626266 0)
(-0.035352625 -0.0062166695 0)
(-0.026772691 -0.0069353772 0)
(-0.017824051 -0.0065904785 0)
(-0.0097744159 -0.0051786993 0)
(-0.0037463864 -0.0029991548 0)
(-0.00038919893 -0.00066590075 0)
(0.00028967585 0.00078308909 0)
(-0.00058790587 0.0014333644 0)
(-0.004241322 0.0063755135 0)
(-0.0117543 0.010636997 0)
(-0.021460858 0.013478965 0)
(-0.032354425 0.014893161 0)
(-0.043572314 0.015012262 0)
(-0.054268156 0.013931554 0)
(-0.063620449 0.011680639 0)
(-0.0708319 0.0082792281 0)
(-0.07516382 0.003828345 0)
(-0.076015746 -0.001404227 0)
(-0.073035989 -0.006932095 0)
(-0.066248015 -0.012066721 0)
(-0.056154583 -0.015994426 0)
(-0.04377024 -0.01793696 0)
(-0.030562606 -0.017375076 0)
(-0.018247364 -0.014286678 0)
(-0.0084169085 -0.009310855 0)
(-0.0021511335 -0.0037619495 0)
(-2.1063902e-06 0.00031631378 0)
(-0.0010526419 0.0042990291 0)
(-0.0065122718 0.01356098 0)
(-0.016992463 0.020856625 0)
(-0.030019327 0.025552115 0)
(-0.044283858 0.027751697 0)
(-0.058762604 0.027678505 0)
(-0.072461492 0.025479376 0)
(-0.084417505 0.021212194 0)
(-0.09369744 0.014941661 0)
(-0.099432124 0.0068782141 0)
(-0.10089902 -0.0024979759 0)
(-0.097634148 -0.012371922 0)
(-0.089568072 -0.021596379 0)
(-0.077161842 -0.028814338 0)
(-0.061489813 -0.032695561 0)
(-0.044243416 -0.032290772 0)
(-0.027556416 -0.02743926 0)
(-0.013579269 -0.019077138 0)
(-0.0040258157 -0.0092698963 0)
(-0.00026776264 -0.0011087851 0)
(-0.0014552318 0.008361986 0)
(-0.0085455368 0.023172599 0)
(-0.021737534 0.034039048 0)
(-0.037777776 0.040748263 0)
(-0.055076128 0.043686335 0)
(-0.07249309 0.043244438 0)
(-0.088953068 0.039649016 0)
(-0.10342343 0.032992213 0)
(-0.11489498 0.023379385 0)
(-0.12239906 0.011116827 0)
(-0.1250785 -0.0031237758 0)
(-0.12228564 -0.018209546 0)
(-0.11373118 -0.032528077 0)
(-0.099672887 -0.044116869 0)
(-0.081080793 -0.050950172 0)
(-0.05976247 -0.051426753 0)
(-0.038282755 -0.045002536 0)
(-0.019516427 -0.032748837 0)
(-0.0060912112 -0.017489388 0)
(-0.00051096946 -0.0035222453 0)
(-0.0017881636 0.013470257 0)
(-0.010265585 0.034947531 0)
(-0.025795545 0.049890021 0)
(-0.044450196 0.058773548 0)
(-0.064404591 0.062436733 0)
(-0.084448431 0.061530807 0)
(-0.10348244 0.056399187 0)
(-0.12046568 0.047170063 0)
(-0.13436389 0.033964066 0)
(-0.1441332 0.017132629 0)
(-0.14876364 -0.0025290073 0)
(-0.14735585 -0.02362335 0)
(-0.13927734 -0.044124597 0)
(-0.12440658 -0.061420927 0)
(-0.10340835 -0.072620197 0)
(-0.078038824 -0.075153409 0)
(-0.051249985 -0.067690248 0)
(-0.02680387 -0.05111334 0)
(-0.0086105545 -0.028960763 0)
(-0.00078692168 -0.0070516769 0)
(-0.002041223 0.019428949 0)
(-0.011601361 0.048510528 0)
(-0.028985541 0.06797337 0)
(-0.049740811 0.079198086 0)
(-0.071868203 0.083629427 0)
(-0.094132815 0.082272138 0)
(-0.11546599 0.075628511 0)
(-0.13487746 0.063861835 0)
(-0.15136364 0.047068275 0)
(-0.16384445 0.025568116 0)
(-0.17115269 0.00017147799 0)
(-0.17211674 -0.027594688 0)
(-0.16568091 -0.055374185 0)
(-0.15116136 -0.079919325 0)
(-0.12867514 -0.097323021 0)
(-0.099650537 -0.10367162 0)
(-0.067228742 -0.096263437 0)
(-0.036112057 -0.075204323 0)
(-0.011927347 -0.044531722 0)
(-0.0011705543 -0.011999983 0)
(-0.0022005442 0.026003458 0)
(-0.012480776 0.063396237 0)
(-0.031130476 0.087733325 0)
(-0.053339017 0.1014559 0)
(-0.076996279 0.10674316 0)
(-0.10088543 0.10504305 0)
(-0.1240193 0.097063069 0)
(-0.14551802 0.083003679 0)
(-0.16447416 0.062893187 0)
(-0.1798399 0.036931139 0)
(-0.19036361 0.0058051289 0)
(-0.19462135 -0.029015275 0)
(-0.19110409 -0.064992716 0)
(-0.17846053 -0.098360383 0)
(-0.15599963 -0.124144 0)
(-0.12442461 -0.13672973 0)
(-0.086632187 -0.13130003 0)
(-0.048055467 -0.10621127 0)
(-0.016426352 -0.065381234 0)
(-0.0017533967 -0.018875539 0)
(-0.0022551426 0.032921332 0)
(-0.012850619 0.079060852 0)
(-0.0320914 0.10849851 0)
(-0.054969362 0.12482437 0)
(-0.079317655 0.13105383 0)
(-0.10397295 0.12916435 0)
(-0.12807597 0.12012308 0)
(-0.15091867 0.10418176 0)
(-0.17176984 0.081268383 0)
(-0.189717 0.051375851 0)
(-0.20354889 0.014925691 0)
(-0.21170249 -0.026856645 0)
(-0.21229966 -0.071504952 0)
(-0.20331413 -0.11499254 0)
(-0.18304091 -0.15140977 0)
(-0.15099915 -0.17324703 0)
(-0.10915123 -0.17278699 0)
(-0.063017443 -0.14521644 0)
(-0.022521418 -0.09296166 0)
(-0.0026584124 -0.028417593 0)
(-0.0022083382 0.039891179 0)
(-0.012715277 0.094913469 0)
(-0.031836666 0.1294997 0)
(-0.054488926 0.14841452 0)
(-0.078489103 0.15559274 0)
(-0.10275752 0.15362858 0)
(-0.12660626 0.14381577 0)
(-0.14956058 0.12649257 0)
(-0.17115479 0.10148221 0)
(-0.19074 0.068517576 0)
(-0.2073119 0.027638279 0)
(-0.21936289 -0.020374274 0)
(-0.22487306 -0.073433893 0)
(-0.22129178 -0.12765432 0)
(-0.20583999 -0.17658161 0)
(-0.1764621 -0.21095113 0)
(-0.13333436 -0.21957399 0)
(-0.080890624 -0.19272138 0)
(-0.03063804 -0.12883167 0)
(-0.0040693608 -0.041630441 0)
(-0.0020933887 0.046649374 0)
(-0.012189539 0.1103863 0)
(-0.030535218 0.14992325 0)
(-0.052015454 0.1711968 0)
(-0.074461797 0.17914789 0)
(-0.096916047 0.17708197 0)
(-0.11891012 0.16669897 0)
(-0.1402631 0.14848206 0)
(-0.16085961 0.1221827 0)
(-0.18044186 0.087273769 0)
(-0.19840248 0.043363882 0)
(-0.21353652 -0.0093694105 0)
(-0.22401366 -0.069649149 0)
(-0.22708056 -0.1341 0)
(-0.21908521 -0.19641529 0)
(-0.19626004 -0.24621139 0)
(-0.15621173 -0.2688196 0)
(-0.10069957 -0.24795217 0)
(-0.041142312 -0.17431015 0)
(-0.006269772 -0.059825208 0)
(-0.0019967268 0.053043942 0)
(-0.011567089 0.12505165 0)
(-0.028663995 0.16900278 0)
(-0.048060878 0.19206297 0)
(-0.067643833 0.20031222 0)
(-0.08665056 0.19787424 0)
(-0.10490411 0.18693739 0)
(-0.12257941 0.16819917 0)
(-0.1399758 0.1414007 0)
(-0.15731098 0.1058013 0)
(-0.17453001 0.060583597 0)
(-0.19109847 0.0052455276 0)
(-0.2056155 -0.05989652 0)
(-0.21551731 -0.13257714 0)
(-0.21690916 -0.20749323 0)
(-0.20458146 -0.27428051 0)
(-0.17317419 -0.31567886 0)
(-0.12016782 -0.30804332 0)
(-0.054144619 -0.22985635 0)
(-0.0096740064 -0.084642456 0)
(-0.0021003416 0.059172137 0)
(-0.011418191 0.13878642 0)
(-0.02712244 0.1861335 0)
(-0.043635527 0.20990331 0)
(-0.058995226 0.21755937 0)
(-0.072794925 0.21416144 0)
(-0.08526998 0.20244606 0)
(-0.097023857 0.18337692 0)
(-0.1088136 0.15674969 0)
(-0.12137705 0.12168986 0)
(-0.13528168 0.077027591 0)
(-0.15073049 0.021637034 0)
(-0.16714852 -0.04508701 0)
(-0.18276368 -0.12248895 0)
(-0.19407282 -0.2070965 0)
(-0.19524857 -0.29008274 0)
(-0.17830144 -0.35355115 0)
(-0.13540715 -0.36740437 0)
(-0.069087812 -0.29412529 0)
(-0.014794253 -0.11797236 0)
(-0.0027687219 0.065610141 0)
(-0.012745843 0.15197341 0)
(-0.027340618 0.20096217 0)
(-0.040260959 0.22364447 0)
(-0.049950291 0.2292929 0)
(-0.05666974 0.22400495 0)
(-0.061262786 0.21105626 0)
(-0.064849292 0.19166718 0)
(-0.068656204 0.16571588 0)
(-0.0739118 0.13227824 0)
(-0.081765341 0.089972624 0)
(-0.093156606 0.037218095 0)
(-0.10850405 -0.027457592 0)
(-0.12724563 -0.10495309 0)
(-0.14708166 -0.19419655 0)
(-0.16282494 -0.28946126 0)
(-0.16510501 -0.37507262 0)
(-0.14090833 -0.41769904 0)
(-0.084062714 -0.3627889 0)
(-0.022011238 -0.16156159 0)
(-0.0047207893 0.073828025 0)
(-0.017228333 0.16570712 0)
(-0.031297575 0.21334995 0)
(-0.03970392 0.23214154 0)
(-0.041910982 0.23377033 0)
(-0.039384341 0.22536691 0)
(-0.033850274 0.2105919 0)
(-0.02704119 0.1907988 0)
(-0.020634566 0.16589487 0)
(-0.016258417 0.13494431 0)
(-0.015518662 0.096482645 0)
(-0.019966219 0.048706456 0)
(-0.030956828 -0.010393722 0)
(-0.049269281 -0.082900827 0)
(-0.074429983 -0.17012399 0)
(-0.10330214 -0.27048399 0)
(-0.1272733 -0.37367636 0)
(-0.12974591 -0.44866753 0)
(-0.094918453 -0.42748699 0)
(-0.030930898 -0.2161166 0)
(-0.0093011841 0.086948905 0)
(-0.02743824 0.18184095 0)
(-0.04099576 0.2230132 0)
(-0.042701915 0.23376485 0)
(-0.034435491 0.22877715 0)
(-0.019659062 0.21590083 0)
(-0.0012795296 0.19876337 0)
(0.018301545 0.17855496 0)
(0.037026349 0.15508107 0)
(0.053010997 0.1273637 0)
(0.064378617 0.09394624 0)
(0.069190641 0.053028474 0)
(0.065378053 0.0024784943 0)
(0.051013974 -0.060323316 0)
(0.024613435 -0.13836185 0)
(-0.013726943 -0.23415836 0)
(-0.058773368 -0.34515824 0)
(-0.093523674 -0.44952752 0)
(-0.094475277 -0.47557488 0)
(-0.039217019 -0.28047382 0)
(-0.018581128 0.11087142 0)
(-0.04604466 0.20177068 0)
(-0.055242295 0.22791938 0)
(-0.044005003 0.22500108 0)
(-0.019400193 0.21059507 0)
(0.012299239 0.19226362 0)
(0.046954171 0.17277214 0)
(0.081712305 0.15264605 0)
(0.11439497 0.13135036 0)
(0.14311101 0.10779832 0)
(0.16597674 0.080598868 0)
(0.18094427 0.048122619 0)
(0.18554306 0.0084613825 0)
(0.17713675 -0.040805396 0)
(0.15273458 -0.10316545 0)
(0.10946797 -0.18389755 0)
(0.047223673 -0.2885479 0)
(-0.021451054 -0.41050406 0)
(-0.072258462 -0.49100993 0)
(-0.04114871 -0.3505373 0)
(-0.033352278 0.15561731 0)
(-0.068603838 0.2204034 0)
(-0.055194408 0.21728676 0)
(-0.016091848 0.19531525 0)
(0.034491431 0.17091259 0)
(0.088481962 0.14848403 0)
(0.14173779 0.12860387 0)
(0.19193486 0.1105718 0)
(0.23750495 0.093295324 0)
(0.27708466 0.07557634 0)
(0.3091845 0.056185825 0)
(0.33201274 0.03382996 0)
(0.34314904 0.0070352177 0)
(0.33980644 -0.025902572 0)
(0.31811425 -0.067734921 0)
(0.27326272 -0.1241029 0)
(0.20043586 -0.20584402 0)
(0.10213156 -0.32506679 0)
(-0.012391534 -0.45456916 0)
(-0.023757746 -0.40863845 0)
(-0.033080533 0.23907505 0)
(-0.042646157 0.21792135 0)
(0.042206601 0.16426522 0)
(0.12760037 0.12783251 0)
(0.20768903 0.10143089 0)
(0.28026753 0.081653295 0)
(0.34485435 0.066643929 0)
(0.4015607 0.05470017 0)
(0.45052626 0.044398289 0)
(0.49159566 0.034640486 0)
(0.52413833 0.024552667 0)
(0.54696517 0.013384853 0)
(0.55820474 0.00040333858 0)
(0.55569544 -0.015133716 0)
(0.53551597 -0.034966085 0)
(0.49243946 -0.062486067 0)
(0.41796783 -0.10694661 0)
(0.30410257 -0.19317511 0)
(0.12313586 -0.33691884 0)
(0.052373565 -0.39437894 0)
(0.24299993 0.15257545 0)
(0.30529799 0.11854378 0)
(0.45481418 0.076108506 0)
(0.5600098 0.050839926 0)
(0.63223196 0.035125336 0)
(0.68654512 0.024811351 0)
(0.72943153 0.017959212 0)
(0.76378749 0.013255322 0)
(0.79126928 0.0097620035 0)
(0.81274131 0.0068545936 0)
(0.82840205 0.0041191115 0)
(0.83793622 0.0012776702 0)
(0.84056507 -0.0018434967 0)
(0.8349722 -0.005325528 0)
(0.81886548 -0.0098283203 0)
(0.78942847 -0.016232355 0)
(0.73784332 -0.026935592 0)
(0.65316808 -0.05128663 0)
(0.45609785 -0.11374619 0)
(0.31788989 -0.17206016 0)
)
;

boundaryField
{
    movingWall
    {
        type            fixedValue;
        value           uniform (1 0 0);
    }
    fixedWalls
    {
        type            fixedValue;
        value           uniform (0 0 0);
    }
    frontAndBack
    {
        type            empty;
    }
}


// ************************************************************************* //
