/*--------------------------------*- C++ -*----------------------------------*\
  =========                 |
  \\      /  F ield         | OpenFOAM: The Open Source CFD Toolbox
   \\    /   O peration     | Website:  https://openfoam.org
    \\  /    A nd           | Version:  9
     \\/     M anipulation  |
\*---------------------------------------------------------------------------*/
FoamFile
{
    format      ascii;
    class       volScalarField;
    location    "41";
    object      p;
}
// * * * * * * * * * * * * * * * * * * * * * * * * * * * * * * * * * * * * * //

dimensions      [0 2 -2 0 0 0 0];

internalField   nonuniform List<scalar> 
400
(
3.9636214e-09
-0.00067287155
-0.0013853493
-0.0019427076
-0.002220001
-0.0021564973
-0.0017277918
-0.00092620072
0.00023541908
0.0017074027
0.0033872825
0.0051121898
0.0066734663
0.0078490839
0.0084583677
0.0084236659
0.0078133875
0.0068445174
0.0058613065
0.0052989556
0.00065784306
-4.0524241e-05
-0.00056965781
-0.00094062339
-0.0011108615
-0.0010399199
-0.00070578896
-9.5542949e-05
0.00078910056
0.001916185
0.0032095815
0.0045546998
0.0057819588
0.0067162517
0.0072144171
0.0072145216
0.0067699501
0.0060527683
0.0053105306
0.004738493
0.0014237005
0.00044065073
-0.00011659924
-0.00045324206
-0.00061480731
-0.00058481106
-0.00034658158
0.00011974106
0.00082845779
0.001769905
0.0028942907
0.0040981681
0.0052282506
0.006110988
0.0065938793
0.0065976644
0.0061557288
0.0054215
0.0045937397
0.00374823
0.0020141953
0.00068168532
1.6768706e-05
-0.00035885378
-0.00057154964
-0.00062656056
-0.00051008546
-0.00019063558
0.00036849678
0.001184382
0.0022299116
0.00341743
0.0045913748
0.005556954
0.006123564
0.0061665603
0.0056836098
0.004817037
0.0037472819
0.0024735895
0.0021672656
0.00049611501
-0.00029626133
-0.00074870756
-0.0010582552
-0.0012452718
-0.0012927506
-0.0011513072
-0.00075506106
-5.3115657e-05
0.00095700851
0.0022102683
0.0035446982
0.0047326588
0.0055218429
0.0057098812
0.0052292787
0.0042015941
0.0028061734
0.00098395083
0.0016539558
-0.00031448393
-0.0012387909
-0.0017993039
-0.0022526654
-0.0026279123
-0.0028986227
-0.0029910861
-0.0028025499
-0.0022377017
-0.0012511257
0.00013086232
0.0017446226
0.0033270954
0.0045416369
0.0050657749
0.0047174905
0.003566191
0.0017895829
-0.00072593315
0.00028701797
-0.0019195771
-0.0029730038
-0.0036713863
-0.0043203008
-0.0049532055
-0.0055301227
-0.0059479527
-0.0060590065
-0.0057073962
-0.0047757406
-0.0032587224
-0.0012665311
0.00090716208
0.0028231166
0.0039868293
0.0040250877
0.0028876994
0.00071536796
-0.0026805124
-0.0020764361
-0.0044511994
-0.0056268119
-0.0064923293
-0.0073929262
-0.008365769
-0.0093569246
-0.010231778
-0.01079096
-0.010804837
-0.010063369
-0.0084617776
-0.0060407856
-0.0030832344
-0.00012632216
0.0021126089
0.0029638134
0.0021355682
-0.00036604728
-0.0048726236
-0.0055241733
-0.0079921204
-0.0092779295
-0.0103338
-0.011538009
-0.012935426
-0.014462716
-0.015956323
-0.017162458
-0.017766023
-0.017438081
-0.015919489
-0.013122981
-0.0092517811
-0.004899027
-0.0010300336
0.0012693925
0.0012777473
-0.0013339731
-0.007201692
-0.01007692
-0.012565101
-0.01393667
-0.015184015
-0.016718399
-0.018602642
-0.020774217
-0.023048787
-0.025121705
-0.02658636
-0.026969358
-0.025812959
-0.022845702
-0.018074473
-0.012051112
-0.0059519717
-0.0013707567
0.00030057708
-0.0019472189
-0.0093822404
-0.015684998
-0.018132421
-0.019537557
-0.020926814
-0.022757761
-0.025129907
-0.027997036
-0.031166439
-0.034291509
-0.03687688
-0.038294195
-0.0378443
-0.035065879
-0.029601493
-0.021822519
-0.012985596
-0.0051849934
-0.00071576735
-0.0017642154
-0.010792271
-0.022243616
-0.024613053
-0.025945594
-0.027334953
-0.029324172
-0.032079259
-0.035588977
-0.039664686
-0.043927311
-0.047801339
-0.050530219
-0.051236507
-0.048956902
-0.04314357
-0.033769038
-0.021926363
-0.010036902
-0.0014154611
-9.8828492e-06
-0.010225635
-0.029641237
-0.031923918
-0.03297876
-0.034079867
-0.0359395
-0.038831529
-0.042795646
-0.047651618
-0.052990564
-0.058163617
-0.062284279
-0.064265563
-0.062875187
-0.057112212
-0.046476765
-0.031649108
-0.015037881
-0.00086440647
0.0046467483
-0.0055215518
-0.03786603
-0.040048534
-0.040440168
-0.040752538
-0.042015034
-0.044653056
-0.048758213
-0.054144094
-0.060356064
-0.066665374
-0.072060716
-0.075268313
-0.074811392
-0.069269293
-0.05762833
-0.039961528
-0.018247989
0.002789023
0.014445144
0.0069075351
-0.047230619
-0.049134369
-0.048140607
-0.046882351
-0.046905516
-0.048798682
-0.052668298
-0.058276044
-0.065076137
-0.072232028
-0.078595796
-0.082712349
-0.082880236
-0.077309416
-0.064523961
-0.043934974
-0.016748004
0.012502934
0.032938773
0.032408943
-0.058896832
-0.059639896
-0.05588391
-0.051941106
-0.049972371
-0.050629897
-0.053928658
-0.059495361
-0.066611888
-0.074285327
-0.081191197
-0.085679432
-0.085831823
-0.079522218
-0.064876121
-0.040689285
-0.0072409346
0.032139361
0.064981441
0.077749173
-0.076226553
-0.07261379
-0.063516157
-0.05543538
-0.050725064
-0.049781644
-0.052312374
-0.057664391
-0.064891845
-0.072774998
-0.079779395
-0.084036775
-0.083391681
-0.075348986
-0.057602695
-0.028375157
0.012933316
0.065396467
0.1155515
0.15150622
-0.10809224
-0.089556468
-0.071233868
-0.057232983
-0.049072127
-0.046330238
-0.048077297
-0.053202637
-0.06043465
-0.068295892
-0.075027422
-0.078526943
-0.076389035
-0.065809701
-0.043865502
-0.0078184653
0.044393657
0.11299814
0.18838042
0.27186076
-0.17684546
-0.1082898
-0.0762026
-0.054651289
-0.042992397
-0.038998046
-0.040570535
-0.045928072
-0.053441567
-0.061438388
-0.068027615
-0.070962588
-0.067551162
-0.054739861
-0.029148837
0.013563583
0.078146944
0.17006435
0.28949546
0.47421821
-0.37208342
-0.12470846
-0.054973097
-0.031962551
-0.022063582
-0.020300543
-0.024359481
-0.031958027
-0.04126159
-0.050640917
-0.058316932
-0.062187494
-0.059782584
-0.048056838
-0.022658552
0.021474188
0.092818707
0.21015276
0.40288841
0.77640928
)
;

boundaryField
{
    movingWall
    {
        type            zeroGradient;
    }
    fixedWalls
    {
        type            zeroGradient;
    }
    frontAndBack
    {
        type            empty;
    }
}


// ************************************************************************* //
