/*--------------------------------*- C++ -*----------------------------------*\
  =========                 |
  \\      /  F ield         | OpenFOAM: The Open Source CFD Toolbox
   \\    /   O peration     | Website:  https://openfoam.org
    \\  /    A nd           | Version:  9
     \\/     M anipulation  |
\*---------------------------------------------------------------------------*/
FoamFile
{
    format      ascii;
    class       volScalarField;
    location    "8";
    object      p;
}
// * * * * * * * * * * * * * * * * * * * * * * * * * * * * * * * * * * * * * //

dimensions      [0 2 -2 0 0 0 0];

internalField   nonuniform List<scalar> 
918
(
0.41351199
1.6517653
0.012678715
0.3689111
0.0018911806
1.6223794
-1.1228335
1.154717
0.45093007
-0.18441029
0.022298619
0.74964942
1.4938188
1.2556445
-0.92665029
0.022188371
1.0565244
-1.0307271
0.41739793
0.0081977151
1.3301415
0.38125242
0.41709515
0.37212447
0.8673431
1.2665022
1.3563018
-0.0018061213
-1.0511052e-05
-0.0032885032
0.0047069022
-0.0049216619
0.0061437422
1.4986533
1.5526735
1.5763871
0.69670126
0.32795912
-0.88680779
-1.0197788
-0.93332203
-1.207046
1.1265927
1.1322829
-0.51750498
1.1509869
1.1795505
0.57614483
0.45006231
0.45285345
0.37826399
0.42379063
0.43379321
0.3919547
-0.21436834
-0.30550164
-0.12204983
-0.089561522
0.11063824
0.016623204
0.015514166
0.029741682
0.03565311
0.6412168
0.74170484
0.73824418
0.76009015
0.77575332
1.5888615
1.5522748
1.5792812
1.5261133
1.5164208
1.4737376
1.4369026
1.2934556
1.3004164
1.2542562
1.2199667
-1.4744263
-2.5423154
-0.33456515
-0.01515844
0.0019448117
0.029829211
0.037144377
1.0235056
1.0357165
1.0461596
1.0739829
1.0785036
-0.91416757
-1.2441845
0.43071859
0.46162329
0.41456216
0.39260625
0.43685082
0.48184636
0.01582373
0.023282699
-0.013434569
0.0080715304
0.0070142816
1.2847527
1.2656887
0.39420399
0.44434534
0.79035936
0.83110794
0.80956767
0.36346623
0.89336497
0.94147816
1.0126364
1.2314847
1.2569983
1.2298071
1.3422383
1.2970994
1.4031382
1.4287986
0.013657867
0.0026101867
0.020597378
0.0088826448
0.019274708
0.69561779
0.69815591
0.71784354
0.68570734
0.68477124
0.29592699
0.15328978
0.39625277
0.33229329
-0.72181237
-0.82958994
-1.0167035
-1.0020301
-1.2650618
0.84326904
1.1034439
1.1129324
-0.54320078
-0.38722784
-0.65925461
-0.29596091
-0.40485072
0.65179239
0.58578025
0.65751679
0.42754254
0.5131979
0.50229289
0.41008084
0.42422479
0.43185748
0.43521698
0.52085371
0.33990251
0.2980332
-0.59614271
-0.34019137
-0.60412538
-0.05992624
-0.038928329
0.12670635
0.14463997
0.10452464
0.094967602
-0.021798542
0.0024524308
-0.0046504477
0.030711001
0.033602945
0.62984784
0.61448961
0.65500692
0.66694788
0.72961707
0.72954779
0.73312575
0.73202543
1.3628037
1.3865202
1.4312522
1.3942275
-3.9789275
-6.7464472
0.32537438
0.51515662
0.0033631781
0.0043053821
0.0021173897
0.0034885311
0.0035562388
0.0022140471
0.060529994
0.054333228
0.041896927
0.048847043
1.000828
1.0115809
1.0584792
1.1561977
0.94226492
0.93451302
0.65829432
0.5938766
0.49718822
0.59166666
0.028889037
0.024043185
0.030659286
1.1812055
1.2264747
1.2170143
0.27450992
0.1299529
0.44405013
0.49569057
0.98239678
0.9564461
0.98890176
1.0911138
1.1290727
1.4185416
1.4305697
1.4682584
1.465096
1.5134043
1.5057573
1.4641441
0.67576938
0.69472922
0.68542867
0.66494141
0.70234066
0.69710444
0.73012535
0.71953053
0.72892932
-0.01183138
-0.3686161
0.26762362
0.22034311
0.29360772
0.22933142
0.89062936
1.0833321
1.0632034
1.0847327
1.0947168
-0.15772237
-0.26767136
0.25691968
0.23060507
0.53942615
0.59467979
0.56565697
1.3370375
1.3377678
1.3838551
1.3462517
1.2875724
1.3100765
-0.39473858
-1.5953466
-0.96958706
0.94106638
0.70807673
0.81949999
0.08416274
0.068951554
0.06956871
1.132037
1.2161637
0.57679441
0.77901227
0.75415937
1.1840147
1.2082294
1.2773081
1.1997803
1.2281767
1.2560231
1.2394015
0.65138313
0.36808908
0.55626348
1.0634844
1.1879379
0.062200667
-0.03421237
-0.11121482
0.15929679
0.1984466
0.17794105
1.1657713
1.1462726
1.2413195
0.40051728
0.39118444
0.010593822
0.015899971
0.43641135
0.39943138
0.0056038096
0.011917957
0.78517176
-0.68033061
0.11794663
0.53072466
0.63930257
0.45328597
-0.15821729
0.39294421
0.031587523
0.11613406
0.072287998
0.74246014
0.6580349
0.60443014
0.010831233
0.027955881
0.020755719
-0.46946615
0.45687061
0.44426651
0.44929698
0.42244546
0.45246771
0.0084701047
0.009003788
0.0077204151
0.02098964
0.0075351602
0.011610713
0.69556922
0.72209888
-0.41119344
0.45487316
0.42492495
0.44347334
0.44699267
0.43566702
0.4035404
0.023585235
0.015240458
0.020895067
0.33189666
0.51044703
1.1179522
1.3410131
1.085412
0.72268085
0.40039256
0.97556446
1.081315
0.92928887
1.1384441
1.0595392
1.1077557
0.18873594
-0.047230397
0.21056718
0.15421592
0.52516687
0.62147512
0.60088479
0.66324767
0.50267054
0.49947467
0.4784647
0.50022737
0.46231342
0.46800582
-0.080621731
-0.10277157
-0.16845129
-0.26967812
0.42042552
0.5501538
0.32386216
0.32121735
0.1876194
0.035097608
0.038627942
0.028620595
0.019481013
0.081539168
0.07960636
0.099527214
0.096535066
0.063447769
0.062934437
0.085340592
0.079652648
0.091948325
0.73632703
0.73219541
0.74015055
0.75274622
0.66482785
0.6768219
0.62069076
0.65506257
0.63347212
0.53373312
0.59835871
0.56026812
0.0090812954
0.012750483
0.0077667068
0.03461866
0.040078342
0.018945935
0.015029106
0.020332674
0.014229612
0.015586564
0.022923201
0.030267121
-0.40382749
-0.58131106
1.0476793
0.82569209
0.4482513
0.58072235
0.49235406
0.5307378
0.49304661
0.46033285
0.46296637
0.48540547
0.50299616
0.70543556
0.71103318
0.69950221
0.72772754
-0.36328349
-0.52656381
-0.30765331
-0.36065694
0.16089655
0.93849011
0.51799553
0.39578924
0.39666168
0.77095604
1.2007848
1.0970474
1.2973233
1.320496
-0.31161812
0.20391001
-0.10483931
0.58397755
0.78945414
1.1011528
1.1690812
1.1759622
1.143263
1.0672804
-0.21725514
0.76238192
-0.20896797
-0.19347232
0.12890296
-0.035754829
1.1641683
1.0350154
1.0442434
1.0957235
1.1354827
1.0450183
0.99780271
1.005818
1.0827012
1.0851802
0.72052055
0.37423336
0.25453128
0.25071393
0.99770385
0.78271786
0.87769219
0.72022935
0.66625651
0.62331861
0.66506843
0.68065746
0.65609977
0.69117231
0.67772368
0.69095666
0.54471917
0.49983994
0.60963722
0.57501847
-0.061441208
-0.046348253
-0.062377507
-0.32102442
-0.29093207
-0.39936219
-0.18363387
0.16139493
0.13621445
0.46430973
0.54673539
0.097710577
-0.17786785
-0.11701296
-0.070730917
0.20732806
0.19921265
0.14765661
0.20118351
0.22217273
0.18423889
0.26766895
0.24675148
0.054213314
0.06781334
0.038188608
0.03882862
0.12635
0.16078279
0.15553905
0.065918409
0.064226291
0.03924081
0.036034573
0.10546787
0.063397305
0.081010211
0.088189331
0.033610856
0.037117702
0.039075266
0.057886992
0.055484997
0.059325092
0.7176973
0.72656899
0.72732181
0.74713725
0.76310087
0.78279819
0.74315954
0.67527053
0.67654175
0.69343236
0.64915602
0.66864241
0.66335852
0.67262686
0.71024255
0.71976643
0.72201451
0.70897803
0.69801896
0.70008417
0.67913938
0.6790092
0.65923875
0.62748698
0.59597438
0.025256387
0.020357869
0.02306894
0.019443454
0.017329038
0.017424137
0.055619218
0.04643315
0.052462135
0.04589886
0.051286218
0.02312611
0.025871509
-0.21887041
-0.035349675
-0.48344183
-0.49450233
-0.59335076
0.9904484
1.116082
0.83197311
0.69222502
0.72925198
0.88748814
0.96268974
0.5890859
0.69487415
0.70849084
0.77467215
1.156267
0.52230228
0.51528206
0.55352355
0.54721771
0.56651374
-0.197604
-0.036129666
-0.057387271
0.11270176
0.24672319
0.2966421
-0.052436403
0.084489539
0.31759767
0.23369799
0.93271223
0.95786401
0.85846735
0.90965396
0.91516842
0.60382404
0.74114251
0.83995147
0.75255585
0.83867608
0.8639796
0.79968478
0.84358988
0.77845549
0.69298854
0.69172558
0.60749599
0.61961095
0.59784582
0.55923466
0.72412084
0.68855108
0.70632244
0.69568154
0.73230178
0.78314084
0.76922888
0.79586387
0.8284469
0.70612375
0.65281559
0.65705639
0.70656365
0.64532061
0.66299655
0.68758551
0.10834435
0.033343545
0.0046996243
-0.018156388
0.036040051
-0.091002969
-0.1178918
-0.10371
0.19407036
-0.39693305
-0.3912777
-0.76544524
0.64854359
1.2468383
1.107745
1.0838512
1.1386988
1.0969048
1.0907032
1.1687006
1.1733001
0.98515151
1.0259727
1.0249923
0.92947734
0.97161264
1.0668203
1.052499
0.73573959
0.47738053
0.43247488
0.41526225
0.1784108
0.24938495
0.62326874
0.48569174
0.36161321
0.37038341
0.68458854
0.48215542
0.5870895
0.67282658
0.54994471
0.47651522
0.80582311
0.92778248
0.91368496
0.86563858
0.70343714
0.74061241
0.79833123
0.86764348
0.90263742
0.97023364
0.65093301
0.6405203
0.5859803
0.57656197
0.71494276
0.66860674
0.67814324
0.65226693
0.6205446
0.58410282
0.62847721
0.0083630659
0.025871734
-0.01886572
-0.0092034496
0.0062580117
-0.01957632
0.087519037
0.045306655
0.050780157
0.052943497
0.010862277
-0.019462587
0.01267426
0.037139621
0.21940831
0.26239306
0.2369707
0.17661522
0.31547737
0.49241957
0.57857502
0.4994084
0.27984722
0.30984243
0.36473056
0.11979302
0.11923778
0.10533039
0.14053934
0.13375785
0.039031149
0.046139508
0.050678825
0.054631794
0.055098263
0.04112744
0.031635825
0.030695597
0.029772506
0.03167845
0.035765676
0.6878195
0.68532541
0.69981104
0.68194416
0.67319542
0.71192291
0.70113625
0.69915532
0.7113771
0.71887764
0.70426213
0.71213778
0.71696818
0.039142779
0.031059648
0.032126388
0.03295527
0.032140864
0.0250326
0.023045635
0.17373647
0.099458
0.22758945
-0.038786828
-0.30310741
-0.16071303
0.37006491
0.63947655
0.43265587
0.99538398
0.65906544
0.53110717
0.76642443
0.97133834
0.42321936
0.64815852
0.44130631
1.0526022
1.0090821
1.1377904
0.77153185
0.16899745
0.44058552
0.55213601
0.15603871
0.31191295
0.34166106
0.17546087
0.25062831
0.25352027
0.42596977
0.11033978
0.13529349
-0.10464599
-0.13734021
0.17752879
0.22523183
0.23013766
0.19843174
-0.08994429
-0.037693708
-0.086634908
0.92398875
0.95566916
0.98273761
0.93628383
0.98118434
0.84089938
0.83075778
0.86122689
0.87965187
0.85941783
-0.590742
-0.68405527
-1.0378372
-0.50481129
0.13293698
0.69264814
0.60245159
1.1067351
0.89550735
1.1081428
1.0600949
1.0046168
0.92564525
0.90846501
0.98788066
0.50113563
0.66200842
0.63652909
0.62483065
0.46131986
0.36688291
0.88343056
0.86743573
0.93447564
0.96790193
0.90895604
0.98419709
0.73483088
0.71816047
0.66739286
0.68965829
0.66919514
0.67294115
0.12987616
0.092476114
0.16861785
0.14502848
0.086533819
0.053190129
0.049170234
0.043169755
0.04080454
0.037803744
0.042905333
0.051582368
-0.071610098
-0.041649229
-0.048828374
0.063103408
-0.208646
-0.24586877
-0.31445342
-0.17076599
-0.071280993
-0.071725026
0.5857735
0.89238
0.7416826
0.81462855
0.61412391
0.65891887
0.33495527
0.15466168
0.16937409
0.25848961
0.28888186
0.42522258
-0.40069882
-0.064741706
1.1313924
1.0799319
0.73511515
0.61635731
0.54263319
0.85193259
0.77726827
0.63888377
0.73562574
0.85450789
0.8477644
0.17320946
0.14066597
0.55383182
0.68199699
0.23009291
0.13939624
0.10036631
0.31664686
0.34142837
)
;

boundaryField
{
    wall-4
    {
        type            zeroGradient;
    }
    velocity-inlet-5
    {
        type            zeroGradient;
    }
    velocity-inlet-6
    {
        type            zeroGradient;
    }
    pressure-outlet-7
    {
        type            fixedValue;
        value           uniform 0;
    }
    wall-8
    {
        type            zeroGradient;
    }
    frontAndBackPlanes
    {
        type            empty;
    }
}


// ************************************************************************* //
