/*--------------------------------*- C++ -*----------------------------------*\
  =========                 |
  \\      /  F ield         | OpenFOAM: The Open Source CFD Toolbox
   \\    /   O peration     | Website:  https://openfoam.org
    \\  /    A nd           | Version:  9
     \\/     M anipulation  |
\*---------------------------------------------------------------------------*/
FoamFile
{
    format      ascii;
    class       surfaceScalarField;
    location    "8";
    object      phi;
}
// * * * * * * * * * * * * * * * * * * * * * * * * * * * * * * * * * * * * * //

dimensions      [0 3 -1 0 0 0 0];

internalField   nonuniform List<scalar> 
1300
(
1.7582594
5.6264299
-7.6208206
1.7582594
-7.4888051
5.6264299
-6.2850949
6.2850949
-2.0812972
2.0812972
3.7293583
3.655331
-6.1072341
6.1072341
-6.2129156
6.2129156
-3.9505948
3.9505948
-5.2376772
5.2376772
-5.0555143
5.0555143
4.7881516
-4.7881516
-6.0901098
6.0901098
-2.6961453
2.6961453
-6.7196584
6.7196584
1.4753254
-1.4753254
-6.3535868
6.3535868
-0.73718116
0.73718116
-0.59463752
5.1661118
1.1636219
1.1636219
-3.578793
3.578793
-4.8234319
4.8234319
6.2144334
-6.2144334
11.492979
-11.492979
-3.8721589
-4.0460384
1.6203828
-9.6637446
-5.8684222
-5.8684222
-8.4382804
8.4382804
-2.8118504
2.8145795
3.7476316
-3.7476316
-1.7981353
1.7981353
-6.1939652
-0.091129705
-6.1939652
6.4665897
-0.18149488
6.4665897
-2.2906743
0.2093771
-2.2906743
5.668732
-5.668732
1.8173479
0.26394925
1.8173479
2.2930038
-2.2930038
-3.7298429
7.4592012
3.6548464
-3.0667008
8.2328127
-3.3802502
7.0355812
-5.8588161
5.8588161
-6.2564444
0.14921029
-6.2564444
6.0350083
0.072225861
6.0350083
-6.3856463
6.3856463
-6.1470711
-0.065844439
-6.1470711
6.2734654
-0.06054982
6.2734654
4.2148497
-4.2148497
-3.9761827
0.02558795
-3.9761827
3.8722485
0.0783462
3.8722486
0.35898907
5.2674409
-5.9854191
8.7999986
-5.2674409
0.02976375
5.2000263
0.037650881
5.2000263
-5.0929847
0.037470422
-5.0929847
5.0107987
0.044715562
5.0107987
4.8940556
-0.10590401
4.8940557
-4.8846056
0.096454018
-4.8846057
-3.9890341
-3.9002191
-6.1798985
0.089788666
-6.1798985
-2.7364322
0.040286878
-2.7364322
2.6499597
0.046185628
2.6499597
-4.6337412
4.6337412
-6.8378243
0.11816587
-6.8378243
1.6561611
-0.18083567
1.6561611
2.0100217
2.5614526
3.7682811
-3.7682812
2.2929558
-6.3506241
-0.0029626505
-6.3506241
-6.3685425
-5.1244369
6.3685425
-0.014955688
-1.1909871
0.45380588
-1.1909871
1.394824
-0.23120209
1.394824
3.7450359
0.1272127
-3.7450359
0.16624283
4.7608764
-4.7608764
2.763632
0.81516099
2.763632
-5.5852088
5.5852088
4.9431221
0.06767665
-4.9431221
0.11969018
6.1545035
0.059929998
6.1545035
-6.192756
-0.02167743
-6.192756
4.0150322
-8.0610705
-4.0018143
5.9876024
0.10250744
-5.9876024
0.11918017
3.9703933
-0.22276175
3.9703933
-3.6906243
3.6906243
-3.3657614
-0.38187018
-3.3657614
-2.1924246
0.39428926
-2.1924245
1.4219311
0.3762043
1.421931
-6.0459583
-0.14800686
-6.0459583
-6.6714282
-0.16639608
6.6714282
-0.20483847
1.8528741
-1.8528741
-2.4558998
0.16522549
-2.4558998
-5.8641245
-0.18183385
5.8641245
-0.19539248
-5.5642816
-0.10445045
-5.5642816
-2.867979
-0.49778241
2.8679789
-0.57497505
1.7727768
-0.37795277
-1.7727768
-0.52022703
-3.0663405
5.6277931
-3.3806105
7.035457
-5.6517137
-0.20710243
-5.6517137
6.0056411
-0.146825
6.0056412
6.5550268
0.16463156
-6.5550268
0.29858232
6.0195549
0.015453389
6.0195549
-6.3617219
-0.023924389
-6.3617219
6.3805848
0.0050614129
6.3805848
6.0675161
-0.047961239
-6.0675161
-0.079555013
6.3201465
-0.046681099
6.3201465
4.2840114
-0.069161658
4.2840114
-4.1613306
-0.053519103
-4.1613306
3.9904453
-3.9904453
3.9894237
0.0010216809
-3.9894237
0.013240951
-11.148776
11.127099
-0.035838306
-11.112938
5.164188
5.164188
4.1206208
0.77343484
4.1206208
-5.0693802
0.18477449
-5.0693802
3.9792294
-7.9810438
3.8976562
-7.8866903
3.9609691
-13.624714
4.0133274
-7.9135465
6.3172812
-6.3172812
6.2555959
0.061685243
-6.2555958
0.075697307
-2.7795617
0.043129487
-2.7795617
-4.2998962
-0.33384497
-4.2998961
4.9636823
-0.32994111
4.9636823
-2.7811904
2.7811904
-2.2033567
-0.57783366
2.2033567
-0.54719559
6.3433503
-0.023203756
-6.3433503
-0.0072738417
1.5220317
0.29531627
-1.5220317
0.33104458
5.0505506
-0.28967416
5.0505506
-4.5124562
-0.24842023
-4.5124562
-2.7977818
0.018220116
2.7977818
-0.034149809
-5.8260712
0.24086237
-5.8260712
-11.21344
0.10050209
-11.175789
-6.0922539
-6.0922539
2.3460265
11.146025
-4.0946378
-0.066692818
4.0946378
-0.12424451
3.295125
-0.51393465
-3.295125
-0.39549922
-3.9100491
-0.080396204
3.9100491
-0.21942487
-2.6225263
0.43010179
-2.6225262
-1.0833117
1.0833117
-1.1224121
0.039100395
1.122412
0.29951901
2.438208
-0.58533387
2.438208
2.5729262
0.077033434
-2.5729263
0.11702644
-5.4115754
-0.15270623
-5.4115754
6.137138
-0.13149684
6.137138
-4.3703347
-0.14212157
4.3703347
-0.086323277
-0.035373105
11.162472
-5.1288149
0.035830229
5.1288149
-11.222402
11.258232
-3.187036
0.56450977
3.1870361
0.93358475
5.3237618
0.26144697
-5.3237618
0.25438162
6.3570958
0.023489068
-6.3570957
0.03981456
-3.9043178
-0.39557836
-3.9043178
-5.31721
-0.33450376
5.3172099
-0.35352758
-11.476695
-0.19215514
11.66885
-11.43198
6.0182263
0.13627717
-6.0182263
11.394509
-1.385112
-0.46776211
1.385112
-0.3018002
2.9318878
-0.49367979
2.9318878
5.2855629
-0.23501233
-5.2855629
-0.12601245
-6.2708187
-0.090903173
6.2708187
-0.13368073
-3.4352067
-0.46911108
3.4352067
-0.50331891
-5.4983803
5.2671782
2.7344325
-4.0076192
-4.0534513
-9.1320562
2.6206829
3.0071103
4.9136387
-8.4021542
-5.2225596
-8.282974
7.2943108
-7.0399291
-9.5553164
9.4494124
9.9175018
-10.021952
-7.4970056
6.94981
7.6766902
-8.2516653
3.7383205
3.7208807
12.72386
-12.574649
-12.553451
12.346348
12.263961
-12.329805
12.759071
-12.782995
-14.745687
14.769176
-7.6748505
7.7004384
-8.8269463
8.7734272
-9.0741838
8.9878605
-3.9742399
-3.9124504
10.807319
-10.71753
14.060059
-14.063022
-12.858607
12.976773
4.181213
1.0859652
3.8032602
-3.5909424
7.329263
-3.4446389
6.1790714
3.9889411
-7.963181
3.9921027
-8.045554
7.2343154
6.8257439
-7.2193597
-1.9126965
-7.8191891
7.5964273
-7.8089227
7.5894978
11.694096
-11.785225
-3.5574104
7.2782911
-3.4780465
6.4851568
-3.6186752
-3.8783303
3.7995109
1.1141278
6.6587008
4.1486177
-6.7612083
-1.5217658
-10.085298
9.8502853
-10.526099
10.277679
-0.49551822
5.8141156
-5.3185974
4.3279137
-1.4708467
7.2849623
5.823464
6.0082385
5.8739381
-5.6124911
1.165991
-6.4845885
-6.3648983
-3.5521604
3.7173859
3.5074654
-3.2435162
7.9062082
2.0112936
7.7108157
-7.1914377
-2.8305146
-7.3441439
4.7355102
2.2142999
4.1576766
5.1475402
2.5291501
4.6497579
5.786702
-5.7921445
0.0054424515
-5.2071011
10.993803
1.4861467
-9.0854314
-7.9713035
8.2586405
4.4652191
8.3308664
-8.603782
-3.9708674
-8.3051997
-7.6372165
-4.9162344
-7.9717203
7.9536202
4.3927282
7.8067952
-9.4738321
9.3401514
8.1867347
4.0772259
8.1261849
-8.1183261
-4.211479
-8.1978811
12.442216
-3.2252555
-9.2169604
-8.2493056
-6.496381
8.2442442
4.5148264
8.9849126
5.784263
9.0247272
4.2515957
8.1906201
-8.7664221
2.2700411
-5.1208516
-2.5539989
-5.1076107
4.9923315
2.7081069
5.0706777
-5.5105434
-3.316403
-5.5772362
-5.615251
-3.4589328
5.6844127
3.0890145
-5.7471867
-4.7789127
5.8893082
3.0985523
3.5689014
-8.7914609
4.3446451
-8.2570955
-7.5224893
-3.1950406
-7.446792
4.8684143
3.1295818
-7.9979961
-3.0947668
13.053017
-6.2272733
11.140321
-8.7794076
-5.2836144
-8.7866814
-9.3324076
-3.526199
-9.4988038
-7.3031363
6.9075579
-7.3138286
6.9838875
13.340957
-6.1536517
-7.1873051
-4.3780835
-3.8735817
4.8983105
-1.0950503
-7.0948065
7.100249
0.23445647
6.4135279
7.4994931
6.4044428
-4.5907521
-3.2181706
-4.9862513
5.1563134
2.4331844
5.0759172
8.9195534
2.7745423
8.7380585
-8.4696464
-3.3155789
-8.6176533
9.8168485
-9.4225592
3.9483472
-3.9301271
6.8741592
3.4035199
-6.584485
-3.5008126
7.9879472
-4.0413919
-3.9465554
-12.152666
10.721218
1.4314476
-4.8677032
-0.53978948
0.19739172
-5.6007449
-3.9545714
5.5042909
0.50394764
11.225165
7.2705938
-5.5208996
5.761762
6.1479507
6.2156274
-0.1492709
6.1513035
-5.5867937
7.0058678
-2.9472904
-4.0585774
7.051015
-7.2328489
-1.5666383
-7.0271714
5.4605331
0.47796676
2.4512243
-1.9974184
-2.8418622
-0.7102982
-2.7248358
2.0749051
1.4325603
2.3702214
1.3376123
2.3797735
-3.834387
0.65436555
3.1800215
-2.4967747
-2.5891506
-4.7964764
-1.2375954
6.0340718
7.1961828
2.6541025
-7.0701703
-0.27397357
3.6884455
-3.6422599
-1.2016632
-3.5948132
2.5535306
-3.7551938
-4.5545867
-2.4793319
7.0339186
-3.6661379
-1.3201134
4.1800725
-0.022395979
-4.5414413
-3.2777478
4.9233114
-0.27355356
-4.0461173
8.64525
-4.5991327
-7.2642879
4.6744381
6.319365
6.888738
-8.5754234
4.2665681
4.3088553
-2.2560584
7.1284405
1.2024258
7.1438939
-10.939264
6.9683969
9.0432211
3.9335514
-9.2078526
0.90265293
-10.036611
11.502585
-9.7199358
-1.7826496
6.1748292
5.3277561
6.3577729
6.9831838
-4.9379227
11.295696
-0.86100667
-8.8589291
10.897618
-6.9640666
5.9415207
-12.905587
-12.924704
4.0657753
-8.2935197
10.198027
-1.9045068
-2.9167874
-6.5570448
11.210307
-1.1182536
-10.092053
6.6885416
-6.4094113
-6.3552467
12.764658
-9.6346669
10.566726
-3.1738922
-7.3928335
-7.9597759
-4.8232192
8.0506791
1.2894723
-11.822451
14.092492
-3.6318304
7.1272915
0.9988934
7.0806104
4.6648158
-7.2174967
2.5526809
4.9698512
-8.1437434
3.0409588
-10.258455
-5.7742765
11.292123
-5.5178462
-8.9693171
-8.0030809
-0.96623623
2.441384
11.651108
-8.225647
6.3634606
1.8621864
4.448409
0.62750825
-4.4494306
-0.65818011
0.46747175
5.9235895
-6.3910613
5.5381494
5.6653621
4.4642768
1.4593127
5.1165861
2.4798412
-4.9923416
-0.5848946
-5.3788375
1.9199048
-2.289823
-4.6631343
6.5830391
-5.2456785
0.58254419
-3.5281053
-4.6198327
8.1479379
-6.0821042
4.3872194
4.2580306
6.8204038
-6.4556634
1.8358306
-3.2125433
-3.24312
3.4098478
-5.6996708
2.4820194
4.1010196
5.5805717
0.80165901
5.7236257
5.568497
-8.8532075
0.59611198
9.7171147
-8.195349
1.9927519
7.0319753
-8.3562124
0.35313152
-7.0936605
1.3416743
-7.5689476
-6.6563217
6.1200659
-9.6462649
-6.7855215
8.3666796
0.37137888
-8.1618409
-1.336963
-4.9104898
-2.3926464
-5.3796009
-2.2497029
-5.0641256
-7.1876256
-1.5095873
-5.6780382
5.3979706
-5.4090469
-2.5626733
5.7625745
1.221313
-7.7076642
7.239902
-6.8078931
6.3142133
0.35628641
6.7439626
6.7607292
2.8871475
-4.4879042
7.3750518
-6.0571408
8.8316831
-10.759273
4.7021323
5.4277308
-8.7433097
-5.3315424
5.5458636
4.270985
5.9220678
9.5468435
-11.912536
2.3656929
-12.049686
11.953312
0.096373308
-17.83667
5.7869843
-8.2898265
3.5788753
0.36947188
3.6220047
0.88661929
3.1053738
-3.9919931
-3.0435078
-3.0776576
-2.9485227
-4.4008922
7.3494149
1.4935695
-4.3317327
2.8381632
-4.5516784
6.0452479
-0.030940534
-4.3007922
6.8087846
-3.7034108
7.1782565
-4.5826189
2.5956376
4.2845363
7.249315
-2.9647786
5.5953987
-2.1918788
2.3063062
-5.2710848
-2.094586
-3.9492703
6.6573772
-4.1986676
4.7812117
-0.26631602
5.0475278
-5.3349448
1.2935529
-0.87066803
4.7946941
4.9609369
5.5216654
-4.0623527
3.6959748
-5.8878536
-1.57511
-5.0861946
-0.98517501
0.45487684
-5.2497421
4.7948654
7.5897383
-7.1348614
-5.3752721
10.090417
-4.7151446
8.2164261
-5.5474032
-2.6690229
-4.6434659
-4.7790934
4.2133639
1.9379395
10.154365
0.31464458
-5.8620477
-5.2721492
-4.3385645
4.3448331
2.6610346
-2.6015499
4.0329974
2.4041581
0.047066214
0.86112787
1.5090935
2.4626246
-1.6014968
0.15728035
2.3053443
-1.8401381
2.7508964
0.93754905
-2.8279298
0.10309405
-1.9172685
4.4707991
1.2627529
-2.6953132
1.0938164
1.5583257
-4.5056162
6.2598559
-3.1061661
-3.1536898
7.8181817
1.4800362
-4.5862023
5.5471352
-5.0691685
3.0583815
-4.2959769
-1.5278208
-6.5969893
-4.5856957
-3.213293
6.0514562
-4.1361219
6.7902244
1.4968695
-6.5162509
8.0131204
-4.5705759
2.091244
-4.0903412
5.0278903
-1.474672
-2.6156693
3.4841682
3.5497504
-3.7441297
0.14931656
-0.25996154
2.9339684
-3.19393
-0.82122543
-3.3180001
-6.8192792
6.5457257
-3.0849227
7.3514908
4.2901291
-2.5907961
9.9422869
3.2528309
-5.843627
-4.011457
-5.3315703
-1.5347716
5.3539663
-1.1998479
-6.9980332
-8.5926814
7.0459944
0.097899507
-10.971548
12.395141
-1.4235923
-6.5063292
-0.46206777
6.6368971
-9.0249127
0.88116926
-5.9839539
6.4111867
7.6136126
7.7115121
-10.088054
-0.0039999137
-5.6953253
1.6259013
-7.3212266
6.9536574
-3.8004317
7.8662069
-8.7165768
6.1539035
-7.4952638
6.0835573
-1.2376692
6.6664311
-4.1137503
2.5505293
-7.3737485
-6.0842762
8.3683385
-4.2911126
9.3672319
-4.8417151
14.208947
-8.4735455
8.2541955
5.9547514
-1.6438988
-7.1427826
-8.1688196
6.5249208
0.0853759
7.1659863
6.5550308
-4.0751895
5.9701362
3.0459376
-6.2584809
-2.6537332
-8.7939731
2.5354922
-4.5359425
-2.4667149
5.0022071
4.3536889
4.9811971
1.7590871
-4.323017
7.8797864
-8.8460227
-2.3619401
-4.2943816
8.0535317
-1.5286109
4.7990303
-9.0934119
-2.7699173
7.5288176
-2.7602752
-4.7685424
-1.375166
-5.4103555
3.6638423
-9.0741978
5.9824227
-7.3193856
2.2887188
-10.578545
-5.4189453
-5.7207455
-2.02632
-4.7815732
-7.6599793
5.6336594
-1.872995
5.3669071
-9.1933599
6.4330846
-2.7599523
8.3936118
-4.5005869
-0.879014
5.0039059
1.3103074
9.7039193
0.80162882
-6.1331712
-2.747067
5.6128349
-2.8657679
1.5977662
-4.4481134
1.1647215
3.2357864
4.5823952
-8.6963195
-0.046990185
-6.1801614
-4.3165425
8.5875276
5.7738742
13.363613
1.4510759
9.8431724
-1.2556447
11.294248
4.6664231
4.9659422
-4.1732715
6.5389643
0.62159368
5.3237261
-1.1412478
3.7368854
2.4807569
2.5210438
1.1212161
3.0063845
1.9545524
4.2999374
0.30794425
-2.7697134
4.6931717
-9.0317362
-1.168876
-8.2583014
1.191111
5.8696289
-4.6785178
4.3863938
-1.7253592
1.5206259
0.33459908
-2.5678136
2.2332145
-3.7239783
-2.5207474
-0.2154031
-1.9710992
3.0649157
2.4996999
-2.8495126
-0.87446571
0.33893826
-4.9246339
3.9570387
-3.8077221
-0.25797177
7.7551486
-3.5093572
0.31542724
-1.4181132
-3.0025729
-3.7128711
3.609777
9.1877916
0.75449527
4.5886589
7.3002209
4.0224731
-0.052716414
5.3095928
-7.2140997
-4.9488626
-7.2180995
-0.26444215
6.3724549
2.4007639
9.2503437
8.3555154
6.8269044
-2.2665075
-11.11253
8.0085782
-1.4696138
8.1049516
-3.3364093
-5.7377885
6.1839763
2.6477068
-6.5553551
-0.76403048
-6.5018191
-7.9714329
-1.2685257
7.7016103
-8.4353936
7.5563795
5.163733
0.51430527
-4.8854901
-0.83525537
4.8463897
0.11955245
11.413801
-1.1732816
-7.1329287
8.3062103
-4.6963473
3.5274712
1.1955803
2.8374171
3.4287949
1.7034357
-5.4294932
-10.108011
-2.42316
-2.0824562
-5.5768498
0.45722204
-2.9569219
6.3381588
-2.8106876
3.6691359
5.4955227
7.0161487
-1.8316219
-5.3032398
6.5467664
-2.8776304
4.1385183
)
;

boundaryField
{
    wall-4
    {
        type            calculated;
        value           uniform 0;
    }
    velocity-inlet-5
    {
        type            calculated;
        value           nonuniform List<scalar> 8(-1.7582594 -1.7582594 -7.3846893 -4.5714743 -7.3846893 -6.446951 -4.5714743 -6.446951);
    }
    velocity-inlet-6
    {
        type            calculated;
        value           uniform -5.6264299;
    }
    pressure-outlet-7
    {
        type            calculated;
        value           nonuniform List<scalar> 8(7.6208206 7.4888051 7.9181972 8.0433618 7.8892532 8.0168465 7.8768856 7.9742965);
    }
    wall-8
    {
        type            calculated;
        value           uniform 0;
    }
    frontAndBackPlanes
    {
        type            empty;
        value           nonuniform List<scalar> 0();
    }
}


// ************************************************************************* //
