/*--------------------------------*- C++ -*----------------------------------*\
  =========                 |
  \\      /  F ield         | OpenFOAM: The Open Source CFD Toolbox
   \\    /   O peration     | Website:  https://openfoam.org
    \\  /    A nd           | Version:  9
     \\/     M anipulation  |
\*---------------------------------------------------------------------------*/
FoamFile
{
    format      ascii;
    class       volScalarField;
    location    "5";
    object      p;
}
// * * * * * * * * * * * * * * * * * * * * * * * * * * * * * * * * * * * * * //

dimensions      [1 -1 -2 0 0 0 0];

internalField   nonuniform List<scalar> 
5250
(
1.00001
1.00003
1.00008
1.0002
1.00054
1.00128
1.00327
1.00796
1.01959
1.04915
1.12201
1.31507
1.85131
3.42335
8.01357
11.6854
11.2845
11.0411
11.1247
11.3536
11.5818
11.7201
11.8254
11.9079
11.9705
1
1.00003
1.00008
1.00022
1.0005
1.00135
1.00303
1.00821
1.01858
1.04964
1.118
1.31247
1.83356
3.38065
7.89854
11.6989
11.2841
11.0313
11.1158
11.3456
11.5737
11.7124
11.8193
11.9032
11.9672
1.00001
1.00003
1.00008
1.00019
1.00052
1.00119
1.0032
1.00724
1.01951
1.04491
1.11869
1.29515
1.80729
3.28224
7.64161
11.7263
11.2799
11.0013
11.0844
11.3121
11.5381
11.675
11.7814
11.8648
11.9292
1
1.00003
1.00007
1.00019
1.00046
1.00122
1.00279
1.00749
1.017
1.04551
1.10766
1.28448
1.75414
3.14329
7.24414
11.7662
11.2745
10.952
11.0305
11.2516
11.4747
11.608
11.7115
11.7932
11.8589
1
1.00002
1.00007
1.00018
1.00045
1.00108
1.00278
1.00648
1.01703
1.0398
1.1038
1.25837
1.69796
2.95941
6.72232
11.8035
11.2678
10.8861
10.9567
11.1664
11.3858
11.5135
11.612
11.6908
11.759
1
1.00002
1.00006
1.00016
1.00041
1.001
1.00247
1.00621
1.01482
1.03788
1.09216
1.23715
1.62631
2.75315
6.09707
11.7891
11.2489
10.8047
10.8631
11.0537
11.2663
11.3849
11.4739
11.5461
11.6162
1
1.00002
1.00006
1.00014
1.00038
1.00088
1.00234
1.00532
1.01422
1.03256
1.08622
1.20957
1.56285
2.55217
5.49468
11.6378
11.1761
10.702
10.7473
10.9105
11.1094
11.213
11.285
11.3415
11.4081
1
1.00002
1.00005
1.00014
1.00032
1.00086
1.00199
1.00514
1.01232
1.03077
1.07634
1.19291
1.50507
2.39831
5.04687
11.1992
10.9841
10.5864
10.6118
10.732
10.9068
10.9867
11.0291
11.051
11.0937
1
1.00002
1.00005
1.00012
1.00032
1.00072
1.00193
1.00441
1.01161
1.02722
1.07004
1.17282
1.45596
2.25073
4.60571
10.4965
10.6979
10.512
10.4662
10.5269
10.6552
10.697
10.6875
10.6366
10.5865
1
1.00001
1.00004
1.00011
1.00026
1.0007
1.00159
1.00428
1.00962
1.02596
1.05998
1.15811
1.40032
2.10782
4.16112
9.61918
10.538
10.4119
10.2864
10.3078
10.3612
10.3445
10.2551
10.0353
9.69576
1
1.00001
1.00004
1.00009
1.00025
1.00056
1.00153
1.00343
1.00925
1.02111
1.05578
1.134
1.35422
1.95248
3.71693
8.58182
10.4264
10.3133
10.0994
10.0676
10.0436
9.95022
9.69299
9.09254
7.53699
1
1.00001
1.00003
1.00009
1.0002
1.00052
1.00122
1.00315
1.00753
1.01879
1.04655
1.11607
1.29772
1.80074
3.25622
7.38746
10.3435
10.2155
9.93187
9.82016
9.73156
9.53744
9.12266
8.29235
6.64879
1
1.00001
1.00003
1.00007
1.00018
1.00041
1.00109
1.00246
1.00661
1.01492
1.03989
1.09363
1.24636
1.64282
2.79604
6.08584
10.2359
10.1099
9.78995
9.57902
9.42385
9.14667
8.63001
7.77058
6.43172
1
1.00001
1.00002
1.00006
1.00013
1.00036
1.00081
1.00217
1.00488
1.01303
1.02989
1.07826
1.18989
1.50364
2.36257
4.8022
9.92504
9.90925
9.67759
9.3578
9.1291
8.80542
8.27085
7.47411
6.40356
1
1.00001
1.00002
1.00004
1.00012
1.00027
1.00072
1.00162
1.00435
1.00978
1.02619
1.06054
1.1588
1.40011
2.09756
4.0736
9.03731
9.63372
9.48013
9.15338
8.86712
8.51929
8.00721
7.29348
6.40097
1
1.00001
1.00001
1.00004
1.00009
1.00024
1.00053
1.00143
1.0032
1.00862
1.01948
1.05186
1.12285
1.32433
1.8599
3.41274
7.56244
9.35659
9.26313
8.99739
8.64967
8.28336
7.80151
7.16476
6.39564
1
1
1.00001
1.00003
1.00007
1.00018
1.00044
1.00108
1.00258
1.00663
1.01547
1.04023
1.09615
1.24955
1.65339
2.80728
6.00476
9.16834
9.11996
8.89307
8.48197
8.0912
7.63451
7.06204
6.38709
1
1
1.00001
1.00002
1.00006
1.00013
1.00034
1.00078
1.00205
1.00475
1.01216
1.02902
1.07288
1.18044
1.46865
2.25213
4.38736
8.75815
8.98192
8.7973
8.3823
7.94367
7.49804
6.97736
6.37735
1
1
1.00001
1.00002
1.00004
1.0001
1.00026
1.00059
1.00158
1.00353
1.0095
1.02146
1.05672
1.13477
1.35432
1.93552
3.58446
7.69846
8.72996
8.60934
8.2841
7.82289
7.38393
6.90515
6.36647
1
1
1.00001
1.00001
1.00003
1.00007
1.0002
1.00044
1.00119
1.00267
1.00709
1.01625
1.0422
1.10099
1.2615
1.68267
2.87372
6.05772
8.45609
8.41365
8.19644
7.74512
7.29506
6.84375
6.35498
1
1
1
1.00001
1.00002
1.00006
1.00013
1.00034
1.00082
1.00199
1.005
1.01171
1.03008
1.07129
1.1823
1.46343
2.23302
4.26269
8.00309
8.27494
8.11537
7.726
7.24092
6.79767
6.34604
1
1
1
1.00001
1.00002
1.00004
1.0001
1.00025
1.00057
1.00151
1.00337
1.00904
1.02028
1.05377
1.12635
1.33135
1.86185
3.33447
6.92094
8.05092
7.96007
7.68562
7.21594
6.76954
6.34192
1
1
1
1
1.00001
1.00003
1.00007
1.00017
1.00042
1.00106
1.00243
1.00638
1.01439
1.03833
1.08874
1.23236
1.59337
2.60222
5.23659
7.72198
7.74957
7.60152
7.2303
6.77051
6.34443
1
1
1
1
1.00001
1.00002
1.00005
1.00012
1.00029
1.00071
1.00174
1.00413
1.01043
1.02443
1.06227
1.1502
1.38614
2.00158
3.60459
7.0264
7.61983
7.5169
7.22952
6.78475
6.35536
1
1
1
1
1.00001
1.00001
1.00003
1.00008
1.0002
1.00047
1.00122
1.00276
1.0073
1.0164
1.0434
1.10089
1.2627
1.67097
2.78862
5.58615
7.3688
7.35541
7.20601
6.83964
6.38391
1
1
1
1
1
1.00001
1.00002
1.00006
1.00013
1.00033
1.00077
1.00192
1.00465
1.01111
1.02785
1.06633
1.16717
1.41992
2.08737
3.76031
6.83951
7.25134
7.15219
6.88611
6.44149
1
1
1
1
1
1.00001
1.00001
1.00004
1.00009
1.00021
1.00054
1.00122
1.00319
1.00719
1.0189
1.043
1.11205
1.27049
1.71189
2.84769
5.63461
7.02932
7.01827
6.87586
6.54157
1
1
1
1
1
1
1.00001
1.00002
1.00006
1.00013
1.00035
1.00079
1.00207
1.00468
1.01207
1.02804
1.0708
1.17146
1.43927
2.12465
3.84505
6.5285
6.90673
6.82496
6.5941
1
1
1
1
1
1
1.00001
1.00001
1.00004
1.00009
1.00022
1.00053
1.00127
1.00316
1.00737
1.01876
1.04363
1.11108
1.27078
1.70109
2.79513
5.39785
6.67738
6.68866
6.57879
1
1
1
1
1
1
1
1.00001
1.00002
1.00006
1.00014
1.00032
1.00084
1.00187
1.00492
1.01093
1.02878
1.06558
1.16929
1.41426
2.06351
3.63648
6.15644
6.57854
6.52412
1
1
1
1
1
1
1
1.00001
1.00001
1.00004
1.00009
1.0002
1.00052
1.00118
1.00304
1.00684
1.01787
1.04044
1.10499
1.25006
1.64883
2.63544
4.99392
6.33507
6.40673
1
1
1
1
1
1
1
1
1.00001
1.00002
1.00005
1.00013
1.00029
1.00076
1.00171
1.00441
1.01004
1.02544
1.05963
1.14888
1.36534
1.91588
3.21579
5.77185
6.2933
1
1
1
1
1
1
1
1
1.00001
1.00001
1.00003
1.00008
1.00019
1.00046
1.00106
1.0027
1.00608
1.01583
1.03569
1.09261
1.21864
1.56427
2.41433
4.49161
5.99492
1
1
1
1
1
1
1
1
1
1.00001
1.00002
1.00004
1.00012
1.00026
1.00066
1.00152
1.00376
1.00903
1.02144
1.05304
1.12687
1.31633
1.7842
2.9111
5.28637
1
1
1
1
1
1
1
1
1
1
1.00001
1.00003
1.00007
1.00016
1.00039
1.0009
1.00229
1.00515
1.01337
1.02993
1.07778
1.18113
1.46433
2.14668
3.80127
1
1
1
1
1
1
1
1
1
1
1.00001
1.00002
1.00004
1.00009
1.00022
1.00055
1.00125
1.00321
1.00719
1.01859
1.04196
1.10751
1.2552
1.64203
2.56668
1
1
1
1
1
1
1
1
1
1
1
1.00001
1.00002
1.00005
1.00013
1.0003
1.00076
1.00169
1.00438
1.0097
1.02514
1.05658
1.14437
1.34198
1.84483
1
1
1
1
1
1
1
1
1
1
1
1.00001
1.00001
1.00003
1.00007
1.00018
1.00041
1.00105
1.00234
1.00596
1.01362
1.03383
1.0802
1.19747
1.48483
1
1
1
1
1
1
1
1
1
1
1
1
1.00001
1.00002
1.00004
1.0001
1.00024
1.00055
1.00138
1.0032
1.00775
1.01865
1.04423
1.10801
1.26158
1
1
1
1
1
1
1
1
1
1
1
1
1
1.00001
1.00002
1.00006
1.00013
1.00032
1.00073
1.00182
1.00421
1.01013
1.02435
1.05759
1.14028
1
1
1
1
1
1
1
1
1
1
1
1
1
1.00001
1.00001
1.00003
1.00008
1.00017
1.00043
1.00096
1.00245
1.00548
1.01387
1.03177
1.0786
1
1
1
1
1
1
1
1
1
1
1
1
1
1
1.00001
1.00002
1.00004
1.0001
1.00023
1.00057
1.00131
1.00317
1.00757
1.01779
1.04354
1
1
1
1
1
1
1
1
1
1
1
1
1
1
1
1.00001
1.00002
1.00006
1.00013
1.00034
1.00075
1.00192
1.00421
1.01091
1.02399
1
1
1
1
1
1
1
1
1
1
1
1
1
1
1
1.00001
1.00002
1.00004
1.00009
1.00022
1.00052
1.00131
1.00297
1.00763
1.01706
1
1
1
1
1
1
1
1
1
1
1
1
1
1
1
1
1.00001
1.00003
1.00008
1.00017
1.00044
1.00103
1.00258
1.00622
1.01501
1
1
1
1
1
1
1
1
1
1
1
1
1
1
1
1
1.00001
1.00003
1.00007
1.00016
1.00041
1.00092
1.00247
1.00555
1.0149
1
1
1
1
1
1
1
1
1
1
1
1
1
1
1
1
1.00001
1.00003
1.00006
1.00015
1.00039
1.0009
1.00239
1.00543
1.01453
1
1
1
1
1
1
1
1
1
1
1
1
1
1
1
1
1.00001
1.00003
1.00006
1.00016
1.00036
1.00097
1.00217
1.00585
1.01338
1
1
1
1
1
1
1
1
1
1
1
1
1
1
1
1
1.00001
1.00002
1.00006
1.00015
1.00037
1.00093
1.00221
1.00576
1.01332
1
1
1
1
1
1
1
1
1
1
1
1
1
1
1
1
1.00001
1.00003
1.00006
1.00016
1.00036
1.00093
1.00227
1.00552
1.01398
3.04223
1.57134
1.16828
1.23372
1.5346
2.27433
2.8777
3.06234
3.15771
3.17318
3.1728
3.16167
3.14843
3.14043
3.12597
3.10497
3.07477
3.03865
3.00068
2.96183
2.92367
2.88384
2.83935
2.80531
2.7902
2.78592
2.78783
2.81676
2.87906
2.97651
3.10074
3.24089
3.38758
3.53371
3.67097
3.79548
3.90643
4.00495
4.09315
4.16953
4.23392
4.28776
4.33327
4.37272
4.40189
4.42159
4.43355
4.43906
4.43847
4.43425
4.42354
4.40599
4.38453
4.36035
4.33257
4.30219
4.26877
4.23339
4.19564
4.15645
4.11546
4.07345
4.03012
3.98613
3.94122
3.89595
3.85013
3.80423
3.75813
3.71223
3.66649
3.62127
3.57659
3.53278
3.48993
3.44838
3.40831
3.37005
3.3339
3.30021
3.26935
3.24173
3.21781
3.19806
3.18309
3.17355
3.17301
3.17414
3.17754
3.18492
3.19957
3.21871
3.24041
3.2629
3.28393
3.30144
3.3135
3.3193
3.31978
3.31917
3.74832
2.38965
1.83794
1.79475
1.8779
2.16866
2.78928
3.10524
3.17732
3.17853
3.17354
3.16122
3.15127
3.15276
3.13639
3.11325
3.07885
3.03698
2.99555
2.95571
2.9171
2.87916
2.8413
2.80559
2.78777
2.78197
2.78222
2.80739
2.86682
2.96308
3.08731
3.22737
3.37299
3.51886
3.65624
3.78033
3.89114
3.98878
4.07975
4.15737
4.22203
4.27699
4.32336
4.3628
4.39222
4.41275
4.42524
4.43119
4.43088
4.42771
4.41851
4.40019
4.37853
4.35457
4.32734
4.29729
4.26426
4.22905
4.19161
4.15256
4.11183
4.06995
4.02684
3.98296
3.93826
3.89311
3.84749
3.80172
3.75581
3.71006
3.66451
3.61944
3.57495
3.5313
3.48867
3.44731
3.40748
3.3695
3.33364
3.30028
3.2698
3.2426
3.21912
3.1998
3.18522
3.17577
3.17544
3.1766
3.18
3.18717
3.20114
3.21901
3.23933
3.26023
3.27991
3.29637
3.30757
3.3133
3.31368
3.31336
4.57836
3.30286
2.52642
2.08734
1.99751
2.08947
2.38934
2.97954
3.16077
3.18534
3.18057
3.16929
3.1578
3.14784
3.12864
3.10405
3.07181
3.03424
2.99744
2.95776
2.91662
2.87672
2.83836
2.80299
2.77945
2.77
2.77056
2.79381
2.84843
2.94058
3.0629
3.20261
3.34629
3.49554
3.6357
3.76169
3.87452
3.9747
4.06514
4.14294
4.20854
4.26422
4.31095
4.3498
4.37961
4.40086
4.41403
4.4204
4.42025
4.41791
4.41036
4.39387
4.37089
4.34644
4.31966
4.29011
4.2576
4.22271
4.18561
4.1468
4.10637
4.06469
4.02186
3.97818
3.93374
3.8888
3.84346
3.79793
3.75233
3.70685
3.66163
3.61687
3.57274
3.52947
3.48726
3.44637
3.40708
3.36972
3.33457
3.30201
3.27242
3.2462
3.22375
3.20544
3.19181
3.18289
3.18275
3.18386
3.18708
3.19381
3.20621
3.22145
3.23849
3.25593
3.27223
3.28569
3.29504
3.29919
3.29908
3.29925
5.03256
3.87443
3.03038
2.47907
2.19133
2.206
2.33023
2.65829
3.08039
3.19047
3.20003
3.19232
3.17468
3.15413
3.13027
3.10283
3.07026
3.03207
2.99308
2.95209
2.91085
2.87039
2.83274
2.80134
2.77991
2.76655
2.7662
2.78431
2.83154
2.92363
3.04526
3.18033
3.32483
3.47143
3.61014
3.73599
3.8488
3.94968
4.03971
4.11842
4.18546
4.24235
4.28985
4.32903
4.35947
4.3816
4.39567
4.40274
4.40292
4.40133
4.39558
4.38207
4.35853
4.33345
4.30687
4.27793
4.24618
4.21191
4.17539
4.13705
4.09709
4.05582
4.01343
3.97015
3.92614
3.88162
3.83672
3.79164
3.74653
3.70154
3.65687
3.61267
3.56917
3.52656
3.48511
3.44507
3.40678
3.3705
3.33661
3.30547
3.27744
3.2529
3.2322
3.2156
3.20351
3.19564
3.19557
3.19653
3.19928
3.20509
3.21475
3.22599
3.238
3.24986
3.2606
3.26906
3.27436
3.27579
3.27511
3.27493
5.30675
4.28701
3.46649
2.87402
2.47894
2.33561
2.36932
2.51085
2.84312
3.13932
3.20839
3.20669
3.19616
3.17287
3.14033
3.10843
3.07436
3.03531
2.99531
2.95413
2.91275
2.87306
2.83776
2.80854
2.78803
2.77807
2.78078
2.79964
2.84926
2.93498
3.04373
3.16951
3.30115
3.4402
3.5754
3.70071
3.81408
3.91605
4.00693
4.08692
4.15567
4.21409
4.2628
4.30276
4.33404
4.35711
4.3722
4.38017
4.38106
4.3799
4.37553
4.36484
4.34317
4.31769
4.29089
4.26234
4.23136
4.19791
4.16217
4.1245
4.08517
4.04449
4.00267
3.95995
3.91653
3.87258
3.82831
3.78385
3.73941
3.69514
3.65123
3.60786
3.56527
3.52367
3.48333
3.44462
3.40779
3.37318
3.34118
3.31213
3.28639
3.26427
3.24601
3.23173
3.2216
3.21513
3.21466
3.21533
3.2172
3.22105
3.22659
3.23234
3.23791
3.24267
3.24594
3.24695
3.2465
3.24509
3.24175
3.24174
5.4923
4.60287
3.84032
3.2359
2.79579
2.5099
2.46254
2.50956
2.65387
2.96652
3.17004
3.21188
3.20895
3.19551
3.16489
3.12409
3.08512
3.04412
3.00319
2.96242
2.92164
2.88476
2.85439
2.83138
2.81889
2.8199
2.82968
2.85982
2.9205
2.99163
3.07613
3.17564
3.28627
3.40203
3.52683
3.65052
3.76606
3.87096
3.96412
4.04593
4.11646
4.17661
4.2269
4.26825
4.30085
4.32525
4.34168
4.35088
4.35289
4.35205
4.34875
4.34041
4.32285
4.29776
4.27081
4.2425
4.21224
4.17973
4.14497
4.10821
4.06974
4.02984
3.98881
3.94684
3.90419
3.86103
3.81757
3.77397
3.73043
3.68712
3.64425
3.60204
3.56071
3.52051
3.48182
3.44491
3.41014
3.37787
3.34847
3.32227
3.29957
3.28055
3.26532
3.25378
3.24579
3.24076
3.23921
3.23933
3.23967
3.24013
3.23997
3.2393
3.23762
3.23419
3.22882
3.22244
3.21533
3.20863
3.20119
3.20125
5.61918
4.84523
4.14462
3.55616
3.09119
2.75327
2.5544
2.55676
2.60792
2.74846
3.03543
3.18468
3.21042
3.20604
3.18982
3.15417
3.10697
3.06161
3.01895
2.9783
2.93954
2.90772
2.88536
2.87398
2.87551
2.88644
2.91844
2.98474
3.04943
3.10065
3.1522
3.21202
3.28268
3.3607
3.45768
3.57302
3.69344
3.80699
3.90775
3.99468
4.0685
4.13084
4.18291
4.22589
4.26013
4.28623
4.30442
4.31532
4.31902
4.31848
4.31616
4.31002
4.2967
4.27363
4.2473
4.21932
4.18967
4.15806
4.12438
4.08872
4.05132
4.01245
3.9724
3.93141
3.88974
3.84758
3.80515
3.76265
3.72027
3.67822
3.63672
3.59602
3.55637
3.51807
3.48158
3.44712
3.4151
3.38589
3.35985
3.33723
3.31822
3.30284
3.29093
3.28218
3.27612
3.27205
3.26938
3.26736
3.26478
3.26063
3.25441
3.2463
3.23561
3.22348
3.21009
3.19622
3.18251
3.17029
3.15833
3.15691
5.71059
5.02985
4.39148
3.82973
3.36179
2.9956
2.73138
2.61492
2.62615
2.68189
2.82046
3.08589
3.19147
3.2048
3.19876
3.17966
3.13882
3.08727
3.04053
2.99941
2.96383
2.93912
2.9297
2.93239
2.94616
2.98513
3.07172
3.17887
3.24137
3.26683
3.28155
3.29218
3.30793
3.34305
3.39511
3.47063
3.58722
3.71075
3.82613
3.92557
4.00803
4.07552
4.13071
4.17566
4.21162
4.23952
4.2597
4.2727
4.2788
4.27868
4.27736
4.27326
4.2638
4.24465
4.21979
4.19251
4.16353
4.13281
4.10024
4.06581
4.02967
3.99205
3.95323
3.91345
3.87298
3.83206
3.79092
3.74978
3.70886
3.66841
3.62866
3.58991
3.55242
3.51672
3.48298
3.45165
3.42314
3.39777
3.37582
3.35742
3.34255
3.33098
3.3223
3.31592
3.31112
3.30701
3.30264
3.29718
3.2899
3.27987
3.26703
3.251
3.23214
3.21178
3.19084
3.17007
3.15009
3.13245
3.11589
3.11153
5.77765
5.17198
4.59059
4.0617
3.60347
3.22367
2.9303
2.72891
2.66655
2.68459
2.74651
2.89096
3.11249
3.18934
3.19543
3.18804
3.16659
3.12177
3.07031
3.02687
2.99458
2.98303
2.98589
2.99981
3.03945
3.12953
3.30903
3.4439
3.48614
3.48258
3.46507
3.42136
3.36405
3.35771
3.37053
3.40468
3.47274
3.58178
3.70624
3.82286
3.92214
4.00246
4.06627
4.11614
4.15521
4.18532
4.20765
4.22293
4.23161
4.23352
4.23282
4.23023
4.22381
4.21022
4.188
4.16215
4.13418
4.10445
4.07301
4.03989
4.00517
3.96902
3.93167
3.89336
3.85437
3.81496
3.77539
3.73593
3.69683
3.65836
3.62082
3.58452
3.5499
3.5173
3.48711
3.45973
3.43551
3.4147
3.39743
3.3836
3.37291
3.36486
3.35879
3.3539
3.34923
3.34374
3.33641
3.32638
3.31315
3.29646
3.27646
3.25222
3.22636
3.19932
3.17202
3.14523
3.11964
3.09685
3.0758
3.06777
5.82655
5.28351
4.7519
4.25747
3.81507
3.43451
3.12162
2.88451
2.73402
2.70704
2.72936
2.79657
2.94531
3.12387
3.18157
3.18375
3.17586
3.15369
3.10825
3.06264
3.03571
3.03725
3.04847
3.08382
3.16981
3.35368
3.62653
3.76914
3.77227
3.75277
3.69384
3.57111
3.45519
3.38824
3.37802
3.38789
3.41672
3.47498
3.5674
3.68465
3.7988
3.89787
3.97839
4.0408
4.08795
4.12291
4.14865
4.1666
4.1779
4.18294
4.18276
4.18146
4.17761
4.16889
4.15127
4.12786
4.10146
4.07298
4.0428
4.01107
3.9779
3.94339
3.90774
3.87117
3.83394
3.79636
3.75871
3.72129
3.68442
3.64842
3.61363
3.58044
3.54938
3.52071
3.49488
3.47223
3.45302
3.43732
3.42499
3.41562
3.40864
3.4033
3.39877
3.39405
3.38804
3.37961
3.36782
3.35213
3.3324
3.30867
3.28043
3.25023
3.21862
3.1862
3.15378
3.12206
3.09171
3.06438
3.03922
3.02735
5.86727
5.37296
4.8851
4.42286
4.00001
3.62545
3.30549
3.04561
2.85444
2.74455
2.74523
2.76795
2.83514
2.9802
3.1274
3.17216
3.17246
3.16549
3.14573
3.10588
3.09153
3.09779
3.12376
3.19443
3.35482
3.68687
4.02171
4.12119
4.10658
4.05128
3.92389
3.73414
3.57731
3.4702
3.41156
3.39915
3.40599
3.42849
3.47412
3.54658
3.64995
3.75671
3.85484
3.93645
3.99969
4.04633
4.0796
4.10271
4.11773
4.12615
4.12828
4.1277
4.12557
4.12023
4.10884
4.08912
4.06506
4.03832
4.00972
3.97959
3.94812
3.91544
3.88171
3.84714
3.81201
3.77662
3.7413
3.7064
3.67228
3.63934
3.60794
3.57878
3.552
3.5281
3.50744
3.49025
3.47653
3.46609
3.45844
3.45285
3.44858
3.44469
3.44033
3.43417
3.42509
3.41207
3.39449
3.37249
3.34556
3.31411
3.28046
3.24529
3.20915
3.17254
3.13613
3.10053
3.06634
3.03521
3.00652
2.991
5.89916
5.446
4.99594
4.5641
4.16178
3.79782
3.47744
3.20534
2.99005
2.82874
2.76497
2.77041
2.79687
2.86652
3.00886
3.12881
3.16411
3.16551
3.16194
3.15143
3.15343
3.16947
3.22224
3.35311
3.63555
4.15395
4.4594
4.47902
4.44602
4.34635
4.13706
3.90875
3.72483
3.58923
3.49646
3.4414
3.41976
3.42287
3.43705
3.46794
3.51993
3.60374
3.70168
3.79663
3.87886
3.94416
3.99255
4.02653
4.049
4.06257
4.06913
4.0694
4.06855
4.06573
4.05907
4.04528
4.02444
4.00017
3.97368
3.94552
3.916
3.88534
3.85376
3.82149
3.78882
3.75605
3.72355
3.69173
3.66102
3.63182
3.60487
3.58038
3.55882
3.54057
3.5258
3.51449
3.50633
3.50071
3.49682
3.49376
3.49082
3.48696
3.48102
3.47151
3.45753
3.43849
3.41434
3.38469
3.35078
3.31469
3.27689
3.23783
3.19811
3.15821
3.1187
3.08014
3.04303
3.00894
2.97748
2.95875
5.9263
5.50699
5.09022
4.68632
4.30466
3.95316
3.63671
3.35988
3.12757
2.94588
2.81571
2.78004
2.7883
2.81862
2.89041
3.03138
3.13006
3.16145
3.17576
3.18448
3.20465
3.25344
3.36668
3.61304
4.12075
4.68001
4.8639
4.84524
4.77063
4.59743
4.32754
4.08525
3.8891
3.73524
3.61734
3.53071
3.47237
3.4375
3.4335
3.43857
3.45496
3.49096
3.55369
3.63818
3.72706
3.80866
3.87664
3.92858
3.96509
3.98866
4.00203
4.00733
4.00716
4.0059
4.00236
3.99448
3.97869
3.95798
3.93433
3.90866
3.88148
3.85318
3.82407
3.79446
3.76466
3.73502
3.70596
3.67794
3.6514
3.62706
3.60529
3.58654
3.57108
3.5592
3.55064
3.54519
3.54194
3.53996
3.53838
3.53644
3.53334
3.5279
3.51825
3.50319
3.48277
3.45633
3.42444
3.38869
3.3509
3.31113
3.26992
3.22779
3.18531
3.14293
3.10116
3.06049
3.02133
2.98512
2.95166
2.93027
5.95498
5.56287
5.17485
4.79502
4.43286
4.09382
3.78395
3.50617
3.26495
3.06465
2.91031
2.81092
2.79282
2.80335
2.83696
2.9143
3.04853
3.13717
3.17646
3.2113
3.26273
3.36874
3.59003
4.04742
4.76567
5.19185
5.21704
5.1757
5.05206
4.79321
4.50748
4.26385
4.06322
3.89793
3.76175
3.65084
3.56301
3.49715
3.45353
3.4321
3.43268
3.43813
3.45741
3.49977
3.56949
3.6489
3.72927
3.80006
3.85609
3.89627
3.9222
3.93637
3.94153
3.94129
3.9398
3.93582
3.92714
3.91126
3.89122
3.86862
3.84434
3.81894
3.79282
3.76637
3.74001
3.71413
3.68926
3.66586
3.64462
3.6261
3.61065
3.59848
3.5899
3.58463
3.58183
3.58169
3.58178
3.58156
3.58074
3.57861
3.574
3.56464
3.54881
3.52637
3.49754
3.46376
3.42686
3.38758
3.34623
3.30333
3.25942
3.215
3.17056
3.12653
3.0833
3.04131
3.00088
2.96331
2.92858
2.9051
5.99065
5.61842
5.25233
4.89396
4.54863
4.22223
3.91936
3.64375
3.39807
3.18628
3.01318
2.88006
2.80798
2.8063
2.81841
2.8562
2.94004
3.07459
3.16781
3.24554
3.34455
3.54369
3.94613
4.74792
5.40313
5.57844
5.55364
5.46129
5.25177
4.9506
4.6765
4.44233
4.24219
4.06928
3.91923
3.78944
3.6788
3.58699
3.51377
3.45992
3.42776
3.41609
3.41479
3.42143
3.44413
3.4934
3.56554
3.64258
3.71474
3.77489
3.81959
3.84895
3.86511
3.87199
3.8719
3.87071
3.86709
3.85905
3.84387
3.82515
3.80445
3.78257
3.7601
3.73755
3.71539
3.69412
3.67444
3.65668
3.64214
3.63026
3.62231
3.61707
3.61602
3.61663
3.6184
3.62203
3.62392
3.62345
3.62187
3.61773
3.60888
3.59245
3.56805
3.53737
3.50231
3.4644
3.42382
3.38108
3.33679
3.29144
3.24559
3.19964
3.15402
3.10906
3.0651
3.02248
2.98148
2.94322
2.90784
2.88286
6.04099
5.67605
5.32543
4.98422
4.65348
4.33899
4.04393
3.77183
3.52519
3.30689
3.1198
2.97081
2.85292
2.81438
2.81908
2.83779
2.88693
2.98981
3.1399
3.28403
3.46794
3.83671
4.58446
5.50379
5.90574
5.89863
5.83851
5.68183
5.38361
5.09534
4.84188
4.61898
4.4205
4.2421
4.08138
3.93705
3.80871
3.69637
3.60014
3.52043
3.4587
3.41493
3.39579
3.38051
3.38207
3.39315
3.42157
3.47963
3.54965
3.6216
3.68473
3.73394
3.76809
3.78883
3.79872
3.8007
3.8
3.79733
3.79096
3.77807
3.76224
3.74452
3.72637
3.70856
3.69148
3.67605
3.66262
3.65235
3.64524
3.64084
3.64126
3.64289
3.6466
3.65345
3.66057
3.66489
3.66449
3.66287
3.6587
3.64995
3.63249
3.60658
3.57487
3.53938
3.50053
3.45876
3.41485
3.36933
3.32285
3.27584
3.2288
3.18204
3.13593
3.09069
3.04662
3.00396
2.96296
2.9246
2.88913
2.86322
6.10902
5.73608
5.39429
5.06624
4.74963
4.44566
4.15896
3.89125
3.64592
3.42413
3.22924
3.06506
2.93453
2.84308
2.83059
2.84204
2.8777
2.95799
3.12029
3.33915
3.66551
4.32168
5.43212
6.1168
6.21587
6.17536
6.05314
5.79909
5.50566
5.24066
5.00477
4.79062
4.5935
4.41104
4.24234
4.08699
3.94521
3.81676
3.7027
3.60294
3.51821
3.44941
3.39759
3.36676
3.34431
3.33374
3.33795
3.35447
3.39167
3.45415
3.52088
3.58544
3.64025
3.68117
3.70786
3.72227
3.72912
3.72917
3.72821
3.72491
3.71745
3.70529
3.69283
3.68068
3.66962
3.66151
3.65576
3.6543
3.65514
3.65783
3.6638
3.67494
3.68633
3.69608
3.7025
3.70228
3.70081
3.69692
3.68771
3.66898
3.64164
3.60962
3.57359
3.53388
3.49132
3.4465
3.40013
3.35277
3.30498
3.25713
3.20963
3.16271
3.11669
3.07172
3.02803
2.98584
2.94533
2.90735
2.87227
2.84601
6.17882
5.79937
5.46054
5.14238
4.83719
4.54421
4.26555
4.00332
3.7603
3.53776
3.33816
3.16382
3.02194
2.90685
2.86147
2.86847
2.89768
2.97558
3.14022
3.44997
4.00246
5.1179
6.16614
6.48338
6.45994
6.37148
6.174
5.89277
5.62697
5.38589
5.16375
4.95577
4.75917
4.57355
4.39867
4.2351
4.08296
3.94277
3.81481
3.69943
3.59703
3.50813
3.43363
3.37459
3.33398
3.30461
3.28256
3.28284
3.29006
3.31087
3.35485
3.41663
3.48248
3.54162
3.58886
3.62271
3.64458
3.65692
3.66316
3.66502
3.66471
3.66332
3.66007
3.65499
3.65235
3.65297
3.65518
3.6603
3.6698
3.68358
3.6981
3.71391
3.72726
3.73539
3.73596
3.73455
3.73053
3.72077
3.7011
3.67374
3.6412
3.60427
3.56386
3.52057
3.47516
3.42823
3.3804
3.33213
3.28386
3.2359
3.18857
3.14206
3.09663
3.05237
3.0095
2.96818
2.92856
2.89141
2.85712
2.83115
6.30026
5.88576
5.53214
5.2169
4.92034
4.63657
4.36557
4.10897
3.86898
3.64749
3.44568
3.26637
3.11512
2.99466
2.92841
2.93425
2.96436
3.05175
3.25067
3.67549
4.5532
5.93905
6.62294
6.65829
6.61351
6.49141
6.24545
5.98871
5.74926
5.52582
5.31373
5.11052
4.91522
4.72795
4.54915
4.37957
4.2197
4.07033
3.93158
3.80422
3.68807
3.58364
3.49133
3.4121
3.34674
3.29775
3.26138
3.23395
3.21851
3.22132
3.23351
3.26182
3.3169
3.37765
3.43908
3.4936
3.5368
3.56771
3.58851
3.60189
3.61159
3.61894
3.62539
3.63154
3.63862
3.64914
3.66231
3.67777
3.69545
3.71535
3.73486
3.75259
3.76264
3.76427
3.76294
3.75879
3.74871
3.72856
3.70152
3.66852
3.63106
3.59001
3.54621
3.50033
3.45309
3.40499
3.35657
3.30813
3.26008
3.2126
3.16599
3.12037
3.07596
3.03282
2.99117
2.95112
2.91285
2.87705
2.84401
2.81888
6.34409
5.97576
5.61136
5.29301
5.00102
4.72473
4.46035
4.21041
3.97317
3.75384
3.55184
3.37095
3.21796
3.0938
3.04658
3.05831
3.10491
3.23083
3.51669
4.12408
5.35033
6.40634
6.75974
6.74433
6.68339
6.54828
6.32747
6.0968
5.87506
5.66351
5.45938
5.26051
5.0666
4.878
4.69592
4.52125
4.35522
4.19826
4.05119
3.91374
3.78659
3.66976
3.56362
3.46857
3.38529
3.31496
3.25812
3.21762
3.18223
3.15758
3.15688
3.16246
3.17967
3.21695
3.27529
3.33979
3.40102
3.4535
3.49541
3.52756
3.5528
3.57383
3.59299
3.61181
3.63136
3.65263
3.67606
3.70085
3.72578
3.74914
3.77022
3.78379
3.78659
3.7852
3.78069
3.7705
3.75063
3.72358
3.69061
3.65295
3.61166
3.56759
3.52158
3.47422
3.42616
3.37775
3.32945
3.28147
3.23417
3.18767
3.14225
3.09799
3.05511
3.01365
2.97371
2.93537
2.89877
2.86463
2.83312
2.80923
6.32391
6.10086
5.71455
5.37804
5.08234
4.80994
4.55103
4.30615
4.07353
3.85724
3.65795
3.47917
3.33385
3.21923
3.22032
3.24592
3.3309
3.54357
3.99949
4.92249
5.85414
6.45501
6.71252
6.70782
6.67581
6.59577
6.43269
6.21771
6.00525
5.80099
5.60171
5.40525
5.21151
5.02138
4.83632
4.6576
4.48646
4.3235
4.16934
4.02414
3.88818
3.76153
3.64446
3.53713
3.44011
3.35386
3.27941
3.21706
3.17055
3.13058
3.10254
3.08892
3.09181
3.10342
3.13033
3.18421
3.2473
3.3142
3.37767
3.43391
3.48222
3.52369
3.56054
3.59497
3.62844
3.66198
3.69492
3.72664
3.7554
3.77968
3.79626
3.80001
3.79879
3.79476
3.7856
3.76713
3.73997
3.70691
3.66923
3.62796
3.58406
3.53823
3.4912
3.44341
3.39537
3.34734
3.29977
3.25276
3.20677
3.16188
3.11829
3.07594
3.03496
2.99531
2.95715
2.92062
2.88586
2.8537
2.82407
2.80207
6.26401
6.12877
5.83294
5.47645
5.16846
4.89504
4.63955
4.39928
4.17154
3.95968
3.76631
3.59878
3.46725
3.41928
3.43668
3.50452
3.68257
4.06798
4.84665
5.55482
6.04022
6.36933
6.57197
6.6255
6.61608
6.58108
6.49861
6.33389
6.14012
5.94021
5.7407
5.54318
5.348
5.15612
4.96861
4.78686
4.61177
4.44415
4.28441
4.13294
3.98984
3.85538
3.72957
3.61271
3.50497
3.40677
3.31864
3.24123
3.17552
3.12327
3.08198
3.04952
3.02978
3.03063
3.03827
3.05849
3.10053
3.16552
3.24074
3.31909
3.39386
3.46167
3.52229
3.57684
3.6266
3.67212
3.71386
3.74973
3.77804
3.79814
3.80537
3.8045
3.80114
3.79296
3.77602
3.74915
3.71612
3.67866
3.63787
3.59454
3.54945
3.50311
3.45609
3.4087
3.36137
3.3144
3.26825
3.22313
3.17915
3.13626
3.09461
3.05414
3.015
2.97722
2.94101
2.90662
2.87413
2.84459
2.81749
2.79828
6.16541
6.1013
5.92557
5.5791
5.25972
4.98123
4.72707
4.49061
4.26888
4.06471
3.88493
3.73911
3.66542
3.67742
3.73598
3.89793
4.25594
4.97727
5.58942
5.91691
6.0916
6.23591
6.37363
6.47832
6.52331
6.51774
6.49122
6.42195
6.27852
6.08567
5.88119
5.67741
5.47754
5.28243
5.09238
4.90811
4.73011
4.55888
4.39486
4.23833
4.08954
3.94872
3.81596
3.69147
3.5754
3.46799
3.36958
3.28068
3.20185
3.13425
3.0785
3.03673
3.003
2.98201
2.98168
2.98674
3.00287
3.03826
3.10336
3.19043
3.28428
3.37838
3.4672
3.5472
3.61695
3.67547
3.72308
3.7599
3.78655
3.80152
3.80091
3.79778
3.79021
3.77489
3.74876
3.71653
3.68008
3.6404
3.59834
3.55448
3.50946
3.46356
3.41732
3.37104
3.32537
3.28043
3.23645
3.1934
3.15144
3.1105
3.07076
3.03224
2.99512
2.95953
2.9257
2.89398
2.86441
2.8383
2.81448
2.79894
6.00316
6.00557
5.92084
5.71007
5.37153
5.07538
4.81681
4.58315
4.36958
4.18024
4.02612
3.93939
3.94947
4.00619
4.16763
4.52587
5.24481
5.80904
6.04499
6.10416
6.11135
6.1303
6.17845
6.27744
6.38838
6.45475
6.45098
6.42683
6.36119
6.22343
6.02391
5.81243
5.60458
5.40368
5.20969
5.02233
4.84145
4.66704
4.49948
4.33882
4.18553
4.0396
3.90135
3.77085
3.64824
3.53381
3.42764
3.33022
3.24192
3.16344
3.09569
3.03946
2.99632
2.96728
2.95081
2.95236
2.95916
2.97661
3.01353
3.08003
3.16735
3.27295
3.38289
3.48738
3.57963
3.65534
3.71348
3.75334
3.77924
3.78344
3.7813
3.77532
3.76187
3.73728
3.70688
3.67231
3.63463
3.59453
3.55267
3.50938
3.46527
3.4205
3.37595
3.33184
3.28846
3.24577
3.20398
3.16304
3.12315
3.08431
3.04673
3.01047
2.97579
2.94287
2.91199
2.88362
2.85776
2.83604
2.81605
2.80465
5.58537
5.90375
5.87508
5.75329
5.49015
5.17945
4.91261
4.68212
4.48285
4.32204
4.23164
4.24237
4.30364
4.47781
4.86227
5.60793
6.14511
6.30051
6.2886
6.23746
6.12593
6.06345
6.0743
6.11494
6.20608
6.33273
6.39378
6.38823
6.36152
6.29201
6.14782
5.94478
5.73207
5.52403
5.32386
5.13175
4.94692
4.76903
4.59803
4.43385
4.27674
4.12673
3.98402
3.84885
3.72117
3.60147
3.4896
3.38614
3.29122
3.20546
3.12955
3.06432
3.01069
2.97062
2.94341
2.94251
2.9459
2.95654
2.98033
3.02691
3.09526
3.18017
3.28611
3.3965
3.50121
3.59149
3.66253
3.7108
3.74089
3.74308
3.7403
3.7327
3.71598
3.68769
3.65506
3.61951
3.5819
3.54258
3.50185
3.45994
3.41747
3.37511
3.33311
3.2915
3.25054
3.21018
3.17069
3.13203
3.09446
3.05801
3.02295
2.98938
2.95764
2.92798
2.90077
2.87661
2.85558
2.83867
2.82319
2.81777
4.64176
5.67052
5.78323
5.73227
5.58887
5.29819
5.02341
4.79911
4.62566
4.5365
4.55032
4.62268
4.82314
5.26204
6.04133
6.55619
6.64783
6.61768
6.51568
6.30539
6.12235
6.02354
6.02437
6.03914
6.08242
6.17598
6.28119
6.31597
6.30809
6.2777
6.20324
6.05143
5.85286
5.64348
5.43742
5.23913
5.04882
4.86634
4.69131
4.52349
4.36287
4.20932
4.06309
3.92427
3.79294
3.66947
3.55373
3.4463
3.3472
3.25706
3.1764
3.10598
3.04664
2.99994
2.96605
2.95255
2.95441
2.96123
2.97759
3.01171
3.06837
3.13336
3.21219
3.30225
3.39639
3.48567
3.56278
3.62132
3.6608
3.6749
3.6733
3.66748
3.65419
3.62778
3.59544
3.56025
3.52354
3.48555
3.44653
3.40699
3.36742
3.3279
3.28868
3.24975
3.21139
3.1736
3.13666
3.10059
3.06569
3.03203
2.99994
2.96961
2.94147
2.91589
2.89331
2.87467
2.85885
2.84759
2.83924
2.83938
2.9818
5.11384
5.65891
5.66463
5.60083
5.43974
5.16986
4.95461
4.85309
4.87093
4.95881
5.19652
5.71167
6.53993
7.0409
7.07554
7.02623
6.88153
6.59007
6.33475
6.15284
6.04287
6.00768
6.01058
6.02428
6.06015
6.13457
6.20245
6.21555
6.20597
6.17434
6.09799
5.94445
5.75243
5.54794
5.3452
5.14887
4.96062
4.78065
4.6085
4.44422
4.28735
4.13826
3.9967
3.86294
3.73707
3.61919
3.50969
3.40866
3.31675
3.2344
3.16226
3.10151
3.05265
3.01749
2.9951
2.99557
2.99909
3.00846
3.02846
3.06554
3.11616
3.16494
3.22414
3.29042
3.35979
3.42749
3.48805
3.53617
3.56764
3.5768
3.5752
3.56941
3.55549
3.52814
3.49625
3.46133
3.42499
3.38836
3.35172
3.31521
3.27879
3.2426
3.20665
3.17117
3.13626
3.10217
3.06907
3.03722
3.00685
2.97832
2.95198
2.92837
2.90791
2.89164
2.87861
2.86943
2.86607
2.86662
2.86924
2.19433
3.85995
5.30941
5.58559