/*--------------------------------*- C++ -*----------------------------------*\
  =========                 |
  \\      /  F ield         | OpenFOAM: The Open Source CFD Toolbox
   \\    /   O peration     | Website:  https://openfoam.org
    \\  /    A nd           | Version:  9
     \\/     M anipulation  |
\*---------------------------------------------------------------------------*/
FoamFile
{
    format      ascii;
    class       surfaceScalarField;
    location    "5";
    object      phi;
}
// * * * * * * * * * * * * * * * * * * * * * * * * * * * * * * * * * * * * * //

dimensions      [1 0 -1 0 0 0 0];

internalField   nonuniform List<scalar> 
10325
(
0.00840002
1.28464e-10
0.00840004
1.79562e-10
0.00839997
2.79455e-09
0.00840014
1.69366e-09
0.00839977
1.90624e-08
0.00840043
2.25815e-08
0.00839904
9.98614e-08
0.00840063
2.0617e-07
0.00839663
5.12777e-07
0.00840156
1.46474e-06
0.00838628
3.2215e-06
0.00839474
9.9522e-06
0.0083486
2.9895e-05
0.00824389
0.00011254
0.00767043
0.000571239
0.00700488
0.000665384
0.00637485
0.000630107
0.00572492
0.000649878
0.00504323
0.000681532
0.00432138
0.000721862
0.00355013
0.000771186
0.00273002
0.000820088
0.00186591
0.00086432
0.000957116
0.000908711
0.000957004
0.00840003
4.47015e-11
0.0084
1.62571e-09
0.00840008
1.59135e-09
0.00839987
1.60768e-08
0.00840039
1.35884e-08
0.00839898
1.01087e-07
0.00840243
1.00545e-07
0.0083943
5.98976e-07
0.00841143
7.57413e-07
0.00837789
3.27955e-06
0.00842084
6.19902e-06
0.00835985
2.05291e-05
0.0083691
6.07238e-05
0.00823533
0.000225492
0.00768093
0.00112943
0.00700088
0.00134591
0.00637887
0.00125226
0.00573829
0.0012904
0.00506112
0.00135855
0.00433175
0.00145124
0.00355129
0.00155158
0.00272261
0.00164874
0.00184666
0.00174047
0.000931253
0.00182404
0.00188815
0.00840002
3.95629e-10
0.00840004
1.06185e-09
0.00839998
7.37543e-09
0.0084001
1.03865e-08
0.00839973
5.36316e-08
0.00840069
6.80341e-08
0.00839799
3.38824e-07
0.00840445
4.38719e-07
0.00838936
2.01447e-06
0.00841614
3.19264e-06
0.00837084
1.15439e-05
0.00840849
2.73449e-05
0.00834032
9.18673e-05
0.00825819
0.00032717
0.00775734
0.00162536
0.00706582
0.00203747
0.00644134
0.00187659
0.00580544
0.00192624
0.00513194
0.00203196
0.00440113
0.0021819
0.00361431
0.00233852
0.00277452
0.00248842
0.00188365
0.00263155
0.000948543
0.00275916
0.00283653
0.00840003
2.21236e-10
0.00840001
2.36558e-09
0.00840003
5.21525e-09
0.00839997
2.34341e-08
0.00840014
3.95707e-08
0.00839944
1.58324e-07
0.00840129
2.44974e-07
0.00839605
9.89891e-07
0.00840732
1.56789e-06
0.00838441
5.89377e-06
0.00841353
1.17609e-05
0.00837208
3.8146e-05
0.00837659
0.000111959
0.00828077
0.000408902
0.00791268
0.00199663
0.00721538
0.00273483
0.00657746
0.00251465
0.00593875
0.00256491
0.00526781
0.00270282
0.00453523
0.00291454
0.00374232
0.00313117
0.00289044
0.00334032
0.00197348
0.00354878
0.00100008
0.0037324
0.00383635
0.00840002
4.31501e-10
0.00840003
1.96452e-09
0.00840002
8.45632e-09
0.00840002
1.9204e-08
0.00839995
6.33707e-08
0.00840019
1.21841e-07
0.00839911
4.21527e-07
0.00840183
7.32253e-07
0.00839445
2.64624e-06
0.00840746
4.90858e-06
0.00838648
1.60437e-05
0.00840162
3.93717e-05
0.00837252
0.000128297
0.00834034
0.00044914
0.00818415
0.00214959
0.00748168
0.00343771
0.00680577
0.00319046
0.00615271
0.00321792
0.00547659
0.00337865
0.00474437
0.00364684
0.00394256
0.003933
0.00307011
0.00421273
0.00211963
0.00449932
0.00108624
0.00476581
0.00492252
0.00840002
2.65557e-10
0.00840003
2.50357e-09
0.0084
6.57876e-09
0.00840009
2.44742e-08
0.00839991
4.93788e-08
0.00840013
1.65616e-07
0.00839991
3.07531e-07
0.00839943
1.04901e-06
0.00840049
1.92759e-06
0.00839887
6.34741e-06
0.00839919
1.35155e-05
0.00840441
4.15334e-05
0.00840363
0.000120065
0.00843348
0.000423433
0.00866367
0.00191916
0.00794648
0.00415429
0.0071698
0.00396711
0.00647998
0.00390773
0.00578705
0.00407146
0.00504786
0.00438598
0.00423248
0.00474834
0.00333241
0.00511277
0.00233392
0.00549799
0.00121911
0.00588038
0.00614151
0.00840002
3.70515e-10
0.00840003
1.81687e-09
0.00840001
7.85224e-09
0.00840007
1.79793e-08
0.00839987
5.81152e-08
0.00840047
1.23631e-07
0.00839882
3.54252e-07
0.00840329
7.89818e-07
0.00839319
2.08776e-06
0.00841519
5.05527e-06
0.00838208
1.29925e-05
0.00842982
3.44462e-05
0.00841219
0.000102323
0.00851437
0.00034156
0.00894864
0.00147763
0.00839732
0.004707
0.00754837
0.00481611
0.00684642
0.00460962
0.00616556
0.00475208
0.00543058
0.0051212
0.00460666
0.00557211
0.00368399
0.00603507
0.00263697
0.00654516
0.00142178
0.00709573
0.00756329
0.00840003
3.01961e-10
0.00840002
2.05764e-09
0.00840007
6.48664e-09
0.00839994
2.01379e-08
0.00840024
4.84239e-08
0.00839963
1.27316e-07
0.00840094
3.18884e-07
0.00839845
7.43445e-07
0.00840288
2.04229e-06
0.00839506
4.45991e-06
0.00841029
1.28194e-05
0.00838986
3.12487e-05
0.00842297
9.47531e-05
0.00844177
0.000309689
0.00861286
0.00130852
0.00832012
0.00499902
0.00764724
0.00548871
0.00709907
0.00515772
0.006482
0.00536898
0.00580873
0.00579435
0.00502314
0.00635774
0.00411258
0.00694554
0.00304556
0.0076126
0.00173745
0.00840384
0.00930059
0.00840002
3.68551e-10
0.00840004
1.62847e-09
0.00839999
7.52654e-09
0.00840013
1.62257e-08
0.00839981
5.49737e-08
0.00840057
1.13983e-07
0.00839892
3.35081e-07
0.00840284
7.34758e-07
0.0083943
1.98814e-06
0.00841108
4.67532e-06
0.00838348
1.22066e-05
0.00842074
3.18321e-05
0.00838557
9.23689e-05
0.00841437
0.000301618
0.00850034
0.00121752
0.0081992
0.00530049
0.0079187
0.00576913
0.00733274
0.00574363
0.00673503
0.00596659
0.0061535
0.00637582
0.0054615
0.00704962
0.00463807
0.00776886
0.00364404
0.00860658
0.00225973
0.00978763
0.01156
0.00840003
2.39889e-10
0.00840002
2.30347e-09
0.00840005
5.87233e-09
0.00839998
2.23398e-08
0.00840015
4.47894e-08
0.00839965
1.43634e-07
0.008401
2.90026e-07
0.00839747
8.67439e-07
0.00840612
1.8413e-06
0.00838776
5.17387e-06
0.00841985
1.206e-05
0.00837487
3.31505e-05
0.0084196
9.22432e-05
0.00838461
0.000301235
0.00845967
0.00116024
0.00830697
0.00544952
0.00789744
0.00617838
0.0074719
0.00616909
0.00702433
0.00641403
0.00651914
0.00688084
0.0059768
0.00759167
0.00533506
0.00841036
0.00444415
0.00949746
0.00313673
0.0110952
0.0146962
0.00840003
3.50089e-10
0.00840004
1.89236e-09
0.0084
7.46796e-09
0.0084001
1.88524e-08
0.00839984
5.47791e-08
0.00840052
1.29802e-07
0.00839892
3.37271e-07
0.00840282
8.26354e-07
0.00839416
2.00817e-06
0.00841244
5.23847e-06
0.00837928
1.251e-05
0.0084248
3.40965e-05
0.00837226
9.38287e-05
0.00841253
0.000301031
0.00843386
0.00111879
0.00849651
0.0053906
0.00807502
0.00660009
0.00765182
0.00659219
0.00730994
0.00675578
0.00693563
0.00725512
0.00657251
0.00795476
0.00614193
0.0088408
0.00572762
0.00991137
0.00569304
0.0111287
0.011511
0.00887789
0.00840003
2.94982e-10
0.00840002
2.10088e-09
0.00840005
6.58318e-09
0.00839997
2.07724e-08
0.00840016
4.99184e-08
0.00839977
1.3629e-07
0.0084006
3.22991e-07
0.00839896
8.27681e-07
0.00840177
2.05436e-06
0.00839636
5.03997e-06
0.00840553
1.3113e-05
0.00838982
3.33182e-05
0.00841276
9.38692e-05
0.008402
0.000291383
0.00847688
0.00105388
0.00890457
0.00496041
0.00844727
0.00705725
0.00797498
0.00706457
0.00762655
0.00710428
0.00734047
0.00754079
0.00708149
0.00821336
0.00688243
0.00903929
0.00684729
0.00994616
0.00729444
0.0106823
0.0104878
0.00831434
0.00840003
3.43234e-10
0.00840003
1.72763e-09
0.00840002
7.15021e-09
0.00840006
1.68877e-08
0.00839995
5.26038e-08
0.00840027
1.15133e-07
0.00839942
3.28866e-07
0.00840177
7.35434e-07
0.00839639
1.99386e-06
0.00840959
4.66594e-06
0.00838548
1.22953e-05
0.00842672
3.08267e-05
0.00838963
8.58044e-05
0.0084613
0.000257977
0.00859021
0.000903543
0.00964286
0.00391232
0.00906888
0.00763135
0.00847112
0.0076628
0.0080799
0.0074947
0.0078133
0.00780775
0.0076391
0.0083876
0.00760692
0.00907228
0.00783132
0.00972033
0.00837608
0.0101365
0.00986369
0.0089987
0.00840003
2.12015e-10
0.00840002
1.70369e-09
0.00840004
4.94111e-09
0.00839999
1.68299e-08
0.00840015
3.7583e-08
0.0083998
1.09717e-07
0.00840081
2.41066e-07
0.00839875
6.58532e-07
0.00840453
1.50469e-06
0.00839371
3.9258e-06
0.00842048
9.4475e-06
0.00838657
2.43703e-05
0.00846199
6.34472e-05
0.00848438
0.000184926
0.00881209
0.000604433
0.010259
0.00245688
0.00976457
0.00812721
0.00929636
0.00813071
0.00869192
0.00809983
0.00836962
0.00812915
0.00824199
0.00851514
0.00828904
0.00902319
0.00854064
0.00947015
0.00901694
0.00965863
0.00936552
0.00951369
0.00840003
2.42248e-10
0.00840003
1.23666e-09
0.00840002
5.06996e-09
0.00840005
1.21098e-08
0.00839998
3.74083e-08
0.00840021
8.08926e-08
0.00839965
2.32113e-07
0.00840135
5.0521e-07
0.00839767
1.38092e-06
0.00840789
3.12834e-06
0.00838945
8.27801e-06
0.00842907
1.98538e-05
0.00839003
5.32957e-05
0.00847939
0.000147763
0.00856452
0.000477316
0.00920283
0.00184053
0.00990247
0.00742182
0.00957437
0.00845831
0.00914982
0.0085241
0.00887508
0.00840344
0.00877709
0.00861341
0.00885024
0.00894983
0.00908154
0.00923673
0.00946437
0.00927649
0.00895433
0.0098737
0.00840003
1.80986e-10
0.00840003
1.22548e-09
0.00840004
3.96422e-09
0.00840001
1.20114e-08
0.00840008
2.96233e-08
0.00839991
7.83623e-08
0.00840043
1.89815e-07
0.00839918
4.74856e-07
0.00840274
1.17978e-06
0.00839536
2.85583e-06
0.00841357
7.27888e-06
0.00838402
1.77778e-05
0.00843618
4.69123e-05
0.00840533
0.000128735
0.00851917
0.00040308
0.00886766
0.00147156
0.00987801
0.00641512
0.00975114
0.00858533
0.00952401
0.0087506
0.00929026
0.00863806
0.00921745
0.00868472
0.00929886
0.00887032
0.00950466
0.00902676
0.00980591
0.00897767
0.00863592
0.0101221
0.00840003
1.50911e-10
0.00840003
1.05024e-09
0.00840002
3.40777e-09
0.00840005
1.03067e-08
0.00840001
2.55472e-08
0.00840008
6.86068e-08
0.00840003
1.61499e-07
0.00840002
4.24689e-07
0.00840061
9.94526e-07
0.00839904
2.60338e-06
0.00840438
6.18262e-06
0.0083975
1.61308e-05
0.00841627
4.04318e-05
0.00842179
0.000111694
0.00849881
0.000335198
0.00878902
0.00117534
0.0103585
0.00484645
0.0102023
0.00874151
0.00995861
0.00899424
0.00968974
0.00890741
0.00961428
0.00875843
0.00967778
0.00880894
0.00984363
0.00885729
0.0100769
0.00874461
0.00840089
0.0103136
0.00840003
1.22786e-10
0.00840003
8.03759e-10
0.00840002
2.74181e-09
0.00840005
7.92143e-09
0.0084
2.04024e-08
0.00840015
5.27304e-08
0.00839989
1.26699e-07
0.00840068
3.25354e-07
0.00839943
7.61473e-07
0.00840324
1.97447e-06
0.00839806
4.60085e-06
0.00841523
1.20141e-05
0.00840413
2.90644e-05
0.00846969
7.81832e-05
0.00855083
0.00022053
0.00902826
0.000717667
0.011086
0.00278373
0.0109093
0.00891812
0.0106604
0.00924298
0.0102992
0.00926874
0.0100752
0.00898025
0.0100533
0.00883469
0.0101521
0.00875388
0.0103146
0.00858321
0.00823533
0.0104803
0.00840003
1.01119e-10
0.00840003
6.23952e-10
0.00840003
2.21498e-09
0.00840004
6.13174e-09
0.00840001
1.64513e-08
0.00840011
4.0554e-08
0.0083999
1.03225e-07
0.00840062
2.48781e-07
0.00839916
6.2411e-07
0.00840367
1.49576e-06
0.00839555
3.77119e-06
0.00841811
9.12236e-06
0.00838831
2.32631e-05
0.00845917
5.93475e-05
0.00845471
0.000165476
0.00870399
0.000518187
0.00952203
0.00193758
0.0109697
0.00747698
0.010909
0.00930402
0.0106972
0.0094803
0.0104626
0.00921372
0.0103927
0.00890737
0.0104336
0.00870837
0.010534
0.00848398
0.00813046
0.0106393
0.00840003
8.36594e-11
0.00840003
4.93252e-10
0.00840003
1.82188e-09
0.00840004
4.84716e-09
0.00840001
1.3504e-08
0.0084001
3.26443e-08
0.00839992
8.39993e-08
0.00840047
2.03897e-07
0.00839945
5.02959e-07
0.00840246
1.26218e-06
0.00839713
3.01892e-06
0.00841147
7.80799e-06
0.00839206
1.8724e-05
0.00843865
4.96663e-05
0.00842561
0.000132315
0.00858207
0.000403585
0.00907588
0.00142019
0.0110017
0.00555563
0.011143
0.00916311
0.0110557
0.00956755
0.0108269
0.0094422
0.0107065
0.00902942
0.0106928
0.00871922
0.0107407
0.00843631
0.00807417
0.0107959
0.00840003
6.43417e-11
0.00840003
3.78347e-10
0.00840003
1.37439e-09
0.00840003
3.72307e-09
0.00840005
1.02096e-08
0.00840002
2.44271e-08
0.00840011
6.42849e-08
0.00840004
1.4793e-07
0.00840026
3.9198e-07
0.00840066
8.83395e-07
0.00840044
2.35744e-06
0.0084051
5.33884e-06
0.00840468
1.42471e-05
0.00842722
3.38386e-05
0.00846273
9.18581e-05
0.00861233
0.000256635
0.00919218
0.00083753
0.0116229
0.00312518
0.0117082
0.00907786
0.0116154
0.00966044
0.0113606
0.00969711
0.0110842
0.00930601
0.0109773
0.00882578
0.0109614
0.00845256
0.00806483
0.0109674
0.00840003
4.37861e-11
0.00840003
2.98285e-10
0.00840003
9.76461e-10
0.00840003
2.93363e-09
0.00840004
7.2976e-09
0.00840002
1.92119e-08
0.0084001
4.60191e-08
0.00839995
1.15771e-07
0.0084006
2.80051e-07
0.00839939
6.883e-07
0.00840374
1.68952e-06
0.00839661
4.10395e-06
0.00841975
1.02685e-05
0.00839263
2.51339e-05
0.00847286
6.54341e-05
0.00848915
0.000177903
0.00882783
0.000552054
0.00990988
0.002013
0.0117335
0.00726071
0.0118356
0.00955883
0.0116842
0.00984863
0.0114016
0.00958835
0.0112749
0.00895364
0.0111956
0.00853057
0.00810054
0.0111578
0.00840003
3.32093e-11
0.00840003
2.199e-10
0.00840003
7.49505e-10
0.00840003
2.15876e-09
0.00840003
5.5762e-09
0.00840005
1.44148e-08
0.00840004
3.45029e-08
0.00840007
8.94996e-08
0.0084002
2.05745e-07
0.00839998
5.4418e-07
0.00840165
1.23194e-06
0.00839876
3.28949e-06
0.00841108
7.46575e-06
0.00839598
2.00983e-05
0.00844625
4.8047e-05
0.00845159
0.000133473
0.00865282
0.000387271
0.00930054
0.00134163
0.0117084
0.0048583
0.0119951
0.00927192
0.0120656
0.00977813
0.011913
0.00974064
0.0115823
0.00928575
0.011449
0.00866163
0.00818799
0.0113607
0.00840003
2.44201e-11
0.00840003
1.5671e-10
0.00840003
5.38619e-10
0.00840003
1.5419e-09
0.00840004
3.98772e-09
0.00840003
1.01752e-08
0.00840007
2.48769e-08
0.00840003
6.18859e-08
0.00840018
1.50457e-07
0.00840024
3.67889e-07
0.0084005
9.01777e-07
0.00840206
2.18716e-06
0.0084021
5.42048e-06
0.00841304
1.31819e-05
0.00842155
3.33017e-05
0.00847572
8.51609e-05
0.00862227
0.000237689
0.0092202
0.00074618
0.011414
0.00266179
0.0124215
0.00826545
0.0124141
0.00978551
0.0122298
0.00992465
0.0118864
0.009629
0.0117249
0.00882209
0.00832971
0.0115832
0.00840003
1.8456e-11
0.00840003
1.09991e-10
0.00840003
3.98628e-10
0.00840003
1.08131e-09
0.00840003
2.95758e-09
0.00840003
7.11272e-09
0.00840004
1.84626e-08
0.00840006
4.32312e-08
0.00840006
1.1085e-07
0.00840033
2.60023e-07
0.00839998
6.59773e-07
0.00840232
1.56173e-06
0.00839917
3.92594e-06
0.0084142
9.50827e-06
0.00840067
2.38396e-05
0.00846212
6.02476e-05
0.00849458
0.000161964
0.00879501
0.000485059
0.00972588
0.00170777
0.0121822
0.00581212
0.012516
0.0094516
0.012587
0.00985375
0.0124404
0.00977548
0.0120494
0.00921316
0.00855055
0.0118279
0.00840003
1.17248e-11
0.00840003
7.89408e-11
0.00840003
2.61097e-10
0.00840003
7.77197e-10
0.00840003
1.93781e-09
0.00840003
5.08908e-09
0.00840006
1.20897e-08
0.00840002
3.07342e-08
0.00840017
7.2795e-08
0.00840003
1.81695e-07
0.00840062
4.3522e-07
0.00840059
1.0672e-06
0.00840212
2.6124e-06
0.00840543
6.29332e-06
0.00841209
1.57787e-05
0.00843425
3.87072e-05
0.00849894
0.000101151
0.00869554
0.000281443
0.00950751
0.000900665
0.0122299
0.00308632
0.0129347
0.00874736
0.0129551
0.00983322
0.0127384
0.00999194
0.0123943
0.00955671
0.00880741
0.0121376
0.00840003
8.29436e-12
0.00840003
5.38023e-11
0.00840003
1.81751e-10
0.00840003
5.28617e-10
0.00840003
1.35e-09
0.00840003
3.44813e-09
0.00840004
8.46235e-09
0.00840004
2.06662e-08
0.00840006
5.10398e-08
0.00840017
1.21995e-07
0.00840006
3.04915e-07
0.00840113
7.18947e-07
0.00839983
1.8138e-06
0.00840734
4.27011e-06
0.00839949
1.08672e-05
0.00843832
2.60083e-05
0.0084294
6.77724e-05
0.00858562
0.000178427
0.00889247
0.000542014
0.0101293
0.00188034
0.0126833
0.00618597
0.0129832
0.0095325
0.0131548
0.00981985
0.0128838
0.00982736
0.00917602
0.0125144
0.00840003
5.77475e-12
0.00840003
3.53026e-11
0.00840003
1.25987e-10
0.00840003
3.46359e-10
0.00840003
9.31884e-10
0.00840003
2.26586e-09
0.00840003
5.79622e-09
0.00840006
1.3676e-08
0.00840002
3.45978e-08
0.0084002
8.11655e-08
0.00839998
2.04198e-07
0.00840097
4.81463e-07
0.00839997
1.20078e-06
0.00840512
2.86341e-06
0.00840067
7.09298e-06
0.00842594
1.72709e-05
0.00842146
4.33703e-05
0.00853065
0.000111599
0.00871112
0.00031424
0.00961358
0.00101013
0.0124137
0.00337494
0.0132773
0.00866874
0.013361
0.00973585
0.0132147
0.00997338
0.00955379
0.0128363
0.00840003
3.7908e-12
0.00840003
2.36703e-11
0.00840003
8.40439e-11
0.00840003
2.32904e-10
0.00840003
6.17929e-10
0.00840003
1.54187e-09
0.00840003
3.78351e-09
0.00840005
9.41788e-09
0.00840003
2.23269e-08
0.00840011
5.61602e-08
0.0084001
1.31102e-07
0.00840033
3.33679e-07
0.00840073
7.70211e-07
0.00840113
1.97098e-06
0.00840531
4.57069e-06
0.00840595
1.17153e-05
0.00843142
2.78078e-05
0.00845606
7.23983e-05
0.00859663
0.000189628
0.00901591
0.00057472
0.0104559
0.00194523
0.013014
0.00610826
0.0133287
0.00942082
0.0135635
0.00973849
0.00976437
0.0133527
0.00840003
2.51125e-12
0.00840003
1.53933e-11
0.00840003
5.48336e-11
0.00840003
1.51187e-10
0.00840003
4.05111e-10
0.00840003
9.88671e-10
0.00840003
2.50812e-09
0.00840004
5.94444e-09
0.00840004
1.48848e-08
0.00840008
3.52411e-08
0.00840004
8.72467e-08
0.00840042
2.08193e-07
0.00839997
5.1012e-07
0.00840262
1.22934e-06
0.00839963
2.99296e-06
0.0084151
7.27785e-06
0.00840229
1.78147e-05
0.00847209
4.43818e-05
0.00848689
0.000113822
0.00880852
0.00031765
0.00969955
0.00101222
0.0125549
0.00326262
0.0135906
0.00838557
0.0136582
0.00967072
0.00978802
0.0136343
0.00840003
1.60252e-12
0.00840003
1.01373e-11
0.00840003
3.49323e-11
0.00840003
9.94056e-11
0.00840003
2.59423e-10
0.00840003
6.44398e-10
0.00840003
1.61687e-09
0.00840003
3.84165e-09
0.00840004
9.66925e-09
0.00840005
2.25518e-08
0.00840008
5.71223e-08
0.00840019
1.32168e-07
0.00840016
3.35866e-07
0.00840125
7.80124e-07
0.00840035
1.96227e-06
0.00840811
4.63694e-06
0.00840219
1.15807e-05
0.00844435
2.80937e-05
0.00844272
7.15064e-05
0.00863159
0.000187753
0.00902274
0.00056041
0.01046
0.00186255
0.0132057
0.00563064
0.0136916
0.00918385
0.0096144
0.013865
0.00840003
9.48797e-13
0.00840003
6.51837e-12
0.00840003
2.13843e-11
0.00840003
6.40026e-11
0.00840003
1.58132e-10
0.00840003
4.16625e-10
0.00840003
9.75225e-10
0.00840003
2.48571e-09
0.00840004
5.79557e-09
0.00840003
1.44849e-08
0.0084001
3.42574e-08
0.00840003
8.37393e-08
0.00840046
2.01714e-07
0.00840011
4.84159e-07
0.00840239
1.18644e-06
0.008401
2.80312e-06
0.00841267
6.98258e-06
0.00840967
1.64951e-05
0.0084661
4.19231e-05
0.00850837
0.000104182
0.00882467
0.000289175
0.00976438
0.000893487
0.0126149
0.00278713
0.0139062
0.00789249
0.00956364
0.0139566
0.00840003
6.20928e-13
0.00840003
3.96357e-12
0.00840003
1.38019e-11
0.00840003
3.88773e-11
0.00840003
1.0164e-10
0.00840003
2.54322e-10
0.00840003
6.21728e-10
0.00840003
1.53421e-09
0.00840003
3.65075e-09
0.00840004
9.03767e-09
0.00840004
2.12583e-08
0.00840009
5.30644e-08
0.00840017
1.23669e-07
0.00840024
3.0936e-07
0.00840109
7.24391e-07
0.00840068
1.8004e-06
0.00840737
4.26163e-06
0.00840334
1.05352e-05
0.00844144
2.55715e-05
0.00844371
6.42915e-05
0.00861692
0.000167053
0.00896994
0.000487388
0.0101938
0.00159534
0.013247
0.00483231
0.00879837
0.0140107
0.00840003
4.00595e-13
0.00840003
2.37604e-12
0.00840003
8.72507e-12
0.00840003
2.33292e-11
0.00840003
6.4153e-11
0.00840003
1.5235e-10
0.00840003
3.92654e-10
0.00840003
9.13724e-10
0.00840003
2.29361e-09
0.00840004
5.39572e-09
0.00840003
1.32589e-08
0.0084001
3.16734e-08
0.00840005
7.62773e-08
0.00840038
1.86096e-07
0.00840026
4.38736e-07
0.00840167
1.08926e-06
0.00840235
2.53088e-06
0.00840724
6.39959e-06
0.00841693
1.47977e-05
0.00844544
3.81045e-05
0.00851267
9.26467e-05
0.00875626
0.000254648
0.00958315
0.000762709
0.0120116
0.00240128
0.0068397
0.013973
0.00840003
2.28008e-13
0.00840003
1.52917e-12
0.00840003
5.05271e-12
0.00840003
1.4996e-11
0.00840003
3.7307e-11
0.00840003
9.67937e-11
0.00840003
2.30906e-10
0.00840003
5.71586e-10
0.00840003
1.37506e-09
0.00840003
3.30573e-09
0.00840004
8.08696e-09
0.00840005
1.90178e-08
0.00840008
4.74681e-08
0.00840017
1.09459e-07
0.00840023
2.77016e-07
0.00840104
6.3368e-07
0.00840076
1.60896e-06
0.00840684
3.6942e-06
0.00840359
9.37789e-06
0.00843957
2.19328e-05
0.00843949
5.62762e-05
0.00860627
0.000141086
0.00890768
0.000402858
0.0100692
0.00127832
0.0038299
0.0130678
0.00840003
1.45266e-13
0.00840003
8.83135e-13
0.00840003
3.18986e-12
0.00840003
8.67914e-12
0.00840003
2.33589e-11
0.00840003
5.67848e-11
0.00840003
1.41879e-10
0.00840003
3.42119e-10
0.00840003
8.25893e-10
0.00840003
2.01509e-09
0.00840003
4.75465e-09
0.00840005
1.18215e-08
0.00840006
2.73733e-08
0.00840009
6.88566e-08
0.00840026
1.58153e-07
0.00840027
4.00042e-07
0.00840162
9.1985e-07
0.00840108
2.31103e-06
0.00841008
5.39e-06
0.00840687
1.34937e-05
0.00845444
3.22053e-05
0.00847626
8.2186e-05
0.00870813
0.000213339
0.00932262
0.000632838
0.00198268
0.0111833
0.00840003
8.34267e-14
0.00840003
5.41489e-13
0.00840003
1.8346e-12
0.00840003
5.29675e-12
0.00840003
1.355e-11
0.00840003
3.40327e-11
0.00840003
8.36504e-11
0.00840003
2.00112e-10
0.00840003
4.93751e-10
0.00840003
1.15439e-09
0.00840003
2.87847e-09
0.00840004
6.63204e-09
0.00840005
1.66587e-08
0.00840009
3.82331e-08
0.00840009
9.58398e-08
0.00840047
2.20803e-07
0.00840027
5.49216e-07
0.00840286
1.2809e-06
0.00840128
3.14026e-06
0.00841673
7.45801e-06
0.00841061
1.81742e-05
0.00848816
4.44195e-05
0.00852613
0.000112074
0.00892916
0.000302884
0.000925592
0.00993577
0.00840003
4.8392e-14
0.00840003
3.15943e-13
0.00840003
1.08285e-12
0.00840003
3.10005e-12
0.00840003
7.93363e-12
0.00840003
2.01933e-11
0.00840003
4.80462e-11
0.00840003
1.20662e-10
0.00840003
2.78678e-10
0.00840003
7.02291e-10
0.00840003
1.60984e-09
0.00840003
4.0488e-09
0.00840005
9.29277e-09
0.00840004
2.32187e-08
0.00840015
5.38835e-08
0.00840008
1.32522e-07
0.00840069
3.12714e-07
0.00840041
7.56229e-07
0.00840357
1.81854e-06
0.00840289
4.31826e-06
0.00841805
1.06332e-05
0.00842274
2.51462e-05
0.00849607
6.37976e-05
0.00859978
0.000160708
0.000459591
0.00910796
0.00840003
2.93742e-14
0.00840003
1.80271e-13
0.00840003
6.37722e-13
0.00840003
1.76738e-12
0.00840003
4.68539e-12
0.00840003
1.1368e-11
0.00840003
2.87305e-11
0.00840003
6.68482e-11
0.00840003
1.6853e-10
0.00840003
3.85978e-10
0.00840003
9.72075e-10
0.00840003
2.22685e-09
0.00840003
5.57265e-09
0.00840006
1.28676e-08
0.00840004
3.1813e-08
0.00840019
7.46521e-08
0.00840015
1.80983e-07
0.00840083
4.33064e-07
0.00840096
1.03088e-06
0.0084037
2.51757e-06
0.00840701
5.89157e-06
0.00841905
1.47182e-05
0.00844405
3.46619e-05
0.00852555
8.88958e-05
0.000229224
0.00874178
0.00840003
1.62479e-14
0.00840003
1.03542e-13
0.00840003
3.61047e-13
0.00840003
1.01436e-12
0.00840003
2.63822e-12
0.00840003
6.5988e-12
0.00840003
1.58904e-11
0.00840003
3.92784e-11
0.00840003
9.16142e-11
0.00840003
2.28148e-10
0.00840003
5.24252e-10
0.00840003
1.31108e-09
0.00840004
3.00102e-09
0.00840003
7.48832e-09
0.00840007
1.7225e-08
0.00840005
4.25756e-08
0.00840025
9.91636e-08
0.00840021
2.41182e-07
0.00840114
5.70666e-07
0.00840145
1.36397e-06
0.00840523
3.29233e-06
0.00841042
7.74653e-06
0.00842798
1.91155e-05
0.00846609
4.54497e-05
0.000116542
0.00859162
0.00840003
9.07987e-15
0.00840003
5.92419e-14
0.00840003
2.01767e-13
0.00840003
5.78617e-13
0.00840003
1.4828e-12
0.00840003
3.69715e-12
0.00840003
9.07089e-12
0.00840003
2.15736e-11
0.00840003
5.29884e-11
0.00840003
1.23167e-10
0.00840003
3.05586e-10
0.00840003
7.00613e-10
0.00840003
1.7488e-09
0.00840004
3.99851e-09
0.00840004
9.95203e-09
0.00840008
2.28674e-08
0.00840006
5.64063e-08
0.00840033
1.31106e-07
0.00840022
3.18846e-07
0.00840168
7.53423e-07
0.00840139
1.79889e-06
0.00840884
4.33814e-06
0.00840912
1.02264e-05
0.00844596
2.52608e-05
6.05903e-05
0.00847255
0.00840003
4.89959e-15
0.00840003
3.25296e-14
0.00840003
1.09133e-13
0.00840003
3.17858e-13
0.00840003
7.99515e-13
0.00840003
2.04756e-12
0.00840003
4.81864e-12
0.00840003
1.20452e-11
0.00840003
2.77766e-11
0.00840003
6.90862e-11
0.00840003
1.58728e-10
0.00840003
3.91834e-10
0.00840003
9.07246e-10
0.00840003
2.21317e-09
0.00840004
5.18609e-09
0.00840004
1.24651e-08
0.0084001
2.96878e-08
0.00840009
7.01553e-08
0.0084004
1.69576e-07
0.00840044
3.95278e-07
0.00840177
9.68748e-07
0.00840316
2.23068e-06
0.00840814
5.54524e-06
0.00842028
1.27524e-05
3.21428e-05
0.00844941
0.00840003
2.61314e-15
0.00840003
1.64754e-14
0.00840003
5.88689e-14
0.00840003
1.61111e-13
0.00840003
4.28266e-13
0.00840003
1.03853e-12
0.00840003
2.55867e-12
0.00840003
6.08905e-12
0.00840003
1.45552e-11
0.00840003
3.47604e-11
0.00840003
8.18772e-11
0.00840003
1.96414e-10
0.00840003
4.57755e-10
0.00840003
1.10592e-09
0.00840003
2.55411e-09
0.00840004
6.19043e-09
0.00840006
1.42378e-08
0.00840008
3.44876e-08
0.00840022
7.93902e-08
0.00840024
1.90578e-07
0.00840132
4.42738e-07
0.00840098
1.04877e-06
0.008408
2.45917e-06
0.00840583
5.78695e-06
1.37709e-05
0.00844517
0.00840003
1.36818e-15
0.00840003
8.10032e-15
0.00840003
2.96885e-14
0.00840003
7.98799e-14
0.00840003
2.14273e-13
0.00840003
5.08687e-13
0.00840003
1.27643e-12
0.00840003
2.93591e-12
0.00840003
7.19583e-12
0.00840003
1.65378e-11
0.00840003
3.96339e-11
0.00840003
9.26754e-11
0.00840003
2.16191e-10
0.00840003
5.14131e-10
0.00840003
1.17633e-09
0.00840004
2.82988e-09
0.00840004
6.35499e-09
0.00840007
1.54338e-08
0.00840009
3.41788e-08
0.00840021
8.32089e-08
0.00840052
1.82512e-07
0.00840072
4.43353e-07
0.00840346
9.72913e-07
0.00840293
2.31517e-06
5.19117e-06
0.00842206
0.00840003
6.66242e-16
0.00840003
4.02074e-15
0.00840003
1.40481e-14
0.00840003
3.83993e-14
0.00840003
1.02244e-13
0.00840003
2.39494e-13
0.00840003
6.06681e-13
0.00840003
1.3451e-12
0.00840003
3.41515e-12
0.00840003
7.31318e-12
0.00840003
1.87697e-11
0.00840003
3.94766e-11
0.00840003
1.01168e-10
0.00840003
2.14088e-10
0.00840003
5.31049e-10
0.00840004
1.17277e-09
0.00840003
2.72634e-09
0.00840007
6.39468e-09
0.00840002
1.37453e-08
0.00840022
3.44561e-08
0.00840003
6.84442e-08
0.00840082
1.81829e-07
0.00840052
3.33771e-07
0.00840279
9.47713e-07
1.6072e-06
0.00840469
0.00840003
2.94496e-16
0.00840003
1.793e-15
0.00840003
6.11029e-15
0.00840003
1.79413e-14
0.00840003
4.48319e-14
0.00840003
1.10871e-13
0.00840003
2.64524e-13
0.00840003
6.1613e-13
0.00840003
1.46874e-12
0.00840003
3.29012e-12
0.00840003
7.91222e-12
0.00840003
1.73128e-11
0.00840003
4.2076e-11
0.00840003
9.02209e-11
0.00840003
2.20409e-10
0.00840003
4.64831e-10
0.00840003
1.13642e-09
0.00840004
2.39312e-09
0.00840002
5.67854e-09
0.00840013
1.24789e-08
0.00839987
2.74282e-08
0.00840084
6.3561e-08
0.00839875
1.32622e-07
0.00840514
3.20437e-07
6.1847e-07
0.008393
0.00840003
8.4107e-17
0.00840003
9.052e-16
0.00840003
2.18833e-15
0.00840003
9.47089e-15
0.00840003
1.55499e-14
0.00840003
5.9239e-14
0.00840003
9.07138e-14
0.00840003
3.14694e-13
0.00840003
5.29372e-13
0.00840003
1.56952e-12
0.00840003
3.14875e-12
0.00840003
7.33051e-12
0.00840003
1.88265e-11
0.00840003
3.26375e-11
0.00840003
1.11741e-10
0.00840003
1.39113e-10
0.00840003
6.55671e-10
0.00840003
5.16985e-10
0.00840002
3.74176e-09
0.00840007
1.4005e-09
0.00839989
2.05012e-08
0.0084005
3.3242e-09
0.00839886
1.04172e-07
0.00840334
1.88141e-08
4.76491e-07
0.00839329
0.00840003
3.02763e-17
0.00840003
4.22974e-16
0.00840003
1.43285e-15
0.00840003
3.37171e-15
0.00840003
8.93973e-15
0.00840003
2.15293e-14
0.00840003
4.64709e-14
0.00840003
1.38178e-13
0.00840003
2.01617e-13
0.00840003
8.49087e-13
0.00840003
9.89845e-13
0.00840003
5.09721e-12
0.00840003
3.65053e-12
0.00840003
2.89296e-11
0.00840003
1.24962e-11
0.00840003
1.54609e-10
0.00840004
2.03098e-11
0.00840001
7.64404e-10
0.00840008
2.29654e-10
0.00839992
3.49242e-09
0.00840034
3.00963e-09
0.00839936
1.37394e-08
0.00840176
2.62251e-08
0.00839649
5.19035e-08
1.91085e-07
0.00840801
0.00840003
6.69766e-17
0.00840003
4.34223e-17
0.00840003
5.7582e-16
0.00840003
1.25326e-15
0.00840003
5.27101e-15
0.00840003
3.33216e-15
0.00840003
3.84489e-14
0.00840003
-3.43711e-15
0.00840003
2.54772e-13
0.00840003
-1.21544e-13
0.00840003
1.46455e-12
0.00840003
-9.29709e-13
0.00840003
8.05522e-12
0.00840003
-5.5233e-12
0.00840003
3.91156e-11
0.00840003
-2.89709e-11
0.00840002
1.68194e-10
0.00840004
3.07836e-11
0.00840001
5.09985e-10
0.00840005
1.30275e-09
0.00840002
-2.76889e-10
0.00839988
1.49542e-08
0.00840041
-2.48279e-08
0.00839825
1.23646e-07
-1.99175e-07
0.00840339
0.00840003
0.00840003
0.00840003
0.00840003
0.00840003
0.00840003
0.00840003
0.00840003
0.00840003
0.00840003
0.00840003
0.00840003
0.00840003
0.00840003
0.00840003
0.00840003
0.00840004
0.00840001
0.00840007
0.00839996
0.00840015
0.00839982
0.00840007
0.00839973
0.00839938
0.00480931
0.00406278
0.00316639
0.00164143
0.00236143
0.000771959
0.00197178
0.000359831
0.00179087
0.000109473
0.00125093
0.000366382
0.000403487
0.000778335
-0.000292318
0.000683062
-0.00085056
0.000535528
-0.0012831
0.000438
-0.00163832
0.000369426
-0.00191466
0.000296024
-0.00212774
0.000226345
-0.00227382
0.000157347
-0.00237276
0.00010908
-0.00245674
9.15947e-05
-0.00254446
9.66605e-05
-0.00264005
0.000103247
-0.00273288
9.84674e-05
-0.0028161
8.98625e-05
-0.00289336
8.14127e-05
-0.00295632
6.78595e-05
-0.00300346
5.24975e-05
-0.00305415
5.37315e-05
-0.00310438
5.34627e-05
-0.00314186
4.06238e-05
-0.00316084
2.1063e-05
-0.00315882
-1.24648e-06
-0.00312897
-3.0429e-05
-0.00305627
-7.4795e-05
-0.00293566
-0.000123065
-0.00277134
-0.000167224
-0.00256964
-0.000204502
-0.00233432
-0.00023756
-0.00207997
-0.000256224
-0.00181545
-0.000265934
-0.00154767
-0.000269025
-0.00127605
-0.000272496
-0.000999354
-0.000277283
-0.000723706
-0.000276131
-0.000450608
-0.00027347
-0.000173488
-0.000277514
0.000105108
-0.000278905
0.000365071
-0.000260347
0.000610656
-0.000246048
0.000846184
-0.000236144
0.00107229
-0.00022683
0.00128829
-0.000216887
0.0014935
-0.00020609
0.00169048
-0.000197938
0.00188421
-0.000194746
0.00207106
-0.000187848
0.0022498
-0.000179695
0.0024191
-0.000170195
0.00258006
-0.000161781
0.00273252
-0.000153192
0.00287748
-0.000145615
0.0030146
-0.000137699
0.00314477
-0.000130617
0.00326775
-0.000123291
0.00338413
-0.000116684
0.00349383
-0.000109934
0.00359744
-0.000103852
0.00369482
-9.76992e-05
0.0037865
-9.21535e-05
0.00387242
-8.65962e-05
0.0039531