/*--------------------------------*- C++ -*----------------------------------*\
  =========                 |
  \\      /  F ield         | OpenFOAM: The Open Source CFD Toolbox
   \\    /   O peration     | Website:  https://openfoam.org
    \\  /    A nd           | Version:  9
     \\/     M anipulation  |
\*---------------------------------------------------------------------------*/
FoamFile
{
    format      ascii;
    class       volScalarField;
    location    "39";
    object      p;
}
// * * * * * * * * * * * * * * * * * * * * * * * * * * * * * * * * * * * * * //

dimensions      [0 2 -2 0 0 0 0];

internalField   nonuniform List<scalar> 
918
(
0.54140412
1.7602476
0.012090051
0.51893196
-0.0083815083
1.7309218
-0.91909443
1.256168
0.56833149
-0.17287155
-0.05276515
0.69589874
1.6022938
1.3608178
-0.6716673
-0.021907863
1.0932807
-0.74102558
0.57755319
-0.066727383
1.3280803
0.51236597
0.53875043
0.51255308
0.85305938
1.3220069
1.4654407
0.0071943185
0.0017870682
-0.010946566
-0.0046376708
-0.050888025
-0.033365034
1.6071983
1.6612193
1.684902
0.5226584
0.59558194
-0.72849397
-0.80661668
-0.79930387
-0.98348881
1.2413666
1.2329863
-0.41120601
1.2664716
1.2776104
0.52376607
0.56489884
0.57737505
0.50850095
0.54156534
0.55641555
0.47939395
-0.19156898
-0.25299294
-0.12798869
-0.10663184
0.065111098
-0.044273656
-0.047801009
-0.042628009
-0.040008468
0.51165677
0.67545532
0.65519403
0.71308554
0.74305752
1.6973433
1.6607905
1.6877654
1.6345855
1.6248907
1.5821226
1.5452652
1.400013
1.4075756
1.357779
1.3205165
-1.1922898
-2.218621
-0.10367676
0.19509094
-0.00421038
-0.0060763655
0.0070664804
1.0728212
1.0561526
1.1163918
1.1407752
1.3012025
-0.70301478
-0.92725972
0.58107851
0.57734014
0.56072632
0.54261315
0.58920484
0.63449606
-0.047736751
-0.043460025
-0.083008255
-0.06077307
-0.066729273
1.3109843
1.3121474
0.52720734
0.53172346
0.76063658
0.81247729
0.79418483
0.32697797
0.86095431
0.87357801
1.1434464
1.3273964
1.3318972
1.3165668
1.4517821
1.4073614
1.512046
1.5375898
0.028951423
0.0025925321
-0.0053830997
-0.024587597
-0.0056060379
0.5304783
0.52566744
0.58564252
0.5253228
0.53216411
0.53968309
0.39973132
0.68481235
0.70177815
-0.59849968
-0.65084302
-0.81902066
-0.84859071
-0.99774667
0.94464451
1.2168342
1.2045447
-0.46911463
-0.35234147
-0.51964126
-0.26297234
-0.30727174
0.52973842
0.53470806
0.53009477
0.5266301
0.52767343
0.52906404
0.55588374
0.55393595
0.57014821
0.55115927
0.69221619
0.42700961
0.37067906
-0.4735028
-0.28979866
-0.45191302
-0.086280985
-0.075603048
0.090073888
0.13825646
0.067917686
0.065931382
-0.062901082
-0.050033514
-0.057363235
-0.04110774
-0.038722338
0.50135611
0.49537726
0.51524687
0.52130999
0.61402273
0.61812073
0.64005014
0.63099774
1.4712475
1.4949009
1.5395811
1.5024918
-3.5853214
-6.2336428
0.51419518
0.68980826
-0.0087708371
-0.0081410591
0.0044001333
-0.00014610663
0.0023135462
-0.0085418392
0.024547639
0.016744953
0.009475896
0.017269528
1.0262111
1.0098389
1.2493716
1.2868989
1.1649515
1.153972
0.58626598
0.58314256
0.58953226
0.58084496
-0.040282388
-0.040979865
-0.037286501
1.2861256
1.3035962
1.295956
0.24114016
0.14942297
0.37079927
0.41544453
0.97614157
0.91801669
0.95432697
1.2165365
1.2492153
1.5269975
1.5390115
1.5769459
1.5736877
1.6219676
1.6142725
1.5727638
0.51866373
0.52571329
0.52652594
0.58321873
0.58775332
0.58741076
0.60299795
0.59810865
0.59691586
0.23593238
-0.097993041
0.77715988
0.7711693
0.74853256
0.74326582
1.0156616
1.101478
1.1526205
1.186008
1.1733623
-0.16078747
-0.18255645
0.30181839
0.27547995
0.44078599
0.47775288
0.466432
1.4453113
1.4454666
1.4920003
1.4541904
1.3955279
1.418399
-0.12412127
-1.2730931
-0.66585223
1.0791468
0.86635328
0.96711785
0.027038076
0.02536875
0.0050079956
1.2604569
1.3241257
0.75265231
1.0038907
1.0049846
1.2939546
1.3160418
1.3886867
1.3157344
1.3412709
1.3642312
1.3470831
0.89663672
0.8096991
0.8308066
1.1449098
1.194615
0.067343704
-0.049658011
-0.054191682
0.14982881
0.20743638
0.17398016
1.2933842
1.2356679
1.3038022
0.5387732
0.53132188
0.0014604699
0.0059864128
0.58161047
0.55765488
-0.023856385
-0.0026120309
0.94449521
-0.41322575
0.073559098
0.5913319
0.54783124
0.55868662
-0.16402983
0.44077224
-0.042236125
0.067041145
0.0057650513
0.67837283
0.53428003
0.4962218
-0.0067248089
-0.027574612
-0.037658768
-0.39324569
0.54611625
0.52444081
0.54654992
0.52800827
0.5625465
-0.020626135
-0.014181567
-0.0047093065
-0.042481702
-0.038734988
-0.049875065
0.53702002
0.60171676
-0.33273388
0.56528048
0.55568964
0.57051479
0.53946122
0.59496572
0.55024705
-0.0068047121
-0.0081627764
0.00027669556
0.26383774
0.42946655
1.2480525
1.378544
1.2804417
0.89981642
0.57814237
1.1122277
1.203828
1.0772091
1.2406969
1.2169886
1.2583864
0.17310878
-0.057569931
0.19444112
0.078418519
0.58543101
0.58903411
0.54250405
0.5353793
0.56673681
0.53958733
0.56964036
0.57633276
0.57477108
0.58941983
-0.096254274
-0.12374044
-0.16103174
-0.25438289
0.45590603
0.73370193
0.35288558
0.39376571
0.19259884
-0.034023298
-0.041895832
-0.039285353
-0.051683044
0.034313962
-0.0251168
0.08863287
0.084542576
0.060893824
0.009791925
0.00024872204
-0.023671765
0.015316434
0.63113589
0.62351092
0.67376224
0.71493833
0.53068185
0.52094649
0.50441036
0.53359995
0.50916465
0.43772779
0.49910656
0.45859597
-0.009569366
-0.010290771
-0.01190653
-0.013962484
0.0036086955
-0.012925802
-0.020389379
-0.016699854
-0.019607553
-0.026354425
-0.036424645
-0.038854502
-0.34549132
-0.516726
1.20482
1.061194
0.24822136
0.52080511
0.52265594
0.5075431
0.55442976
0.54217233
0.54356147
0.54307266
0.53946123
0.55467466
0.56235023
0.59829752
0.60608627
-0.24095526
-0.46853964
-0.21667406
-0.31814782
0.46472458
0.99108594
0.43910359
0.33610597
0.33904005
0.79899445
1.5007446
1.346687
1.3142046
1.3211924
-0.065388159
0.39243122
0.11796063
0.78784477
1.0256874
1.2215751
1.2754963
1.278694
1.2492189
1.1909591
0.043457009
1.0594691
-0.18917687
-0.13394419
0.25840978
0.0092128262
1.2523541
1.1825484
1.1741982
1.2461647
1.2758116
1.2088777
1.1775646
1.1868971
1.2292739
1.2277182
0.91793247
0.3136335
0.20439273
0.16507127
1.1163782
0.97581118
1.0662523
0.84672323
0.5729177
0.59341407
0.57755809
0.51055818
0.53634732
0.51103079
0.56493161
0.59827765
0.58222195
0.55908729
0.57964999
0.55380039
-0.081753202
-0.083188336
-0.044896559
-0.27169304
-0.24554667
-0.35528066
-0.12807692
0.10164389
0.067382429
0.28661977
0.42714729
0.051321292
-0.15031503
-0.086992683
-0.012502365
0.20388267
0.25190257
0.12657183
0.19047029
0.17907635
0.15299583
0.2962949
0.30046619
-0.0066973908
-0.00015781388
-0.025576786
-0.022370067
0.053515956
0.16045015
0.16336046
0.022002417
0.011165892
-0.034578383
-0.03764814
0.017913401
-0.014409537
0.0064577826
0.028006997
-0.015803453
0.016357343
0.013786797
0.0061410969
0.030233702
0.025655959
0.619409
0.61675674
0.61202845
0.74952087
0.73839959
0.76897426
0.75067386
0.53693301
0.53030878
0.53051697
0.55430703
0.53568439
0.5611938
0.58667063
0.63832753
0.6529314
0.59745778
0.57620629
0.62093077
0.58083703
0.5700292
0.58049222
0.58348841
0.51779241
0.52664517
-0.021590128
0.00030995317
0.017871422
-0.057613511
0.0032583912
-0.016405676
0.0099731652
0.044948383
-0.00071449235
0.020203543
0.011998948
-0.014584596
-0.0056370457
-0.15424024
0.014628429
-0.40439403
-0.43571926
-0.546519
1.0994348
1.259843
0.99553407
0.71362589
0.74987916
1.0359737
1.1776072
0.6865784
0.82000339
0.9329247
0.91268407
1.1316531
0.54720467
0.53772584
0.5494264
0.52382057
0.55746277
-0.027948559
0.2145127
0.10932457
0.31689105
0.58237813
0.63183537
0.42726928
0.36830948
0.51942083
0.41712829
0.99719514
1.0292663
0.88800377
0.94798824
0.92311011
0.60337839
0.83607815
0.97356962
0.84818992
0.89608382
0.93508776
0.88915588
0.9451958
0.83887794
0.72280761
0.75574267
0.53482521
0.61980372
0.56904928
0.51543129
0.66610879
0.62059183
0.66683037
0.6420037
0.70793074
0.8020879
0.78457671
0.79120377
0.83605587
0.69222205
0.61506241
0.63772629
0.71298953
0.58336367
0.60682473
0.64981979
0.45100016
0.46517453
0.34442395
0.25785663
0.32146224
0.16839781
0.14309993
0.18768735
0.49405716
-0.12033679
-0.12091892
-0.48781597
0.93418548
1.5155705
1.1572851
1.1326184
1.2758404
1.2489706
1.2413786
1.2884366
1.2896372
1.1128529
1.158392
1.1495202
1.1105417
1.1557964
1.2334028
1.2149248
0.99651201
0.66370089
0.636982
0.56200906
0.25859819
0.36254717
0.77680281
0.61377807
0.44471308
0.41813631
0.74563838
0.47631568
0.61433142
0.76391633
0.57752165
0.46940709
0.93531905
1.0595161
1.0500667
0.99948323
0.84105943
0.89765497
0.9794569
1.0506313
1.0852555
1.1596984
0.53779723
0.55673845
0.54953419
0.52826517
0.55484596
0.57026689
0.57045101
0.56184016
0.56753798
0.57445697
0.58521273
-0.04858513
-0.036429871
-0.057492191
-0.06473979
-0.018615135
-0.042986534
0.034208492
0.0093142816
-0.0025824204
0.0029505701
-0.036932639
-0.051574863
-0.03178712
-0.014207853
0.15867077
0.19302542
0.13817305
0.12407253
0.32959708
0.47080012
0.52730694
0.44186366
0.25807355
0.28413768
0.35276884
0.042556332
0.060318093
0.07367421
0.093790296
0.098302175
-0.024479079
-0.030467973
-0.023482406
-0.01684217
-0.0042873353
-0.027226655
-0.033789987
-0.02352738
-0.024200549
-0.030890817
-0.038738655
0.53471419
0.54508616
0.58940496
0.54902572
0.54912124
0.58957818
0.56974669
0.58620009
0.59440854
0.61757842
0.59333741
0.62469054
0.62086108
-0.011484386
-0.016520255
-0.033863753
-0.021876838
-0.017323099
-0.016794944
-0.024357468
0.26465866
0.11133459
0.15008367
0.020626454
-0.23552497
-0.12588932
0.64978664
0.79151237
0.79371126
1.0033626
0.78841351
0.74544359
0.89643648
1.0134127
0.43085095
0.66298749
0.47681195
1.1255289
1.0344021
1.2051009
0.7507605
0.46012423
0.712854
0.7979927
0.49367586
0.60511801
0.54691996
0.35589945
0.42121307
0.48348335
0.66252535
0.47015163
0.52246571
0.45218388
0.46688779
0.52923693
0.54551665
0.64781421
0.70915299
0.37890246
0.35416305
0.28241101
1.0133504
1.0336627
1.0649656
1.0620507
1.0843526
0.85790671
0.84905405
0.89026641
0.87942529
0.85151614
-0.31007006
-0.39634807
-0.75383819
-0.21776463
0.40285342
0.98798311
0.86638158
1.4037338
1.1360492
1.3054682
1.2425498
1.2018972
1.1167883
1.1287338
1.1945265
0.58062874
0.78561105
0.76436533
0.71108745
0.50296051
0.40297324
1.0408192
1.0157815
1.0938293
1.1269012
1.0606975
1.1383711
0.55853543
0.57608817
0.55446147
0.56704861
0.54594355
0.55770147
0.083712276
0.029324133
0.14141232
0.12103373
0.03929946
0.014785449
-0.0040607906
-0.0011513361
-0.017809125
-0.011928805
0.0023979372
0.010014016
0.30011146
0.25379053
0.038818292
0.15713816
-0.045341468
-0.14117893
-0.20600874
-0.00060324258
0.15228432
0.15839087
0.55881326
0.84068003
0.6869582
0.7945881
0.6184814
0.73116988
0.74339727
0.70345415
0.74373095
0.61441313
0.62480173
0.68175223
-0.11500972
0.21238153
1.4560226
1.4049427
1.016494
0.87342908
0.80906323
1.1034949
1.0181079
0.85088856
0.9581546
1.0752377
1.0565422
0.44648805
0.41242751
0.80942981
0.94609296
0.54164465
0.42134393
0.38629224
0.56829784
0.62344653
)
;

boundaryField
{
    wall-4
    {
        type            zeroGradient;
    }
    velocity-inlet-5
    {
        type            zeroGradient;
    }
    velocity-inlet-6
    {
        type            zeroGradient;
    }
    pressure-outlet-7
    {
        type            fixedValue;
        value           uniform 0;
    }
    wall-8
    {
        type            zeroGradient;
    }
    frontAndBackPlanes
    {
        type            empty;
    }
}


// ************************************************************************* //
