/*--------------------------------*- C++ -*----------------------------------*\
  =========                 |
  \\      /  F ield         | OpenFOAM: The Open Source CFD Toolbox
   \\    /   O peration     | Website:  https://openfoam.org
    \\  /    A nd           | Version:  9
     \\/     M anipulation  |
\*---------------------------------------------------------------------------*/
FoamFile
{
    format      ascii;
    class       surfaceScalarField;
    location    "39";
    object      phi;
}
// * * * * * * * * * * * * * * * * * * * * * * * * * * * * * * * * * * * * * //

dimensions      [0 3 -1 0 0 0 0];

internalField   nonuniform List<scalar> 
1300
(
1.7582594
5.6264299
-5.0699303
1.7582594
-8.5157368
5.6264299
-5.4214253
5.4214253
-0.88418987
0.88418987
3.7320881
3.6526012
-4.1791295
4.1791295
-3.5659845
3.5659845
-0.85745434
0.85745434
-5.237723
5.237723
-5.0576241
5.0576241
4.7271979
-4.7271979
-6.9141113
6.9141113
-0.85264884
0.85264884
-5.1061859
5.1061859
1.4993384
-1.4993384
-3.5144579
3.5144579
-0.028364432
0.028364432
-0.57019657
5.1416709
1.1880628
1.1880628
-0.80469129
0.8046913
-4.8627146
4.8627146
6.2141234
-6.2141234
7.8689546
-7.8689546
-2.7990243
-3.3738991
1.9682524
-12.518924
-6.5474844
-6.5474844
-8.4382637
8.4382637
-2.8118337
2.8145963
1.4604156
-1.4604156
-1.7764523
1.7764523
-5.3356254
-0.085799871
-5.3356254
5.5024059
-0.080980677
5.5024059
-0.95947388
0.075284008
-0.95947388
4.7025257
-4.7025257
0.76200259
0.12218728
0.76200258
1.2699477
-1.2699477
-3.7397418
7.4718299
3.6449475
-3.054307
8.1959779
-3.392644
7.0452451
-6.535214
6.535214
-4.4139075
0.23477797
-4.4139075
3.9962545
0.18287507
3.9962545
-7.4313786
7.4313786
-3.6327023
0.066717888
-3.6327023
3.5276743
0.038310187
3.5276743
2.0687989
-2.0687989
-0.86872451
0.011270168
-0.86872452
0.84629255
0.011161788
0.84629254
0.35898215
5.2674478
-5.9854122
8.8000085
-5.2674477
0.02972467
5.2000898
0.03763319
5.2000898
-5.0938131
0.036189058
-5.0938131
5.0155762
0.042047838
5.0155762
4.8167607
-0.089562776
4.8167607
-4.8343778
0.10717987
-4.8343778
-4.0172956
-4.5072826
-7.0813135
0.16720219
-7.0813135
-0.78204224
-0.07060658
-0.78204221
0.94419157
-0.091542704
0.94419158
-4.1131062
4.1131062
-5.4157526
0.30956669
-5.4157526
1.3685008
0.13083751
1.3685008
2.0092589
2.5622154
3.7675183
-3.7675183
2.2681799
-3.502239
-0.01221887
-3.502239
-3.5768701
-4.2920845
3.5768701
-0.06241219
-0.42438568
0.39602123
-0.42438568
1.2441519
-0.056089156
1.2441519
0.83117425
0.015118287
-0.83117424
0.026482946
3.3299072
-3.3299072
0.3976883
0.40700299
0.3976883
-5.5709124
5.5709124
4.9573377
0.058238439
-4.9573377
0.094623186
6.1533962
0.060727182
6.1533962
-6.192654
-0.021469499
-6.192654
3.4343592
-6.8082582
-3.4823738
6.7350921
0.17901916
-6.7350921
0.18760766
1.5706749
-0.11025932
1.5706749
-1.0672219
1.0672219
-1.4224226
-0.037992946
-1.4224226
-2.1008459
0.32439357
-2.1008459
1.5151985
0.2612538
1.5151985
-5.1331774
-0.20244808
-5.1331774
-5.5159267
0.10017417
5.5159267
-0.013520804
1.4272945
-1.4272945
-0.99785929
0.038385405
-0.99785928
-4.8946042
-0.23857315
4.8946042
-0.19207854
-4.5725765
-0.12994912
-4.5725765
-1.3366698
-0.085752844
1.3366698
-0.066722138
1.2743488
-0.030196846
-1.2743488
0.0044010958
-3.0501803
5.6123957
-3.3967706
7.0417182
-6.1597021
-0.37551181
-6.1597021
6.8682842
-0.33307023
6.8682843
4.788849
0.31733688
-4.7888491
0.3749416
3.8476724
0.14858208
3.8476724
-7.3953431
-0.036035494
-7.3953431
7.4474654
-0.016086706
7.4474654
3.7287571
0.11891525
-3.7287572
0.096054852
3.5069194
0.020754884
3.5069195
2.2778905
-0.20909163
2.2778905
-1.876104
-0.19269486
-1.876104
0.97996858
-0.97996858
0.94169634
0.038272244
-0.94169633
0.072971812
-11.148736
11.127267
-0.035760629
-11.112976
5.1643292
5.1643292
4.0296346
0.78712615
4.0296346
-5.031717
0.19733921
-5.031717
3.490944
-6.9733178
3.8199816
-7.8372772
5.0608482
-17.579772
4.7061226
-9.2134052
7.3147889
-7.3147889
7.2066108
0.10817815
-7.2066107
0.12529725
-0.69610675
-0.085935467
-0.69610673
-3.4938642
-0.61924198
-3.4938642
4.7770926
-0.66398636
4.7770926
-1.2801597
1.2801597
-1.3077477
0.027587999
1.3077477
0.060753149
3.5004115
0.0065079879
-3.5004115
-0.0018275684
0.61311099
0.1488916
-0.61311096
0.18872528
3.7798567
-0.44994945
3.7798567
-2.8618415
-0.46806571
-2.8618415
-0.5587314
-0.13737532
0.55873138
-0.16104308
-5.8178833
0.24697088
-5.8178833
-11.21344
0.1004646
-11.175807
-6.0921894
-6.0921894
2.3460742
11.146083
-1.7156799
-0.16042418
1.7156799
-0.14500496
1.222754
0.057405701
-1.222754
0.15553212
-1.0066579
0.026689331
1.0066579
0.060564012
-2.5191079
0.41826195
-2.5191079
-1.2459054
1.2459054
-1.3326333
0.086727896
1.3326334
0.18256514
1.726952
-0.29965757
1.726952
0.98577038
-0.041578791
-0.98577039
-0.012088893
-4.3846605
-0.18791606
-4.3846605
7.1263749
-0.25809067
7.1263749
-2.5515456
-0.31029591
2.5515456
-0.27365515
-0.03516745
11.162434
-5.1291617
0.035348593
5.1291617
-11.223161
11.25851
-3.0902251
0.57111722
3.090225
0.93940959
5.3000591
0.27085333
-5.3000591
0.26834206
7.3921195
0.055345938
-7.3921195
0.077330556
-2.9860174
-0.50784671
-2.9860174
-5.5216464
-0.63805572
5.5216463
-0.74455368
-11.475155
-0.19710481
11.67226
-11.433107
6.0149882
0.13840806
-6.0149882
11.396918
-1.2659403
-0.16135421
1.2659403
-0.020034882
2.0692775
-0.34232552
2.0692775
4.1557623
-0.3759056
-4.1557623
-0.22889822
-7.2832704
-0.11207277
7.2832703
-0.15689537
-2.5051557
-0.48086169
2.5051558
-0.43587825
-5.3388723
5.2827831
2.8571056
-3.3293821
-3.4788761
-7.6214666
2.5395028
3.0728929
4.8076827
-11.027775
-6.5519976
-10.840167
7.266153
-6.9978109
-9.4469374
9.3573746
10.570026
-10.699975
-7.2805591
7.3413122
8.7401605
-8.8068826
3.7960801
3.6757498
10.766508
-10.53173
-16.85115
16.475639
10.304524
-10.237806
17.012011
-17.048046
-19.247473
19.302819
-7.2487196
7.2599897
-9.4451958
9.252501
-9.8013547
9.5276996
-3.6496909
-4.1875863
14.223439
-14.056237
11.739146
-11.751365
-11.438752
11.748318
4.0467398
1.2360433
4.016543
-3.61122
7.4073001
-3.4340251
6.2911307
3.571796
-7.2214869
3.4015218
-6.8803979
6.0181716
5.7209741
-5.9557595
-1.6657072
-8.2212777
8.1110183
-7.3977843
7.4583483
12.01821
-12.10401
-3.6116173
7.2873671
-3.4301009
6.5029938
-3.6789496
-3.6016094
3.5481121
1.2595706
8.7727352
5.4507035
-8.9517544
-1.8884128
-11.171623
10.795717
-11.731384
11.263319
-0.44049643
5.785631
-5.3451346
4.4222182
-1.4839196
7.2695507
5.7822334
5.9795726
5.866153
-5.5952997
1.1316579
-6.4767925
-6.3821693
-2.6611828
2.6995682
2.6589203
-2.536733
8.0591925
2.5108338
7.867114
-7.6437779
-3.0561975
-7.8316939
4.3798775
2.9614347
4.4074655
5.2608022
3.4793582
5.1750494
5.8478245
-5.9690335
0.12120896
-5.4792885
11.327113
1.3183336
-9.080898
-7.8213274
6.8626632
3.9038451
7.0455383
-7.3812573
-3.150473
-7.0063157
-10.263852
-6.5872986
-10.901908
10.982902
5.4927365
10.649832
-12.898845
12.74195
6.7129031
3.5916207
6.7512133
-6.8286935
-3.4091123
-6.7326387
13.29115
-3.1677332
-10.123416
-11.131033
-8.11644
11.14712
5.8648912
11.85677
7.4460484
11.934101
4.8601543
8.4309954
-10.725045
2.6086055
-4.4639051
-2.7848144
-4.3909333
4.4042319
2.8557579
4.4153937
-5.5358731
-3.9093227
-5.6962973
-5.5844148
-4.21694
5.7935064
3.4589945
-5.8302898
-5.9010946
6.1405858
3.3871138
4.3911739
-10.943171
4.8222313
-9.0098176
-9.9582641
-4.0979724
-9.8329669
4.5275734
3.1259263
-7.6534997
-2.6939134
11.240019
-5.5190445
9.5743114
-7.2404212
-4.5109434
-7.2422487
-8.9452001
-2.4935517
-8.8450259
-9.5557319
9.0478852
-9.9418788
9.2778924
14.042461
-6.8983245
-7.1441365
-4.8847215
-3.9221611
4.8803204
-0.86377746
-7.2024443
7.3236533
0.2048558
6.4959865
7.7320298
6.8682523
-4.4583941
-2.9393902
-4.302862
4.4752672
2.9830811
4.5019565
9.0221578
2.9960525
8.9411772
-8.5616455
-3.5423648
-8.7640935
9.5039108
-9.1795172
2.7965391
-2.9339145
7.4026476
3.8606711
-6.9526981
-4.2189249
9.4397508
-4.4336045
-5.0061463
-12.068909
10.591904
1.4770049
-4.7993585
-0.37714038
-0.34877592
-5.55688
-3.8900574
5.4497002
0.52987239
11.121777
7.2317193
-5.5156725
5.7626434
6.1565872
6.2148256
-0.16734368
6.0405627
-5.4694456
7.0969599
-3.6238223
-3.4731376
7.0355079
-7.274081
-1.7285856
-7.7823021
6.0537165
0.59303303
1.9740571
-1.5780359
-1.9070241
-0.7541587
-1.919113
1.5813907
1.0775296
1.7302823
0.96737648
1.7321918
-3.5471459
0.72925723
2.8178887
-2.5797695
-1.8074758
-5.193035
-2.0027529
7.1957879
7.8049766
2.9907408
-7.5760784
-0.2556155
2.601152
-2.6926947
-0.75184249
-4.4411925
3.0048421
-3.7566846
-5.9245622
-2.5085366
8.4330988
-3.6826528
-0.62020921
3.6252471
0.78221844
-4.815099
-3.4061787
4.8530919
0.32195746
-5.4294393
11.057831
-5.628392
-8.3688295
4.4824693
6.8446437
7.443904
-9.1698134
4.8036733
4.3661401
-2.3251696
5.890594
1.1549444
6.0391761
-9.1852551
6.0347822
7.7698544
3.9784641
-8.0871913
1.0808756
-8.1043795
10.728194
-9.3420163
-1.3861781
5.3524562
5.3757383
7.6399618
6.4024992
-6.0546838
13.694646
-1.4147088
-7.9273074
9.5190883
-5.5406242
6.2812084
-11.821833
-12.683708
4.7564002
-9.9158245
11.959132
-2.0433072
-3.8542701
-9.0445751
13.770094
-1.3471664
-12.422928
9.3026657
-5.5841389
-5.6392833
11.223422
-8.7518721
9.0483955
-2.6102887
-6.4381068
-10.868485
-6.1795615
10.980557
1.7613924
-11.833652
14.442257
-3.4026562
5.8076476
0.94356572
5.8284025
4.2096535
-6.7921072
2.5824537
4.5422185
-7.1525072
2.6637752
-9.4558824
-7.1917469
13.264772
-6.0730253
-11.289719
-10.222698
-1.067021
2.7876803
11.654577
-10.233729
8.0133861
2.2203426
3.707258
0.79469853
-3.7455302
-0.6454031
0.51524077
6.7985005
-7.3137413
4.9306344
4.9457527
5.0478936
1.7506069
5.1558312
2.9551871
-5.0108263
-0.68547104
-6.568855
2.351915
-3.1098605
-6.534842
8.886757
-7.1988326
0.66399066
-4.4072573
-6.1680532
10.57531
-7.1920717
5.2389975
5.8188339
8.2220786
-8.7823497
2.6142965
-4.3827215
-4.3996282
4.5845361
-7.6943966
3.4157855
5.4709715
6.8028993
0.90180467
6.5184109
6.7463612
-9.6443372
0.63451956
12.197065
-10.308652
2.6508737
9.2832273
-10.66426
0.44156142
-9.3914055
1.2616229
-6.7806674
-6.3918768
6.8508645
-9.3444162
-4.9709681
8.1771901
0.76398704
-8.1636693
-0.68135664
-6.5244704
-3.0312615
-7.0053321
-3.3025062
-6.6393726
-9.35719
-1.7892707
-7.5679192
7.2586145
-7.2362605
-3.665647
7.9808141
1.2970783
-7.9976831
7.8363289
-8.0579615
7.715636
0.28558076
7.0380725
7.1538331
3.2316719
-4.7129029
7.9445748
-7.0631789
10.059231
-12.120243
5.0570646
5.9511445
-9.4935093
-6.169099
5.4497022
4.0542086
5.710956
9.3524848
-10.728695
1.3762103
-10.988797
12.6035
-1.6147032
-17.03117
6.0423734
-7.6786854
2.6170915
0.17944763
2.5311561
0.80284902
2.8985702
-3.7014192
-2.1310654
-2.2921085
-3.7436712
-5.6316249
9.375296
1.8258804
-5.2894903
3.4636099
-4.7478231
6.5737035
0.060216818
-5.3497071
7.1536186
-4.2550484
7.3330663
-4.6876062
2.64546
5.1847024
9.0933783
-3.9086758
6.8202042
-2.9595331
3.0303456
-6.9390214
-2.6012793
-4.9088549
7.7646128
-5.6664556
6.3304462
-0.45087146
6.7813177
-5.8270709
1.3934664
-0.77917736
4.1665754
4.1930583
7.0019124
-5.2513055
4.9432553
-7.9027883
-1.9957662
-7.0009837
-1.5300121
-0.39654629
-5.2010381
5.5975844
6.7075552
-7.1041016
-5.3029014
9.6830855
-4.380184
8.0235938
-5.4985917
-2.5250021
-4.5291208
-4.6503964
4.1108589
1.9297039
9.9532978
0.27800737
-5.7765991
-5.1914382
-4.2520287
4.2859132
2.8110467
-2.138
3.6150049
2.4867759
-0.51271883
0.61758612
1.1126962
2.2108491
-1.593263
0.27661438
1.9342347
-1.3014215
1.915494
0.68565799
-1.8739153
-0.045197735
-1.4950549
4.499897
1.3228338
-2.4003634
0.80710039
1.3998386
-5.023661
7.3165544
-3.9323192
-3.3842352
8.7163931
1.5306324
-5.4629516
6.2516697
-5.6586366
3.3361971
-5.3389501
-2.1267545
-7.7853911
-5.2745573
-4.2026584
7.6662683
-5.1726376
8.1633784
1.7417062
-7.9077629
9.6494691
-4.8505182
2.3419815
-4.1365003
4.8221583
-1.7231854
-2.4133149
4.3054253
4.1276735
-4.3337548
-0.10743773
-0.028329421
3.1391469
-3.1674763
-0.61753766
-3.1973071
-7.6246441
7.9466015
-3.7992889
8.6029622
4.1452859
-3.6032238
12.206186
3.1851988
-6.7884227
-5.1836307
-5.8038399
-2.4222826
5.0216214
-0.81978393
-5.9128547
-7.2578907
5.7939394
0.24523665
-9.2117922
10.346441
-1.1346492
-5.3079472
-0.72683502
6.0792912
-7.8120133
0.65950613
-5.148238
5.1982035
6.3531479
6.5983845
-12.227291
-0.19563741
-6.7345541
1.3744466
-8.1090007
6.7501849
-3.8382995
8.5946997
-11.153425
7.4877776
-9.8563462
7.2085216
-0.90047908
7.1556424
-4.5731887
2.967774
-9.1473355
-7.385943
7.2449013
-3.6532807
8.1884671
-4.1674854
12.355952
-7.5701416
7.0423021
5.3136504
-1.3783106
-5.8639381
-7.0132745
5.6349639
0.029027606
5.8574301
7.9649168
-5.0097297
7.2794458
4.3242736
-8.7069952
-3.370123
-11.927321
3.2203259
-6.1084872
-3.2209786
6.4413045
5.0011
5.7957985
2.0416763
-5.1503954
8.3643579
-9.4313789
-2.2913327
-4.1005441
6.9431268
-1.3081629
4.348484
-8.4490281
-2.4321834
5.8370911
-0.65569125
-5.1813999
1.0612334
-6.0322015
2.4250435
-8.457245
6.9193728
-7.6007295
2.3414484
-10.020134
-5.6562347
-5.6762695
-2.4202797
-5.6376818
-7.9413628
5.5210831
-1.8989895
5.9373394
-8.883467
8.2277758
-3.7200329
9.241116
-5.8695797
-1.1357524
6.305458
1.4101779
10.651294
0.51692473
-6.6860237
-2.8764897
5.4929869
-2.6164972
1.4094234
-4.6841134
0.80887352
3.5125244
5.2038686
-9.566241
0.072731648
-6.613292
-4.153203
8.2074116
5.5298825
12.237438
1.5087427
9.3452287
-1.1378171
10.853971
4.573139
4.7557041
-4.2121232
5.5883335
1.3854612
6.4425258
-0.85260561
3.4980656
1.6785505
1.6079439
1.0847507
2.6255554
1.5675029
4.0190218
0.31760257
-1.9745059
4.6686681
-8.9206968
-1.1079309
-8.1335708
1.2238039
5.8357922
-4.6119883
4.1115136
-1.3004669
1.4950164
-0.17892509
-1.8643424
2.0432674
-3.6520626
-2.3770612
-0.44282654
-2.0895841
2.8966845
2.4103129
-2.4538579
-1.1982047
0.68705413
-5.9616114
4.6518959
-4.7593336
-0.63166011
9.017809
-3.6582294
0.49075304
-1.3162478
-2.7065541
-3.4607128
3.5059105
11.577143
0.62904336
5.9487507
8.5756449
5.1694662
0.15973653
4.9025634
-6.9458706
-4.553319
-7.141508
-0.39132306
5.6879682
2.2152493
9.4393276
7.5288997
6.2207368
-2.2282913
-11.65967
8.4413115
-2.852978
6.8266082
-1.6452083
-6.8120367
6.8017331
3.2574983
-7.5657201
-0.035009394
-6.8470461
-9.7000241
-0.48542449
8.7132002
-10.165869
9.030117
5.9988555
1.5690637
-4.8106916
-0.86557789
4.7239637
0.031740396
10.885712
-1.1934341
-6.9775364
8.1709705
-4.6423581
3.5344272
0.91282301
2.7021819
2.9560905
1.6556235
-5.3219128
-9.9339011
-3.0547016
-1.9689594
-6.4389368
0.75685117
-3.1671641
6.236871
-2.7024438
3.7118689
5.4685267
6.9635431
-1.9918789
-5.1122226
6.3720629
-2.660194
4.3033491
)
;

boundaryField
{
    wall-4
    {
        type            calculated;
        value           uniform 0;
    }
    velocity-inlet-5
    {
        type            calculated;
        value           nonuniform List<scalar> 8(-1.7582594 -1.7582594 -7.3846893 -4.5714743 -7.3846893 -6.446951 -4.5714743 -6.446951);
    }
    velocity-inlet-6
    {
        type            calculated;
        value           uniform -5.6264299;
    }
    pressure-outlet-7
    {
        type            calculated;
        value           nonuniform List<scalar> 8(5.0699303 8.5157368 6.1729234 10.550672 8.5245782 6.916733 7.3109256 9.7669708);
    }
    wall-8
    {
        type            calculated;
        value           uniform 0;
    }
    frontAndBackPlanes
    {
        type            empty;
        value           nonuniform List<scalar> 0();
    }
}


// ************************************************************************* //
