/*--------------------------------*- C++ -*----------------------------------*\
  =========                 |
  \\      /  F ield         | OpenFOAM: The Open Source CFD Toolbox
   \\    /   O peration     | Website:  https://openfoam.org
    \\  /    A nd           | Version:  9
     \\/     M anipulation  |
\*---------------------------------------------------------------------------*/
FoamFile
{
    format      ascii;
    class       volVectorField;
    location    "39";
    object      U;
}
// * * * * * * * * * * * * * * * * * * * * * * * * * * * * * * * * * * * * * //

dimensions      [0 1 -1 0 0 0 0];

internalField   nonuniform List<vector> 
918
(
(0.40895502 -0.00020152426 0)
(0.0090456882 2.9576278 0)
(-0.0065618087 1.3412612 0)
(0.29034289 -0.0084158891 0)
(-0.012618341 2.264202 3.922358e-20)
(-0.01174397 2.9485786 -3.3953269e-18)
(0.9236505 1.4498292 7.7572012e-19)
(0.26357527 0.16210468 -2.72324e-20)
(1.9883393 0.0038792443 0)
(0.022129979 1.1845572 0)
(0.0035719419 0.97187153 0)
(0.16088692 -0.0052730188 0)
(0.012835734 2.9163568 0)
(0.013681007 2.7911817 0)
(0.098890197 3.165614 3.1746338e-19)
(-0.0098871595 2.1284319 1.1809282e-20)
(0.19542842 0.040629605 1.6894178e-18)
(0.1996987 1.5959903 5.8512099e-19)
(0.37324033 0.0061396869 0)
(-0.0079873991 0.94484364 0)
(-0.034723465 0.15661019 -1.3435155e-18)
(1.0478484 -0.021744456 0)
(0.54359679 -0.027805079 0)
(0.24788722 -0.0068047883 0)
(0.21096269 0.0063420835 0)
(0.021621746 2.6224574 0)
(-0.0099827556 2.9058241 1.2501191e-18)
(-0.01911153 1.3967183 0)
(-0.034178246 1.6477206 0)
(-0.015157527 1.3707886 0)
(-0.0099787314 2.815705 0)
(-0.0043629626 2.3205337 -3.0835624e-20)
(-0.0063069816 2.105724 0)
(-0.018162185 2.9813197 -1.2645071e-22)
(-0.018376345 3.007022 2.6360914e-18)
(0.00085869446 3.0015931 0)
(0.29019907 -0.0028355696 0)
(0.43542183 0.91270659 3.4487614e-19)
(1.0324382 1.4718927 -9.5012306e-19)
(1.0602328 1.3016723 9.6891907e-19)
(0.86969233 1.6136466 -1.7885588e-19)
(0.75959037 1.5745497 1.0223e-18)
(0.35064222 0.19931445 2.6532062e-20)
(0.27591162 0.1333855 0)
(1.2752458 0.74144577 0)
(0.31019824 0.20613362 1.2183079e-19)
(0.23889955 0.1659021 -1.2671968e-19)
(0.2499185 -0.013720526 0)
(1.9896403 0.00087476072 0)
(1.9887258 -0.0019205054 0)
(1.3548222 0.0018833122 0)
(1.8676274 0.0057202791 0)
(1.7381176 0.0033109948 0)
(0.02592373 2.0191293 -8.4977803e-19)
(0.040333674 1.4126159 0)
(0.041811506 1.268899 0)
(0.026625095 1.3716837 0)
(0.018016993 1.1093852 0)
(-0.00098819817 2.2203845 0)
(0.013296522 1.2257996 0)
(0.012965702 0.99861236 0)
(0.00309428 1.226494 0)
(0.0006267999 0.94704764 0)
(0.49004564 0.024652511 0)
(0.36798259 -0.0034143205 0)
(0.1607335 0.011721153 0)
(0.36340175 -0.0064712641 0)
(0.1676823 0.001542023 0)
(0.016738569 3.0145162 1.2999682e-18)
(0.012390243 3.0113859 0)
(0.0077272394 3.0035749 0)
(0.013324225 3.0004911 1.3850776e-23)
(0.010556248 2.9476304 -1.8565867e-18)
(0.016838883 2.9848947 0)
(0.013432941 2.8938523 0)
(0.01756823 2.9241081 2.9867976e-24)
(0.013831051 2.8182876 0)
(0.017369535 2.9107753 0)
(0.010965882 2.7549149 0)
(0.24807368 3.6195478 0)
(0.17652486 3.5555737 0)
(0.13171539 3.2993642 -2.9685182e-19)
(0.048070723 2.9933057 0)
(-0.020940014 2.2738488 0)
(-0.014567297 2.347167 -1.1638999e-20)
(-0.0095494483 2.1500944 -6.757403e-21)
(0.35399334 0.072346618 -5.790948e-19)
(0.16946098 0.01949893 -5.5011109e-19)
(0.37911781 0.08384562 -1.77266e-18)
(0.23105122 0.057333636 -1.1864354e-18)
(0.17838962 1.1501819 0)
(0.30797088 1.7293041 -6.4614905e-19)
(0.38791592 1.6775951 1.0773811e-18)
(0.54162987 0.039926975 0)
(0.32132291 0.028734449 0)
(1.218978 -0.001358471 0)
(0.73699493 -0.035233817 0)
(0.64682932 0.017105979 -2.985308e-18)
(0.64935431 -0.025957734 2.3397364e-18)
(-0.0023123933 1.2037206 0)
(0.0024415366 0.95450997 0)
(-0.040751281 1.4267886 0)
(-0.018517713 1.2415198 0)
(-0.013664742 0.94337292 0)
(0.0033277649 0.22112765 4.0918959e-19)
(0.13523255 0.13178766 0)
(0.50571804 0.019979722 0)
(0.24615944 0.014067463 0)
(0.33884838 -0.0021620206 0)
(0.30295614 -0.01190736 0)
(0.19177225 0.0081964086 0)
(0.91354118 0.053551359 0)
(0.25021324 0.027256253 0)
(0.058628833 -0.0084883568 2.1876896e-18)
(0.0013968961 2.8588606 1.098684e-18)
(0.020662952 2.900494 0)
(0.033764503 2.8775201 0)
(0.015192525 2.7054855 0)
(-0.010495529 2.985696 1.2082682e-18)
(-0.009148728 2.890582 0)
(-0.011785783 2.9907398 -3.7105032e-18)
(-0.0096000547 2.9158338 1.2692424e-18)
(-0.01784813 1.8358583 0)
(-0.0058208586 1.8453012 0)
(-0.0081466766 2.3330997 6.9001458e-23)
(-0.0078826202 2.3014063 0)
(-0.008967408 2.1071728 0)
(0.62769848 0.020438194 0)
(0.31395079 0.013079524 0)
(0.22656211 0.02783511 0)
(0.59986399 0.0022570804 0)
(0.28569471 0.015012538 0)
(0.52151792 1.0907012 -4.2294745e-19)
(0.55373948 1.1255637 0)
(0.41511501 0.90079573 5.5013242e-20)
(0.32255485 0.68918267 0)
(1.1535616 1.3068266 -2.7723304e-19)
(1.1436194 1.109625 5.3827963e-19)
(0.49964277 1.7598054 0)
(0.69282624 1.7175221 0)
(0.58180672 1.6568482 0)
(0.15258394 0.26454831 -4.3774155e-19)
(0.37588571 0.17046872 0)
(0.26926156 0.11610255 3.4149028e-19)
(1.2513258 1.1207229 0)
(1.3287625 0.92558569 0)
(1.2138305 0.92225664 -4.3708137e-19)
(1.3911508 0.73216593 0)
(1.3195986 0.57018094 6.1008693e-20)
(0.57718541 0.022092189 0)
(0.54150187 0.012401634 0)
(0.2621905 0.010369404 0)
(0.52473417 0.0080492205 0)
(0.53312559 -0.013866026 0)
(0.25638661 0.0073297244 0)
(1.4985505 -0.0015828744 0)
(1.8698389 -0.0015495186 0)
(1.7318214 0.00058758626 0)
(0.040188977 2.2459438 4.6096362e-19)
(0.05016594 1.9445795 0)
(0.032382576 2.3342766 7.4347643e-19)
(0.01976975 2.0794558 -6.2168926e-19)
(0.14183398 1.6072896 -4.8104024e-19)
(0.064365028 1.4852804 0)
(0.08339374 1.421741 0)
(0.02375809 1.3285729 0)
(0.015877163 1.0609329 0)
(-0.0034929112 2.4063739 -1.0065939e-21)
(0.0025463518 2.216085 0)
(0.0027879439 2.4109747 -5.2198102e-20)
(-0.00069638496 2.223082 8.8250641e-20)
(0.021194273 1.2893652 0)
(0.018460296 1.2541952 0)
(0.01490238 1.0244115 0)
(0.00092673926 1.2206943 0)
(-7.6762486e-05 0.9422812 0)
(0.81667448 0.046013122 0)
(0.55365607 0.025536525 0)
(0.75600587 0.040061224 0)
(0.41950277 0.013462793 0)
(0.19027979 -0.005563839 0)
(0.4059826 0.0074438631 0)
(0.38711837 0.023061205 0)
(0.18235968 -0.00012884809 0)
(0.0036823855 3.0720312 -1.1150206e-20)
(0.010777657 3.0616112 0)
(0.016162701 2.968816 0)
(0.01324966 2.8677447 0)
(0.72608301 4.2004136 0)
(1.2230592 3.2703349 8.641928e-19)
(0.06987155 3.1263722 0)
(0.02878036 2.900463 0)
(-0.011477379 1.8432681 0)
(-0.018405643 2.0798786 0)
(-0.017106148 1.9447673 0)
(-0.021989945 2.7571349 -1.041211e-20)
(-0.015770875 2.4605557 0)
(-0.019647389 2.6070448 0)
(-0.002737776 2.171274 3.4090432e-21)
(-0.00648686 2.394501 1.6200128e-20)
(-0.0083238734 2.3741704 6.8517321e-21)
(-0.0060718552 2.1563192 0)
(0.35003468 0.036401803 8.3612211e-19)
(0.138481 -0.0030016165 -8.2940397e-19)
(0.30482632 1.6981542 0)
(0.2056737 0.92889243 -3.7699715e-19)
(0.22563258 1.839342 -1.1746935e-18)
(0.13740559 1.3920673 1.1786529e-18)
(0.28787683 -0.0016740293 0)
(0.50672307 0.0010156311 0)
(0.50904458 0.0182164 0)
(0.29711926 0.0065104818 0)
(1.1300561e-05 1.2138857 0)
(0.00071099785 1.2049114 0)
(0.001692505 0.94601009 0)
(0.26323682 0.20622904 1.129419e-18)
(0.19502399 0.19845094 -1.3416999e-18)
(0.19573841 0.16273066 0)
(1.2188116 0.13789868 2.8270522e-20)
(1.1155482 0.11580233 0)
(1.0726407 0.093650029 0)
(0.74783321 0.035743568 0)
(0.32521314 -0.0010607102 0)
(0.27905666 -0.023721566 -3.5330141e-18)
(0.089966127 -0.010495851 1.355381e-18)
(0.002365219 2.9842673 1.096307e-18)
(-0.003684275 2.8642631 4.5334845e-20)
(0.0038353126 3.0539782 -2.3322568e-20)
(0.012750262 3.0472309 8.3971744e-19)
(-0.009399643 2.9952552 4.1231761e-20)
(-0.0083916906 2.9361649 -1.6549773e-22)
(-0.013161509 3.0201639 -7.7655156e-19)
(0.0012133028 3.0231354 5.5971707e-19)
(0.0066734499 3.0398405 -8.4032162e-19)
(0.71907888 0.032106879 0)
(0.67860206 0.033010349 0)
(0.35591614 0.017177368 0)
(0.48880278 0.013562894 0)
(0.45604601 0.043539439 0)
(0.27876111 0.0058535511 0)
(0.416304 -0.0028959382 0)
(0.41778323 0.014543043 0)
(0.2026355 0.0022478163 0)
(0.70540522 1.3717407 -1.5078425e-19)
(0.77160087 1.45151 0)
(0.16777437 0.35957894 1.0732386e-19)
(0.33889257 0.77470352 8.2130473e-19)
(0.3594333 0.80295473 -4.8311637e-19)
(0.2321691 0.49176591 9.4241093e-19)
(0.41861688 0.96848889 2.2285443e-18)
(0.1680844 0.34384797 4.92307e-19)
(0.38649701 0.1172659 1.2551297e-18)
(0.38746054 0.15044861 3.3289503e-19)
(0.25638855 0.083070916 6.3387299e-19)
(1.4224047 0.55160637 1.9190116e-19)
(1.307501 0.3953334 1.5705384e-19)
(0.022836632 2.3891278 2.7975069e-19)
(0.010640711 2.151018 0)
(0.96753421 0.064764756 0)
(0.88406355 0.054855897 0)
(0.64866586 0.031646012 0)
(0.0099937136 3.0770061 0)
(0.016947339 2.9387896 1.6394728e-18)
(0.016530337 2.9537283 0)
(0.013496262 2.8434144 -1.6365678e-18)
(0.0094341459 3.0917694 3.7561437e-19)
(0.0036821622 3.0888099 0)
(0.86088362 1.7376418 -8.5474031e-20)
(1.1228049 2.3426517 2.5539641e-20)
(0.83954458 1.852766 -7.7536624e-19)
(0.013825261 2.996336 -1.007609e-18)
(0.034552216 3.0343611 0)
(0.011905381 2.8705022 0)
(-0.0085602339 2.3947049 -2.3684112e-20)
(-0.0035253626 2.4022525 -3.1620027e-20)
(-0.0012851021 2.2061811 -6.2776255e-22)
(0.34371347 1.5357362 1.1902632e-18)
(0.21008629 0.74611739 -8.1686107e-19)
(0.088095059 2.1576759 8.2314673e-19)
(0.16666927 2.0192254 -1.0107567e-18)
(0.082463279 1.6804494 1.2345174e-19)
(0.013665348 3.114464 -2.4875096e-18)
(0.016427937 3.1195861 2.8159445e-18)
(-0.0087729625 2.9801373 1.1564056e-18)
(-0.0055865498 2.9769727 -1.1368237e-18)
(-0.0076989428 2.8757772 -1.1780424e-18)
(0.0044693649 3.1055231 -2.9221649e-18)
(0.0093370053 3.1049261 2.9016803e-18)
(0.37829709 0.84053673 0)
(0.33505218 0.78362484 -1.8181764e-18)
(0.13781989 0.2908544 8.0699302e-19)
(0.41314433 1.0877657 1.4123208e-18)
(0.19085007 0.43334788 -2.1941114e-18)
(1.3540887 0.22409965 5.2326333e-20)
(1.4149361 0.3781874 0)
(1.2591211 0.23700268 2.3204018e-20)
(0.0079672405 2.4143351 -1.9379017e-21)
(0.0078629737 2.4015879 0)
(0.004774497 2.188347 0)
(0.39174278 1.3997071 -4.2942565e-19)
(0.42136485 1.2554381 -9.6335546e-19)
(0.19988088 0.57045907 1.7375954e-18)
(1.1918683 0.0068739288 0)
(1.3371413 0.0027375305 4.7570573e-19)
(-0.022641597 1.8044578 0)
(-0.036390754 1.8305699 0)
(1.5126114 -1.2974592e-05 4.277884e-21)
(1.0995378 0.015539188 1.0660143e-18)
(-0.01897551 2.7615933 1.3502242e-20)
(-0.018331173 2.8031775 0)
(0.059504072 3.1759237 8.1365772e-19)
(0.52898609 3.5376838 0)
(1.5547678 0.89455714 -5.0043496e-20)
(1.2724064 0.012874617 2.3373155e-20)
(1.3734446 0.025858307 0)
(1.9988692 0.0095965394 9.4889548e-21)
(0.094101967 1.8545349 0)
(0.11889032 2.7617348 0)
(0.022990237 1.7982689 0)
(0.0028196664 2.8227511 4.9013925e-20)
(-0.017581518 2.768985 2.5767316e-20)
(1.2617441 0.016205075 2.1201259e-20)
(1.4592677 0.066298729 0)
(1.5150004 0.10091747 0)
(-0.017777532 2.0989954 0)
(-0.011500434 2.7932917 0)
(-0.0059423571 1.7934751 0)
(0.31448614 1.9667408 -2.9853126e-19)
(1.2993381 0.010915515 0)
(1.0938997 0.0095739807 0)
(1.9713052 0.012588167 6.2227141e-19)
(1.6584083 0.016943606 -7.1158068e-19)
(1.9059072 0.011333796 0)
(-0.012451031 1.9169344 0)
(-0.015612566 1.8190476 0)
(-0.012662708 1.8681001 0)
(-0.0089878018 1.7867596 0)
(-0.011012961 1.7693587 0)
(-0.015613902 1.7772643 0)
(1.4175389 0.043455486 0)
(1.2899004 0.021217566 2.1661634e-20)
(1.0328648 1.6983742 4.6382233e-19)
(1.9565733 0.0031016956 -6.348074e-19)
(1.7066703 -0.0034016036 7.6147692e-19)
(1.8970153 -0.005050621 0)
(1.3039079 0.0050268799 6.3491205e-19)
(1.1790737 0.0025597138 -7.9411901e-19)
(0.92414749 0.020816061 0)
(-0.01648924 2.8320336 0)
(-0.02023327 2.8074089 -6.8750307e-21)
(-0.01691164 2.8254239 2.9486143e-21)
(1.6834872 0.37960489 6.420945e-19)
(1.6234522 0.17702194 0)
(0.072804037 3.0554888 -1.4902507e-18)
(0.042058212 2.8517107 -1.0384439e-19)
(0.17637953 3.1782464 2.2758303e-18)
(0.16276126 3.241713 -3.6535822e-19)
(0.16015869 3.2840869 0)
(0.030478221 3.1341046 4.2546495e-19)
(0.081952167 3.1732501 1.4648411e-18)
(0.078323394 3.198313 -7.9191969e-19)
(0.047641965 3.1095424 0)
(0.67316612 0.29920668 0)
(0.61524648 0.37777447 0)
(1.526267 0.97041841 8.5939183e-20)
(1.4612343 1.1033174 -3.2364897e-20)
(1.6264627 0.78849053 0)
(1.6171049 0.71507023 0)
(1.2723641 0.020453694 -1.2722158e-18)
(1.0823858 0.016087285 1.6315757e-18)
(1.3966821 0.023191399 0)
(1.2340867 0.022103924 0)
(2.004096 0.0169447 0)
(1.8769387 0.0077880011 0)
(1.9365688 0.011373079 0)
(1.7264864 -0.001994176 0)
(1.6654332 0.0010877478 0)
(1.7974616 0.00082339023 0)
(0.08322666 1.8448047 0)
(0.067007234 1.8343736 0)
(0.11707857 1.8809465 0)
(0.12686159 1.8989472 0)
(0.1398088 2.7905262 0)
(0.18084498 2.867221 -5.0132397e-19)
(0.095962985 2.8613033 0)
(0.078375041 2.8732581 2.2399085e-19)
(0.026677118 2.8861489 -1.9760297e-19)
(0.020254518 1.8035094 0)
(0.016698808 1.770912 0)
(0.0270565 1.8090563 0)
(0.031374459 1.7847376 0)
(0.0025821028 2.267169 -1.0545031e-20)
(-0.016918691 2.8172535 -2.1362061e-20)
(-0.0026710787 2.8667296 4.6581556e-20)
(-0.0064152018 2.8993205 0)
(-0.01580754 2.8226115 -6.5356341e-20)
(-0.014529651 2.8188086 -1.1457033e-20)
(0.005127177 2.2617117 1.2939389e-20)
(-0.01263832 2.5836325 2.8209837e-20)
(-0.019453341 2.6217803 -5.9181134e-20)
(1.2996318 0.015136204 1.3859104e-18)
(1.0688887 0.012105685 -1.7247186e-18)
(1.2441612 0.020706036 -1.4865945e-18)
(1.1276176 0.015528311 1.9682627e-18)
(1.4927445 0.060138318 0)
(1.3505136 0.054717028 0)
(1.5385414 0.092583353 0)
(1.501852 0.070436361 0)
(1.3482864 0.065985424 0)
(1.6278298 0.16242933 0)
(1.5572013 0.11215237 0)
(1.4286001 0.10091001 0)
(-0.017022148 2.6298431 5.030785e-22)
(-0.01485543 2.2855913 0)
(-0.016499667 2.4567804 0)
(-0.010506067 2.8201158 9.4098349e-22)
(-0.010671749 2.8304935 -1.487319e-22)
(-0.0032156889 1.9982709 -1.8314983e-20)
(-0.011477526 1.9416597 1.8463369e-20)
(-0.014697914 1.841771 0)
(-0.017327166 1.8483565 0)
(-0.017325053 1.8461906 0)
(-0.0042148776 1.7941822 0)
(-0.0019764712 1.7602833 0)
(0.45944331 1.9795281 5.0965288e-19)
(0.47810107 1.9837304 2.5876412e-19)
(0.59243221 2.6450696 -2.738812e-19)
(0.38138546 2.7750431 7.1863315e-19)
(0.41389186 2.2718353 9.6439637e-20)
(1.4083399 0.02479798 0)
(1.3352803 0.024265726 0)
(1.1451402 0.015520922 0)
(1.9819448 0.020173747 0)
(1.9614934 0.014644865 0)
(1.7255144 0.020157155 0)
(1.6337391 0.018734904 0)
(1.648534 0.023383077 0)
(1.3329912 0.018067347 1.2276266e-18)
(1.0266367 0.03200729 -1.5586425e-18)
(1.2904505 0.026795621 -1.299894e-18)
(1.1168399 0.019661639 1.6806265e-18)
(0.99011269 1.7373983 0)
(0.86451604 1.8402351 4.6662725e-19)
(1.1499624 1.6129135 2.1716782e-19)
(1.1868652 1.5643591 -2.8934038e-19)
(1.2738399 2.6974092 8.8785706e-19)
(0.80234039 0.072756487 8.9450037e-19)
(1.6387726 0.2002514 0)
(1.6902513 0.29581367 -4.9793354e-19)
(1.5988915 0.24189644 -1.9793794e-20)
(1.5384379 0.17576101 0)
(0.21049634 2.9251375 1.0242889e-18)
(0.09709046 2.8158115 -2.1603449e-18)
(0.025274196 2.3901724 1.3436961e-18)
(0.075391711 -0.16206953 -6.4732372e-19)
(0.36271737 3.4554498 1.8371983e-20)
(0.23281346 3.3651856 0)
(0.24630135 3.4237278 -2.587455e-20)
(0.25857874 3.0824099 -2.5080108e-18)
(0.39134786 3.170391 0)
(0.013394918 3.1196321 7.6651555e-20)
(0.016455814 3.1323852 -8.1674651e-19)
(0.030660107 3.1183003 1.2694726e-18)
(0.036945548 3.1484292 0)
(0.034506826 3.1558352 0)
(1.3515938 2.7885514 0)
(0.78389595 1.0251779 -9.0410394e-19)
(1.3517424 1.3200185 -6.0058497e-20)
(1.2834963 1.4236825 0)
(1.1999118 1.3647855 -1.6494507e-19)
(1.4205909 1.1990074 3.8879159e-20)
(0.36281762 0.43363513 -1.5534716e-18)
(0.75028201 0.30670169 -2.4230675e-20)
(0.62375963 0.21334679 7.2210918e-19)
(0.64450812 0.42631975 5.2685573e-20)
(0.5255366 0.37474232 -2.1564196e-18)
(0.71536942 0.33943562 0)
(0.87683726 0.47833052 1.2034605e-18)
(0.87717226 0.44563699 0)
(0.69124728 0.38631086 0)
(0.5869894 0.29486853 0)
(1.2342107 0.85623758 7.0855416e-19)
(1.693848 0.41605029 -5.7674776e-19)
(1.6796122 0.59015831 0)
(1.6604946 0.51771404 0)
(0.73727705 0.16701806 1.0401171e-18)
(1.2381568 0.72595156 -6.7349616e-19)
(1.0179996 0.63643319 1.2157313e-18)
(1.4562613 0.56213575 -1.2090668e-18)
(1.2510402 0.014476669 8.3921351e-19)
(1.2314133 0.016720067 -8.7272322e-19)
(0.99063921 0.015072202 0)
(1.4470699 0.042313148 0)
(1.3887053 0.03194584 -7.4493608e-19)
(1.2010583 0.022376405 7.3599146e-19)
(1.8305413 0.027243281 0)
(1.704045 0.014220119 0)
(1.9104719 0.0076411581 0)
(1.6738073 0.013547606 0)
(1.9571276 0.022160795 0)
(1.9415689 0.019106938 0)
(0.059522773 1.831826 0)
(0.051987653 1.8094651 0)
(0.15352506 1.8309102 1.7013677e-20)
(0.29438209 1.9539317 1.5499168e-19)
(0.17223761 1.9352796 3.4249837e-19)
(0.1978966 1.9515174 -5.5284162e-19)
(0.19088712 1.86455 0)
(0.1668767 2.0022505 -7.7730455e-20)
(0.14587142 1.9874239 0)
(0.38191008 2.2322988 -1.3359367e-19)
(0.3623396 2.5215014 6.7205537e-19)
(0.22559896 1.942592 6.9679124e-20)
(0.29582765 1.8813374 5.9708107e-20)
(0.23700878 1.8628973 -4.8631894e-20)
(0.34002605 1.8390075 -1.0313976e-19)
(0.27155842 1.9914519 0)
(0.32368099 2.0068127 1.1317946e-19)
(0.035325007 2.4873296 -4.1997804e-20)
(0.032154722 2.8789125 0)
(0.061373759 2.5922031 1.6847247e-19)
(0.052371953 2.5971666 0)
(0.05674576 2.8937183 -2.4909473e-19)
(0.043459953 2.9314946 0)
(0.023790406 1.8685587 1.4246933e-20)
(0.025524863 1.9138116 0)
(0.033275578 1.8448797 0)
(0.026452843 1.8363514 -1.615977e-20)
(0.0050319038 2.8545402 -2.2049386e-21)
(0.014116859 2.8895337 2.2870065e-19)
(0.008019399 2.9246599 1.5973663e-21)
(0.0061572804 2.1610646 9.1469131e-21)
(0.001600327 2.0687451 1.4918575e-21)
(0.014919543 1.7918472 0)
(0.010453663 1.7573743 0)
(0.04033142 1.9897937 2.8960048e-20)
(0.033353506 1.8807955 -6.0690848e-21)
(0.034164306 1.9431228 -2.3558364e-21)
(0.047016952 2.0076405 0)
(-0.028728543 2.4829703 2.4371954e-20)
(-0.02498807 2.7271265 5.5732445e-21)
(-0.024217153 2.6451001 -4.0876064e-21)
(0.0039963919 2.1637716 -1.0823684e-20)
(-0.020389166 2.6720427 -6.7225266e-21)
(-0.021327434 2.6435303 5.1527821e-20)
(1.2452678 0.017867994 -9.035645e-19)
(1.2536226 0.0094814515 9.1529926e-19)
(1.0255406 0.01132674 0)
(1.5104956 0.078656562 1.4829773e-18)
(1.1855117 0.020732521 -1.6409127e-18)
(1.1310602 0.014412438 1.8606784e-18)
(1.5348042 0.11124438 -2.0250434e-19)
(1.4359922 0.043705334 0)
(1.4492316 0.051388946 7.498831e-19)
(1.3228477 0.043730283 -7.4360288e-19)
(1.7098733 0.10607656 -4.6209973e-20)
(1.6816502 0.086488241 3.9738157e-19)
(1.8087837 0.11123118 0)
(1.868014 0.10676714 -1.5490266e-19)
(1.7449675 0.051355559 0)
(1.6184605 0.03497214 0)
(1.8591673 0.027275146 0)
(1.6636604 0.023500092 0)
(1.8710701 0.064920009 3.0725368e-19)
(1.8541584 0.046429129 -6.4772758e-19)
(1.8553174 0.092034622 -3.1095341e-19)
(1.8582235 0.08628652 -3.616182e-19)
(1.8325373 0.13335852 7.1809726e-19)
(1.699221 0.1305837 0)
(1.7462662 0.17861348 0)
(-0.022354094 2.4800229 4.6552005e-20)
(-0.015031615 2.2953317 -2.6064301e-22)
(-0.015312724 2.2887006 0)
(-0.023846892 2.6676372 -4.7829367e-20)
(-0.018063512 2.629856 -2.2677206e-22)
(-0.021424065 2.6608127 3.2039132e-21)
(-0.016368564 2.8348967 1.1426335e-20)
(-0.013094236 2.7517993 -2.4794223e-21)
(-0.016026065 2.7180475 1.5203061e-21)
(-0.0097103443 2.8278142 -8.6026372e-21)
(-0.016537774 2.8290732 1.2140174e-20)
(-0.0069876473 1.9141267 -2.1501119e-21)
(0.0055277318 2.0213272 -1.1689662e-20)
(0.47734763 1.9418843 -2.2055747e-19)
(0.44581065 1.8754198 5.5795416e-20)
(0.8268471 1.879673 -4.5281172e-19)
(0.64531411 1.9635892 -2.4967089e-19)
(0.67841737 1.9415397 0)
(0.64246233 2.6071842 2.5239853e-19)
(0.6979076 2.6224931 3.9973142e-19)
(0.44767401 2.7058281 1.1278763e-19)
(0.45743558 2.7106309 -6.9372481e-19)
(0.54486613 2.6410464 6.7981729e-19)
(0.55384306 2.6621067 0)
(0.48516353 2.7198611 -6.3713735e-19)
(0.22714842 2.7908745 1.2802587e-18)
(0.33436702 2.7757634 -5.0610084e-20)
(0.26956814 2.8649909 -1.7512109e-18)
(1.0215615 2.5436993 1.0508915e-18)
(0.8916887 2.5621548 0)
(1.9559175 0.026979343 2.4412492e-20)
(1.6621154 0.025376698 -2.0875621e-20)
(1.6823564 0.025180366 -3.6673429e-19)
(1.8828903 0.032255117 3.6756401e-19)
(1.9909655 0.033412926 0)
(0.92189115 1.7507936 0)
(0.93555688 1.6639718 0)
(1.1125955 1.5545762 0)
(0.96861097 1.5671895 0)
(1.2803836 2.730893 1.2710063e-21)
(1.1934191 2.5639774 0)
(0.94115356 2.2541292 6.5036176e-21)
(0.88259494 2.5332714 0)
(0.9965176 2.6002221 -5.4333101e-19)
(1.0256065 2.5869841 3.7121464e-19)
(0.8132055 0.1116517 0)
(0.76926298 0.11458937 2.4900958e-19)
(1.0812119 0.1206341 1.3665533e-18)
(0.85245703 0.074052216 -5.3840781e-19)
(0.79997183 0.019461211 -1.5846458e-18)
(1.7270393 0.34651579 -1.162649e-18)
(1.5705227 0.41933601 -2.9738122e-20)
(1.2789621 0.33309722 1.3932732e-18)
(1.5416224 0.29925722 1.1235475e-18)
(1.3006618 0.17460088 -1.8343087e-18)
(1.2422848 0.18935113 2.3340935e-19)
(1.2813508 0.26055341 -5.1822647e-19)
(1.2747725 0.22994573 0)
(1.5348692 0.21789792 8.998954e-19)
(1.6646552 0.25926298 0)
(1.6592706 0.30994281 0)
(1.7176738 0.21931107 3.5420214e-19)
(1.7902471 0.27024142 -2.3041695e-20)
(1.7564006 0.34654925 -2.0480244e-19)
(1.7299604 0.31219763 0)
(1.567296 0.040007692 7.5590934e-19)
(1.824955 0.089519343 9.1514199e-19)
(1.7758821 0.062454423 -7.1838224e-19)
(1.7714598 0.10819106 -6.239203e-19)
(1.5580754 0.075256719 -1.0635753e-18)
(1.4095381 0.13768607 0)
(1.4335415 0.12501668 0)
(1.1382806 0.036882342 -6.7470014e-19)
(1.0333088 0.034373695 2.7672164e-19)
(1.6928368 0.13812619 9.2391927e-19)
(1.8095146 0.20827086 -1.0437253e-18)
(1.7810735 0.22265902 9.5784582e-19)
(1.7157299 0.20372831 0)
(1.8025963 0.17351239 0)
(1.8331757 0.15358179 -4.0696629e-19)
(1.7977619 0.14198839 -7.5283467e-19)
(0.76235283 1.4917431 2.6401639e-19)
(0.82577165 1.8090851 -2.9281993e-19)
(1.1812864 2.754749 -3.3333074e-19)
(1.2975928 3.1103635 6.6078589e-20)
(1.3423825 2.8090892 -6.9349027e-19)
(1.3938696 2.8744971 1.0370186e-19)
(1.2673614 2.5537815 2.4740713e-20)
(1.3305786 3.0346857 -2.5448615e-19)
(1.3393755 3.0544028 4.7719644e-19)
(1.3138049 3.3182742 -4.2355185e-20)
(1.4289191 3.0869095 4.3705994e-20)
(1.4438195 3.0157541 0)
(0.78860752 1.1076842 -8.2560218e-20)
(0.22165737 1.314282 8.9356582e-19)
(0.66016848 0.60983992 1.03009e-18)
(0.43548449 0.18799411 1.1586744e-18)
(0.56977666 0.43522041 1.2141635e-18)
(0.67093941 0.5536118 -2.0084374e-18)
(0.65801968 0.55628341 1.6309322e-18)
(0.55714908 0.46349971 -6.1964245e-19)
(0.41351652 0.35424951 1.4056902e-18)
(0.77777362 0.21784405 -5.8903194e-19)
(0.74242304 0.24639847 0)
(0.63773528 0.18912928 1.135439e-20)
(0.94572387 0.62294736 6.4348514e-19)
(0.87939564 0.55107861 -2.3471427e-18)
(0.72658649 0.55097182 1.7413307e-20)
(0.74370276 0.52193247 0)
(0.9593405 1.0245501 7.093366e-19)
(1.2480811 1.1066933 6.2116226e-19)
(1.1463552 1.2269984 -7.1560885e-19)
(1.307954 1.1395013 -2.4233118e-19)
(1.3535234 1.2010642 -5.044951e-20)
(1.337555 1.1985727 5.0918909e-20)
(1.3362802 0.91924077 -1.1646698e-18)
(1.3708035 1.025933 2.2749332e-19)
(1.4546892 1.0294561 0)
(1.4822076 0.97784788 -2.8968417e-19)
(1.6227811 0.45309741 3.3469289e-19)
(1.7226423 0.44820508 3.5922489e-19)
(1.7216641 0.41400006 4.9430012e-19)
(1.6079112 0.54442747 -6.7763415e-19)
(1.6227224 0.60715894 0)
(1.6533867 0.58155442 0)
(1.2586255 0.46338231 2.5611579e-20)
(1.0881023 0.31688326 0)
(1.1569778 0.2960892 6.7684367e-19)
(1.2616323 0.34373131 -1.7733225e-20)
(1.4527329 0.60967953 3.1363596e-18)
(1.362173 0.70888647 8.7927704e-19)
(1.3298246 0.61320057 -9.95883e-19)
(1.1026694 0.54176716 1.0855908e-18)
(1.0495622 0.53540949 6.4456278e-19)
(0.97301661 0.47146337 -6.3245242e-19)
(1.6796552 0.039751632 6.2007006e-19)
(1.9517028 0.036784843 0)
(1.9181221 0.042997629 4.2155197e-19)
(1.6983784 0.039391607 -9.4214408e-19)
(1.9355271 0.034789166 4.684888e-19)
(1.874985 0.018276589 -9.9483933e-19)
(1.6915723 0.018544654 0)
(1.5763635 0.022716855 -2.0768645e-19)
(1.8408263 0.016383696 5.1796551e-19)
(1.6678436 0.017964563 -2.6781715e-19)
(1.6054141 0.023470029 1.9608468e-19)
(0.035189121 1.8099202 0)
(0.03658854 1.822434 0)
(0.045137643 1.8151997 0)
(0.03856462 1.7942057 0)
(0.072056571 1.8328998 -5.9971348e-20)
(0.086230505 1.8140101 2.7721885e-20)
(0.12583713 1.9234977 -2.0379409e-20)
(0.10446279 1.8097101 -8.155598e-21)
(0.039724253 1.8878935 2.2188042e-22)
(0.04158023 1.881701 -2.2652478e-22)
(0.067559168 1.8219599 -1.8276625e-20)
(0.060621769 1.8267137 5.7610067e-20)
(0.050109491 1.8130162 7.5212064e-21)
(0.04022232 1.8236722 1.4158562e-21)
(0.088282408 2.5374779 -1.8112422e-19)
(0.09318564 2.570714 0)
(0.15859342 2.2865163 1.0892773e-19)
(0.14232176 2.0755859 5.894954e-20)
(0.27032336 2.256603 -1.0087626e-19)
(0.23387871 2.6173959 0)
(0.27804351 2.6037645 -6.6136441e-19)
(0.32847748 2.5051752 4.7556025e-19)
(0.22979078 2.2191051 -2.5353719e-19)
(0.17688814 2.3757365 1.7644914e-19)
(0.16638767 2.5063284 0)
(0.015448011 2.2242764 -7.1625141e-20)
(0.015582117 2.5966253 -1.0136569e-19)
(0.010520778 2.3666366 0)
(0.01370083 2.6561744 -1.5961849e-20)
(0.031150907 2.4928315 4.7012385e-20)
(0.012864027 1.8539664 -4.6462168e-21)
(0.010972821 1.8469248 7.6533555e-20)
(0.012864891 1.8537697 -2.8759462e-20)
(0.016512126 1.8502402 -1.8861608e-20)
(0.022580351 1.8759905 0)
(0.0071547564 1.8336141 0)
(0.00079655053 1.7857842 -3.5038926e-20)
(0.0033323662 1.8269192 9.4414643e-21)
(0.0058504189 1.8284425 0)
(0.0074263586 1.7832818 -2.6611671e-20)
(0.0031524776 1.7527735 5.4696769e-20)
(1.6588034 0.054429211 0)
(1.6514258 0.057033048 -6.9296707e-20)
(1.939265 0.06010136 -5.3879441e-19)
(1.8205988 0.069461256 0)
(1.6705229 0.061380473 0)
(1.9075007 0.048771464 1.6890478e-21)
(1.9096274 0.049101955 8.1209539e-19)
(1.7815061 0.031857546 1.038889e-18)
(1.6581136 0.026744717 0)
(1.580531 0.030177096 0)
(1.7688776 0.044119409 5.3506989e-19)
(1.6102843 0.038353057 0)
(1.5784553 0.024714979 0)
(-0.012957263 2.2852891 0)
(0.0035249947 2.050329 -8.52725e-21)
(-0.0070270199 2.1692052 -1.2486207e-20)
(0.0017018127 1.8359275 0)
(-0.0044131755 1.9653182 -9.1470718e-21)
(-0.0052256051 1.8984134 6.1636637e-21)
(-0.0019275151 1.8381996 0)
(0.51305142 1.9365015 0)
(0.46397286 1.7813159 -1.3554904e-19)
(0.42400177 1.7655389 0)
(0.56082115 1.8236108 1.4465194e-20)
(0.62511291 1.9447783 0)
(0.57246614 1.9088287 4.5541372e-20)
(1.1111 2.7917057 -2.1721851e-20)
(1.0430483 2.5618601 -1.2092818e-18)
(1.0397116 2.4550711 1.4053919e-18)
(0.92019217 2.5484045 3.4073451e-19)
(0.91006579 2.5998132 0)
(0.97515433 2.5785468 0)
(0.99681867 2.5491457 0)
(0.97664395 2.5489782 -1.233862e-18)
(0.74050193 2.5489131 -5.4912735e-19)
(0.86164563 2.5716359 -1.295085e-19)
(0.864478 2.5250599 1.0361618e-19)
(0.7478606 2.584254 0)
(0.84835499 2.5749908 0)
(0.80350243 2.5952972 -4.3805081e-19)
(0.80611855 2.5972716 0)
(0.91584903 1.5149443 0)
(0.73025514 1.2387597 -8.5142383e-19)
(0.83150006 1.2708625 -5.1799925e-20)
(0.78155587 1.3958116 0)
(0.75685018 1.3422931 1.2995726e-18)
(1.1627024 1.2734832 -1.9596248e-19)
(1.1307631 1.4095107 0)
(1.1479116 1.3509152 2.8494158e-19)
(0.97147145 1.4577594 0)
(0.98972579 1.3324452 0)
(1.2503755 2.8019239 -3.8755643e-19)
(1.2100831 2.8364931 -2.8089282e-19)
(1.0046224 2.3454671 4.8991271e-19)
(1.0055697 2.3807762 -1.631756e-19)
(1.2203874 2.793667 0)
(1.1779954 2.7500301 2.071335e-19)
(1.2058335 2.6347608 -3.8102799e-19)
(1.118345 2.4831918 -2.9229219e-20)
(0.70036228 1.6964541 0)
(0.72425749 1.5116526 -2.3242499e-19)
(0.80735912 1.6285677 0)
(1.0863234 0.23242142 0)
(0.78173673 0.13369112 0)
(0.62485137 0.10848317 0)
(1.0669772 0.23971211 -1.055075e-18)
(0.80300219 0.17023825 6.1341672e-19)
(1.0467127 0.032760213 -5.4823215e-19)
(1.1500048 0.096116139 0)
(1.1275431 0.11172381 2.4334025e-19)
(0.8926945 0.032530086 9.8403822e-19)
(0.81645939 0.013719696 -6.2172179e-19)
(1.318268 3.4423022 -2.4938807e-19)
(1.303587 3.3737288 0)
(1.3372948 3.398247 -5.8799994e-19)
(0.52732548 3.50077 5.5407071e-19)
(0.77024561 3.0321179 -4.0699908e-19)
(0.66393197 1.0802099 1.0317554e-18)
(0.63092954 1.1270123 0)
(0.50538668 0.56981309 -2.7560432e-19)
(0.63671854 0.89827844 1.5009688e-18)
(0.67144358 0.52999706 -3.6574433e-19)
(0.62977389 0.64120967 4.2386817e-19)
(0.80778113 0.62432018 8.7659418e-19)
(0.90167537 0.66711006 0)
(0.84786211 0.75229966 0)
(0.7497798 0.68513838 0)
(1.5129691 0.86202545 8.7942916e-20)
(1.404451 0.78024233 -8.3544034e-19)
(1.4129821 0.82942601 6.2218438e-19)
(1.4758126 0.73069047 -6.3192259e-19)
(1.5999556 0.72697662 0)
(1.6053244 0.79426579 -1.431974e-19)
(1.0989231 0.48218359 -1.4309136e-18)
(1.1338854 0.47781266 -1.7040125e-18)
(1.0202545 0.43159329 1.1204138e-18)
(1.0070262 0.39537234 -1.1386911e-18)
(1.0862608 0.35238315 -8.8303155e-19)
(0.98411493 0.33416776 1.0966243e-18)
(1.9173537 0.035776432 -5.0254929e-19)
(1.9476465 0.03842187 1.0164255e-18)
(1.6835921 0.040101945 6.308871e-19)
(1.7001097 0.046780125 -7.506256e-19)
(1.7936258 0.054975015 0)
(1.9448258 0.05174319 -1.3181999e-18)
(0.06612266 2.0511693 2.3011442e-20)
(0.060530988 1.9888728 0)
(0.099521225 2.0462454 2.4938526e-19)
(0.11190601 2.0402907 -2.2616577e-19)
(0.092126276 1.9489872 3.6101013e-20)
(0.081343104 1.9404074 0)
(0.0076861062 2.0746097 0)
(0.0032779591 1.9179848 2.7588562e-21)
(0.0022881213 1.8846472 -2.4962776e-21)
(-0.0045845313 1.9658833 5.4375793e-21)
(-0.0037635488 2.2061102 2.5102565e-21)
(-0.0037216767 2.2275915 5.5020145e-21)
(0.69073171 1.7270834 -5.2114614e-19)
(0.64666935 1.7632589 5.5018336e-19)
(0.60546028 1.7971779 -2.4631611e-20)
(0.60461846 1.7213308 1.7891652e-20)
(0.85513195 1.792509 0)
(0.71282333 1.8853244 2.0968173e-19)
(0.77559544 1.8798806 -2.0362962e-19)
(0.65110283 1.8298195 2.4452889e-20)
(0.72999828 1.7437018 0)
(0.79183369 1.7174652 0)
(0.71843898 2.5206147 8.0379311e-19)
(0.71534086 2.5895531 1.4735891e-18)
(0.76235864 2.5881214 -1.0590631e-18)
(0.63389997 2.5985929 -2.2090853e-19)
(0.62396377 2.6539612 3.6371668e-19)
(0.57544445 2.6281697 -9.1461801e-19)