/*--------------------------------*- C++ -*----------------------------------*\
  =========                 |
  \\      /  F ield         | OpenFOAM: The Open Source CFD Toolbox
   \\    /   O peration     | Website:  https://openfoam.org
    \\  /    A nd           | Version:  9
     \\/     M anipulation  |
\*---------------------------------------------------------------------------*/
FoamFile
{
    format      ascii;
    class       volScalarField;
    location    "16";
    object      p;
}
// * * * * * * * * * * * * * * * * * * * * * * * * * * * * * * * * * * * * * //

dimensions      [0 2 -2 0 0 0 0];

internalField   nonuniform List<scalar> 
918
(
0.38475387
1.6320106
0.01707137
0.34243606
-0.00073628942
1.6026508
-1.1506009
1.1378313
0.40731197
-0.34481379
-0.034277806
0.73755966
1.4740738
1.2349352
-0.93044702
0.0065270898
1.0467154
-0.95853259
0.39121392
-0.0086838422
1.2929798
0.35425904
0.38231353
0.35613818
0.86656162
1.2309868
1.3367306
0.0048075364
0.002649054
-0.0096835368
0.0055538806
-0.01227141
-0.0012208738
1.4789273
1.5329469
1.5566458
0.50361273
0.33943019
-0.89796644
-1.0280216
-0.96319596
-1.2324506
1.1134949
1.1165099
-0.51569065
1.1397972
1.1650139
0.39814405
0.40233517
0.41036731
0.35115798
0.38222445
0.39762419
0.31204241
-0.37867726
-0.4412539
-0.29695459
-0.25878828
0.045122675
-0.040030682
-0.064628261
-0.0084387548
-0.0088535845
0.59207656
0.71095238
0.69704448
0.75256844
0.76876216
1.5691075
1.532542
1.5595277
1.5063564
1.4966615
1.4539467
1.4171082
1.2731695
1.280289
1.2331029
1.1979265
-1.475532
-2.5409225
-0.33748008
-0.019851652
0.00025873792
0.013840634
0.021672999
1.0175888
1.0256556
1.0400041
1.0644783
1.1478453
-0.88964556
-1.1728841
0.3936632
0.3852734
0.38503342
0.36678536
0.41227182
0.45700189
0.00032289798
0.0055921442
-0.032990501
-0.0039169927
-0.0048888685
1.259447
1.2414945
0.37254056
0.37900021
0.78796829
0.8308342
0.80769544
0.35542267
0.89113567
0.93125229
0.99852102
1.2080571
1.2270748
1.2036302
1.3227536
1.2778317
1.3834893
1.4091325
0.025023145
0.0061111482
0.007349682
0.0008845702
0.011609565
0.51325319
0.5463806
0.50884304
0.48052373
0.47881177
0.28180544
0.1379923
0.43174772
0.44596255
-0.72854054
-0.8253386
-1.0102257
-1.0313531
-1.2560733
0.72478058
1.0931804
1.0985661
-0.54989126
-0.39746515
-0.6499221
-0.31114187
-0.41045999
0.44272924
0.4120238
0.44030519
0.37673415
0.3877313
0.38246835
0.38030285
0.38389869
0.39739807
0.36967388
0.50761155
0.25996338
0.21866593
-0.65704819
-0.471
-0.6324185
-0.23044759
-0.18648168
0.026251211
0.052525326
0.017761418
0.048259058
-0.15646345
-0.090102717
-0.12111467
-4.2124571e-05
0.0025135767
0.58119269
0.58164805
0.5778636
0.5858736
0.62402188
0.62785899
0.67116849
0.660312
1.3430573
1.3667461
1.4114488
1.3744166
-3.9660772
-6.6994406
0.31970573
0.50881764
0.0032976967
0.0022427063
0.001169019
0.0018350191
0.0030893489
9.6476799e-05
0.035134103
0.024752921
0.020900097
0.029138657
0.99421706
0.99830024
1.0838194
1.1288206
1.0064167
0.9979227
0.43323426
0.41029073
0.40344694
0.40545434
0.0059508733
0.0049631155
0.007806925
1.1710332
1.2120224
1.2014536
0.26853917
0.12500577
0.43577826
0.48378075
0.97317131
0.94792661
0.97371199
1.0759056
1.1124411
1.398763
1.4108003
1.4485543
1.4453693
1.4936835
1.4860336
1.4444727
0.56672727
0.54397061
0.57386428
0.43647845
0.47970645
0.46616766
0.58150288
0.52893221
0.57578872
-0.031450251
-0.37596054
0.52020697
0.51035072
0.49039475
0.48452452
0.80332527
0.89975386
1.0591463
1.076163
1.083743
-0.17576324
-0.27125511
0.15145898
0.12757359
0.52768237
0.56869825
0.55308726
1.3172345
1.3177957
1.3639976
1.3263457
1.267673
1.2902735
-0.40322833
-1.5905031
-0.96406827
0.92874259
0.69964702
0.80894933
0.026905196
0.01906104
0.022964705
1.0940074
1.1525437
0.57510579
0.84112259
0.83666578
1.1645592
1.188211
1.2583306
1.182054
1.2096807
1.2361602
1.2193687
0.6635818
0.56036572
0.59038093
0.94476886
0.9976215
0.055357337
-0.049784622
-0.11518695
0.036983296
0.071305501
0.078821423
1.1017468
1.0412643
1.1175601
0.38046814
0.37314926
0.011799099
0.024888745
0.40501176
0.37649132
0.0047697486
0.005216994
0.78005356
-0.68213962
0.092787725
0.40398452
0.43914721
0.39817362
-0.34269294
0.20591901
-0.058609993
0.12191914
0.098848438
0.71579946
0.60314583
0.57601707
0.0065369333
0.021944535
0.0046586538
-0.55000212
0.39043907
0.37191293
0.39040012
0.37455899
0.40508319
0.0058086938
0.0052054934
0.0068329666
0.00042853741
-0.001040451
0.0071461399
0.54298491
0.56013166
-0.43845666
0.40015909
0.38261977
0.40083011
0.35288619
0.41230318
0.36336173
0.017042086
0.010010191
0.0083306029
0.30880961
0.49134269
1.1105671
1.2997091
1.104534
0.72241519
0.38995291
0.9639279
1.0676386
0.92118691
1.1174784
1.0581878
1.1068067
0.16937884
-0.059905598
0.18919555
0.12691705
0.40399225
0.41785814
0.44587182
0.4548944
0.41373012
0.39463674
0.40752502
0.40845873
0.40082008
0.41753549
-0.28985074
-0.25936246
-0.35890523
-0.43769065
0.2400655
0.52786236
0.12656382
0.21442207
0.086446238
-0.027729547
-0.014378903
-0.077390002
-0.093655476
0.0025356138
0.079945515
0.093415133
0.053181019
0.082935596
0.029349716
-0.02934154
0.02885007
-0.01160376
0.68304413
0.67803722
0.7017958
0.74814481
0.58360246
0.5822705
0.58250226
0.58467591
0.59058207
0.51275401
0.5601884
0.54936911
0.0057748037
0.0088034977
0.0051460198
0.021934641
0.02487887
0.005269554
0.0071447748
0.0075404613
0.003214946
0.0052739007
0.0043120774
0.0070316482
-0.49852772
-0.65841356
1.0355822
0.90225174
0.091489735
0.41039248
0.37619601
0.3759841
0.40474455
0.38934941
0.39688993
0.4009154
0.40258027
0.50929968
0.47992427
0.54429768
0.60425132
-0.35749521
-0.58694135
-0.32809959
-0.37580258
0.20511461
0.94002494
0.48564182
0.37547533
0.38521274
0.75820571
1.2542142
1.1429736
1.2540088
1.2848117
-0.31492597
0.19245737
-0.10813023
0.57687958
0.79068712
1.0847956
1.1487315
1.1544257
1.1228832
1.052054
-0.23141901
0.7641018
-0.21634896
-0.20213292
0.1325723
-0.040512958
1.1611845
1.0331077
1.0413806
1.0927508
1.1353066
1.0460726
0.99323762
1.0056878
1.0786389
1.0792931
0.71359775
0.35243537
0.23233575
0.22309333
1.0042259
0.77640204
0.87196074
0.71086468
0.45904142
0.44631051
0.43949554
0.50244135
0.47554488
0.48507163
0.49907391
0.51574125
0.44513401
0.4109511
0.45957085
0.43181278
-0.21368258
-0.21539915
-0.24009933
-0.42191971
-0.43478483
-0.53444759
-0.29838757
-0.14449087
-0.20173634
0.13633638
0.2526284
-0.17633012
-0.31460513
-0.26384602
-0.19869656
0.017476826
0.084540824
-0.05482909
0.098472874
-0.043237196
-0.037649389
0.14981823
0.16089355
-0.034018865
-0.050550802
-0.11889555
-0.066212739
0.085143477
0.05764196
0.079356186
0.026154332
0.013397701
-0.012093308
-0.0054952545
-0.11810148
-0.13512787
-0.1013554
-0.15406991
0.018262434
0.020087084
0.030721507
0.031215491
0.027907
0.032484179
0.61621233
0.64084139
0.62915416
0.75227393
0.75150774
0.78360062
0.73587186
0.53128183
0.55956853
0.55594141
0.61237111
0.59620262
0.63850945
0.6291634
0.68103603
0.67911247
0.54866202
0.52805737
0.65021841
0.61221261
0.61495003
0.61795457
0.65113557
0.59065089
0.57165392
0.014105994
0.0090074687
0.0094203585
0.0090861765
0.010817939
0.013252934
0.043251589
0.040028713
0.030985638
0.032610837
0.032462523
0.015080796
0.013933817
-0.33066623
-0.17177611
-0.54986107
-0.58364099
-0.68034993
0.91838131
1.0726269
0.83004971
0.54258686
0.57854441
0.86871111
1.0084742
0.50487382
0.65934759
0.76679334
0.68132555
0.93451821
0.40610264
0.40329175
0.4209799
0.40471086
0.42911097
-0.17361415
0.0096192165
-0.047378094
0.12432929
0.32310123
0.37310653
0.1928816
0.13679526
0.29771
0.19017189
0.931985
0.95885974
0.85545317
0.90745992
0.9101573
0.58760572
0.73178804
0.83491985
0.74680786
0.83493951
0.85547796
0.79318201
0.83559047
0.76669658
0.68404784
0.68546
0.58110208
0.60653598
0.57609753
0.53636975
0.69773659
0.64375079
0.69651487
0.67146966
0.72424884
0.77983831
0.77053846
0.7915606
0.82889018
0.69380168
0.64244292
0.64446014
0.6974491
0.62487598
0.63712862
0.66292292
0.19851756
0.20586839
0.073427958
-0.03373362
0.057855682
-0.10715652
-0.12700641
-0.096529876
0.22120351
-0.42418857
-0.40626484
-0.78017169
0.64162625
1.2929665
1.0985971
1.090441
1.1394743
1.0982336
1.089076
1.1698033
1.1720891
0.98806454
1.0256992
1.027216
0.92388798
0.96888261
1.0688035
1.0477433
0.73571936
0.4849736
0.4352474
0.42047218
0.1747124
0.24967063
0.61811867
0.48458304
0.35021493
0.35536232
0.67196685
0.46686861
0.57287105
0.65946106
0.53243196
0.45934695
0.79840391
0.92516809
0.91301151
0.8591677
0.69131994
0.73045546
0.78980146
0.86117201
0.89865445
0.97122063
0.47418225
0.4674518
0.45695642
0.44687192
0.49181253
0.48128237
0.48126559
0.45525902
0.44611552
0.43961709
0.46118311
-0.11534757
-0.12163964
-0.18074132
-0.15049231
-0.24716477
-0.29813349
-0.25129419
-0.23785649
-0.15284997
-0.17030377
-0.24743892
-0.22280604
-0.16532674
-0.13093993
-0.16517169
-0.13058178
-0.1471257
-0.11212326
0.1764364
0.26849419
0.32783367
0.26322311
0.077653507
0.069162063
0.17153828
-0.07524629
-0.0012039475
0.0222124
-0.03313653
-0.067161544
0.0065143868
-0.0087105875
-0.012012887
-0.0093710754
-0.019276336
-0.0076991744
0.00582097
0.0047043441
0.013130587
0.0024476043
0.0038487418
0.5269848
0.55950694
0.60921924
0.58466381
0.57355766
0.59491294
0.55576399
0.57102041
0.5694668
0.61394632
0.60038504
0.64023966
0.628084
0.024369173
0.020255658
0.026181914
0.010722012
0.013465685
0.018277367
0.015136102
0.063893387
-0.070027091
-0.025059175
-0.16462781
-0.39315454
-0.2878953
0.41802315
0.55764984
0.54643184
0.79687511
0.57097672
0.51743039
0.66944948
0.80295773
0.22946415
0.45486365
0.27107103
0.92956286
0.83480601
1.0088178
0.55645271
0.21154129
0.43820417
0.53724626
0.21765607
0.32287183
0.34620693
0.18709985
0.26196234
0.26896632
0.42447608
0.21008211
0.26374371
0.19134047
0.21544034
0.2754791
0.2977269
0.38794079
0.4481081
0.14630544
0.11543724
0.050182885
0.91979812
0.95379614
0.98460134
0.93538608
0.9840627
0.84159523
0.82937245
0.85750067
0.87756581
0.85586264
-0.61605996
-0.71894642
-1.0555023
-0.50473441
0.10697366
0.67707311
0.56040163
1.115106
0.88201416
1.1139943
1.0619599
1.0081654
0.92313905
0.90103755
0.99105628
0.48913085
0.65202017
0.62740804
0.61047652
0.44244369
0.3481182
0.87820001
0.86107502
0.9314644
0.96413456
0.90752108
0.98110227
0.51308881
0.53029506
0.50437049
0.52539805
0.51471915
0.52113231
-0.12821846
-0.18272655
-0.14223463
-0.13166132
-0.24055547
-0.22048546
0.045707518
0.020967983
0.0093747086
0.01010506
0.036360002
0.031022837
0.078925591
0.035918405
-0.14909567
-0.035114214
-0.2019907
-0.29889794
-0.36004065
-0.18228641
-0.055036951
-0.033835272
0.37185221
0.65578017
0.50087579
0.62069783
0.44698983
0.55634714
0.49104136
0.4435408
0.48419425
0.36841529
0.38720652
0.34675141
-0.4442562
-0.1078956
1.1635684
1.0923897
0.7207997
0.56100987
0.505351
0.85468045
0.77924936
0.63509637
0.7304819
0.85213597
0.84144457
0.13772045
0.12621409
0.45852405
0.59506993
0.26763476
0.14335505
0.11064354
0.27625168
0.32617053
)
;

boundaryField
{
    wall-4
    {
        type            zeroGradient;
    }
    velocity-inlet-5
    {
        type            zeroGradient;
    }
    velocity-inlet-6
    {
        type            zeroGradient;
    }
    pressure-outlet-7
    {
        type            fixedValue;
        value           uniform 0;
    }
    wall-8
    {
        type            zeroGradient;
    }
    frontAndBackPlanes
    {
        type            empty;
    }
}


// ************************************************************************* //
