/*--------------------------------*- C++ -*----------------------------------*\
  =========                 |
  \\      /  F ield         | OpenFOAM: The Open Source CFD Toolbox
   \\    /   O peration     | Website:  https://openfoam.org
    \\  /    A nd           | Version:  9
     \\/     M anipulation  |
\*---------------------------------------------------------------------------*/
FoamFile
{
    format      ascii;
    class       surfaceScalarField;
    location    "16";
    object      phi;
}
// * * * * * * * * * * * * * * * * * * * * * * * * * * * * * * * * * * * * * //

dimensions      [0 3 -1 0 0 0 0];

internalField   nonuniform List<scalar> 
1300
(
1.7582594
5.6264299
-7.2938598
1.7582594
-7.1671628
5.6264299
-6.212115
6.212115
-1.7497257
1.7497257
3.7342395
3.6504498
-4.4504155
4.4504155
-5.1620116
5.1620116
-3.3763514
3.3763514
-5.2376981
5.2376981
-5.0560583
5.0560583
4.7822284
-4.7822284
-5.8478474
5.8478474
-2.4123245
2.4123245
-5.5098763
5.5098763
1.4748873
-1.4748873
-5.6541165
5.6541165
-0.57194345
0.57194345
-0.57739878
5.1488731
1.1808606
1.1808606
-3.2977402
3.2977402
-4.8343172
4.8343172
6.2144532
-6.2144532
11.024444
-11.024444
-3.7305839
-4.1051958
1.5855517
-9.7717811
-5.5816111
-5.5816111
-8.4382715
8.4382715
-2.8118416
2.8145883
2.1474383
-2.1474383
-1.7997933
1.7997933
-6.1727979
-0.03931715
-6.1727979
6.2513464
-0.03923139
6.2513464
-1.9415287
0.19180304
-1.9415287
5.5203579
-5.5203579
1.5344814
0.21524428
1.5344814
1.3963868
-1.3963868
-3.7344949
7.4687344
3.6501944
-3.0548145
8.2036876
-3.3921365
7.0425863
-6.6063653
6.6063653
-4.6169245
0.1665091
-4.6169245
4.4616025
-0.011186974
4.4616025
-6.505026
6.505026
-5.000906
-0.16110551
-5.000906
5.2980755
-0.13606383
5.2980755
3.4253397
-3.4253397
-3.1582245
-0.21812691
-3.1582245
3.4888658
-0.11251433
3.4888658
0.35898402
5.2674459
-5.985414
8.8000023
-5.2674459
0.029747808
5.2000463
0.037651853
5.2000463
-5.0932301
0.03717184
-5.0932301
5.011924
0.044134383
5.011924
4.8854034
-0.10317503
4.8854034
-4.8781913
0.095962948
-4.8781913
-3.9742168
-4.0946318
-5.9643965
0.11654907
-5.9643965
-2.4352513
0.022926861
-2.4352513
2.3716183
0.040706148
2.3716183
-4.3061805
4.3061805
-6.0023835
0.49250723
-6.0023836
1.3659301
0.10895718
1.3659301
2.0102531
2.5612212
3.7685125
-3.7685124
2.2936251
-5.5733736
-0.080742838
-5.5733736
-5.767349
-5.2570947
5.767349
-0.11323261
-0.99417677
0.42223331
-0.99417677
1.2344826
-0.053622052
1.2344826
3.4613154
0.027550371
-3.4613155
0.16357528
4.5723895
-4.5723895
2.4590084
0.83873185
2.4590084
-5.5817962
5.5817962
4.946689
0.065234978
-4.946689
0.11237182
6.1543556
0.060097649
6.1543556
-6.1927772
-0.021676041
-6.1927771
4.0227046
-8.1279005
-4.114332
5.7207472
0.12710014
-5.7207472
0.13913612
2.4517454
-0.30430707
2.4517454
-1.9424542
1.9424542
-1.8829645
-0.26447384
-1.8829645
-2.1333256
0.33353235
-2.1333257
1.5272867
0.27250656
1.5272867
-5.9687986
-0.20399928
-5.9687986
-6.2142002
0.21181666
6.2142002
0.037146217
1.4672644
-1.4672644
-2.1219515
0.18042277
-2.1219515
-5.7086685
-0.2601301
5.7086685
-0.18831052
-5.4331804
-0.087177571
-5.4331804
-1.6274396
-0.25552492
1.6274396
-0.2310528
1.2923595
-0.057876917
-1.2923595
-0.10402729
-3.0549962
5.6162174
-3.3919548
7.0421492
-6.3388018
-0.26756356
-6.3388018
6.7091757
-0.10281045
6.7091757
5.0353514
0.4745249
-5.0353514
0.41842696
4.5970928
-0.13549034
4.5970928
-6.5694976
0.064471567
-6.5694976
6.4252929
0.079733138
6.4252929
4.7986774
-0.20158466
-4.7986774
-0.20222856
5.3984046
-0.10032913
5.3984046
3.7184775
-0.29313774
3.7184775
-3.1169443
-0.30839537
-3.1169443
2.5651938
-2.5651938
2.8718226
-0.30662879
-2.8718226
-0.28640196
-11.14871
11.127034
-0.035813409
-11.112896
5.1642329
5.1642329
4.095537
0.78986639
4.095537
-5.0620557
0.1838644
-5.0620557
3.950948
-8.06528
4.0943167
-8.0685335
4.0834244
-13.855206
4.0108613
-8.1054931
6.1981711
-6.1981711
6.0767619
0.12140913
-6.0767619
0.11236539
-2.4612599
0.026008565
-2.4612599
-3.6565592
-0.64962138
-3.6565592
5.0048994
-0.69871886
5.0048993
-1.5172232
1.5172232
-1.3982332
-0.11899
1.3982332
-0.032303171
5.4872741
-0.088869512
-5.4872741
-0.086099519
1.2849224
0.24955898
-1.2849224
0.29074567
4.8856749
-0.31328545
4.885675
-4.255732
-0.31665748
-4.255732
-2.4649204
0.0036604835
2.4649203
-0.0059119825
-5.8240381
0.24224189
-5.8240381
-11.21343
0.10053315
-11.175778
-6.092244
-6.092244
2.3460276
11.14603
-2.7809692
-0.33597514
2.7809692
-0.3292238
1.7129512
-0.19572797
-1.7129512
-0.22950301
-2.2499973
-0.31519644
2.2499973
-0.30754316
-2.5615126
0.42818697
-2.5615126
-1.2481462
1.2481462
-1.3357932
0.087647039
1.3357932
0.19149345
1.7905565
-0.32329216
1.7905565
2.2701311
0.10148728
-2.2701311
0.14817961
-5.2716586
-0.16152171
-5.2716586
6.6963203
0.012855428
6.6963203
-3.9892721
-0.26645988
3.9892721
-0.27079458
-0.035303404
11.162337
-5.1289295
0.035699356
5.1289295
-11.222435
11.258134
-3.1433528
0.58184019
3.1433528
0.9521842
5.3184254
0.26337076
-5.3184254
0.25636976
6.3228888
0.10240409
-6.3228888
0.12471764
-3.1230881
-0.53347112
-3.1230881
-5.747109
-0.59169283
5.7471091
-0.74220983
-11.476285
-0.19347294
11.669758
-11.432151
6.017511
0.13684462
-6.017511
11.394979
-1.2833236
-0.18394079
1.2833236
-0.035177363
2.1507834
-0.36022686
2.1507834
5.1389256
-0.2532507
-5.1389257
-0.13273298
-6.6252115
0.055713893
6.6252114
0.07110884
-2.6106008
-0.51248737
2.6106008
-0.45981743
-5.3709403
5.3173183
2.8327473
-3.9509967
-4.1769038
-9.2080914
2.5623996
3.0538177
4.8560248
-8.5679932
-5.2872124
-8.4288571
7.2869201
-7.0305503
-9.5526796
9.4495046
10.002372
-10.089549
-7.4456831
7.4133799
8.4772152
-8.708268
3.7595382
3.7091962
10.211202
-10.044693
-17.155982
16.888418
11.025464
-11.186569
15.041158
-14.976687
-15.986602
16.089006
-7.4674511
7.2493242
-8.439008
8.1306127
-8.8777251
8.6069306
-3.8994103
-4.1691232
11.110595
-10.994046
13.994983
-14.075726
-11.512292
12.0048
4.1102484
1.2070698
4.0523715
-3.6165004
7.3760386
-3.4260858
6.2588331
4.1286118
-8.0280221
3.9366682
-8.113572
7.2860671
6.7089164
-7.1728344
-2.035257
-7.7058265
7.4015194
-7.531714
7.2241708
11.989493
-12.02881
-3.5939541
7.3031503
-3.448195
6.5020127
-3.7320624
-3.7136206
3.6231053
1.2329195
6.785896
4.3246986
-6.9129961
-1.515861
-10.186408
9.9331577
-10.560186
10.243528
-0.47774416
5.8001716
-5.3224274
4.3565731
-1.4648235
7.264995
5.8220967
6.005961
5.8715409
-5.6081701
1.1590094
-6.4814368
-6.3690649
-3.4366477
3.6170705
3.3986044
-3.1833601
7.8606385
2.1417332
7.672328
-7.255821
-2.8337283
-7.4173427
4.6243809
2.7889989
4.5053909
5.2187763
3.2584388
4.9632514
5.867205
-5.9208726
0.053667609
-5.4035893
11.270794
1.3822777
-9.1172099
-7.8842904
6.4927953
3.7184068
6.4816083
-7.277804
-2.7668885
-6.859377
-10.420914
-6.735068
-11.012606
10.977873
5.9105448
10.875063
-12.257258
12.328367
7.6369478
3.3885161
7.500884
-6.9123472
-4.2742221
-7.1145758
12.901786
-2.0261642
-10.875622
-9.4225167
-6.5640851
9.3427836
5.6983746
9.553297
6.5357088
9.6780146
3.9658181
8.9359682
-9.6641928
3.1001077
-4.4892325
-2.9782187
-4.7756345
4.8628422
2.386482
4.7503279
-4.91673
-3.5222781
-5.2527051
-5.0720449
-3.8056802
5.3651827
2.76543
-5.5167825
-5.0434034
5.7832423
2.8236882
3.7503416
-9.0375539
4.3551516
-8.5242748
-7.8123531
-3.1816926
-7.6999877
5.0576121
3.0755277
-8.1331398
-2.97041
13.119239
-6.4103227
11.083982
-8.6058414
-5.469885
-8.6919409
-9.1986098
-2.3136828
-8.9867932
-9.5202109
8.9867398
-9.9161462
9.2174273
13.618287
-6.5660697
-7.0522177
-4.8514821
-3.8567859
4.9555094
-0.90313791
-7.1986758
7.2523434
0.17736283
6.4361959
7.6432657
6.7401278
-4.4019632
-3.1297507
-4.6314662
4.725143
2.4990278
4.4099465
9.1323101
2.8571827
9.0930788
-8.5207536
-3.5080564
-8.7247528
9.6063715
-9.2728391
3.9696307
-3.9659702
6.8911229
3.3524056
-6.5778375
-3.608571
8.1084517
-4.0518158
-4.0566359
-12.101223
10.707646
1.3935776
-4.8362283
-0.47965522
0.092288244
-5.5986063
-3.9540733
5.5026433
0.50331771
11.210964
7.2568902
-5.519614
5.7618559
6.1501442
6.2153792
-0.15368577
6.122291
-5.5404508
7.0457953
-3.0358691
-4.0099262
6.9711206
-7.2312507
-1.7536322
-7.0446916
5.2910594
0.4410773
2.3915305
-1.9692972
-2.7714856
-0.66516214
-2.623306
2.0353573
1.3632471
2.2849163
1.3296053
2.2874653
-3.9164352
0.70409178
3.2123434
-2.5868299
-2.4792683
-4.7838566
-1.4329996
6.2168561
7.2814646
2.6516932
-7.1487316
-0.2686111
3.6521874
-3.6114812
-1.0508889
-3.7329676
2.814076
-3.8649649
-4.6513372
-2.5585618
7.209899
-3.7459662
-0.88550006
3.9416942
0.56369675
-4.4916633
-3.2141632
4.7561372
0.20711424
-5.0228072
10.566634
-5.5438269
-8.1525579
4.5784998
6.6922945
7.3674987
-9.0572302
4.6330147
4.4242155
-2.3649357
5.7385833
0.74302502
5.6030929
-8.7395395
5.972651
7.7519634
4.2528363
-8.2264884
1.3671113
-7.3724281
10.436256
-9.5230935
-0.91316267
4.9363901
5.4998661
7.54154
6.0767474
-5.942804
13.484344
-2.0749512
-7.4481423
9.4473793
-5.194543
6.3358311
-11.530374
-12.412578
4.9644361
-11.232794
12.151969
-0.91917452
-3.2165515
-9.0407067
14.449346
-1.8472116
-12.602134
9.0278513
-6.952987
-5.2400354
12.193022
-8.9791513
9.5142573
-3.7174437
-5.7968136
-9.9500626
-5.0266242
9.8943489
2.434018
-11.320378
14.420486
-2.3844098
6.8024758
0.69840816
6.7021468
5.4569029
-6.7731625
1.3162596
3.5222484
-7.2396921
3.9996308
-10.772793
-6.0826134
11.677463
-5.5948501
-9.2643061
-8.5064134
-0.75789265
2.1490213
12.271464
-8.6847301
6.4069775
2.2777526
4.0597613
0.35018524
-3.7531325
-1.022502
0.74819645
6.1096503
-6.8578468
5.4985243
5.5260747
4.7105782
1.3990722
4.8433266
2.5581928
-4.5141028
-0.73860226
-5.5790831
1.7734029
-2.8136531
-5.4188574
7.1922602
-6.1095277
0.69067029
-3.5512163
-5.6667222
9.2179384
-6.5294349
5.2356025
5.3310317
7.7346303
-7.8945471
2.227825
-4.1347681
-3.759779
3.8817027
-6.6953558
2.8733815
4.3188788
5.6970697
0.65366635
5.9884744
5.688989
-9.0640021
0.53972732
10.013688
-8.4978266
2.3208613
7.3571533
-8.7278389
0.2214254
-7.4785623
1.2439371
-7.6542598
-6.8892028
6.7714533
-9.0851361
-4.7589206
8.3355673
0.75751146
-8.3727135
-0.61407967
-6.4950268
-3.0251841
-7.0075142
-3.3216578
-6.5944885
-9.2644618
-1.7426297
-7.5218321
7.24411
-7.2574486
-3.7551577
7.9996584
1.2177689
-8.0513935
7.8674527
-8.0780387
7.7178119
0.27355235
6.978791
7.0136802
3.1568943
-4.6138553
7.7707496
-6.6834988
9.5406815
-11.182627
4.4991286
5.2723646
-8.780421
-5.9102627
5.4953529
4.1110185
5.7678594
9.4150652
-10.874658
1.4595931
-11.076101
12.571423
-1.4953223
-17.156716
6.0806147
-7.7416503
3.6218845
0.34774625
3.647893
0.91138817
3.2152621
-4.1266502
-3.054582
-3.060494
-3.0318018
-4.4743605
7.5061622
1.4636062
-4.4194554
2.9558492
-4.6205752
6.0841814
-0.1034924
-4.315963
6.9976487
-3.7823867
7.345395
-4.7240675
2.6213274
4.3260651
7.3477647
-3.0216997
5.6968765
-2.3444709
2.3860549
-5.4077545
-2.0883056
-4.565842
6.952324
-4.6520964
5.3427667
-0.094477289
5.437244
-5.4142618
1.3624459
-0.70368359
4.8223911
4.9859664
5.6564201
-4.2573478
3.8079703
-6.1524413
-1.5997842
-5.4987749
-1.1798962
-0.50705877
-4.9861497
5.4932085
6.7383588
-7.2454176
-5.3889994
9.8065022
-4.4175028
8.1113607
-5.573309
-2.5380517
-4.5867367
-4.6861024
4.1585498
1.9637412
10.075102
0.27684029
-5.8501493
-5.2636105
-4.3114263
4.368365
2.6774304
-2.5343553
3.9279328
2.442067
-0.050536475
0.81129177
1.4736246
2.5168679
-1.7055761
0.20492696
2.3119409
-1.7643702
2.6797326
0.97245479
-2.7812199
0.1579139
-1.8377492
4.6518252
1.3745943
-2.7378413
1.0322653
1.5655172
-4.6013862
6.3099162
-3.1617765
-3.1481397
7.8754334
1.5066087
-4.6683852
5.5380828
-5.0970055
3.0043723
-4.4373719
-1.6640129
-6.7610184
-4.6192852
-3.2367724
6.1926216
-4.2693899
6.921083
1.5412845
-6.6524719
8.1937564
-4.6833452
2.1247834
-4.0815024
5.0539572
-1.4008362
-2.6806662
3.5984004
3.6114986
-3.818098
0.085130326
-0.21969752
3.0625536
-3.2822511
-0.80241131
-3.3892412
-7.2521755
7.4592897
-3.7770128
8.4100275
3.9937367
-3.317353
11.727381
3.2943244
-6.6116774
-4.8582335
-5.7437335
-2.1874619
5.1800368
-1.4661176
-5.6484582
-7.2629312
5.8500428
-0.2469499
-8.591097
10.006918
-1.4158205
-4.8726902
-1.0999608
6.0363509
-8.6640815
1.4243895
-4.6644508
5.3424666
6.0854916
5.8385417
-12.865512
0.26337755
-6.9549669
1.3081937
-8.2631607
6.8080599
-3.5010771
8.4655133
-11.201036
7.4458781
-9.983267
7.5523506
-0.71081003
6.8825152
-5.5662557
3.9931067
-9.0197309
-6.5857128
7.9719177
-4.5834016
8.6703259
-5.2252111
13.895537
-7.6096209
8.3683719
5.5271651
-1.7996052
-6.8923357
-8.0893134
6.2897082
0.27905845
6.9812052
7.1048322
-4.5466394
6.36623
3.8514039
-7.986172
-2.8439519
-11.213072
3.2269004
-5.8820407
-2.7876355
6.0145359
4.9469948
5.29718
2.2547569
-4.274678
8.2881967
-9.0460894
-2.6933466
-4.1958562
8.1070667
-1.8173585
5.017078
-9.2129343
-2.6371817
5.6639663
-0.76940559
-4.8945607
0.9021037
-5.6610243
2.3368121
-7.9978364
6.7483241
-7.3624038
2.3637473
-10.105398
-5.6876462
-5.7228236
-2.4360942
-5.6419445
-7.9828308
5.5467365
-1.9022161
5.9652367
-8.8870103
8.1176047
-3.6844128
9.2311493
-5.8588477
-1.1486665
6.3186651
1.3991467
10.630296
0.27956823
-6.1898309
-2.5646058
5.4240534
-2.8594475
1.8037591
-4.7065815
0.71747188
3.3024035
4.5730299
-8.5934629
-0.18695813
-6.376789
-4.1789817
8.2900003
5.6275205
12.365879
1.491221
9.4495772
-1.159577
10.940798
4.6082825
4.7997759
-4.0290946
5.4886878
1.4641139
5.9632424
-1.1577727
3.7791001
2.4901203
2.5130472
1.098434
3.0543131
1.9316533
4.4167591
0.29010884
-2.7703852
4.7289052
-9.0403315
-1.1212441
-8.2504652
1.1990394
5.9156122
-4.7165728
4.326279
-1.6488486
1.4668315
0.1468777
-2.5497766
2.4028989
-3.8630485
-2.6003131
-0.28837218
-2.1164156
3.1486808
2.5354097
-2.8603087
-1.0027399
0.42816195
-5.0474471
4.0092099
-3.9240796
-0.31258103
7.8811754
-3.6030432
0.32079211
-1.4782598
-3.0684491
-3.7336113
3.5756974
11.162224
0.56515692
5.6183966
8.0244467
4.8102835
0.26364408
6.4570995
-7.376274
-4.3156938
-7.1128965
-0.3048366
5.7315144
2.876748
9.3947164
8.4039132
6.5865547
-2.6263796
-11.672469
8.0496923
-2.5610045
6.5543701
-1.6598093
-6.3380272
6.5421967
2.9984848
-7.2997082
-0.062695535
-6.4007227
-8.9617272
-0.51787741
8.6354821
-10.112419
8.9637521
5.9385679
1.5832642
-4.8488169
-0.87400663
4.7611699
0.038606025
10.979404
-1.2056464
-7.2223006
8.427947
-4.7099658
3.5887217
1.0370285
2.8909043
3.4399275
1.7910789
-5.4312218
-10.147795
-2.5232897
-2.0780966
-5.6714294
0.54542676
-3.0808364
6.333551
-2.7448293
3.7954993
5.6831177
7.1499492
-2.0698287
-5.1755888
6.4873315
-2.6918322
4.458117
)
;

boundaryField
{
    wall-4
    {
        type            calculated;
        value           uniform 0;
    }
    velocity-inlet-5
    {
        type            calculated;
        value           nonuniform List<scalar> 8(-1.7582594 -1.7582594 -7.3846893 -4.5714743 -7.3846893 -6.446951 -4.5714743 -6.446951);
    }
    velocity-inlet-6
    {
        type            calculated;
        value           uniform -5.6264299;
    }
    pressure-outlet-7
    {
        type            calculated;
        value           nonuniform List<scalar> 8(7.2938598 7.1671628 7.8357798 8.1862294 8.0688486 8.1370367 8.0452647 8.0942857);
    }
    wall-8
    {
        type            calculated;
        value           uniform 0;
    }
    frontAndBackPlanes
    {
        type            empty;
        value           nonuniform List<scalar> 0();
    }
}


// ************************************************************************* //
