/*--------------------------------*- C++ -*----------------------------------*\
  =========                 |
  \\      /  F ield         | OpenFOAM: The Open Source CFD Toolbox
   \\    /   O peration     | Website:  https://openfoam.org
    \\  /    A nd           | Version:  9
     \\/     M anipulation  |
\*---------------------------------------------------------------------------*/
FoamFile
{
    format      ascii;
    class       surfaceScalarField;
    location    "0.47";
    object      alphaPhi0.phase1;
}
// * * * * * * * * * * * * * * * * * * * * * * * * * * * * * * * * * * * * * //

dimensions      [0 3 -1 0 0 0 0];

internalField   nonuniform List<scalar> 
19800
(
9.1825923e-103
3.8910314e-103
9.9351775e-103
4.4504124e-103
1.9031859e-102
6.8677051e-103
1.8390565e-100
4.7796773e-101
2.2437826e-98
6.300891e-99
2.5198078e-96
7.8485521e-97
2.8035371e-94
9.577436e-95
3.5071224e-92
1.308797e-92
5.5073255e-90
2.2086216e-90
1.2285849e-87
5.210819e-88
5.5817776e-85
2.4533014e-85
1.6452362e-82
7.3089043e-83
8.7773842e-81
3.9568412e-81
1.0619152e-79
4.8025226e-80
5.4625695e-79
2.3758426e-79
1.974708e-78
7.6239051e-79
5.6483377e-78
1.814601e-78
1.3499457e-77
3.0453734e-78
5.0049663e-77
5.8620462e-78
4.0896163e-75
1.703257e-76
4.2404181e-73
-2.5866565e-76
4.3479528e-71
-4.3970069e-72
4.2939013e-69
-7.7053567e-70
4.1561096e-67
-9.400155e-68
3.9506425e-65
-1.0087528e-65
3.7072532e-63
-1.0099547e-63
3.4684929e-61
-9.6831048e-62
3.3735688e-59
-9.3591788e-60
3.6732301e-57
-9.9066146e-58
4.5006176e-55
-1.1537487e-55
6.2604094e-53
-1.5204198e-53
5.4265094e-51
-1.2853069e-51
1.3786317e-49
-3.3788994e-50
1.1521629e-48
-2.6284244e-49
3.8036249e-48
-6.2642821e-49
5.6342986e-48
-6.5213617e-49
2.7175085e-48
-3.144629e-49
1.0593146e-48
-5.8965942e-50
1.0116553e-48
-1.7959033e-49
1.0295212e-48
3.8708332e-53
1.604209e-47
3.0952474e-49
2.2975642e-46
8.894275e-48
2.5922494e-45
1.5837584e-46
2.3895009e-44
2.0779281e-45
1.7116686e-43
2.0074121e-44
9.4287734e-43
1.4437442e-43
4.1009836e-42
8.0156313e-43
1.4134427e-41
3.4923155e-42
3.7072671e-41
1.1567864e-41
5.6584137e-41
2.8898435e-41
4.7362827e-41
2.9275129e-41
1.5982099e-41
1.6294799e-41
2.9871987e-42
4.7629804e-42
4.7705941e-43
9.1468595e-43
6.9295521e-44
1.2728663e-43
8.0943118e-45
1.1327926e-44
6.4297924e-46
3.259708e-46
2.9512019e-47
-6.2650415e-47
1.4306013e-47
-6.067343e-48
1.2529846e-48
-1.3521351e-46
4.4063182e-47
-1.9306159e-46
3.9679316e-45
-1.1349174e-44
5.076946e-44
-5.9207198e-43
7.9522869e-44
-4.6249102e-42
1.7160875e-44
-8.85733e-43
1.6621729e-45
-5.5530369e-44
7.4352013e-47
-9.3601484e-46
4.3894482e-48
-3.6168322e-47
1.6962167e-49
-6.5563528e-48
2.084684e-51
-1.5038252e-49
1.2567105e-53
-9.503652e-52
4.5692481e-56
-2.655172e-54
5.9335057e-60
1.0587312e-60
4.5620405e-62
1.5180519e-61
3.0135134e-64
1.0163076e-63
1.962704e-66
9.7241478e-66
1.2442476e-68
8.0611951e-68
7.6194295e-71
6.0999169e-70
4.4905353e-73
4.2917594e-72
3.1183792e-75
2.8385973e-74
4.327269e-76
2.5869232e-76
2.9103483e-76
6.4767961e-77
1.7673806e-76
4.2842017e-77
5.8157273e-77
1.9266754e-77
1.6789154e-77
6.6810243e-78
4.9169131e-78
2.2375787e-78
1.0915969e-78
6.2914184e-79
1.452578e-79
1.3056327e-79
5.4758635e-81
1.232813e-80
2.8957009e-83
2.8411461e-82
3.5866971e-86
1.372409e-84
6.1414886e-89
3.5911346e-87
1.356373e-91
9.4242676e-90
2.6372608e-94
2.2450438e-92
5.1734766e-97
4.9241755e-95
1.3959911e-99
1.2399363e-97
1.0313446e-101
4.3444805e-100
4.1598135e-102
5.6137957e-102
2.1049361e-102
4.1670171e-102
3.9823373e-102
1.1297281e-102
3.5590083e-103
5.0693717e-101
1.7955959e-101
2.4786713e-100
1.0788036e-100
9.2982739e-100
4.0542598e-100
5.5424307e-98
2.0106765e-98
4.046799e-96
1.4024748e-96
4.0765221e-94
1.493368e-94
5.6580358e-92
2.4444112e-92
1.1316089e-89
5.9917535e-90
3.0213882e-87
1.8278201e-87
8.8374602e-85
4.7817204e-85
1.7592222e-82
7.5160902e-83
8.8272562e-81
3.761745e-81
1.0596974e-79
4.58633e-80
5.1013958e-79
2.125774e-79
1.6955225e-78
5.838754e-79
7.2428437e-78
1.8359815e-78
2.9100809e-76
6.4813177e-77
3.2655471e-74
2.4563651e-75
3.6948913e-72
-1.8094869e-73
4.153748e-70
-7.4818651e-71
4.4798417e-68
-1.2902468e-68
4.6363007e-66
-1.6839178e-66
4.6822257e-64
-1.9229288e-64
4.6431369e-62
-2.0243108e-62
4.5290867e-60
-2.0106955e-60
4.4173147e-58
-1.9450297e-58
4.4967571e-56
-1.9165077e-56
5.1567006e-54
-2.1021353e-54
6.7749505e-52
-2.6122231e-52
1.0122745e-49
-3.6645378e-50
8.9631432e-48
-3.0217362e-48
2.2820381e-46
-7.2396581e-47
1.5787607e-45
-5.4704402e-46
2.384266e-45
-1.0549139e-45
2.129057e-46
-2.463951e-46
2.6650348e-48
-6.006808e-48
2.0998332e-48
-3.9022572e-49
1.0623972e-47
-6.0995409e-49
2.7422107e-46
-1.4416747e-48
3.9329921e-45
1.7976364e-46
4.7435651e-44
4.7846183e-45
4.8563121e-43
7.9008149e-44
4.0189008e-42
9.4678341e-43
2.4314306e-41
7.8994033e-42
9.6921076e-41
4.2946986e-41
2.507299e-40
1.4972961e-40
4.7252748e-40
3.6404198e-40
7.7247432e-40
7.3811408e-40
9.1834362e-40
1.3039506e-39
7.4501757e-40
1.2852416e-39
3.4949446e-40
8.6627847e-40
1.1828251e-40
3.8937647e-40
3.6446823e-41
1.342242e-40
8.777778e-42
3.1728294e-41
1.3484344e-42
3.5469186e-42
1.1688583e-43
-3.2743012e-44
5.9675261e-45
-4.00289e-44
3.3104765e-46
-3.1733292e-45
2.581988e-46
-3.2486654e-46
6.725246e-44
-7.4417937e-44
5.3188104e-42
-5.8059565e-42
5.3005933e-41
-5.7330952e-41
5.0025295e-41
-5.0940069e-41
1.8699679e-41
-2.611718e-41
2.0731123e-42
-5.3795301e-42
9.9189334e-44
-3.8559288e-43
5.4322958e-45
-1.6484772e-44
2.2166939e-46
-7.7319778e-45
3.0070249e-48
-2.0843134e-46
2.0333675e-50
-1.5166117e-48
8.7866185e-53
-5.3311563e-51
1.4782453e-55
-6.1304912e-54
7.8488536e-59
4.424876e-58
6.9078134e-61
4.0974335e-60
3.6961754e-63
4.3331252e-62
2.362552e-65
3.8002369e-64
1.4580054e-67
2.9900386e-66
8.6037028e-70
2.162177e-68
4.833784e-72
1.4519264e-70
2.9025385e-74
9.0993957e-73
1.5218653e-75
6.6266405e-75
4.6077093e-76
5.8873843e-76
9.0336436e-77
1.1286582e-76
1.9438876e-77
1.8952116e-77
5.5077897e-78
4.8546843e-78
1.115887e-78
1.1246863e-78
1.3597352e-79
1.9505278e-79
5.1345595e-81
1.7250629e-80
3.314983e-83
4.4740449e-82
6.5187943e-86
3.555933e-84
1.3758303e-88
1.4869696e-86
2.6430879e-91
4.1823362e-89
4.9831502e-94
8.8203485e-92
1.9238033e-96
2.5005648e-94
1.8822369e-98
1.5733544e-96
1.4320724e-99
2.0601196e-98
2.092848e-100
2.8713914e-99
8.6763688e-102
3.4717106e-100
6.8949757e-102
7.414129e-100
1.9488133e-100
7.9192138e-98
1.6208895e-98
4.2914171e-96
1.152918e-96
2.8574612e-95
1.1165483e-95
9.9831811e-95
4.6167142e-95
1.3134514e-93
6.3147371e-94
1.3820147e-91
7.4027555e-92
3.1341891e-89
1.9147576e-89
1.6279504e-86
1.1129714e-86
9.8545502e-84
7.4503923e-84
1.0201091e-81
8.4780277e-82
1.6416233e-80
1.5209458e-80
1.0148568e-79
9.1570998e-80
1.0436657e-78
8.3215545e-79
2.141118e-77
1.5598251e-77
1.7848269e-76
1.0559984e-76
1.8493065e-75
6.9260723e-76
1.9056764e-73
3.0392067e-74
2.2958294e-71
-1.2818152e-72
2.7354453e-69
-6.2798897e-70
3.1214821e-67
-1.1643552e-67
3.4112684e-65
-1.657963e-65
3.6319533e-63
-2.0557771e-63
3.7604747e-61
-2.2923625e-61
3.803603e-59
-2.3889782e-59
3.7920773e-57
-2.3807368e-57
3.7936345e-55
-2.3300978e-55
4.0039144e-53
-2.3581516e-53
4.8255274e-51
-2.6966794e-51
6.8222244e-49
-3.5843335e-49
1.0789484e-46
-5.2886115e-47
9.1721762e-45
-4.1776566e-45
2.0965444e-43
-8.9300849e-44
1.5527793e-42
-7.0290993e-43
2.5449136e-42
-1.5122563e-42
1.9878644e-43
-3.2324631e-43
1.9587942e-45
-8.7428149e-45
1.2925389e-45
-3.3913547e-46
1.932848e-45
-2.2096108e-46
5.7836387e-44
-9.0581813e-46
7.8627445e-43
3.9540976e-44
9.0196189e-42
1.0822932e-42
8.8298832e-41
1.7558541e-41
7.0456189e-40
2.0457351e-40
4.1782979e-39
1.688337e-39
1.6626809e-38
9.2532705e-39
4.3201746e-38
3.284338e-38
8.0568673e-38
8.1097974e-38
1.2781703e-37
1.6426735e-37
1.4984239e-37
2.9820385e-37
1.1522742e-37
2.9384527e-37
4.919691e-38
1.9403016e-37
1.4684413e-38
8.5487963e-38
3.8171903e-39
2.8603129e-38
7.7808406e-40
6.4109038e-39
1.1396746e-40
6.2763805e-40
1.1639118e-41
-3.5178232e-41
7.8833215e-43
-1.2283326e-41
1.5533487e-43
-9.6588945e-43
2.0380221e-43
-4.1366788e-43
5.8427807e-41
-7.0045168e-41
4.159687e-39
-4.8533163e-39
3.9324639e-38
-5.7962744e-38
3.4840908e-38
-5.1176368e-38
1.3509066e-38
-2.5929753e-38
1.5788182e-39
-5.4328451e-39
7.1571901e-41
-4.0037343e-40
4.1180825e-42
-1.5934043e-41
1.770323e-43
-5.6799192e-42
2.6221655e-45
-1.7307759e-43
1.9626221e-47
-1.4095848e-45
9.454459e-50
-5.6989647e-48
2.3707564e-52
-9.9072565e-51
8.7565727e-56
4.3505183e-55
7.4389271e-58
5.3040587e-57
4.3948973e-60
6.021297e-59
2.8600404e-62
5.5170291e-61
1.7900425e-64
4.4801082e-63
1.0673809e-66
3.3207026e-65
6.0312522e-69
2.2712615e-67
3.3719467e-71
1.4405075e-69
8.8950479e-73
9.3386837e-72
2.2195565e-73
4.6814644e-73
3.2925045e-74
8.4566905e-74
4.1346241e-75
1.0960809e-74
8.166142e-76
2.1419921e-75
9.9469253e-77
3.5281364e-76
7.12414e-78
3.8166443e-77
3.9178337e-79
2.9794857e-78
1.3991978e-80
1.7884811e-79
1.3972928e-82
4.7403468e-81
3.548524e-85
3.8090263e-83
7.1972806e-88
1.4362416e-85
1.8841124e-90
4.6514091e-88
9.0330388e-93
1.5094586e-90
2.8193545e-94
1.202009e-92
2.0158651e-95
5.5237081e-94
6.9390336e-97
3.7886503e-95
1.9846164e-99
5.4163331e-97
1.0666395e-98
2.5260751e-97
-7.7422502e-99
2.7190861e-95
2.3467753e-96
3.7110918e-93
5.5151729e-94
2.9319328e-91
7.1165641e-92
3.0354146e-90
1.2009183e-90
7.988296e-90
4.0341171e-90
1.2130241e-88
6.1574006e-89
2.5330112e-86
1.4602059e-86
1.1698437e-83
7.8075465e-84
6.2924219e-81
4.7551537e-81
6.2679876e-79
5.3310899e-79
1.1422095e-77
1.0773578e-77
1.1147975e-76
1.0655388e-76
3.3852882e-75
3.0831005e-75
3.8630909e-74
3.4772735e-74
1.3986897e-73
1.02046e-73
8.4047835e-73
3.3390101e-73
9.8858518e-71
8.8858261e-72
1.1865653e-68
-2.2953612e-69
1.4183857e-66
-6.2989659e-67
1.6513391e-64
-1.0471102e-64
1.8676512e-62
-1.4326828e-62
2.0448708e-60
-1.7363891e-60
2.1790872e-58
-1.9293994e-58
2.2753177e-56
-2.0204525e-56
2.3397382e-54
-2.0293654e-54
2.4179312e-52
-2.0125069e-52
2.6632796e-50
-2.0955986e-50
3.3748633e-48
-2.4888621e-48
5.1042792e-46
-3.5034309e-46
8.4352273e-44
-5.3500513e-44
6.9334182e-42
-4.0677747e-42
1.4652757e-40
-7.9854944e-41
1.1865718e-39
-6.6929414e-40
2.128245e-39
-1.6147796e-39
1.5282375e-40
-3.2930794e-40
1.516643e-42
-1.0546671e-41
4.0608427e-43
-2.5685659e-43
4.1064226e-43
-8.045252e-44
9.7654325e-42
-2.6974969e-43
1.2035629e-40
5.9964033e-42
1.3067472e-39
1.7802682e-40
1.2231989e-38
2.8444602e-39
9.3801277e-38
3.2400948e-38
5.4194889e-37
2.6352313e-37
2.1316819e-36
1.4425461e-36
5.5033142e-36
5.1600248e-36
1.0080558e-35
1.2810787e-35
1.5427714e-35
2.5726142e-35
1.7481318e-35
4.7383712e-35
1.2409473e-35
4.6707106e-35
4.5560349e-36
3.0526506e-35
1.0423197e-36
1.3336792e-35
1.4175402e-37
4.4264336e-36
1.2107718e-39
9.5877916e-37
-2.5752701e-40
8.1543918e-38
3.251089e-40
-8.4607398e-39
5.5250992e-41
-2.3454676e-39
2.823551e-41
-1.8623488e-40
1.9642261e-40
-4.1854635e-40
3.394754e-38
-4.9167149e-38
2.2301581e-36
-2.8119373e-36
2.0255541e-35
-4.0224762e-35
1.7085198e-35
-3.391919e-35
6.8910043e-36
-1.7052574e-35
8.5297002e-37
-3.6438263e-36
3.6795607e-38
-2.7646618e-37
2.2335459e-39
-1.026831e-38
1.0050576e-40
-2.9153671e-39
1.6194254e-42
-9.9966216e-41
1.3284039e-44
-8.9853114e-43
7.0061914e-47
-4.0227111e-45
1.9748517e-49
-7.9991224e-48
7.3142478e-53
3.5513697e-52
6.2419939e-55
5.1522677e-54
3.9042675e-57
6.1708393e-56
2.6005399e-59
5.8642971e-58
1.6583727e-61
4.9050368e-60
1.0033384e-63
3.7219455e-62
5.7246836e-66
2.5943156e-64
3.1238487e-68
1.6676056e-66
4.5822716e-70
1.0302058e-68
8.9799875e-71
2.7304019e-70
1.4819653e-71
4.6367415e-71
2.2014928e-72
6.6752226e-72
4.7825047e-73
1.4380467e-72
6.8557763e-74
2.6588378e-73
6.4744568e-75
3.6591064e-74
3.5644961e-76
3.3060907e-75
9.7726994e-78
1.7724195e-76
8.9488625e-80
4.1466434e-78
3.1407721e-82
3.6353685e-80
1.1479027e-84
1.9198338e-82
6.2217005e-87
1.0700293e-84
4.7054188e-89
6.9457681e-87
9.784658e-91
6.9761349e-89
2.6916227e-92
2.2578389e-90
1.3365282e-94
3.5103081e-92
4.5467315e-97
2.649261e-94
4.1356681e-96
6.9335153e-95
-2.4416168e-95
8.8040402e-93
-2.8508191e-94
1.0618623e-90
4.5347947e-92
1.1835121e-88
1.7523452e-89
8.1908756e-87
2.051067e-87
1.1143155e-85
4.4015662e-86
4.6193663e-85
2.3335143e-85
2.0802518e-83
1.1464931e-83
6.4377097e-81
4.1948976e-81
2.9605641e-78
2.2537956e-78
3.0332471e-76
2.6857139e-76
5.9390963e-75
6.0638339e-75
6.1641422e-74
6.6860667e-74
1.5546562e-72
1.7066771e-72
1.470315e-71
1.7087972e-71
4.7471021e-71
4.5715073e-71
3.1324255e-70
1.5782775e-70
3.7050986e-68
2.4046208e-69
4.4499337e-66
-1.6927643e-66
5.3941035e-64
-4.2217603e-64
6.5088473e-62
-6.9187506e-62
7.6834829e-60
-9.4094841e-60
8.7750037e-58
-1.135745e-57
9.7750769e-56
-1.2696547e-55
1.061989e-53
-1.3377079e-53
1.1350772e-51
-1.3563795e-51
1.2227114e-49
-1.3672496e-49
1.4099448e-47
-1.4606815e-47
1.8789464e-45
-1.7923766e-45
3.0079037e-43
-2.6305677e-43
5.1081802e-41
-4.0818824e-41
4.0847027e-39
-2.9957507e-39
8.207167e-38
-5.5446974e-38
7.3268812e-37
-4.9893518e-37
1.4385829e-36
-1.343742e-36
1.0252357e-37
-2.7387248e-37
1.135453e-39
-1.0217537e-38
1.1482476e-40
-1.9099884e-40
1.1167981e-40
-2.8359803e-41
1.4331759e-39
-6.5037698e-41
1.4920345e-38
7.1851864e-40
1.5014365e-37
2.2335073e-38
1.3391039e-36
3.509398e-37
9.8427851e-36
3.8881556e-36
5.5262161e-35
3.1133646e-35
2.1413954e-34
1.7003019e-34
5.4618528e-34
6.1274848e-34
9.7670098e-34
1.5291178e-33
1.426177e-33
3.0479024e-33
1.5238224e-33
5.6574438e-33
9.4935544e-34
5.5827664e-33
2.4811772e-34
3.634666e-33
1.0113383e-36
1.5870012e-33
-2.7035429e-35
5.2412766e-34
-1.0676583e-35
1.1203564e-34
-1.7268053e-36
9.0045428e-36
-1.207135e-37
-1.2591049e-36
-2.0472428e-39
-3.2945461e-37
1.1882853e-39
-2.6558049e-38
8.7794611e-38
-3.1321874e-37
1.3402816e-35
-3.0528698e-35
8.5573575e-34
-1.5071218e-33
7.6447449e-33
-2.014681e-32
6.2558127e-33
-1.627646e-32
2.6459203e-33
-8.1426259e-33
3.4891392e-34
-1.7786742e-33
1.4405116e-35
-1.3919253e-34
9.2192113e-37
-4.8299407e-36
4.3514642e-38
-1.1165311e-36
7.5843638e-40
-4.3222385e-38
6.7977866e-42
-4.2516513e-40
3.8882686e-44
-2.0722156e-42
1.1627206e-46
-4.4084953e-45
4.9260915e-50
2.7281004e-49
4.2971706e-52
4.0903084e-51
2.8195743e-54
5.0759542e-53
1.9328304e-56
4.9940796e-55
1.2620383e-58
4.3027627e-57
7.7772066e-61
3.3496862e-59
4.4948884e-63
2.3827532e-61
2.4400345e-65
1.5550391e-63
2.1707367e-67
9.4602667e-66
2.5362782e-68
1.3385919e-67
4.5420506e-69
1.7370931e-68
8.8538296e-70
2.8785243e-69
2.1598513e-70
7.1552964e-70
3.3242364e-71
1.4410643e-70
3.560584e-72
2.2415333e-71
1.9751801e-73
2.1754866e-72
4.8527433e-75
1.1266482e-73
4.2793471e-77
2.5073282e-75
1.8089007e-79
2.3212679e-77
8.6625284e-82
1.519896e-79
4.989094e-84
9.7900358e-82
4.4417682e-86
6.7421126e-84
7.1018882e-88
9.15984e-86
7.5420792e-90
1.5121967e-87
2.7706996e-92
1.4366145e-89
8.4272504e-95
9.1184339e-92
1.1962336e-93
1.570356e-92
-1.0338046e-92
2.2793222e-90
-3.6781204e-91
2.9337076e-88
-1.747361e-89
2.9243229e-86
2.0059473e-87
2.7167003e-84
4.7459019e-85
1.384221e-82
4.0717211e-83
2.1713592e-81
9.4342709e-82
1.7148923e-80
9.4684264e-81
2.98995e-78
1.9284983e-78
1.1388485e-75
8.9129054e-76
1.1732477e-73
1.1093074e-73
2.4001687e-72
2.7307304e-72
2.6965957e-71
3.4812993e-71
5.7407443e-70
8.3249747e-70
3.9681738e-69
6.8408105e-69
1.0491089e-68
1.6663347e-68
8.1091641e-68
7.9778106e-68
8.8362892e-66
1.5360735e-66
1.0320618e-63
-8.2867615e-64
1.2940575e-61
-2.1480417e-61
1.6779282e-59
-3.5815284e-59
2.1796584e-57
-4.9493546e-57
2.7502494e-55
-6.0544024e-55
3.3286846e-53
-6.8319118e-53
3.8775858e-51
-7.257159e-51
4.3900225e-49
-7.4313842e-49
5.0007565e-47
-7.6207462e-47
6.0840034e-45
-8.331864e-45
8.5123537e-43
-1.0475205e-42
1.4269904e-40
-1.5784522e-40
2.4678845e-38
-2.4536122e-38
1.9214798e-36
-1.7351547e-36
3.7427703e-35
-3.0766078e-35
3.6891358e-34
-2.9801089e-34
7.891562e-34
-8.8603161e-34
5.917186e-35
-1.8582354e-34
7.6126007e-37
-7.9222e-36
3.2039212e-38
-1.3889746e-37
2.8122334e-38
-9.0537764e-39
1.9604152e-37
-1.3758007e-38
1.576987e-36
6.6204863e-38
1.4091972e-35
2.2043497e-36
1.1967836e-34
3.4117295e-35
8.3880163e-34
3.6774189e-34
4.5576817e-33
2.8914269e-33
1.7331442e-32
1.5726041e-32
4.346988e-32
5.6956795e-32
7.5432748e-32
1.4260679e-31
1.0376969e-31
2.8248886e-31
1.0061054e-31
5.260227e-31
4.8151322e-32
5.2024536e-31
4.8957672e-34
3.3805824e-31
-9.260169e-33
1.4822979e-31
-6.0242588e-33
4.9171355e-32
-1.9016215e-33
1.0517916e-32
-3.063337e-34
8.1935235e-34
-2.5702914e-35
-1.3452825e-34
-9.2965486e-37
-3.5296424e-35
-4.6006136e-37
-3.9218954e-36
1.3561074e-35
-1.7963947e-34
3.5729622e-33
-1.4246187e-32
2.4354469e-31
-6.193188e-31
2.2057145e-30
-7.6499318e-30
1.7844794e-30
-5.9382754e-30
7.9746152e-31
-2.9639059e-30
1.1270319e-31
-6.636828e-31
4.7892805e-33
-5.3684736e-32
3.0142336e-34
-1.8715362e-33
1.4886402e-35
-3.3022377e-34
2.8026677e-37
-1.4525871e-35
2.7378415e-39
-1.5575796e-37
1.6899731e-41
-8.1634733e-40
5.0871615e-44
-1.7547945e-42
2.7558247e-47
1.9288767e-46
2.480422e-49
2.7180369e-48
1.7047731e-51
3.4667111e-50
1.2082812e-53
3.5223838e-52
8.1104511e-56
3.1308727e-54
5.1080648e-58
2.5040635e-56
2.9986316e-60
1.8218546e-58
1.6353053e-62
1.209197e-60
1.0761978e-64
7.3711892e-63
6.0439697e-66
6.6707333e-65
1.1357278e-66
5.2374043e-66
2.8568666e-67
9.9083793e-67
7.6507449e-68
2.7938924e-67
1.2060962e-68
5.9227436e-68
1.4206452e-69
1.001158e-68
8.1698958e-71
1.0449722e-69
1.8096074e-72
5.2764499e-71
1.5022366e-74
1.1055211e-72
7.2348847e-77
1.0722335e-74
3.4898581e-79
7.6602672e-77
1.8065819e-81
4.371919e-79
2.0690881e-83
3.4093199e-81
2.8860628e-85
5.4755318e-83
1.4098486e-87
5.5431476e-85
4.6137012e-90
4.0415055e-87
1.0438266e-92
2.345936e-89
2.7279152e-91
3.0289061e-90
-2.8823534e-90
4.789697e-88
-1.3366974e-88
6.5377955e-86
-1.0279718e-86
6.7693723e-84
-5.3951637e-86
6.493575e-82
7.206543e-83
5.7084361e-80
1.3556138e-80
1.587534e-78
6.1229324e-79
1.355391e-77
7.1484055e-78
1.0707767e-75
6.8963602e-76
3.3950728e-73
2.7564458e-73
3.3805833e-71
3.4563923e-71
7.5268975e-70
9.6999858e-70
1.0040283e-68
1.6019042e-68
1.7200509e-67
3.534583e-67
7.9096083e-67
2.3749758e-66
1.3533119e-66
5.4086461e-66
7.9166669e-66
3.9881729e-65
3.5372964e-65
1.498844e-63
-4.8115918e-62
-2.7202297e-61
-4.0992944e-60
-8.6749364e-59
5.4367508e-58
-1.5407245e-56
2.2981888e-55
-2.1856851e-54
4.7600787e-53
-2.7227109e-52
7.5680274e-51
-3.0969983e-50
1.0397035e-48
-3.3232476e-48
1.3232505e-46
-3.4440721e-46
1.6437424e-44
-3.5861358e-44
2.1462458e-42
-3.9932868e-42
3.1699127e-40
-5.0974363e-40
5.5369919e-38
-7.7656947e-38
9.6627506e-36
-1.1914526e-35
7.3516233e-34
-8.1002269e-34
1.4023918e-32
-1.3860516e-32
1.5206607e-31
-1.4421756e-31
3.5142434e-31
-4.6666373e-31
2.8570675e-32
-1.0234411e-31
4.2741753e-34
-4.8798575e-33
9.4004481e-36
-9.0188849e-35
6.6026109e-36
-4.9942444e-36
2.6244125e-35
-2.8395073e-36
1.5015548e-34
4.7202767e-36
1.098712e-33
1.7546166e-34
8.8675579e-33
2.6809055e-33
5.9087299e-32
2.8055508e-32
3.092812e-31
2.1581226e-31
1.1471146e-30
1.1660395e-30
2.8001458e-30
4.2079623e-30
4.6262059e-30
1.0451569e-29
5.8660153e-30
2.0317754e-29
4.9018688e-30
3.7799082e-29
1.1509073e-30
3.7545264e-29
-1.1604709e-30
2.4415164e-29
-1.2702917e-30
1.0905855e-29
-6.8041967e-31
3.692944e-30
-2.0423428e-31
8.0036964e-31
-3.3591106e-32
6.2293375e-32
-2.9627495e-33
-1.1065907e-32
-2.7796591e-34
-2.9993281e-33
-3.7830782e-34
-9.0960509e-34
-8.9056019e-33
-8.0304708e-32
5.415208e-31
-5.165601e-30
5.1502425e-29
-1.9808626e-28
4.9666176e-28
-2.2667655e-27
4.0599613e-28
-1.6948001e-27
1.9324848e-28
-8.4652149e-28
2.9455142e-29
-1.9491876e-28
1.3323406e-30
-1.6337871e-29
7.9776778e-32
-5.9130625e-31
4.1232935e-33
-7.6678792e-32
8.3813109e-35
-3.8830538e-33
8.8703695e-37
-4.5181171e-35
5.8693484e-39
-2.5071723e-37
1.662438e-41
-5.0473625e-40
1.3086566e-44
1.1957535e-43
1.2219583e-46
1.5386771e-45
8.8057814e-49
2.0059825e-47
6.4781222e-51
2.106295e-49
4.4839069e-53
1.9333836e-51
2.8924815e-55
1.5915371e-53
1.7272603e-57
1.185561e-55
9.4947892e-60
8.0124485e-58
5.358054e-62
4.9209622e-60
1.3366506e-63
3.424494e-62
2.5010532e-64
1.3764346e-63
7.5091296e-65
2.8305695e-64
2.1709856e-65
8.7690209e-65
3.55546e-66
1.9598655e-65
4.545123e-67
3.5831864e-66
2.6485056e-68
3.957612e-67
5.1417867e-70
1.904353e-68
4.0758216e-72
3.7386707e-70
2.1006604e-74
3.8322156e-72
9.0525881e-77
2.500536e-74
6.9321088e-79
1.5314999e-76
8.4204084e-81
1.9112809e-78
4.7717038e-83
1.8309884e-80
1.9819125e-85
1.3354104e-82
6.0875665e-88
8.7855851e-85
3.9627057e-91
4.8124956e-87
5.0968962e-89
5.086974e-88
-6.2516957e-88
8.5783606e-86
-3.3246089e-86
1.2253668e-83
-2.9990965e-84
1.3520031e-81
-1.1523003e-82
1.2201958e-79
6.5858341e-81
9.9457739e-78
1.8698571e-78
6.2303447e-76
2.0584538e-76
1.7828613e-74
8.821377e-75
2.9462762e-73
1.9485668e-73
7.7621584e-71
6.5055415e-71
8.3115112e-69
9.1612879e-69
2.1149801e-67
3.1100479e-67
2.9508914e-66
5.9137998e-66
3.5955913e-65
1.1145102e-64
9.806098e-65
6.7361188e-64
-1.2263798e-65
1.558586e-63
-6.1193905e-63
1.8731408e-62
-1.3142827e-60
1.0921125e-60
-2.0096776e-58
-4.0166031e-59
-2.445558e-56
-2.7415362e-56
-2.452976e-54
-5.4830939e-54
-1.9593064e-52
-8.2125517e-52
-1.03522e-50
-1.0546462e-49
1.3702547e-49
-1.2209785e-47
1.4210817e-46
-1.3204704e-45
2.71747e-44
-1.3734229e-43
4.1366588e-42
-1.4520234e-41
6.0700498e-40
-1.6360297e-39
9.63718e-38
-2.0972876e-37
1.7568736e-35
-3.1820486e-35
3.0894056e-33
-4.7580664e-33
2.2946969e-31
-3.0869068e-31
4.3366011e-30
-5.1275568e-30
5.1431524e-29
-5.6940872e-29
1.2756488e-28
-1.9801436e-28
1.1292843e-29
-4.5543103e-29
1.9418739e-31
-2.3836003e-30
3.0607378e-33
-4.8439317e-32
1.5689857e-33
-6.4724869e-34
3.2280501e-33
-5.6097507e-34
1.3573265e-32
2.0258424e-34
7.2598453e-32
1.1591416e-32
5.4696398e-31
1.7135334e-31
3.4712388e-30
1.7468943e-30
1.7311673e-29
1.3060426e-29
6.2094918e-29
6.9308032e-29
1.4573487e-28
2.4738868e-28
2.252828e-28
6.0056165e-28
2.5468574e-28
1.1260909e-27
1.6905987e-28
2.0912402e-27
-3.5084064e-29
2.0945298e-27
-1.2181957e-28
1.3706811e-27
-1.0257418e-28
6.3019049e-28
-5.2248562e-29
2.2121624e-28
-1.5575685e-29
4.9059885e-29
-2.6534944e-30
3.9703211e-30
-2.086366e-31
-7.0319268e-31
-7.4984909e-32
-1.9987303e-31
-2.0148252e-31
-3.0411622e-31
-7.5914649e-30
-2.749548e-29
-3.2565104e-29
-1.501844e-27
7.8429664e-27
-5.0180765e-26
8.8468399e-26
-5.3345373e-25
7.4585205e-26
-3.849491e-25
3.8278378e-26
-1.9312946e-25
6.332747e-27
-4.5892691e-26
3.0630411e-28
-4.0002072e-27
1.7305651e-29
-1.5054015e-28
9.3690831e-31
-1.4029086e-29
2.057125e-32
-8.3480592e-31
2.3388812e-34
-1.0493609e-32
1.6359855e-36
-6.0258961e-35
3.8493617e-39
-9.8342225e-38
5.3353825e-42
6.0025308e-41
5.1891119e-44
7.4738378e-43
3.9268277e-46
9.947961e-45
3.0082565e-48
1.0804428e-46
2.15206e-50
1.0259019e-48
1.4239509e-52
8.7037641e-51
8.6537647e-55
6.644636e-53
4.7984002e-57
4.5735756e-55
2.5270814e-59
2.8360018e-57
3.0503007e-61
1.7361857e-59
4.9246856e-62
3.4079043e-61
1.659574e-62
6.9244832e-62
5.1541981e-63
2.3185722e-62
8.6437259e-64
5.387171e-63
1.1814563e-64
1.0528456e-63
6.8493947e-66
1.2043564e-64
1.2277762e-67
5.6368866e-66
9.4123454e-70
1.0790376e-67
4.6167803e-72
1.0830249e-69
2.3143074e-74
6.5863317e-72
2.23069e-76
6.1616249e-74
1.500967e-78
5.9820089e-76
5.9956309e-81
4.0720249e-78
2.2671992e-83
2.5533801e-80
5.3712047e-86
1.5624317e-82
-1.1110438e-88
8.16275e-85
8.0760425e-87
7.5917936e-86
-1.1287144e-85
1.3448397e-83
-6.5027469e-84
1.9859021e-81
-6.4739877e-82
2.27797e-79
-3.4343046e-80
2.1629594e-77
7.7087835e-81
1.8378004e-75
2.6512606e-76
1.3850379e-73
4.0969438e-74
5.1890124e-72
2.4361391e-72
9.0152296e-71
5.9390065e-71
1.3147509e-68
1.1367719e-68
1.6860299e-66
1.9836348e-66
5.3906832e-65
8.9134082e-65
7.5828687e-64
1.8926348e-63
6.1775033e-63
2.9848959e-62
4.1568304e-63
1.6424283e-61
-5.0274691e-62
4.0337964e-61
-4.5494567e-60
7.7218413e-60
-8.4304822e-58
6.0301117e-58
-1.2471603e-55
1.553701e-56
-1.5801678e-53
-6.0834299e-54
-1.7348093e-51
-1.5918819e-51
-1.658741e-49
-2.6137368e-49
-1.3716885e-47
-3.5148776e-47
-9.3213376e-46
-4.1919969e-45
-4.1885267e-44
-4.6229571e-43
1.000957e-42
-4.8810449e-41
6.2919421e-40
-5.1471831e-39
1.2766681e-37
-5.8092421e-37
2.324142e-35
-7.3765331e-35
4.5171689e-33
-1.0978192e-32
8.0532831e-31
-1.579328e-30
5.8614168e-29
-9.7003991e-29
1.1069573e-27
-1.5671611e-27
1.4277584e-26
-1.8424038e-26
3.7797499e-26
-6.8054171e-26
3.6108136e-27
-1.6329441e-26
7.0336517e-29
-9.2394775e-28
1.3887574e-30
-2.070094e-29
1.9019787e-31
-3.2039607e-31
4.5160042e-31
-1.0088202e-31
1.2085579e-30
-1.2369903e-32
4.2310908e-30
6.7012058e-31
2.7780308e-29
8.8211062e-30
1.6975033e-28
8.8698015e-29
8.0363591e-28
6.4017995e-28
2.7869123e-27
3.3428159e-27
6.4271579e-27
1.2009387e-26
9.5381419e-27
2.9449789e-26
9.62532e-27
5.4073697e-26
4.1802439e-27
1.0001266e-25
-5.1955551e-27
1.0063991e-25
-8.2866298e-27
6.7502299e-26
-6.2711529e-27
3.1736643e-26
-3.0508137e-27
1.1185845e-26
-9.0373487e-28
2.4775155e-27
-1.6001704e-28
2.0714683e-28
-1.3704967e-29
-3.6041637e-29
-6.8356851e-30
-1.094832e-29
-7.6765277e-29
-9.3003191e-29
-2.968658e-27
-7.2690847e-27
-6.6486226e-26
-3.4581448e-25
7.5920538e-25
-1.0168079e-23
1.2523316e-23
-1.0079145e-22
1.1219327e-23
-7.0349477e-23
6.2636796e-24
-3.5562224e-23
1.1325808e-24
-8.7621572e-24
5.8861888e-26
-7.9782716e-25
3.0916321e-27
-3.1255378e-26
1.7552878e-28
-1.9947327e-27
4.172586e-30
-1.4460225e-28
5.0426023e-32
-1.957806e-30
3.6297103e-34
-1.1247484e-32
4.8691696e-37
-9.9611212e-36
1.8713196e-39
1.5002051e-38
1.9068031e-41
3.1146251e-40
1.5120835e-43
4.2335895e-42
1.2100325e-45
4.7646288e-44
8.9575137e-48
4.6860621e-46
6.0828258e-50
4.0999458e-48
3.7607226e-52
3.2095258e-50
2.101282e-54
2.2488404e-52
1.073278e-56
1.4074872e-54
7.7750191e-59
8.1479504e-57
8.7774376e-60
8.7131811e-59
3.1740814e-60
1.4910201e-59
1.0473286e-60
5.2976447e-60
1.8124296e-61
1.2741895e-60
2.6877118e-62
2.7003796e-61
1.5048297e-63
3.1648364e-62
2.443629e-65
1.4189751e-63
1.761959e-67
2.6582944e-65
7.8555944e-70
2.315624e-67
5.5622286e-72
1.7359604e-69
4.7170811e-74
1.869043e-71
1.7550894e-76
1.3042233e-73
5.8456436e-79
7.0843187e-76
1.7910213e-81
4.0763549e-78
1.0511171e-84
2.3440935e-80
-3.7725661e-86
1.1796443e-82
1.1064717e-84
1.0185492e-83
-1.7543873e-83
1.8787547e-81
-1.069061e-81
2.8416215e-79
-1.1326504e-79
3.3725448e-77
-7.0931015e-78
3.3425527e-75
-1.6750188e-76
2.8615026e-73
2.9838939e-74
2.1897893e-71
5.7593355e-72
1.2797248e-69
5.6473688e-70
4.5325533e-68
2.9394278e-68
1.7503987e-66
1.5617771e-66
2.7993362e-64
3.4476437e-64
1.2953038e-62
2.3412985e-62
2.0143221e-61
6.0446545e-61
9.9100814e-61
7.5856677e-60
-1.1596186e-60
3.5217227e-59
-1.8062252e-59
9.2207618e-59
-1.8548187e-57
2.6735077e-57
-3.4905783e-55
2.5843287e-55
-5.2580831e-53
1.5405452e-53
-6.8610476e-51
-5.3824627e-52
-7.9067718e-49
-3.5479206e-49
-8.0569154e-47
-6.9070207e-47
-7.3285225e-45
-9.9795661e-45
-5.9346506e-43
-1.241224e-42
-4.1763792e-41
-1.410684e-40
-2.3303024e-39
-1.5263115e-38
-5.5568879e-38
-1.6374924e-36
1.3747953e-35
-1.8265536e-34
4.0564459e-33
-2.2366539e-32
9.1281934e-31
-3.2134633e-30
1.6932317e-28
-4.3850322e-28
1.2189372e-26
-2.519219e-26
2.3246581e-25
-3.9617965e-25
3.2544053e-24
-4.9126775e-24
9.1513783e-24
-1.914299e-23
9.3345208e-25
-4.7826901e-24
2.0242242e-26
-2.9181969e-25
1.187556e-27
-6.9712472e-27
2.6003524e-29
-9.5946511e-28
5.5321404e-29
-1.5797797e-29
1.0719325e-28
-5.2888863e-30
2.3374139e-28
3.6426444e-29
1.1476038e-27
3.6814248e-28
6.8054366e-27
3.601127e-27
3.1277365e-26
2.5706978e-26
1.0845901e-25
1.3592302e-25
2.6144009e-25
5.1597647e-25
4.148379e-25
1.3971493e-24
4.0939049e-25
2.862809e-24
5.9160179e-26
5.1922524e-24
-4.1680002e-25
5.1541223e-24
-5.259124e-25
3.5677077e-24
-3.4958284e-25
1.6520236e-24
-1.5200721e-25
5.3601321e-25
-4.2920902e-26
1.1050065e-25
-7.6597878e-27
9.2198373e-27
-6.9608919e-28
-1.5484659e-27
-8.2989367e-28
-6.0906406e-28
-2.1432578e-26
-2.2582636e-26
-7.6355155e-25
-1.5004561e-24
-2.023698e-23
-6.285379e-23
1.765807e-23
-1.6747984e-21
1.4127219e-21
-1.5659944e-20
1.3950322e-21
-1.0550843e-20
8.5398615e-22
-5.3894809e-21
1.6986873e-22
-1.3740354e-21
9.5208847e-24
-1.3061695e-22
4.5362487e-25
-5.3315487e-24
2.7068504e-26
-2.108461e-25
7.0127297e-28
-2.0018728e-26
8.8939244e-30
-2.920212e-28
6.2147072e-32
-1.5914158e-30
5.1204762e-35
6.0559005e-35
6.2192966e-37
5.795679e-36
5.6119177e-39
1.1199526e-37
5.0669449e-41
1.5592935e-39
4.2389095e-43
1.8205284e-41
3.2477844e-45
1.8555255e-43
2.2615102e-47
1.6742801e-45
1.4198006e-49
1.3426878e-47
7.9722454e-52
9.562187e-50
4.001059e-54
6.0278613e-52
2.174684e-56
3.4004901e-54
1.4505108e-57
2.426348e-56
5.5121137e-58
2.9104988e-57
1.9005597e-58
1.0922789e-57
3.2857451e-59
2.6730643e-58
5.0968385e-60
5.9548009e-59
2.7559519e-61
7.0754893e-60
4.0463704e-63
3.0471244e-61
2.7413666e-65
5.4552078e-63
1.4293534e-67
4.7121729e-65
1.1691366e-69
4.9488957e-67
5.1507223e-72
3.9648623e-69
1.4401308e-74
2.1094892e-71
3.8446788e-77
1.0382104e-73
2.8420031e-80
5.5997712e-76
-7.3368366e-82
3.0439731e-78
-7.4522076e-84
1.4871444e-80
1.3295054e-82
1.2433367e-81
-2.40149e-81
2.3633061e-79
-1.5190972e-79
3.6451761e-77
-1.6844497e-77
4.4381519e-75
-1.1740423e-75
4.5413071e-73
-4.3547901e-74
4.0253307e-71
2.6846656e-72
3.2924623e-69
7.639419e-70
2.4232273e-67
1.0034983e-67
1.054702e-65
6.7180897e-66
2.7894768e-64
2.5169428e-64
4.817955e-62
6.1005801e-62
2.993734e-60
5.7499781e-60
4.3981443e-59
1.5093125e-58
1.3898343e-58
1.5611536e-57
-3.7302368e-58
6.6084239e-57
-4.162757e-57
1.8059008e-56
-5.2966998e-55
7.3749622e-55
-1.0768485e-52
8.6665334e-53
-1.7219079e-50
7.2670196e-51
-2.3246108e-48
2.6096487e-49
-2.7781143e-46
-4.9969653e-47
-2.9576512e-44
-1.4563102e-44
-2.8304425e-42
-2.3769277e-42
-2.455604e-40
-3.1469002e-40
-1.9466819e-38
-3.7162964e-38
-1.3922093e-36
-4.1476953e-36
-8.4279313e-35
-4.5529394e-34
-3.0654271e-33
-5.0940782e-32
3.1013554e-31
-6.0214153e-30
1.3193917e-28
-8.0292707e-28
2.7856119e-26
-1.0204e-25
2.0373637e-24
-5.4291176e-24
3.991066e-23
-8.382378e-23
6.0854909e-22
-1.1136414e-21
1.81612e-21
-4.7324986e-21
1.9809229e-22
-1.1569466e-21
4.6793592e-24
-7.7549423e-23
2.3656201e-25
-1.8651435e-24
3.6019472e-27
-1.7221315e-25
6.1327486e-27
-2.1104483e-27