/*--------------------------------*- C++ -*----------------------------------*\
  =========                 |
  \\      /  F ield         | OpenFOAM: The Open Source CFD Toolbox
   \\    /   O peration     | Website:  https://openfoam.org
    \\  /    A nd           | Version:  9
     \\/     M anipulation  |
\*---------------------------------------------------------------------------*/
FoamFile
{
    format      ascii;
    class       volScalarField;
    location    "0.47";
    object      p_rgh;
}
// * * * * * * * * * * * * * * * * * * * * * * * * * * * * * * * * * * * * * //

dimensions      [1 -1 -2 0 0 0 0];

internalField   nonuniform List<scalar> 
10000
(
0
-0.0084891264
-0.021630429
-0.039920948
-0.06407287
-0.093751815
-0.12930596
-0.1708391
-0.21857303
-0.27270006
-0.33345679
-0.40109439
-0.47589406
-0.55817042
-0.64823724
-0.74648132
-0.85327024
-0.96895658
-1.0937064
-1.2270686
-1.3681984
-1.5130916
-1.6639984
-1.8290814
-2.0062799
-2.1950752
-2.3952681
-2.6067286
-2.8293069
-3.0627401
-3.3066704
-3.5605801
-3.8237824
-4.0953176
-4.3739277
-4.6580106
-4.9454725
-5.233933
-5.5214879
-5.8061862
-6.0845863
-6.3521302
-6.6061241
-6.8437957
-7.0623999
-7.2594297
-7.4327255
-7.5805925
-7.7019177
-7.7961768
-7.8634561
-7.9044874
-7.9206579
-7.9138542
-7.8865747
-7.8417082
-7.7828845
-7.7142616
-7.63988
-7.5631531
-7.4872816
-7.4153731
-7.3499352
-7.292931
-7.2457873
-7.2093379
-7.183899
-7.1692113
-7.1646771
-7.1693618
-7.1822062
-7.2023177
-7.2301113
-7.2549576
-7.2826084
-7.3128204
-7.3443233
-7.3760278
-7.40711
-7.436864
-7.4647195
-7.4902043
-7.5130872
-7.5333337
-7.550969
-7.566108
-7.5789537
-7.5897027
-7.5986052
-7.6058659
-7.6117776
-7.6165773
-7.6205335
-7.6238956
-7.6268402
-7.6295492
-7.632221
-7.635299
-7.6374681
-7.6415606
0.010312688
0.0016717963
-0.011451677
-0.029719959
-0.05375201
-0.083297265
-0.11860765
-0.15984141
-0.20718339
-0.26084809
-0.32104064
-0.38803229
-0.46205694
-0.54339116
-0.6323566
-0.72922454
-0.83424796
-0.9477735
-1.0700691
-1.1989157
-1.3373456
-1.4852258
-1.6403689
-1.8065574
-1.9841117
-2.1730158
-2.3733231
-2.5850404
-2.8081322
-3.0424251
-3.2876018
-3.5432178
-3.8085917
-4.0827837
-4.364548
-4.6523135
-4.9442959
-5.238461
-5.5324385
-5.823098
-6.1064327
-6.380262
-6.6409161
-6.8850407
-7.1095254
-7.3115467
-7.4886942
-7.6390737
-7.7614416
-7.8551933
-7.9203506
-7.9576702
-7.9685985
-7.9553078
-7.9205254
-7.8670776
-7.7992269
-7.7233084
-7.6414181
-7.5578134
-7.4758494
-7.3986444
-7.3289321
-7.2688001
-7.2196842
-7.1823432
-7.1569573
-7.1431811
-7.1401901
-7.1469165
-7.1619926
-7.1838305
-7.2100417
-7.2417899
-7.2747949
-7.3085532
-7.3426077
-7.3762783
-7.4088534
-7.4396921
-7.4683233
-7.4944126
-7.517756
-7.5383045
-7.5561127
-7.5713027
-7.5840808
-7.5946628
-7.6033202
-7.6102948
-7.6158966
-7.6203765
-7.62399
-7.627022
-7.6296572
-7.6320565
-7.6344267
-7.6372797
-7.6393294
-7.6437508
0.026946517
0.018108827
0.0049342633
-0.013199133
-0.037006719
-0.066198362
-0.1010725
-0.14178518
-0.18851288
-0.2414263
-0.30080579
-0.36686049
-0.43985562
-0.52007682
-0.60776481
-0.70312727
-0.80639869
-0.91771553
-1.0380963
-1.1684815
-1.3067254
-1.4538174
-1.6099915
-1.7764937
-1.9539719
-2.1427712
-2.3430941
-2.5550745
-2.7787289
-3.0139599
-3.2605782
-3.5182309
-3.7863262
-4.0640065
-4.3501422
-4.643261
-4.9415436
-5.2428227
-5.5445097
-5.8435304
-6.1355845
-6.4185777
-6.6884508
-6.9414499
-7.1740475
-7.3829819
-7.5655293
-7.7195144
-7.8434708
-7.9366929
-7.9991621
-8.031673
-8.0358183
-8.0140058
-7.9699326
-7.9050611
-7.8270027
-7.7385912
-7.6459569
-7.5523987
-7.4615777
-7.3769858
-7.3014954
-7.2372851
-7.1857372
-7.1475758
-7.12274
-7.1106571
-7.110322
-7.1203228
-7.1390161
-7.1645778
-7.1950953
-7.2292058
-7.2657398
-7.3030177
-7.3400985
-7.3761925
-7.4106436
-7.4428849
-7.4725215
-7.4992941
-7.5230491
-7.5437875
-7.5615759
-7.576588
-7.5890627
-7.599245
-7.6074433
-7.6139332
-7.6190094
-7.6229473
-7.6260182
-7.6285261
-7.6306826
-7.6326927
-7.6347288
-7.6373232
-7.6391303
-7.6435572
0.044007587
0.03549154
0.022719113
0.0050775382
-0.018107607
-0.046629447
-0.080775107
-0.12067397
-0.16647574
-0.21843501
-0.27674285
-0.34164003
-0.41341077
-0.49236256
-0.57874868
-0.67288331
-0.77506885
-0.88552638
-1.0036015
-1.1310853
-1.2676907
-1.4136505
-1.5693361
-1.7354748
-1.9125919
-2.1011037
-2.301337
-2.5135281
-2.7377798
-2.974145
-3.2225611
-3.4827882
-3.75437
-4.0365825
-4.3284215
-4.6284968
-4.934992
-5.2456497
-5.5576806
-5.8677692
-6.1736052
-6.4698195
-6.7526505
-7.0179689
-7.2617462
-7.4802924
-7.6703605
-7.8293764
-7.955576
-8.0481169
-8.1070579
-8.1332405
-8.128132
-8.0939737
-8.0392957
-7.9549634
-7.8567098
-7.7560126
-7.6501948
-7.5434319
-7.4406146
-7.3459688
-7.2626894
-7.1930931
-7.1385193
-7.0995081
-7.0758102
-7.0664907
-7.0701466
-7.0850035
-7.1090545
-7.1402415
-7.1765771
-7.2164269
-7.2576669
-7.2992715
-7.3401291
-7.3793416
-7.4162535
-7.4503466
-7.4812732
-7.5088725
-7.5330517
-7.5538681
-7.5714707
-7.5860654
-7.5979731
-7.607476
-7.6149137
-7.6205745
-7.6248004
-7.6278947
-7.6301584
-7.631881
-7.633295
-7.634623
-7.6360462
-7.6381874
-7.6395952
-7.6433198
0.068614048
0.060141887
0.047511738
0.030387243
0.0077758541
-0.020095264
-0.053453496
-0.092414392
-0.13718322
-0.18794864
-0.24492914
-0.30841372
-0.37868216
-0.45599258
-0.5406588
-0.63300229
-0.73332526
-0.84190286
-0.95823069
-1.0838559
-1.2188052
-1.3634117
-1.5181091
-1.6833968
-1.8597802
-2.0477601
-2.2477356
-2.460022
-2.6848805
-2.9225164
-3.1730132
-3.4363005
-3.712104
-3.999907
-4.2988853
-4.6077857
-4.9248751
-5.2479283
-5.5741566
-5.9002487
-6.221971
-6.5352125
-6.8351713
-7.1169751
-7.3758383
-7.6073251
-7.8075687
-7.973453
-8.1028332
-8.1946867
-8.2491288
-8.2672531
-8.2502929
-8.1937028
-8.1212598
-8.0229413
-7.9082159
-7.7849698
-7.6584418
-7.5322186
-7.4129421
-7.3048875
-7.2114867
-7.1350605
-7.0768955
-7.0372303
-7.0154283
-7.0101249
-7.0193861
-7.0409037
-7.0722226
-7.1108759
-7.1545404
-7.2011862
-7.2488373
-7.2960674
-7.3416899
-7.384791
-7.4247316
-7.461071
-7.4935403
-7.5220403
-7.5465891
-7.5673484
-7.5845571
-7.5984889
-7.60953
-7.6179968
-7.6243088
-7.6288061
-7.6318514
-7.6337779
-7.6349654
-7.6356114
-7.6360163
-7.6364165
-7.637019
-7.6384677
-7.6392746
-7.6421375
0.09864381
0.090454113
0.078550075
0.061568723
0.039417778
0.012242013
-0.020193566
-0.058074086
-0.10158481
-0.15092475
-0.20636871
-0.26818384
-0.33662996
-0.41201735
-0.49466881
-0.58486118
-0.68284352
-0.78896893
-0.90357521
-1.0272894
-1.1603032
-1.303191
-1.4563879
-1.6203385
-1.7955416
-1.9826117
-2.181999
-2.3941388
-2.6194569
-2.8583256
-3.111008
-3.3776505
-3.6582479
-3.9525267
-4.2599057
-4.5793312
-4.9092266
-5.2474063
-5.5909741
-5.9363078
-6.2789989
-6.6141198
-6.9361172
-7.2392025
-7.5176235
-7.7659743
-7.9795206
-8.1544212
-8.2880246
-8.3790493
-8.4277588
-8.4362585
-8.3950336
-8.3270279
-8.2296369
-8.1071973
-7.9672768
-7.8176859
-7.6652336
-7.5163304
-7.3756641
-7.2506594
-7.1447287
-7.0601879
-6.9980879
-6.9583328
-6.9397211
-6.9402168
-6.9571954
-6.9876837
-7.0286031
-7.0769509
-7.1299575
-7.1851929
-7.2406368
-7.2946215
-7.3458951
-7.3935401
-7.4369706
-7.4758114
-7.5099127
-7.5392797
-7.5640634
-7.5845435
-7.6010435
-7.6139567
-7.6237452
-7.6308265
-7.635638
-7.6385951
-7.6401085
-7.640515
-7.6402613
-7.6395517
-7.638738
-7.6379942
-7.6375707
-7.6381361
-7.6381823
-7.6400868
0.13323696
0.12515775
0.11348464
0.097183664
0.075823481
0.049620901
0.018321736
-0.018234828
-0.060230026
-0.10791747
-0.16155836
-0.22139412
-0.28773418
-0.36091889
-0.44126382
-0.52908589
-0.6245714
-0.72869573
-0.83982321
-0.96148572
-1.0920325
-1.2327866
-1.3840314
-1.5461817
-1.7196267
-1.9053323
-2.1037103
-2.3153312
-2.540792
-2.7806539
-3.0354182
-3.3055161
-3.5912388
-3.8926561
-4.2094862
-4.5410007
-4.8858991
-5.2421079
-5.6066725
-5.9757025
-6.3443549
-6.7068956
-7.0567452
-7.3869099
-7.690339
-7.9603573
-8.1910449
-8.3775965
-8.5167012
-8.6066419
-8.6473396
-8.6393158
-8.584484
-8.4912034
-8.3643516
-8.2104385
-8.0376177
-7.854647
-7.6699416
-7.4914935
-7.3263148
-7.179646
-7.0586008
-6.9647519
-6.8987842
-6.8599843
-6.8464116
-6.8551467
-6.8826151
-6.9249552
-6.9782973
-7.0389661
-7.1036654
-7.1695388
-7.2343294
-7.2962848
-7.354106
-7.4069185
-7.4541895
-7.4956857
-7.5313928
-7.5614634
-7.5862031
-7.6060392
-7.6214173
-7.6328895
-7.6409913
-7.6462263
-7.6490951
-7.6500791
-7.649614
-7.6481524
-7.6461031
-7.6437388
-7.6414451
-7.6393727
-7.6377202
-7.6372106
-7.6364817
-7.6374127
0.17242202
0.16450004
0.15321797
0.13758095
0.11710381
0.092035029
0.062073909
0.027065991
-0.013213811
-0.059005248
-0.11053959
-0.16810792
-0.23204812
-0.30269057
-0.38040699
-0.46565687
-0.55756662
-0.65866429
-0.76788379
-0.88638403
-1.0143595
-1.1524163
-1.3010792
-1.4609488
-1.6316151
-1.8155674
-2.0124217
-2.2229939
-2.4480826
-2.6884868
-2.9450027
-3.2183785
-3.5092604
-3.8181259
-4.1451671
-4.4901368
-4.8521345
-5.2293373
-5.6188203
-6.0164707
-6.4168507
-6.813451
-7.1982207
-7.5625892
-7.8978131
-8.1955095
-8.4481693
-8.6497483
-8.7960838
-8.8850676
-8.9165581
-8.8915349
-8.814218
-8.6905883
-8.5278924
-8.3345926
-8.1203527
-7.8955585
-7.6706535
-7.4558008
-7.2603055
-7.0862658
-6.9481574
-6.8441301
-6.7748385
-6.7387768
-6.7329226
-6.75316
-6.794713
-6.8525447
-6.9217563
-6.9978434
-7.0768788
-7.1555618
-7.2314281
-7.3026303
-7.3678567
-7.4263412
-7.4776992
-7.5218601
-7.5589847
-7.5894299
-7.6136999
-7.6324072
-7.6461732
-7.6556563
-7.6615136
-7.6643495
-7.6647098
-7.6632537
-7.6603841
-7.6566661
-7.6524774
-7.6481469
-7.6440383
-7.6403965
-7.6373945
-7.6355989
-7.634032
-7.6342237
0.21596265
0.20825355
0.19749514
0.18260763
0.16300141
0.13933942
0.11091516
0.077627228
0.039287791
-0.0043153749
-0.053460526
-0.10846838
-0.16965495
-0.23736496
-0.31198646
-0.39378003
-0.48302307
-0.58057956
-0.68669843
-0.80190133
-0.92664999
-1.0614935
-1.2070034
-1.3637192
-1.5320901
-1.7132202
-1.9077763
-2.116533
-2.340536
-2.5808055
-2.8384493
-3.114575
-3.4102358
-3.7264273
-4.0640216
-4.4234773
-4.8044486
-5.2055957
-5.6242177
-6.0560151
-6.4948417
-6.9335216
-7.3618899
-7.7693694
-8.144888
-8.4777599
-8.7584147
-8.9792721
-9.1351753
-9.2234657
-9.2441296
-9.1990976
-9.0926717
-8.9316344
-8.7248825
-8.4827138
-8.2168179
-7.939918
-7.6649919
-7.404558
-7.1694551
-6.967903
-6.8077885
-6.6926579
-6.6212542
-6.5906778
-6.5963327
-6.6324658
-6.6927239
-6.7705903
-6.8598713
-6.9550669
-7.0515376
-7.1453317
-7.2340183
-7.3156672
-7.3890617
-7.4535757
-7.5090495
-7.5556458
-7.5937932
-7.6241023
-7.6473123
-7.664235
-7.6756947
-7.6825069
-7.6854254
-7.6852422
-7.6825511
-7.678077
-7.6723119
-7.6658503
-7.6591085
-7.6524756
-7.6463132
-7.6408457
-7.636344
-7.6331573
-7.6307384
-7.630219
0.26361688
0.25618585
0.24606634
0.23212647
0.21408622
0.19143889
0.16458919
0.13321267
0.097077566
0.05592648
0.0094503268
-0.042657401
-0.1007273
-0.16514891
-0.23631932
-0.31445543
-0.4001903
-0.49402828
-0.59642685
-0.70791585
-0.82892662
-0.96005362
-1.1018879
-1.2550054
-1.4200493
-1.5979123
-1.7894457
-1.9953703
-2.2173935
-2.4565736
-2.7143753
-2.9923134
-3.2919117
-3.6147626
-3.9626279
-4.3369886
-4.7384446
-5.1663427
-5.6185497
-6.0908137
-6.5765899
-7.0665241
-7.5492239
-8.0110608
-8.437742
-8.8153532
-9.1316257
-9.3770238
-9.5453042
-9.6333734
-9.6412649
-9.5716811
-9.429646
-9.2228638
-8.9617644
-8.6590549
-8.3291623
-7.9876226
-7.6504914
-7.3334878
-7.0506765
-6.8137285
-6.6287213
-6.5031091
-6.4321462
-6.4111599
-6.4335132
-6.4913737
-6.5763021
-6.679864
-6.7942665
-6.9128238
-7.0302846
-7.1415373
-7.2447989
-7.3380091
-7.4201158
-7.4907474
-7.5500787
-7.5986185
-7.6371427
-7.6665505
-7.6878565
-7.7021414
-7.7104131
-7.71372
-7.7129517
-7.7089578
-7.7025462
-7.6944185
-7.6852088
-7.675524
-7.6658256
-7.6564814
-7.647958
-7.6404506
-7.634282
-7.6297369
-7.6261764
-7.6250906
0.31510973
0.30802588
0.29857469
0.28558628
0.26867459
0.24771531
0.2227546
0.19356277
0.15989536
0.1214584
0.077974489
0.029120351
-0.025478466
-0.086223467
-0.15349617
-0.22765605
-0.30931838
-0.39898557
-0.49716051
-0.604402
-0.72122651
-0.84810851
-0.98570737
-1.1346248
-1.2955632
-1.4693444
-1.6569184
-1.8593554
-2.0780555
-2.3148183
-2.5714457
-2.8498635
-3.1520598
-3.4801133
-3.8370699
-4.2258751
-4.6485817
-5.1057046
-5.5959209
-6.1154589
-6.657357
-7.210806
-7.7616685
-8.2924963
-8.7844522
-9.219174
-9.5807097
-9.8570912
-10.04094
-10.129088
-10.121896
-10.02274
-9.8374891
-9.5749775
-9.2473809
-8.8700618
-8.4608471
-8.0389429
-7.6243596
-7.2368913
-6.8947566
-6.6132848
-6.402583
-6.267299
-6.2009213
-6.1954074
-6.2414161
-6.3285719
-6.4457839
-6.5820877
-6.7276241
-6.8742065
-7.0153873
-7.1476051
-7.2672813
-7.3729169
-7.4639176
-7.5403918
-7.6029624
-7.6525978
-7.6904758
-7.7179004
-7.7362108
-7.7467775
-7.7508501
-7.7496112
-7.7442276
-7.7355884
-7.7246457
-7.7122162
-7.6989429
-7.6854873
-7.67234
-7.6599457
-7.6487053
-7.6388905
-7.630818
-7.6247396
-7.6201918
-7.6185155
0.37010203
0.36348024
0.35478735
0.34282332
0.32724713
0.30800226
0.28517295
0.25840086
0.22742981
0.19201341
0.15185739
0.10660338
0.055859476
-0.00077762562
-0.063710157
-0.13342482
-0.21051536
-0.29549712
-0.38892769
-0.49141574
-0.60366855
-0.72567666
-0.85847731
-1.002601
-1.1587075
-1.3276096
-1.5102532
-1.7078809
-1.9220633
-2.1547812
-2.4085018
-2.6856996
-2.9887541
-3.3194256
-3.6830077
-4.084622
-4.5282465
-5.0160987
-5.5484229
-6.1226267
-6.7318176
-7.3638111
-8.0007691
-8.6199356
-9.1958756
-9.703857
-10.122811
-10.43784
-10.640709
-10.728901
-10.703729
-10.569274
-10.332174
-10.0022
-9.5934722
-9.1244405
-8.6171127
-8.0953432
-7.5840371
-7.1081695
-6.6918206
-6.356033
-6.1152487
-5.9752246
-5.9204886
-5.9386789
-6.0174552
-6.143627
-6.3027781
-6.4805373
-6.66437
-6.8445066
-7.0140367
-7.1688921
-7.3060775
-7.4244422
-7.5240026
-7.6055225
-7.6701817
-7.7195866
-7.7553866
-7.7793834
-7.7932962
-7.7987447
-7.7973299
-7.7903833
-7.7792467
-7.7650438
-7.748748
-7.7312478
-7.7132132
-7.695427
-7.6783339
-7.6624609
-7.648181
-7.6357483
-7.6255946
-7.6177908
-7.6121913
-7.609906
0.42824898
0.42224703
0.4143668
0.4035158
0.38942757
0.37189813
0.35153086
0.32737816
0.29937524
0.26728782
0.23078579
0.18950578
0.14305508
0.090995673
0.032843153
-0.031909059
-0.1038832
-0.18364534
-0.27180385
-0.36895188
-0.47559044
-0.59270237
-0.72028558
-0.85907783
-1.0097004
-1.1728952
-1.3495961
-1.5410882
-1.7490854
-1.9759604
-2.224652
-2.498653
-2.8010033
-3.1301017
-3.4960473
-3.9068956
-4.3693297
-4.8878462
-5.4653823
-6.1018748
-6.791456
-7.5206582
-8.267676
-9.001561
-9.6870033
-10.289668
-10.781222
-11.143513
-11.368607
-11.456062
-11.409184
-11.233144
-10.934731
-10.524133
-10.016802
-9.435019
-8.8061995
-8.1600031
-7.527572
-6.9404704
-6.4299948
-6.0259284
-5.7503808
-5.616662
-5.5841058
-5.6369219
-5.7601129
-5.9376878
-6.1509444
-6.3807219
-6.6110984
-6.8306898
-7.0320896
-7.2115188
-7.3667646
-7.4974779
-7.6045189
-7.6895452
-7.7545159
-7.8017935
-7.8336172
-7.8522805
-7.8599875
-7.8586721
-7.8501845
-7.8361894
-7.8181306
-7.7971994
-7.7745704
-7.7511806
-7.7277189
-7.704917
-7.6833808
-7.6635706
-7.6458991
-7.6306139
-7.6181005
-7.6083845
-7.6016743
-7.5986557
0.48921036
0.48397395
0.47692436
0.46731744
0.45502637
0.44008845
0.42160197
0.40015703
0.37536695
0.34690036
0.3144074
0.27752531
0.23583081
0.18881789
0.13596599
0.076743874
0.010448273
-0.063551007
-0.14591507
-0.23727024
-0.33821565
-0.44944298
-0.57135853
-0.70435834
-0.84891209
-1.0056781
-1.1754825
-1.3594891
-1.5594812
-1.7781322
-2.0192889
-2.2877093
-2.5904322
-2.9103527
-3.2706286
-3.6853587
-4.1623924
-4.7086459
-5.3322426
-6.0380963
-6.8231629
-7.6732609
-8.5630775
-9.4486867
-10.279523
-11.005848
-11.588481
-12.006605
-12.255478
-12.339679
-12.26636
-12.042115
-11.673013
-11.167942
-10.541643
-9.820805
-9.040878
-8.2391992
-7.4549667
-6.7275039
-6.0957223
-5.6028418
-5.2864604
-5.185209
-5.1894319
-5.2889302
-5.4701952
-5.7146591
-5.9972145
-6.2915109
-6.5773478
-6.8419695
-7.0783126
-7.2833505
-7.4561618
-7.5977523
-7.7101837
-7.7962684
-7.8590057
-7.9015163
-7.9268485
-7.9378465
-7.9371058
-7.9270724
-7.9098005
-7.8871038
-7.8606929
-7.8318728
-7.8018672
-7.7716518
-7.7420401
-7.7135105
-7.687045
-7.66287
-7.6414034
-7.6229621
-7.6078343
-7.5960271
-7.5880076
-7.5841159
0.55265872
0.54821034
0.54205022
0.53376208
0.52320244
0.51023735
0.49456333
0.47622166
0.45494452
0.43042721
0.40234798
0.37031329
0.33384702
0.29240822
0.24542342
0.1923351
0.13231367
0.064672645
-0.011301544
-0.096298211
-0.19098411
-0.29600047
-0.41193199
-0.53888033
-0.67693153
-0.82677818
-0.9889225
-1.1642187
-1.3542685
-1.5619682
-1.7918939
-2.0493785
-2.3653283
-2.6616035
-3.0066423
-3.4131362
-3.8964056
-4.4627205
-5.1289312
-5.9092478
-6.8070556
-7.8106541
-8.8868297
-9.9779086
-11.006874
-11.896965
-12.591732
-13.071249
-13.341091
-13.41612
-13.309932
-13.031416
-12.58449
-11.972101
-11.203683
-10.310442
-9.3408106
-8.3435265
-7.3689094
-6.4654718
-5.676482
-5.0639623
-4.6945572
-4.6730932
-4.7383205
-4.898459
-5.1533549
-5.4833142
-5.8541497
-6.2273432
-6.5776043
-6.8913418
-7.1643516
-7.3943297
-7.5825206
-7.7319276
-7.846335
-7.929849
-7.9867483
-8.0210989
-8.0366923
-8.0371318
-8.0253953
-8.0042453
-7.9761047
-7.9430078
-7.9067054
-7.8686983
-7.8301533
-7.7921506
-7.7554962
-7.7208403
-7.6887761
-7.6597772
-7.6341481
-7.6122182
-7.5941999
-7.5801179
-7.5705961
-7.565642
0.61825094
0.61454634
0.60935921
0.60241603
0.59365762
0.58296014
0.57014858
0.555113
0.53762911
0.51743192
0.49417867
0.46743452
0.43670969
0.4014347
0.36095882
0.31460202
0.26152916
0.20093217
0.13200505
0.053952643
-0.033976783
-0.13243338
-0.24194256
-0.36332652
-0.49451093
-0.63736707
-0.79155781
-0.95729492
-1.1356922
-1.3297148
-1.5449142
-1.7889354
-2.1318961
-2.393484
-2.7234738
-3.0925605
-3.5633198
-4.1294811
-4.8270145
-5.6821794
-6.7091206
-7.9044296
-9.2329666
-10.613681
-11.924005
-13.035458
-13.862206
-14.398278
-14.676361
-14.729374
-14.581132
-14.244664
-13.719944
-12.994547
-12.059651
-10.948642
-9.7349219
-8.4877108
-7.273912
-6.1539065
-5.1611787
-4.3773826
-3.9589697
-4.0724133
-4.229464
-4.4669789
-4.8182968
-5.2601324
-5.7430668
-6.2103335
-6.6309967
-6.9966855
-7.304908
-7.5563231
-7.7553339
-7.907459
-8.0186317
-8.0945977
-8.1409084
-8.162794
-8.1647994
-8.1511035
-8.1252449
-8.0903403
-8.0490477
-8.0035581
-7.9557003
-7.9070967
-7.8587594
-7.8121067
-7.7676421
-7.7260914
-7.6879486
-7.6536512
-7.6235106
-7.5977819
-7.5766287
-7.5600576
-7.5488234
-7.5426026
0.68565257
0.68256876
0.67838041
0.67281117
0.66596186
0.65768051
0.64781727
0.63630969
0.62292704
0.60740111
0.58936884
0.56839526
0.54397079
0.51547623
0.48216485
0.4433093
0.39792523
0.34514129
0.28397805
0.21349047
0.13281915
0.0412787
-0.061528578
-0.1754562
-0.30221294
-0.43898783
-0.58574867
-0.74180095
-0.907205
-1.0847573
-1.2803925
-1.5005332
-1.8879899
-2.1342218
-2.3712991
-2.7159045
-3.1663704
-3.6879289
-4.3877621
-5.3073571
-6.4772164
-7.9119447
-9.5842976
-11.394023
-13.129181
-14.543356
-15.504625
-16.069586
-16.326943
-16.334015
-16.130423
-15.736326
-15.147556
-14.320955
-13.199847
-11.805111
-10.265426
-8.6906781
-7.1719726
-5.7918301
-4.5433599
-3.4981537
-2.9151828
-3.3799765
-3.7303828
-3.9931661
-4.4809641
-5.0725279
-5.7024816
-6.2772585
-6.7674371
-7.181373
-7.5182341
-7.7832751
-7.9851148
-8.1322909
-8.2329653
-8.2947412
-8.3245432
-8.3285822
-8.3122805
-8.2804114
-8.2369316
-8.1852315
-8.1282252
-8.0681748
-8.0070324
-7.9462731
-7.8871981
-7.8307726
-7.777714
-7.7285795
-7.6838377
-7.6438295
-7.608823
-7.5789959
-7.5544705
-7.5352432
-7.5220543
-7.5143497
0.75444677
0.7517997
0.7486236
0.74447832
0.73958333
0.73381093
0.72702267
0.71926658
0.71024578
0.69970513
0.68730648
0.67261918
0.65509386
0.63404086
0.60866982
0.57809534
0.54128524
0.49720156
0.4446257
0.38242313
0.30954815
0.22512366
0.12855062
0.019625725
-0.10161765
-0.23376345
-0.37472477
-0.52237961
-0.67431949
-0.82966386
-0.99428565
-1.2010597
-1.5667944
-0.90746614
0.11483766
-1.6281954
-2.6594192
-3.0724521
-3.7531909
-4.7113684
-6.0270772
-7.7553227
-9.9056985
-12.378811
-14.825163
-16.68595
-17.720846
-18.193877
-18.347961
-18.27717
-17.986788
-17.533909
-16.951642
-16.120323
-14.817021
-13.023703
-11.014039
-8.9708987
-7.0416155
-5.3777478
-3.8971691
-2.2676457
-1.5952163
-1.3430383
-1.8801708
-2.8127897
-4.1469003
-5.0145194
-5.8142413
-6.4790852
-7.0269689
-7.4732767
-7.8245489
-8.0900346
-8.2826819
-8.4142428
-8.494973
-8.5341619
-8.5401082
-8.5199793
-8.4799093
-8.425192
-8.3601423
-8.2883829
-8.212911
-8.1360621
-8.0597676
-7.9854828
-7.9143778
-7.8472503
-7.784808
-7.7275039
-7.6756636
-7.6295769
-7.589392
-7.5552188
-7.5271028
-7.5050695
-7.4897419
-7.4802039
0.82415446
0.821752
0.8195789
0.81684318
0.81391213
0.81074981
0.80731713
0.80332084
0.79885698
0.79362664
0.78729747
0.77941835
0.76940285
0.75652116
0.73992826
0.718605
0.69140265
0.65703403
0.61404925
0.56104309
0.49665865
0.41967075
0.32914115
0.22462342
0.10641668
-0.023944274
-0.16311201
-0.30718433
-0.44921746
-0.57966302
-0.70091377
-0.86863004
-0.72796439
1.6600033
1.8299154
1.3281027
-1.6104268
-2.203223
-2.8662597
-3.8026874
-5.2289035
-7.2763121
-10.084627
-13.675867
-17.363393
-19.689828
-20.610802
-20.933862
-20.936964
-20.728029
-20.284988
-19.753432
-19.207143
-18.521232
-17.243297
-14.931624
-11.94371
-9.2150743
-6.7615947
-4.8469958
-3.1636867
-1.3764723
-0.69943306
-1.3331184
-1.9616811
-2.376313
-3.5205649
-5.1329678
-6.2523885
-6.9160546
-7.4565309
-7.9021004
-8.2446999
-8.4910634
-8.6582313
-8.7603958
-8.8094138
-8.8159494
-8.7894189
-8.7377971
-8.6677853
-8.5850514
-8.4941379
-8.3988418
-8.3019889
-8.2060476
-8.1127794
-8.0235188
-7.9391874
-7.8604923
-7.7879585
-7.7219533
-7.6626074
-7.6101126
-7.5644973
-7.525784
-7.4939144
-7.4689289
-7.4513287
-7.4395811
0.89431662
0.89188412
0.8906299
0.88926245
0.88828455
0.88772533
0.88752748
0.88762304
0.88795693
0.8883459
0.88849718
0.8879532
0.8861071
0.88221657
0.87534973
0.86433961
0.847964
0.82456838
0.7924491
0.74982785
0.69490401
0.6259413
0.54145269
0.44045561
0.32280468
0.18999375
0.045529881
-0.10634321
-0.2592006
-0.39309975
-0.49465507
-0.66015543
-0.47870398
1.7264473
2.1536039
1.9872581
-0.57405402
-1.2524548
-1.7435837
-2.5567573
-3.9908706
-6.2199243
-9.6440733
-15.202191
-22.201777
-25.256311
-24.905929
-24.10267
-23.664873
-23.3377
-22.565781
-21.775791
-21.732789
-22.274125
-21.615445
-17.907559
-13.026584
-9.3409207
-6.2531117
-3.9039039
-2.2163461
0.041446131
-0.51481669
-0.32113223
-1.2636853
-3.197303
-3.7792806
-4.7435085
-6.9872674
-7.6146448
-8.0895757
-8.4889902
-8.7933989
-8.9972368
-9.1195034
-9.1760313
-9.1796234
-9.1419908
-9.0732672
-8.9819712
-8.8752573
-8.7589454
-8.6376382
-8.5150321
-8.3939825
-8.27669
-8.1646262
-8.0589506
-7.960343
-7.8693039
-7.7861227
-7.7109686
-7.643814
-7.5846706
-7.5334549
-7.4900629
-7.4543055
-7.4262535
-7.4062643
-7.3920474
0.96435733
0.96157768
0.96114669
0.96109808
0.96200859
0.96400749
0.96708536
0.97128295
0.97660547
0.98291362
0.98992474
0.99723428
1.0042879
1.01028
1.0141825
1.0147102
1.010422
0.99974369
0.98005604
0.94938561
0.9053716
0.84556814
0.76763201
0.66953215
0.54989317
0.40914585
0.24983852
0.071070632
-0.12139373
-0.28105057
-0.39612252
-0.61191363
-0.77044578
1.882451
2.5052691
2.6136417
0.2033049
-0.16718487
-0.45272193
-1.0130947
-2.1727029
-4.8448115
-8.6127464
-17.932717
-30.625957
-33.397915
-29.960929
-28.792613
-28.857424
-27.861997
-26.408067
-25.205267
-24.896047
-26.942995
-29.510297
-24.311299
-17.037621
-10.354284
-5.6168168
-2.157276
-0.33696367
2.0159988
0.91048407
-0.079235008
-1.6859381
-3.7636023
-5.4743114
-5.9562526
-7.7189966
-8.4773364
-8.9226958
-9.245927
-9.4781285
-9.6144619
-9.6708757
-9.6639296
-9.6070154
-9.5125051
-9.3909664
-9.2512312
-9.1006352
-8.9448841
-8.788494
-8.6350213
-8.4869584
-8.3460406
-8.2135495
-8.090193
-7.9764184
-7.8723992
-7.7781471
-7.6935476
-7.6183951
-7.5524732
-7.4955815
-7.4474462
-7.407724
-7.3765556
-7.354109
-7.3372338
1.033581
1.0302328
1.0305178
1.031664
1.0343038
1.0387461
1.0450541
1.0533545
1.0637474
1.0761567
1.0903879
1.1061209
1.122804
1.1396071
1.15543
1.1688412
1.1780015
1.1825405
1.1770114
1.1603862
1.1294533
1.0808373
1.0110009
0.91634679
0.79344922
0.64049179
0.45669537
0.23337921
-0.02238444
-0.24542302
-0.45699002
-0.74916278
-0.95746935
-0.2551494
1.8435019
1.4737129
0.71500247
1.040165
1.033572
1.590033
1.3427241
-1.776538
-4.658044
-28.400033
-57.575117
-52.053359
-36.193335
-31.715271
-29.232248
-27.653135
-26.457992
-25.762561
-28.031863
-34.678354
-50.510867
-52.111677
-25.959803
-8.9992219
-2.9351189
0.91001595
2.3872038
4.2701617
2.5783257
0.44772191
-2.1389311
-4.8150018
-6.8886513
-8.1935456
-8.8283315
-9.5300798
-9.9148401
-10.159918
-10.297397
-10.342879
-10.312968
-10.224136
-10.090758
-9.9258674
-9.7403007
-9.5429336
-9.3409982
-9.1399468
-8.9440169
-8.7561519
-8.578324
-8.4118438
-8.2574682
-8.115446
-7.9858347
-7.8684254
-7.7628472
-7.6686783
-7.5854713
-7.512778
-7.4502298
-7.3973618
-7.3536963
-7.3194154
-7.2945765
-7.2747545
1.1013716
1.0972266
1.0980737
1.1001866
1.1043301
1.111012
1.1203991
1.1327052
1.1481173
1.1667495
1.1885153
1.2131655
1.2401916
1.2687876
1.2978325
1.3258469
1.3509736
1.3712775
1.3830263
1.3834163
1.3686942
1.3345086
1.275932
1.1874399
1.0628345
0.8964981
0.68266305
0.4038422
0.055834718
-0.29752069
-0.63934794
-0.95477102
-1.1120842
-0.93636115
-0.23034555
0.91037076
2.0625128
2.6690934
3.5004396
6.2067337
9.5030707
9.864742
19.998261
-4.6505166
-68.661856
-76.006643
-42.42226
198.84416
876.77782
1351.6738
1234.5727
618.88572
36.646912
-28.437708
-67.05272
-50.439307
-3.2130227
5.7333146
5.8980855
5.8376388
7.1780719
8.4527027
5.971203
1.5322753
-2.4766632
-6.0262371
-8.3633508
-9.7557569
-10.432051
-10.833937
-11.097159
-11.230327
-11.249874
-11.18122
-11.043794
-10.854051
-10.627681
-10.37843
-10.117289
-9.8529419
-9.5922696
-9.3403488
-9.100569
-8.8750759
-8.6651487
-8.471495
-8.2941472
-8.1327991
-7.9869419
-7.8559467
-7.7390137
-7.6353583
-7.5442131
-7.4649082
-7.3968461
-7.3393626
-7.29188
-7.2545397
-7.2272652
-7.2043879
1.1671278
1.1619026
1.1630575
1.1658724
1.1712085
1.1798214
1.191979
1.2080274
1.2282973
1.2531526
1.2826293
1.316593
1.3546319
1.3960153
1.439636
1.4839503
1.5269213
1.5660445
1.5979549
1.6188832
1.6244751
1.6094053
1.5673778
1.4908744
1.3705817
1.1958857
0.9546003
0.62053106
0.16348946
-0.38004184
-0.92950908
-1.4115767
-1.6635215
-1.5447283
-0.75742504
0.88329221
2.5484909
3.2882612
3.6436149
6.8708266
10.972136
12.992202
42.69556
94.249806
337.73683
1502.8958
4470.5005
6594.3587
7386.3883
7490.5126
7148.1287
6638.9586
5686.1497
3630.1388
903.64778
362.63765
76.672841
21.657423
3.8242612
9.8689039
13.001725
13.353672
10.214836
1.8125182
-4.8461647
-8.8253143
-10.735203
-11.594427
-12.066123
-12.348875
-12.481023
-12.466005
-12.33747
-12.128643
-11.860116
-11.548943
-11.212174
-10.864264
-10.516091
-10.175351
-9.8490152
-9.5412242
-9.2537465
-8.9878979
-8.7440993
-8.5220867
-8.3211138
-8.1401458
-7.9780223
-7.8335525
-7.7054991
-7.592651
-7.4938788
-7.4082599
-7.3349546
-7.2731001
-7.2219578
-7.1817105
-7.1520885
-7.1260597
1.2302178
1.223571
1.224743
1.2278908
1.2339793
1.2440347
1.2584749
1.2778323
1.3026544
1.3335272
1.3706916
1.4142177
1.4638687
1.5190248
1.5786074
1.6410311
1.7041078
1.7650361
1.8208757
1.8664668
1.8974595
1.9077076
1.8898507
1.8347321
1.7303537
1.5614206
1.3094089
0.94389602
0.41570899
-0.28590236
-1.062429
-1.7836348
-2.275033
-2.4549464
-1.6268848
0.66798802
1.8667224
1.1699283
-1.3642528
-1.8469715
-4.2471839
-21.028115
52.636203
1657.0997
4566.3532
6864.7756
6939.0688
6946.8089
7073.8999
7025.487
6894.8136
6776.6739
6754.3328
6868.5315
6376.7813
3542.6208
1505.877
-53.038512
-10.659882
5.5592976
8.0932708
10.995789
6.3811603
-9.3969971
-17.31782
-18.273111
-16.525785
-14.527754
-13.947298
-14.049518
-14.058569
-13.868333
-13.560731
-13.182442
-12.756251
-12.301265
-11.835881
-11.374914
-10.928963
-10.501895
-10.104958
-9.7366477
-9.3984149
-9.0903007
-8.8114818
-8.5605659
-8.33585
-8.1354234
-7.9574109
-7.7999468
-7.6612875
-7.5397653
-7.4338812
-7.3424098
-7.2642635
-7.1983641
-7.1438271
-7.10089
-7.0690802
-7.0398145
1.2900175
1.2815698
1.2823859
1.2853803
1.2916077
1.3024252
1.3184529
1.3404057
1.3691482
1.4056246
1.450268
1.503427
1.5651345
1.6349499
1.7118794
1.7943361
1.8800918
1.9662597
2.049359
2.1246947
2.1870103
2.2300218
2.2459006
2.2246609
2.1528255
2.0120654
1.7794113
1.4225138
0.88902755
0.14074124
-0.84155938
-1.8747605
-2.9877755
-4.2886572
-4.90922
-3.6860162
-1.7383266
-2.3256245
-10.772584
-18.169462
27.068544
270.80326
4126.0757
6299.5304
6636.2699
6579.0276
6574.7374
6600.5645
6646.6943
6624.2796
6563.6241
6508.2702
6487.672
6517.2211
6550.1235
6639.6432
5925.1996
3148.8014
178.97704
22.382268
1.7249191
17.321657
-7.3236104
-43.243919
-45.806626
-39.88132
-30.081776
-20.0615
-16.416514
-16.057808
-15.888767
-15.453313
-14.919253
-14.336271
-13.722326
-13.099277
-12.486585
-11.898371
-11.342798
-10.826481
-10.352198
-9.9198849
-9.5288904
-9.1775404
-8.86342
-8.5838342
-8.335901
-8.1167373
-7.9236255
-7.7540004
-7.6055691
-7.4761746
-7.3638324
-7.2670946
-7.184639
-7.1151597
-7.0576064
-7.0122749
-6.9785027
-6.9459283
1.3459845
1.3352559
1.3352276
1.3374362
1.3430185
1.3537073
1.3703546
1.393912
1.4253867
1.4668758
1.5184324
1.5810063
1.654988
1.7401931
1.8357956
1.9402546
2.0513303
2.1660301
2.28058
2.3908299
2.4906928
2.574479
2.6346044
2.6614368
2.6418471
2.5567021
2.3800407
2.0758947
1.5762033
0.78557509
-0.42529854
-1.9439488
-4.0406319
-8.1543733
-16.341375
-23.754721
-12.595049
12.313716
5.5754797
-60.226329
273.09802
3121.0698
5293.601
5932.4102
6134.2746
6186.4116
6210.5785
6234.7711
6267.0018
6261.0135
6231.4324
6196.3644
6173.437
6182.0374
6192.3993
6195.6746
6140.7687
5549.0031
2430.8834
-17.307228
11.280173
50.502629
-0.90488368
-70.630142
-55.920118
-32.206211
-24.783889
-23.498987
-19.116304
-18.478691
-17.936771
-17.221907
-16.415971
-15.580976
-14.742984
-13.925699
-13.147608
-12.419624
-11.74817
-11.135393
-10.581116
-10.083316
-9.6391088
-9.2447677
-8.8961403
-8.5889943
-8.3191015
-8.0824789