/*--------------------------------*- C++ -*----------------------------------*\
  =========                 |
  \\      /  F ield         | OpenFOAM: The Open Source CFD Toolbox
   \\    /   O peration     | Website:  https://openfoam.org
    \\  /    A nd           | Version:  9
     \\/     M anipulation  |
\*---------------------------------------------------------------------------*/
FoamFile
{
    format      ascii;
    class       volScalarField;
    location    "0.005";
    object      p;
}
// * * * * * * * * * * * * * * * * * * * * * * * * * * * * * * * * * * * * * //

dimensions      [1 -1 -2 0 0 0 0];

internalField   nonuniform List<scalar> 
10000
(
100000
100000
100000
100000
100000
100000
100000
100000
100000
100000
100000
100000
100000
100000
100000
100000
100000
100000
100000
100000
100000
100000
100000
100000
100000
100000
100000
100000
100000
100000
100000
100000
100000
100000
100000
100000
100000
100000
100000
100000
100000
100000
100000
100000
100000
100000
100000
100000
100000
100000
100000
100000
100000
100000
100000
100000
100000
100000
100000
100000
100000
100000
100000
100000
100000
100000
100000
100000
100000
100000
100000
100000
100000
100000
100000
100000
100000
100000
100000
100000
100000
100000
100000
100000
100000
100000
100000
100000
100000
100000
100000
100000
100000
100000
100000
100000
100000
100000
100000
100000
100000
100000
100000
100000
100000
100000
100000
100000
100000
100000
100000
100000
100000
100000
100000
100000
100000
100000
100000
100000
100000
100000
100000
100000
100000
100000
100000
100000
100000
100000
100000
100000
100000
100000
100000
100000
100000
100000
100000
100000
100000
100000
100000
100000
100000
100000
100000
100000
100000
100000
100000
100000
100000
100000
100000
100000
100000
100000
100000
100000
100000
100000
100000
100000
100000
100000
100000
100000
100000
100000
100000
100000
100000
100000
100000
100000
100000
100000
100000
100000
100000
100000
100000
100000
100000
100000
100000
100000
100000
100000
100000
100000
100000
100000
100000
100000
100000
100000
100000
100000
100000
100000
100000
100000
100000
100000
100000
100000
100000
100000
100000
100000
100000
100000
100000
100000
100000
100000
100000
100000
100000
100000
100000
100000
100000
100000
100000
100000
100000
100000
100000
100000
100000
100000
100000
100000
100000
100000
100000
100000
100000
100000
100000
100000
100000
100000
100000
100000
100000
100000
100000
100000
100000
100000
100000
100000
100000
100000
100000
100000
100000
100000
100000
100000
100000
100000
100000
100000
100000
100000
100000
100000
100000
100000
100000
100000
100000
100000
100000
100000
100000
100000
100000
100000
100000
100000
100000
100000
100000
100000
100000
100000
100000
100000
100000
100000
100000
100000
100000
100000
100000
100000
100000
100000
100000
100000
100000
100000
100000
100000
100000
100000
100000
100000
100000
100000
100000
100000
100000
100000
100000
100000
100000
100000
100000
100000
100000
100000
100000
100000
100000
100000
100000
100000
100000
100000
100000
100000
100000
100000
100000
100000
100000
100000
100000
100000
100000
100000
100000
100000
100000
100000
100000
100000
100000
100000
100000
100000
100000
100000
100000
100000
100000
100000
100000
100000
100000
100000
100000
100000
100000
100000
100000
100000
100000
100000
100000
100000
100000
100000
100000
100000
100000
100000
100000
100000
100000
100000
100000
100000
100000
100000
100000
100000
100000
100000
100000
100000
100000
100000
100000
100000
100000
100000
100000
100000
100000
100000
100000
100000
100000
100000
100000
100000
100000
100000
100000
100000
100000
100000
100000
100000
100000
100000
100000
100000
100000
100000
100000
100000
100000
100000
100000
100000
100000
100000
100000
100000
100000
100000
100000
100000
100000
100000
100000
100000
100000
100000
100000
100000
100000
100000
100000
100000
100000
100000
100000
100000
100000
100000
100000
100000
100000
100000
100000
100000
100000
100000
100000
100000
100000
100000
100000
100000
100000
100000
100000
100000
100000
100000
100000
100000
100000
100000
100000
100000
100000
100000
100000
100000
100000
100000
100000
100000
100000
100000
100000
100000
100000
100000
100000
100000
100000
100000
100000
100000
100000
100000
100000
100000
100000
100000
100000
100000
100000
100000
100000
100000
100000
100000
100000
100000
100000
100000
100000
100000
100000
100000
100000
100000
100000
100000
100000
100000
100000
100000
100000
100000
100000
100000
100000
100000
100000
100000
100000
100000
100000
100000
100000
100000
100000
100000
100000
100000
100000
100000
100000
100000
100000
100000
100000
100000
100000
100000
100000
100000
100000
100000
100000
100000
100000
100000
100000
100000
100000
100000
100000
100000
100000
100000
100000
100000
100000
100000
100000
100000
100000
100000
100000
100000
100000
100000
100000
100000
100000
100000
100000
100000
100000
100000
100000
100000
100000
100000
100000
100000
100000
100000
100000
100000
100000
100000
100000
100000
100000
100000
100000
100000
100000
100000
100000
100000
100000
100000
100000
100000
100000
100000
100000
100000
100000
100000
100000
100000
100000
100000
100000
100000
100000
100000
100000
100000
100000
100000
100000
100000
100000
100000
100000
100000
100000
100000
100000
100000
100000
100000
100000
100000
100000
100000
100000
100000
100000
100000
100000
100000
100000
100000
100000
100000
100000
100000
100000
100000
100000
100000
100000
100000
100000
100000
100000
100000
100000
100000
100000
100000
100000
100000
100000
100000
100000
100000
100000
100000
100000
100000
100000
100000
100000
100000
100000
100000
100000
100000
100000
100000
100000
100000
100000
100000
100000
100000
100000
100000
100000
100000
100000
100000
100000
100000
100000
100000
100000
100000
100000
100000
100000
100000
100000
100000
100000
100000
100000
100000
100000
100000
100000
100000
100000
100000
100000
100000
100000
100000
100000
100000
100000
100000
100000
100000
100000
100000
100000
100000
100000
100000
100000
100000
100000
100000
100000
100000
100000
100000
100000
100000
100000
100000
100000
100000
100000
100000
100000
100000
100000
100000
100000
100000
100000
100000
100000
100000
100000
100000
100000
100000
100000
100000
100000
100000
100000
100000
100000
100000
100000
100000
100000
100000
100000
100000
100000
100000
100000
100000
100000
100000
100000
100000
100000
100000
100000
100000
100000
100000
100000
100000
100000
100000
100000
100000
100000
100000
100000
100000
100000
100000
100000
100000
100000
100000
100000
100000
100000
100000
100000
100000
100000
100000
100000
100000
100000
100000
100000
100000
100000
100000
100000
100000
100000
100000
100000
100000
100000
100000
100000
100000
100000
100000
100000
100000
100000
100000
100000
100000
100000
100000
100000
100000
100000
100000
100000
100000
100000
100000
100000
100000
100000
100000
100000
100000
100000
100000
100000
100000
100000
100000
100000
100000
100000
100000
100000
100000
100000
100000
100000
100000
100000
100000
100000
100000
100000
100000
100000
100000
100000
100000
100000
100000
100000
100000
100000
100000
100000
100000
100000
100000
100000
100000
100000
100000
100000
100000
100000
100000
100000
100000
100000
100000
100000
100000
100000
100000
100000
100000
100000
100000
100000
100000
100000
100000
100000
100000
100000
100000
100000
100000
100000
100000
100000
100000
100000
100000
100000
100000
100000
100000
100000
100000
100000
100000
100000
100000
100000
100000
100000
100000
100000
100000
100000
100000
100000
100000
100000
100000
100000
100000
100000
100000
100000
100000
100000
100000
100000
100000
100000
100000
100000
100000
100000
100000
100000
100000
100000
100000
100000
100000
100000
100000
100000
100000
100000
100000
100000
100000
100000
100000
100000
100000
100000
100000
100000
100000
100000
100000
100000
100000
100000
100000
100000
100000
100000
100000
100000
100000
100000
100000
100000
100000
100000
100000
100000
100000
100000
100000
100000
100000
100000
100000
100000
100000
100000
100000
100000
100000
100000
100000
100000
100000
100000
100000
100000
100000
100000
100000
100000
100000
100000
100000
100000
100000
100000
100000
100000
100000
100000
100000
100000
100000
100000
100000
100000
100000
100000
100000
100000
100000
100000
100000
100000
100000
100000
100000
100000
100000
100000
100000
100000
100000
100000
100000
100000
100000
100000
100000
100000
100000
100000
100000
100000
100000
100000
100000
100000
100000
100000
100000
100000
100000
100000
100000
100000
100000
100000
100000
100000
100000
100000
100000
100000
100000
100000
100000
100000
100000
100000
100000
100000
100000
100000
100000
100000
100000
100000
100000
100000
100000
100000
100000
100000
100000
100000
100000
100000
100000
100000
100000
100000
100000
100000
100000
100000
100000
100000
100000
100000
100000
100000
100000
100000
100000
100000
100000
100000
100000
100000
100000
100000
100000
100000
100000
100000
100000
100000
100000
100000
100000
100000
100000
100000
100000
100000
100000
100000
100000
100000
100000
100000
100000
100000
100000
100000
100000
100000
100000
100000
100000
100000
100000
100000
100000
100000
100000
100000
100000
100000
100000
100000
100000
100000
100000
100000
100000
100000
100000
100000
100000
100000
100000
100000
100000
100000
100000
100000
100000
100000
100000
100000
100000
100000
100000
100000
100000
100000
100000
100000
100000
100000
100000
100000
100000
100000
100000
100000
100000
100000
100000
100000
100000
100000
100000
100000
100000
100000
100000
100000
100000
100000
100000
100000
100000
100000
100000
100000
100000
100000
100000
100000
100000
100000
100000
100000
100000
100000
100000
100000
100000
100000
100000
100000
100000
100000
100000
100000
100000
100000
100000
100000
100000
100000
100000
100000
100000
100000
100000
100000
100000
100000
100000
100000
100000
100000
100000
100000
100000
100000
100000
100000
100000
100000
100000
100000
100000
100000
100000
100000
100000
100000
100000
100000
100000
100000
100000
100000
100000
100000
100000
100000
100000
100000
100000
100000
100000
100000
100000
100000
100000
100000
100000
100000
100000
100000
100000
100000
100000
100000
100000
100000
100000
100000
100000
100000
100000
100000
100000
100000
100000
100000
100000
100000
100000
100000
100000
100000
100000
100000
100000
100000
100000
100000
100000
100000
100000
100000
100000
100000
100000
100000
100000
100000
100000
100000
100000
100000
100000
100000
100000
100000
100000
100000
100000
100000
100000
100000
100000
100000
100000
100000
100000
100000
100000
100000
100000
100000
100000
100000
100000
100000
100000
100000
100000
100000
100000
100000
100000
100000
100000
100000
100000
100000
100000
100000
100000
100000
100000
100000
100000
100000
100000
100000
100000
100000
100000
100000
100000
100000
100000
100000
100000
100000
100000
100000
100000
100000
100000
100000
100000
100000
100000
100000
100000
100000
100000
100000
100000
100000
100000
100000
100000
100000
100000
100000
100000
100000
100000
100000
100000
100000
100000
100000
100000
100000
100000
100000
100000
100000
100000
100000
100000
100000
100000
100000
100000
100000
100000
100000
100000
100000
100000
100000
100000
100000
100000
100000
100000
100000
100000
100000
100000
100000
100000
100000
100000
100000
100000
100000
100000
100000
100000
100000
100000
100000
100000
100000
100000
100000
100000
100000
100000
100000
100000
100000
100000
100000
100000
100000
100000
100000
100000
100000
100000
100000
100000
100000
100000
100000
100000
100000
100000
100000
100000
100000
100000
100000
100000
100000
100000
100000
100000
100000
100000
100000
100000
100000
100000
100000
100000
100000
100000
100000
100000
100000
100000
100000
100000
100000
100000
100000
100000
100000
100000
100000
100000
100000
100000
100000
100000
100000
100000
100000
100000
100000
100000
100000
100000
100000
100000
100000
100000
100000
100000
100000
100000
100000
100000
100000
100000
100000
100000
100000
100000
100000
100000
100000
100000
100000
100000
100000
100000
100000
100000
100000
100000
100000
100000
100000
100000
100000
100000
100000
100000
100000
100000
100000
100000
100000
100000
100000
100000
100000
100000
100000
100000
100000
100000
100000
100000
100000
100000
100000
100000
100000
100000
100000
100000
100000
100000
100000
100000
100000
100000
100000
100000
100000
100000
100000
100000
100000
100000
100000
100000
100000
100000
100000
100000
100000
100000
100000
100000
100000
100000
100000
100000
100000
100000
100000
100000
100000
100000
100000
100000
100000
100000
100000
100000
100000
100000
100000
100000
100000
100000
100000
100000
100000
100000
100000
100000
100000
100000
100000
100000
100000
100000
100000
100000
100000
100000
100000
100000
100000
100000
100000
100000
100000
100000
100000
100000
100000
100000
100000
100000
100000
100000
100000
100000
100000
100000
100000
100000
100000
100000
100000
100000
100000
100000
100000
100000
100000
100000
100000
100000
100000
100000
100000
100000
100000
100000
100000
100000
100000
100000
100000
100000
100000
100000
100000
100000
100000
100000
100000
100000
100000
100000
100000
100000
100000
100000
100000
100000
100000
100000
100000
100000
100000
100000
100000
100000
100000
100000
100000
100000
100000
100000
100000
100000
100000
100000
100000
100000
100000
100000
100000
100000
100000
100000
100000
100000
100000
100000
100000
100000
100000
100000
100000
100000
100000
100000
100000
100000
100000
100000
100000
100000
100000
100000
100000
100000
100000
100000
100000
100000
100000
100000
100000
100000
100000
100000
100000
100000
100000
100000
100000
100000
100000
100000
100000
100000
100000
100000
100000
100000
100000
100000
100000
100000
100000
100000
100000
100000
100000
100000
100000
100000
100000
100000
100000
100000
100000
100000
100000
100000
100000
100000
100000
100000
100000
100000
100000
100000
100000
100000
100000
100000
100000
100000
100000
100000
100000
100000
100000
100000
100000
100000
100000
100000
100000
100000
100000
100000
100000
100000
100000
100000
100000
100000
100000
100000
100000
100000
100000
100000
100000
100000
100000
100000
100000
100000
100000
100000
100000
100000
100000
100000
100000
100000
100000
100000
100000
100000
100000
100000
100000
100000
100000
100000
100000
100000
100000
100000
100000
100000
100000
100000
100000
100000
100000
100000
100000
100000
100000
100000
100000
100000
100000
100000
100000
100000
100000
100000
100000
100000
100000
100000
100000
100000
100000
100000
100000
100000
100000
100000
100000
100000
100000
100000
100000
100000
100000
100000
100000
100000
100000
100000
100000
100000
100000
100000
100000
100000
100000
100000
100000
100000
100000
100000
100000
100000
100000
100000
100000
100000
100000
100000
100000
100000
100000
100000
100000
100000
100000
100000
100000
100000
100000
100000
100000
100000
100000
100000
100000
100000
100000
100000
100000
100000
100000
100000
100000
100000
100000
100000
100000
100000
100000
100000
100000
100000
100000
100000
100000
100000
100000
100000
100000
100000
100000
100000
100000
100000
100000
100000
100000
100000
100000
100000
100000
100000
100000
100000
100000
100000
100000
100000
100000
100000
100000
100000
100000
100000
100000
100000
100000
100000
100000
100000
100000
100000
100000
100000
100000
100000
100000
100000
100000
100000
100000
100000
100000
100000
100000
100000
100000
100000
100000
100000
100000
100000
100000
100000
100000
100000
100000
100000
100000
100000
100000
100000
100000
100000
100000
100000
100000
100000
100000
100000
100000
100000
100000
100000
100000
100000
100000
100000
100000
100000
100000
100000
100000
100000
100000
100000
100000
100000
100000
100000
100000
100000
100000
100000
100000
100000
100000
100000
100000
100000
100000
100000
100000
100000
100000
100000
100000
100000
100000
100000
100000
100000
100000
100000
100000
100000
100000
100000
100000
100000
100000
100000
100000
100000
100000
100000
100000
100000
100000
100000
100000
100000
100000
100000
100000
100000
100000
100000
100000
100000
100000
100000
100000
100000
100000
100000
100000
100000
100000
100000
100000
100000
100000
100000
100000
100000
100000
100000
100000
100000
100000
100000
100000
100000
100000
100000
100000
100000
100000
100000
100000
100000
100000
100000
100000
100000
100000
100000
100000
100000
100000
100000
100000
100000
100000
100000
100000
100000
100000
100000
100000
100000
100000
100000
100000
100000
100000
100000
100000
100000
100000
100000
100000
100000
100000
100000
100000
100000
100000
100000
100000
100000
100000
100000
100000
100000
100000
100000
100000
100000
100000
100000
100000
100000
100000
100000
100000
100000
100000
100000
100000
100000
100000
100000
100000
100000
100000
100000
100000
100000
100000
100000
100000
100000
100000
100000
100000
100000
100000
100000
100000
100000
100000
100000
100000
100000
100000
100000
100000
100000
100000
100000
100000
100000
100000
100000
100000
100000
100000
100000
100000
100000
100000
100000
100000
100000
100000
100000
100000
100000
100000
100000
100000
100000
100000
100000
100000
100000
100000
100000
100000
100000
100000
100000
100000
100000
100000
100000
100000
100000
100000
100000
100000
100000
100000
100000
100000
100000
100000
100000
100000
100000
100000
100000
100000
100000
100000
100000
100000
100000
100000
100000
100000
100000
100000
100000
100000
100000
100000
100000
100000
100000
100000
100000
100000
100000
100000
100000
100000
100000
100000
100000
100000
100000
100000
100000
100000
100000
100000
100000
100000
100000
100000
100000
100000
100000
100000
100000
100000
100000
100000
100000
100000
100000
100000
100000
100000
100000
100000
100000
100000
100000
100000
100000
100000
100000
100000
100000
100000
100000
100000
100000
100000
100000
100000
100000
100000
100000
100000
100000
100000
100000
100000
100000
100000
100000
100000
100000
100000
100000
100000
100000
100000
100000
100000
100000
100000
100000
100000
100000
100000
100000
100000
100000
100000
100000
100000
100000
100000
100000
100000
100000
100000
100000
100000
100000
100000
100000
100000
100000
100000
100000
100000
100000
100000
100000
100000
100000
100000
100000
100000
100000
100000
100000
100000
100000
100000
100000
100000
100000
100000
100000
100000
100000
100000
100000
100000
100000
100000
100000
100000
100000
100000
100000
100000
100000
100000
100000
100000
100000
100000
100000
100000
100000
100000
100000
100000
100000
100000
100000
100000
100000
100000
100000
100000
100000
100000
100000
100000
100000
100000
100000
100000
100000
100000
100000
100000
100000
100000
100000
100000
100000
100000
100000
100000
100000
100000
100000
100000
100000
100000
100000
100000
100000
100000
100000
100000
100000
100000
100000
100000
100000
100000
100000
100000
100000
100000
100000
100000
100000
100000
100000
100000
100000
100000
100000
100000
100000
100000
100000
100000
100000
100000
100000
100000
100000
100000
100000
100000
100000
100000
100000
100000
100000
100000
100000
100000
100000
100000
100000
100000
100000
100000
100000
100000
100000
100000
100000
100000
100000
100000
100000
100000
100000
100000
100000
100000
100000
100000
100000
100000
100000
100000
100000
100000
100000
100000
100000
100000
100000
100000
100000
100000
100000
100000
100000
100000
100000
100000
100000
100000
100000
100000
100000
100000
100000
100000
100000
100000
100000
100000
100000
100000
100000
100000
100000
100000
100000
100000
100000
100000
100000
100000
100000
100000
100000
100000
100000
100000
100000
100000
100000
100000
100000
100000
100000
100000
100000
100000
100000
100000
100000
100000
100000
100000
100000
100000
100000
100000
100000
100000
100000
100000
100000
100000
100000
100000
100000
100000
100000
100000
100000
100000
100000
100000
100000
100000
100000
100000
100000
100000
100000
100000
100000
100000
100000
100000
100000
100000
100000
100000
100000
100000
100000
100000
100000
100000
100000
100000
100000
100000
100000
100000
100000
100000
100000
100000
100000
100000
100000
100000
100000
100000
100000
100000
100000
100000
100000
100000
100000
100000
100000
100000
100000
100000
100000
100000
100000
100000
100000
100000
100000
100000
100000
100000
100000
100000
100000
100000
100000
100000
100000
100000
100000
100000
100000
100000
100000
100000
100000
100000
100000
100000
100000
100000
100000
100000
100000
100000
100000
100000
100000
100000
100000
100000
100000
100000
100000
100000
100000
100000
100000
100000
100000
100000
100000
100000
100000
100000
100000
100000
100000
100000
100000
100000
100000
100000
100000
100000
100000
100000
100000
100000
100000
100000
100000
100000
100000
100000
100000
100000
100000
100000
100000
100000
100000
100000
100000
100000
100000
100000
100000
100000
100000
100000
100000
100000
100000
100000
100000
100000
100000
100000
100000
100000
100000
100000
100000
100000
100000
100000
100000
100000
100000
100000
100000
100000
100000
100000
100000
100000
100000
100000
100000
100000
100000
100000
100000
100000
100000
100000
100000
100000
100000
100000
100000
100000
100000
100000
100000
100000
100000
100000
100000
100000
100000
100000
100000
100000
100000
100000
100000
100000
100000
100000
100000
100000
100000
100000
100000
100000
100000
100000
100000
100000
100000
100000
100000
100000
100000
100000
100000
100000
100000
100000
100000
100000
100000
100000
100000
100000
100000
100000
100000
100000
100000
100000
100000
100000
100000
100000
100000
100000
100000
100000
100000
100000
100000
100000
100000
100000
100000
100000
100000
100000
100000
100000
100000
100000
100000
100000
100000
100000
100000
100000
100000
100000
100000
100000
100000
100000
100000
100000
100000
100000
100000
100000
100000
100000
100000
100000
100000
100000
100000
100000
100000
100000
100000
100000
100000
100000
100000
100000
100000
100000
100000
100000
100000
100000
100000
100000
100000
100000
100000
100000
100000
100000
100000
100000
100000
100000
100000
99999.9
99999.9
99999.9
99999.9
99999.9
99999.9
99999.9
99999.9
99999.8
99999.8
99999.8
99999.7
99999.7
99999.7
99999.6
99999.6
99999.5
99999.4
99999.3
99999.3
99999.2
99999
99998.9
99998.8
99998.6
99998.4
99998.2
99998
99997.7
99997.4
99997.1
99996.8
99996.4
99995.9
99995.4
99994.9
99994.3
99993.6
99992.9
99992.1
99991.2
99990.2
99989.2
99988
99986.8
99985.4
99983.8
99982.2
99980.4
99978.4
99976.3
99974
99971.5
99968.8
99965.9
99962.8
99959.4
99955.8
99951.9
99947.7
99943.2
99938.4
99933.3
99927.9
99922
99915.8
99909.3
99902.3
99894.9
99887
99878.8
99870
99860.8
99851
99840.8
99830
99818.7
99806.9
99794.5
99781.5
99767.9
99753.8
99739
99723.6
99707.7
99691
99673.8
99655.9
99637.3
99618.1
99598.2
99577.7
99556.5
99534.7
99512.1
99489
99465.1
99440.6
99415.4
99389.6
99363.1
99336
99308.2
99279.8
99250.7
99221
99190.7
99159.8
99128.3
99096.1
99063.4
99030.1
98996.2
98961.8
98926.8
98891.2
98855.1
98818.5
98781.3
98743.7
98705.5
98666.9
98627.8
98588.2
98548.2
98507.7
98466.7
98425.4
98383.6
98341.4
98298.8
98255.9
98212.5
98168.8
98124.7
98080.3
98035.5
97990.4
97944.9
97899.2
97853.1
97806.8
97760.1
97713.2
97665.9
97618.5
97570.7
97522.7
97474.4
97426
97377.2
97328.3
97279.1
97229.7
97180.1
97130.3
97080.3
97030.1
96979.8
96929.2
96878.5
96827.6
96776.5
96725.3
96674
96622.4
96570.8
96518.9
96467
96414.9
96362.7
96310.4
96257.9
96205.3
96152.6
96099.8
96046.9
95993.9
95940.8
95887.6
95834.3
95780.9
95727.4
95673.8
95620.1
95566.4
95512.6
95458.7
95404.7
95350.7
95296.5
95242.4
95188.1
95133.8
95079.4
95025
94970.5
94916
94861.4
94806.8
94752.1
94697.3
94642.6
94587.7
94532.9
94477.9
94423
94368
94313
94257.9
94202.8
94147.7
94092.5
94037.3
93982.1
93926.8
93871.5
93816.2
93760.9
93705.6
93650.2
93594.8
93539.4
93483.9
93428.5
93373
93317.5
93262
93206.5
93150.9
93095.4
93039.8
92984.3
92928.7
92873.1
92817.5
92761.9
92706.2
92650.6
92595
92539.3
92483.7
92428
92372.4
92316.7
92261.1
92205.4
92149.7
92094.1
92038.4
91982.7
91927.1
91871.4
91815.7
91760.1
91704.4
91648.7
91593.1
91537.4
91481.8
91426.1
91370.5
91314.9
91259.3
91203.6
91148
91092.4
91036.8
90981.2
90925.6
90870.1
90814.5
90759
90703.4
90647.9
90592.3
90536.8
90481.3
90425.8
90370.3
90314.9
90259.4
90204
90148.5
90093.1
90037.7
89982.3
89926.9
89871.6
89816.2
89760.9
89705.5
89650.2
89594.9
89539.6
89484.4
89429.1
89373.9
89318.7
89263.5
89208.3
89153.1
89098
89042.8
88987.7
88932.6
88877.5
88822.4
88767.4
88712.4
88657.3
88602.3
88547.4
88492.4
88437.5
88382.5
88327.6
88272.8
88217.9
88163
88108.2
88053.4
87998.6
87943.9
87889.1
87834.4
87779.7
87725
87670.3
87615.7
87561
87506.4
87451.9
87397.3
87342.7
87288.2
87233.7
87179.2
87124.8
87070.4
87015.9
86961.5
86907.2
86852.8
86798.5
86744.2
86689.9
86635.6
86581.4
86527.2
86473
86418.8
86364.7
86310.5
86256.4
86202.4
86148.3
86094.3
86040.3
85986.3
85932.3
85878.4
85824.4
85770.5
85716.7
85662.8
85609
85555.2
85501.4
85447.6
85393.9
85340.2
85286.5
85232.9
85179.2
85125.6
85072
85018.4
84964.9
84911.4
84857.9
84804.4
84751
84697.6
84644.2
84590.8
84537.4
84484.1
84430.8
84377.5
84324.3
84271.1
84217.9
84164.7
84111.5
84058.4
84005.3
83952.2
83899.2
83846.1
83793.1
83740.2
83687.2
83634.3
83581.4
83528.5
83475.6
83422.8
83370
83317.2
83264.5
83211.8
83159.1
83106.4
83053.7
83001.1
82948.5
82895.9
82843.4
82790.8
82738.3
82685.9
82633.4
82581
82528.6
82476.2
82423.9
82371.6
82319.3
82267
82214.7
82162.5
82110.3
82058.2
82006
81953.9
81901.8
81849.7
81797.7
81745.7
81693.7
81641.7
81589.8
81537.9
81486
81434.1
81382.3
81330.5
81278.7
81227
81175.2
81123.5
81071.9
81020.2
80968.6
80917
80865.4
80813.8
80762.3
80710.8
80659.4
80607.9
80556.5
80505.1
80453.7
80402.4
80351.1
80299.8
80248.5
80197.3
80146.1
80094.9
80043.7
79992.6
79941.5
79890.4
79839.3
79788.3
79737.3
79686.3
79635.4
79584.5
79533.6
79482.7
79431.8
79381
79330.2
79279.5
79228.7
79178
79127.3
79076.6
79026
78975.4
78924.8
78874.2
78823.7
78773.2
78722.7
78672.3
78621.8
78571.4
78521.1
78470.7
78420.4
78370.1
78319.8
78269.6
78219.4
78169.2
78119
78068.9
78018.7
77968.7
77918.6
77868.6
77818.5
77768.6
77718.6
77668.7
77618.8
77568.9
77519
77469.2
77419.4
77369.6
77319.9
77270.2
77220.5
77170.8
77121.2
77071.5
77021.9
76972.4
76922.8
76873.3
76823.8
76774.4
76724.9
76675.5
76626.1
76576.8
76527.5
76478.2
76428.9
76379.6
76330.4
76281.2
76232
76182.9
76133.8
76084.7
76035.6
75986.6
75937.5
75888.5
75839.6
75790.6
75741.7
75692.8
75644
75595.1
75546.3
75497.6
75448.8
75400.1
75351.4
75302.7
75254
75205.4
75156.8
75108.2
75059.7
75011.2
74962.7
74914.2
74865.7
74817.3
74768.9
74720.6
74672.2
74623.9
74575.6
74527.4
74479.1
74430.9
74382.7
74334.6
74286.4
74238.3
74190.2
74142.2
74094.2
74046.2
73998.2
73950.2
73902.3
73854.4
73806.5
73758.7
73710.9
73663.1
73615.3
73567.5
73519.8
73472.1
73424.5
73376.8
73329.2
73281.6
73234
73186.5
73139
73091.5
73044
72996.6
72949.2
72901.8
72854.5
72807.1
72759.8
72712.5
72665.3
72618.1
72570.8
72523.7
72476.5
72429.4
72382.3
72335.2
72288.2
72241.1
72194.1
72147.2
72100.2
72053.3
72006.4
71959.5
71912.7
71865.9
71819.1
71772.3
71725.5
71678.8
71632.1
71585.5
71538.8
71492.2
71445.6
71399.1
71352.5
71306
71259.5
71213.1
71166.6
71120.2
71073.8
71027.5
70981.1
70934.8
70888.5
70842.3
70796
70749.8
70703.6
70657.5
70611.3
70565.2
70519.2
70473.1
70427.1
70381.1
70335.1
70289.1
70243.2
70197.3
70151.4
70105.6
70059.7
70013.9
69968.1
69922.4
69876.7
69831
69785.3
69739.6
69694
69648.4
69602.8
69557.3
69511.7
69466.2
69420.8
69375.3
69329.9
69284.5
69239.1
69193.8
69148.4
69103.1
69057.9
69012.6
68967.4
68922.2
68877
68831.9
68786.7
68741.6
68696.6
68651.5
68606.5
68561.5
68516.5
68471.5
68426.6
68381.7
68336.8
68292
68247.2
68202.4
68157.6
68112.8
68068.1
68023.4
67978.7
67934.1
67889.5
67844.8
67800.3
67755.7
67711.2
67666.7
67622.2
67577.8
67533.3
67488.9
67444.5
67400.2
67355.9
67311.5
67267.3
67223
67178.8
67134.6
67090.4
67046.2
67002.1
66958
66913.9
66869.8
66825.8
66781.8
66737.8
66693.9
66649.9
66606
66562.1
66518.3
66474.4
66430.6
66386.8
66343.1
66299.3
66255.6
66211.9
66168.2
66124.6
66081
66037.4
65993.8
65950.3
65906.8
65863.3
65819.8
65776.3
65732.9
65689.5
65646.1
65602.8
65559.5
65516.2
65472.9
65429.6
65386.4
65343.2
65300
65256.9
65213.7
65170.6
65127.6
65084.5
65041.5
64998.4
64955.5
64912.5
64869.6
64826.6
64783.8
64740.9
64698.1
64655.2
64612.4
64569.7
64526.9
64484.2
64441.5
64398.8
64356.2
64313.6
64271
64228.4
64185.8
64143.3
64100.8
64058.3
64015.9
63973.4
63931
63888.6
63846.3
63803.9
63761.6
63719.3
63677.1
63634.8
63592.6
63550.4
63508.3
63466.1
63424
63381.9
63339.8
63297.8
63255.7
63213.7
63171.8
63129.8
63087.9
63046
63004.1
62962.2
62920.4
62878.6
62836.8
62795
62753.3
62711.5
62669.9
62628.2
62586.5
62544.9
62503.3
62461.7
62420.2
62378.7
62337.1
62295.7
62254.2
62212.8
62171.4
62130
62088.6
62047.3
62005.9
61964.6
61923.4
61882.1
61840.9
61799.7
61758.5
61717.4
61676.2
61635.1
61594.1
61553
61512
61470.9
61430
61389
61348
61307.1
61266.2
61225.4
61184.5
61143.7
61102.9
61062.1
61021.3
60980.6
60939.9
60899.2
60858.5
60817.9
60777.3
60736.7
60696.1
60655.6
60615
60574.5
60534.1
60493.6
60453.2
60412.8
60372.4
60332
60291.7
60251.3
60211.1
60170.8
60130.5
60090.3
60050.1
60009.9
59969.8
59929.6
59889.5
59849.4
59809.4
59769.3
59729.3
59689.3
59649.3
59609.4
59569.5
59529.6
59489.7
59449.8
59410
59370.2
59330.4
59290.6
59250.9
59211.2
59171.5
59131.8
59092.1
59052.5
59012.9
58973.3
58933.7
58894.2
58854.7
58815.2
58775.7
58736.3
58696.8
58657.4
58618.1
58578.7
58539.4
58500
58460.8
58421.5
58382.2
58343
58303.8
58264.6
58225.5
58186.4
58147.2
58108.2
58069.1
58030
57991
57952
57913.1
57874.1
57835.2
57796.3
57757.4
57718.5
57679.7
57640.9
57602.1
57563.3
57524.5
57485.8
57447.1
57408.4
57369.8
57331.1
57292.5
57253.9
57215.3
57176.8
57138.3
57099.7
57061.3
57022.8
56984.4
56945.9
56907.6
56869.2
56830.8
56792.5
56754.2
56715.9
56677.6
56639.4
56601.2
56563
56524.8
56486.7
56448.5
56410.4
56372.3
56334.3
56296.2
56258.2
56220.2
56182.3
56144.3
56106.4
56068.5
56030.6
55992.7
55954.9
55917
55879.2
55841.5
55803.7
55766
55728.3
55690.6
55652.9
55615.3
55577.6
55540
55502.5
55464.9
55427.4
55389.9
55352.4
55314.9
55277.4
55240
55202.6
55165.2
55127.9
55090.5
55053.2
55015.9
54978.6
54941.4
54904.1
54866.9
54829.7
54792.6
54755.4
54718.3
54681.2
54644.1
54607.1
54570
54533
54496
54459
54422.1
54385.2