/*--------------------------------*- C++ -*----------------------------------*\
  =========                 |
  \\      /  F ield         | OpenFOAM: The Open Source CFD Toolbox
   \\    /   O peration     | Website:  https://openfoam.org
    \\  /    A nd           | Version:  9
     \\/     M anipulation  |
\*---------------------------------------------------------------------------*/
FoamFile
{
    format      ascii;
    class       volScalarField;
    location    "4";
    object      p;
}
// * * * * * * * * * * * * * * * * * * * * * * * * * * * * * * * * * * * * * //

dimensions      [0 2 -2 0 0 0 0];

internalField   nonuniform List<scalar> 
918
(
0.43845579
1.6913077
0.011748344
0.41342426
0.0038336803
1.6620226
-1.1479405
1.114071
0.50075056
-0.1698861
0.029508967
0.78444936
1.5331302
1.2972144
-1.0275589
0.027753083
1.0719785
-1.1618961
0.60557122
0.017851474
1.393975
0.41555467
0.43922054
0.42588679
0.89169887
1.3618841
1.3949698
-0.0031629187
0.0036442535
0.0039630982
0.0034795883
0.0038751183
0.012596651
1.538769
1.5923576
1.6160687
0.74708709
0.052095106
-0.81158736
-0.97779483
-0.92024302
-1.3277325
1.0908709
1.1056747
-0.42646706
1.1121979
1.141691
0.75209908
0.50826627
0.48748297
0.42881562
0.45986043
0.46399757
0.37538423
-0.20218422
-0.30484246
-0.11097856
-0.069908312
0.1101966
0.025570247
0.027486842
0.036747729
0.037588118
0.67939137
0.7792717
0.77610356
0.79739524
0.80420721
1.6285567
1.5914263
1.6191478
1.5655902
1.5564188
1.5134925
1.4766453
1.3297371
1.3402398
1.2935317
1.2677751
-1.5650829
-2.573219
-0.44875255
-0.11069878
-0.0014969281
0.035210317
0.039476444
1.040968
1.0577687
1.0582527
1.0836604
0.95803319
-1.0117283
-1.4261066
0.65289784
0.70841221
0.45833189
0.44732946
0.44401509
0.50823303
0.020361871
0.024674436
-0.0042751963
0.018282455
0.013478573
1.3019883
1.2675529
0.4776978
0.67442664
0.81543439
0.84823677
0.8313417
0.4098641
0.91723682
0.96192274
1.0257063
1.282961
1.3364654
1.294537
1.3793367
1.3338419
1.4414122
1.4668095
0.013087392
0.0023041123
0.024991638
0.01452206
0.023125938
0.73479236
0.72935461
0.77056492
0.74664977
0.75059349
-0.025130023
-0.12488731
0.17540318
0.38609562
-0.61251793
-0.74020396
-1.133686
-1.0813163
-1.4544179
1.1150066
1.0780391
1.0981138
-0.42508114
-0.28833998
-0.53945289
-0.23491219
-0.35215421
0.75781951
0.74960463
0.76174005
0.61107919
0.71707696
0.70989031
0.42275959
0.44953907
0.464033
0.40960217
0.48337263
0.32909991
0.28947315
-0.64673721
-0.34589971
-0.64504458
-0.042196427
-0.021290722
0.12528824
0.14252372
0.10399265
0.094470909
-0.0072668562
0.0108903
0.010249544
0.03545412
0.033656118
0.66382673
0.65067832
0.69068389
0.70585847
0.76240755
0.76376233
0.76881636
0.76405716
1.4048136
1.4276849
1.4699626
1.4335801
-3.8517012
-6.2752366
0.26004609
0.47185568
-0.0029835869
-0.0013816113
0.0020443852
-0.0017307066
0.010424731
0.0042067629
0.066940681
0.061143119
0.045232723
0.051823997
1.0218483
1.0322641
0.9282746
1.0168931
0.83825469
0.83809297
0.77842547
0.77611391
0.73420425
0.77457673
0.033887704
0.024700763
0.033678821
1.1395567
1.1978759
1.1810747
0.31939134
0.17769716
0.48439194
0.53104757
1.0040171
0.97864647
1.0090999
1.1063567
1.1518298
1.4590557
1.4715619
1.5063087
1.5044752
1.5532606
1.5457265
1.5035247
0.70686256
0.72158014
0.71904619
0.77127998
0.76308543
0.77081585
0.76297373
0.76201914
0.76268648
-0.21285312
-0.46779067
0.95609383
0.78638072
0.49857885
0.72103787
1.079896
1.1415221
1.0646379
1.0747377
1.0891703
-0.10704321
-0.22745584
0.25234287
0.22401676
0.57050116
0.62554515
0.59994218
1.3785953
1.37474
1.4218439
1.3858445
1.3313306
1.3533153
-0.47219527
-1.4929179
-0.90970495
0.94619343
0.68739929
0.81345413
0.080818184
0.070279794
0.071343012
0.98931449
1.0732967
0.52622571
0.691897
0.67356686
1.2246217
1.2539458
1.3111022
1.2261102
1.2602942
1.2998969
1.2848679
1.0392338
0.96412874
1.0742329
1.0796264
1.116198
0.1182133
0.021210666
-0.064700174
0.1580803
0.19738145
0.17269151
1.0303138
1.0541987
1.1056684
0.51649727
0.46235077
0.0063205957
0.011838736
0.41352977
0.43169894
0.0022128937
0.0087525832
0.77412183
-0.87194511
0.19606681
0.74412904
0.75532089
0.53980219
-0.13703509
0.36888892
0.039538323
0.11587523
0.08215273
0.77491218
0.68704094
0.6495426
0.023502673
0.021915113
0.024282896
-0.43932712
0.58037887
0.63256143
0.53627026
0.45165307
0.48886239
0.021268741
0.0091012321
0.0038821041
0.020807696
0.011611457
0.022750434
0.73107434
0.75520883
-0.25380488
0.53304916
0.46477282
0.4767841
0.64830424
0.58007853
0.64589565
0.027708331
0.017156004
0.017263189
0.38264557
0.5531568
1.157787
1.4552012
1.0923551
0.69976628
0.33443398
0.98601661
1.1156544
0.93575107
1.1919967
1.0264828
1.0636078
0.2790118
0.077636506
0.26828999
0.20610311
0.70412618
0.77915635
0.72335055
0.75810698
0.65697
0.73262638
0.58309013
0.66783197
0.56651521
0.53844646
-0.059830631
-0.090836361
-0.15831261
-0.2557859
0.39223014
0.49104991
0.29506607
0.30519522
0.17866721
0.052565974
0.041904583
0.037879452
0.033512044
0.088116072
0.085287421
0.10071477
0.10358377
0.07360038
0.067931242
0.090916676
0.07813945
0.091636561
0.77111074
0.76511071
0.77868286
0.7925604
0.7008584
0.70745404
0.66210711
0.69121895
0.66709415
0.57962512
0.64950764
0.59793167
0.010426904
0.015455154
0.01507738
0.022599256
0.039344257
0.028975833
0.025432913
0.0089026849
0.0068123118
0.016911298
0.028083858
0.026494749
-0.38304152
-0.56383541
0.87997558
0.72304234
0.41981266
0.74601163
0.67614272
0.74970239
0.64894604
0.58502926
0.5227112
0.57420173
0.64284419
0.76051753
0.76361275
0.75500964
0.75706357
-0.13750233
-0.42039152
-0.13785792
-0.18772407
0.067270153
0.95932802
0.55898587
0.44877002
0.4472722
0.78378234
1.1566491
1.0927621
1.4228855
1.4080663
-0.48442222
0.10467696
-0.22610344
0.35421113
0.43708145
1.126776
1.2183582
1.2265134
1.1918198
1.0920379
-0.29937677
0.62393264
-0.052506724
-0.04059243
0.2690499
0.10220141
1.1196193
1.0147689
1.0324015
1.0462211
1.0903723
1.0173926
0.96503315
0.97771233
1.0402967
1.0506483
0.72405357
0.42271336
0.30045871
0.3060805
1.0082004
0.77604277
0.86595701
0.73784284
0.75597214
0.73938332
0.76682873
0.74296741
0.73933445
0.75226802
0.75102323
0.76088391
0.7573523
0.70685659
0.77353043
0.7245531
-0.048956622
-0.025611473
-0.01692329
-0.29832012
-0.28677113
-0.3964469
-0.16090812
0.16149984
0.1420708
0.38747287
0.52458218
0.082530345
-0.18518091
-0.10126546
-0.004083748
0.2228193
0.21198
0.14794525
0.1896754
0.22561738
0.18310832
0.25479398
0.23723595
0.052938917
0.070575424
0.046288986
0.03632372
0.12595637
0.15553031
0.15107976
0.066969182
0.07465216
0.046830921
0.047365518
0.1106154
0.064379107
0.083137295
0.098728254
0.036011397
0.034045844
0.054734655
0.0533731
0.063117368
0.064467093
0.75216452
0.75592028
0.75978092
0.78052272
0.79116285
0.8290204
0.78455078
0.72863587
0.71500198
0.72201858
0.68930177
0.71948813
0.69605367
0.72090684
0.73319827
0.7539335
0.74823005
0.75449594
0.73814643
0.73937996
0.73397816
0.73511335
0.6916533
0.66947892
0.63711601
0.031141859
0.012591719
0.015897584
0.031361943
0.010770267
0.012937503
0.058054721
0.056795255
0.059589913
0.042877794
0.059549456
0.023828037
0.042479206
-0.15269048
0.055636205
-0.40521197
-0.46974502
-0.56081438
0.86789073
0.94622978
0.73996455
0.64142612
0.67391783
0.78867527
0.83016149
0.52959382
0.63803252
0.62452953
1.020409
0.99623887
0.67730225
0.65062824
0.71353913
0.71412562
0.70261341
0.08857181
0.24614708
0.16696632
0.32378585
0.2510668
0.26557824
0.68616263
0.58863641
0.75468081
0.69898534
0.94873243
0.97666568
0.87779287
0.92735405
0.93031011
0.63596898
0.77258947
0.86711741
0.78493935
0.86666665
0.8884084
0.8241713
0.86695046
0.80891071
0.74601718
0.74205219
0.63988546
0.66316605
0.63179801
0.5972545
0.76219686
0.73506504
0.73536148
0.73282322
0.77213721
0.82493947
0.807873
0.83494794
0.85126069
0.74730375
0.68344967
0.69368882
0.74120475
0.68523057
0.70103829
0.72425444
0.51842292
0.59346745
0.26562777
-0.12092888
-0.067734702
-0.21390884
-0.3056841
-0.069137072
0.19567487
-0.58920565
-0.46849877
-0.80898532
0.46560831
1.0924058
1.0272456
1.0377969
1.0885335
1.0298633
1.014088
1.1154842
1.1322205
0.98606679
1.0126433
1.0224767
0.89688732
0.94316455
0.98908818
0.99977446
0.68334252
0.57307326
0.4930869
0.52161329
0.29864356
0.3650125
0.66641066
0.56769685
0.44297871
0.43649607
0.70986087
0.53032085
0.61137377
0.70421468
0.60442652
0.53132592
0.81568373
0.94122703
0.91497953
0.86719727
0.72981235
0.75277733
0.81037382
0.8736535
0.89885117
0.95180154
0.74572833
0.73979696
0.7641235
0.75785697
0.74718489
0.7476032
0.7522865
0.75481544
0.73824965
0.74939195
0.76674083
0.021377261
0.028051446
0.0045560211
0.01183281
0.026924661
0.0063493497
0.09707159
0.07707313
0.063783345
0.063759943
0.018893105
-0.014249878
0.02850172
0.050554435
0.22727387
0.26104742
0.23956323
0.1891669
0.33596447
0.45856225
0.53626442
0.47281289
0.26663108
0.30487114
0.36703101
0.1135085
0.120269
0.10284698
0.14297791
0.13190012
0.047578402
0.043665183
0.042639829
0.059625413
0.053162619
0.038312862
0.03340168
0.036563761
0.034799898
0.044967405
0.037592959
0.73640723
0.7272872
0.71279139
0.71085643
0.70959981
0.73189691
0.737652
0.74122104
0.74687264
0.75083258
0.74622426
0.74953124
0.75255589
0.043886239
0.040503336
0.039419019
0.03207396
0.033791501
0.032691718
0.026184433
0.40719279
0.2333729
0.34460556
0.115721
-0.24183289
-0.084237911
0.71220795
0.93835961
0.98311678
0.96715454
0.82945442
0.83876829
0.95009732
1.0204722
0.56463388
0.74169893
0.66022976
0.93306877
0.92512018
0.97972839
0.78408132
0.47043453
0.34098719
0.52444393
0.44555892
0.32546984
0.44580608
0.32493757
0.38095243
0.41126891
0.50217555
0.37008119
0.5086049
0.60690353
0.67571883
0.52480032
0.6657963
0.45701181
0.59220386
0.46418753
0.4875476
0.44878303
0.94804821
0.97624049
1.000739
0.94620843
0.99537104
0.87165012
0.87032056
0.88340664
0.90328743
0.8824682
-0.75674183
-0.90587243
-1.2112304
-0.80226081
-0.31003446
0.31158314
0.29094374
0.83893496
0.70135098
0.99423987
0.95547871
0.92740638
0.86668039
0.80342769
0.89601469
0.55733787
0.69741138
0.68508185
0.66097444
0.51038652
0.41661504
0.8923285
0.88598046
0.92758869
0.95940293
0.92481689
0.97362902
0.74243963
0.74610957
0.74045312
0.74240271
0.72096309
0.71991258
0.13510778
0.10384778
0.17839604
0.16542032
0.10177378
0.055997083
0.046244371
0.041325975
0.044818675
0.049815861
0.043140106
0.046894273
0.41447739
0.4192454
0.15309402
0.34240285
0.030905746
-0.11679989
-0.18824141
0.092491905
0.22033456
0.26989631
0.6389781
0.79919427
0.71759706
0.72561571
0.59135395
0.64038267
0.87634924
0.70316398
0.83345809
0.6866298
0.70731339
-0.16974363
-0.73417044
-0.49416597
0.74171382
0.67238946
0.2390377
-0.054044033
-0.0099907146
0.39473315
0.74395094
0.64334538
0.72139022
0.78591098
0.79535656
-0.16052466
-0.026057109
-0.0044720434
0.26289693
0.41187069
0.10148762
0.18639707
0.15985388
0.36157883
)
;

boundaryField
{
    wall-4
    {
        type            zeroGradient;
    }
    velocity-inlet-5
    {
        type            zeroGradient;
    }
    velocity-inlet-6
    {
        type            zeroGradient;
    }
    pressure-outlet-7
    {
        type            fixedValue;
        value           uniform 0;
    }
    wall-8
    {
        type            zeroGradient;
    }
    frontAndBackPlanes
    {
        type            empty;
    }
}


// ************************************************************************* //
