/*--------------------------------*- C++ -*----------------------------------*\
  =========                 |
  \\      /  F ield         | OpenFOAM: The Open Source CFD Toolbox
   \\    /   O peration     | Website:  https://openfoam.org
    \\  /    A nd           | Version:  9
     \\/     M anipulation  |
\*---------------------------------------------------------------------------*/
FoamFile
{
    format      ascii;
    class       volVectorField;
    location    "4";
    object      U;
}
// * * * * * * * * * * * * * * * * * * * * * * * * * * * * * * * * * * * * * //

dimensions      [0 1 -1 0 0 0 0];

internalField   nonuniform List<vector> 
918
(
(0.41739552 -0.049857791 0)
(0.0090211964 2.9578394 0)
(-0.0042436374 2.0650387 0)
(0.28109489 0.017929454 0)
(-0.0052769397 2.0341165 -5.7013537e-21)
(-0.011737542 2.9485836 -3.2577336e-18)
(1.2498184 1.9653461 9.4387811e-19)
(0.72976044 0.40944033 -2.3279091e-20)
(1.9879002 0.0086918588 0)
(0.0024769591 2.0149352 0)
(0.0051162065 2.001516 0)
(1.223404 0.012933519 0)
(0.012716293 2.916918 0)
(0.0083380918 2.8108768 0)
(0.10026709 3.2516067 5.9246209e-19)
(-0.0026697425 2.0019336 -2.6695974e-20)
(0.91987823 0.21880142 1.5752079e-18)
(0.28568085 2.3389676 8.4999857e-19)
(0.60054703 -0.064574221 0)
(-0.0019456965 2.0166306 0)
(0.28465479 0.3815607 -1.3510964e-18)
(1.0381851 0.0031545665 0)
(0.45967832 -0.0034663459 0)
(0.33245441 0.096520041 0)
(1.1466508 0.026968505 0)
(0.034178909 2.5962995 0)
(-0.0090994681 2.9084136 1.1927106e-18)
(-0.0025339384 2.073251 0)
(-0.0012421767 2.1034633 0)
(0.0013074905 2.0824485 0)
(0.012428939 2.1436767 0)
(-0.00011209321 2.0439595 4.4708826e-21)
(-0.0037117569 1.9830852 0)
(-0.018113447 2.9815971 -1.2106636e-22)
(-0.018313523 3.0070284 2.5292533e-18)
(0.00089267972 3.0016731 0)
(1.2709371 0.010947953 0)
(0.38914851 0.54391545 -1.4704531e-21)
(1.2995725 1.8676553 -9.7304603e-19)
(1.4020246 1.7294555 1.1255914e-18)
(1.1213259 2.0991217 -2.1979581e-19)
(1.0586602 2.2010113 1.3238066e-18)
(0.79743808 0.43383051 2.263829e-20)
(0.76509814 0.38606006 0)
(1.6171033 0.93449085 0)
(0.75637616 0.4584944 1.0419543e-19)
(0.67632156 0.42692796 -1.0852421e-19)
(1.0969235 0.054350737 0)
(1.9781577 -0.0035942693 0)
(1.9846925 -0.010116356 0)
(1.3667756 0.027842706 0)
(1.8706116 0.0064186182 0)
(1.7324877 0.00074470722 0)
(0.019681821 1.9319802 -6.5961097e-19)
(0.018657343 2.0938374 0)
(0.036319984 2.0476428 0)
(-0.00063265349 2.0886936 0)
(0.0024139673 1.99917 0)
(-0.00049773988 1.9896419 0)
(0.0029597373 2.0612254 0)
(-0.00059190098 2.0070184 0)
(0.0042592189 2.0518886 0)
(0.0011880151 1.9928003 0)
(1.3080118 0.0066184316 0)
(1.2725395 0.015985594 0)
(1.2405157 0.013597545 0)
(1.2502906 0.011981158 0)
(1.2143641 0.0043387149 0)
(0.016668849 3.0143163 1.2460395e-18)
(0.01222898 3.0102333 0)
(0.0078489003 3.0039131 0)
(0.013322766 3.0001825 1.3258062e-23)
(0.010498093 2.9480269 -1.7795516e-18)
(0.016496214 2.9849015 0)
(0.013047019 2.8950442 0)
(0.012211633 2.9298388 2.838971e-24)
(0.0097941375 2.8299795 0)
(0.012004119 2.9234131 0)
(0.006923809 2.7814772 0)
(0.22420976 3.6674579 0)
(0.16291419 3.6006216 0)
(0.13349691 3.3588804 -5.5408949e-19)
(0.055700784 3.0712082 0)
(-0.00022326224 2.0871327 0)
(-0.0034324579 2.062553 2.6330001e-20)
(0.00050876276 2.01026 -3.496984e-20)
(0.98796771 0.21104876 -5.4346464e-19)
(0.93384875 0.17023952 -5.3000259e-19)
(0.96826768 0.26599344 -1.62557e-18)
(0.89523642 0.27357886 -1.0728953e-18)
(0.18690667 1.6181665 0)
(0.42137354 2.4316313 -9.3721491e-19)
(0.54576423 2.4248606 1.5749913e-18)
(0.84683183 -0.13452182 0)
(0.87662448 -0.082932923 0)
(1.2179645 0.0092920465 0)
(0.71223279 -0.018913929 0)
(0.76236165 -0.10771111 -2.3143741e-18)
(0.64933605 -0.10111879 1.8256962e-18)
(-0.0066499161 2.0587817 0)
(-0.0051645046 2.0062937 0)
(-0.0025065041 2.0838533 0)
(-0.0020604748 2.0677738 0)
(0.0014671661 2.0231335 0)
(0.4058465 0.49812675 4.0143093e-19)
(0.50667199 0.41496749 0)
(0.66370019 0.23477231 0)
(0.57365539 0.13830565 0)
(1.2396491 0.00082227418 0)
(1.2200915 0.014040992 0)
(1.2082545 -0.00085097699 0)
(1.474701 0.044625053 0)
(1.1445956 0.056361261 0)
(1.0383291 0.055059714 2.243881e-18)
(0.0043700095 2.868609 9.7404374e-19)
(0.02103876 2.9178221 0)
(0.04759588 2.8925489 0)
(0.01505208 2.7221064 0)
(-0.0089793537 2.9859516 1.1489793e-18)
(-0.0081657546 2.8945458 0)
(-0.010859896 2.9902329 -3.5356494e-18)
(-0.0092235569 2.9177788 1.2103433e-18)
(-0.0042250106 2.1125586 0)
(-0.0042708473 2.1085176 0)
(-0.0060064397 2.0548624 -5.7056478e-22)
(-0.0049848796 2.0385411 0)
(-0.0046845473 1.9876507 0)
(1.3197668 0.0098244251 0)
(1.2826589 0.01020675 0)
(1.2516225 -0.0042041256 0)
(1.3090449 0.0144015 0)
(1.2503179 0.014123534 0)
(0.57000277 0.93542743 -9.2207526e-21)
(0.39926825 0.74810511 0)
(0.66059313 0.92068832 9.7388994e-21)
(0.4084128 0.5516242 0)
(1.4297397 1.6086745 -3.0791476e-19)
(1.5136566 1.4531338 5.996123e-19)
(0.67300883 2.4119183 0)
(0.9184471 2.293998 0)
(0.82076896 2.3673752 0)
(0.58117099 1.3182331 -4.6166986e-19)
(0.85124263 0.40690686 0)
(0.8264926 0.35437378 3.004842e-19)
(1.5237424 1.3593535 0)
(1.5776446 1.107824 0)
(1.5705534 1.1891594 -4.4544506e-19)
(1.6630119 0.8399563 0)
(1.71028 0.71941382 1.0036219e-19)
(1.2718975 0.026881087 0)
(1.2053386 0.050481251 0)
(1.1916321 0.024227417 0)
(0.8997161 0.1683829 0)
(1.084102 0.10568817 0)
(0.92050569 0.092833285 0)
(1.5129967 0.014485917 0)
(1.8801575 -0.015446747 0)
(1.7331483 -0.0062987284 0)
(0.034725401 1.9522477 3.5443759e-19)
(0.04045728 1.866179 0)
(0.011014845 2.0002656 5.8399638e-19)
(-0.00036087253 1.9532551 -4.9629899e-19)
(0.19827475 2.2973281 -6.953697e-19)
(0.068997292 2.1438449 0)
(0.11490044 2.1662906 0)
(0.0033909653 2.0767014 0)
(-0.00045837311 1.9935604 0)
(-0.0018289131 2.0398223 -1.5172751e-21)
(-0.0011073747 1.9860111 0)
(0.0017797137 2.0432956 -7.8439763e-20)
(5.9821044e-05 1.9952904 1.473874e-19)
(-0.0058079024 2.0685426 0)
(-0.0080071872 2.0681713 0)
(-0.0064613383 1.9996834 0)
(-0.0028832936 2.0500878 0)
(-0.0018105425 2.0005477 0)
(1.3644687 0.010358734 0)
(1.3243141 0.010981817 0)
(1.3517655 0.0081585133 0)
(1.3021204 0.0097784772 0)
(1.256049 -0.002272663 0)
(1.3075219 -0.0018161052 0)
(1.2998265 0.010222386 0)
(1.2646362 0.0020253581 0)
(0.0035259139 3.0675478 -1.063633e-20)
(0.010416547 3.0637123 0)
(0.01561473 2.9689318 0)
(0.012364203 2.8704944 0)
(0.65799783 4.2070919 0)
(1.1058293 3.1843299 9.0491186e-19)
(0.081123284 3.1692192 0)
(0.033930232 2.9456711 0)
(-0.0095003157 2.0917904 0)
(-0.013148324 2.0956874 0)
(-0.010401208 2.0917678 0)
(0.011323937 2.126971 4.1631268e-22)
(0.0086828311 2.1004483 0)
(0.012130286 2.1076396 0)
(0.00038560551 2.0074235 3.6474928e-21)
(-0.0011322553 2.0590066 5.0668876e-20)
(0.0011271477 2.0624903 3.5696136e-20)
(0.00085350093 2.0083487 0)
(1.013102 0.16698555 8.1890904e-19)
(0.97253965 0.12533377 -7.9845947e-19)
(0.24021068 1.7000345 0)
(0.26987333 1.5760505 -2.9209827e-19)
(0.15708507 1.7324888 -8.4825452e-19)
(0.11512517 1.6684535 8.4976575e-19)
(1.1772591 -0.034448921 0)
(1.184423 -0.048581565 0)
(1.0619249 -0.10163934 0)
(1.0613477 -0.049781324 0)
(-9.2509481e-05 2.0510672 0)
(-0.0041804395 2.0492045 0)
(-0.0013327523 1.9977414 0)
(0.68918521 0.48287728 9.4716896e-19)
(0.59327237 0.49014679 -1.157278e-18)
(0.60829344 0.43536364 0)
(1.6185828 0.10603229 3.6637112e-20)
(1.6175414 0.11685338 0)
(1.499856 0.053369957 0)
(1.4031857 0.027428911 0)
(1.0400946 0.11020961 0)
(1.0647398 0.07881816 -3.6090704e-18)
(0.98934547 0.079583729 1.3721293e-18)
(0.0055059317 2.9870044 1.0034874e-18)
(-0.0018151456 2.8731357 5.4775254e-20)
(0.003600071 3.0501965 -2.2281218e-20)
(0.012207981 3.0494267 8.0286711e-19)
(-0.0093006619 2.9945803 3.938775e-20)
(-0.0084612312 2.9371843 -1.5821426e-22)
(-0.013031183 3.0198086 -7.436214e-19)
(0.001682924 3.0257563 5.3599133e-19)
(0.0065632937 3.0373914 -8.0342929e-19)
(1.3472422 0.0099948986 0)
(1.3383463 0.0099090197 0)
(1.2918995 0.01052161 0)
(1.265993 -0.035527835 0)
(1.299241 -0.011471542 0)
(1.2431849 -0.018855593 0)
(1.2978322 0.00038330239 0)
(1.2963689 -0.00039733598 0)
(1.2517798 0.0005377391 0)
(0.57444365 1.1380971 2.1532141e-19)
(0.6042804 1.1914619 0)
(0.57979215 0.98085927 1.2352241e-19)
(0.73179854 1.1328411 8.413567e-19)
(0.70992028 0.99790422 -4.0891923e-19)
(0.50176434 0.74382979 7.5124499e-19)
(0.6095301 1.505797 2.2239548e-18)
(0.52107174 1.3985985 4.5213386e-19)
(0.93400802 0.320877 1.146167e-18)
(0.90177541 0.36277108 2.8110491e-19)
(0.86599025 0.31628166 5.7039739e-19)
(1.7149189 0.62747665 1.8649615e-19)
(1.7352268 0.49825341 1.9229347e-19)
(-0.0036329035 2.0098705 2.2846607e-19)
(0.001850699 1.9544047 0)
(1.428942 0.031823193 0)
(1.3856512 0.022886329 0)
(1.3606051 0.018274315 0)
(0.0089164557 3.077717 0)
(0.01374776 2.9403616 1.5604418e-18)
(0.015218877 2.9539709 0)
(0.011406412 2.849127 -1.5576775e-18)
(0.0065019984 3.0889684 3.582743e-19)
(0.0028237513 3.0838412 0)
(0.68157932 1.524555 -1.5167103e-19)
(0.97522754 2.2194926 2.0349636e-19)
(0.66755902 1.6752112 -9.3504505e-19)
(0.019941435 3.004764 -8.9401264e-19)
(0.044298605 3.0566053 0)
(0.015655235 2.8903411 0)
(0.0014693023 2.0448094 -8.8843268e-21)
(0.0051993326 2.0565384 -1.1115588e-19)
(0.0038408575 2.0026271 -4.1638692e-21)
(0.32209006 1.650818 9.1656059e-19)
(0.33667162 1.5229338 -6.3452416e-19)
(0.047118967 1.8810838 5.6690887e-19)
(0.095445207 1.7915498 -6.909078e-19)
(0.063326298 1.746172 8.2173e-20)
(0.011083174 3.1020412 -2.3648881e-18)
(0.01142534 3.111173 2.6772736e-18)
(-0.0069196626 2.981235 1.0890558e-18)
(-0.0031692376 2.9784351 -1.0536349e-18)
(-0.0067247544 2.8812821 -1.1093742e-18)
(0.0021472955 3.0988793 -2.7869257e-18)
(0.0048191904 3.0965906 2.7681722e-18)
(0.67285475 1.4121554 0)
(0.72302843 1.2848618 -2.0905967e-18)
(0.60684053 1.1890658 9.4255206e-19)
(0.5265538 1.5530507 1.2418233e-18)
(0.46160074 1.4411895 -1.9487126e-18)
(1.7155636 0.21526595 8.0104141e-20)
(1.7140516 0.39823784 0)
(1.7143456 0.2661388 2.7198598e-20)
(0.0041962046 2.0373402 -1.9502983e-21)
(0.0072501714 2.0186864 0)
(0.0050560578 1.9745595 0)
(0.39282392 1.612897 -3.2289011e-19)
(0.46159118 1.58366 -7.7849138e-19)
(0.40071148 1.4730471 1.4261991e-18)
(1.1914143 0.1906639 0)
(1.2871351 0.077114712 4.1031469e-19)
(0.0013585559 2.1131622 0)
(0.00086597251 2.1312333 0)
(1.5235408 -0.02108167 -2.3598447e-20)
(1.2025446 -0.15421468 9.0360847e-19)
(0.0015245981 2.1299336 -5.4433717e-22)
(-0.0095189218 2.1237717 0)
(0.089903225 3.1955683 6.4843491e-19)
(0.50420529 3.63349 0)
(1.4950709 0.88013713 -9.6557724e-20)
(1.2764883 -0.23360837 2.8625254e-20)
(1.3214744 0.12340369 0)
(1.9774335 -0.0030017093 -1.6325619e-21)
(0.038073148 2.2277326 0)
(0.095514034 2.0154429 0)
(0.014978963 2.146743 0)
(0.0074815473 2.1153617 1.0379906e-19)
(0.010184104 2.1120337 5.6620192e-20)
(1.3388204 0.02626251 3.7521098e-21)
(1.4006267 0.0033918675 0)
(1.4184096 0.037826702 0)
(-0.015156408 2.0889846 0)
(-0.0031097582 2.1242632 0)
(-0.014565311 2.1283163 0)
(0.2993278 2.3364922 -3.2743903e-19)
(1.171595 0.25007627 0)
(1.1009254 0.28265027 0)
(1.9406157 0.0088796479 6.0744877e-19)
(1.6457568 0.070570855 -6.1453107e-19)
(1.9001922 0.022555582 0)
(0.0016162173 2.0637768 0)
(0.01506232 2.1014131 0)
(-0.00096489632 2.0906246 0)
(-0.011293042 2.1384535 0)
(0.0041178006 2.1304401 0)
(-0.0057613846 2.1378745 0)
(1.3722695 0.013723614 0)
(1.3563838 0.0045393766 -2.7280059e-21)
(0.98941529 1.9144149 4.8391449e-19)
(1.9269394 -0.010426702 -6.0549755e-19)
(1.7020067 -0.091573693 5.9206092e-19)
(1.8966346 -0.017238823 0)
(1.2831048 -0.28657461 7.7626628e-19)
(1.1284694 -0.28566681 -7.1663155e-19)
(1.0572994 -0.2787282 0)
(-0.0070853443 2.1271802 0)
(-0.015220768 2.1314475 1.8540242e-20)
(-0.013418141 2.1278901 -1.3886252e-20)
(1.5444779 0.34633786 8.9234267e-19)
(1.473934 0.096562489 0)
(0.14692961 3.0599593 -1.3662726e-18)
(0.072914214 2.8539262 -1.0365009e-19)
(0.23323895 3.2170016 1.927234e-18)
(0.20035139 3.273535 -2.7748769e-19)
(0.19606188 3.323881 0)
(0.041791005 3.1289916 3.7317415e-19)
(0.11512242 3.1727542 1.3506149e-18)
(0.11100702 3.2114941 -6.9951259e-19)
(0.076639883 3.1002975 0)
(0.90857523 0.48898603 0)
(0.80828159 0.53524535 0)
(1.4024063 0.94314532 2.3529662e-19)
(1.3929456 1.1723599 -2.2792281e-19)
(1.511773 0.72877296 0)
(1.5640265 0.74157473 0)
(1.3089795 -0.19941503 -1.5919386e-18)
(1.2957436 -0.12624433 2.0631459e-18)
(1.3440521 0.10353117 0)
(1.3425838 0.074473814 0)
(1.7703861 -0.035290733 0)
(1.582204 -0.13218981 0)
(1.8711433 -0.074422717 0)
(1.5300413 -0.23172664 0)
(1.5685131 -0.20384746 0)
(1.7314177 -0.13834714 0)
(0.021930024 2.2212643 0)
(0.014582017 2.2306106 0)
(0.072767843 2.2515105 0)
(0.086771832 2.2796153 0)
(0.12636184 2.001857 0)
(0.11145973 1.9708175 -3.7907589e-19)
(0.079271199 2.0402681 0)
(0.032175389 2.0419246 1.898708e-19)
(0.03174201 2.0916134 -1.9392064e-19)
(0.018366739 2.1465032 0)
(0.0087632207 2.1411973 0)
(0.014377989 2.1527574 0)
(0.0062530977 2.1773177 0)
(0.0059571794 2.0954027 -6.9395942e-20)
(0.0041289424 2.1149043 7.4167014e-20)
(0.0056980947 2.120303 9.607451e-20)
(0.0065759654 2.1218481 0)
(0.013987835 2.1185937 -1.293942e-19)
(0.010861393 2.1212465 -7.5188118e-20)
(3.6101491e-05 2.0852936 5.3353172e-20)
(0.0031782316 2.100201 -9.6428194e-20)
(0.0032539894 2.1035372 -1.2021175e-19)
(1.3462474 0.034164278 1.6623811e-18)
(1.3484224 0.027012296 -2.0958801e-18)
(1.3376167 0.028987818 -1.6857689e-18)
(1.3107897 0.0076753856 2.1691159e-18)
(1.4004419 0.01322179 0)
(1.4080033 0.00028898409 0)
(1.4208252 0.033778741 0)
(1.4103545 0.0071815546 0)
(1.4349353 0.017418616 0)
(1.4559377 0.094498111 0)
(1.4272834 0.047924082 0)
(1.4575885 0.051604349 0)
(-0.00025440165 2.1324031 -1.6233154e-21)
(-0.021742021 2.1055983 0)
(-0.0019541621 2.1151067 0)
(0.011356839 2.1193084 1.6918474e-20)
(0.0062629741 2.1213731 -9.7444691e-22)
(0.017589473 2.0351264 2.985256e-20)
(0.016624186 2.0531099 -2.9980389e-20)
(-0.0030030836 2.1098721 0)
(0.011355163 2.1028486 0)
(0.014459469 2.0979875 0)
(-0.013541838 2.1336116 0)
(-0.0057119208 2.1198041 0)
(0.47485688 2.3075143 5.4994764e-19)
(0.49124684 2.353294 2.7690002e-19)
(0.33923451 1.8288479 -2.1908584e-19)
(0.15326255 1.8656985 5.5083141e-19)
(0.34259592 1.9490951 1.4427692e-19)
(1.2949811 0.18602159 0)
(1.2170894 0.24169303 0)
(1.1849286 0.17222843 0)
(1.7875935 0.061967572 0)
(1.8627354 0.080129794 0)
(1.6669303 0.13314404 0)
(1.494427 0.21217242 0)
(1.4587202 0.23016568 0)
(1.355673 0.0052563817 1.6385705e-18)
(1.3566902 -0.00023993812 -2.0869933e-18)
(1.3586102 -0.0028238098 -1.6286881e-18)
(1.3599191 -0.011255866 2.0717719e-18)
(0.94794177 1.9434933 0)
(0.85010821 2.1701416 4.3547746e-19)
(1.0828208 1.7131524 1.3073243e-19)
(1.1761811 1.7009127 -1.747123e-19)
(1.057409 2.2676879 1.0305614e-19)
(1.1143904 0.14811177 8.5587581e-19)
(1.4654148 0.12600561 0)
(1.5061345 0.23464705 -6.9440746e-19)
(1.5383652 0.19478883 -2.6325244e-20)
(1.2966839 0.13903175 0)
(0.33455556 3.0082706 5.6148789e-19)
(0.20774229 2.8523641 -1.9107956e-18)
(0.1272715 2.2729862 1.3112211e-18)
(0.19148956 0.32944182 -6.1493187e-19)
(0.3787605 3.5449269 -1.6102653e-19)
(0.25619329 3.4264796 0)
(0.24915443 3.4803875 2.2754904e-19)
(0.35182215 3.1948707 -1.5318527e-18)
(0.45502098 3.321321 0)
(0.011156338 3.100612 7.029199e-20)
(0.018497569 3.1216472 -7.8300819e-19)
(0.038082102 3.1098605 1.2163663e-18)
(0.050495023 3.1387493 0)
(0.050520615 3.1513412 0)
(1.0737958 2.6093715 0)
(0.60575669 0.93430723 -5.5408833e-19)
(1.3159522 1.4282307 1.1723777e-20)
(1.2148876 1.4658405 0)
(0.99678526 1.329479 -1.5888507e-19)
(1.3088594 1.2148556 3.7858368e-20)
(0.56028346 0.69458889 -1.3624905e-18)
(0.94101908 0.46542774 -3.8464944e-20)
(0.95603447 0.41984068 5.9877442e-19)
(0.79844954 0.57365977 4.3815835e-20)
(0.74603696 0.55883183 -1.8236216e-18)
(0.90420128 0.50507725 0)
(0.91423036 0.55903249 9.7957991e-19)
(0.92278764 0.54382873 0)
(0.85197061 0.51792939 0)
(0.85583232 0.483638 0)
(0.98431753 0.79085818 5.8183644e-19)
(1.5234998 0.36966505 -7.4519796e-19)
(1.5420269 0.58014432 0)
(1.5763913 0.54632208 0)
(1.0460236 0.31236199 9.2201041e-19)
(1.0154467 0.66946027 -5.5212178e-19)
(0.93886512 0.62700367 9.789647e-19)
(1.1692033 0.53640103 -1.0605877e-18)
(1.3510763 -0.038375276 1.110096e-18)
(1.3316423 -0.10787904 -1.1133973e-18)
(1.332404 -0.072576764 0)
(1.3715142 0.016834964 0)
(1.3648001 0.050820817 -1.0572761e-18)
(1.3753042 0.015216153 1.0465888e-18)
(1.3615976 -0.0086633244 0)
(1.3476278 -0.0079365024 0)
(1.5376753 -0.12876043 0)
(1.4314957 -0.16439957 0)
(1.4432332 -0.02029891 0)
(1.5052572 -0.025848932 0)
(0.01347598 2.2245499 0)
(0.015330643 2.2148634 0)
(0.14795295 2.1904994 -3.0933167e-20)
(0.28137107 2.3184004 1.6884354e-19)
(0.16326439 2.311207 3.8327775e-19)
(0.17974276 2.33537 -6.1298215e-19)
(0.20739057 2.2447256 0)
(0.16698244 2.0997017 -1.2329628e-19)
(0.137187 2.1072288 0)
(0.31653919 1.9816282 -2.0073489e-19)
(0.23848595 1.9102516 6.8501672e-19)
(0.21731304 2.1263306 1.1058498e-19)
(0.29493488 2.2509678 7.1152503e-20)
(0.24967907 2.2176059 -5.8120567e-20)
(0.34127656 2.167782 -9.8018561e-20)
(0.27957767 2.0704511 0)
(0.30307921 2.0725466 9.7684991e-20)
(0.056785652 2.0949856 -5.8436829e-20)
(0.025953397 2.0814733 0)
(0.040001477 2.0485989 2.3211061e-19)
(0.046914378 2.065637 0)
(0.012461314 2.0569292 -2.1089982e-19)
(0.0039764578 2.0659074 0)
(0.0037586751 2.0974545 -4.1464401e-20)
(0.00402454 2.0988885 0)
(0.020872334 2.1052942 0)
(0.015938764 2.0953363 4.699723e-20)
(0.010633394 2.1130664 1.3438386e-21)
(0.031386108 2.1018238 2.3330593e-19)
(0.014896248 2.1146084 1.6433358e-21)
(0.0015830582 2.078613 4.0990154e-20)
(-0.004683599 2.0785322 2.9639053e-20)
(0.0065091973 2.1414044 0)
(-0.0041072395 2.125055 0)
(0.030528464 2.0904252 1.3954139e-19)
(0.03258594 2.0896967 9.4384974e-20)
(0.028303007 2.0860898 -1.339829e-19)
(0.050464377 2.0997067 0)
(0.031316782 2.1096843 -7.8675469e-20)
(0.01112757 2.1023637 4.0346126e-20)
(0.0016434436 2.0934055 -1.2017669e-20)
(0.0021142636 2.0792802 -4.8536532e-20)
(-0.0039723822 2.0989691 -1.8173363e-20)
(0.011276353 2.1027795 9.001333e-20)
(1.3595596 -0.014908039 -1.1029748e-18)
(1.3532034 0.015245802 1.1123728e-18)
(1.352075 -0.0095151759 0)
(1.3170521 0.0933082 1.5879392e-18)
(1.2941929 0.03511512 -1.769053e-18)
(1.2556041 0.020599603 1.9833993e-18)
(1.307718 0.099343281 -2.1614742e-19)
(1.3843475 0.015991074 0)
(1.3916105 0.012639275 1.0158396e-18)
(1.39447 0.010639457 -1.0075078e-18)
(1.3583215 0.034729052 -6.0607034e-20)
(1.3558251 0.016949086 5.2981656e-19)
(1.3328566 0.057854002 0)
(1.3123261 0.04650213 -1.9032092e-19)
(1.3533291 0.025198038 0)
(1.3424838 0.024387985 0)
(1.36436 -0.0064322585 0)
(1.3626126 -0.0067605724 0)
(1.3459846 0.012107565 3.8644769e-19)
(1.3384021 0.0067611861 -8.3970412e-19)
(1.2974382 0.018304276 -4.1850611e-19)
(1.3024456 0.011041705 -4.5508468e-19)
(1.3266006 0.081504791 8.6447691e-19)
(1.3856693 0.067751025 0)
(1.4022366 0.10958409 0)
(0.024331603 2.1199465 -3.7356817e-20)
(-0.013144417 2.1131739 -1.7500211e-21)
(0.00769803 2.0926216 0)
(0.002178695 2.1291361 3.8600909e-20)
(-0.018746768 2.129482 3.225111e-21)
(-0.010404277 2.1341683 -4.3145448e-21)
(0.0063321372 2.1207907 6.5315447e-20)
(-0.007327435 2.0981005 -3.9682029e-21)
(-0.012419311 2.1031534 1.9318514e-20)
(0.0067267463 2.1164659 -3.3365754e-20)
(0.00061023656 2.1176295 4.0447255e-20)
(-0.0033467262 2.0786922 -1.8455795e-21)
(0.017120038 2.0533259 4.4143991e-20)
(0.48673524 2.1853336 -2.3536314e-19)
(0.40420415 2.1510096 1.337906e-19)
(0.85403069 2.1763322 -4.2367959e-19)
(0.69058196 2.2867853 -2.6705518e-19)
(0.69594439 2.3058431 0)
(0.39210664 1.8288042 2.237532e-19)
(0.40970556 1.8190077 3.256379e-19)
(0.20925714 1.8612645 4.931268e-20)
(0.22017496 1.8387971 -7.9303647e-19)
(0.29613667 1.8434871 6.3567706e-19)
(0.3163569 1.8536587 0)
(0.23278444 1.8623903 -4.8364683e-19)
(0.12435335 1.9352749 9.6471343e-19)
(0.13634626 1.8961304 -4.6109669e-20)
(0.094650586 1.8905332 -1.3154953e-18)
(0.79928225 1.7520758 1.2746109e-18)
(0.57097513 1.7980258 0)
(1.6656833 0.1003504 3.0212658e-20)
(1.4618034 0.23291193 -2.5857076e-20)
(1.4201395 0.22864163 -4.9387485e-19)
(1.483504 0.127717 5.0027033e-19)
(1.6013055 0.067878399 0)
(0.77300688 1.8820636 0)
(0.6540795 1.7686462 0)
(0.87829496 1.5654422 0)
(0.67213521 1.6562032 0)
(1.0554558 2.2078267 1.1552913e-19)
(1.1169218 2.017691 0)
(0.72519093 2.0964262 9.903013e-21)
(0.62555193 1.8909965 0)
(0.73161282 1.8670786 -8.7200459e-19)
(0.77189321 1.9173595 5.8649153e-19)
(1.1311923 0.18981156 0)
(1.0990526 0.22830894 2.3802469e-19)
(1.2210927 0.15224651 1.3319121e-18)
(1.15304 0.12867627 -4.9793014e-19)
(1.1314196 0.1071596 -1.5558951e-18)
(1.3283974 0.28194972 -1.2494531e-18)
(1.2322982 0.3753031 -2.2251675e-20)
(1.1337801 0.35354358 1.2415847e-18)
(1.2368097 0.28720066 1.0527718e-18)
(1.2452521 0.18545068 -1.7825109e-18)
(1.2149161 0.19266172 2.2417689e-19)
(1.1899906 0.29127536 -4.8098645e-19)
(1.2145884 0.23861171 0)
(1.2908042 0.20372088 8.8139311e-19)
(1.2894028 0.21378385 0)
(1.2902318 0.26398642 0)
(1.3927762 0.13289998 4.1396526e-19)
(1.3118961 0.19185432 -2.0500638e-20)
(1.3332091 0.2535154 -2.2848248e-19)
(1.4059155 0.23702482 0)
(1.3473918 0.050791589 8.5887781e-19)
(1.3489795 0.069215466 1.0908824e-18)
(1.3551053 0.050328926 -8.2661868e-19)
(1.3509519 0.085635319 -7.371002e-19)
(1.3406461 0.087493298 -1.1369511e-18)
(1.2720857 0.1099402 0)
(1.2636876 0.078953803 0)
(1.2388277 0.067768164 -7.1816272e-19)
(1.2203584 0.084559936 2.7915474e-19)
(1.3434371 0.10618121 1.0206234e-18)
(1.3272009 0.12803429 -1.1902965e-18)
(1.3351276 0.13911375 1.0641032e-18)
(1.331028 0.1440251 0)
(1.3447464 0.11604843 0)
(1.3297894 0.10403517 -4.9046847e-19)
(1.3526309 0.11400321 -8.4092728e-19)
(0.40542 1.9081832 3.1966722e-19)
(0.44518512 2.3018295 -3.7798479e-19)
(0.80763331 2.745866 -1.877101e-19)
(0.94762411 3.2043766 -1.4675199e-20)
(1.062699 2.4698724 2.4355448e-20)
(1.1013699 2.6338906 -1.79119e-19)
(1.0204977 2.2028533 3.7869468e-22)
(0.9859691 2.940201 -3.5505288e-20)
(1.0127568 2.8684447 1.7607586e-19)
(1.022665 3.3170635 -1.8626129e-19)
(1.1496847 2.986376 1.9642828e-19)
(1.2047439 2.9341587 0)
(0.56536387 0.9934525 -4.7398402e-20)
(0.53838766 1.4137449 6.5505023e-19)
(0.71977653 0.78347123 9.0597504e-19)
(0.5731772 0.50950138 1.1176953e-18)
(0.73211688 0.58837074 1.0140841e-18)
(0.74374609 0.63996396 -1.6292467e-18)
(0.69983099 0.68480094 1.3146837e-18)
(0.6791723 0.62182535 -5.3402484e-19)
(0.66392877 0.60776779 1.2320168e-18)
(1.0483249 0.3537661 -5.1886538e-19)
(0.99659507 0.39492498 0)
(1.0021198 0.36640194 2.1888836e-20)
(0.88252631 0.65641973 5.2391626e-19)
(0.88018963 0.6050481 -1.9049857e-18)
(0.77109202 0.6468858 3.7737703e-20)
(0.82611693 0.6103243 0)
(0.72876593 0.93647795 5.1139035e-19)
(0.98668961 1.0259054 5.1885549e-19)
(0.88064192 1.1198944 -5.9310048e-19)
(1.0344876 1.0348521 -2.2785743e-19)
(1.1603532 1.1409401 -5.4491794e-20)
(1.1028168 1.1370336 5.4906195e-20)
(1.0707177 0.77835707 -9.7911981e-19)
(1.1230002 0.89315332 2.1371137e-19)
(1.2332505 0.94385844 0)
(1.2855357 0.88115021 -2.8881769e-19)
(1.2601439 0.39742147 3.1913977e-19)
(1.4237156 0.37431729 4.37259e-19)
(1.3179644 0.34787751 5.1936876e-19)
(1.2248111 0.4809968 -6.4359284e-19)
(1.2968173 0.51949439 0)
(1.3603814 0.50902342 0)
(1.138706 0.4690958 2.4766689e-20)
(1.0645487 0.38761074 0)
(1.0917843 0.36782068 5.9992767e-19)
(1.1259205 0.36043002 -2.6102456e-20)
(1.1508683 0.56468111 2.7972556e-18)
(1.0897219 0.63302083 7.6582252e-19)
(1.0734322 0.58316005 -8.3588413e-19)
(1.0076702 0.55124605 9.0149961e-19)
(0.9750356 0.54765368 5.3287217e-19)
(0.93711646 0.53385958 -5.2130435e-19)
(1.3505239 0.046773606 8.8437876e-19)
(1.3972003 0.0024410082 0)
(1.4167145 0.072156947 6.0359705e-19)
(1.3586311 0.066470412 -1.3447936e-18)
(1.3847728 0.0011478238 6.3687596e-19)
(1.3904482 -0.0022567728 -1.3429289e-18)
(1.3581672 -0.017898639 0)
(1.3518433 -0.055282288 -2.7847862e-19)
(1.4071929 -0.041767141 6.8819703e-19)
(1.4027216 -0.097033541 -3.5223729e-19)
(1.3660334 -0.074678425 2.6276902e-19)
(0.0066657366 2.185123 0)
(0.025701367 2.1178429 0)
(0.0089046917 2.2072699 0)
(0.0041209379 2.200949 0)
(0.040552339 2.1332454 3.7521075e-20)
(0.039599833 2.1550834 4.6573164e-21)
(0.10695454 2.1181052 -5.4118688e-20)
(0.099070244 2.1312396 1.2964316e-20)
(0.036321426 2.0951989 -8.9646463e-20)
(0.032962227 2.0961395 6.8295724e-20)
(0.039338656 2.1257543 -2.383084e-20)
(0.0316169 2.1619491 1.2747296e-21)
(0.029803357 2.1341473 -1.2877655e-21)
(0.030954086 2.1184911 -9.6475263e-21)
(0.049238816 2.0386913 -2.4913503e-19)
(0.073428679 2.0332874 0)
(0.10523378 2.0425876 1.3877786e-19)
(0.096280897 2.0870551 9.6175938e-20)
(0.23257646 2.0260047 -1.0440725e-19)
(0.18271481 1.9761796 0)
(0.17294623 1.9273385 -7.0967117e-19)
(0.21637904 1.9486304 5.0689045e-19)
(0.20179438 2.0550953 -2.7146195e-19)
(0.15632787 2.0419271 1.5484169e-19)
(0.15055133 2.0051035 0)
(0.03229162 2.0915149 -1.6945644e-19)
(0.020935742 2.094167 -2.1120843e-19)
(0.022497086 2.0919241 0)
(0.036286901 2.0939225 -5.9139909e-21)
(0.04686168 2.0930323 8.2888625e-20)
(0.014755622 2.1326643 7.6314773e-21)
(0.015333104 2.1429556 -1.1785309e-19)
(0.0055691058 2.1351031 2.7722092e-20)
(-0.007346666 2.0973462 4.8536813e-20)
(0.0014174283 2.1017642 0)
(0.0028010158 2.1418956 0)
(0.0047323057 2.1305623 3.5967745e-20)
(0.00034537496 2.1425814 -1.128984e-20)
(0.0041310309 2.137887 0)
(0.00018557415 2.1298316 3.10308e-20)
(0.005071911 2.1180663 -5.809031e-20)
(1.3395095 0.015560436 0)
(1.344657 0.031200069 -9.4326515e-20)
(1.3580433 0.01432388 -6.7450368e-19)
(1.3600617 0.027399609 0)
(1.3482719 0.051645756 0)
(1.341904 0.018167511 -1.3462619e-20)
(1.3434116 0.012357787 1.0739851e-18)
(1.3435314 0.024744137 1.332555e-18)
(1.3611956 0.008597888 0)
(1.3518331 0.0083428095 0)
(1.3321764 0.020272832 6.8937106e-19)
(1.3358043 0.0071735215 0)
(1.3433879 0.014272579 0)
(0.0184144 2.0795957 0)
(0.032725155 2.0745023 -9.7385498e-22)
(0.03798881 2.1105498 1.8237907e-20)
(-0.0015397265 2.1380281 0)
(0.022456808 2.0858312 2.5310682e-20)
(0.004227703 2.1035498 -1.1010547e-20)
(-0.012068451 2.1458788 0)
(0.45201024 1.9541711 0)
(0.40529053 2.0905739 -3.3482527e-19)
(0.38758084 2.0149196 0)
(0.53495823 2.0648628 2.2201792e-19)
(0.63860468 2.1737187 0)
(0.57744135 2.147684 -2.9015909e-20)
(0.83890733 1.8616778 -2.6577151e-20)
(0.87264112 1.7704627 -1.4807155e-18)
(0.94511737 1.7289375 1.7768564e-18)
(0.6408545 1.8022292 3.5750327e-19)
(0.64269169 1.8263402 0)
(0.71932217 1.8218487 0)
(0.76593066 1.7871157 0)
(0.68703908 1.778299 -1.3237565e-18)
(0.46674562 1.8870691 -6.7382795e-19)
(0.57491577 1.8375779 -1.649101e-19)
(0.59157099 1.8643302 1.31982e-19)
(0.45942983 1.8144574 0)
(0.53754346 1.8295903 0)
(0.47921244 1.8131839 -3.8436056e-19)
(0.53060939 1.8443778 0)
(0.53612587 1.5427278 0)
(0.31849988 1.2186699 -4.2725581e-19)
(0.50892665 1.1139353 -2.9582109e-20)
(0.33094375 1.6212314 0)
(0.28250936 1.6184863 6.6784372e-19)
(0.88567625 1.18786 -1.6778475e-19)
(0.89088861 1.3923783 0)
(0.92240096 1.2888968 2.617502e-19)
(0.66622691 1.3755028 0)
(0.67177392 1.2404468 0)
(0.97263247 2.3167844 -2.3333955e-19)
(0.8323615 2.5735257 -3.1473967e-19)
(0.676772 2.3711193 6.1508212e-19)
(0.77044198 2.1827871 -2.1802278e-19)
(1.0160393 2.1221824 0)
(0.96576911 2.0279985 2.8155343e-19)
(1.1006751 1.9518962 -3.1223467e-19)
(1.1173418 1.8340873 -1.3822443e-20)
(0.63867966 2.0089986 0)
(0.53822795 1.9402068 -2.8226226e-19)
(0.57941275 1.8949754 0)
(1.1495095 0.26502746 0)
(1.104081 0.24023481 0)
(1.0622516 0.24762048 0)
(1.1351757 0.29201583 -9.2774011e-19)
(1.0777556 0.27752331 5.4792064e-19)
(1.2101661 0.10279299 -5.4885944e-19)
(1.2281088 0.13243702 0)
(1.2286995 0.14534186 2.4476744e-19)
(1.1679426 0.11001992 9.9243615e-19)
(1.1767696 0.10524785 -6.2795621e-19)
(1.1047866 3.4913179 -4.8839576e-19)
(1.0138109 3.4861691 0)
(1.1513581 3.4564671 -1.1461915e-18)
(0.46546446 3.6305085 1.0750279e-18)
(0.65024503 3.3015863 1.2945345e-19)
(0.50014608 1.0399652 2.7940342e-19)
(0.27235688 1.2407676 0)
(0.61041295 0.65723423 -1.8951895e-19)
(0.61910222 0.82284068 9.1236742e-19)
(0.7222051 0.70613352 -3.0745949e-19)
(0.68305195 0.71453202 3.0984262e-19)
(0.76220059 0.70229061 6.8892833e-19)
(0.83639964 0.70728474 0)
(0.81810764 0.77309126 0)
(0.73229176 0.72868429 0)
(1.2529414 0.74000393 1.2515626e-19)
(1.1068395 0.66680603 -7.3221925e-19)
(1.1105607 0.72145602 5.849067e-19)
(1.1501831 0.66492069 -5.7503088e-19)
(1.3215372 0.64316677 0)
(1.3576424 0.697984 -1.4251661e-19)
(1.0243091 0.50863546 -1.2294158e-18)
(1.0451674 0.50205068 -1.4949941e-18)
(0.98424503 0.49219615 9.5514826e-19)
(0.97490776 0.46244615 -9.7215701e-19)
(1.0385286 0.42186412 -7.6144093e-19)
(0.99872867 0.41869058 9.4514265e-19)
(1.3744865 -0.0034471897 -6.7667633e-19)
(1.3778722 -0.0054559262 1.3738509e-18)
(1.345405 0.032857874 8.4852905e-19)
(1.3359777 0.041112114 -1.0130732e-18)
(1.3235794 0.034230386 0)
(1.3466628 0.0055703052 -1.7296134e-18)
(0.07471199 2.1238913 3.22274e-20)
(0.066931192 2.1124899 0)
(0.074241587 2.0921965 3.296536e-19)
(0.079248984 2.0983906 -2.9676872e-19)
(0.087482002 2.1246253 9.5506698e-20)
(0.072488249 2.1150501 0)
(0.0022060649 2.0680916 0)
(0.0078944469 2.1225246 -1.300906e-20)
(0.00080650628 2.1256386 1.1781388e-20)
(0.0084713992 2.1120493 2.8458736e-21)
(0.0030489301 2.0753998 -2.4343216e-20)
(-0.0077445842 2.0730345 1.4610188e-20)
(0.61760606 1.9636348 -7.8525766e-19)
(0.60315853 1.9311038 8.2396106e-19)
(0.55460668 2.0261125 -1.544855e-19)
(0.55672795 1.9728434 3.365976e-20)
(0.73292366 1.9532412 0)
(0.69708997 2.0957733 1.822222e-19)
(0.74656318 2.0813776 -1.7783532e-19)
(0.59675749 2.0245029 1.538111e-19)
(0.62504271 1.9571654 0)
(0.62548126 1.9510784 0)
(0.44122865 1.8631939 1.0002741e-18)
(0.45405569 1.829159 1.532421e-18)
(0.48808397 1.84979 -1.0827441e-18)
(0.40592192 1.843402 -1.9321264e-19)
(0.353643 1.8609882 3.388629e-19)
(0.30800498 1.8374426 -8.4754988e-19)
(1.0032154 1.7605485 -9.6833119e-19)
(1.0783082 1.7985299 0)