/*--------------------------------*- C++ -*----------------------------------*\
  =========                 |
  \\      /  F ield         | OpenFOAM: The Open Source CFD Toolbox
   \\    /   O peration     | Website:  https://openfoam.org
    \\  /    A nd           | Version:  9
     \\/     M anipulation  |
\*---------------------------------------------------------------------------*/
FoamFile
{
    format      ascii;
    class       volScalarField;
    location    "15";
    object      p;
}
// * * * * * * * * * * * * * * * * * * * * * * * * * * * * * * * * * * * * * //

dimensions      [0 2 -2 0 0 0 0];

internalField   nonuniform List<scalar> 
1000
(
1.6755983
1.5545204
1.4585399
1.3948838
1.3463743
1.3039023
1.266367
1.2341953
1.2067949
1.1829573
1.161563
1.1417992
1.1231221
1.1051825
1.0877672
1.070753
1.0540721
1.0376879
1.0215797
1.0057338
0.99013886
0.97478376
0.95965708
0.94474684
0.93004083
0.91552684
0.90119286
0.88702735
0.8730193
0.8591583
0.8454346
0.83183906
0.81836317
0.804999
0.79173916
0.77857679
0.76550548
0.75251927
0.7396126
0.72678029
0.71401749
0.70131968
0.68868264
0.67610243
0.66357534
0.65109794
0.638667
0.62627951
0.61393265
0.6016238
0.58935048
0.57711039
0.56490136
0.55272137
0.54056853
0.52844108
0.51633737
0.50425585
0.49219507
0.4801537
0.46813046
0.45612416
0.44413371
0.43215807
0.42019625
0.40824737
0.39631057
0.38438507
0.37247012
0.36056506
0.34866921
0.33678199
0.32490283
0.31303118
0.30116656
0.2893085
0.27745657
0.26561038
0.25376955
0.24193373
0.2301026
0.21827584
0.20645317
0.19463432
0.18281902
0.17100704
0.15919817
0.14739222
0.13558898
0.12378829
0.11198997
0.10019389
0.088399879
0.076607809
0.06481755
0.053028979
0.041242033
0.029456518
0.017672623
0.0058896952
1.5583786
1.5034495
1.442497
1.3909293
1.3476593
1.308691
1.2731047
1.2413321
1.2133712
1.1885933
1.1661915
1.1454901
1.1260085
1.1074205
1.0895069
1.0721221
1.0551703
1.0385889
1.0223362
1.0063827
0.99070567
0.97528615
0.96010731
0.94515365
0.9304106
0.91586437
0.90150195
0.88731108
0.87328024
0.85939866
0.8456563
0.83204381
0.81855246
0.80517418
0.79190143
0.77872721
0.76564503
0.75264882
0.73973294
0.72689214
0.7141215
0.70141645
0.6887727
0.67618628
0.66365344
0.65117069
0.6387348
0.6263427
0.61399156
0.60167873
0.5894017
0.57715817
0.56494593
0.55276296
0.54060734
0.5284773
0.51637117
0.50428739
0.49222451
0.48018118
0.46815611
0.45614811
0.44415607
0.43217895
0.42021575
0.40826558
0.39632757
0.38440094
0.37248495
0.36057889
0.34868213
0.33679406
0.3249141
0.31304171
0.3011764
0.28931769
0.27746516
0.2656184
0.25377703
0.24194072
0.23010912
0.21828194
0.20645886
0.19463963
0.18282398
0.17101169
0.15920251
0.14739626
0.13559275
0.12379181
0.11199326
0.10019696
0.088402741
0.07661048
0.064820046
0.053031283
0.041244189
0.029458393
0.017674303
0.0058905367
1.4975574
1.4713823
1.4329854
1.3918525
1.3527672
1.3161765
1.2818788
1.2501612
1.2213051
1.1952041
1.1714501
1.1495601
1.1291103
1.1097694
1.0912892
1.0734882
1.0562363
1.0394407
1.0230346
1.0069695
0.99120917
0.97572549
0.96049564
0.94550015
0.93072189
0.91614539
0.90175655
0.88754237
0.87349082
0.85959076
0.84583184
0.83220448
0.81869975
0.8053094
0.79202575
0.77884166
0.76575052
0.75274616
0.73982286
0.72697528
0.71419845
0.70148772
0.68883878
0.67624758
0.66371034
0.65122355
0.63878391
0.62638836
0.61403403
0.60171824
0.58943848
0.5771924
0.56497782
0.55279266
0.54063503
0.5285031
0.51639522
0.50430982
0.49224542
0.48020067
0.46817429
0.45616507
0.4441719
0.43219371
0.42022954
0.40827844
0.39633958
0.38441215
0.3724954
0.36058865
0.34869124
0.33680256
0.32492204
0.31304913
0.30118333
0.28932417
0.27747121
0.26562405
0.2537823
0.24194564
0.23011371
0.21828622
0.20646286
0.19464337
0.18282747
0.17101495
0.15920555
0.1473991
0.13559539
0.12379427
0.11199554
0.10019909
0.088404723
0.076612332
0.064821743
0.053032848
0.041245543
0.029459563
0.017674992
0.0058910089
1.4681488
1.4526507
1.4257808
1.3918569
1.356056
1.3211046
1.2878027
1.2564496
1.2273189
1.2005275
1.1759399
1.1532477
1.1320959
1.1121672
1.093209
1.0750293
1.0574835
1.0404625
1.0238839
1.0076859
0.99182191
0.97625618
0.96096022
0.94591056
0.93108713
0.9164724
0.90205075
0.88780811
0.87373165
0.85980963
0.84603127
0.83238658
0.81886637
0.80546213
0.79216598
0.77897061
0.76586926
0.75285564
0.73992392
0.72706866
0.71428482
0.70156769
0.68891287
0.67631628
0.66377408
0.65128273
0.63883889
0.62643946
0.61408154
0.60176242
0.58947959
0.57723067
0.56501345
0.55282585
0.54066594
0.52853192
0.51642208
0.50433485
0.49226876
0.48022243
0.46819458
0.45618399
0.44418955
0.43221018
0.4202449
0.40829279
0.39635297
0.38442465
0.37250707
0.36059954
0.3487014
0.33681204
0.32493089
0.31305739
0.30119105
0.28933138
0.27747795
0.26563034
0.25378818
0.24195112
0.23011882
0.21829099
0.20646731
0.19464752
0.18283135
0.17101857
0.15920893
0.14740226
0.13559833
0.12379702
0.11199809
0.10020148
0.088406917
0.076614398
0.064823598
0.053034606
0.041246986
0.029460949
0.017675832
0.0058920359
1.4554173
1.4434639
1.4212296
1.390942
1.3570808
1.3230853
1.2903877
1.2593821
1.2302847
1.2032729
1.1783458
1.1552962
1.1338147
1.1135971
1.0943935
1.0760113
1.0583024
1.0411519
1.0244711
1.0081919
0.99226294
0.9766444
0.96130489
0.94621875
0.93136429
0.91672281
0.90227783
0.88801463
0.87391993
0.85998163
0.84618867
0.83253085
0.81899879
0.80558384
0.79227798
0.77907379
0.76596442
0.75294349
0.74000509
0.72714373
0.7143543
0.70163204
0.68897252
0.67637159
0.66382542
0.6513304
0.63888317
0.62648062
0.61411981
0.60179802
0.58951271
0.57726149
0.56504214
0.55285258
0.54069084
0.52855511
0.5164437
0.504355
0.49228755
0.48023995
0.46821091
0.45619922
0.44420375
0.43222343
0.42025727
0.40830433
0.39636374
0.3844347
0.37251646
0.3606083
0.34870958
0.33681967
0.32493801
0.31306404
0.30119725
0.28933718
0.27748337
0.2656354
0.25379291
0.24195554
0.23012294
0.21829483
0.20647089
0.19465086
0.18283447
0.17102148
0.15921165
0.1474048
0.13560069
0.12379923
0.11200014
0.1002034
0.088408675
0.076616062
0.064825084
0.053036032
0.041248159
0.029462136
0.017676643
0.0058930465
1.4554173
1.4434639
1.4212296
1.390942
1.3570808
1.3230853
1.2903877
1.2593821
1.2302847
1.2032728
1.1783458
1.1552962
1.1338147
1.1135971
1.0943935
1.0760113
1.0583024
1.0411519
1.0244711
1.0081919
0.99226294
0.9766444
0.96130489
0.94621875
0.9313643
0.91672282
0.90227783
0.88801463
0.87391993
0.85998163
0.84618866
0.83253085
0.81899879
0.80558384
0.79227798
0.77907379
0.76596442
0.75294349
0.74000509
0.72714373
0.7143543
0.70163204
0.68897251
0.67637159
0.66382542
0.6513304
0.63888318
0.62648062
0.61411981
0.60179802
0.58951271
0.57726149
0.56504214
0.55285257
0.54069084
0.52855511
0.5164437
0.504355
0.49228755
0.48023995
0.46821091
0.45619922
0.44420375
0.43222343
0.42025727
0.40830433
0.39636374
0.38443471
0.37251646
0.3606083
0.34870958
0.33681967
0.32493801
0.31306404
0.30119726
0.28933719
0.27748338
0.26563541
0.25379292
0.24195554
0.23012294
0.21829482
0.20647088
0.19465085
0.18283445
0.17102147
0.15921163
0.14740478
0.13560068
0.12379921
0.11200012
0.10020337
0.088408654
0.076616043
0.064825069
0.053036022
0.041248154
0.029462136
0.017676644
0.0058930486
1.4681488
1.4526507
1.4257808
1.3918569
1.356056
1.3211047
1.2878027
1.2564496
1.2273189
1.2005275
1.1759399
1.1532477
1.1320959
1.1121672
1.093209
1.0750293
1.0574835
1.0404625
1.0238839
1.0076859
0.9918219
0.97625617
0.96096022
0.94591056
0.93108714
0.91647241
0.90205076
0.88780811
0.87373165
0.85980963
0.84603126
0.83238658
0.81886637
0.80546213
0.79216598
0.77897062
0.76586927
0.75285565
0.73992392
0.72706866
0.71428482
0.70156768
0.68891287
0.67631628
0.66377409
0.65128274
0.6388389
0.62643946
0.61408154
0.60176243
0.58947959
0.57723067
0.56501344
0.55282585
0.54066594
0.52853192
0.51642208
0.50433485
0.49226876
0.48022242
0.46819457
0.45618398
0.44418954
0.43221017
0.4202449
0.40829279
0.39635298
0.38442466
0.37250708
0.36059954
0.3487014
0.33681204
0.32493089
0.3130574
0.30119106
0.2893314
0.27747797
0.26563037
0.2537882
0.24195113
0.23011882
0.21829098
0.20646729
0.1946475
0.18283132
0.17101854
0.15920889
0.14740222
0.13559828
0.12379696
0.11199803
0.10020142
0.088406858
0.076614349
0.064823561
0.053034583
0.041246976
0.02946095
0.017675838
0.0058920406
1.4975573
1.4713823
1.4329854
1.3918525
1.3527673
1.3161765
1.2818788
1.2501612
1.2213051
1.195204
1.1714501
1.1495601
1.1291103
1.1097694
1.0912893
1.0734882
1.0562363
1.0394407
1.0230346
1.0069695
0.99120916
0.97572549
0.96049564
0.94550016
0.9307219
0.91614541
0.90175656
0.88754238
0.87349082
0.85959076
0.84583184
0.83220448
0.81869976
0.80530941
0.79202576
0.77884167
0.76575053
0.75274616
0.73982286
0.72697527
0.71419844
0.70148772
0.68883878
0.67624758
0.66371035
0.65122356
0.63878392
0.62638837
0.61403403
0.60171823
0.58943847
0.5771924
0.56497782
0.55279267
0.54063503
0.52850311
0.51639522
0.50430981
0.49224541
0.48020065
0.46817427
0.45616505
0.44417188
0.43219371
0.42022954
0.40827845
0.39633959
0.38441215
0.37249541
0.36058865
0.34869124
0.33680257
0.32492205
0.31304915
0.30118336
0.28932421
0.27747125
0.26562408
0.25378232
0.24194564
0.2301137
0.2182862
0.20646283
0.19464333
0.18282743
0.17101489
0.15920549
0.14739903
0.13559531
0.12379418
0.11199545
0.100199
0.088404642
0.076612265
0.064821694
0.053032817
0.041245528
0.02945956
0.017674997
0.0058910124
1.5583786
1.5034495
1.442497
1.3909294
1.3476593
1.308691
1.2731047
1.2413321
1.2133712
1.1885933
1.1661915
1.1454901
1.1260085
1.1074205
1.0895069
1.0721221
1.0551703
1.0385889
1.0223362
1.0063827
0.99070567
0.97528615
0.96010732
0.94515367
0.93041061
0.91586438
0.90150196
0.88731108
0.87328023
0.85939866
0.8456563
0.83204381
0.81855247
0.80517419
0.79190144
0.77872722
0.76564503
0.75264882
0.73973294
0.72689213
0.71412149
0.70141645
0.68877271
0.67618629
0.66365345
0.6511707
0.6387348
0.6263427
0.61399156
0.60167872
0.5894017
0.57715817
0.56494594
0.55276297
0.54060735
0.5284773
0.51637116
0.50428738
0.49222449
0.48018115
0.46815609
0.4561481
0.44415607
0.43217895
0.42021576
0.40826558
0.39632757
0.38440094
0.37248494
0.36057889
0.34868214
0.33679407
0.32491412
0.31304175
0.30117644
0.28931773
0.2774652
0.26561842
0.25377705
0.24194072
0.23010911
0.21828192
0.20645884
0.1946396
0.18282394
0.17101162
0.15920243
0.14739617
0.13559264
0.1237917
0.11199315
0.10019686
0.088402654
0.076610408
0.064819992
0.053031245
0.041244166
0.029458381
0.017674298
0.0058905368
1.6755983
1.5545204
1.4585399
1.3948838
1.3463743
1.3039022
1.266367
1.2341953
1.2067949
1.1829573
1.161563
1.1417992
1.1231221
1.1051825
1.0877672
1.070753
1.0540721
1.0376879
1.0215797
1.0057338
0.99013886
0.97478378
0.95965709
0.94474686
0.93004085
0.91552684
0.90119286
0.88702735
0.8730193
0.8591583
0.8454346
0.83183907
0.81836318
0.80499901
0.79173917
0.77857679
0.76550548
0.75251926
0.7396126
0.72678028
0.71401749
0.70131969
0.68868265
0.67610244
0.66357535
0.65109794
0.638667
0.62627951
0.61393265
0.6016238
0.58935048
0.57711039
0.56490136
0.55272138
0.54056854
0.52844108
0.51633736
0.50425583
0.49219505
0.48015368
0.46813044
0.45612416
0.44413371
0.43215807
0.42019626
0.40824737
0.39631057
0.38438506
0.37247012
0.36056506
0.34866922
0.33678202
0.32490286
0.31303122
0.3011666
0.28930854
0.2774566
0.2656104
0.25376956
0.24193374
0.23010259
0.21827583
0.20645315
0.19463428
0.18281896
0.17100697
0.15919809
0.14739211
0.13558887
0.12378817
0.11198987
0.10019379
0.088399793
0.076607738
0.064817494
0.053028938
0.041242004
0.0294565
0.017672614
0.0058896927
)
;

boundaryField
{
    top
    {
        type            zeroGradient;
    }
    inlet
    {
        type            zeroGradient;
    }
    outlet
    {
        type            fixedValue;
        value           uniform 0;
    }
    bottom
    {
        type            zeroGradient;
    }
    back
    {
        type            empty;
    }
    front
    {
        type            empty;
    }
}


// ************************************************************************* //
