/*--------------------------------*- C++ -*----------------------------------*\
  =========                 |
  \\      /  F ield         | OpenFOAM: The Open Source CFD Toolbox
   \\    /   O peration     | Website:  https://openfoam.org
    \\  /    A nd           | Version:  9
     \\/     M anipulation  |
\*---------------------------------------------------------------------------*/
FoamFile
{
    format      ascii;
    class       surfaceScalarField;
    location    "15";
    object      phi;
}
// * * * * * * * * * * * * * * * * * * * * * * * * * * * * * * * * * * * * * //

dimensions      [0 3 -1 0 0 0 0];

internalField   nonuniform List<scalar> 
1890
(
0.0093061957
0.00069380426
0.008284393
0.0010218027
0.0073298985
0.0009544945
0.0064869552
0.00084294335
0.0057695845
0.0007173708
0.0051898601
0.00057972442
0.004738168
0.00045169202
0.00439519
0.00034297798
0.0041390267
0.00025616317
0.0039491069
0.00018991985
0.0038078879
0.00014121901
0.0037013781
0.00010650983
0.0036190579
8.2320242e-05
0.0035534117
6.564624e-05
0.0034992845
5.4127225e-05
0.0034532445
4.6040005e-05
0.0034130502
4.0194252e-05
0.0033772574
3.5792732e-05
0.0033449386
3.2318759e-05
0.0033154893
2.9449302e-05
0.0032885007
2.6988607e-05
0.0032636804
2.4820328e-05
0.003240805
2.2875493e-05
0.0032196926
2.111241e-05
0.0032001879
1.9504631e-05
0.0031821539
1.8033984e-05
0.0031654672
1.6686698e-05
0.0031500158
1.5451348e-05
0.0031356979
1.4317864e-05
0.0031224208
1.3277087e-05
0.0031101002
1.2320613e-05
0.0030986595
1.1440738e-05
0.0030880291
1.063044e-05
0.0030781458
9.8833558e-06
0.003068952
9.1937497e-06
0.0030603955
8.5564701e-06
0.0030524286
7.9668983e-06
0.0030450077
7.4208949e-06
0.0030380929
6.914752e-06
0.0030316477
6.4451405e-06
0.0030256387
6.0090715e-06
0.0030200348
5.6038558e-06
0.0030148078
5.227068e-06
0.0030099313
4.8765195e-06
0.0030053811
4.5502238e-06
0.0030011347
4.2463761e-06
0.0029971714
3.9633274e-06
0.0029934718
3.6995654e-06
0.002990018
3.4537013e-06
0.0029867936
3.2244539e-06
0.0029837829
3.0106442e-06
0.0029809718
2.8111861e-06
0.0029783467
2.6250793e-06
0.0029758953
2.4514052e-06
0.002973606
2.2893145e-06
0.002971468
2.138024e-06
0.0029694712
1.9968054e-06
0.0029676062
1.8649784e-06
0.0029658642
1.7419089e-06
0.0029642372
1.6270003e-06
0.0029627175
1.5196983e-06
0.0029612981
1.4194866e-06
0.0029599722
1.3258871e-06
0.0029587338
1.2384619e-06
0.002957577
1.156805e-06
0.0029564965
1.0805417e-06
0.0029554871
1.009323e-06
0.0029545443
9.4281603e-07
0.0029536635
8.8071048e-07
0.0029528408
8.227044e-07
0.0029520723
7.6852101e-07
0.0029513544
7.1789541e-07
0.0029506838
6.7059141e-07
0.0029500575
6.2638715e-07
0.0029494724
5.8509147e-07
0.0029489259
5.4651379e-07
0.0029484153
5.1049913e-07
0.0029479384
4.7686377e-07
0.0029474929
4.4547736e-07
0.0029470767
4.1614815e-07
0.0029466879
3.8877605e-07
0.0029463247
3.6316245e-07
0.0029459855
3.3926332e-07
0.0029456687
3.1686655e-07
0.0029453727
2.9601527e-07
0.0029450963
2.7644187e-07
0.002944838
2.5830704e-07
0.0029445967
2.4121367e-07
0.0029443712
2.2549092e-07
0.0029441607
2.1052653e-07
0.0029439638
1.9691668e-07
0.0029437801
1.8374667e-07
0.0029436082
1.7200897e-07
0.0029434479
1.6042064e-07
0.0029432975
1.504179e-07
0.002943157
1.4050009e-07
0.0029430249
1.3216842e-07
0.0029428997
1.2512956e-07
0.0029427803
1.1947158e-07
1.2581012e-07
0.010339525
0.00035427933
0.010570754
0.00079057337
0.0106063
0.00091894824
0.010547572
0.00090167139
0.010422317
0.00084262624
0.010244356
0.00075768558
0.010039421
0.00065662741
0.0098287427
0.00055365583
0.009625135
0.00045977081
0.0094353012
0.00037975354
0.0092624275
0.00031409261
0.0091075331
0.0002614043
0.0089701539
0.00021969952
0.0088489023
0.00018689788
0.0087419716
0.00016105801
0.0086474928
0.00014051891
0.0085636941
0.00012399291
0.0084890108
0.00011047595
0.0084221096
9.9219841e-05
0.0083618775
8.9681399e-05
0.0083073953
8.1470686e-05
0.0082579078
7.4307876e-05
0.0082127928
6.7990524e-05
0.0081715353
6.2370003e-05
0.008133705
5.7335007e-05
0.0080989388
5.2800158e-05
0.0080669273
4.869823e-05
0.0080374037
4.4974919e-05
0.0080101361
4.1585367e-05
0.0079849213
3.8491839e-05
0.0079615797
3.5662163e-05
0.0079399518
3.3068627e-05
0.0079198951
3.0687186e-05
0.0079012816
2.8496856e-05
0.0078839962
2.6479236e-05
0.0078679346
2.4618129e-05
0.0078530023
2.2899223e-05
0.0078391133
2.1309827e-05
0.0078261894
1.9838648e-05
0.0078141588
1.8475605e-05
0.0078029562
1.7211668e-05
0.0077925213
1.6038728e-05
0.0077827989
1.4949482e-05
0.0077737382
1.3937333e-05
0.0077652921
1.2996311e-05
0.0077574176
1.2120993e-05
0.0077500745
1.1306441e-05
0.0077432259
1.0548146e-05
0.0077368375
9.8419759e-06
0.0077308778
9.1841404e-06
0.0077253172
8.5711541e-06
0.0077201286
7.9998086e-06
0.0077152865
7.4671501e-06
0.0077107675
6.970457e-06
0.0077065497
6.5072198e-06
0.0077026126
6.0751217e-06
0.0076989375
5.6720193e-06
0.0076955065
5.2959256e-06
0.0076923034
4.9449941e-06
0.0076893128
4.6175061e-06
0.0076865206
4.3118614e-06
0.0076839135
4.0265694e-06
0.0076814791
3.7602478e-06
0.007679206
3.5116132e-06
0.0076770834
3.2794789e-06
0.0076751013
3.0627434e-06
0.0076732503
2.860386e-06
0.0076715216
2.6714517e-06
0.0076699072
2.4950506e-06
0.0076683995
2.3303396e-06
0.0076669914
2.176539e-06
0.0076656763
2.0329025e-06
0.0076644482
1.8987569e-06
0.0076633012
1.7734513e-06
0.0076622299
1.6564211e-06
0.0076612294
1.5470999e-06
0.0076602949
1.4450244e-06
0.0076594221
1.3496791e-06
0.0076586068
1.2606878e-06
0.0076578452
1.1775426e-06
0.0076571339
1.0999648e-06
0.0076564696
1.027417e-06
0.0076558491
9.597657e-07
0.0076552697
8.9640155e-07
0.0076547283
8.3741802e-07
0.0076542229
7.8203559e-07
0.0076537505
7.3069679e-07
0.0076533095
6.8225551e-07
0.0076528972
6.3771476e-07
0.0076525124
5.9523245e-07
0.0076521525
5.5677509e-07
0.007651817
5.1927445e-07
0.0076515026
4.8639586e-07
0.0076512102
4.5294527e-07
0.0076509351
4.2557639e-07
0.0076506803
3.9539192e-07
0.0076504381
3.7441451e-07
0.007650216
3.4728605e-07
0.0076499993
3.3617649e-07
3.1082584e-07
0.010188704
0.00016557517
0.010530486
0.00044879102
0.010851453
0.0005979818
0.011124174
0.00062895027
0.011350581
0.00061621887
0.011524487
0.00058378054
0.01164633
0.00053478418
0.011724155
0.00047583047
0.011767999
0.00041592663
0.011786639
0.00036111399
0.011787114
0.00031361713
0.011775058
0.00027346028
0.01175486
0.00023989722
0.011729768
0.00021199033
0.011702054
0.00018877261
0.011673239
0.00016933386
0.011644339
0.00015289292
0.011616003
0.00013881178
0.011588629
0.00012659375
0.011562446
0.00011586442
0.011537571
0.00010634494
0.011514052
9.7827017e-05
0.011491889
9.015339e-05
0.011471056
8.320339e-05
0.011451509
7.6882623e-05
0.011433193
7.111555e-05
0.011416051
6.5840262e-05
0.011400021
6.1004867e-05
0.011385042
5.6565029e-05
0.011371051
5.2482307e-05
0.01135799
4.8723015e-05
0.011345801
4.5257393e-05
0.011334429
4.2059011e-05
0.011323822
3.9104292e-05
0.011313929
3.6372134e-05
0.011304704
3.3843606e-05
0.011296101
3.1501674e-05
0.01128808
2.9330986e-05
0.011280601
2.7317664e-05
0.011273628
2.5449147e-05
0.011267125
2.3714031e-05
0.011261062
2.2101951e-05
0.011255408
2.0603468e-05
0.011250135
1.9209969e-05
0.011245218
1.7913586e-05
0.011240632
1.6707123e-05
0.011236355
1.5583979e-05
0.011232365
1.4538099e-05
0.011228643
1.3563909e-05
0.01122517
1.2656275e-05
0.011221931
1.1810462e-05
0.011218909
1.1022093e-05
0.011216089
1.0287127e-05
0.011213457
9.6018258e-06
0.011211002
8.9627322e-06
0.01120871
8.3666497e-06
0.011206572
7.8106162e-06
0.011204576
7.2918889e-06
0.011202713
6.8079195e-06
0.011200974
6.3563391e-06
0.011199351
5.934943e-06
0.011197836
5.541675e-06
0.011196421
5.1746256e-06
0.011195101
4.8320138e-06
0.011193868
4.5121911e-06
0.011192718
4.213623e-06
0.011191643
3.9348893e-06
0.01119064
3.6746658e-06
0.011189703
3.4317235e-06
0.011188829
3.2049052e-06
0.011188012
2.9931423e-06
0.011187249
2.7954104e-06
0.011186537
2.6107843e-06
0.011185872
2.4383569e-06
0.011185251
2.2773438e-06
0.011184672
2.1269455e-06
0.01118413
1.9865192e-06
0.011183625
1.8553395e-06
0.011183153
1.7329039e-06
0.011182711
1.6185025e-06
0.011182299
1.5117895e-06
0.011181915
1.4119959e-06
0.011181555
1.3189972e-06
0.01118122
1.2318672e-06
0.011180907
1.1508442e-06
0.011180614
1.074666e-06
0.011180341
1.0041861e-06
0.011180086
9.3744952e-07
0.011179847
8.7638429e-07
0.011179625
8.1766946e-07
0.011179416
7.6518177e-07
0.011179222
7.1301524e-07
0.01117904
6.6866256e-07
0.011178871
6.2142078e-07
0.011178712
5.8548204e-07
0.011178566
5.4136289e-07
0.011178425
5.1541018e-07
0.0111783
4.7239632e-07
0.011178177
4.591984e-07
4.1620583e-07
0.010097182
6.839357e-05
0.010346961
0.00019901115
0.010662469
0.00028247389
0.010982753
0.0003086665
0.011290229
0.00030874342
0.011575251
0.00029875787
0.011829022
0.00028101344
0.012047865
0.00025698754
0.012233272
0.00023051981
0.01238924
0.00020514589
0.012520295
0.00018256236
0.012630755
0.00016299959
0.012724427
0.00014622493
0.012804515
0.00013190313
0.012873613
0.00011967426
0.012933772
0.00010917459
0.012986596
0.00010006904
0.013033332
9.2076325e-05
0.01307495
8.4975216e-05
0.013112216
7.859859e-05
0.013145739
7.2822296e-05
0.013176012
6.7553946e-05
0.013203441
6.2723941e-05
0.013228366
5.827891e-05
0.013251071
5.4176992e-05
0.013271803
5.0384421e-05
0.01329077
4.6873138e-05
0.013308155
4.3619144e-05
0.013324119
4.0601423e-05
0.0133388
3.7801252e-05
0.013352321
3.5201737e-05
0.013364791
3.2787531e-05
0.013376305
3.0544605e-05
0.01338695
2.8460106e-05
0.0133968
2.6522233e-05
0.013405923
2.4720134e-05
0.013414381
2.3043826e-05
0.013422228
2.1484114e-05
0.013429513
2.0032523e-05
0.013436281
1.8681238e-05
0.013442572
1.7423042e-05
0.013448422
1.6251273e-05
0.013453866
1.5159773e-05
0.013458933
1.414285e-05
0.013463652
1.3195242e-05
0.013468047
1.2312083e-05
0.013472142
1.1488868e-05
0.013475959
1.0721423e-05
0.013479517
1.0005881e-05
0.013482834
9.3386555e-06
0.013485928
8.7164101e-06
0.013488814
8.1360515e-06
0.013491507
7.5947014e-06
0.013494019
7.0896868e-06
0.013496363
6.6185259e-06
0.013498551
6.1789114e-06
0.013500593
5.7687048e-06
0.013502499
5.3859145e-06
0.013504278
5.0286908e-06
0.013505939
4.6953092e-06
0.01350749
4.3841586e-06
0.013508938
4.0937412e-06
0.01351029
3.8226556e-06
0.013511552
3.569597e-06
0.013512731
3.3333525e-06
0.013513832
3.112792e-06
0.01351486
2.9068731e-06
0.01351582
2.7146165e-06
0.013516717
2.5351205e-06
0.013517554
2.3675334e-06
0.013518336
2.2110682e-06
0.013519066
2.0649731e-06
0.013519748
1.9285631e-06
0.013520385
1.8011669e-06
0.013520981
1.6822088e-06
0.013521537
1.5710898e-06
0.013522056
1.4673426e-06
0.013522541
1.3704177e-06
0.013522994
1.2799601e-06
0.013523417
1.1954306e-06
0.013523812
1.1166007e-06
0.013524181
1.0428695e-06
0.013524526
9.7419603e-07
0.013524848
9.0982218e-07
0.013525149
8.5002585e-07
0.01352543
7.9372033e-07
0.013525692
7.4174609e-07
0.013525937
6.9235813e-07
0.013526166
6.4739569e-07
0.01352638
6.038301e-07
0.01352658
5.6532275e-07
0.013526766
5.2642172e-07
0.013526941
4.9413928e-07
0.013527103
4.5858977e-07
0.013527256
4.3282943e-07
0.013527398
3.9914244e-07
0.013527533
3.8099065e-07
0.013527658
3.472701e-07
0.013527779
3.3819855e-07
3.0577432e-07
0.010068394
1.1905056e-11
0.010267405
1.8994957e-11
0.010549878
9.5808836e-12
0.010858545
-4.407584e-12
0.011167288
-1.5333324e-11
0.011466046
-1.9029042e-11
0.01174706
-1.4468721e-11
0.012004047
-5.1553232e-12
0.012234567
7.5705757e-12
0.012439713
1.5672505e-11
0.012622275
1.9171784e-11
0.012785275
1.5247234e-11
0.0129315
3.554174e-12
0.013063403
-8.3095407e-12
0.013183077
-2.0545068e-11
0.013292252
-2.9186894e-11
0.013392321
-3.0927959e-11
0.013484397
-2.5223714e-11
0.013569373
-1.447767e-11
0.013647971
-3.8915079e-12
0.013720793
4.2025794e-12
0.013788347
6.8501732e-12
0.013851071
2.2012882e-12
0.01390935
-5.385444e-12
0.013963527
-1.5632305e-11
0.014013912
-2.3811728e-11
0.014060785
-2.882212e-11
0.014104404
-2.8036528e-11
0.014145006
-1.9802779e-11
0.014182807
-1.223527e-11
0.014218008
-4.4253751e-12
0.014250796
1.8208287e-13
0.014281341
-1.3802452e-13
0.014309801
-4.0259862e-12
0.014336323
-1.1395398e-11
0.014361043
-1.7612183e-11
0.014384087
-2.1940486e-11
0.014405571
-2.2362099e-11
0.014425604
-1.5951173e-11
0.014444285
-7.90738e-12
0.014461708
4.1558281e-13
0.014477959
4.9516404e-12
0.014493119
5.7473481e-12
0.014507262
1.4511887e-12
0.014520457
-4.844227e-12
0.014532769
-1.1559063e-11
0.014544258
-1.6271387e-11
0.01455498
-1.8272644e-11
0.014564985
-1.4380883e-11
0.014574324
-8.8481675e-12
0.014583041
-2.8290137e-12
0.014591177
1.0098274e-12
0.014598771
2.3893036e-12
0.014605861
2.1404518e-13
0.014612479
-4.2769425e-12
0.014618658
-7.9197159e-12
0.014624427
-7.8858256e-12
0.014629813
-2.6830619e-12
0.014634842
7.5350872e-12
0.014639537
1.9974883e-11
0.014643921
3.3402373e-11
0.014648015
4.2564446e-11
0.014651837
4.472298e-11
0.014655407
3.875029e-11
0.01465874
2.7730251e-11
0.014661853
1.5026979e-11
0.01466476
3.8661672e-12
0.014667475
-4.2390078e-12
0.01467001
-5.6680191e-12
0.014672377
-1.7054998e-12
0.014674588
7.8503838e-13
0.014676653
-1.8793545e-12
0.014678582
-9.2121956e-12
0.014680383
-2.1572189e-11
0.014682065
-4.1849889e-11
0.014683636
-6.3373479e-11
0.014685104
-8.2187253e-11
0.014686474
-9.337043e-11
0.014687754
-9.0407949e-11
0.01468895
-7.5955715e-11
0.014690067
-5.2548384e-11
0.014691109
-2.3173284e-11
0.014692084
6.5181396e-12
0.014692993
3.6248385e-11
0.014693843
6.3183835e-11
0.014694637
8.9667149e-11
0.014695379
1.1656753e-10
0.014696071
1.4354962e-10
0.014696718
1.734156e-10
0.014697322
1.9997438e-10
0.014697887
2.2518508e-10
0.014698413
2.3916808e-10
0.014698907
2.4430499e-10
0.014699365
2.3229855e-10
0.014699797
2.0780621e-10
0.014700196
1.7714796e-10
0.014700577
1.3362072e-10
0.014700924
9.3244181e-11
0.014701262
6.1192988e-11
2.4658584e-11
0.010068394
-6.8393548e-05
0.010267405
-0.00019901112
0.010549878
-0.00028247388
0.010858545
-0.00030866651
0.011167288
-0.00030874345
0.011466046
-0.00029875791
0.01174706
-0.00028101347
0.012004047
-0.00025698754
0.012234567
-0.00023051978
0.012439713
-0.00020514585
0.012622275
-0.00018256232
0.012785275
-0.00016299956
0.0129315
-0.00014622493
0.013063403
-0.00013190316
0.013183077
-0.00011967431
0.013292252
-0.00010917465
0.013392321
-0.00010006909
0.013484397
-9.2076363e-05
0.013569373
-8.4975231e-05
0.013647971
-7.8598585e-05
0.013720793
-7.282228e-05
0.013788347
-6.7553933e-05
0.013851071
-6.272394e-05
0.01390935
-5.8278932e-05
0.013963527
-5.4177034e-05
0.014013912
-5.0384475e-05
0.014060785
-4.6873193e-05
0.014104404
-4.3619189e-05
0.014145006
-4.0601453e-05
0.014182807
-3.7801263e-05
0.014218009
-3.5201736e-05
0.014250796
-3.2787526e-05
0.014281341
-3.0544606e-05
0.014309801
-2.8460121e-05
0.014336323
-2.6522264e-05
0.014361043
-2.4720176e-05
0.014384087
-2.3043871e-05
0.014405571
-2.1484151e-05
0.014425604
-2.0032546e-05
0.014444285
-1.8681244e-05
0.014461708
-1.7423034e-05
0.014477959
-1.6251259e-05
0.014493119
-1.5159763e-05
0.014507262
-1.4142851e-05
0.014520457
-1.319526e-05
0.014532769
-1.2312113e-05
0.014544258
-1.1488903e-05
0.01455498
-1.0721455e-05
0.014564985
-1.0005904e-05
0.014574324
-9.3386638e-06
0.014583041
-8.7164077e-06
0.014591177
-8.1360449e-06
0.014598771
-7.5946978e-06
0.014605861
-7.0896919e-06
0.014612479
-6.6185417e-06
0.014618658
-6.1789322e-06
0.014624427
-5.7687216e-06
0.014629813
-5.3859151e-06
0.014634842
-5.0286662e-06
0.014639537
-4.6952567e-06
0.014643921
-4.3840853e-06
0.014648015
-4.0936585e-06
0.014651837
-3.8225766e-06
0.014655407
-3.5695344e-06
0.01465874
-3.3333152e-06
0.014661853
-3.1127786e-06
0.01466476
-2.9068757e-06
0.014667475
-2.7146242e-06
0.01467001
-2.5351245e-06
0.014672377
-2.3675296e-06
0.014674588
-2.2110585e-06
0.014676653
-2.0649699e-06
0.014678582
-1.9285797e-06
0.014680383
-1.8012227e-06
0.014682065
-1.6823079e-06
0.014683636
-1.5712281e-06
0.014685104
-1.4675063e-06
0.014686474
-1.3705874e-06
0.014687754
-1.2801162e-06
0.01468895
-1.1955521e-06
0.014690067
-1.1166755e-06
0.01469111
-1.0428941e-06
0.014692084
-9.7417109e-07
0.014692993
-9.0975063e-07
0.014693843
-8.4990964e-07
0.014694637
-7.9355725e-07
0.014695379
-7.4153121e-07
0.014696071
-6.9208496e-07
0.014696718
-6.4706337e-07
0.014697322
-6.0344317e-07
0.014697887
-5.6489426e-07
0.014698413
-5.2597293e-07
0.014698907
-4.9369346e-07
0.014699365
-4.5817501e-07
0.014699797
-4.3246716e-07
0.014700196
-3.9884979e-07
0.014700577
-3.807734e-07
0.014700924
-3.4712338e-07
0.014701262
-3.3811285e-07
-3.0573183e-07
0.010097182
-0.00016557516
0.010346961
-0.00044879101
0.010662469
-0.00059798181
0.010982753
-0.0006289503
0.011290228
-0.00061621891
0.011575251
-0.00058378057
0.011829022
-0.00053478418
0.012047865
-0.00047583043
0.012233272
-0.00041592658
0.01238924
-0.00036111394
0.012520295
-0.0003136171
0.012630755
-0.00027346029
0.012724427
-0.00023989726
0.012804515
-0.00021199039
0.012873613
-0.00018877267
0.012933772
-0.0001693339
0.012986596
-0.00015289293
0.013033332
-0.00013881177
0.01307495
-0.00012659372
0.013112216
-0.0001158644
0.013145739
-0.00010634493
0.013176012
-9.7827032e-05
0.013203441
-9.0153428e-05
0.013228366
-8.3203446e-05
0.013251071
-7.6882681e-05
0.013271802
-7.1115597e-05
0.01329077
-6.5840289e-05
0.013308155
-6.1004871e-05
0.013324119
-5.6565017e-05
0.0133388
-5.2482291e-05
0.013352321
-4.8723007e-05
0.013364791
-4.5257403e-05
0.013376305
-4.2059042e-05
0.01338695
-3.9104338e-05
0.013396799
-3.6372184e-05
0.013405923
-3.3843648e-05
0.013414381
-3.1501699e-05
0.013422228
-2.9330989e-05
0.013429513
-2.7317651e-05
0.013436281
-2.5449125e-05
0.013442572
-2.3714015e-05
0.013448423
-2.210195e-05
0.013453866
-2.0603485e-05
0.013458933
-1.9210001e-05
0.013463652
-1.7913625e-05
0.013468047
-1.6707158e-05
0.013472142
-1.5584001e-05
0.013475959
-1.4538102e-05
0.013479517
-1.3563898e-05
0.013482834
-1.2656258e-05
0.013485928
-1.181045e-05
0.013488814
-1.1022096e-05
0.013491507
-1.0287147e-05
0.013494019
-9.6018589e-06
0.013496363
-8.9627662e-06
0.013498551
-8.3666722e-06
0.013500593
-7.8106144e-06
0.013502499
-7.2918575e-06
0.013504278
-6.8078632e-06
0.013505939
-6.3562676e-06
0.01350749
-5.9348738e-06
0.013508938
-5.5416222e-06
0.01351029
-5.1745971e-06
0.013511552
-4.83201e-06
0.013512731
-4.5122005e-06
0.013513832
-4.213633e-06
0.01351486
-3.9348865e-06
0.01351582
-3.6746429e-06
0.013516717
-3.4316869e-06
0.013517554
-3.204865e-06
0.013518336
-2.9931198e-06
0.013519066
-2.795421e-06
0.013519748
-2.6108381e-06
0.013520385
-2.4384549e-06
0.01352098
-2.2774718e-06
0.013521536
-2.1270859e-06
0.013522056
-1.9866483e-06
0.013522541
-1.8554414e-06
0.013522994
-1.7329714e-06
0.013523417
-1.6185373e-06
0.013523812
-1.5117994e-06
0.013524181
-1.4119894e-06
0.013524526
-1.3189754e-06
0.013524848
-1.2318277e-06
0.013525149
-1.1507716e-06
0.01352543
-1.0745477e-06
0.013525692
-1.0040096e-06
0.013525937
-9.3720969e-07
0.013526166
-8.7609075e-07
0.01352638
-8.1733422e-07
0.01352658
-7.6483254e-07
0.013526766
-7.1267095e-07
0.013526941
-6.6834794e-07
0.013527103
-6.21143e-07
0.013527256
-5.8525042e-07
0.013527398
-5.4117445e-07
0.013527533
-5.152668e-07
0.013527658
-4.7228419e-07
0.013527779
-4.5911727e-07
-4.1616267e-07
0.010188704
-0.00035427933
0.010530486
-0.00079057339
0.010851453
-0.00091894827
0.011124174
-0.00090167143
0.011350581
-0.00084262626
0.011524487
-0.00075768556
0.01164633
-0.00065662736
0.011724155
-0.00055365576
0.011767999
-0.00045977076
0.011786639
-0.00037975352
0.011787114
-0.00031409263
0.011775058
-0.00026140435
0.01175486
-0.00021969959
0.011729768
-0.00018689794
0.011702054
-0.00016105804
0.011673239
-0.0001405189
0.011644339
-0.00012399287
0.011616003
-0.0001104759
0.011588629
-9.9219799e-05
0.011562446
-8.9681385e-05
0.011537571
-8.1470708e-05
0.011514052
-7.4307929e-05
0.011491889
-6.7990594e-05
0.011471056
-6.2370068e-05
0.011451508
-5.733505e-05
0.011433193
-5.2800168e-05
0.011416051
-4.8698209e-05
0.011400021
-4.4974881e-05
0.011385042
-4.158533e-05
0.011371051
-3.8491821e-05
0.01135799
-3.5662175e-05
0.011345801
-3.3068668e-05
0.011334429
-3.0687246e-05
0.011323822
-2.8496915e-05
0.011313929
-2.6479278e-05
0.011304704
-2.4618143e-05
0.011296101
-2.2899207e-05
0.01128808
-2.1309792e-05
0.011280601
-1.9838609e-05
0.011273628
-1.847558e-05
0.011267125
-1.7211669e-05
0.011261062
-1.6038756e-05
0.011255408
-1.4949529e-05
0.011250135
-1.3937384e-05
0.011245218
-1.2996349e-05
0.011240632
-1.2121006e-05
0.011236355
-1.1306428e-05
0.011232365
-1.0548113e-05
0.011228643
-9.8419391e-06
0.01122517
-9.1841169e-06
0.011221931
-8.5711554e-06
0.011218909
-7.9998368e-06
0.011216089
-7.4671969e-06
0.011213457
-6.9705044e-06
0.011211002
-6.5072494e-06
0.01120871
-6.0751191e-06
0.011206572
-5.6719814e-06
0.011204576
-5.2958622e-06
0.011202713
-4.9449231e-06
0.011200974
-4.6174491e-06
0.011199351
-4.311834e-06
0.011197836
-4.0265769e-06
0.011196421
-3.7602826e-06
0.011195101
-3.5116558e-06
0.011193868
-3.2795083e-06
0.011192718
-3.0627419e-06
0.011191643
-2.8603489e-06
0.01119064
-2.6713887e-06
0.011189703
-2.4949832e-06
0.011188829
-2.3302954e-06
0.011188012
-2.1765387e-06
0.011187249
-2.0329552e-06
0.011186537
-1.8988549e-06
0.011185872
-1.7735718e-06
0.011185251
-1.656537e-06
0.011184672
-1.5471848e-06
0.01118413
-1.4450654e-06
0.011183625
-1.3496775e-06
0.011183153
-1.2606597e-06
0.011182712
-1.1775103e-06
0.0111823
-1.0999459e-06
0.011181915
-1.0274192e-06
0.011181556
-9.5978062e-07
0.01118122
-8.964085e-07
0.011180907
-8.3739277e-07
0.011180614
-7.8195782e-07
0.011180341
-7.3055981e-07
0.011180086
-6.8206726e-07
0.011179847
-6.374952e-07
0.011179625
-5.950079e-07
0.011179416
-5.5656874e-07
0.011179222
-5.1910007e-07
0.01117904
-4.8625854e-07
0.011178871
-4.5283425e-07
0.011178711
-4.2548138e-07
0.011178565
-3.9529739e-07
0.011178425
-3.7431908e-07
0.0111783
-3.4718978e-07
0.011178177
-3.360827e-07
-3.1077935e-07
0.010339525
-0.00069380427
0.010570754
-0.0010218027
0.0106063
-0.00095449453
0.010547572
-0.00084294336
0.010422317
-0.00071737079
0.010244356
-0.00057972438
0.010039421
-0.00045169197
0.0098287428
-0.00034297795
0.009625135
-0.00025616316
0.0094353011
-0.00018991988
0.0092624274
-0.00014121905
0.009107533
-0.00010650988
0.0089701538
-8.2320272e-05
0.0088489024
-6.5646246e-05
0.0087419717
-5.4127208e-05
0.0086474929
-4.6039972e-05
0.0085636942
-4.0194216e-05
0.0084890108
-3.5792708e-05
0.0084221096
-3.2318755e-05
0.0083618774
-2.9449321e-05
0.0083073953
-2.6988643e-05
0.0082579077
-2.482037e-05
0.0082127928
-2.2875528e-05
0.0081715353
-2.1112428e-05
0.008133705
-1.9504628e-05
0.0080989389
-1.8033964e-05
0.0080669274
-1.668667e-05
0.0080374037
-1.5451326e-05
0.0080101361
-1.4317855e-05
0.0079849213
-1.3277098e-05
0.0079615796
-1.232064e-05
0.0079399517
-1.1440774e-05
0.007919895
-1.0630473e-05
0.0079012816
-9.883376e-06
0.0078839962
-9.1937522e-06
0.0078679347
-8.5564551e-06
0.0078530023
-7.9668732e-06
0.0078391134
-7.4208709e-06
0.0078261894
-6.9147382e-06
0.0078141588
-6.4451439e-06
0.0078029562
-6.0090912e-06
0.0077925213
-5.6038853e-06
0.0077827989
-5.2270978e-06
0.0077737381
-4.8765385e-06
0.0077652922
-4.550227e-06
0.0077574176
-4.2463629e-06
0.0077500745
-3.9633043e-06
0.0077432259
-3.6995426e-06
0.0077368376
-3.4536881e-06
0.0077308778
-3.2244571e-06
0.0077253172
-3.0106631e-06
0.0077201285
-2.8112139e-06
0.0077152865
-2.625106e-06
0.0077107675
-2.4514184e-06
0.0077065497
-2.2893089e-06
0.0077026127
-2.1379984e-06
0.0076989375
-1.9967677e-06
0.0076955066
-1.8649411e-06
0.0076923034
-1.7418835e-06
0.0076893128
-1.6269963e-06
0.0076865205
-1.5197151e-06
0.0076839134
-1.4195172e-06
0.0076814791
-1.3259192e-06
0.007679206
-1.2384809e-06
0.0076770834
-1.1568029e-06
0.0076751014
-1.080517e-06
0.0076732503
-1.0092834e-06
0.0076715217
-9.4277709e-07
0.0076699072
-8.8068611e-07
0.0076683995
-8.2270842e-07
0.0076669913
-7.6855427e-07
0.0076656762
-7.179518e-07
0.0076644481
-6.7065593e-07
0.0076633011
-6.2644151e-07
0.0076622299
-5.8512317e-07
0.0076612295
-5.465162e-07
0.007660295
-5.1047726e-07
0.0076594222
-4.7683017e-07
0.0076586069
-4.4544606e-07
0.0076578454
-4.1613197e-07
0.007657134
-3.8877804e-07
0.0076564697
-3.6317677e-07
0.0076558492
-3.3927888e-07
0.0076552698
-3.1686664e-07
0.0076547286
-2.9599121e-07
0.0076542231
-2.7638922e-07
0.0076537508
-2.5823177e-07
0.0076533097
-2.4112917e-07
0.0076528974
-2.2540836e-07
0.0076525125
-2.1046068e-07
0.0076521525
-1.9686833e-07
0.0076518169
-1.8371858e-07
0.0076515026
-1.719905e-07
0.0076512101
-1.6040445e-07
0.007650935
-1.5039645e-07
0.0076506802
-1.4047436e-07
0.007650438
-1.3211902e-07
0.0076502159
-1.2507092e-07
0.0076499993
-1.1942072e-07
-1.2578108e-07
0.0093061957
0.0082843929
0.0073298985
0.0064869552
0.0057695846
0.0051898602
0.0047381681
0.00439519
0.0041390267
0.0039491068
0.0038078878
0.0037013781
0.0036190579
0.0035534118
0.0034992846
0.0034532445
0.0034130502
0.0033772574
0.0033449386
0.0033154892
0.0032885006
0.0032636804
0.0032408049
0.0032196926
0.003200188
0.003182154
0.0031654672
0.0031500158
0.0031356979
0.0031224208
0.0031101002
0.0030986595
0.0030880291
0.0030781458
0.003068952
0.0030603956
0.0030524286
0.0030450077
0.0030380929
0.0030316477
0.0030256386
0.0030200348
0.0030148078
0.0030099313
0.0030053811
0.0030011348
0.0029971714
0.0029934718
0.002990018
0.0029867935
0.0029837829
0.0029809717
0.0029783467
0.0029758954
0.0029736061
0.0029714681
0.0029694713
0.0029676062
0.0029658642
0.0029642372
0.0029627175
0.002961298
0.0029599722
0.0029587338
0.0029575771
0.0029564965
0.0029554872
0.0029545443
0.0029536635
0.0029528407
0.0029520722
0.0029513543
0.0029506838
0.0029500574
0.0029494724
0.0029489259
0.0029484154
0.0029479385
0.0029474929
0.0029470767
0.0029466879
0.0029463248
0.0029459856
0.0029456688
0.0029453729
0.0029450965
0.0029448381
0.0029445969
0.0029443713
0.0029441607
0.0029439638
0.0029437801
0.0029436081
0.0029434478
0.0029432974
0.0029431569
0.0029430247
0.0029428996
0.0029427802
)
;

boundaryField
{
    top
    {
        type            calculated;
        value           uniform 0;
    }
    inlet
    {
        type            calculated;
        value           nonuniform List<scalar> 10(-0.01 -0.01 -0.01 -0.01 -0.01 -0.01 -0.01 -0.01 -0.01 -0.01);
    }
    outlet
    {
        type            calculated;
        value           nonuniform List<scalar> 10(0.0029426545 0.0076498143 0.011178071 0.013527889 0.014701568 0.014701568 0.013527889 0.011178071 0.0076498143 0.0029426544);
    }
    bottom
    {
        type            calculated;
        value           uniform 0;
    }
    back
    {
        type            empty;
        value           nonuniform List<scalar> 0();
    }
    front
    {
        type            empty;
        value           nonuniform List<scalar> 0();
    }
}


// ************************************************************************* //
