/*--------------------------------*- C++ -*----------------------------------*\
  =========                 |
  \\      /  F ield         | OpenFOAM: The Open Source CFD Toolbox
   \\    /   O peration     | Website:  https://openfoam.org
    \\  /    A nd           | Version:  9
     \\/     M anipulation  |
\*---------------------------------------------------------------------------*/
FoamFile
{
    format      ascii;
    class       volVectorField;
    location    "15";
    object      U;
}
// * * * * * * * * * * * * * * * * * * * * * * * * * * * * * * * * * * * * * //

dimensions      [0 1 -1 0 0 0 0];

internalField   nonuniform List<vector> 
1000
(
(0.91890839 0.035821913 0)
(0.86271384 0.062195639 0)
(0.78705969 0.062510091 0)
(0.69536032 0.054550396 0)
(0.61089744 0.044531651 0)
(0.54411592 0.034015971 0)
(0.49343013 0.024187538 0)
(0.45479414 0.016144228 0)
(0.42544582 0.010265785 0)
(0.40347313 0.0063041461 0)
(0.38715765 0.0037976315 0)
(0.37496219 0.0023103404 0)
(0.36566192 0.0014930163 0)
(0.35836272 0.001085118 0)
(0.35244268 0.00090607066 0)
(0.34748201 0.00084104928 0)
(0.34320348 0.00082372186 0)
(0.33942726 0.00081930908 0)
(0.33603793 0.00081185205 0)
(0.33296114 0.0007958025 0)
(0.33014778 0.00077081337 0)
(0.32756384 0.00073871122 0)
(0.32518419 0.00070189013 0)
(0.32298902 0.00066256526 0)
(0.32096172 0.00062249807 0)
(0.31908785 0.00058295539 0)
(0.31735449 0.00054476972 0)
(0.31574996 0.00050843308 0)
(0.3142636 0.00047419163 0)
(0.31288574 0.0004421256 0)
(0.31160755 0.00041221092 0)
(0.31042101 0.00038436292 0)
(0.30931882 0.00035846549 0)
(0.30829438 0.00033438983 0)
(0.30734165 0.00031200529 0)
(0.30645516 0.00029118576 0)
(0.30562991 0.0002718126 0)
(0.30486137 0.00025377581 0)
(0.30414535 0.0002369744 0)
(0.30347807 0.00022131582 0)
(0.302856 0.00020671565 0)
(0.30227595 0.00019309687 0)
(0.30173496 0.00018038917 0)
(0.30123029 0.00016852841 0)
(0.30075942 0.0001574557 0)
(0.30032002 0.00014711699 0)
(0.29990993 0.00013746224 0)
(0.29952716 0.00012844502 0)
(0.29916983 0.00012002216 0)
(0.29883624 0.00011215338 0)
(0.29852478 0.00010480127 0)
(0.29823396 9.7931158e-05 0)
(0.29796241 9.15109e-05 0)
(0.29770882 8.5510943e-05 0)
(0.29747201 7.9903817e-05 0)
(0.29725085 7.466411e-05 0)
(0.2970443 6.9768013e-05 0)
(0.29685138 6.5193086e-05 0)
(0.2966712 6.0918239e-05 0)
(0.29650291 5.692342e-05 0)
(0.29634572 5.318991e-05 0)
(0.29619889 4.9700228e-05 0)
(0.29606176 4.6438202e-05 0)
(0.29593366 4.3389117e-05 0)
(0.29581401 4.0539353e-05 0)
(0.29570224 3.7876394e-05 0)
(0.29559784 3.5388517e-05 0)
(0.29550032 3.3064395e-05 0)
(0.29540923 3.0893385e-05 0)
(0.29532413 2.886492e-05 0)
(0.29524464 2.6969314e-05 0)
(0.29517038 2.5197251e-05 0)
(0.29510102 2.3540531e-05 0)
(0.29503624 2.1991561e-05 0)
(0.29497572 2.0543946e-05 0)
(0.29491919 1.919129e-05 0)
(0.29486638 1.7928515e-05 0)
(0.29481706 1.6749214e-05 0)
(0.29477097 1.5648969e-05 0)
(0.29472793 1.4620711e-05 0)
(0.29468771 1.366095e-05 0)
(0.29465015 1.2762279e-05 0)
(0.29461506 1.1923422e-05 0)
(0.29458229 1.1136658e-05 0)
(0.29455167 1.0404214e-05 0)
(0.29452309 9.7163863e-06 0)
(0.29449636 9.0797648e-06 0)
(0.29447142 8.4797061e-06 0)
(0.29444809 7.9285328e-06 0)
(0.29442633 7.4039463e-06 0)
(0.29440596 6.9269121e-06 0)
(0.29438696 6.4663336e-06 0)
(0.29436919 6.0543033e-06 0)
(0.29435258 5.6541475e-06 0)
(0.29433711 5.3029356e-06 0)
(0.29432245 4.980356e-06 0)
(0.29430914 4.6917807e-06 0)
(0.29429564 4.5398283e-06 0)
(0.29428496 4.4077517e-06 0)
(0.29426868 5.0588014e-06 0)
(1.0016583 0.053819431 0)
(1.0359761 0.10128444 0)
(1.0597199 0.11073663 0)
(1.0628947 0.10592202 0)
(1.0515569 0.096228728 0)
(1.0340529 0.08393406 0)
(1.0142795 0.07032706 0)
(0.99360704 0.05698133 0)
(0.97292577 0.045107477 0)
(0.95310739 0.035236751 0)
(0.93479537 0.027401653 0)
(0.9182901 0.021387231 0)
(0.90362378 0.016884502 0)
(0.89068067 0.01356971 0)
(0.87928175 0.011147747 0)
(0.86923242 0.0093736547 0)
(0.86034424 0.0080569234 0)
(0.85244668 0.0070571237 0)
(0.84539242 0.0062752368 0)
(0.83905792 0.0056438294 0)
(0.83334126 0.0051180936 0)
(0.82815883 0.0046686754 0)
(0.82344211 0.0042764193 0)
(0.81913467 0.0039287388 0)
(0.81518962 0.0036172013 0)
(0.81156766 0.0033359667 0)
(0.80823544 0.0030807999 0)
(0.8051644 0.0028484656 0)
(0.80232979 0.0026363677 0)
(0.79970999 0.0024423389 0)
(0.79728596 0.0022645206 0)
(0.79504085 0.0021012921 0)
(0.79295962 0.0019512269 0)
(0.7910288 0.0018130632 0)
(0.78923627 0.001685682 0)
(0.78757111 0.0015680898 0)
(0.78602339 0.0014594026 0)
(0.78458412 0.0013588333 0)
(0.78324512 0.0012656792 0)
(0.78199889 0.001179312 0)
(0.7808386 0.0010991686 0)
(0.77975798 0.0010247431 0)
(0.77875127 0.00095557992 0)
(0.77781317 0.00089126811 0)
(0.77693881 0.00083143545 0)
(0.77612368 0.00077574413 0)
(0.77536363 0.00072388628 0)
(0.77465482 0.00067558048 0)
(0.77399368 0.00063056872 0)
(0.77337694 0.00058861375 0)
(0.77280153 0.00054949734 0)
(0.77226464 0.00051301844 0)
(0.77176363 0.00047899187 0)
(0.77129606 0.00044724709 0)
(0.77085967 0.00041762674 0)
(0.77045235 0.00038998555 0)
(0.77007213 0.00036418888 0)
(0.76971718 0.00034011163 0)
(0.76938582 0.00031763731 0)
(0.76907645 0.00029665707 0)
(0.7687876 0.00027706952 0)
(0.76851791 0.0002587801 0)
(0.76826609 0.00024170114 0)
(0.76803095 0.00022575146 0)
(0.76781139 0.00021085603 0)
(0.76760636 0.00019694534 0)
(0.7674149 0.00018395487 0)
(0.76723609 0.00017182393 0)
(0.7670691 0.00016049593 0)
(0.76691315 0.00014991675 0)
(0.76676751 0.00014003634 0)
(0.76663149 0.00013080681 0)
(0.76650445 0.00012218497 0)
(0.76638581 0.00011412949 0)
(0.76627501 0.00010660457 0)
(0.76617152 9.9574528e-05 0)
(0.76607486 9.3010129e-05 0)
(0.76598459 8.6878528e-05 0)
(0.76590026 8.1155607e-05 0)
(0.76582151 7.5808502e-05 0)
(0.76574793 7.0818706e-05 0)
(0.76567923 6.6151814e-05 0)
(0.76561503 6.1798298e-05 0)
(0.76555512 5.7720473e-05 0)
(0.7654991 5.3922839e-05 0)
(0.76544685 5.0358719e-05 0)
(0.76539796 4.7052655e-05 0)
(0.76535239 4.3937763e-05 0)
(0.76530971 4.106826e-05 0)
(0.76526996 3.8340996e-05 0)
(0.7652327 3.5857921e-05 0)
(0.76519801 3.3458727e-05 0)
(0.76516554 3.1322164e-05 0)
(0.76513514 2.9203379e-05 0)
(0.76510709 2.739551e-05 0)
(0.76507994 2.5539929e-05 0)
(0.7650566 2.408162e-05 0)
(0.76503052 2.256465e-05 0)
(0.7650144 2.1606344e-05 0)
(0.7649834 2.0997839e-05 0)
(1.0014244 0.026824856 0)
(1.0291272 0.062791355 0)
(1.0654292 0.077736555 0)
(1.098962 0.080597202 0)
(1.1253148 0.078285171 0)
(1.145053 0.073153898 0)
(1.1594858 0.066111275 0)
(1.1694287 0.05816206 0)
(1.1755354 0.050296752 0)
(1.1785738 0.043150708 0)
(1.1793571 0.036972827 0)
(1.1785949 0.031771635 0)
(1.1768304 0.027451843 0)
(1.1744518 0.02388677 0)
(1.1717287 0.020947619 0)
(1.1688444 0.018515777 0)
(1.1659195 0.01648808 0)
(1.1630317 0.014779498 0)
(1.1602295 0.013322982 0)
(1.1575415 0.012067131 0)
(1.1549828 0.010973001 0)
(1.1525601 0.010011064 0)
(1.1502747 0.0091587493 0)
(1.1481246 0.0083986058 0)
(1.1461059 0.0077169503 0)
(1.1442134 0.007102886 0)
(1.1424415 0.0065475882 0)
(1.1407838 0.0060437913 0)
(1.1392344 0.0055854227 0)
(1.1377869 0.0051673427 0)
(1.1364353 0.0047851568 0)
(1.1351738 0.0044350773 0)
(1.1339968 0.0041138185 0)
(1.1328987 0.0038185142 0)
(1.1318746 0.0035466533 0)
(1.1309195 0.003296026 0)
(1.1300289 0.0030646807 0)
(1.1291985 0.0028508875 0)
(1.1284242 0.0026531074 0)
(1.1277022 0.0024699664 0)
(1.1270291 0.0023002347 0)
(1.1264014 0.0021428073 0)
(1.1258161 0.0019966893 0)
(1.1252702 0.0018609819 0)
(1.1247612 0.0017348718 0)
(1.1242865 0.0016176207 0)
(1.1238437 0.0015085566 0)
(1.1234308 0.0014070666 0)
(1.1230455 0.0013125899 0)
(1.1226861 0.0012246128 0)
(1.1223509 0.0011426632 0)
(1.1220381 0.001066307 0)
(1.1217462 0.00099514467 0)
(1.1214739 0.00092880793 0)
(1.1212198 0.00086695736 0)
(1.1209827 0.00080927968 0)
(1.1207614 0.00075548532 0)
(1.1205548 0.00070530636 0)
(1.1203621 0.00065849424 0)
(1.1201821 0.00061481812 0)
(1.1200142 0.0005740634 0)
(1.1198574 0.00053603025 0)
(1.1197111 0.00050053328 0)
(1.1195744 0.00046740002 0)
(1.1194469 0.00043647083 0)
(1.1193278 0.00040759736 0)
(1.1192167 0.00038064224 0)
(1.1191129 0.0003554773 0)
(1.119016 0.0003319835 0)
(1.1189255 0.00031004862 0)
(1.118841 0.00028956899 0)
(1.1187621 0.00027044552 0)
(1.1186884 0.00025258849 0)
(1.1186196 0.00023591076 0)
(1.1185554 0.00022033635 0)
(1.1184954 0.00020578883 0)
(1.1184394 0.00019220559 0)
(1.1183871 0.00017951744 0)
(1.1183383 0.00016767434 0)
(1.1182927 0.00015660913 0)
(1.11825 0.00014628555 0)
(1.1182102 0.00013663258 0)
(1.118173 0.00012763319 0)
(1.1181384 0.00011920509 0)
(1.1181059 0.00011136169 0)
(1.1180757 0.00010399536 0)
(1.1180473 9.7169087e-05 0)
(1.1180211 9.0721773e-05 0)
(1.1179962 8.4800279e-05 0)
(1.1179734 7.9138587e-05 0)
(1.1179516 7.403341e-05 0)
(1.1179318 6.902216e-05 0)
(1.1179127 6.4677897e-05 0)
(1.1178954 6.0174326e-05 0)
(1.117879 5.6597351e-05 0)
(1.1178635 5.2449726e-05 0)
(1.11785 4.9760169e-05 0)
(1.1178348 4.5823509e-05 0)
(1.1178261 4.4334215e-05 0)
(1.1178083 4.0584356e-05 0)
(1.0007347 0.011814723 0)
(1.0178472 0.030860929 0)
(1.0462163 0.041434444 0)
(1.0799018 0.045193571 0)
(1.1132664 0.045502351 0)
(1.143782 0.044080307 0)
(1.1708941 0.04143998 0)
(1.1945687 0.037973675 0)
(1.2148582 0.034195727 0)
(1.2319652 0.030536886 0)
(1.2462683 0.027222046 0)
(1.2582339 0.024313922 0)
(1.2683135 0.021797891 0)
(1.2768875 0.019633661 0)
(1.2842554 0.017773826 0)
(1.2906479 0.01616965 0)
(1.296243 0.014775586 0)
(1.3011792 0.013552293 0)
(1.3055645 0.01246786 0)
(1.3094838 0.011497463 0)
(1.3130042 0.010622161 0)
(1.3161791 0.0098275142 0)
(1.3190526 0.009102413 0)
(1.3216607 0.0084381785 0)
(1.3240343 0.0078279045 0)
(1.3261995 0.0072659733 0)
(1.3281786 0.006747706 0)
(1.3299913 0.006269113 0)
(1.3316545 0.0058267236 0)
(1.3331829 0.0054174703 0)
(1.3345896 0.0050386107 0)
(1.3358861 0.0046876736 0)
(1.3370827 0.0043624205 0)
(1.3381882 0.0040608159 0)
(1.3392108 0.0037810051 0)
(1.3401576 0.0035212948 0)
(1.3410349 0.0032801368 0)
(1.3418486 0.0030561148 0)
(1.3426038 0.0028479307 0)
(1.3433051 0.0026543946 0)
(1.3439569 0.0024744141 0)
(1.3445629 0.0023069856 0)
(1.3451267 0.0021511866 0)
(1.3456513 0.0020061684 0)
(1.3461398 0.0018711495 0)
(1.3465947 0.0017454103 0)
(1.3470185 0.0016282872 0)
(1.3474135 0.0015191674 0)
(1.3477816 0.001417485 0)
(1.3481249 0.0013227165 0)
(1.3484449 0.0012343772 0)
(1.3487435 0.0011520179 0)
(1.349022 0.0010752227 0)
(1.3492818 0.0010036058 0)
(1.3495242 0.00093680959 0)
(1.3497505 0.00087450269 0)
(1.3499617 0.00081637772 0)
(1.3501588 0.0007621493 0)
(1.3503427 0.0007115523 0)
(1.3505145 0.00066434005 0)
(1.3506748 0.00062028271 0)
(1.3508245 0.00057916617 0)
(1.3509643 0.00054079113 0)
(1.3510948 0.0005049719 0)
(1.3512167 0.00047153614 0)
(1.3513305 0.00044032329 0)
(1.3514368 0.00041118486 0)
(1.3515361 0.00038398201 0)
(1.3516288 0.00035858622 0)
(1.3517153 0.00033487639 0)
(1.3517962 0.00031274083 0)
(1.3518717 0.00029207274 0)
(1.3519422 0.00027277539 0)
(1.3520081 0.00025475401 0)
(1.3520696 0.00023792669 0)
(1.3521271 0.00022220932 0)
(1.3521807 0.00020753493 0)
(1.3522309 0.00019382669 0)
(1.3522777 0.00018103269 0)
(1.3523215 0.00016907755 0)
(1.3523623 0.00015792683 0)
(1.3524005 0.00014749814 0)
(1.352436 0.00013778195 0)
(1.3524694 0.00012867684 0)
(1.3525004 0.00012021465 0)
(1.3525297 0.00011225309 0)
(1.3525565 0.00010489546 0)
(1.3525822 9.7916664e-05 0)
(1.3526054 9.1546461e-05 0)
(1.3526282 8.5398096e-05 0)
(1.352648 7.993099e-05 0)
(1.3526683 7.4454393e-05 0)
(1.3526849 6.9848171e-05 0)
(1.3527036 6.4866668e-05 0)
(1.352717 6.1146188e-05 0)
(1.3527348 5.6462159e-05 0)
(1.3527446 5.3760308e-05 0)
(1.3527628 4.9159204e-05 0)
(1.3527683 4.7720255e-05 0)
(1.3527888 4.297102e-05 0)
(1.0005903 0.0034629171 0)
(1.0136865 0.009366022 0)
(1.0370283 0.013046808 0)
(1.0674202 0.014563262 0)
(1.1000315 0.014854524 0)
(1.1316428 0.014564989 0)
(1.1610745 0.013888336 0)
(1.1880674 0.012919244 0)
(1.2125205 0.011806506 0)
(1.2343939 0.010696427 0)
(1.2538077 0.0096727434 0)
(1.2710339 0.0087628236 0)
(1.2864009 0.0079659748 0)
(1.3002111 0.0072722148 0)
(1.3127102 0.0066688076 0)
(1.3240903 0.006141923 0)
(1.3345036 0.0056780691 0)
(1.3440716 0.0052653177 0)
(1.3528927 0.0048939324 0)
(1.3610463 0.0045563942 0)
(1.3685975 0.0042470694 0)
(1.3756004 0.0039617765 0)
(1.3821012 0.0036973985 0)
(1.3881402 0.003451583 0)
(1.3937533 0.0032225181 0)
(1.3989728 0.0030087682 0)
(1.403828 0.0028091553 0)
(1.4083456 0.002622676 0)
(1.4125503 0.0024484466 0)
(1.4164646 0.0022856683 0)
(1.4201094 0.002133606 0)
(1.423504 0.0019915757 0)
(1.426666 0.0018589364 0)
(1.4296121 0.0017350862 0)
(1.4323573 0.0016194586 0)
(1.4349159 0.0015115207 0)
(1.4373007 0.0014107714 0)
(1.4395241 0.0013167399 0)
(1.441597 0.0012289839 0)
(1.4435301 0.0011470887 0)
(1.4453329 0.0010706653 0)
(1.4470143 0.00099934971 0)
(1.4485827 0.00093280096 0)
(1.4500459 0.00087070061 0)
(1.451411 0.00081275125 0)
(1.4526846 0.00075867507 0)
(1.4538731 0.00070821292 0)
(1.4549822 0.00066112273 0)
(1.4560172 0.00061717867 0)
(1.4569831 0.00057616968 0)
(1.4578847 0.00053789873 0)
(1.4587262 0.00050218191 0)
(1.4595117 0.00046884755 0)
(1.460245 0.0004377356 0)
(1.4609295 0.00040869701 0)
(1.4615685 0.00038159281 0)
(1.4621651 0.00035629372 0)
(1.4627221 0.00033267905 0)
(1.4632422 0.00031063631 0)
(1.4637278 0.00029006031 0)
(1.4641812 0.00027085278 0)
(1.4646045 0.00025292192 0)
(1.4649998 0.00023618195 0)
(1.4653689 0.00022055295 0)
(1.4657136 0.00020596075 0)
(1.4660355 0.00019233612 0)
(1.4663361 0.0001796151 0)
(1.4666168 0.00016773752 0)
(1.466879 0.00015664796 0)
(1.4671238 0.00014629372 0)
(1.4673524 0.00013662615 0)
(1.467566 0.00012759875 0)
(1.4677654 0.0001191692 0)
(1.4679516 0.00011129642 0)
(1.4681255 0.00010394476 0)
(1.468288 9.7077444e-05 0)
(1.4684397 9.0665897e-05 0)
(1.4685815 8.4676168e-05 0)
(1.4687138 7.9086886e-05 0)
(1.4688375 7.3863932e-05 0)
(1.4689529 6.8993814e-05 0)
(1.4690608 6.4438208e-05 0)
(1.4691614 6.0195979e-05 0)
(1.4692557 5.6218163e-05 0)
(1.4693433 5.252492e-05 0)
(1.4694257 4.9045236e-05 0)
(1.4695019 4.5836461e-05 0)
(1.4695742 4.278349e-05 0)
(1.4696402 4.0009337e-05 0)
(1.4697038 3.7314585e-05 0)
(1.4697606 3.4940034e-05 0)
(1.4698172 3.253105e-05 0)
(1.4698653 3.0539639e-05 0)
(1.4699166 2.83355e-05 0)
(1.469956 2.6738919e-05 0)
(1.4700044 2.4651321e-05 0)
(1.470034 2.3504992e-05 0)
(1.470083 2.1436405e-05 0)
(1.4701 2.0827268e-05 0)
(1.4701556 1.8663277e-05 0)
(1.0005903 -0.0034629149 0)
(1.0136865 -0.0093660185 0)
(1.0370283 -0.013046806 0)
(1.0674202 -0.014563263 0)
(1.1000315 -0.014854527 0)
(1.1316428 -0.014564993 0)
(1.1610745 -0.013888339 0)
(1.1880674 -0.012919245 0)
(1.2125205 -0.011806504 0)
(1.2343939 -0.010696424 0)
(1.2538077 -0.0096727394 0)
(1.2710339 -0.0087628208 0)
(1.2864009 -0.0079659743 0)
(1.3002111 -0.007272217 0)
(1.3127102 -0.0066688121 0)
(1.3240903 -0.0061419288 0)
(1.3345036 -0.0056780748 0)
(1.3440716 -0.005265322 0)
(1.3528927 -0.0048939347 0)
(1.3610463 -0.0045563945 0)
(1.3685975 -0.0042470684 0)
(1.3756004 -0.0039617753 0)
(1.3821012 -0.0036973985 0)
(1.3881402 -0.0034515847 0)
(1.3937533 -0.0032225218 0)
(1.3989728 -0.0030087732 0)
(1.403828 -0.0028091607 0)
(1.4083456 -0.0026226809 0)
(1.4125503 -0.00244845 0)
(1.4164646 -0.0022856701 0)
(1.4201094 -0.0021336065 0)
(1.423504 -0.0019915756 0)
(1.426666 -0.0018589367 0)
(1.4296121 -0.0017350876 0)
(1.4323573 -0.0016194614 0)
(1.4349159 -0.0015115246 0)
(1.4373007 -0.0014107757 0)
(1.4395241 -0.0013167438 0)
(1.441597 -0.0012289866 0)
(1.4435301 -0.0011470898 0)
(1.4453329 -0.001070665 0)
(1.4470143 -0.00099934865 0)
(1.4485827 -0.00093280007 0)
(1.4500459 -0.0008707007 0)
(1.451411 -0.00081275268 0)
(1.4526846 -0.0007586777 0)
(1.4538731 -0.00070821621 0)
(1.4549822 -0.00066112597 0)
(1.4560172 -0.00061718107 0)
(1.4569831 -0.00057617097 0)
(1.4578847 -0.00053789894 0)
(1.4587262 -0.00050218155 0)
(1.4595117 -0.00046884731 0)
(1.460245 -0.00043773604 0)
(1.4609295 -0.00040869834 0)
(1.4615685 -0.00038159462 0)
(1.4621651 -0.00035629523 0)
(1.4627221 -0.0003326792 0)
(1.4632422 -0.00031063419 0)
(1.4637278 -0.00029005566 0)
(1.4641812 -0.00027084584 0)
(1.4646045 -0.00025291367 0)
(1.4649998 -0.00023617373 0)
(1.4653689 -0.00022054611 0)
(1.4657136 -0.00020595616 0)
(1.4660355 -0.00019233388 0)
(1.4663361 -0.00017961467 0)
(1.4666168 -0.00016773806 0)
(1.466879 -0.00015664841 0)
(1.4671238 -0.00014629363 0)
(1.4673524 -0.0001366257 0)
(1.467566 -0.00012759884 0)
(1.4677654 -0.00011917132 0)
(1.4679516 -0.00011130163 0)
(1.4681255 -0.00010395397 0)
(1.468288 -9.7090555e-05 0)
(1.4684397 -9.068205e-05 0)
(1.4685815 -8.4693646e-05 0)
(1.4687138 -7.9103392e-05 0)
(1.4688375 -7.3877354e-05 0)
(1.4689529 -6.9002811e-05 0)
(1.4690608 -6.4441962e-05 0)
(1.4691614 -6.0194459e-05 0)
(1.4692557 -5.6211475e-05 0)
(1.4693433 -5.2513319e-05 0)
(1.4694257 -4.9028548e-05 0)
(1.4695019 -4.5814299e-05 0)
(1.4695742 -4.2755542e-05 0)
(1.4696402 -3.9975285e-05 0)
(1.4697038 -3.7275062e-05 0)
(1.4697606 -3.4895926e-05 0)
(1.4698172 -3.2484595e-05 0)
(1.4698653 -3.0492915e-05 0)
(1.4699166 -2.8291535e-05 0)
(1.469956 -2.6699984e-05 0)
(1.4700044 -2.4618741e-05 0)
(1.470034 -2.3480001e-05 0)
(1.470083 -2.14191e-05 0)
(1.4701 -2.0815642e-05 0)
(1.4701556 -1.8657891e-05 0)
(1.0007347 -0.011814721 0)
(1.0178472 -0.030860927 0)
(1.0462163 -0.041434443 0)
(1.0799018 -0.045193573 0)
(1.1132664 -0.045502354 0)
(1.143782 -0.04408031 0)
(1.1708941 -0.041439981 0)
(1.1945688 -0.037973674 0)
(1.2148582 -0.034195723 0)
(1.2319652 -0.030536882 0)
(1.2462683 -0.027222042 0)
(1.2582339 -0.024313922 0)
(1.2683135 -0.021797892 0)
(1.2768875 -0.019633665 0)
(1.2842554 -0.017773832 0)
(1.2906479 -0.016169655 0)
(1.296243 -0.01477559 0)
(1.3011792 -0.013552294 0)
(1.3055645 -0.012467859 0)
(1.3094838 -0.011497462 0)
(1.3130042 -0.01062216 0)
(1.3161792 -0.0098275143 0)
(1.3190526 -0.0091024148 0)
(1.3216607 -0.0084381822 0)
(1.3240343 -0.0078279093 0)
(1.3261995 -0.0072659783 0)
(1.3281786 -0.00674771 0)
(1.3299913 -0.0062691155 0)
(1.3316545 -0.0058267246 0)
(1.3331829 -0.0054174703 0)
(1.3345896 -0.0050386104 0)
(1.3358862 -0.004687674 0)
(1.3370827 -0.004362422 0)
(1.3381882 -0.0040608189 0)
(1.3392108 -0.003781009 0)
(1.3401576 -0.0035212988 0)
(1.3410349 -0.0032801402 0)
(1.3418486 -0.0030561168 0)
(1.3426038 -0.0028479313 0)
(1.3433052 -0.002654394 0)
(1.3439569 -0.002474413 0)
(1.3445629 -0.0023069849 0)
(1.3451267 -0.0021511869 0)
(1.3456513 -0.00200617 0)
(1.3461398 -0.0018711522 0)
(1.3465947 -0.0017454134 0)
(1.3470185 -0.0016282899 0)
(1.3474135 -0.0015191691 0)
(1.3477816 -0.0014174857 0)
(1.3481249 -0.0013227162 0)
(1.3484449 -0.0012343766 0)
(1.3487435 -0.0011520178 0)
(1.349022 -0.0010752235 0)
(1.3492818 -0.0010036076 0)
(1.3495242 -0.00093681194 0)
(1.3497505 -0.00087450471 0)
(1.3499616 -0.00081637837 0)
(1.3501588 -0.00076214777 0)
(1.3503427 -0.00071154839 0)
(1.3505145 -0.00066433404 0)
(1.3506748 -0.0006202757 0)
(1.3508245 -0.00057915945 0)
(1.3509643 -0.00054078576 0)
(1.3510948 -0.00050496846 0)
(1.3512167 -0.0004715345 0)
(1.3513305 -0.00044032286 0)
(1.3514368 -0.0004111847 0)
(1.3515361 -0.00038398119 0)
(1.3516288 -0.00035858463 0)
(1.3517154 -0.00033487436 0)
(1.3517962 -0.00031273943 0)
(1.3518717 -0.00029207326 0)
(1.3519422 -0.0002727789 0)
(1.3520081 -0.00025476144 0)
(1.3520696 -0.0002379377 0)
(1.3521271 -0.00022222298 0)
(1.3521807 -0.00020754946 0)
(1.3522309 -0.00019384025 0)
(1.3522777 -0.00018104396 0)
(1.3523215 -0.00016908562 0)
(1.3523623 -0.00015793138 0)
(1.3524005 -0.00014749934 0)
(1.352436 -0.00013777986 0)
(1.3524695 -0.0001286714 0)
(1.3525004 -0.00012020517 0)
(1.3525297 -0.00011223885 0)
(1.3525565 -0.00010487571 0)
(1.3525822 -9.7890898e-05 0)
(1.3526054 -9.1515157e-05 0)
(1.3526282 -8.5362091e-05 0)
(1.352648 -7.9892239e-05 0)
(1.3526684 -7.4414846e-05 0)
(1.3526849 -6.9810099e-05 0)
(1.3527036 -6.4831805e-05 0)
(1.352717 -6.1116109e-05 0)
(1.3527348 -5.6437521e-05 0)
(1.3527446 -5.3741702e-05 0)
(1.3527628 -4.9145797e-05 0)
(1.3527683 -4.7711748e-05 0)
(1.3527888 -4.2966986e-05 0)
(1.0014244 -0.026824855 0)
(1.0291272 -0.062791355 0)
(1.0654292 -0.077736558 0)
(1.098962 -0.080597205 0)
(1.1253148 -0.078285174 0)
(1.145053 -0.073153899 0)
(1.1594858 -0.066111273 0)
(1.1694287 -0.058162055 0)
(1.1755354 -0.050296747 0)
(1.1785738 -0.043150704 0)
(1.1793571 -0.036972827 0)
(1.1785949 -0.031771638 0)
(1.1768304 -0.027451848 0)
(1.1744518 -0.023886775 0)
(1.1717287 -0.020947624 0)
(1.1688444 -0.018515779 0)
(1.1659195 -0.01648808 0)
(1.1630317 -0.014779495 0)
(1.1602296 -0.013322978 0)
(1.1575415 -0.012067129 0)
(1.1549828 -0.010973002 0)
(1.1525601 -0.010011067 0)
(1.1502747 -0.0091587544 0)
(1.1481246 -0.0083986117 0)
(1.1461059 -0.0077169554 0)
(1.1442134 -0.0071028891 0)
(1.1424415 -0.0065475888 0)
(1.1407838 -0.0060437899 0)
(1.1392344 -0.0055854205 0)
(1.1377869 -0.005167341 0)
(1.1364353 -0.0047851569 0)
(1.1351738 -0.0044350797 0)
(1.1339967 -0.0041138227 0)
(1.1328987 -0.0038185193 0)
(1.1318746 -0.0035466578 0)
(1.1309195 -0.0032960289 0)
(1.1300289 -0.0030646814 0)
(1.1291985 -0.0028508862 0)
(1.1284242 -0.002653105 0)
(1.1277023 -0.0024699642 0)
(1.1270291 -0.0023002339 0)
(1.1264014 -0.0021428084 0)
(1.125816 -0.0019966922 0)
(1.1252702 -0.0018609859 0)
(1.1247612 -0.0017348756 0)
(1.1242865 -0.0016176232 0)
(1.1238437 -0.0015085572 0)
(1.1234308 -0.0014070653 0)
(1.1230455 -0.0013125878 0)
(1.1226862 -0.0012246109 0)
(1.1223509 -0.0011426626 0)
(1.1220381 -0.0010663084 0)
(1.1217462 -0.00099514771 0)
(1.1214739 -0.00092881175 0)
(1.1212198 -0.00086696045 0)
(1.1209827 -0.00080928076 0)
(1.1207614 -0.00075548356 0)
(1.1205549 -0.00070530188 0)
(1.1203621 -0.00065848807 0)
(1.1201822 -0.00061481175 0)
(1.1200142 -0.00057405843 0)
(1.1198574 -0.0005360277 0)
(1.1197111 -0.00050053326 0)
(1.1195744 -0.00046740168 0)
(1.1194469 -0.00043647265 0)
(1.1193278 -0.00040759787 0)
(1.1192167 -0.00038064052 0)
(1.1191129 -0.00035547336 0)
(1.119016 -0.00033197862 0)
(1.1189255 -0.00031004455 0)
(1.118841 -0.00028956776 0)
(1.1187621 -0.00027044839 0)
(1.1186884 -0.00025259569 0)
(1.1186196 -0.00023592135 0)
(1.1185554 -0.00022034841 0)
(1.1184954 -0.00020580022 0)
(1.1184394 -0.00019221446 0)
(1.1183871 -0.00017952295 0)
(1.1183383 -0.0001676768 0)
(1.1182927 -0.00015660959 0)
(1.11825 -0.00014628517 0)
(1.1182103 -0.00013663216 0)
(1.118173 -0.00012763243 0)
(1.1181384 -0.00011920298 0)
(1.1181059 -0.00011135642 0)
(1.1180757 -0.0001039854 0)
(1.1180474 -9.7153471e-05 0)
(1.1180211 -9.0700574e-05 0)
(1.1179963 -8.4774861e-05 0)
(1.1179734 -7.9110732e-05 0)
(1.1179516 -7.4005569e-05 0)
(1.1179318 -6.8995925e-05 0)
(1.1179127 -6.4654851e-05 0)
(1.1178954 -6.0154429e-05 0)
(1.1178789 -5.6580671e-05 0)
(1.1178635 -5.2435556e-05 0)
(1.11785 -4.9748375e-05 0)
(1.1178348 -4.5813399e-05 0)
(1.1178261 -4.4326028e-05 0)
(1.1178083 -4.0580137e-05 0)
(1.0016583 -0.053819432 0)
(1.0359761 -0.10128444 0)
(1.0597199 -0.11073664 0)
(1.0628947 -0.10592202 0)
(1.0515569 -0.096228728 0)
(1.0340529 -0.083934057 0)
(1.0142795 -0.070327055 0)
(0.99360705 -0.056981325 0)
(0.97292577 -0.045107474 0)
(0.95310738 -0.035236751 0)
(0.93479536 -0.027401656 0)
(0.91829009 -0.021387237 0)
(0.90362377 -0.016884507 0)
(0.89068067 -0.013569713 0)
(0.87928175 -0.011147747 0)
(0.86923243 -0.0093736526 0)
(0.86034425 -0.0080569195 0)
(0.85244668 -0.0070571196 0)
(0.84539242 -0.0062752341 0)
(0.83905792 -0.0056438294 0)
(0.83334125 -0.0051180965 0)
(0.82815882 -0.0046686803 0)
(0.82344211 -0.0042764249 0)
(0.81913466 -0.0039287432 0)
(0.81518962 -0.0036172036 0)
(0.81156766 -0.0033359663 0)
(0.80823545 -0.0030807973 0)
(0.80516441 -0.0028484624 0)
(0.80232979 -0.0026363651 0)
(0.79970999 -0.0024423383 0)
(0.79728596 -0.0022645224 0)
(0.79504085 -0.002101296 0)
(0.79295962 -0.0019512317 0)
(0.7910288 -0.0018130674 0)
(0.78923627 -0.0016856845 0)
(0.78757111 -0.0015680898 0)
(0.78602339 -0.0014594006 0)
(0.78458413 -0.0013588302 0)
(0.78324512 -0.0012656764 0)
(0.78199889 -0.0011793108 0)
(0.7808386 -0.0010991695 0)
(0.77975798 -0.001024746 0)
(0.77875127 -0.00095558394 0)
(0.77781317 -0.00089127182 0)
(0.77693881 -0.00083143772 0)
(0.77612369 -0.00077574425 0)
(0.77536364 -0.00072388443 0)
(0.77465482 -0.00067557759 0)
(0.77399368 -0.00063056603 0)
(0.77337694 -0.00058861256 0)
(0.77280153 -0.00054949826 0)
(0.77226463 -0.00051302127 0)
(0.77176362 -0.00047899568 0)
(0.77129606 -0.00044725031 0)
(0.77085967 -0.0004176281 0)
(0.77045235 -0.0003899842 0)
(0.77007214 -0.00036418502 0)
(0.76971719 -0.00034010638 0)
(0.76938582 -0.00031763221 0)
(0.76907645 -0.00029665377 0)
(0.7687876 -0.00027706886 0)
(0.7685179 -0.00025878204 0)
(0.76826608 -0.00024170466 0)
(0.76803095 -0.00022575482 0)
(0.76781139 -0.00021085767 0)
(0.76760636 -0.0001969442 0)
(0.7674149 -0.00018395105 0)
(0.7672361 -0.00017181871 0)
(0.76706911 -0.00016049112 0)
(0.76691315 -0.00014991453 0)
(0.7667675 -0.00014003792 0)
(0.76663147 -0.00013081237 0)
(0.76650444 -0.0001221934 0)
(0.7663858 -0.00011413867 0)
(0.766275 -0.0001066124 0)
(0.76617153 -9.9579227e-05 0)
(0.76607487 -9.3011209e-05 0)
(0.7659846 -8.6876679e-05 0)
(0.76590027 -8.1152366e-05 0)
(0.76582152 -7.5805713e-05 0)
(0.76574794 -7.0817513e-05 0)
(0.76567924 -6.6152376e-05 0)
(0.76561504 -6.1799689e-05 0)
(0.76555513 -5.7720796e-05 0)
(0.76549912 -5.3920364e-05 0)
(0.76544687 -5.0352135e-05 0)
(0.76539799 -4.704185e-05 0)
(0.76535241 -4.3923816e-05 0)
(0.76530973 -4.1052771e-05 0)
(0.76526997 -3.8326104e-05 0)
(0.7652327 -3.5844921e-05 0)
(0.76519801 -3.3448521e-05 0)
(0.76516553 -3.1314524e-05 0)
(0.76513514 -2.9197358e-05 0)
(0.76510708 -2.7390159e-05 0)
(0.76507993 -2.5534504e-05 0)
(0.76505659 -2.407493e-05 0)
(0.76503052 -2.2557302e-05 0)
(0.76501439 -2.1599317e-05 0)
(0.7649834 -2.0994019e-05 0)
(0.91890839 -0.035821914 0)
(0.86271383 -0.06219564 0)
(0.78705969 -0.062510092 0)
(0.69536032 -0.054550396 0)
(0.61089745 -0.044531651 0)
(0.54411593 -0.034015969 0)
(0.49343013 -0.024187535 0)
(0.45479414 -0.016144226 0)
(0.42544582 -0.010265785 0)
(0.40347312 -0.0063041476 0)
(0.38715765 -0.0037976341 0)
(0.37496218 -0.0023103431 0)
(0.36566192 -0.001493018 0)
(0.35836272 -0.0010851183 0)
(0.35244268 -0.00090606957 0)
(0.34748202 -0.00084104729 0)
(0.34320349 -0.00082371974 0)
(0.33942726 -0.00081930768 0)
(0.33603793 -0.00081185182 0)
(0.33296113 -0.00079580362 0)
(0.33014777 -0.00077081543 0)
(0.32756383 -0.00073871358 0)
(0.32518419 -0.00070189209 0)
(0.32298902 -0.0006625662 0)
(0.32096172 -0.00062249785 0)
(0.31908786 -0.0005829542 0)
(0.3173545 -0.0005447681 0)
(0.31574996 -0.00050843175 0)
(0.3142636 -0.0004741911 0)
(0.31288574 -0.00044212619 0)
(0.31160754 -0.00041221245 0)
(0.310421 -0.00038436493 0)
(0.30931882 -0.00035846736 0)
(0.30829438 -0.00033439092 0)
(0.30734165 -0.00031200536 0)
(0.30645516 -0.00029118485 0)
(0.30562992 -0.00027181114 0)
(0.30486137 -0.00025377443 0)
(0.30414535 -0.00023697363 0)
(0.30347806 -0.00022131603 0)
(0.302856 -0.00020671678 0)
(0.30227595 -0.00019309855 0)
(0.30173496 -0.00018039084 0)
(0.30123029 -0.00016852945 0)
(0.30075942 -0.00015745584 0)
(0.30032003 -0.00014711619 0)
(0.29990994 -0.0001374609 0)
(0.29952716 -0.00012844371 0)
(0.29916983 -0.00012002141 0)
(0.29883624 -0.00011215357 0)
(0.29852478 -0.00010480236 0)
(0.29823396 -9.7932736e-05 0)
(0.29796241 -9.15124e-05 0)
(0.29770883 -8.5511673e-05 0)
(0.29747201 -7.9903473e-05 0)
(0.29725086 -7.4662642e-05 0)
(0.2970443 -6.9765878e-05 0)
(0.29685139 -6.5190993e-05 0)
(0.2966712 -6.0916847e-05 0)
(0.29650291 -5.6923244e-05 0)
(0.29634571 -5.319092e-05 0)
(0.29619889 -4.9702011e-05 0)
(0.29606175 -4.6440052e-05 0)
(0.29593366 -4.3390215e-05 0)
(0.29581401 -4.0539254e-05 0)
(0.29570225 -3.7875015e-05 0)
(0.29559785 -3.5386314e-05 0)
(0.29550032 -3.3062241e-05 0)
(0.29540922 -3.0892074e-05 0)
(0.29532412 -2.8865206e-05 0)
(0.29524463 -2.6971236e-05 0)
(0.29517037 -2.5200442e-05 0)
(0.29510102 -2.3544138e-05 0)
(0.29503623 -2.1994554e-05 0)
(0.29497572 -2.0545622e-05 0)
(0.29491919 -1.9191298e-05 0)
(0.29486639 -1.7927157e-05 0)
(0.29481706 -1.6747215e-05 0)
(0.29477098 -1.5647134e-05 0)
(0.29472793 -1.4619756e-05 0)
(0.29468772 -1.3661047e-05 0)
(0.29465016 -1.2763091e-05 0)
(0.29461507 -1.1924302e-05 0)
(0.29458231 -1.1136671e-05 0)
(0.29455169 -1.040287e-05 0)
(0.29452311 -9.7134673e-06 0)
(0.29449638 -9.0756356e-06 0)
(0.29447144 -8.4751342e-06 0)
(0.2944481 -7.9241742e-06 0)
(0.29442633 -7.4006051e-06 0)
(0.29440596 -6.9246444e-06 0)
(0.29438696 -6.4652419e-06 0)
(0.29436918 -6.0537772e-06 0)
(0.29435257 -5.6537328e-06 0)
(0.2943371 -5.3021962e-06 0)
(0.29432244 -4.9792933e-06 0)
(0.29430913 -4.6894583e-06 0)
(0.29429563 -4.5369432e-06 0)
(0.29428495 -4.4052268e-06 0)
(0.29426867 -5.0573864e-06 0)
)
;

boundaryField
{
    top
    {
        type            fixedValue;
        value           uniform (0 0 0);
    }
    inlet
    {
        type            fixedValue;
        value           uniform (1 0 0);
    }
    outlet
    {
        type            zeroGradient;
    }
    bottom
    {
        type            fixedValue;
        value           uniform (0 0 0);
    }
    back
    {
        type            empty;
    }
    front
    {
        type            empty;
    }
}


// ************************************************************************* //
