/*--------------------------------*- C++ -*----------------------------------*\
  =========                 |
  \\      /  F ield         | OpenFOAM: The Open Source CFD Toolbox
   \\    /   O peration     | Website:  https://openfoam.org
    \\  /    A nd           | Version:  9
     \\/     M anipulation  |
\*---------------------------------------------------------------------------*/
FoamFile
{
    format      ascii;
    class       volScalarField;
    location    "18";
    object      p;
}
// * * * * * * * * * * * * * * * * * * * * * * * * * * * * * * * * * * * * * //

dimensions      [0 2 -2 0 0 0 0];

internalField   nonuniform List<scalar> 
1000
(
1.6755986
1.5545207
1.4585403
1.3948842
1.3463747
1.3039026
1.2663674
1.2341956
1.2067952
1.1829577
1.1615633
1.1417995
1.1231224
1.1051829
1.0877675
1.0707533
1.0540724
1.0376883
1.0215801
1.0057342
0.99013918
0.97478408
0.95965739
0.94474716
0.93004116
0.91552716
0.90119319
0.88702768
0.87301962
0.85915862
0.84543491
0.83183937
0.81836348
0.80499931
0.79173948
0.77857711
0.76550581
0.7525196
0.73961293
0.72678062
0.71401782
0.70132001
0.68868298
0.67610277
0.66357569
0.65109829
0.63866736
0.62627987
0.61393302
0.60162417
0.58935085
0.57711075
0.56490173
0.55272175
0.54056892
0.52844148
0.51633778
0.50425626
0.49219549
0.48015411
0.46813087
0.45612458
0.44413413
0.43215849
0.42019669
0.40824781
0.39631102
0.38438552
0.37247058
0.3605655
0.34866965
0.33678242
0.32490325
0.31303161
0.30116699
0.28930894
0.27745702
0.26561084
0.25377
0.24193418
0.23010304
0.21827628
0.2064536
0.19463475
0.18281945
0.17100747
0.15919859
0.14739264
0.13558941
0.1237887
0.11199035
0.10019423
0.088400204
0.076608124
0.064817829
0.053029191
0.041242171
0.029456605
0.017672677
0.005889715
1.5583789
1.5034499
1.4424974
1.3909297
1.3476597
1.3086913
1.273105
1.2413324
1.2133715
1.1885936
1.1661918
1.1454905
1.1260088
1.1074208
1.0895072
1.0721224
1.0551706
1.0385892
1.0223365
1.006383
0.99070599
0.97528647
0.96010763
0.94515397
0.93041092
0.91586469
0.90150227
0.8873114
0.87328056
0.85939898
0.84565662
0.83204412
0.81855278
0.8051745
0.79190175
0.77872754
0.76564536
0.75264915
0.73973327
0.72689247
0.71412183
0.70141678
0.68877304
0.67618662
0.66365378
0.65117105
0.63873515
0.62634306
0.61399193
0.60167909
0.58940207
0.57715853
0.5649463
0.55276334
0.54060773
0.5284777
0.51637158
0.5042878
0.49222493
0.48018159
0.46815652
0.45614853
0.44415649
0.43217937
0.42021619
0.40826602
0.39632802
0.38440139
0.3724854
0.36057934
0.34868257
0.33679449
0.32491453
0.31304214
0.30117683
0.28931813
0.2774656
0.26561885
0.25377748
0.24194116
0.23010956
0.21828237
0.2064593
0.19464007
0.18282442
0.17101211
0.15920292
0.14739668
0.13559318
0.12379223
0.11199365
0.10019731
0.088403088
0.076610823
0.064820335
0.053031476
0.041244304
0.029458474
0.017674367
0.0058905652
1.4975577
1.4713826
1.4329858
1.3918529
1.3527676
1.3161768
1.2818791
1.2501615
1.2213055
1.1952044
1.1714504
1.1495604
1.1291106
1.1097697
1.0912895
1.0734885
1.0562366
1.0394411
1.023035
1.0069699
0.9912095
0.97572583
0.96049597
0.94550047
0.9307222
0.9161457
0.90175686
0.88754268
0.87349114
0.85959108
0.84583217
0.8322048
0.81870008
0.80530973
0.79202607
0.77884198
0.76575083
0.75274648
0.73982318
0.7269756
0.71419878
0.70148806
0.68883913
0.67624792
0.66371069
0.6512239
0.63878426
0.62638872
0.61403439
0.6017186
0.58943884
0.57719277
0.56497819
0.55279305
0.54063542
0.5285035
0.51639563
0.50431022
0.49224583
0.48020108
0.4681747
0.45616549
0.44417232
0.43219415
0.42022998
0.40827889
0.39634003
0.3844126
0.37249585
0.36058909
0.34869168
0.33680299
0.32492247
0.31304957
0.30118377
0.28932461
0.27747164
0.26562448
0.25378273
0.24194607
0.23011414
0.21828666
0.2064633
0.19464381
0.18282793
0.1710154
0.15920598
0.14739951
0.1355958
0.12379468
0.11199593
0.10019948
0.08840516
0.076612756
0.06482203
0.05303297
0.041245602
0.029459652
0.017675096
0.0058910584
1.4681492
1.4526511
1.4257812
1.3918573
1.3560563
1.321105
1.287803
1.2564499
1.2273193
1.2005278
1.1759403
1.1532481
1.1320963
1.1121675
1.0932093
1.0750296
1.0574838
1.0404628
1.0238842
1.0076862
0.99182226
0.97625652
0.96096056
0.94591088
0.93108744
0.9164727
0.90205105
0.88780841
0.87373196
0.85980995
0.84603159
0.83238691
0.81886671
0.80546246
0.7921663
0.77897093
0.76586957
0.75285595
0.73992423
0.72706899
0.71428516
0.70156804
0.68891323
0.67631663
0.66377444
0.65128308
0.63883923
0.6264398
0.61408189
0.60176278
0.58947995
0.57723104
0.56501384
0.55282625
0.54066635
0.52853232
0.51642247
0.50433524
0.49226915
0.48022284
0.46819499
0.45618442
0.44418999
0.43221063
0.42024536
0.40829324
0.39635342
0.38442509
0.3725075
0.36059996
0.34870182
0.33681247
0.32493133
0.31305785
0.3011915
0.28933182
0.27747837
0.26563075
0.25378858
0.24195154
0.23011926
0.21829144
0.20646776
0.19464798
0.18283182
0.17101905
0.15920942
0.14740272
0.1355987
0.12379731
0.11199845
0.10020202
0.088407557
0.076614875
0.064823775
0.053034617
0.041247046
0.029461107
0.017675983
0.0058920963
1.4554176
1.4434643
1.4212299
1.3909424
1.3570812
1.3230856
1.290388
1.2593824
1.230285
1.2032732
1.1783462
1.1552966
1.1338151
1.1135974
1.0943938
1.0760116
1.0583027
1.0411522
1.0244714
1.0081923
0.9922633
0.97664475
0.96130523
0.94621907
0.9313646
0.91672311
0.90227812
0.88801492
0.87392023
0.85998195
0.846189
0.83253119
0.81899914
0.80558418
0.7922783
0.7790741
0.76596471
0.75294378
0.7400054
0.72714405
0.71435464
0.7016324
0.68897288
0.67637195
0.66382577
0.65133074
0.63888351
0.62648095
0.61412015
0.60179837
0.58951307
0.57726188
0.56504254
0.55285299
0.54069125
0.52855551
0.51644409
0.50435538
0.49228793
0.48024035
0.46821133
0.45619966
0.4442042
0.43222389
0.42025773
0.40830478
0.39636418
0.38443513
0.37251687
0.36060871
0.34870999
0.33682011
0.32493846
0.31306451
0.30119772
0.28933762
0.27748377
0.26563578
0.25379329
0.24195594
0.23012338
0.21829528
0.20647135
0.19465132
0.18283493
0.17102198
0.15921221
0.14740531
0.13560097
0.12379936
0.11200052
0.1002042
0.088409521
0.076616456
0.06482505
0.053035989
0.041248338
0.029462402
0.017676811
0.005893089
1.4554176
1.4434643
1.4212299
1.3909424
1.3570812
1.3230856
1.290388
1.2593824
1.230285
1.2032732
1.1783462
1.1552966
1.1338151
1.1135974
1.0943938
1.0760116
1.0583027
1.0411522
1.0244714
1.0081923
0.9922633
0.97664475
0.96130523
0.94621906
0.93136459
0.9167231
0.90227812
0.88801492
0.87392023
0.85998195
0.846189
0.8325312
0.81899914
0.80558417
0.79227829
0.77907409
0.76596471
0.75294378
0.7400054
0.72714406
0.71435465
0.7016324
0.68897288
0.67637195
0.66382577
0.65133074
0.63888351
0.62648095
0.61412015
0.60179837
0.58951308
0.57726189
0.56504255
0.55285299
0.54069124
0.5285555
0.51644408
0.50435538
0.49228794
0.48024036
0.46821134
0.45619967
0.44420421
0.43222389
0.42025772
0.40830477
0.39636417
0.38443512
0.37251687
0.36060871
0.34871
0.33682012
0.32493848
0.31306451
0.30119771
0.2893376
0.27748375
0.26563577
0.25379329
0.24195595
0.23012339
0.21829529
0.20647136
0.19465132
0.18283492
0.17102199
0.15921222
0.14740528
0.1356009
0.12379935
0.11200063
0.10020433
0.088409501
0.076616306
0.064824935
0.053036016
0.041248443
0.029462473
0.017676814
0.0058930721
1.4681492
1.4526511
1.4257812
1.3918573
1.3560563
1.321105
1.287803
1.25645
1.2273193
1.2005278
1.1759403
1.1532481
1.1320963
1.1121675
1.0932093
1.0750296
1.0574838
1.0404628
1.0238842
1.0076862
0.99182227
0.97625652
0.96096055
0.94591087
0.93108742
0.91647269
0.90205104
0.88780841
0.87373197
0.85980997
0.84603161
0.83238692
0.81886671
0.80546245
0.79216628
0.77897091
0.76586956
0.75285595
0.73992424
0.72706901
0.71428518
0.70156805
0.68891323
0.67631662
0.66377442
0.65128306
0.63883922
0.6264398
0.61408189
0.60176279
0.58947997
0.57723106
0.56501385
0.55282625
0.54066633
0.52853229
0.51642245
0.50433523
0.49226916
0.48022285
0.46819502
0.45618444
0.44419
0.43221063
0.42024534
0.40829322
0.39635339
0.38442507
0.37250749
0.36059997
0.34870185
0.33681251
0.32493136
0.31305786
0.30119149
0.28933179
0.27747833
0.26563073
0.25378859
0.24195156
0.23011929
0.21829145
0.20646777
0.19464797
0.18283181
0.17101906
0.15920942
0.14740263
0.13559857
0.12379735
0.11199871
0.10020224
0.088407442
0.076614551
0.064823597
0.053034726
0.041247265
0.02946122
0.017675969
0.0058920608
1.4975577
1.4713826
1.4329858
1.3918529
1.3527676
1.3161768
1.2818791
1.2501615
1.2213055
1.1952044
1.1714504
1.1495604
1.1291106
1.1097697
1.0912895
1.0734885
1.0562366
1.0394411
1.023035
1.0069699
0.99120952
0.97572583
0.96049596
0.94550045
0.93072218
0.91614569
0.90175686
0.88754269
0.87349115
0.8595911
0.84583219
0.83220481
0.81870008
0.80530971
0.79202605
0.77884196
0.76575082
0.75274648
0.73982319
0.72697563
0.7141988
0.70148808
0.68883913
0.67624792
0.66371067
0.65122388
0.63878425
0.62638871
0.61403439
0.60171861
0.58943886
0.57719279
0.56497821
0.55279305
0.5406354
0.52850348
0.5163956
0.50431021
0.49224583
0.4802011
0.46817473
0.45616551
0.44417234
0.43219415
0.42022996
0.40827886
0.39634
0.38441257
0.37249584
0.3605891
0.34869171
0.33680303
0.3249225
0.31304957
0.30118375
0.28932457
0.27747161
0.26562446
0.25378274
0.24194609
0.23011417
0.21828668
0.20646331
0.19464381
0.18282792
0.17101539
0.15920594
0.14739943
0.13559576
0.12379477
0.11199613
0.10019958
0.088405031
0.076612527
0.064821929
0.053033061
0.041245756
0.029459733
0.017675094
0.0058910398
1.5583789
1.5034499
1.4424974
1.3909297
1.3476596
1.3086913
1.273105
1.2413324
1.2133715
1.1885937
1.1661918
1.1454905
1.1260088
1.1074208
1.0895072
1.0721224
1.0551706
1.0385892
1.0223365
1.006383
0.99070601
0.97528647
0.96010762
0.94515395
0.9304109
0.91586468
0.90150227
0.8873114
0.87328057
0.859399
0.84565664
0.83204413
0.81855278
0.80517448
0.79190173
0.77872752
0.76564534
0.75264915
0.73973328
0.72689248
0.71412185
0.70141679
0.68877304
0.67618661
0.66365377
0.65117103
0.63873514
0.62634305
0.61399193
0.60167911
0.58940209
0.57715855
0.56494631
0.55276333
0.54060772
0.52847768
0.51637155
0.50428779
0.49222493
0.4801816
0.46815654
0.45614855
0.44415651
0.43217937
0.42021617
0.408266
0.39632799
0.38440138
0.37248539
0.36057935
0.3486826
0.33679452
0.32491455
0.31304214
0.30117682
0.2893181
0.27746558
0.26561883
0.25377748
0.24194118
0.23010958
0.21828239
0.20645931
0.19464007
0.18282441
0.17101209
0.15920288
0.14739665
0.1355932
0.1237923
0.11199372
0.10019732
0.088403024
0.076610742
0.0648203
0.053031503
0.041244357
0.029458515
0.017674384
0.0058905678
1.6755986
1.5545207
1.4585403
1.3948842
1.3463746
1.3039026
1.2663673
1.2341956
1.2067952
1.1829577
1.1615634
1.1417995
1.1231224
1.1051828
1.0877675
1.0707533
1.0540724
1.0376883
1.0215801
1.0057342
0.99013919
0.97478408
0.95965738
0.94474714
0.93004114
0.91552715
0.90119318
0.88702768
0.87301963
0.85915864
0.84543493
0.83183938
0.81836348
0.8049993
0.79173947
0.7785771
0.7655058
0.7525196
0.73961294
0.72678063
0.71401783
0.70132002
0.68868298
0.67610276
0.66357567
0.65109828
0.63866735
0.62627987
0.61393303
0.60162418
0.58935086
0.57711077
0.56490173
0.55272174
0.54056891
0.52844147
0.51633776
0.50425625
0.49219549
0.48015412
0.46813089
0.45612459
0.44413414
0.43215849
0.42019667
0.40824779
0.396311
0.38438551
0.37247058
0.36056552
0.34866967
0.33678245
0.32490327
0.31303161
0.30116698
0.28930892
0.277457
0.26561082
0.25377
0.24193419
0.23010306
0.2182763
0.20645361
0.19463474
0.18281943
0.17100744
0.15919858
0.14739264
0.13558943
0.12378873
0.11199037
0.10019423
0.088400191
0.076608098
0.064817804
0.053029184
0.041242187
0.029456633
0.0176727
0.005889724
)
;

boundaryField
{
    top
    {
        type            zeroGradient;
    }
    inlet
    {
        type            zeroGradient;
    }
    outlet
    {
        type            fixedValue;
        value           uniform 0;
    }
    bottom
    {
        type            zeroGradient;
    }
    back
    {
        type            empty;
    }
    front
    {
        type            empty;
    }
}


// ************************************************************************* //
