/*--------------------------------*- C++ -*----------------------------------*\
  =========                 |
  \\      /  F ield         | OpenFOAM: The Open Source CFD Toolbox
   \\    /   O peration     | Website:  https://openfoam.org
    \\  /    A nd           | Version:  9
     \\/     M anipulation  |
\*---------------------------------------------------------------------------*/
FoamFile
{
    format      ascii;
    class       surfaceScalarField;
    location    "18";
    object      phi;
}
// * * * * * * * * * * * * * * * * * * * * * * * * * * * * * * * * * * * * * //

dimensions      [0 3 -1 0 0 0 0];

internalField   nonuniform List<scalar> 
1890
(
0.0093061957
0.00069380425
0.0082843931
0.0010218027
0.0073298986
0.0009544945
0.0064869552
0.00084294334
0.0057695844
0.00071737079
0.00518986
0.00057972441
0.004738168
0.00045169202
0.00439519
0.000342978
0.0041390268
0.0002561632
0.003949107
0.00018991986
0.003807888
0.000141219
0.0037013782
0.00010650981
0.0036190579
8.2320216e-05
0.0035534117
6.564623e-05
0.0034992845
5.4127237e-05
0.0034532444
4.6040033e-05
0.0034130501
4.0194282e-05
0.0033772574
3.5792752e-05
0.0033449387
3.2318762e-05
0.0033154894
2.944929e-05
0.0032885008
2.6988589e-05
0.0032636805
2.4820312e-05
0.003240805
2.2875486e-05
0.0032196925
2.1112417e-05
0.0032001879
1.9504651e-05
0.0031821539
1.8034011e-05
0.0031654672
1.6686722e-05
0.0031500158
1.5451361e-05
0.0031356979
1.4317861e-05
0.0031224209
1.3277072e-05
0.0031101003
1.2320594e-05
0.0030986596
1.1440726e-05
0.0030880291
1.0630439e-05
0.0030781457
9.8833681e-06
0.003068952
9.1937713e-06
0.0030603955
8.5564943e-06
0.0030524285
7.9669173e-06
0.0030450076
7.4209039e-06
0.0030380929
6.9147483e-06
0.0030316478
6.4451274e-06
0.0030256387
6.0090552e-06
0.0030200349
5.603843e-06
0.0030148078
5.2270653e-06
0.0030099313
4.8765279e-06
0.003005381
4.5502428e-06
0.0030011346
4.2463996e-06
0.0029971713
3.9633479e-06
0.0029934717
3.6995752e-06
0.002990018
3.4536962e-06
0.0029867936
3.2244364e-06
0.002983783
3.0106226e-06
0.0029809718
2.8111698e-06
0.0029783467
2.6250764e-06
0.0029758953
2.4514167e-06
0.002973606
2.2893379e-06
0.0029714679
2.1380502e-06
0.0029694711
1.9968243e-06
0.0029676061
1.8649825e-06
0.0029658642
1.7418953e-06
0.0029642372
1.6269729e-06
0.0029627176
1.5196645e-06
0.0029612981
1.4194553e-06
0.0029599722
1.3258693e-06
0.0029587338
1.2384618e-06
0.0029575769
1.1568226e-06
0.0029564964
1.0805676e-06
0.002955487
1.0093444e-06
0.0029545442
9.428227e-07
0.0029536635
8.8069623e-07
0.0029528408
8.2267288e-07
0.0029520724
7.6848269e-07
0.0029513545
7.1786572e-07
0.0029506839
6.7058456e-07
0.0029500575
6.2640837e-07
0.0029494724
5.8513798e-07
0.0029489258
5.4657271e-07
0.0029484152
5.1055437e-07
0.0029479383
4.7690236e-07
0.0029474928
4.4549238e-07
0.0029470767
4.161432e-07
0.0029466879
3.8875843e-07
0.0029463248
3.6314376e-07
0.0029459855
3.3925389e-07
0.0029456687
3.1686608e-07
0.0029453726
2.9601773e-07
0.0029450962
2.7644716e-07
0.0029448379
2.5831354e-07
0.0029445967
2.4120478e-07
0.0029443712
2.2543067e-07
0.0029441608
2.104041e-07
0.0029439641
1.9677946e-07
0.0029437805
1.8366518e-07
0.0029436085
1.7197963e-07
0.0029434481
1.6034671e-07
0.0029432978
1.5024891e-07
0.0029431575
1.4032505e-07
0.0029430254
1.3209291e-07
0.0029429003
1.251642e-07
0.0029427808
1.1953134e-07
1.2583317e-07
0.010339525
0.00035427932
0.010570754
0.00079057335
0.0106063
0.00091894821
0.010547572
0.00090167136
0.010422317
0.00084262621
0.010244356
0.00075768556
0.010039421
0.00065662742
0.0098287427
0.00055365587
0.009625135
0.00045977087
0.0094353013
0.00037975358
0.0092624277
0.00031409262
0.0091075332
0.00026140426
0.0089701539
0.00021969947
0.0088489023
0.00018689784
0.0087419716
0.000161058
0.0086474927
0.00014051893
0.008563694
0.00012399295
0.0084890108
0.000110476
0.0084221097
9.9219877e-05
0.0083618775
8.9681418e-05
0.0083073954
8.1470686e-05
0.0082579079
7.4307861e-05
0.0082127929
6.7990503e-05
0.0081715353
6.2369987e-05
0.0081337049
5.7335006e-05
0.0080989388
5.2800174e-05
0.0080669272
4.8698258e-05
0.0080374037
4.4974949e-05
0.0080101361
4.1585389e-05
0.0079849214
3.849185e-05
0.0079615798
3.5662164e-05
0.0079399519
3.3068624e-05
0.0079198951
3.0687183e-05
0.0079012816
2.8496855e-05
0.0078839962
2.6479239e-05
0.0078679345
2.4618138e-05
0.0078530022
2.2899237e-05
0.0078391133
2.1309844e-05
0.0078261894
1.9838664e-05
0.0078141589
1.8475616e-05
0.0078029563
1.7211673e-05
0.0077925214
1.6038727e-05
0.007782799
1.4949477e-05
0.0077737381
1.3937329e-05
0.0077652921
1.2996313e-05
0.0077574175
1.2121003e-05
0.0077500743
1.1306456e-05
0.0077432258
1.0548159e-05
0.0077368375
9.8419825e-06
0.0077308778
9.1841398e-06
0.0077253173
8.5711499e-06
0.0077201286
7.9998061e-06
0.0077152866
7.4671524e-06
0.0077107675
6.9704645e-06
0.0077065496
6.50723e-06
0.0077026125
6.0751311e-06
0.0076989373
5.6720245e-06
0.0076955064
5.2959251e-06
0.0076923033
4.9449876e-06
0.0076893128
4.617493e-06
0.0076865206
4.3118406e-06
0.0076839135
4.0265433e-06
0.0076814792
3.7602221e-06
0.007679206
3.5115947e-06
0.0076770834
3.2794707e-06
0.0076751012
3.0627429e-06
0.0076732501
2.8603873e-06
0.0076715215
2.6714477e-06
0.0076699072
2.4950375e-06
0.0076683995
2.3303197e-06
0.0076669915
2.1765197e-06
0.0076656765
2.032893e-06
0.0076644483
1.8987633e-06
0.0076633012
1.7734752e-06
0.0076622299
1.6564597e-06
0.0076612293
1.5471478e-06
0.0076602948
1.4450779e-06
0.007659422
1.3497344e-06
0.0076586067
1.2607411e-06
0.0076578453
1.1775885e-06
0.0076571341
1.0999979e-06
0.0076564698
1.0274333e-06
0.0076558492
9.5976955e-07
0.0076552697
8.9640756e-07
0.0076547283
8.3742036e-07
0.0076542227
7.8199797e-07
0.0076537504
7.3062135e-07
0.0076533094
6.8218947e-07
0.0076528972
6.3764032e-07
0.0076525126
5.9506959e-07
0.0076521528
5.5658015e-07
0.0076518173
5.1920321e-07
0.0076515028
4.863883e-07
0.0076512104
4.5272789e-07
0.0076509355
4.2509901e-07
0.0076506809
3.9496978e-07
0.0076504387
3.7433017e-07
0.0076502165
3.474129e-07
0.0076499998
3.362449e-07
3.108223e-07
0.010188704
0.00016557515
0.010530487
0.00044879099
0.010851453
0.00059798176
0.011124174
0.00062895023
0.011350581
0.00061621885
0.011524486
0.00058378055
0.01164633
0.00053478421
0.011724155
0.00047583051
0.011767999
0.00041592668
0.011786639
0.00036111402
0.011787114
0.00031361713
0.011775058
0.00027346026
0.011754861
0.00023989717
0.011729768
0.00021199029
0.011702054
0.00018877258
0.011673239
0.00016933386
0.011644339
0.00015289296
0.011616003
0.00013881184
0.011588629
0.00012659381
0.011562446
0.00011586447
0.011537572
0.00010634496
0.011514052
9.782701e-05
0.011491889
9.0153362e-05
0.011471056
8.3203357e-05
0.011451509
7.68826e-05
0.011433193
7.1115547e-05
0.011416051
6.584028e-05
0.011400021
6.1004901e-05
0.011385042
5.6565071e-05
0.011371051
5.248235e-05
0.01135799
4.8723048e-05
0.011345801
4.525741e-05
0.01133443
4.2059008e-05
0.011323822
3.9104273e-05
0.011313929
3.6372111e-05
0.011304704
3.384359e-05
0.011296101
3.1501675e-05
0.01128808
2.9331004e-05
0.011280601
2.7317699e-05
0.011273628
2.5449187e-05
0.011267125
2.3714066e-05
0.011261062
2.2101969e-05
0.011255408
2.0603464e-05
0.011250135
1.920995e-05
0.011245218
1.7913565e-05
0.011240632
1.6707108e-05
0.011236354
1.5583976e-05
0.011232364
1.4538107e-05
0.011228643
1.3563927e-05
0.01122517
1.2656301e-05
0.011221931
1.1810491e-05
0.011218909
1.1022119e-05
0.011216089
1.0287141e-05
0.011213457
9.6018237e-06
0.011211002
8.9627166e-06
0.01120871
8.3666252e-06
0.011206572
7.8105934e-06
0.011204576
7.2918776e-06
0.011202713
6.8079244e-06
0.011200974
6.3563532e-06
0.011199351
5.9349521e-06
0.011197836
5.5416698e-06
0.011196421
5.1746032e-06
0.011195101
4.8319781e-06
0.011193868
4.5121469e-06
0.011192718
4.2135766e-06
0.011191643
3.9348499e-06
0.01119064
3.6746394e-06
0.011189703
3.4317147e-06
0.011188829
3.2049147e-06
0.011188012
2.9931683e-06
0.011187249
2.7954485e-06
0.011186537
2.6108214e-06
0.011185872
2.4383823e-06
0.011185252
2.277354e-06
0.011184672
2.12695e-06
0.01118413
1.9865373e-06
0.011183625
1.8553893e-06
0.011183152
1.7329912e-06
0.011182711
1.6186113e-06
0.0111823
1.5118901e-06
0.011181915
1.412062e-06
0.011181556
1.3190219e-06
0.01118122
1.2318679e-06
0.011180907
1.1508299e-06
0.011180614
1.0746131e-06
0.011180341
1.0040647e-06
0.011180086
9.3725997e-07
0.011179847
8.7615693e-07
0.011179625
8.1749802e-07
0.011179416
7.6518166e-07
0.011179222
7.1310639e-07
0.01117904
6.6850338e-07
0.011178872
6.2083665e-07
0.011178712
5.8479209e-07
0.011178566
5.4103732e-07
0.011178425
5.1547745e-07
0.0111783
4.724796e-07
0.011178177
4.591066e-07
4.161061e-07
0.010097182
6.8393545e-05
0.010346961
0.00019901111
0.010662469
0.00028247386
0.010982753
0.00030866648
0.011290229
0.00030874343
0.011575251
0.0002987579
0.011829022
0.00028101348
0.012047865
0.00025698757
0.012233272
0.00023051982
0.01238924
0.00020514589
0.012520295
0.00018256236
0.012630755
0.00016299957
0.012724428
0.00014622491
0.012804515
0.00013190311
0.012873613
0.00011967425
0.012933772
0.00010917459
0.012986596
0.00010006907
0.013033332
9.2076378e-05
0.01307495
8.4975274e-05
0.013112216
7.8598634e-05
0.013145739
7.2822315e-05
0.013176012
6.7553938e-05
0.013203441
6.2723916e-05
0.013228366
5.8278884e-05
0.013251071
5.4176976e-05
0.013271802
5.0384422e-05
0.01329077
4.6873156e-05
0.013308155
4.3619177e-05
0.013324119
4.0601468e-05
0.0133388
3.7801298e-05
0.013352321
3.5201775e-05
0.013364791
3.2787547e-05
0.013376306
3.0544597e-05
0.01338695
2.8460082e-05
0.0133968
2.6522207e-05
0.013405923
2.472012e-05
0.013414381
2.3043833e-05
0.013422228
2.1484141e-05
0.013429513
2.0032564e-05
0.013436281
1.8681281e-05
0.013442572
1.7423074e-05
0.013448423
1.6251285e-05
0.013453866
1.5159764e-05
0.013458933
1.4142829e-05
0.013463652
1.319522e-05
0.013468047
1.2312067e-05
0.013472142
1.1488863e-05
0.013475959
1.0721432e-05
0.013479517
1.0005905e-05
0.013482834
9.3386909e-06
0.013485928
8.7164498e-06
0.013488814
8.1360809e-06
0.013491507
7.5947098e-06
0.013494019
7.0896731e-06
0.013496363
6.6184965e-06
0.013498551
6.1788798e-06
0.013500593
5.7686835e-06
0.013502499
5.3859128e-06
0.013504278
5.0287055e-06
0.013505939
4.6953271e-06
0.01350749
4.3841679e-06
0.013508938
4.0937308e-06
0.01351029
3.8226244e-06
0.013511552
3.5695484e-06
0.013512731
3.3332936e-06
0.013513832
3.1127322e-06
0.01351486
2.9068244e-06
0.01351582
2.714592e-06
0.013516716
2.5351255e-06
0.013517554
2.3675632e-06
0.013518336
2.211116e-06
0.013519066
2.0650228e-06
0.013519748
1.9285986e-06
0.013520386
1.8011808e-06
0.013520981
1.6822049e-06
0.013521537
1.5710872e-06
0.013522056
1.4673656e-06
0.013522541
1.3704869e-06
0.013522994
1.280073e-06
0.013523417
1.1955613e-06
0.013523812
1.1167145e-06
0.013524181
1.0429387e-06
0.013524526
9.7421192e-07
0.013524848
9.0980257e-07
0.013525149
8.4999783e-07
0.01352543
7.9367785e-07
0.013525692
7.4161509e-07
0.013525937
6.9206796e-07
0.013526166
6.4706824e-07
0.01352638
6.0375354e-07
0.01352658
5.6553602e-07
0.013526766
5.2645665e-07
0.013526941
4.9358479e-07
0.013527104
4.5776327e-07
0.013527257
4.3240662e-07
0.013527399
3.9922741e-07
0.013527533
3.811095e-07
0.013527658
3.4710504e-07
0.01352778
3.3788936e-07
3.056121e-07
0.010068394
-1.0703735e-11
0.010267405
-1.356498e-11
0.010549879
-7.584014e-12
0.010858545
2.8334915e-12
0.011167288
1.2013284e-11
0.011466046
1.7291993e-11
0.01174706
1.5015194e-11
0.012004047
5.4910956e-12
0.012234567
-1.1862836e-12
0.012439713
-8.9696278e-12
0.012622275
-1.1699131e-11
0.012785275
-1.0760505e-11
0.0129315
-6.4021796e-12
0.013063403
-3.082032e-12
0.013183077
1.0763273e-12
0.013292252
7.285578e-12
0.013392321
1.1474952e-11
0.013484397
1.1962762e-11
0.013569373
8.4928235e-12
0.013647971
1.0651349e-12
0.013720794
-6.1747254e-12
0.013788347
-1.0472622e-11
0.013851071
-9.9998317e-12
0.01390935
-6.4539102e-12
0.013963527
-1.8038995e-12
0.014013912
1.3849467e-12
0.014060785
5.9610736e-12
0.014104404
8.5880191e-12
0.014145005
9.2510479e-12
0.014182807
6.7110253e-12
0.014218009
4.745292e-13
0.014250796
-6.8986295e-12
0.014281341
-1.1827157e-11
0.014309801
-1.2320452e-11
0.014336323
-8.7651513e-12
0.014361043
-1.6495456e-12
0.014384087
6.7111164e-12
0.014405571
1.238765e-11
0.014425604
1.235095e-11
0.014444285
7.0633558e-12
0.014461708
-1.2605883e-12
0.014477959
-7.9991677e-12
0.014493119
-9.8853433e-12
0.014507262
-9.1664348e-12
0.014520457
-6.8920542e-12
0.014532769
-4.051045e-12
0.014544258
-2.2482196e-13
0.014554979
5.631172e-12
0.014564985
1.1256262e-11
0.014574324
1.3049442e-11
0.01458304
9.6265513e-12
0.014591177
1.6518699e-12
0.014598771
-8.7709831e-12
0.014605861
-1.6885042e-11
0.014612479
-1.7823353e-11
0.014618658
-1.0947442e-11
0.014624427
1.7376648e-12
0.014629813
1.3815859e-11
0.014634842
1.7718216e-11
0.014639537
1.4850945e-11
0.014643921
8.4375379e-12
0.014648015
9.2784997e-13
0.014651837
-7.1192736e-12
0.014655407
-1.4224645e-11
0.01465874
-1.5846298e-11
0.014661853
-1.2816306e-11
0.01466476
-4.8653115e-12
0.014667474
5.8994343e-12
0.01467001
1.7558948e-11
0.014672377
2.505527e-11
0.014674588
2.3137761e-11
0.014676653
1.0065356e-11
0.014678582
-8.8108404e-12
0.014680383
-2.3951182e-11
0.014682065
-2.6993787e-11
0.014683636
-1.8269175e-11
0.014685104
-4.9286747e-13
0.014686474
1.6327474e-11
0.014687754
2.2725602e-11
0.01468895
1.8200713e-11
0.014690067
7.7484721e-12
0.014691109
-3.1002955e-12
0.014692084
-6.6109921e-12
0.014692993
-7.7881157e-13
0.014693843
8.533279e-13
0.014694637
-2.9264723e-11
0.014695379
-4.7455263e-11
0.014696071
9.3855836e-13
0.014696718
9.1770388e-11
0.014697322
1.4243188e-10
0.014697887
6.0910579e-11
0.014698413
-1.2810059e-10
0.014698907
-2.3300529e-10
0.014699365
-1.0188454e-10
0.014699798
1.41569e-10
0.014700197
2.2477754e-10
0.014700578
7.167173e-11
0.014700925
-1.0131081e-10
0.014701263
-1.5967263e-10
-8.7197581e-11
0.010068394
-6.8393564e-05
0.010267405
-0.00019901113
0.010549879
-0.00028247387
0.010858545
-0.00030866648
0.011167288
-0.00030874341
0.011466046
-0.00029875788
0.01174706
-0.00028101345
0.012004047
-0.00025698755
0.012234567
-0.00023051981
0.012439713
-0.0002051459
0.012622275
-0.00018256237
0.012785275
-0.00016299959
0.0129315
-0.00014622492
0.013063403
-0.00013190312
0.013183077
-0.00011967425
0.013292252
-0.00010917459
0.013392321
-0.00010006905
0.013484397
-9.2076356e-05
0.013569373
-8.4975259e-05
0.013647971
-7.8598629e-05
0.013720794
-7.2822321e-05
0.013788347
-6.7553952e-05
0.013851071
-6.2723931e-05
0.01390935
-5.8278897e-05
0.013963527
-5.4176983e-05
0.014013912
-5.0384422e-05
0.014060785
-4.6873149e-05
0.014104404
-4.3619165e-05
0.014145005
-4.0601454e-05
0.014182807
-3.7801288e-05
0.014218009
-3.5201773e-05
0.014250796
-3.2787555e-05
0.014281341
-3.0544612e-05
0.014309801
-2.84601e-05
0.014336323
-2.652222e-05
0.014361043
-2.4720124e-05
0.014384087
-2.3043826e-05
0.014405571
-2.1484127e-05
0.014425604
-2.003255e-05
0.014444285
-1.8681271e-05
0.014461708
-1.7423073e-05
0.014477959
-1.6251291e-05
0.014493119
-1.5159775e-05
0.014507262
-1.4142842e-05
0.014520457
-1.3195233e-05
0.014532769
-1.2312076e-05
0.014544258
-1.1488864e-05
0.014554979
-1.0721424e-05
0.014564985
-1.0005891e-05
0.014574324
-9.3386737e-06
0.01458304
-8.7164362e-06
0.014591177
-8.1360781e-06
0.014598771
-7.594721e-06
0.014605861
-7.0896933e-06
0.014612479
-6.6185171e-06
0.014618658
-6.1788926e-06
0.014624427
-5.7686833e-06
0.014629813
-5.3858998e-06
0.014634842
-5.0286861e-06
0.014639537
-4.6953079e-06
0.014643921
-4.3841535e-06
0.014648015
-4.0937261e-06
0.014651837
-3.8226317e-06
0.014655407
-3.5695652e-06
0.01465874
-3.3333139e-06
0.014661853
-3.112751e-06
0.01466476
-2.9068328e-06
0.014667474
-2.7145832e-06
0.01467001
-2.5351006e-06
0.014672377
-2.3675321e-06
0.014674588
-2.2110886e-06
0.014676653
-2.0650099e-06
0.014678582
-1.9286074e-06
0.014680383
-1.8012065e-06
0.014682065
-1.6822343e-06
0.014683636
-1.5711077e-06
0.014685104
-1.467368e-06
0.014686474
-1.370472e-06
0.014687754
-1.2800512e-06
0.01468895
-1.1955411e-06
0.014690067
-1.1167014e-06
0.014691109
-1.0429339e-06
0.014692084
-9.7421073e-07
0.014692993
-9.0980284e-07
0.014693843
-8.500174e-07
0.014694637
-7.9372493e-07
0.014695379
-7.4163558e-07
0.014696071
-6.9201154e-07
0.014696718
-6.4695166e-07
0.014697322
-6.0365572e-07
0.014697887
-5.6555025e-07
0.014698414
-5.2660436e-07
0.014698907
-4.9375272e-07
0.014699365
-4.5778221e-07
0.014699797
-4.3226428e-07
0.014700197
-3.9907515e-07
0.014700578
-3.8109434e-07
0.014700925
-3.4720035e-07
0.014701263
-3.3801819e-07
-3.0570111e-07
0.010097182
-0.00016557516
0.010346961
-0.000448791
0.010662469
-0.00059798178
0.010982753
-0.00062895025
0.011290229
-0.00061621887
0.011575251
-0.00058378055
0.011829022
-0.0005347842
0.012047865
-0.00047583049
0.012233272
-0.00041592665
0.01238924
-0.00036111401
0.012520295
-0.00031361713
0.012630755
-0.00027346027
0.012724428
-0.00023989719
0.012804515
-0.0002119903
0.012873613
-0.00018877259
0.012933772
-0.00016933386
0.012986596
-0.00015289295
0.013033332
-0.00013881183
0.01307495
-0.0001265938
0.013112216
-0.00011586446
0.013145739
-0.00010634495
0.013176012
-9.7827005e-05
0.013203441
-9.0153364e-05
0.013228366
-8.3203366e-05
0.013251071
-7.6882611e-05
0.013271802
-7.1115556e-05
0.01329077
-6.5840285e-05
0.013308155
-6.1004902e-05
0.013324119
-5.6565069e-05
0.0133388
-5.2482346e-05
0.013352321
-4.8723041e-05
0.013364791
-4.5257402e-05
0.013376306
-4.2059002e-05
0.01338695
-3.9104271e-05
0.0133968
-3.6372114e-05
0.013405923
-3.3843598e-05
0.013414381
-3.1501686e-05
0.013422228
-2.9331016e-05
0.013429513
-2.7317705e-05
0.013436281
-2.5449184e-05
0.013442572
-2.3714054e-05
0.013448423
-2.2101956e-05
0.013453866
-2.0603457e-05
0.013458933
-1.9209952e-05
0.013463652
-1.7913572e-05
0.013468047
-1.6707116e-05
0.013472142
-1.5583982e-05
0.013475959
-1.4538111e-05
0.013479517
-1.356393e-05
0.013482834
-1.2656303e-05
0.013485928
-1.181049e-05
0.013488814
-1.1022114e-05
0.013491507
-1.0287133e-05
0.013494019
-9.6018136e-06
0.013496363
-8.9627076e-06
0.013498551
-8.3666249e-06
0.013500593
-7.8106052e-06
0.013502499
-7.2918945e-06
0.013504278
-6.8079348e-06
0.013505939
-6.3563525e-06
0.01350749
-5.9349444e-06
0.013508938
-5.5416601e-06
0.01351029
-5.1745934e-06
0.013511552
-4.8319703e-06
0.013512731
-4.5121435e-06
0.013513832
-4.2135782e-06
0.01351486
-3.9348532e-06
0.01351582
-3.6746426e-06
0.013516716
-3.4317202e-06
0.013517554
-3.2049236e-06
0.013518336
-2.9931749e-06
0.013519066
-2.7954447e-06
0.013519748
-2.6108061e-06
0.013520386
-2.4383613e-06
0.013520981
-2.277336e-06
0.013521537
-2.1269449e-06
0.013522056
-1.9865501e-06
0.013522541
-1.8554143e-06
0.013522994
-1.7330137e-06
0.013523417
-1.6186175e-06
0.013523812
-1.5118777e-06
0.013524181
-1.4120406e-06
0.013524526
-1.3190036e-06
0.013524848
-1.2318685e-06
0.013525149
-1.1508538e-06
0.01352543
-1.0746145e-06
0.013525692
-1.0039772e-06
0.013525937
-9.3713392e-07
0.013526166
-8.7620162e-07
0.01352638
-8.1778074e-07
0.01352658
-7.6538188e-07
0.013526766
-7.1288874e-07
0.013526941
-6.6807647e-07
0.013527104
-6.2072399e-07
0.013527257
-5.8510296e-07
0.013527399
-5.4136286e-07
0.013527533
-5.1549629e-07
0.013527658
-4.7229284e-07
0.013527779
-4.589716e-07
-4.160863e-07
0.010188704
-0.00035427932
0.010530487
-0.00079057336
0.010851453
-0.00091894822
0.011124174
-0.00090167138
0.011350581
-0.00084262623
0.011524486
-0.00075768557
0.01164633
-0.00065662742
0.011724155
-0.00055365586
0.011767999
-0.00045977085
0.011786639
-0.00037975356
0.011787114
-0.0003140926
0.011775058
-0.00026140425
0.011754861
-0.00021969947
0.011729768
-0.00018689785
0.011702054
-0.00016105801
0.011673239
-0.00014051895
0.011644339
-0.00012399297
0.011616003
-0.00011047601
0.011588629
-9.9219877e-05
0.011562446
-8.9681404e-05
0.011537572
-8.1470664e-05
0.011514052
-7.430784e-05
0.011491889
-6.7990491e-05
0.011471056
-6.2369987e-05
0.011451509
-5.7335015e-05
0.011433193
-5.2800188e-05
0.011416051
-4.8698273e-05
0.011400021
-4.4974963e-05
0.011385042
-4.1585399e-05
0.011371051
-3.8491852e-05
0.01135799
-3.5662155e-05
0.011345801
-3.3068606e-05
0.01133443
-3.0687161e-05
0.011323822
-2.8496839e-05
0.011313929
-2.6479235e-05
0.011304704
-2.4618148e-05
0.011296101
-2.2899258e-05
0.01128808
-2.1309868e-05
0.011280601
-1.9838682e-05
0.011273628
-1.847562e-05
0.011267125
-1.7211663e-05
0.011261062
-1.6038709e-05
0.011255408
-1.4949459e-05
0.011250135
-1.3937317e-05
0.011245218
-1.2996308e-05
0.011240632
-1.2121005e-05
0.011236354
-1.1306465e-05
0.011232364
-1.0548174e-05
0.011228643
-9.8420011e-06
0.01122517
-9.1841562e-06
0.011221931
-8.571157e-06
0.011218909
-7.999799e-06
0.011216089
-7.4671315e-06
0.011213457
-6.9704367e-06
0.011211002
-6.5072074e-06
0.01120871
-6.0751246e-06
0.011206572
-5.6720377e-06
0.011204576
-5.2959511e-06
0.011202713
-4.9450141e-06
0.011200974
-4.6175099e-06
0.011199351
-4.3118446e-06
0.011197836
-4.0265345e-06
0.011196421
-3.7602028e-06
0.011195101
-3.5115699e-06
0.011193868
-3.2794479e-06
0.011192718
-3.062729e-06
0.011191643
-2.8603871e-06
0.01119064
-2.6714631e-06
0.011189703
-2.4950665e-06
0.011188829
-2.3303532e-06
0.011188012
-2.1765425e-06
0.011187249
-2.0328925e-06
0.011186537
-1.8987362e-06
0.011185872
-1.7734316e-06
0.011185252
-1.6564188e-06
0.011184672
-1.5471294e-06
0.01118413
-1.4450915e-06
0.011183625
-1.3497717e-06
0.011183152
-1.2607814e-06
0.011182711
-1.1776123e-06
0.0111823
-1.0999988e-06
0.011181915
-1.0274197e-06
0.011181556
-9.5975441e-07
0.01118122
-8.9639501e-07
0.011180907
-8.3739179e-07
0.011180614
-7.8193181e-07
0.011180341
-7.3054647e-07
0.011180086
-6.8220377e-07
0.011179847
-6.3781326e-07
0.011179625
-5.9529755e-07
0.011179416
-5.5661218e-07
0.011179222
-5.1892482e-07
0.01117904
-4.8603902e-07
0.011178872
-4.5267732e-07
0.011178712
-4.2539522e-07
0.011178566
-3.9527765e-07
0.011178425
-3.7436813e-07
0.0111783
-3.4723573e-07
0.011178177
-3.3607015e-07
-3.1074964e-07
0.010339525
-0.00069380426
0.010570754
-0.0010218027
0.010606301
-0.00095449449
0.010547572
-0.00084294334
0.010422317
-0.00071737079
0.010244356
-0.00057972442
0.010039421
-0.00045169204
0.0098287427
-0.00034297802
0.009625135
-0.00025616319
0.0094353013
-0.00018991985
0.0092624277
-0.00014121897
0.0091075332
-0.00010650979
0.008970154
-8.2320206e-05
0.0088489023
-6.5646232e-05
0.0087419716
-5.4127249e-05
0.0086474927
-4.6040051e-05
0.008563694
-4.01943e-05
0.0084890108
-3.5792764e-05
0.0084221096
-3.2318764e-05
0.0083618775
-2.9449282e-05
0.0083073954
-2.6988573e-05
0.0082579079
-2.4820294e-05
0.0082127929
-2.2875474e-05
0.0081715353
-2.1112413e-05
0.0081337049
-1.9504655e-05
0.0080989388
-1.8034022e-05
0.0080669272
-1.6686737e-05
0.0080374036
-1.5451376e-05
0.0080101361
-1.4317872e-05
0.0079849213
-1.3277075e-05
0.0079615798
-1.2320587e-05
0.0079399519
-1.1440711e-05
0.0079198951
-1.0630422e-05
0.0079012817
-9.8833549e-06
0.0078839962
-9.1937675e-06
0.0078679345
-8.5565012e-06
0.0078530022
-7.9669325e-06
0.0078391133
-7.4209217e-06
0.0078261893
-6.9147625e-06
0.0078141588
-6.445133e-06
0.0078029562
-6.0090508e-06
0.0077925214
-5.603831e-06
0.007782799
-5.2270504e-06
0.0077737382
-4.8765152e-06
0.0077652921
-4.5502354e-06
0.0077574175
-4.2463999e-06
0.0077500744
-3.9633557e-06
0.0077432258
-3.6995894e-06
0.0077368375
-3.4537127e-06
0.0077308778
-3.2244499e-06
0.0077253172
-3.0106272e-06
0.0077201286
-2.8111628e-06
0.0077152865
-2.6250595e-06
0.0077107675
-2.4513966e-06
0.0077065496
-2.2893221e-06
0.0077026125
-2.1380453e-06
0.0076989373
-1.9968323e-06
0.0076955064
-1.8650006e-06
0.0076923033
-1.7419162e-06
0.0076893128
-1.6269889e-06
0.0076865206
-1.5196702e-06
0.0076839135
-1.4194496e-06
0.0076814791
-1.3258534e-06
0.007679206
-1.2384407e-06
0.0076770834
-1.1568025e-06
0.0076751012
-1.0805563e-06
0.0076732502
-1.0093466e-06
0.0076715215
-9.4283875e-07
0.0076699072
-8.8072106e-07
0.0076683995
-8.2269815e-07
0.0076669915
-7.684983e-07
0.0076656764
-7.1786357e-07
0.0076644483
-6.7056421e-07
0.0076633012
-6.2637767e-07
0.0076622299
-5.8511016e-07
0.0076612294
-5.4656034e-07
0.0076602948
-5.1056238e-07
0.007659422
-4.7692662e-07
0.0076586067
-4.4552035e-07
0.0076578453
-4.1616373e-07
0.007657134
-3.887663e-07
0.0076564697
-3.6313909e-07
0.0076558492
-3.3923941e-07
0.0076552697
-3.168417e-07
0.0076547283
-2.9598159e-07
0.0076542228
-2.7640827e-07
0.0076537505
-2.5831286e-07
0.0076533096
-2.412711e-07
0.0076528972
-2.255247e-07
0.0076525124
-2.1044539e-07
0.0076521526
-1.967319e-07
0.0076518173
-1.8355943e-07
0.0076515031
-1.7188454e-07
0.0076512107
-1.6033602e-07
0.0076509356
-1.5033911e-07
0.0076506808
-1.4043851e-07
0.0076504386
-1.3213333e-07
0.0076502164
-1.2511128e-07
0.0076499998
-1.1944313e-07
-1.2578001e-07
0.0093061957
0.0082843931
0.0073298986
0.0064869552
0.0057695845
0.00518986
0.004738168
0.00439519
0.0041390268
0.0039491069
0.003807888
0.0037013782
0.003619058
0.0035534117
0.0034992845
0.0034532444
0.0034130501
0.0033772574
0.0033449386
0.0033154893
0.0032885008
0.0032636805
0.003240805
0.0032196926
0.0032001879
0.0031821539
0.0031654672
0.0031500158
0.0031356979
0.0031224208
0.0031101002
0.0030986595
0.0030880291
0.0030781458
0.003068952
0.0030603955
0.0030524286
0.0030450076
0.0030380929
0.0030316477
0.0030256387
0.0030200349
0.0030148078
0.0030099313
0.0030053811
0.0030011347
0.0029971713
0.0029934717
0.002990018
0.0029867935
0.0029837829
0.0029809718
0.0029783467
0.0029758953
0.002973606
0.0029714679
0.0029694711
0.0029676061
0.0029658642
0.0029642372
0.0029627175
0.0029612981
0.0029599722
0.0029587338
0.002957577
0.0029564964
0.0029554871
0.0029545442
0.0029536635
0.0029528408
0.0029520723
0.0029513544
0.0029506839
0.0029500575
0.0029494724
0.0029489258
0.0029484153
0.0029479383
0.0029474928
0.0029470767
0.0029466879
0.0029463248
0.0029459855
0.0029456687
0.0029453727
0.0029450963
0.002944838
0.0029445967
0.0029443711
0.0029441607
0.002943964
0.0029437805
0.0029436086
0.0029434482
0.0029432979
0.0029431574
0.0029430253
0.0029429002
0.0029427808
)
;

boundaryField
{
    top
    {
        type            calculated;
        value           uniform 0;
    }
    inlet
    {
        type            calculated;
        value           nonuniform List<scalar> 10(-0.01 -0.01 -0.01 -0.01 -0.01 -0.01 -0.01 -0.01 -0.01 -0.01);
    }
    outlet
    {
        type            calculated;
        value           nonuniform List<scalar> 10(0.0029426549 0.0076498148 0.011178072 0.01352789 0.014701568 0.014701568 0.01352789 0.011178072 0.0076498149 0.002942655);
    }
    bottom
    {
        type            calculated;
        value           uniform 0;
    }
    back
    {
        type            empty;
        value           nonuniform List<scalar> 0();
    }
    front
    {
        type            empty;
        value           nonuniform List<scalar> 0();
    }
}


// ************************************************************************* //
