/*--------------------------------*- C++ -*----------------------------------*\
  =========                 |
  \\      /  F ield         | OpenFOAM: The Open Source CFD Toolbox
   \\    /   O peration     | Website:  https://openfoam.org
    \\  /    A nd           | Version:  9
     \\/     M anipulation  |
\*---------------------------------------------------------------------------*/
FoamFile
{
    format      ascii;
    class       volVectorField;
    location    "18";
    object      U;
}
// * * * * * * * * * * * * * * * * * * * * * * * * * * * * * * * * * * * * * //

dimensions      [0 1 -1 0 0 0 0];

internalField   nonuniform List<vector> 
1000
(
(0.91890839 0.035821913 0)
(0.86271384 0.062195638 0)
(0.7870597 0.062510091 0)
(0.69536033 0.054550395 0)
(0.61089744 0.04453165 0)
(0.54411591 0.03401597 0)
(0.49343012 0.024187538 0)
(0.45479414 0.016144229 0)
(0.42544583 0.010265787 0)
(0.40347314 0.0063041471 0)
(0.38715767 0.003797631 0)
(0.37496219 0.0023103387 0)
(0.36566192 0.0014930145 0)
(0.35836272 0.0010851174 0)
(0.35244267 0.00090607147 0)
(0.347482 0.00084105104 0)
(0.34320348 0.00082372365 0)
(0.33942726 0.0008193102 0)
(0.33603793 0.00081185215 0)
(0.33296114 0.00079580178 0)
(0.33014778 0.00077081225 0)
(0.32756384 0.00073871023 0)
(0.3251842 0.00070188972 0)
(0.32298902 0.00066256565 0)
(0.32096172 0.00062249919 0)
(0.31908785 0.00058295691 0)
(0.31735449 0.00054477104 0)
(0.31574995 0.00050843378 0)
(0.3142636 0.00047419144 0)
(0.31288574 0.00044212475 0)
(0.31160756 0.00041220987 0)
(0.31042101 0.0003843622 0)
(0.30931883 0.00035846546 0)
(0.30829438 0.0003343905 0)
(0.30734164 0.00031200645 0)
(0.30645515 0.00029118704 0)
(0.30562991 0.0002718136 0)
(0.30486136 0.00025377629 0)
(0.30414535 0.00023697422 0)
(0.30347807 0.00022131513 0)
(0.30285601 0.00020671477 0)
(0.30227596 0.00019309616 0)
(0.30173496 0.00018038899 0)
(0.30123029 0.00016852886 0)
(0.30075942 0.00015745675 0)
(0.30032001 0.00014711828 0)
(0.29990993 0.00013746334 0)
(0.29952715 0.00012844551 0)
(0.29916983 0.00012002183 0)
(0.29883624 0.0001121524 0)
(0.29852478 0.00010480011 0)
(0.29823397 9.7930313e-05 0)
(0.29796241 9.1510806e-05 0)
(0.29770882 8.5511625e-05 0)
(0.297472 7.9905092e-05 0)
(0.29725084 7.4665469e-05 0)
(0.29704429 6.9768962e-05 0)
(0.29685137 6.5193263e-05 0)
(0.2966712 6.0917509e-05 0)
(0.29650291 5.6921946e-05 0)
(0.29634572 5.3188092e-05 0)
(0.2961989 4.9698576e-05 0)
(0.29606176 4.6437311e-05 0)
(0.29593366 4.3389207e-05 0)
(0.295814 4.0540385e-05 0)
(0.29570223 3.7877831e-05 0)
(0.29559783 3.5389669e-05 0)
(0.29550031 3.3064681e-05 0)
(0.29540922 3.0892513e-05 0)
(0.29532413 2.8863166e-05 0)
(0.29524464 2.6967315e-05 0)
(0.29517039 2.5195799e-05 0)
(0.29510103 2.3540299e-05 0)
(0.29503624 2.1992763e-05 0)
(0.29497572 2.0546403e-05 0)
(0.29491919 1.9194352e-05 0)
(0.29486638 1.7931376e-05 0)
(0.29481705 1.6751226e-05 0)
(0.29477097 1.5649738e-05 0)
(0.29472793 1.4620351e-05 0)
(0.29468772 1.3659867e-05 0)
(0.29465016 1.2761164e-05 0)
(0.29461507 1.1922983e-05 0)
(0.29458229 1.1137046e-05 0)
(0.29455167 1.0404813e-05 0)
(0.29452308 9.7163292e-06 0)
(0.29449636 9.0789285e-06 0)
(0.29447142 8.4786598e-06 0)
(0.29444809 7.9262169e-06 0)
(0.29442633 7.3986922e-06 0)
(0.29440598 6.9201508e-06 0)
(0.29438699 6.4621e-06 0)
(0.29436922 6.0524945e-06 0)
(0.2943526 5.6491633e-06 0)
(0.29433714 5.2928815e-06 0)
(0.29432249 4.9715362e-06 0)
(0.29430919 4.6896654e-06 0)
(0.29429569 4.5430578e-06 0)
(0.29428501 4.4108939e-06 0)
(0.29426873 5.059659e-06 0)
(1.0016583 0.05381943 0)
(1.0359761 0.10128444 0)
(1.0597199 0.11073663 0)
(1.0628947 0.10592202 0)
(1.0515569 0.096228727 0)
(1.0340529 0.083934059 0)
(1.0142795 0.070327061 0)
(0.99360703 0.056981333 0)
(0.97292577 0.045107481 0)
(0.9531074 0.035236753 0)
(0.93479538 0.027401653 0)
(0.91829012 0.021387229 0)
(0.90362379 0.016884498 0)
(0.89068067 0.013569707 0)
(0.87928174 0.011147747 0)
(0.86923242 0.0093736573 0)
(0.86034423 0.0080569274 0)
(0.85244667 0.0070571274 0)
(0.84539242 0.006275239 0)
(0.83905793 0.0056438297 0)
(0.83334127 0.0051180923 0)
(0.82815884 0.0046686733 0)
(0.82344212 0.0042764176 0)
(0.81913467 0.0039287382 0)
(0.81518961 0.0036172024 0)
(0.81156765 0.0033359691 0)
(0.80823544 0.0030808028 0)
(0.8051644 0.0028484681 0)
(0.80232979 0.0026363689 0)
(0.79970999 0.0024423388 0)
(0.79728597 0.0022645196 0)
(0.79504086 0.0021012909 0)
(0.79295963 0.0019512262 0)
(0.7910288 0.0018130634 0)
(0.78923627 0.0016856833 0)
(0.7875711 0.0015680917 0)
(0.78602338 0.0014594047 0)
(0.78458412 0.001358835 0)
(0.78324511 0.0012656801 0)
(0.78199889 0.001179312 0)
(0.78083861 0.0010991679 0)
(0.77975799 0.001024742 0)
(0.77875128 0.00095557912 0)
(0.77781318 0.00089126806 0)
(0.77693881 0.00083143646 0)
(0.77612368 0.00077574597 0)
(0.77536362 0.00072388833 0)
(0.77465481 0.00067558197 0)
(0.77399367 0.0006305691 0)
(0.77337693 0.00058861305 0)
(0.77280153 0.00054949604 0)
(0.77226464 0.00051301724 0)
(0.77176363 0.00047899143 0)
(0.77129606 0.00044724766 0)
(0.77085967 0.00041762823 0)
(0.77045234 0.00038998739 0)
(0.77007211 0.00036419037 0)
(0.76971717 0.00034011224 0)
(0.76938581 0.00031763672 0)
(0.76907644 0.00029665525 0)
(0.7687876 0.00027706668 0)
(0.76851791 0.00025877689 0)
(0.76826609 0.00024169852 0)
(0.76803096 0.00022575016 0)
(0.76781139 0.00021085628 0)
(0.76760635 0.0001969466 0)
(0.76741488 0.00018395626 0)
(0.76723608 0.00017182451 0)
(0.7670691 0.00016049501 0)
(0.76691315 0.00014991445 0)
(0.76676752 0.00014003351 0)
(0.7666315 0.00013080467 0)
(0.76650446 0.00012218457 0)
(0.76638582 0.00011413123 0)
(0.76627501 0.00010660839 0)
(0.76617152 9.957976e-05 0)
(0.76607485 9.3015904e-05 0)
(0.76598458 8.6883954e-05 0)
(0.76590025 8.115986e-05 0)
(0.76582151 7.5811073e-05 0)
(0.76574793 7.0819348e-05 0)
(0.76567924 6.6151049e-05 0)
(0.76561505 6.1797338e-05 0)
(0.76555512 5.7720358e-05 0)
(0.7654991 5.3923462e-05 0)
(0.76544684 5.0358253e-05 0)
(0.76539795 4.7049001e-05 0)
(0.76535238 4.3930688e-05 0)
(0.76530971 4.1059296e-05 0)
(0.76526997 3.8331328e-05 0)
(0.76523272 3.5848191e-05 0)
(0.76519804 3.3449521e-05 0)
(0.76516556 3.1310969e-05 0)
(0.76513517 2.9183989e-05 0)
(0.76510712 2.7368122e-05 0)
(0.76507998 2.5516447e-05 0)
(0.76505665 2.4073282e-05 0)
(0.76503058 2.2568443e-05 0)
(0.76501445 2.161133e-05 0)
(0.76498345 2.1000083e-05 0)
(1.0014244 0.026824854 0)
(1.0291272 0.062791352 0)
(1.0654292 0.077736553 0)
(1.098962 0.0805972 0)
(1.1253149 0.07828517 0)
(1.145053 0.073153898 0)
(1.1594858 0.066111277 0)
(1.1694287 0.058162063 0)
(1.1755354 0.050296756 0)
(1.1785738 0.043150711 0)
(1.1793571 0.036972828 0)
(1.1785949 0.031771633 0)
(1.1768304 0.027451839 0)
(1.1744518 0.023886766 0)
(1.1717287 0.020947617 0)
(1.1688444 0.018515778 0)
(1.1659195 0.016488084 0)
(1.1630317 0.014779503 0)
(1.1602295 0.013322986 0)
(1.1575415 0.012067134 0)
(1.1549828 0.010973002 0)
(1.1525601 0.010011063 0)
(1.1502747 0.0091587471 0)
(1.1481246 0.0083986036 0)
(1.1461059 0.0077169493 0)
(1.1442134 0.0071028866 0)
(1.1424414 0.0065475903 0)
(1.1407838 0.0060437943 0)
(1.1392344 0.0055854258 0)
(1.1377869 0.0051673453 0)
(1.1364353 0.0047851586 0)
(1.1351738 0.004435078 0)
(1.1339968 0.0041138182 0)
(1.1328987 0.0038185133 0)
(1.1318746 0.0035466524 0)
(1.1309195 0.0032960258 0)
(1.1300289 0.0030646816 0)
(1.1291985 0.0028508894 0)
(1.1284242 0.0026531097 0)
(1.1277022 0.0024699688 0)
(1.1270291 0.0023002365 0)
(1.1264014 0.0021428081 0)
(1.1258161 0.0019966889 0)
(1.1252702 0.001860981 0)
(1.1247612 0.001734871 0)
(1.1242865 0.0016176205 0)
(1.1238437 0.0015085572 0)
(1.1234307 0.0014070676 0)
(1.1230455 0.0013125912 0)
(1.1226861 0.0012246141 0)
(1.1223509 0.0011426644 0)
(1.1220381 0.001066308 0)
(1.1217462 0.00099514524 0)
(1.1214739 0.000928808 0)
(1.1212198 0.00086695704 0)
(1.1209827 0.00080927917 0)
(1.1207614 0.00075548485 0)
(1.1205548 0.00070530606 0)
(1.1203621 0.00065849416 0)
(1.1201821 0.00061481798 0)
(1.1200142 0.00057406259 0)
(1.1198574 0.0005360285 0)
(1.1197111 0.00050053074 0)
(1.1195745 0.00046739723 0)
(1.1194469 0.00043646823 0)
(1.1193278 0.0004075951 0)
(1.1192167 0.00038064045 0)
(1.1191129 0.000355476 0)
(1.119016 0.0003319827 0)
(1.1189255 0.00031004829 0)
(1.118841 0.00028956921 0)
(1.1187621 0.00027044655 0)
(1.1186884 0.00025259019 0)
(1.1186197 0.00023591292 0)
(1.1185554 0.00022033878 0)
(1.1184954 0.00020579172 0)
(1.1184394 0.00019220962 0)
(1.1183871 0.00017952306 0)
(1.1183383 0.00016768147 0)
(1.1182926 0.00015661676 0)
(1.11825 0.00014629204 0)
(1.1182103 0.00013663654 0)
(1.118173 0.00012763446 0)
(1.1181384 0.00011920491 0)
(1.1181059 0.00011136082 0)
(1.1180757 0.00010399235 0)
(1.1180473 9.7160989e-05 0)
(1.1180211 9.0707027e-05 0)
(1.1179962 8.4782139e-05 0)
(1.1179734 7.9125108e-05 0)
(1.1179516 7.4029342e-05 0)
(1.1179318 6.9019109e-05 0)
(1.1179127 6.4658913e-05 0)
(1.1178955 6.0134405e-05 0)
(1.117879 5.6552226e-05 0)
(1.1178635 5.2420189e-05 0)
(1.11785 4.9751704e-05 0)
(1.1178349 4.582301e-05 0)
(1.1178262 4.4331485e-05 0)
(1.1178083 4.0582275e-05 0)
(1.0007347 0.011814721 0)
(1.0178472 0.030860926 0)
(1.0462163 0.041434441 0)
(1.0799018 0.045193569 0)
(1.1132664 0.04550235 0)
(1.143782 0.044080307 0)
(1.1708941 0.041439983 0)
(1.1945687 0.037973679 0)
(1.2148582 0.034195731 0)
(1.2319652 0.030536888 0)
(1.2462683 0.027222045 0)
(1.2582339 0.02431392 0)
(1.2683135 0.021797887 0)
(1.2768875 0.019633658 0)
(1.2842554 0.017773825 0)
(1.2906479 0.01616965 0)
(1.296243 0.014775589 0)
(1.3011791 0.013552298 0)
(1.3055645 0.012467865 0)
(1.3094838 0.011497468 0)
(1.3130042 0.010622163 0)
(1.3161792 0.0098275141 0)
(1.3190526 0.009102411 0)
(1.3216607 0.0084381759 0)
(1.3240343 0.0078279026 0)
(1.3261995 0.0072659732 0)
(1.3281786 0.0067477076 0)
(1.3299913 0.006269116 0)
(1.3316544 0.0058267274 0)
(1.3331829 0.0054174742 0)
(1.3345896 0.0050386138 0)
(1.3358862 0.0046876754 0)
(1.3370827 0.0043624205 0)
(1.3381882 0.0040608146 0)
(1.3392108 0.0037810033 0)
(1.3401576 0.0035212935 0)
(1.3410349 0.0032801371 0)
(1.3418486 0.0030561167 0)
(1.3426038 0.0028479338 0)
(1.3433051 0.0026543981 0)
(1.3439569 0.002474417 0)
(1.3445629 0.0023069871 0)
(1.3451267 0.0021511865 0)
(1.3456513 0.002006167 0)
(1.3461398 0.0018711478 0)
(1.3465947 0.0017454091 0)
(1.3470185 0.0016282869 0)
(1.3474135 0.0015191682 0)
(1.3477816 0.0014174868 0)
(1.3481249 0.001322719 0)
(1.3484449 0.0012343799 0)
(1.3487435 0.0011520203 0)
(1.349022 0.001075224 0)
(1.3492818 0.0010036055 0)
(1.3495242 0.000936808 0)
(1.3497505 0.00087450057 0)
(1.3499616 0.00081637594 0)
(1.3501587 0.00076214854 0)
(1.3503427 0.00071155268 0)
(1.3505145 0.00066434091 0)
(1.3506748 0.00062028308 0)
(1.3508245 0.00057916515 0)
(1.3509643 0.00054078847 0)
(1.3510948 0.00050496793 0)
(1.3512167 0.00047153155 0)
(1.3513305 0.00044031877 0)
(1.3514368 0.00041118109 0)
(1.3515361 0.0003839796 0)
(1.3516288 0.00035858571 0)
(1.3517153 0.00033487773 0)
(1.3517962 0.00031274361 0)
(1.3518717 0.00029207614 0)
(1.3519422 0.00027277848 0)
(1.3520081 0.00025475627 0)
(1.3520696 0.00023792808 0)
(1.3521271 0.00022221077 0)
(1.3521807 0.0002075379 0)
(1.3522309 0.00019383255 0)
(1.3522777 0.00018104164 0)
(1.3523215 0.00016908816 0)
(1.3523623 0.0001579369 0)
(1.3524005 0.00014750509 0)
(1.352436 0.00013778437 0)
(1.3524695 0.00012867634 0)
(1.3525004 0.00012021229 0)
(1.3525297 0.00011224608 0)
(1.3525565 0.00010488246 0)
(1.3525822 9.7901171e-05 0)
(1.3526054 9.1528569e-05 0)
(1.3526282 8.5377585e-05 0)
(1.3526479 7.9919397e-05 0)
(1.3526683 7.4455242e-05 0)
(1.352685 6.9834396e-05 0)
(1.3527037 6.4815819e-05 0)
(1.352717 6.1083562e-05 0)
(1.3527348 5.6431329e-05 0)
(1.3527446 5.3764701e-05 0)
(1.3527628 4.9162998e-05 0)
(1.3527683 4.77045e-05 0)
(1.3527889 4.2956266e-05 0)
(1.0005903 0.0034629149 0)
(1.0136865 0.0093660185 0)
(1.0370283 0.013046805 0)
(1.0674202 0.01456326 0)
(1.1000315 0.014854525 0)
(1.1316428 0.014564992 0)
(1.1610745 0.01388834 0)
(1.1880674 0.012919247 0)
(1.2125205 0.011806507 0)
(1.2343939 0.010696426 0)
(1.2538077 0.0096727407 0)
(1.2710339 0.0087628205 0)
(1.286401 0.0079659724 0)
(1.3002112 0.007272214 0)
(1.3127102 0.0066688084 0)
(1.3240903 0.0061419255 0)
(1.3345036 0.0056780728 0)
(1.3440716 0.0052653219 0)
(1.3528927 0.0048939361 0)
(1.3610463 0.0045563967 0)
(1.3685975 0.0042470702 0)
(1.3756004 0.0039617756 0)
(1.3821012 0.0036973969 0)
(1.3881402 0.0034515817 0)
(1.3937533 0.0032225178 0)
(1.3989728 0.0030087694 0)
(1.403828 0.0028091578 0)
(1.4083456 0.0026226793 0)
(1.4125503 0.0024484501 0)
(1.4164646 0.0022856713 0)
(1.4201094 0.0021336081 0)
(1.423504 0.0019915765 0)
(1.4266661 0.001858936 0)
(1.4296121 0.0017350851 0)
(1.4323573 0.0016194576 0)
(1.4349159 0.0015115207 0)
(1.4373007 0.0014107727 0)
(1.4395241 0.0013167424 0)
(1.441597 0.0012289871 0)
(1.4435301 0.0011470916 0)
(1.4453328 0.0010706672 0)
(1.4470143 0.00099935006 0)
(1.4485827 0.0009328001 0)
(1.4500459 0.00087069917 0)
(1.451411 0.00081275 0)
(1.4526846 0.00075867465 0)
(1.4538731 0.0007082135 0)
(1.4549822 0.00066112425 0)
(1.4560172 0.00061718081 0)
(1.4569831 0.00057617213 0)
(1.4578847 0.00053790101 0)
(1.4587262 0.00050218341 0)
(1.4595117 0.00046884787 0)
(1.460245 0.0004377348 0)
(1.4609295 0.00040869547 0)
(1.4615685 0.00038159123 0)
(1.4621651 0.00035629274 0)
(1.4627221 0.00033267907 0)
(1.4632422 0.00031063701 0)
(1.4637278 0.00029006079 0)
(1.4641811 0.00027085211 0)
(1.4646045 0.00025291957 0)
(1.4649998 0.0002361781 0)
(1.4653689 0.00022054823 0)
(1.4657136 0.00020595588 0)
(1.4660355 0.00019233199 0)
(1.4663361 0.00017961239 0)
(1.4666168 0.00016773663 0)
(1.466879 0.00015664871 0)
(1.4671238 0.00014629583 0)
(1.4673524 0.00013662914 0)
(1.467566 0.00012760164 0)
(1.4677654 0.0001191715 0)
(1.4679516 0.00011129796 0)
(1.4681256 0.0001039462 0)
(1.468288 9.7080024e-05 0)
(1.4684397 9.0670862e-05 0)
(1.4685815 8.4684096e-05 0)
(1.4687138 7.9097017e-05 0)
(1.4688375 7.3874527e-05 0)
(1.4689529 6.9002784e-05 0)
(1.4690608 6.4443475e-05 0)
(1.4691614 6.0196837e-05 0)
(1.4692557 5.6215896e-05 0)
(1.4693433 5.251966e-05 0)
(1.4694257 4.9034797e-05 0)
(1.4695019 4.582254e-05 0)
(1.4695742 4.277096e-05 0)
(1.4696402 3.9995085e-05 0)
(1.4697037 3.7293819e-05 0)
(1.4697606 3.4921309e-05 0)
(1.4698173 3.2521001e-05 0)
(1.4698654 3.0520136e-05 0)
(1.4699166 2.829072e-05 0)
(1.4699559 2.6690533e-05 0)
(1.4700045 2.4631675e-05 0)
(1.4700341 2.3511719e-05 0)
(1.4700832 2.1437465e-05 0)
(1.4701 2.08072e-05 0)
(1.4701556 1.8644829e-05 0)
(1.0005903 -0.0034629168 0)
(1.0136865 -0.009366021 0)
(1.0370283 -0.013046807 0)
(1.0674202 -0.014563261 0)
(1.1000315 -0.014854523 0)
(1.1316428 -0.014564989 0)
(1.1610745 -0.013888336 0)
(1.1880674 -0.012919245 0)
(1.2125205 -0.011806506 0)
(1.2343939 -0.010696428 0)
(1.2538077 -0.0096727434 0)
(1.2710339 -0.0087628235 0)
(1.286401 -0.0079659748 0)
(1.3002112 -0.0072722151 0)
(1.3127102 -0.0066688082 0)
(1.3240903 -0.0061419241 0)
(1.3345036 -0.0056780704 0)
(1.3440716 -0.0052653193 0)
(1.3528927 -0.0048939342 0)
(1.3610463 -0.0045563959 0)
(1.3685975 -0.0042470707 0)
(1.3756004 -0.0039617773 0)
(1.3821012 -0.003697399 0)
(1.3881402 -0.0034515835 0)
(1.3937533 -0.0032225189 0)
(1.3989728 -0.0030087695 0)
(1.403828 -0.0028091571 0)
(1.4083456 -0.0026226778 0)
(1.4125503 -0.0024484483 0)
(1.4164646 -0.0022856698 0)
(1.4201094 -0.0021336074 0)
(1.423504 -0.001991577 0)
(1.4266661 -0.0018589377 0)
(1.4296121 -0.0017350873 0)
(1.4323573 -0.0016194596 0)
(1.4349159 -0.0015115217 0)
(1.4373007 -0.0014107725 0)
(1.4395241 -0.001316741 0)
(1.441597 -0.001228985 0)
(1.4435301 -0.0011470896 0)
(1.4453328 -0.0010706662 0)
(1.4470143 -0.00099935044 0)
(1.4485827 -0.00093280155 0)
(1.4500459 -0.00087070116 0)
(1.451411 -0.00081275183 0)
(1.4526846 -0.00075867587 0)
(1.4538731 -0.0007082139 0)
(1.4549822 -0.0006611237 0)
(1.4560172 -0.0006171793 0)
(1.4569831 -0.00057617 0)
(1.4578847 -0.00053789903 0)
(1.4587262 -0.00050218248 0)
(1.4595117 -0.0004688485 0)
(1.460245 -0.00043773675 0)
(1.4609295 -0.00040869809 0)
(1.4615685 -0.00038159365 0)
(1.4621651 -0.0003562939 0)
(1.4627221 -0.00033267826 0)
(1.4632422 -0.00031063449 0)
(1.4637278 -0.00029005777 0)
(1.4641811 -0.00027084978 0)
(1.4646045 -0.00025291849 0)
(1.4649998 -0.00023617846 0)
(1.4653689 -0.00022054995 0)
(1.4657136 -0.00020595863 0)
(1.4660355 -0.00019233472 0)
(1.4663361 -0.00017961388 0)
(1.4666168 -0.00016773629 0)
(1.466879 -0.00015664669 0)
(1.4671238 -0.00014629245 0)
(1.4673524 -0.00013662527 0)
(1.467566 -0.00012759887 0)
(1.4677654 -0.00011917117 0)
(1.4679516 -0.00011130017 0)
(1.4681256 -0.00010395003 0)
(1.468288 -9.7083773e-05 0)
(1.4684397 -9.0672837e-05 0)
(1.4685815 -8.4683623e-05 0)
(1.4687138 -7.9094411e-05 0)
(1.4688375 -7.3870939e-05 0)
(1.4689529 -6.8999877e-05 0)
(1.4690608 -6.4442252e-05 0)
(1.4691614 -6.0196881e-05 0)
(1.4692557 -5.6216476e-05 0)
(1.4693433 -5.2521811e-05 0)
(1.4694257 -4.9038609e-05 0)
(1.4695019 -4.5823373e-05 0)
(1.4695742 -4.2766362e-05 0)
(1.4696401 -3.9990596e-05 0)
(1.4697037 -3.729057e-05 0)
(1.4697606 -3.4912853e-05 0)
(1.4698174 -3.2513197e-05 0)
(1.4698654 -3.0531951e-05 0)
(1.4699166 -2.8316822e-05 0)
(1.4699559 -2.6699466e-05 0)
(1.4700045 -2.4612364e-05 0)
(1.4700341 -2.3488599e-05 0)
(1.4700832 -2.1435495e-05 0)
(1.4701 -2.0826393e-05 0)
(1.4701556 -1.8662866e-05 0)
(1.0007347 -0.011814722 0)
(1.0178472 -0.030860928 0)
(1.0462163 -0.041434442 0)
(1.0799018 -0.045193569 0)
(1.1132664 -0.04550235 0)
(1.143782 -0.044080307 0)
(1.1708941 -0.041439981 0)
(1.1945687 -0.037973678 0)
(1.2148582 -0.034195729 0)
(1.2319652 -0.030536888 0)
(1.2462683 -0.027222046 0)
(1.2582339 -0.024313921 0)
(1.2683135 -0.021797889 0)
(1.2768875 -0.01963366 0)
(1.2842554 -0.017773825 0)
(1.2906479 -0.01616965 0)
(1.296243 -0.014775588 0)
(1.3011791 -0.013552296 0)
(1.3055645 -0.012467863 0)
(1.3094838 -0.011497467 0)
(1.3130042 -0.010622163 0)
(1.3161792 -0.0098275144 0)
(1.3190526 -0.0091024118 0)
(1.3216607 -0.0084381769 0)
(1.3240343 -0.0078279036 0)
(1.3261995 -0.0072659737 0)
(1.3281786 -0.0067477076 0)
(1.3299913 -0.0062691156 0)
(1.3316544 -0.0058267266 0)
(1.3331829 -0.0054174733 0)
(1.3345896 -0.0050386133 0)
(1.3358862 -0.0046876753 0)
(1.3370827 -0.0043624209 0)
(1.3381882 -0.0040608154 0)
(1.3392108 -0.0037810042 0)
(1.3401576 -0.0035212942 0)
(1.3410349 -0.0032801373 0)
(1.3418486 -0.0030561164 0)
(1.3426038 -0.0028479333 0)
(1.3433051 -0.0026543975 0)
(1.3439569 -0.0024744165 0)
(1.3445629 -0.0023069869 0)
(1.3451267 -0.0021511867 0)
(1.3456513 -0.0020061676 0)
(1.3461398 -0.0018711486 0)
(1.3465947 -0.0017454099 0)
(1.3470185 -0.0016282874 0)
(1.3474135 -0.0015191682 0)
(1.3477816 -0.0014174862 0)
(1.3481249 -0.0013227182 0)
(1.3484449 -0.0012343791 0)
(1.3487435 -0.0011520198 0)
(1.349022 -0.001075224 0)
(1.3492818 -0.001003606 0)
(1.3495242 -0.00093680889 0)
(1.3497505 -0.00087450143 0)
(1.3499616 -0.00081637645 0)
(1.3501587 -0.00076214847 0)
(1.3503427 -0.00071155208 0)
(1.3505145 -0.00066433997 0)
(1.3506748 -0.00062028207 0)
(1.3508245 -0.0005791644 0)
(1.3509643 -0.00054078825 0)
(1.3510948 -0.00050496838 0)
(1.3512167 -0.00047153242 0)
(1.3513305 -0.00044031972 0)
(1.3514368 -0.00041118172 0)
(1.3515361 -0.00038397962 0)
(1.3516288 -0.00035858493 0)
(1.3517153 -0.0003348764 0)
(1.3517962 -0.00031274217 0)
(1.3518717 -0.00029207511 0)
(1.3519422 -0.00027277818 0)
(1.3520081 -0.00025475672 0)
(1.3520696 -0.00023792897 0)
(1.3521271 -0.00022221179 0)
(1.3521807 -0.0002075387 0)
(1.3522309 -0.00019383279 0)
(1.3522777 -0.00018104121 0)
(1.3523215 -0.00016908731 0)
(1.3523623 -0.00015793586 0)
(1.3524005 -0.00014750412 0)
(1.352436 -0.00013778373 0)
(1.3524695 -0.00012867635 0)
(1.3525004 -0.00012021285 0)
(1.3525297 -0.00011224638 0)
(1.3525565 -0.00010488161 0)
(1.3525822 -9.7898845e-05 0)
(1.3526053 -9.1525824e-05 0)
(1.3526281 -8.5376521e-05 0)
(1.352648 -7.9920352e-05 0)
(1.3526684 -7.4457138e-05 0)
(1.3526849 -6.9836443e-05 0)
(1.3527036 -6.4816554e-05 0)
(1.352717 -6.108275e-05 0)
(1.3527349 -5.6429598e-05 0)
(1.3527447 -5.3764294e-05 0)
(1.3527628 -4.9164386e-05 0)
(1.3527683 -4.7708009e-05 0)
(1.3527888 -4.2959388e-05 0)
(1.0014244 -0.026824855 0)
(1.0291272 -0.062791353 0)
(1.0654292 -0.077736553 0)
(1.098962 -0.0805972 0)
(1.1253149 -0.078285171 0)
(1.145053 -0.073153899 0)
(1.1594858 -0.066111277 0)
(1.1694287 -0.058162063 0)
(1.1755354 -0.050296754 0)
(1.1785738 -0.043150709 0)
(1.1793571 -0.036972826 0)
(1.1785949 -0.031771633 0)
(1.1768304 -0.027451839 0)
(1.1744518 -0.023886767 0)
(1.1717287 -0.020947618 0)
(1.1688444 -0.018515779 0)
(1.1659195 -0.016488084 0)
(1.1630317 -0.014779503 0)
(1.1602295 -0.013322986 0)
(1.1575415 -0.012067134 0)
(1.1549828 -0.010973001 0)
(1.1525601 -0.010011062 0)
(1.1502747 -0.0091587464 0)
(1.1481246 -0.0083986036 0)
(1.1461059 -0.0077169499 0)
(1.1442134 -0.0071028875 0)
(1.1424414 -0.0065475912 0)
(1.1407838 -0.006043795 0)
(1.1392344 -0.0055854263 0)
(1.1377869 -0.0051673454 0)
(1.1364353 -0.0047851582 0)
(1.1351738 -0.0044350772 0)
(1.1339968 -0.0041138171 0)
(1.1328987 -0.0038185125 0)
(1.1318746 -0.0035466521 0)
(1.1309195 -0.0032960262 0)
(1.1300289 -0.0030646826 0)
(1.1291985 -0.0028508907 0)
(1.1284242 -0.0026531109 0)
(1.1277022 -0.0024699694 0)
(1.1270291 -0.0023002362 0)
(1.1264014 -0.0021428071 0)
(1.1258161 -0.0019966878 0)
(1.1252702 -0.0018609802 0)
(1.1247612 -0.0017348708 0)
(1.1242865 -0.0016176208 0)
(1.1238437 -0.0015085577 0)
(1.1234307 -0.0014070683 0)
(1.1230455 -0.001312592 0)
(1.1226861 -0.0012246149 0)
(1.1223509 -0.0011426649 0)
(1.1220381 -0.0010663079 0)
(1.1217462 -0.00099514444 0)
(1.1214739 -0.00092880676 0)
(1.1212198 -0.00086695577 0)
(1.1209827 -0.00080927837 0)
(1.1207614 -0.00075548504 0)
(1.1205548 -0.00070530727 0)
(1.1203621 -0.00065849577 0)
(1.1201821 -0.00061481909 0)
(1.1200142 -0.00057406287 0)
(1.1198574 -0.00053602808 0)
(1.1197111 -0.00050052982 0)
(1.1195745 -0.000467396 0)
(1.1194469 -0.00043646698 0)
(1.1193278 -0.00040759427 0)
(1.1192167 -0.00038064027 0)
(1.1191129 -0.00035547642 0)
(1.119016 -0.00033198367 0)
(1.1189255 -0.00031004971 0)
(1.118841 -0.00028957061 0)
(1.1187621 -0.00027044709 0)
(1.1186884 -0.00025258934 0)
(1.1186197 -0.00023591085 0)
(1.1185554 -0.00022033636 0)
(1.1184954 -0.00020579007 0)
(1.1184394 -0.00019220956 0)
(1.1183871 -0.00017952464 0)
(1.1183383 -0.00016768389 0)
(1.1182927 -0.00015661869 0)
(1.11825 -0.00014629254 0)
(1.1182103 -0.0001366357 0)
(1.118173 -0.00012763306 0)
(1.1181384 -0.00011920377 0)
(1.1181059 -0.00011135959 0)
(1.1180757 -0.00010398991 0)
(1.1180473 -9.7157446e-05 0)
(1.1180211 -9.0704283e-05 0)
(1.1179962 -8.4783922e-05 0)
(1.1179735 -7.9134775e-05 0)
(1.1179517 -7.4042277e-05 0)
(1.1179318 -6.901925e-05 0)
(1.1179127 -6.4638473e-05 0)
(1.1178955 -6.0113501e-05 0)
(1.117879 -5.6556221e-05 0)
(1.1178636 -5.2443225e-05 0)
(1.11785 -4.976739e-05 0)
(1.1178349 -4.5819093e-05 0)
(1.1178261 -4.4317952e-05 0)
(1.1178083 -4.057358e-05 0)
(1.0016583 -0.053819431 0)
(1.0359761 -0.10128444 0)
(1.0597199 -0.11073663 0)
(1.0628947 -0.10592202 0)
(1.0515569 -0.096228728 0)
(1.0340529 -0.08393406 0)
(1.0142795 -0.070327061 0)
(0.99360703 -0.056981333 0)
(0.97292577 -0.04510748 0)
(0.9531074 -0.035236752 0)
(0.93479538 -0.027401651 0)
(0.91829012 -0.021387227 0)
(0.90362379 -0.016884498 0)
(0.89068067 -0.013569707 0)
(0.87928174 -0.011147747 0)
(0.86923242 -0.0093736586 0)
(0.86034423 -0.0080569288 0)
(0.85244667 -0.0070571286 0)
(0.84539241 -0.0062752395 0)
(0.83905793 -0.0056438291 0)
(0.83334126 -0.0051180908 0)
(0.82815884 -0.0046686715 0)
(0.82344212 -0.0042764163 0)
(0.81913467 -0.0039287378 0)
(0.81518962 -0.0036172028 0)
(0.81156765 -0.0033359701 0)
(0.80823544 -0.0030808041 0)
(0.8051644 -0.0028484694 0)
(0.80232979 -0.00263637 0)
(0.79970999 -0.0024423392 0)
(0.79728597 -0.0022645191 0)
(0.79504086 -0.0021012896 0)
(0.79295963 -0.0019512244 0)
(0.7910288 -0.0018130619 0)
(0.78923627 -0.0016856825 0)
(0.7875711 -0.0015680921 0)
(0.78602338 -0.0014594062 0)
(0.78458412 -0.001358837 0)
(0.78324511 -0.0012656818 0)
(0.78199889 -0.0011793128 0)
(0.7808386 -0.0010991675 0)
(0.77975799 -0.0010247407 0)
(0.77875128 -0.00095557761 0)
(0.77781318 -0.00089126684 0)
(0.77693881 -0.00083143577 0)
(0.77612368 -0.00077574586 0)
(0.77536362 -0.00072388882 0)
(0.77465481 -0.00067558309 0)
(0.77399368 -0.00063057067 0)
(0.77337693 -0.0005886146 0)
(0.77280153 -0.00054949692 0)
(0.77226464 -0.00051301699 0)
(0.77176363 -0.00047898998 0)
(0.77129606 -0.00044724547 0)
(0.77085967 -0.00041762614 0)
(0.77045234 -0.00038998637 0)
(0.77007212 -0.00036419099 0)
(0.76971717 -0.00034011417 0)
(0.76938581 -0.00031763898 0)
(0.76907644 -0.00029665695 0)
(0.7687876 -0.00027706741 0)
(0.76851791 -0.00025877657 0)
(0.76826609 -0.00024169719 0)
(0.76803096 -0.00022574813 0)
(0.76781139 -0.00021085417 0)
(0.76760635 -0.00019694514 0)
(0.76741488 -0.00018395591 0)
(0.76723608 -0.00017182549 0)
(0.7670691 -0.00016049723 0)
(0.76691315 -0.00014991732 0)
(0.76676751 -0.00014003583 0)
(0.76663149 -0.00013080521 0)
(0.76650446 -0.00012218286 0)
(0.76638582 -0.00011412792 0)
(0.76627501 -0.00010660487 0)
(0.76617152 -9.9577694e-05 0)
(0.76607486 -9.3016282e-05 0)
(0.76598458 -8.6886521e-05 0)
(0.76590026 -8.1163196e-05 0)
(0.7658215 -7.5813524e-05 0)
(0.76574793 -7.0820101e-05 0)
(0.76567924 -6.6150388e-05 0)
(0.76561504 -6.1796053e-05 0)
(0.76555512 -5.7718867e-05 0)
(0.7654991 -5.3921156e-05 0)
(0.76544684 -5.0354044e-05 0)
(0.76539796 -4.7043969e-05 0)
(0.76535239 -4.393024e-05 0)
(0.76530972 -4.1069672e-05 0)
(0.76526997 -3.8349025e-05 0)
(0.7652327 -3.585559e-05 0)
(0.76519802 -3.3432558e-05 0)
(0.76516557 -3.1282508e-05 0)
(0.7651352 -2.9174187e-05 0)
(0.76510715 -2.7386941e-05 0)
(0.76507998 -2.5541473e-05 0)
(0.76505663 -2.4080379e-05 0)
(0.76503056 -2.2557261e-05 0)
(0.76501445 -2.1597083e-05 0)
(0.76498345 -2.0992872e-05 0)
(0.91890839 -0.035821913 0)
(0.86271384 -0.062195639 0)
(0.7870597 -0.062510091 0)
(0.69536033 -0.054550395 0)
(0.61089745 -0.044531651 0)
(0.54411592 -0.03401597 0)
(0.49343012 -0.024187539 0)
(0.45479414 -0.01614423 0)
(0.42544582 -0.010265787 0)
(0.40347313 -0.0063041464 0)
(0.38715766 -0.00379763 0)
(0.37496219 -0.0023103378 0)
(0.36566192 -0.001493014 0)
(0.35836272 -0.0010851173 0)
(0.35244268 -0.00090607186 0)
(0.34748201 -0.00084105186 0)
(0.34320348 -0.00082372466 0)
(0.33942726 -0.000819311 0)
(0.33603793 -0.0008118524 0)
(0.33296114 -0.00079580136 0)
(0.33014778 -0.00077081138 0)
(0.32756384 -0.00073870928 0)
(0.3251842 -0.00070188906 0)
(0.32298902 -0.00066256541 0)
(0.32096172 -0.00062249937 0)
(0.31908785 -0.00058295739 0)
(0.31735449 -0.00054477174 0)
(0.31574995 -0.00050843454 0)
(0.3142636 -0.00047419208 0)
(0.31288574 -0.00044212499 0)
(0.31160755 -0.00041220958 0)
(0.31042101 -0.00038436141 0)
(0.30931883 -0.00035846447 0)
(0.30829438 -0.00033438968 0)
(0.30734165 -0.00031200615 0)
(0.30645515 -0.00029118738 0)
(0.30562991 -0.00027181446 0)
(0.30486136 -0.00025377733 0)
(0.30414535 -0.00023697503 0)
(0.30347806 -0.00022131543 0)
(0.302856 -0.0002067145 0)
(0.30227596 -0.00019309551 0)
(0.30173496 -0.00018038822 0)
(0.30123029 -0.00016852821 0)
(0.30075942 -0.00015745632 0)
(0.30032002 -0.00014711819 0)
(0.29990993 -0.00013746364 0)
(0.29952715 -0.00012844622 0)
(0.29916983 -0.00012002278 0)
(0.29883624 -0.00011215327 0)
(0.29852478 -0.00010480051 0)
(0.29823396 -9.7930037e-05 0)
(0.29796241 -9.150987e-05 0)
(0.29770882 -8.5510384e-05 0)
(0.29747201 -7.9904055e-05 0)
(0.29725084 -7.4665133e-05 0)
(0.29704429 -6.9769435e-05 0)
(0.29685138 -6.5194308e-05 0)
(0.2966712 -6.091866e-05 0)
(0.29650291 -5.6922848e-05 0)
(0.29634572 -5.3188493e-05 0)
(0.29619889 -4.9698381e-05 0)
(0.29606175 -4.6436518e-05 0)
(0.29593366 -4.3388053e-05 0)
(0.295814 -4.0539208e-05 0)
(0.29570224 -3.7877053e-05 0)
(0.29559784 -3.5389576e-05 0)
(0.29550032 -3.3065435e-05 0)
(0.29540922 -3.0893951e-05 0)
(0.29532413 -2.8864797e-05 0)
(0.29524464 -2.6968424e-05 0)
(0.29517039 -2.5195825e-05 0)
(0.29510103 -2.3539161e-05 0)
(0.29503624 -2.1990904e-05 0)
(0.29497572 -2.054465e-05 0)
(0.29491919 -1.9193534e-05 0)
(0.29486638 -1.7931855e-05 0)
(0.29481705 -1.6752712e-05 0)
(0.29477097 -1.5651388e-05 0)
(0.29472793 -1.4621458e-05 0)
(0.29468771 -1.3660227e-05 0)
(0.29465015 -1.2760981e-05 0)
(0.29461506 -1.1922481e-05 0)
(0.29458229 -1.1136132e-05 0)
(0.29455167 -1.040299e-05 0)
(0.29452309 -9.7132802e-06 0)
(0.29449637 -9.076769e-06 0)
(0.29447142 -8.4814907e-06 0)
(0.29444809 -7.9348541e-06 0)
(0.29442632 -7.4059942e-06 0)
(0.29440597 -6.9170554e-06 0)
(0.29438699 -6.4495531e-06 0)
(0.29436923 -6.0425622e-06 0)
(0.29435262 -5.651477e-06 0)
(0.29433715 -5.3038236e-06 0)
(0.29432249 -4.9797709e-06 0)
(0.29430919 -4.6893039e-06 0)
(0.29429569 -4.5374342e-06 0)
(0.29428501 -4.4059102e-06 0)
(0.29426873 -5.0575426e-06 0)
)
;

boundaryField
{
    top
    {
        type            fixedValue;
        value           uniform (0 0 0);
    }
    inlet
    {
        type            fixedValue;
        value           uniform (1 0 0);
    }
    outlet
    {
        type            zeroGradient;
    }
    bottom
    {
        type            fixedValue;
        value           uniform (0 0 0);
    }
    back
    {
        type            empty;
    }
    front
    {
        type            empty;
    }
}


// ************************************************************************* //
