/*--------------------------------*- C++ -*----------------------------------*\
  =========                 |
  \\      /  F ield         | OpenFOAM: The Open Source CFD Toolbox
   \\    /   O peration     | Website:  https://openfoam.org
    \\  /    A nd           | Version:  9
     \\/     M anipulation  |
\*---------------------------------------------------------------------------*/
FoamFile
{
    format      ascii;
    class       volVectorField;
    location    "2.5";
    object      gradT;
}
// * * * * * * * * * * * * * * * * * * * * * * * * * * * * * * * * * * * * * //

dimensions      [0 -1 0 1 0 0 0];

internalField   nonuniform List<vector> 10((2.1987024e-07 0 0) (7.3622985e-07 0 0) (2.2277869e-05 0 0) (7.2719505e-05 0 0) (0.00037975137 0 0) (0.0030605854 0 0) (0.018314679 0 0) (0.058499966 0 0) (1.2339493 0 0) (-0 0 0));

boundaryField
{
    inlet
    {
        type            extrapolatedCalculated;
        value           uniform (2.1987024e-07 0 0);
    }
    outlet
    {
        type            extrapolatedCalculated;
        value           uniform (-25.016148 0 0);
    }
    bottom
    {
        type            extrapolatedCalculated;
        value           nonuniform List<vector> 10((2.1987024e-07 0 0) (7.3622985e-07 0 0) (2.2277869e-05 0 0) (7.2719505e-05 0 0) (0.00037975137 0 0) (0.0030605854 0 0) (0.018314679 0 0) (0.058499966 0 0) (1.2339493 0 0) (0 0 0));
    }
    top
    {
        type            extrapolatedCalculated;
        value           nonuniform List<vector> 10((2.1987024e-07 0 0) (7.3622985e-07 0 0) (2.2277869e-05 0 0) (7.2719505e-05 0 0) (0.00037975137 0 0) (0.0030605854 0 0) (0.018314679 0 0) (0.058499966 0 0) (1.2339493 0 0) (0 0 0));
    }
    frontAndBack
    {
        type            empty;
    }
}


// ************************************************************************* //
