/*--------------------------------*- C++ -*----------------------------------*\
  =========                 |
  \\      /  F ield         | OpenFOAM: The Open Source CFD Toolbox
   \\    /   O peration     | Website:  https://openfoam.org
    \\  /    A nd           | Version:  9
     \\/     M anipulation  |
\*---------------------------------------------------------------------------*/
FoamFile
{
    format      ascii;
    class       volScalarField;
    location    "50";
    object      p;
}
// * * * * * * * * * * * * * * * * * * * * * * * * * * * * * * * * * * * * * //

dimensions      [0 2 -2 0 0 0 0];

internalField   nonuniform List<scalar> 
400
(
2.8012526e-10
-0.00067287574
-0.0013853537
-0.0019427117
-0.0022200046
-0.0021565014
-0.0017277974
-0.00092620711
0.00023541345
0.0017073977
0.0033872759
0.0051121823
0.0066734636
0.0078490915
0.0084583843
0.0084236845
0.0078134012
0.0068445222
0.0058613012
0.005298943
0.00065783902
-4.0528176e-05
-0.00056966227
-0.00094062837
-0.0011108658
-0.001039923
-0.00070579241
-9.5548346e-05
0.00078909433
0.0019161808
0.0032095791
0.0045546949
0.0057819506
0.0067162462
0.0072144193
0.0072145282
0.0067699536
0.006052765
0.0053105241
0.0047384834
0.0014236963
0.00044064713
-0.00011660272
-0.0004532465
-0.00061481223
-0.00058481446
-0.00034658273
0.00011973978
0.00082845388
0.0017698998
0.0028942859
0.0040981596
0.0052282309
0.0061109597
0.0065938549
0.006597652
0.0061557248
0.0054214972
0.0045937361
0.003748228
0.0020141908
0.00068168103
1.6765446e-05
-0.00035885699
-0.00057155413
-0.00062656555
-0.0005100883
-0.00019063574
0.00036849594
0.0011843779
0.0022299057
0.0034174222
0.0045913594
0.005556929
0.0061235387
0.0061665454
0.0056836056
0.004817037
0.0037472828
0.0024735913
0.0021672615
0.00049610998
-0.00029626591
-0.00074871078
-0.0010582586
-0.001245278
-0.0012927583
-0.0011513118
-0.00075505998
-5.3112129e-05
0.00095701143
0.0022102726
0.0035447034
0.0047326585
0.0055218357
0.0057098721
0.0052292722
0.0042015912
0.0028061737
0.00098395201
0.0016539528
-0.00031448826
-0.0012387968
-0.001799309
-0.0022526683
-0.0026279164
-0.0028986321
-0.0029910971
-0.0028025526
-0.0022376932
-0.0012511137
0.00013087507
0.0017446361
0.003327107
0.0045416406
0.0050657686
0.0047174792
0.003566182
0.0017895796
-0.00072593432
0.00028701493
-0.0019195796
-0.0029730085
-0.0036713928
-0.0043203047
-0.0049532058
-0.005530127
-0.0059479668
-0.0060590222
-0.0057073996
-0.0047757343
-0.0032587176
-0.0012665298
0.00090716443
0.0028231183
0.0039868249
0.0040250775
0.0028876894
0.00071536233
-0.0026805155
-0.0020764408
-0.0044512016
-0.0056268134
-0.0064923341
-0.0073929324
-0.00836577
-0.0093569223
-0.010231787
-0.010790986
-0.010804862
-0.010063381
-0.0084617845
-0.0060407934
-0.0030832407
-0.00012632492
0.0021126068
0.002963809
0.0021355623
-0.00036605241
-0.0048726277
-0.0055241797
-0.0079921261
-0.0092779304
-0.0103338
-0.011538014
-0.012935432
-0.014462713
-0.015956318
-0.017162472
-0.017766055
-0.017438107
-0.015919499
-0.013122984
-0.009251784
-0.0048990305
-0.0010300365
0.0012693898
0.001277744
-0.0013339769
-0.0072016959
-0.010076924
-0.012565111
-0.013936678
-0.015184014
-0.016718396
-0.018602649
-0.020774223
-0.023048772
-0.02512169
-0.026586368
-0.026969378
-0.025812972
-0.022845704
-0.018074472
-0.012051114
-0.0059519759
-0.0013707616
0.00030057282
-0.0019472226
-0.0093822441
-0.015684997
-0.018132427
-0.019537574
-0.020926823
-0.022757753
-0.025129902
-0.027997048
-0.031166436
-0.034291483
-0.03687686
-0.038294198
-0.037844314
-0.035065889
-0.029601496
-0.02182252
-0.012985599
-0.0051849985
-0.00071577255
-0.0017642198
-0.010792275
-0.022243613
-0.024613047
-0.025945607
-0.02733498
-0.02932418
-0.032079242
-0.03558898
-0.039664706
-0.043927313
-0.047801322
-0.050530208
-0.051236511
-0.048956914
-0.043143579
-0.033769043
-0.021926367
-0.010036906
-0.0014154657
-9.887413e-06
-0.010225639
-0.029641243
-0.031923905
-0.032978747
-0.034079891
-0.035939546
-0.038831528
-0.042795631
-0.047651633
-0.052990592
-0.058163629
-0.062284276
-0.064265559
-0.06287519
-0.057112218
-0.046476771
-0.031649113
-0.015037884
-0.00086441043
0.0046467441
-0.0055215562
-0.037866048
-0.040048541
-0.040440132
-0.040752515
-0.04201509
-0.044653099
-0.048758205
-0.054144081
-0.060356075
-0.066665394
-0.072060728
-0.075268315
-0.074811392
-0.069269295
-0.057628334
-0.039961533
-0.018247993
0.002789019
0.01444514
0.0069075308
-0.04723063
-0.049134414
-0.048140603
-0.046882271
-0.046905513
-0.048798739
-0.052668327
-0.058276036
-0.065076124
-0.072232027
-0.078595804
-0.082712356
-0.08288024
-0.077309419
-0.064523964
-0.043934978
-0.016748008
0.01250293
0.032938769
0.032408939
-0.058896808
-0.059639935
-0.055883995
-0.051941049
-0.049972291
-0.050629893
-0.053928694
-0.059495386
-0.066611892
-0.074285324
-0.081191198
-0.085679437
-0.085831829
-0.079522223
-0.064876125
-0.040689289
-0.0072409387
0.032139356
0.064981437
0.077749169
-0.076226515
-0.072613724
-0.063516289
-0.055435451
-0.050725018
-0.049781585
-0.052312356
-0.057664401
-0.064891858
-0.072775005
-0.079779398
-0.084036779
-0.083391686
-0.075348991
-0.057602699
-0.028375162
0.012933311
0.065396463
0.1155515
0.15150621
-0.10809227
-0.089556268
-0.07123388
-0.057233112
-0.049072202
-0.046330246
-0.048077285
-0.053202633
-0.060434656
-0.068295899
-0.075027427
-0.078526947
-0.076389039
-0.065809705
-0.043865506
-0.0078184697
0.044393653
0.11299814
0.18838041
0.27186076
-0.17684566
-0.10828965
-0.076202415
-0.054651246
-0.04299242
-0.03899807
-0.040570543
-0.045928073
-0.053441569
-0.061438392
-0.068027619
-0.070962592
-0.067551165
-0.054739865
-0.029148841
0.013563579
0.07814694
0.17006434
0.28949545
0.47421821
-0.37208377
-0.12470863
-0.054973105
-0.031962525
-0.022063574
-0.02030055
-0.024359489
-0.031958032
-0.041261593
-0.05064092
-0.058316935
-0.062187498
-0.059782587
-0.048056842
-0.022658556
0.021474184
0.092818703
0.21015275
0.40288841
0.77640927
)
;

boundaryField
{
    movingWall
    {
        type            zeroGradient;
    }
    fixedWalls
    {
        type            zeroGradient;
    }
    frontAndBack
    {
        type            empty;
    }
}


// ************************************************************************* //
