/*--------------------------------*- C++ -*----------------------------------*\
  =========                 |
  \\      /  F ield         | OpenFOAM: The Open Source CFD Toolbox
   \\    /   O peration     | Website:  https://openfoam.org
    \\  /    A nd           | Version:  9
     \\/     M anipulation  |
\*---------------------------------------------------------------------------*/
FoamFile
{
    format      ascii;
    class       volScalarField;
    location    "27";
    object      p;
}
// * * * * * * * * * * * * * * * * * * * * * * * * * * * * * * * * * * * * * //

dimensions      [0 2 -2 0 0 0 0];

internalField   nonuniform List<scalar> 
918
(
0.52171069
1.7596005
0.013946559
0.48596558
-0.011050818
1.730261
-0.99009466
1.3054351
0.54340405
-0.19401989
-0.07171905
0.76375839
1.6016545
1.3612439
-0.74138503
0.0098586057
1.1876387
-0.79186152
0.54044488
-0.073637667
1.398673
0.49201032
0.51904136
0.49315507
0.93956952
1.3386242
1.4645903
-0.023961148
-0.0037898767
-0.026736045
-0.0097643433
-0.041348701
-0.025181797
1.6065373
1.660558
1.6842471
0.53319287
0.51871867
-0.74271881
-0.86440508
-0.80982688
-1.0684593
1.2873582
1.2873662
-0.32632338
1.3090707
1.3264109
0.50693037
0.53832346
0.54889865
0.48763484
0.51798501
0.53413134
0.45232078
-0.21088769
-0.27147913
-0.15303083
-0.1295087
0.049330295
-0.065842182
-0.068210621
-0.06586648
-0.061916273
0.58558263
0.72992395
0.709231
0.78075013
0.81712494
1.6966967
1.6601389
1.6871179
1.633942
1.6242471
1.5815008
1.5446522
1.3999836
1.4073546
1.3587302
1.3225059
-1.2751454
-2.3224929
-0.15947209
0.14966966
-0.022566021
0.022783449
0.012756477
1.1627757
1.1512772
1.1991433
1.2200521
1.268612
-0.73040711
-1.0015682
0.54325881
0.53685606
0.52821057
0.50997178
0.55628656
0.60153927
-0.078597938
-0.063034312
-0.078145863
-0.076396642
-0.065049821
1.3789612
1.3706854
0.50764433
0.51220303
0.83452218
0.89424743
0.8738687
0.42953287
0.9599618
0.99462819
1.1351643
1.3307797
1.3416761
1.3229575
1.450798
1.406157
1.5112638
1.53685
-0.006808617
-0.015874524
0.028249729
0.0094766334
0.004692844
0.54472948
0.55449901
0.55895178
0.52798595
0.53030372
0.46282901
0.32263392
0.60667244
0.6236331
-0.57265056
-0.65667388
-0.85232187
-0.87472143
-1.0853427
0.88506636
1.2688944
1.2670873
-0.39393287
-0.24151225
-0.47358064
-0.15128671
-0.21011434
0.52118845
0.51943064
0.5184953
0.50762342
0.50979467
0.51027016
0.5235417
0.52399771
0.53905098
0.52341322
0.66387597
0.40109281
0.34505348
-0.49339907
-0.29975608
-0.4731498
-0.11149153
-0.099229823
0.070196801
0.11703509
0.050191962
0.049369994
-0.085038349
-0.069374376
-0.078636873
-0.068030361
-0.060117847
0.57499444
0.57543134
0.57766596
0.58394256
0.629718
0.63943359
0.68263909
0.66470415
1.4706185
1.4942882
1.538979
1.5019156
-3.7188079
-6.4063399
0.48022897
0.66323985
-0.048331204
-0.039281251
-0.015719886
-0.0033982292
-0.018388788
-0.010889782
0.02027413
0.016124125
0.018841076
0.019248891
1.1187251
1.1032333
1.2159393
1.2531431
1.1333583
1.1234082
0.54806404
0.54514014
0.55157779
0.54347773
-0.068014188
-0.069208484
-0.059224876
1.3310497
1.3563453
1.3487324
0.34537336
0.24816541
0.46795038
0.50770957
1.0708646
1.0224004
1.0541444
1.2104226
1.2448297
1.5263496
1.5383745
1.5762344
1.5730061
1.6213013
1.6136252
1.5720963
0.57194608
0.55812053
0.57520412
0.54589354
0.55346328
0.55015829
0.60424695
0.58036572
0.59321735
0.15690255
-0.18052862
0.69898235
0.69058919
0.66894757
0.66312411
0.96067126
1.0513257
1.2262912
1.248013
1.2453061
-0.029281281
-0.070929344
0.27709593
0.25171225
0.52961683
0.55950968
0.55600706
1.4447324
1.4450673
1.4914549
1.4537167
1.3950437
1.4177978
-0.20742719
-1.3747939
-0.75726229
1.0682604
0.84720605
0.95224928
0.011406687
0.013171969
-0.0043019243
1.2257173
1.2874159
0.72329753
0.97363981
0.97548559
1.2927921
1.315564
1.3871309
1.3127304
1.3391687
1.3636539
1.3466695
0.83096065
0.73570847
0.76045276
1.0974362
1.1496201
0.17815554
0.080958909
0.062421368
0.12848238
0.18429302
0.15211383
1.2538848
1.193081
1.2634934
0.51849166
0.51051348
-0.042230659
-0.040465411
0.54886268
0.52275417
-0.012368982
-0.0094555302
0.92761746
-0.49016654
0.22022175
0.55121035
0.53259234
0.53233196
-0.1841751
0.41151204
-0.064373966
0.046826058
-0.00080249216
0.745541
0.60417185
0.58377626
-0.077756896
-0.033017983
-0.04654292
-0.39875325
0.5255383
0.5048445
0.52203276
0.50650714
0.53914746
-0.072283127
-0.062924397
-0.050698156
-0.073366687
-0.077356442
-0.069965421
0.55731134
0.58892541
-0.28987371
0.53681352
0.52390487
0.54053482
0.50064251
0.55893821
0.5120716
-0.021098657
-0.0041259257
-0.0040040868
0.38228264
0.52429715
1.2464292
1.4000437
1.2648123
0.87741755
0.54683138
1.1028347
1.2008457
1.0645856
1.2429276
1.2452839
1.2900935
0.2882285
0.078893314
0.31617794
0.23691691
0.54841934
0.55090474
0.53020645
0.5245318
0.5400828
0.51227477
0.54120725
0.5437531
0.54146585
0.55747253
-0.11101424
-0.14778829
-0.17764693
-0.26564115
0.42610645
0.70332641
0.32650714
0.36719604
0.16953503
-0.051514507
-0.062578767
-0.061825021
-0.070680094
0.016303746
-0.03548763
0.072330256
0.073577779
0.061544013
0.0029832637
-0.018775242
-0.036296953
-0.0036621674
0.70200703
0.68063094
0.73766998
0.79076992
0.59645051
0.58315052
0.58707814
0.59927594
0.58624854
0.533752
0.58117242
0.5493681
-0.036176097
-0.08094095
-0.042801793
-0.022642697
-0.00021014516
-0.088815006
-0.097798168
-0.068336993
-0.052104359
-0.083630362
-0.03763845
-0.042545163
-0.34763211
-0.51090361
1.168874
1.0277162
0.21774868
0.5032013
0.50321425
0.48989731
0.52994071
0.51811566
0.52273346
0.52309045
0.51968298
0.54100653
0.53233252
0.5902873
0.61179324
-0.20668393
-0.44099914
-0.1801517
-0.23133601
0.38661818
1.0609011
0.52866717
0.44461088
0.44508305
0.86531015
1.4599465
1.3250968
1.3477332
1.3854835
-0.13075596
0.35374616
0.066139514
0.74416844
0.96732639
1.2172466
1.2755412
1.2800162
1.2497024
1.1857779
-0.03943588
0.95693907
-0.07496468
-0.062783162
0.28161985
0.09733487
1.2997985
1.2178685
1.2206059
1.2727438
1.3085869
1.2334473
1.1754569
1.1946848
1.2629
1.2628927
0.88712671
0.42044684
0.33081761
0.31146921
1.1661411
0.9588878
1.0565955
0.88113032
0.53844711
0.556809
0.54003206
0.52529137
0.53286741
0.51713238
0.56394585
0.58505232
0.55586161
0.52871165
0.55978608
0.53380239
-0.10557198
-0.10436577
-0.062826987
-0.27007157
-0.25532013
-0.37147895
-0.14490791
0.082308843
0.046117765
0.2666627
0.39607002
0.039539688
-0.1569461
-0.09975949
-0.038350106
0.18332146
0.24063108
0.10086391
0.16683675
0.14953218
0.12598908
0.26991321
0.27602866
-0.027674042
-0.020392873
-0.046964315
-0.044996125
0.033099581
0.13862303
0.14275723
0.01212184
-0.00067229811
-0.051194504
-0.055370442
-0.0071319657
-0.036410056
-0.014847485
0.0021822833
-0.080655056
-0.023428199
-0.01517588
-0.0057443615
0.02785302
0.025123
0.63580501
0.65542385
0.64059638
0.81298808
0.81009658
0.84658744
0.81680566
0.56238285
0.57412082
0.56509754
0.62259996
0.59441665
0.6318047
0.65073685
0.6882448
0.70014931
0.6045376
0.58252813
0.66945982
0.62563667
0.61928238
0.63098501
0.65099399
0.58991728
0.60905962
-0.086343447
-0.078426831
-0.0479987
-0.10738012
-0.064767535
-0.083412607
0.0061538288
0.026781378
-0.012700787
0.017509166
0.01216786
-0.071890371
-0.081709478
-0.1698441
-0.005159438
-0.39794029
-0.43332748
-0.53442421
1.0617838
1.2203563
0.96183069
0.68303493
0.71682703
1.0009577
1.1430381
0.65545685
0.78832972
0.90213867
0.84814514
1.0852717
0.5255381
0.51799946
0.53077988
0.50854727
0.53764823
-0.017434283
0.17680563
0.10848883
0.28775188
0.50373411
0.55280657
0.37330384
0.31578022
0.47381102
0.36838859
1.0605964
1.0980583
0.95939928
1.0197338
1.0137983
0.67722833
0.89233641
1.0211718
0.88674298
0.96897574
1.0089982
0.93472689
0.9985333
0.90235121
0.78080622
0.80536711
0.61265999
0.68494348
0.64177189
0.6055696
0.7225502
0.6800026
0.71975519
0.70664933
0.76995268
0.87150985
0.85090272
0.86208176
0.91435805
0.76140404
0.68300384
0.70747396
0.78020433
0.65640516
0.67614992
0.71627931
0.37245595
0.38423645
0.25838369
0.15879784
0.24208494
0.083773474
0.06146201
0.094491154
0.40783525
-0.22471652
-0.20981832
-0.57998919
0.82830013
1.4844493
1.225429
1.2172893
1.3077195
1.2678314
1.2567827
1.3204093
1.3285139
1.1612342
1.2076582
1.2043266
1.1058868
1.1510781
1.2440612
1.2253891
0.91836232
0.64192696
0.60162243
0.57026005
0.31921307
0.39647848
0.78154496
0.63330846
0.49471871
0.49020413
0.80800309
0.55336776
0.68173069
0.80562722
0.64138553
0.55167244
0.96631937
1.1043514
1.0934572
1.0418727
0.86639981
0.90390355
0.97831491
1.0450688
1.0848441
1.1624299
0.53850602
0.54729688
0.54152686
0.5244114
0.55137786
0.55553235
0.55460593
0.54050242
0.54506974
0.5454141
0.55719708
-0.070147377
-0.058683598
-0.077463028
-0.084161639
-0.036493041
-0.056605775
0.018104994
-0.0069905487
-0.025295049
-0.018931195
-0.057775369
-0.074814081
-0.051474503
-0.035332171
0.13245271
0.16651247
0.11198268
0.1008153
0.30520833
0.44172685
0.49713847
0.4148664
0.23307506
0.25693734
0.32487108
0.017887502
0.038147141
0.052009203
0.07022535
0.07230386
-0.038524271
-0.045704229
-0.040857886
-0.030124998
-0.022405597
-0.049097104
-0.0423006
-0.049322966
-0.044223377
-0.045214285
-0.052301486
0.5619476
0.58217268
0.63396607
0.59860733
0.59551531
0.61916698
0.59024951
0.60762203
0.61099364
0.64022409
0.62800338
0.66471224
0.65407551
-0.039289953
-0.061159351
-0.070761827
-0.037507851
-0.048504201
-0.059279367
-0.050461687
0.22775227
0.082923158
0.11878184
-0.0039730326
-0.24136419
-0.13360181
0.59344201
0.72573876
0.72136607
0.95336511
0.73976122
0.68853444
0.83470201
0.95935653
0.39309979
0.61916204
0.4331664
1.0841835
0.98943441
1.1625924
0.70937388
0.38665791
0.61908406
0.70594378
0.39856566
0.50997114
0.5092866
0.34277364
0.41626561
0.43750473
0.5884096
0.39085169
0.44496932
0.37442315
0.39841182
0.45402302
0.47545714
0.56901746
0.62933745
0.32368694
0.28913627
0.22092129
1.0822544
1.0991583
1.1381284
1.1110829
1.1434944
0.93063575
0.92368692
0.96511881
0.96977456
0.94234929
-0.411627
-0.51052557
-0.85160855
-0.30687912
0.30423875
0.86732674
0.75028566
1.3207127
1.0612215
1.2886857
1.2373227
1.1844658
1.0978057
1.076869
1.1654045
0.62987829
0.81197377
0.78636933
0.75709646
0.57420015
0.48488671
1.0578287
1.0389614
1.1136371
1.1463695
1.0848469
1.16718
0.56127949
0.58071724
0.55832911
0.57427949
0.56082013
0.56820597
0.058574197
0.0035809045
0.11725894
0.097563485
0.019058576
-0.0073058805
-0.014768065
-0.017747178
-0.033552867
-0.030387635
-0.011469761
0.0030678694
0.24823482
0.20650803
0.013684275
0.1277995
-0.043710606
-0.14377492
-0.20535184
-0.019457414
0.1098555
0.12762223
0.52078546
0.80256912
0.64839911
0.75910473
0.58523584
0.69659604
0.66903092
0.62484183
0.66418295
0.54631426
0.56432029
0.55163063
-0.236403
0.095959246
1.3686884
1.3026762
0.91049414
0.76019914
0.70492449
1.0393438
0.95895113
0.80455465
0.90616767
1.0274609
1.0147516
0.3343185
0.31634176
0.66533777
0.80029798
0.4498838
0.32996567
0.29622944
0.46420085
0.51456209
)
;

boundaryField
{
    wall-4
    {
        type            zeroGradient;
    }
    velocity-inlet-5
    {
        type            zeroGradient;
    }
    velocity-inlet-6
    {
        type            zeroGradient;
    }
    pressure-outlet-7
    {
        type            fixedValue;
        value           uniform 0;
    }
    wall-8
    {
        type            zeroGradient;
    }
    frontAndBackPlanes
    {
        type            empty;
    }
}


// ************************************************************************* //
