/*--------------------------------*- C++ -*----------------------------------*\
  =========                 |
  \\      /  F ield         | OpenFOAM: The Open Source CFD Toolbox
   \\    /   O peration     | Website:  https://openfoam.org
    \\  /    A nd           | Version:  9
     \\/     M anipulation  |
\*---------------------------------------------------------------------------*/
FoamFile
{
    format      ascii;
    class       surfaceScalarField;
    location    "27";
    object      phi;
}
// * * * * * * * * * * * * * * * * * * * * * * * * * * * * * * * * * * * * * //

dimensions      [0 3 -1 0 0 0 0];

internalField   nonuniform List<scalar> 
1300
(
1.7582594
5.6264299
-5.5976572
1.7582594
-7.1482459
5.6264299
-6.1351934
6.1351934
-1.4132885
1.4132885
3.7341723
3.650517
-4.3114987
4.3114987
-3.7588683
3.7588683
-1.8144411
1.8144411
-5.237713
5.237713
-5.0569658
5.0569658
4.7546405
-4.7546405
-6.7024902
6.7024902
-1.8952099
1.8952099
-5.4310716
5.4310716
1.4863326
-1.4863326
-3.9435166
3.9435166
-0.33533312
0.33533312
-0.57442854
5.1459029
1.1838308
1.1838308
-2.0322434
2.0322434
-4.8509704
4.8509704
6.2142587
-6.2142587
8.2494712
-8.2494712
-2.651814
-3.5538591
1.3837018
-11.616605
-5.7645442
-5.7645442
-8.4382666
8.4382666
-2.8118367
2.8145932
1.523595
-1.523595
-1.7677243
1.7677243
-6.095925
-0.039268371
-6.095925
6.1528969
-0.017703454
6.1528969
-1.5762769
0.16298847
-1.5762769
5.2328032
-5.2328032
1.2186522
0.19463628
1.2186522
1.2498533
-1.2498533
-3.7373327
7.471505
3.6473566
-3.0524472
8.19835
-3.3945038
7.0450208
-6.5614016
6.5614016
-4.5778308
0.26633214
-4.5778308
4.126635
0.18486363
4.126635
-7.4562183
7.4562183
-3.818501
0.059632671
-3.8185009
3.7383122
0.020556094
3.7383122
2.3422841
-2.3422841
-1.6875168
-0.12692423
-1.6875168
1.9260297
-0.1115886
1.9260297
0.35898307
5.2674469
-5.985413
8.8000062
-5.2674469
0.029733898
5.2000718
0.037641106
5.2000718
-5.0935699
0.036604163
-5.0935699
5.0140163
0.042949462
5.0140163
4.8512805
-0.096640003
4.8512805
-4.8558251
0.10118464
-4.8558251
-3.7360736
-5.3636648
-7.0250889
0.32259861
-7.025089
-1.8663044
-0.028905553
-1.8663043
1.8875196
0.0076903556
1.8875196
-4.1271152
4.1271152
-5.8704351
0.43936348
-5.8704351
1.3584851
0.1278475
1.358485
2.0099555
2.5615188
3.7682149
-3.7682149
2.2818823
-3.8931706
-0.050346029
-3.8931706
-4.0391094
-4.2103619
4.0391094
-0.095592832
-0.73486507
0.39953194
-0.73486507
1.2334706
-0.049639761
1.2334706
2.0100621
-0.084032415
-2.0100621
-0.022181303
3.5573341
-3.5573341
1.5374255
0.49481792
1.5374255
-5.5756598
5.5756598
4.9529037
0.061112649
-4.9529036
0.1019332
6.1537914
0.060467323
6.1537914
-6.1927043
-0.021554389
-6.1927043
2.9064901
-6.4603493
-3.9897381
6.2569382
0.44555202
-6.256938
0.4923938
1.6977071
-0.17411213
1.6977071
-1.2365674
1.2365674
-1.435599
-0.087995999
-1.435599
-2.1020489
0.33432459
-2.1020488
1.4967626
0.27096182
1.4967626
-5.8642767
-0.23164828
-5.8642767
-6.0825517
0.21211665
6.0825517
0.070345184
1.4120869
-1.4120869
-1.7228609
0.14658393
-1.7228609
-5.5364687
-0.32780796
5.5364686
-0.30366541
-4.988355
-0.24444818
-4.988355
-1.3262533
-0.10934568
1.3262533
-0.07640002
1.2581032
-0.024632668
-1.2581032
0.0082499321
-3.0522374
5.6137562
-3.3947136
7.0420702
-6.1827525
-0.37864912
-6.1827525
6.8978058
-0.33640422
6.8978058
5.0207578
0.41031378
-5.0207578
0.44292692
3.999318
0.12731701
3.999318
-7.422259
-0.033959295
-7.422259
7.4756416
-0.019423293
7.4756416
3.9050214
0.09429662
-3.9050214
0.086520414
3.7649612
-0.026648963
3.7649612
2.5706848
-0.22840064
2.5706848
-2.122507
-0.21977713
-2.122507
1.4306544
-1.4306544
1.5603553
-0.12970096
-1.5603553
-0.1271615
-11.148726
11.127172
-0.035782514
-11.112943
5.1642893
5.1642893
4.0600891
0.79119138
4.0600891
-5.0457557
0.18993058
-5.0457557
3.0931152
-7.0828532
4.7539426
-8.4900162
5.5353069
-17.151912
4.2656615
-9.6293263
7.3584358
-7.3584358
7.2315138
0.12692196
-7.2315136
0.20642467
-1.7964732
-0.069831114
-1.7964732
-3.5062097
-0.62090554
-3.5062097
4.7935665
-0.66645131
4.7935665
-1.3102548
1.3102548
-1.3183449
0.0080900683
1.3183449
0.040140169
3.8256751
-0.060713867
-3.825675
-0.067495598
0.99339287
0.22525932
-0.99339287
0.2585278
3.9735124
-0.41617832
3.9735124
-3.1268235
-0.43051056
-3.1268235
-1.6782832
-0.11819
1.6782832
-0.14085773
-5.8204544
0.24479463
-5.8204544
-11.213436
0.10049299
-11.175795
-6.0922114
-6.0922114
2.3460553
11.146061
-1.9043299
-0.21817707
1.9043299
-0.20662285
1.2919021
0.018352663
-1.2919021
0.055334668
-1.312567
-0.11808742
1.312567
-0.075999536
-2.530338
0.42828918
-2.530338
-1.2177649
1.2177649
-1.3068495
0.08908465
1.3068494
0.18991323
1.720536
-0.30844902
1.720536
1.8277689
0.059750659
-1.8277689
0.10490806
-4.6685091
-0.3198459
-4.6685091
7.1572863
-0.25948044
7.1572862
-2.8383432
-0.28848032
2.8383432
-0.26765847
-0.035223911
11.162396
-5.1290654
0.035495479
5.1290654
-11.222863
11.258358
-3.1109343
0.58059628
3.1109342
0.94915487
5.3083209
0.26733882
-5.308321
0.26256528
7.4297039
0.04593774
-7.4297039
0.071268085
-2.9959467
-0.51026301
-2.9959467
-5.5412607
-0.64149179
5.5412607
-0.74769417
-11.47567
-0.19557872
11.671249
-11.432721
6.0160331
0.13775831
-6.0160331
11.396117
-1.2424049
-0.16968199
1.2424048
-0.024639871
2.0690241
-0.34848812
2.0690241
4.3765386
-0.40302616
-4.3765386
-0.29197048
-7.3135161
-0.10874285
7.3135161
-0.1562299
-2.5107432
-0.48520349
2.5107432
-0.44171912
-5.3379764
5.2883366
2.8603736
-2.8598826
-3.6004667
-7.0702445
2.5476895
3.0660667
4.8295718
-11.039582
-6.1123293
-10.547189
7.2748418
-7.0122766
-9.5025206
9.4058806
9.8195346
-10.063983
-7.3444682
7.3846083
8.7041725
-8.7805725
3.7781083
3.6933967
10.868983
-10.602651
-16.829664
16.451015
10.333741
-10.274108
17.003145
-17.037104
-19.160122
19.20606
-7.3788259
7.2519017
-9.0040146
8.7842375
-9.1719059
8.9042474
-3.2734062
-5.21661
14.277248
-13.954649
11.098893
-11.149239
-11.536461
11.975825
4.0462527
1.2420839
4.0216201
-3.6184358
7.396544
-3.426585
6.2869586
4.0146402
-7.2880463
3.0682128
-6.6686795
5.5605236
5.538369
-5.4649309
-1.6053136
-8.1020085
7.9278964
-7.5943007
7.5183012
12.04728
-12.086549
-3.6039113
7.2973079
-3.4381589
6.5042256
-3.7043553
-3.6401128
3.5765079
1.2530639
8.5647165
5.7125312
-9.0102687
-1.53692
-10.288353
9.8853271
-10.86805
10.437539
-0.45494427
5.7890961
-5.3341518
4.3960262
-1.4725669
7.261663
5.8022749
5.9922055
5.8682013
-5.6008624
1.1440753
-6.4782271
-6.3762939
-3.3872446
3.5338285
3.3228963
-3.12826
7.8430346
1.9765001
7.5393692
-7.0088653
-3.0551174
-7.3287111
4.4547357
2.9298726
4.4628258
5.2659862
3.4381863
5.1566405
5.868594
-5.9527846
0.084190612
-5.4617
11.330294
1.3445233
-9.1018128
-7.8487489
6.912282
3.956701
7.0971456
-7.5197072
-3.0829437
-7.0767803
-10.248811
-6.5808537
-10.890302
10.98215
5.468865
10.645746
-12.900073
12.743843
6.7494744
3.5842668
6.7700305
-6.8492722
-3.4248362
-6.7627518
13.150913
-3.079414
-10.071499
-11.109816
-8.0503064
11.129239
5.8739061
11.80585
7.4002099
11.877118
4.7916582
8.3592545
-10.665564
2.6152579
-4.5062464
-2.8725795
-4.6334079
4.551676
2.7002258
4.4400874
-5.3088446
-3.69517
-5.5270216
-5.2468506
-3.9250553
5.4752512
3.3089863
-5.397843
-5.470207
5.6863233
3.2179242
5.08493
-11.197259
4.5443962
-9.7610061
-9.9635026
-3.9911467
-9.7570779
4.7697919
3.1846291
-7.954421
-2.5182545
10.792248
-5.2538787
9.1869341
-6.9523056
-4.196933
-7.0198011
-9.1864006
-2.3500607
-8.9742839
-9.5259966
9.0157336
-9.9231271
9.2566758
13.856369
-6.7551981
-7.101171
-4.8828049
-3.8977677
4.8745549
-0.85293489
-7.2131146
7.2973052
0.18342945
6.4703881
7.712472
6.8595371
-4.5315972
-3.0627035
-4.4762626
4.6894932
2.828808
4.5714058
9.1531528
2.8941277
9.1354494
-8.5294158
-3.557133
-8.7610641
9.5372615
-9.2029369
3.2804364
-3.3986264
6.8232365
3.6143029
-6.4070583
-3.8812949
9.1469983
-4.2111522
-4.9358461
-12.077472
10.654997
1.4224754
-4.815809
-0.41978278
-0.084449669
-5.5777218
-3.9247989
5.4765371
0.5156684
11.170665
7.2458661
-5.517423
5.7622176
6.153826
6.2149387
-0.16135519
6.0772234
-5.4966271
7.1575376
-3.1366562
-4.0208814
6.9133133
-7.2411213
-1.8477507
-7.1928387
5.345088
0.29824789
2.2654605
-1.8659285
-2.6376988
-0.74954573
-2.5327908
1.9599897
1.3629066
2.185249
1.2894224
2.2444061
-3.991822
0.7208654
3.2709566
-2.7023996
-2.4073946
-5.0205657
-1.4404217
6.4609873
7.215302
2.670025
-6.9233316
-0.40537953
3.3577098
-3.3500194
-1.0306248
-3.9899408
2.9116908
-3.9423156
-5.3969864
-2.3587628
7.7557492
-3.7601177
-0.71614486
3.7417651
0.72106074
-4.7599087
-3.3420998
4.8479047
0.30873585
-5.3076639
10.953392
-5.6457278
-8.3703674
4.5312826
6.7990113
7.4611552
-9.1553363
4.7446695
4.4106668
-2.356325
5.9300934
1.1670522
6.0574104
-9.1404955
6.0575518
7.8682405
4.1075843
-8.2785542
1.2017739
-7.9387216
10.556697
-9.2276826
-1.3290149
5.2225252
5.3341723
7.5837709
6.2725982
-6.0230971
13.606868
-1.5005256
-7.727157
9.4392472
-5.331663
6.1602041
-11.491867
-12.432802
4.7056452
-9.87121
11.923882
-2.0526724
-3.8535682
-9.0465051
13.724778
-1.3397603
-12.385018
9.3059856
-5.5550973
-5.5704885
11.125586
-8.6345112
8.9953247
-2.6156016
-6.3797231
-10.872018
-6.1650866
10.980761
1.7630829
-11.684061
14.299319
-3.3248066
5.8225675
0.94746298
5.7959186
4.1607819
-6.710402
2.5496201
4.4737294
-7.089331
2.622355
-9.332757
-7.3490699
13.598025
-6.2489552
-11.340217
-10.232616
-1.1076006
2.7634545
11.535865
-10.163664
7.9856539
2.1780105
3.9463773
0.62502845
-3.8166764
-0.81673154
0.65242665
6.6653356
-7.3177622
5.092514
5.0084816
5.1071697
1.5581659
5.0690533
2.8588431
-4.8624304
-0.66459118
-6.2206501
2.2955948
-2.9116638
-6.1560967
8.4516915
-6.9324268
0.77633008
-4.1658209
-6.1199713
10.285792
-7.0384004
5.3008584
5.6525333
8.1296663
-8.5584536
2.4384823
-4.3734996
-4.184954
4.4939444
-7.4056082
3.180161
5.2715305
6.3980852
0.92787817
6.8324437
6.7655814
-10.017073
0.25606696
12.478113
-10.941192
2.6470273
9.2300907
-10.632681
0.40006515
-9.3570127
1.4603219
-6.7142005
-6.494099
6.7596725
-9.1097332
-4.7321945
8.3291201
0.80632933
-8.3994652
-0.57481871
-6.4976682
-3.0283284
-6.9828717
-3.3031576
-6.6199695
-9.3262547
-1.7748585
-7.5513962
7.240875
-7.2240644
-3.6662379
7.9717585
1.2849173
-7.9832792
7.8135972
-8.0316897
7.6832015
0.26712782
7.0301773
7.1266649
3.2288972
-4.6738523
7.9027495
-6.7630677
9.6571954
-11.344625
4.581557
5.3672902
-8.9244232
-5.9773344
5.4499333
4.0873283
5.7208952
9.3490699
-10.816872
1.4678017
-11.011547
12.573329
-1.5617813
-17.054106
6.0425587
-7.705036
3.1710621
0.10937431
3.101231
0.93720059
2.8376517
-3.7748522
-2.4614258
-2.6022835
-3.4677751
-5.2301336
8.6979087
1.8434039
-4.9865989
3.143195
-4.7014961
6.5449001
0.22858733
-5.2151862
7.0708776
-4.2332259
7.1802519
-4.4729088
2.7073431
4.9137725
8.6829613
-3.7691888
6.330579
-2.7162761
2.7808494
-6.5500382
-2.4492841
-4.8861236
7.5863493
-5.3996686
6.1759987
-0.26858712
6.4445858
-5.7190941
1.5079419
-0.61192435
4.3965572
4.3743759
6.7078444
-5.1496786
4.7780399
-7.494316
-1.7719983
-6.5664378
-1.2949073
-0.51290278
-5.0408785
5.5537813
6.6913166
-7.2042194
-5.3653757
9.7512882
-4.3859126
8.0627998
-5.5443461
-2.5184537
-4.5504238
-4.652513
4.1221346
1.9550888
10.017889
0.26965985
-5.8140059
-5.2269672
-4.2778123
4.4322628
2.7252749
-2.3692467
3.7917221
2.4536963
-0.18823584
0.79717913
1.3880699
2.4981736
-1.7009944
0.21933083
2.2788427
-1.6465977
2.5258534
0.83185633
-2.5856041
0.052813351
-1.879265
4.7909559
1.3916916
-2.7545982
1.0536038
1.6192166
-4.7558728
6.4692727
-3.1671374
-3.3021354
8.0884894
1.625396
-4.7925333
5.5674427
-5.2691948
3.1978588
-4.6382805
-1.5946745
-6.8638693
-4.8873691
-3.9233148
7.0665097
-4.774594
7.444619
1.6695234
-7.0392395
8.7087629
-4.7416343
2.3828715
-4.2329151
5.0647714
-1.8032658
-2.4296493
3.9311386
3.8246106
-4.0373342
0.047393354
-0.1061955
3.186153
-3.2923485
-0.75616258
-3.4585622
-7.5084775
7.8172134
-3.8324582
8.5771277
4.0702913
-3.5063704
12.083498
3.2533962
-6.7597666
-5.1169712
-5.8331161
-2.3490998
5.1120554
-0.83817926
-5.9245726
-7.2179023
5.830276
0.2271344
-9.2082679
10.290692
-1.0824239
-5.2515669
-0.8059848
6.02851
-7.7510421
0.66171114
-5.1286871
5.1620046
6.3290568
6.5561912
-12.162249
-0.22276929
-6.6933837
1.3279404
-8.0213241
6.6621126
-3.7811877
8.4868329
-11.110598
7.4443597
-9.8256803
7.1578181
-0.86350598
7.101479
-4.5518589
2.9700197
-9.1351063
-7.3720234
7.232445
-3.6481782
8.179908
-4.152601
12.332509
-7.4774076
6.9392309
5.3932781
-1.2777179
-5.7420832
-6.9323526
5.6546347
0.0068783979
5.802797
7.6784722
-4.8196291
7.013881
4.0868972
-8.4603968
-3.318711
-11.745788
3.2853912
-6.0932547
-3.0655481
6.3509393
5.0641182
5.6891467
2.1659852
-4.8724151
8.3717395
-9.47934
-2.1227844
-4.3713147
6.7853174
-1.1306827
4.1258161
-8.4971307
-2.5883843
5.6997735
-0.66706091
-5.0327126
1.0554246
-5.787619
2.2757302
-8.0633493
6.834003
-7.4088217
2.3430244
-10.04806
-5.6402547
-5.6648946
-2.4192881
-5.6124016
-7.9353054
5.5160173
-1.8927467
5.9208506
-8.8666576
8.1995967
-3.7066709
9.2226883
-5.8432405
-1.1396313
6.2849597
1.3982419
10.62093
0.31246452
-6.2897989
-2.651618
5.4566001
-2.804982
1.7806447
-4.7284139
0.72818616
3.4061252
4.6823642
-8.7512132
-0.17321004
-6.463009
-4.1498097
8.237138
5.6014786
12.292795
1.4759237
9.3922832
-1.1551452
10.868207
4.56575
4.7556633
-4.0560493
5.523851
1.497732
6.079289
-0.91575789
3.623101
2.1854732
2.1565676
1.1934518
2.6466644
1.7277115
4.1546063
0.37975406
-2.2225295
4.7064779
-8.9842902
-1.107528
-8.1930988
1.2127818
5.8857035
-4.6729217
4.2706656
-1.5453908
1.4656836
0.077665178
-2.3949297
2.3172646
-3.9432162
-2.5831656
-0.30432283
-2.163561
3.2171648
2.6273949
-2.912842
-1.0303742
0.39340007
-5.2807692
4.2448804
-4.197487
-0.37287631
8.3358866
-3.7385488
0.44620029
-1.3556772
-3.0123619
-3.7619076
3.7090942
11.491439
0.59205891
5.8457113
8.4092723
5.0671725
0.24754333
4.8097409
-6.8624133
-4.5230162
-7.0851826
-0.42306991
5.6054401
2.1538964
9.3819682
7.5471745
6.4164919
-2.0806388
-11.559979
8.1806058
-2.6567548
6.6188245
-1.5861119
-6.4772373
6.5947343
3.0624611
-7.4010636
-0.0077580156
-6.4849953
-9.1417501
-0.48315854
8.6827553
-10.137772
8.9981403
5.9698119
1.5815843
-4.8029152
-0.86197936
4.7138305
0.041832776
10.91004
-1.2051849
-7.1365403
8.3417251
-4.6805187
3.5729907
0.97286171
2.8188604
3.2901263
1.7447355
-5.3918048
-10.064726
-2.610367
-2.1455058
-5.9125023
0.54848509
-3.17588
6.2934524
-2.7204617
3.7749987
5.6212634
7.086947
-2.0572295
-5.1469899
6.443142
-2.6681433
4.4188037
)
;

boundaryField
{
    wall-4
    {
        type            calculated;
        value           uniform 0;
    }
    velocity-inlet-5
    {
        type            calculated;
        value           nonuniform List<scalar> 8(-1.7582594 -1.7582594 -7.3846893 -4.5714743 -7.3846893 -6.446951 -4.5714743 -6.446951);
    }
    velocity-inlet-6
    {
        type            calculated;
        value           uniform -5.6264299;
    }
    pressure-outlet-7
    {
        type            calculated;
        value           nonuniform List<scalar> 8(5.5976572 7.1482459 6.2056732 10.232903 9.0997384 6.8962282 7.8470576 9.8009684);
    }
    wall-8
    {
        type            calculated;
        value           uniform 0;
    }
    frontAndBackPlanes
    {
        type            empty;
        value           nonuniform List<scalar> 0();
    }
}


// ************************************************************************* //
