/*--------------------------------*- C++ -*----------------------------------*\
  =========                 |
  \\      /  F ield         | OpenFOAM: The Open Source CFD Toolbox
   \\    /   O peration     | Website:  https://openfoam.org
    \\  /    A nd           | Version:  9
     \\/     M anipulation  |
\*---------------------------------------------------------------------------*/
FoamFile
{
    format      ascii;
    class       volVectorField;
    location    "27";
    object      U;
}
// * * * * * * * * * * * * * * * * * * * * * * * * * * * * * * * * * * * * * //

dimensions      [0 1 -1 0 0 0 0];

internalField   nonuniform List<vector> 
918
(
(0.40886045 -0.00014759394 0)
(0.009045616 2.9576279 0)
(-0.037660588 1.477284 0)
(0.28985953 -0.0086463151 0)
(-0.046072072 1.9000526 3.6041056e-20)
(-0.011744055 2.948578 -3.3940065e-18)
(1.0762579 1.6582767 8.2669014e-19)
(0.43879626 0.25925579 -2.7900681e-20)
(1.9884007 0.0033500291 0)
(0.023334035 1.2318695 0)
(0.0014851428 1.0472183 0)
(0.44860113 -0.019578706 0)
(0.012838258 2.9163489 0)
(0.013775632 2.7907804 0)
(0.10131686 3.1834007 3.6694408e-19)
(-0.045819471 2.0746248 -1.372771e-20)
(0.55249458 0.13231212 1.7928656e-18)
(0.22535558 1.7010988 6.1722314e-19)
(0.36276849 0.0039228822 0)
(-0.017180351 1.1340843 0)
(0.076920137 0.25217333 -1.3920333e-18)
(1.0474198 -0.022219149 0)
(0.54291589 -0.028850361 0)
(0.24692678 -0.0073291604 0)
(0.56189286 -0.011451618 0)
(0.024126839 2.6155566 0)
(-0.0099567141 2.9059133 1.2495258e-18)
(-0.053852312 1.4489535 0)
(-0.11187895 1.6507916 0)
(-0.046417425 1.4525012 0)
(-0.13304926 2.733971 0)
(-0.055360504 2.0375897 -2.8221819e-20)
(-0.04305641 1.8207271 0)
(-0.018161787 2.9813228 -1.263987e-22)
(-0.018375216 3.007023 2.6350661e-18)
(0.00085983243 3.0015936 0)
(0.30636816 0.0085328628 0)
(0.43087016 0.90996652 2.9740959e-19)
(1.1721315 1.6348854 -9.3331523e-19)
(1.239503 1.512191 1.012875e-18)
(0.98666505 1.7735652 -1.8689386e-19)
(0.87847711 1.7782346 1.0938101e-18)
(0.54926335 0.30945012 2.7135023e-20)
(0.4714469 0.23814104 0)
(1.4536653 0.84620346 0)
(0.48995441 0.31456852 1.2439793e-19)
(0.39633427 0.26444177 -1.2957972e-19)
(0.24188533 -0.012471266 0)
(1.9895553 0.00013128816 0)
(1.9886903 -0.0025150461 0)
(1.355543 0.00064147076 0)
(1.8675414 0.0049241669 0)
(1.7380449 0.0029361926 0)
(0.026040224 2.0296771 -8.0216523e-19)
(0.045242473 1.4515419 0)
(0.047598247 1.3255576 0)
(0.026141408 1.4024277 0)
(0.016797319 1.1616139 0)
(-0.00072002885 2.2319292 0)
(0.011334654 1.2719165 0)
(0.011359933 1.0673982 0)
(-0.0017845312 1.2660833 0)
(-0.0060022517 1.0372817 0)
(0.61144236 0.030516563 0)
(0.6552125 -0.03158085 0)
(0.39806175 -0.01597048 0)
(0.67928983 -0.028088655 0)
(0.4976959 -0.016657231 0)
(0.016738921 3.0145158 1.2994613e-18)
(0.012391079 3.01138 0)
(0.007728144 3.0035769 0)
(0.013327919 3.0004886 1.3845189e-23)
(0.010556797 2.9476306 -1.8558628e-18)
(0.016842391 2.9848913 0)
(0.013436196 2.893837 0)
(0.017692072 2.923885 2.9864937e-24)
(0.013862067 2.8181474 0)
(0.017711913 2.9102376 0)
(0.011242145 2.7539591 0)
(0.25165968 3.6437499 0)
(0.17918832 3.5807864 0)
(0.13510472 3.3165408 -3.4326337e-19)
(0.050066687 3.0066033 0)
(-0.21860442 2.4296277 0)
(-0.04705059 2.2964941 1.3496763e-20)
(-0.029702374 2.1464243 -1.2915625e-20)
(0.68958013 0.15091285 -6.1597967e-19)
(0.55436712 0.095807833 -5.8768909e-19)
(0.6834914 0.19421791 -1.8685909e-18)
(0.54241748 0.16598975 -1.2436224e-18)
(0.17930942 1.1576743 0)
(0.34852199 1.8457028 -6.82538e-19)
(0.43750351 1.8295729 1.1441882e-18)
(0.54747796 0.038192035 0)
(0.30373871 0.023803285 0)
(1.2187605 -0.0013899799 0)
(0.73834465 -0.035265744 0)
(0.6499046 0.017152733 -2.8196451e-18)
(0.64805163 -0.026263339 2.2140975e-18)
(-0.01746269 1.2851294 0)
(-0.012933826 1.1149674 0)
(-0.05639387 1.434659 0)
(-0.023003249 1.3110587 0)
(-0.015002818 1.1625002 0)
(0.15661529 0.2974223 4.2479339e-19)
(0.24350118 0.24639849 0)
(0.50290613 0.018387048 0)
(0.24336983 0.013328791 0)
(0.6928578 -0.022212508 0)
(0.6935747 -0.017877936 0)
(0.5418189 -0.013354913 0)
(1.0195006 0.053172488 0)
(0.67295765 0.0074518738 0)
(0.49719048 0.010423664 2.4000629e-18)
(0.0021079034 2.8615548 1.0889815e-18)
(0.02159513 2.8990735 0)
(0.036282141 2.873816 0)
(0.015921939 2.7027721 0)
(-0.010408055 2.9857724 1.2075033e-18)
(-0.0090768792 2.890826 0)
(-0.011752763 2.9907619 -3.708515e-18)
(-0.0095907948 2.9158732 1.2686071e-18)
(-0.12025731 1.7344963 0)
(-0.15983296 1.8393142 0)
(-0.062083646 2.2089698 -3.2956074e-22)
(-0.065282273 2.0995073 0)
(-0.052450594 1.9565985 0)
(0.65597272 0.039088734 0)
(0.36172825 0.023767457 0)
(0.23996978 0.01047866 0)
(0.61422188 0.01766133 0)
(0.28422327 0.018610698 0)
(0.51761414 1.0901671 -3.6555606e-19)
(0.55136744 1.1276781 0)
(0.40877158 0.89491807 4.8367829e-20)
(0.31630295 0.68121043 0)
(1.2977216 1.4526692 -2.8103788e-19)
(1.341392 1.2937583 5.3723508e-19)
(0.56330624 1.9004232 0)
(0.78336314 1.8731412 0)
(0.66455688 1.8427954 0)
(0.150317 0.25532764 -4.1233352e-19)
(0.59900337 0.29088176 0)
(0.50148187 0.22021158 3.5400573e-19)
(1.3913953 1.2363746 0)
(1.4527106 1.0094857 0)
(1.4106623 1.0669388 -3.9448043e-19)
(1.4929736 0.79539545 0)
(1.4716875 0.6473875 7.4826421e-20)
(0.58221442 0.029821551 0)
(0.53926316 0.016437534 0)
(0.25580787 0.01523913 0)
(0.52018426 0.0065503564 0)
(0.52805076 -0.013970859 0)
(0.25123962 0.0065652537 0)
(1.4988176 -0.0021178979 0)
(1.8698702 -0.0024627796 0)
(1.7318438 0.00015116496 0)
(0.040577381 2.2522252 4.3627093e-19)
(0.050459668 1.9542716 0)
(0.032685224 2.3414392 6.9754287e-19)
(0.019844686 2.0909612 -5.7836618e-19)
(0.16520751 1.6903946 -5.0693194e-19)
(0.076964914 1.536578 0)
(0.098797761 1.5003011 0)
(0.019188098 1.3565385 0)
(0.012767154 1.124105 0)
(-0.0034532794 2.4116329 -7.6104985e-22)
(0.0027637736 2.2274612 0)
(0.00436559 2.4133916 -3.8811016e-20)
(0.0016334951 2.237749 6.2356536e-20)
(0.016289053 1.323974 0)
(0.016705021 1.2966626 0)
(0.012822782 1.0940062 0)
(-0.012254538 1.2633484 0)
(-0.011702734 1.0536322 0)
(0.86265528 0.049088646 0)
(0.68682793 0.030769287 0)
(0.80307721 0.047935833 0)
(0.52743309 0.023789362 0)
(0.29820529 -0.018453134 0)
(0.59470208 -0.027108223 0)
(0.62447951 -0.025561324 0)
(0.35225595 -0.016036729 0)
(0.0037213824 3.0719812 -1.1144801e-20)
(0.010795327 3.0616386 0)
(0.016169925 2.9688044 0)
(0.013255019 2.8677188 0)
(0.73154571 4.2314513 0)
(1.2315784 3.2952906 8.9374689e-19)
(0.072735021 3.1374517 0)
(0.030160151 2.9085439 0)
(-0.15864569 1.8775165 0)
(-0.19848789 2.2703595 0)
(-0.21536333 2.0890396 0)
(-0.14936803 2.7210361 -6.4859031e-21)
(-0.18982252 2.5712038 0)
(-0.18269984 2.6148213 0)
(-0.0056228572 2.198159 -1.1496518e-21)
(-0.011413741 2.390859 1.4256908e-20)
(-0.025992264 2.3550011 1.3004467e-20)
(-0.015853265 2.1816985 0)
(0.69127139 0.10261526 8.9666774e-19)
(0.54983259 0.058168303 -8.8575412e-19)
(0.30529514 1.7004533 0)
(0.20692676 0.93594339 -3.6700962e-19)
(0.22627454 1.8425808 -1.1429856e-18)
(0.13795605 1.3998347 1.1466931e-18)
(0.27246539 -0.0050546262 0)
(0.53577034 -0.0034129515 0)
(0.529169 0.012056907 0)
(0.27737784 0.0029942911 0)
(-0.01805344 1.2682775 0)
(-0.019911914 1.2770856 0)
(-0.012526241 1.0829459 0)
(0.42065368 0.31530702 1.1471642e-18)
(0.32953591 0.3049433 -1.369429e-18)
(0.3314485 0.26191177 0)
(1.2480748 0.12843101 3.8687049e-20)
(1.2083496 0.11929046 0)
(1.1105579 0.08642202 0)
(0.87265584 0.039122116 0)
(0.6772728 0.057080917 0)
(0.65779355 0.023441943 -3.8586326e-18)
(0.52610621 0.028793685 1.4679195e-18)
(0.0032012238 2.9858335 1.0915236e-18)
(-0.0032698827 2.8658031 4.6759466e-20)
(0.0038455408 3.0539353 -2.331227e-20)
(0.01275339 3.0472616 8.3936549e-19)
(-0.0093895443 2.9952598 4.1213488e-20)
(-0.0083894706 2.9361814 -1.6542593e-22)
(-0.013157383 3.0201635 -7.762357e-19)
(0.0012162573 3.0231486 5.5948958e-19)
(0.0066763964 3.0398133 -8.3996955e-19)
(0.75636866 0.044126344 0)
(0.71170427 0.045565787 0)
(0.43743138 0.021866376 0)
(0.53081531 0.0050369708 0)
(0.52530338 0.019545978 0)
(0.26765965 -0.0018393582 0)
(0.56879463 -0.034278737 0)
(0.53360701 -0.020070475 0)
(0.25658929 -0.017165775 0)
(0.70501517 1.3773041 -8.618792e-20)
(0.77320236 1.4593103 0)
(0.16200326 0.34680148 9.7131173e-20)
(0.33267387 0.76236087 7.3524232e-19)
(0.3523668 0.79285806 -4.3290382e-19)
(0.22542215 0.47923013 8.4250934e-19)
(0.41992935 0.96478294 2.1107647e-18)
(0.16737262 0.34038188 4.7459145e-19)
(0.66643759 0.23140963 1.3199711e-18)
(0.63925127 0.26582501 3.4006809e-19)
(0.52642845 0.19249283 6.6120048e-19)
(1.4854766 0.58720935 9.8852342e-20)
(1.4316451 0.43494328 6.0748678e-20)
(0.022954655 2.3968802 2.5869892e-19)
(0.010549936 2.1630988 0)
(1.0070632 0.060052811 0)
(0.9307646 0.054889991 0)
(0.78128828 0.034553537 0)
(0.010041382 3.0770217 0)
(0.016989615 2.9387011 1.6389857e-18)
(0.016546953 2.9536951 0)
(0.013509099 2.8433576 -1.6360815e-18)
(0.0095582327 3.0917444 3.7547214e-19)
(0.0037943908 3.0887586 0)
(0.86381169 1.7490987 -1.0399966e-19)
(1.1300096 2.3613092 8.0219583e-20)
(0.84343204 1.8660211 -8.402057e-19)
(0.015108641 2.9997043 -9.9878562e-19)
(0.036575417 3.0408008 0)
(0.012877016 2.8750179 0)
(-0.0052055388 2.3990901 -2.0886195e-20)
(-0.0019579787 2.4056577 -1.666172e-20)
(0.0002048942 2.2250509 7.0840023e-22)
(0.34440238 1.5370821 1.1566878e-18)
(0.21156379 0.7528485 -7.9409212e-19)
(0.088635211 2.1630402 7.9530999e-19)
(0.16728046 2.0233993 -9.8032533e-19)
(0.082995098 1.6891846 1.2285894e-19)
(0.014428976 3.1141266 -2.4860384e-18)
(0.01699443 3.1196208 2.8142054e-18)
(-0.0085471853 2.980371 1.1548396e-18)
(-0.0051003945 2.9776064 -1.1334997e-18)
(-0.0075175527 2.8764162 -1.1764232e-18)
(0.0047539592 3.1054868 -2.921143e-18)
(0.0096534759 3.1047444 2.9006536e-18)
(0.37905895 0.83372258 0)
(0.33262062 0.77155137 -1.6559314e-18)
(0.13455328 0.27749658 7.3648926e-19)
(0.41404586 1.0856845 1.3581314e-18)
(0.19156272 0.43365732 -2.1088366e-18)
(1.390207 0.23288358 9.7504298e-20)
(1.4537177 0.38669195 0)
(1.3594738 0.25108074 -2.663541e-20)
(0.0073882811 2.4200017 -1.6763662e-21)
(0.0076440121 2.4088575 0)
(0.0043515723 2.2008637 0)
(0.39267031 1.4007054 -4.1603448e-19)
(0.42288279 1.2556057 -9.3415597e-19)
(0.20104473 0.57342913 1.6805209e-18)
(1.1933778 0.0051213102 0)
(1.3361299 0.0013454723 4.5662172e-19)
(-0.089474677 1.7151121 0)
(-0.075091122 1.6707332 0)
(1.513289 -0.0017453467 2.5383511e-21)
(1.1030301 0.015793737 1.0012828e-18)
(-0.14720934 2.7271419 8.4183063e-21)
(-0.13525766 2.7561664 0)
(0.064118039 3.1815041 7.9591295e-19)
(0.54047226 3.5571405 0)
(1.4379419 0.90640611 -1.0330415e-19)
(1.2835641 0.006850409 2.4249549e-20)
(1.3728368 0.024972742 0)
(1.9988049 0.0066607738 7.4879941e-21)
(0.10812734 1.8706949 0)
(0.1210826 2.7569102 0)
(0.021669174 1.8057747 0)
(0.00058759063 2.8200067 3.2234988e-20)
(-0.019330404 2.7550351 2.3972566e-20)
(1.2729752 -0.028757174 1.7720636e-20)
(1.3870923 0.068050964 0)
(1.4140599 0.09316654 0)
(-0.16811891 2.2552087 0)
(-0.065185655 2.7878362 0)
(0.0018724498 1.6949903 0)
(0.35217068 1.9909171 -3.0111052e-19)
(1.2985416 0.0091503434 0)
(1.0964067 0.0080305097 0)
(1.9706164 0.0093922256 5.937772e-19)
(1.656898 0.015344147 -6.8308198e-19)
(1.9058132 0.009600655 0)
(-0.10915707 1.9919294 0)
(-0.074131817 1.7531661 0)
(-0.12526975 1.8874882 0)
(-0.0035877957 1.6828865 0)
(-0.025565806 1.642104 0)
(-0.024338275 1.6210024 0)
(1.3960408 0.052897054 0)
(1.3159176 -0.016450158 2.4443928e-20)
(1.0257782 1.7207987 4.6030851e-19)
(1.9566261 7.2077916e-05 -6.0366757e-19)
(1.7073668 -0.0056239083 7.1823991e-19)
(1.8972491 -0.0069572756 0)
(1.3122011 0.00011803163 5.9005476e-19)
(1.1861074 0.0013442319 -7.4521328e-19)
(0.93305496 0.020879048 0)
(-0.088615568 2.8199505 0)
(-0.12057491 2.7860419 -1.6651445e-20)
(-0.10601796 2.7945508 3.6075435e-21)
(1.5478104 0.37339188 8.7858426e-19)
(1.5059293 0.16165364 0)
(0.082350007 3.054876 -1.485533e-18)
(0.046126228 2.843591 -1.0471979e-19)
(0.18474698 3.1822502 2.2488487e-18)
(0.16877713 3.2471776 -3.5507428e-19)
(0.16671554 3.2941754 0)
(0.032685327 3.1353927 4.2106702e-19)
(0.087134012 3.174469 1.4607098e-18)
(0.083595431 3.2023204 -7.8446514e-19)
(0.051724676 3.1084432 0)
(0.86891511 0.43231152 0)
(0.75753938 0.5008304 0)
(1.3896468 0.96578419 2.4642062e-19)
(1.385314 1.1407779 -2.3218149e-19)
(1.4696471 0.77938852 0)
(1.4890591 0.73452197 0)
(1.2811519 0.012266857 -1.1894025e-18)
(1.1038416 0.009355149 1.5267403e-18)
(1.3851359 0.024181302 0)
(1.241471 0.02725102 0)
(2.0035617 0.01071929 0)
(1.8775529 0.00016708338 0)
(1.9371866 0.0065623911 0)
(1.7297157 -0.0097540804 0)
(1.6677938 -0.003834065 0)
(1.7988967 -0.0035198637 0)
(0.093821377 1.8590178 0)
(0.069094157 1.8502087 0)
(0.13836932 1.8997156 0)
(0.14950797 1.9295424 0)
(0.14242243 2.7866592 0)
(0.1823833 2.8647109 -4.7958581e-19)
(0.098165018 2.8595815 0)
(0.080203224 2.8723377 2.0659748e-19)
(0.026389662 2.8856337 -1.7248963e-19)
(0.019464835 1.8082326 0)
(0.012986226 1.7820208 0)
(0.023005111 1.812259 0)
(0.028000069 1.7944155 0)
(-0.0078584319 2.2481148 3.7423744e-21)
(-0.020961996 2.8071203 -3.1601592e-20)
(-0.0049130153 2.8656948 2.9411851e-20)
(-0.0070238811 2.8941606 0)
(-0.016749794 2.8091907 -6.3159273e-20)
(-0.013648332 2.8063082 -5.4217187e-21)
(-0.0067290243 2.2400877 1.3075174e-21)
(-0.021840164 2.5671594 4.1728997e-20)
(-0.028201282 2.6100685 -3.73893e-20)
(1.2986747 -0.02719881 1.5274088e-18)
(1.1324439 -0.041009022 -1.874007e-18)
(1.256454 -0.020238729 -1.6339676e-18)
(1.1571029 -0.024972962 2.164665e-18)
(1.4229196 0.059605083 0)
(1.3073058 0.069386015 0)
(1.4439899 0.083420201 0)
(1.4231056 0.068577929 0)
(1.2702511 0.070871686 0)
(1.5088418 0.14283562 0)
(1.4535434 0.10141664 0)
(1.317671 0.092274321 0)
(-0.1498569 2.68354 7.4717896e-21)
(-0.13839854 2.4536824 0)
(-0.17529997 2.5653136 0)
(-0.042746047 2.8108016 -1.3218185e-20)
(-0.034620681 2.8182374 -2.1787685e-22)
(-0.0010655723 2.1005374 -1.022479e-19)
(-0.050483879 1.9822593 1.033182e-19)
(0.026315636 1.7801597 0)
(-0.012597584 1.7677424 0)
(-0.04347986 1.7831292 0)
(0.01706612 1.7136319 0)
(-0.010474194 1.6895395 0)
(0.49300339 2.0005036 5.2011325e-19)
(0.51158973 2.0263936 2.5591466e-19)
(0.59269155 2.6361046 -2.6619172e-19)
(0.38271556 2.7696739 6.9343615e-19)
(0.40734495 2.2445766 8.7904871e-20)
(1.4023621 0.02279715 0)
(1.3328647 0.02200702 0)
(1.1476772 0.013873017 0)
(1.9806609 0.014515136 0)
(1.9607274 0.0103805 0)
(1.7238233 0.016709281 0)
(1.6292776 0.015509347 0)
(1.6454488 0.020483586 0)
(1.3507217 -0.013329356 1.1863713e-18)
(1.0769725 0.0049850748 -1.4810861e-18)
(1.3065114 -0.013901153 -1.2877463e-18)
(1.1736374 -0.024004846 1.6916905e-18)
(0.9835427 1.7416165 0)
(0.87772172 1.8886233 4.4772032e-19)
(1.1165475 1.6034705 1.6560544e-19)
(1.1675166 1.5998464 -2.2062003e-19)
(1.2698043 2.708842 7.2468773e-19)
(0.92812081 0.08556918 9.5261151e-19)
(1.5136869 0.18381026 0)
(1.5547129 0.27394917 -6.8913137e-19)
(1.4743561 0.23001764 -2.7324215e-20)
(1.4955833 0.14106748 0)
(0.2298325 2.9308639 9.7262471e-19)
(0.11361369 2.8197164 -2.1477944e-18)
(0.044500267 2.3762647 1.3561873e-18)
(0.078703227 0.033019792 -6.8809302e-19)
(0.37260763 3.4709328 -9.3120175e-21)
(0.2397679 3.3755877 0)
(0.25226068 3.4391346 1.3126568e-20)
(0.27396037 3.0919463 -2.4036527e-18)
(0.40805865 3.1805394 0)
(0.014521453 3.1192929 7.6326466e-20)
(0.017619835 3.1324882 -8.1727924e-19)
(0.032405901 3.1177325 1.2702659e-18)
(0.039586833 3.1486906 0)
(0.037668754 3.1573898 0)
(1.3536506 2.805634 0)
(0.73561285 1.0998437 -8.3410422e-19)
(1.3152644 1.3654498 2.9096336e-21)
(1.2341189 1.4219139 0)
(1.0832943 1.3068568 -1.7020363e-19)
(1.3340543 1.2020586 4.4567954e-20)
(0.45656402 0.52449002 -1.6178099e-18)
(0.93804633 0.42583906 -3.8352661e-20)
(0.87383685 0.35856791 7.2798568e-19)
(0.77829123 0.55083326 5.3091152e-20)
(0.66165879 0.49857467 -2.1870527e-18)
(0.89659022 0.47447358 0)
(0.95610599 0.58211786 1.1901444e-18)
(0.97385282 0.54359881 0)
(0.83651199 0.51585901 0)
(0.79267009 0.44068252 0)
(1.07967 0.8428558 6.956261e-19)
(1.546125 0.3997064 -7.5283375e-19)
(1.5269365 0.57610271 0)
(1.5284988 0.52456908 0)
(0.93926797 0.25343255 1.0791634e-18)
(1.1225354 0.73331206 -6.7241909e-19)
(1.0254796 0.69178147 1.1975175e-18)
(1.3442664 0.52403182 -1.2549438e-18)
(1.2730059 -0.004977323 7.8961844e-19)
(1.247724 0.0039888697 -8.1700681e-19)
(1.0307126 0.0033136792 0)
(1.4212953 0.04726994 0)
(1.3767813 0.035926924 -7.4683671e-19)
(1.202726 0.033948389 7.3825956e-19)
(1.8162769 0.001115112 0)
(1.7008307 -0.01549448 0)
(1.9101297 -0.0019053406 0)
(1.6772797 -0.00068821125 0)
(1.9513243 0.010443015 0)
(1.9384207 0.0087642523 0)
(0.060409018 1.8422772 0)
(0.046683973 1.8218914 0)
(0.17117441 1.8185122 3.4126217e-20)
(0.32933401 1.9803468 1.5864321e-19)
(0.20006405 1.9654704 3.5664312e-19)
(0.22616851 1.9880246 -5.7224226e-19)
(0.21412449 1.8579823 0)
(0.17671037 1.9719754 -6.2101194e-20)
(0.15575096 1.9580895 0)
(0.38009616 2.2024463 -1.2182656e-19)
(0.36333055 2.5057708 6.3840946e-19)
(0.23720068 1.9071178 5.5634542e-20)
(0.32084151 1.8594636 6.432786e-20)
(0.26525941 1.8428578 -5.2387884e-20)
(0.3507547 1.7825099 -7.9487974e-20)
(0.27511323 1.9463474 0)
(0.32515188 1.9620531 9.7239309e-20)
(0.037359425 2.4785952 -3.1568126e-20)
(0.032128689 2.8794551 0)
(0.064594264 2.5848335 1.4071281e-19)
(0.054947551 2.5901421 0)
(0.057760588 2.8940255 -2.2989311e-19)
(0.043919154 2.9325413 0)
(0.013138882 1.8516444 3.5040508e-20)
(0.014738779 1.8877912 0)
(0.025658373 1.8308494 0)
(0.018759718 1.82673 -3.9732551e-20)
(0.0027735331 2.8540124 -3.3089019e-21)
(0.013059441 2.8906176 1.9768029e-19)
(0.0066603165 2.9253326 1.3823179e-21)
(0.0049376802 2.1398397 1.6189143e-21)
(-0.0091922691 2.0470257 -4.218892e-21)
(0.013187338 1.795082 0)
(0.00010261705 1.7570601 0)
(0.039942394 1.9631319 -3.1407699e-21)
(0.027434679 1.8645349 -3.4634566e-20)
(0.029698695 1.9212155 3.4364743e-20)
(0.049936716 1.9847287 0)
(-0.040545483 2.5370231 1.3331861e-19)
(-0.05208414 2.7444081 -5.3651575e-20)
(-0.027117211 2.6510071 5.2856729e-21)
(0.0066229313 2.1413439 -1.9159931e-21)
(-0.018903394 2.6547205 -5.3220739e-21)
(-0.021407124 2.6248876 5.1504574e-20)
(1.2670021 -0.028671988 -9.1928437e-19)
(1.2761347 -0.036330471 9.8238112e-19)
(1.0963038 -0.040089174 0)
(1.4805223 0.048765906 1.6102904e-18)
(1.1982346 -0.012777574 -1.8030109e-18)
(1.158367 -0.016749556 2.0390779e-18)
(1.5039923 0.080146841 -2.2151783e-19)
(1.3994536 0.053402253 0)
(1.4029339 0.05970248 8.0669107e-19)
(1.3013671 0.061525734 -7.9907111e-19)
(1.6139961 0.083040093 -5.1825645e-20)
(1.6013142 0.070371337 4.3905348e-19)
(1.7246919 0.085300812 0)
(1.7968403 0.079767149 -1.7109797e-19)
(1.6997125 0.018128906 0)
(1.5774236 0.00020440971 0)
(1.8388299 -0.00024741384 0)
(1.6496727 -0.015968069 0)
(1.8209407 0.033364295 3.3337806e-19)
(1.8129448 0.015634111 -6.928692e-19)
(1.7801628 0.068247557 -3.4255669e-19)
(1.7917922 0.064368733 -3.9269076e-19)
(1.7468315 0.1053444 8.0454664e-19)
(1.6019114 0.11041037 0)
(1.6419066 0.15177073 0)
(-0.046096234 2.5518804 1.1309667e-19)
(-0.10643685 2.4377313 1.0596924e-20)
(-0.05234575 2.3928322 0)
(-0.084405111 2.7056096 -1.1626236e-19)
(-0.13562977 2.6828777 -1.7194126e-20)
(-0.11187219 2.7167911 1.0385014e-20)
(-0.018518141 2.8213867 7.1463745e-21)
(-0.020589672 2.7461769 -1.7067271e-21)
(-0.014924328 2.7089484 -9.7077486e-22)
(-0.020740731 2.8116262 -8.6157316e-21)
(-0.02241572 2.8154785 1.1222677e-20)
(0.056444968 1.8924446 4.3442517e-21)
(0.044179304 2.0729333 -8.4189139e-20)
(0.49413767 1.8963957 -2.2899139e-19)
(0.45299365 1.8161569 2.6665704e-20)
(0.84653569 1.9053876 -4.3421942e-19)
(0.67750832 1.992346 -2.4720383e-19)
(0.70364622 1.9946252 0)
(0.64296531 2.5974149 2.4289433e-19)
(0.69820312 2.6126135 3.8755603e-19)
(0.44908809 2.6989335 1.1187928e-19)
(0.45964018 2.7027825 -6.5352198e-19)
(0.54635027 2.6310882 6.4933305e-19)
(0.55447822 2.6532592 0)
(0.48549726 2.7129599 -6.1744357e-19)
(0.2289993 2.786274 1.2287829e-18)
(0.33589776 2.7703961 -4.9403095e-20)
(0.27083178 2.8619107 -1.6874578e-18)
(1.0226595 2.5365253 9.7017212e-19)
(0.89193008 2.551595 0)
(1.9529713 0.020533284 2.3486041e-20)
(1.6565155 0.022180606 -2.0082604e-20)
(1.6754164 0.022884041 -3.552688e-19)
(1.8747671 0.026766196 3.5613768e-19)
(1.9868493 0.024946888 0)
(0.87755398 1.6873217 0)
(0.84217284 1.570494 0)
(1.0061089 1.4805965 0)
(0.86384493 1.4942177 0)
(1.2764573 2.7425007 8.3604368e-22)
(1.1874388 2.5680314 0)
(0.93120091 2.274629 5.5987301e-21)
(0.87782091 2.5323758 0)
(0.99377291 2.6052003 -4.9015983e-19)
(1.0210113 2.5938958 3.3490967e-19)
(0.98117276 0.12053529 0)
(0.92922173 0.14361326 2.6610332e-19)
(1.1133234 0.094978284 1.4735987e-18)
(0.98597412 0.07271572 -5.6042238e-19)
(0.92185671 0.030990599 -1.7160737e-18)
(1.6125412 0.30852439 -1.3139448e-18)
(1.4855882 0.37038027 -2.206272e-20)
(1.2648204 0.30078738 1.458436e-18)
(1.4970749 0.26069808 1.1843814e-18)
(1.2827061 0.14169429 -1.9820316e-18)
(1.2398809 0.15397052 2.5250068e-19)
(1.3069212 0.22411607 -5.4351355e-19)
(1.2544442 0.19830967 0)
(1.4885863 0.1840072 9.7346015e-19)
(1.5961601 0.22549394 0)
(1.5862143 0.27167141 0)
(1.6018104 0.19358058 4.0151943e-19)
(1.6942305 0.23389817 -2.1872605e-20)
(1.6207187 0.31648142 -2.2766343e-19)
(1.6005893 0.27776738 0)
(1.5387026 0.0064542595 8.1945141e-19)
(1.7621653 0.056354625 1.0071786e-18)
(1.7247105 0.029559234 -7.7954693e-19)
(1.7139737 0.074972314 -6.871555e-19)
(1.5292394 0.042846693 -1.1562593e-18)
(1.3870674 0.10498157 0)
(1.4095928 0.0928021 0)
(1.1484735 0.0086747268 -7.3922781e-19)
(1.0834157 0.012426454 3.0024529e-19)
(1.6387116 0.10418866 1.0188529e-18)
(1.7150436 0.17331111 -1.1691349e-18)
(1.6949183 0.1893669 1.0659843e-18)
(1.6514126 0.1698209 0)
(1.70925 0.14252383 0)
(1.749469 0.12270056 -4.5647511e-19)
(1.7283207 0.10797165 -8.3215824e-19)
(0.72488346 1.4806107 2.1713831e-19)
(0.8118398 1.8309488 -2.4191302e-19)
(1.1780375 2.783426 -2.6192678e-19)
(1.2969091 3.1361438 4.6848407e-20)
(1.3398608 2.8238843 -5.4911527e-19)
(1.3951435 2.8935407 4.8138708e-20)
(1.2658259 2.5653434 2.6760693e-20)
(1.3292052 3.0590616 -1.8192974e-19)
(1.3369313 3.075991 3.6369913e-19)
(1.3165055 3.3425597 -7.6112605e-20)
(1.4335694 3.1085122 7.8577505e-20)
(1.4511 3.0365472 0)
(0.73928977 1.1705215 -7.3077238e-20)
(0.27000792 1.3620162 8.6948854e-19)
(0.6489407 0.72830396 1.0709232e-18)
(0.42375128 0.30188627 1.2298408e-18)
(0.68552721 0.55412842 1.2258442e-18)
(0.73794969 0.65804543 -2.0175465e-18)
(0.71931077 0.6775176 1.6340633e-18)
(0.62828114 0.58187133 -6.3242167e-19)
(0.53760255 0.47213913 1.4357934e-18)
(0.98213051 0.30166245 -6.049903e-19)
(0.9476098 0.35925671 0)
(0.89105959 0.31098307 1.8260681e-20)
(0.97097652 0.70218843 6.3895286e-19)
(0.94217581 0.66261682 -2.3196532e-18)
(0.79782595 0.67300637 3.0485703e-20)
(0.8356148 0.63264211 0)
(0.85644465 1.0405571 6.6483193e-19)
(1.0712429 1.0515983 5.9932769e-19)
(0.98734717 1.1771991 -6.8848542e-19)
(1.1219663 1.0795826 -2.5048548e-19)
(1.2177451 1.1526725 -5.8543753e-20)
(1.1863438 1.1495456 5.9027012e-20)
(1.1484593 0.87028177 -1.1629029e-18)
(1.1794183 0.97966935 2.3500328e-19)
(1.275773 0.98949356 0)
(1.3036333 0.9453984 -3.2512669e-19)
(1.5113927 0.40970254 3.5822095e-19)
(1.5746498 0.42459605 4.4455161e-19)
(1.5893196 0.37185701 5.5547897e-19)
(1.4638145 0.5030811 -7.2817821e-19)
(1.4612565 0.58093055 0)
(1.4930849 0.5581798 0)
(1.2413282 0.44299885 1.4204939e-20)
(1.1317656 0.33171569 0)
(1.1708368 0.29109523 7.0604617e-19)
(1.2487852 0.31730107 -2.6420348e-20)
(1.3179305 0.57900644 3.2790008e-18)
(1.2189559 0.67760286 9.0164164e-19)
(1.2254358 0.59914889 -9.9776896e-19)
(1.1177493 0.56837411 1.0793088e-18)
(1.0757714 0.58274637 6.4273918e-19)
(1.0284365 0.54797237 -6.2974461e-19)
(1.6541057 0.037981174 6.1919731e-19)
(1.9420641 0.026980822 0)
(1.9060678 0.034649789 4.1712859e-19)
(1.6741194 0.035840635 -9.3669704e-19)
(1.9200194 0.017913334 4.6016497e-19)
(1.8697707 -0.001752032 -9.7392423e-19)
(1.6895431 -0.0085149754 0)
(1.5796946 -0.0021519506 -1.9870687e-19)
(1.8397472 0.0004240547 4.9724603e-19)
(1.6712724 0.0017582388 -2.5589505e-19)
(1.6082721 0.0033589592 1.8761069e-19)
(0.028666943 1.8128202 0)
(0.033139672 1.8137705 0)
(0.038712064 1.8197247 0)
(0.031092832 1.8046879 0)
(0.083045892 1.8257842 -9.4798205e-20)
(0.098519671 1.8104862 3.7642679e-20)
(0.13739237 1.8980943 -1.0175665e-20)
(0.12001612 1.7946036 -1.8659886e-20)
(0.037575339 1.8717381 3.1697761e-20)
(0.042980827 1.8670809 -2.4393769e-20)
(0.075122209 1.8155424 -2.1262409e-20)
(0.064827956 1.822441 8.5709329e-20)
(0.047273956 1.8053369 1.1403457e-20)
(0.037537722 1.8120769 5.1651667e-21)
(0.092768089 2.524884 -1.5125683e-19)
(0.096030764 2.559191 0)
(0.16500157 2.2627415 9.6581775e-20)
(0.15107532 2.049338 4.7902054e-20)
(0.27346666 2.2269161 -9.255444e-20)
(0.23702887 2.6068789 0)
(0.28082938 2.5927521 -6.2288749e-19)
(0.33097712 2.4897007 4.4800411e-19)
(0.23515652 2.1894191 -2.2818466e-19)
(0.18150451 2.3548336 1.6377068e-19)
(0.17094118 2.493922 0)
(0.012738075 2.2076779 -3.5660061e-20)
(0.013370017 2.5921311 -6.5509532e-20)
(0.0062982504 2.3532545 0)
(0.013481608 2.6527423 -1.5997616e-20)
(0.032154936 2.4857899 3.0335671e-20)
(0.011869762 1.8487109 -7.1262963e-21)
(0.014171672 1.8439365 1.20542e-19)
(0.01481977 1.8484247 -4.2406961e-20)
(0.010550089 1.8365643 -3.3257407e-20)
(0.010890092 1.8596375 0)
(0.018505577 1.8291662 0)
(0.0049753197 1.7456234 -4.8705572e-20)
(0.033746403 1.7961731 1.4993862e-20)
(0.020991462 1.8077619 0)
(0.004699883 1.7709021 -3.7295408e-20)
(-0.011252395 1.7235513 7.4044368e-20)
(1.6022937 0.043136798 0)
(1.5937304 0.044138516 -7.4756052e-20)
(1.8917068 0.036547949 -5.7410701e-19)
(1.7551681 0.049806173 0)
(1.5904894 0.044530617 0)
(1.8694745 0.027319427 1.2430024e-20)
(1.8760736 0.027357279 8.3461481e-19)
(1.7536336 -0.00080733711 1.0844511e-18)
(1.6405373 -0.012871786 0)
(1.5625377 -0.013027902 0)
(1.7337861 0.010732713 5.7535648e-19)
(1.5782376 -0.0022321057 0)
(1.5576854 -0.018770502 0)
(0.0091540358 2.2877208 0)
(0.049448147 2.1016546 4.3265993e-21)
(0.02615003 2.2144005 -4.432434e-20)
(0.038359183 1.8060204 0)
(0.055525146 1.9667049 -2.4731584e-20)
(0.060571251 1.8663567 2.5740621e-20)
(0.049828203 1.7835855 0)
(0.49814933 1.8989862 0)
(0.4518844 1.7041769 -8.2777319e-20)
(0.41314111 1.7120021 0)
(0.5445037 1.7414671 -3.6628607e-20)
(0.6400607 1.909654 0)
(0.57738861 1.8542786 6.3074984e-20)
(1.1111703 2.7956781 -1.9881648e-20)
(1.0431647 2.5557233 -1.1167069e-18)
(1.0384778 2.4478518 1.2745227e-18)
(0.91953451 2.5383026 3.2331301e-19)
(0.90982117 2.5974503 0)
(0.97443573 2.5784726 0)
(0.99731891 2.5408572 0)
(0.97718643 2.5377213 -1.1689489e-18)
(0.73704778 2.5415733 -5.0824153e-19)
(0.85963356 2.5682008 -1.197689e-19)
(0.85917879 2.5218899 9.5832844e-20)
(0.74816581 2.5736972 0)
(0.84854514 2.5641418 0)
(0.80368026 2.5844798 -4.2299131e-19)
(0.80526727 2.5903477 0)
(0.80743761 1.4515927 0)
(0.69289592 1.2690761 -7.2657405e-19)
(0.76918156 1.2931524 -4.4638479e-20)
(0.73079034 1.3832808 0)
(0.72135002 1.3542586 1.1074768e-18)
(1.0043724 1.2188381 -1.8763184e-19)
(1.0149803 1.3515369 0)
(1.0197199 1.2774472 2.8516353e-19)
(0.8410473 1.4107094 0)
(0.86444631 1.2932842 0)
(1.2466973 2.8213921 -3.2971798e-19)
(1.2066199 2.8617101 -2.3668382e-19)
(0.99617751 2.3704287 4.0779972e-19)
(0.9962885 2.3997968 -1.409715e-19)
(1.216616 2.8085834 0)
(1.1740632 2.7627319 1.7905045e-19)
(1.2007628 2.6401176 -3.3638704e-19)
(1.1120909 2.4818459 -2.8995093e-20)
(0.67206507 1.6812212 0)
(0.67956539 1.4730807 -1.9114389e-19)
(0.72539781 1.5401487 0)
(1.116355 0.21675732 0)
(0.96485809 0.16908076 0)
(0.87857643 0.1865769 0)
(1.109265 0.23870287 -1.0993197e-18)
(0.9793229 0.22504119 6.3564009e-19)
(1.0796902 0.011407691 -5.9375915e-19)
(1.1684618 0.067941885 0)
(1.1450609 0.08751642 2.6565621e-19)
(0.9951452 0.026924865 1.0786172e-18)
(0.94183705 0.0057698483 -6.8238504e-19)
(1.3264264 3.4673678 -3.0182002e-19)
(1.3078467 3.3994832 0)
(1.3473808 3.4216207 -6.8430273e-19)
(0.53521678 3.5226007 6.5104185e-19)
(0.78179603 3.0552178 -3.3480455e-19)
(0.64027715 1.1686578 9.137147e-19)
(0.61069006 1.1843795 0)
(0.5533779 0.74664134 -2.6540619e-19)
(0.65354717 1.0242871 1.3791503e-18)
(0.67740537 0.70349089 -3.7061731e-19)
(0.66322014 0.74828688 4.1269845e-19)
(0.85256836 0.7320276 8.6695984e-19)
(0.93180089 0.75785254 0)
(0.85266084 0.86430534 0)
(0.78755701 0.81479799 0)
(1.3148387 0.82927396 1.3665349e-19)
(1.2328097 0.74112988 -8.5969301e-19)
(1.2283216 0.79387433 6.6255199e-19)
(1.3081118 0.69620936 -6.6664105e-19)
(1.4196407 0.69706962 0)
(1.4232809 0.77064851 -1.6162942e-19)
(1.1308501 0.50420113 -1.4539104e-18)
(1.1563111 0.47912628 -1.7481325e-18)
(1.0797992 0.4957711 1.1341031e-18)
(1.0684382 0.46390271 -1.1598413e-18)
(1.13694 0.38166527 -9.0123498e-19)
(1.0618086 0.38587464 1.1180274e-18)
(1.9017362 0.018687352 -5.0643998e-19)
(1.9267001 0.020914827 1.026182e-18)
(1.6527015 0.037775932 6.3838358e-19)
(1.6655966 0.043618504 -7.5978898e-19)
(1.7530011 0.043486371 0)
(1.91537 0.035335808 -1.3496006e-18)
(0.07249478 2.028095 1.5989873e-20)
(0.066795139 1.968111 0)
(0.10815947 2.0234373 2.0301327e-19)
(0.12155226 2.0143197 -1.8509065e-19)
(0.10250956 1.9255135 1.8032538e-20)
(0.091781046 1.9166071 0)
(0.018419581 2.0601993 0)
(0.02256106 1.9279675 7.7050892e-21)
(0.0396889 1.8765458 -6.9718744e-21)
(0.04907176 1.9623483 1.0375095e-20)
(0.01828956 2.2076102 1.093282e-20)
(0.012190052 2.2058633 4.356258e-21)
(0.65694697 1.6873276 -4.2865215e-19)
(0.62064322 1.7213632 4.5270603e-19)
(0.58111638 1.7126347 3.3850765e-21)
(0.57934929 1.66419 1.4594693e-20)
(0.81911971 1.7222825 0)
(0.70439057 1.8268109 2.1133003e-19)
(0.77172449 1.8376178 -2.0515396e-19)
(0.61632745 1.7316841 -3.3592255e-21)
(0.68245243 1.6553021 0)
(0.73076081 1.6268571 0)
(0.71532703 2.5114699 7.4414182e-19)
(0.71535734 2.5805058 1.4017576e-18)
(0.76132965 2.5800401 -1.0073374e-18)
(0.63426271 2.589184 -2.1258556e-19)
(0.62354076 2.6458351 3.4565094e-19)
(0.57734599 2.6188266 -8.7130492e-19)