/*--------------------------------*- C++ -*----------------------------------*\
  =========                 |
  \\      /  F ield         | OpenFOAM: The Open Source CFD Toolbox
   \\    /   O peration     | Website:  https://openfoam.org
    \\  /    A nd           | Version:  9
     \\/     M anipulation  |
\*---------------------------------------------------------------------------*/
FoamFile
{
    format      ascii;
    class       volScalarField;
    location    "0.72";
    object      alpha.phase1;
}
// * * * * * * * * * * * * * * * * * * * * * * * * * * * * * * * * * * * * * //

dimensions      [0 0 0 0 0 0 0];

internalField   nonuniform List<scalar> 
10000
(
4.7907837e-84
8.280699e-84
5.5543205e-82
4.0839364e-81
5.1971165e-81
2.1661154e-81
5.808805e-82
3.7988388e-82
3.8288913e-82
2.1355089e-80
2.4088889e-78
2.3606572e-76
2.080465e-74
1.726743e-72
1.33569e-70
9.5862807e-69
6.4046859e-67
3.9988218e-65
2.341248e-63
1.2892806e-61
6.6952383e-60
3.28621e-58
1.5276659e-56
6.7344434e-55
2.8094134e-53
1.1085054e-51
4.3036312e-50
1.7976591e-48
7.0246736e-47
1.6746223e-45
2.418745e-44
3.8970511e-43
1.0445601e-41
3.3534007e-40
1.0844466e-38
3.4946579e-37
1.1002472e-35
3.1651192e-34
8.0396327e-33
1.8949053e-31
4.5593784e-30
1.1408543e-28
2.8298317e-27
6.7263152e-26
1.5100813e-24
3.1661123e-23
6.0738268e-22
1.0308985e-20
1.6774655e-19
3.3143334e-18
6.8261288e-17
9.2291148e-16
1.1879888e-14
7.5288889e-14
3.5419298e-13
9.6098976e-13
1.1161457e-12
4.1576255e-13
1.2319151e-13
2.7281514e-14
3.3974215e-15
2.6701119e-16
1.9374863e-17
1.4316183e-18
1.0145337e-19
6.6552781e-21
4.0106397e-22
2.2181609e-23
1.1247075e-24
5.220995e-26
2.2160534e-27
8.5891096e-29
3.03512e-30
9.7598672e-32
2.8497348e-33
7.5370516e-35
1.8008939e-36
3.8764917e-38
7.4945997e-40
1.2972432e-41
2.0034232e-43
2.7506013e-45
3.3443896e-47
3.586375e-49
3.3770761e-51
2.7793984e-53
1.9895271e-55
1.2322292e-57
6.5678974e-60
2.9954728e-62
1.1619358e-64
3.8095233e-67
1.0489989e-69
2.4096914e-72
4.5777089e-75
7.0923937e-78
1.519184e-80
6.6733455e-81
6.6732125e-81
6.7140596e-81
5.2071048e-84
1.2192949e-82
6.0203581e-81
3.8972929e-80
5.5780755e-80
4.5494968e-80
2.7830224e-80
1.1251099e-80
8.9672879e-81
9.5985995e-79
1.1242161e-76
1.1811535e-74
1.1239904e-72
9.7722659e-71
7.8144665e-69
5.780127e-67
3.9741145e-65
2.5507975e-63
1.5340809e-61
8.673196e-60
4.6228681e-58
2.3287892e-56
1.1110725e-54
5.0219279e-53
2.1471041e-51
8.800953e-50
3.6390607e-48
1.5035871e-46
4.936877e-45
1.1534366e-43
2.6620418e-42
7.8849938e-41
2.5940914e-39
8.4794414e-38
2.7284691e-36
8.7187031e-35
2.7224714e-33
7.6009094e-32
1.7465255e-30
3.3858981e-29
6.6978921e-28
1.5307894e-26
3.7331597e-25
8.9518973e-24
2.0528854e-22
4.4584724e-21
9.0607958e-20
1.6964391e-18
3.0987727e-17
4.9427529e-16
3.4753543e-15
1.2651961e-14
7.8366016e-14
3.5353222e-13
9.4104365e-13
1.5187512e-12
2.0051699e-12
1.0287789e-11
1.0437701e-11
3.6000099e-12
4.8013875e-13
3.7654039e-14
2.5286783e-15
1.7187526e-16
1.1328186e-17
6.9211705e-19
3.8665163e-20
1.9758396e-21
9.245793e-23
3.9621663e-24
1.5546419e-25
5.5822475e-27
1.8321759e-28
5.4863484e-30
1.4950689e-31
3.6967441e-33
8.2675092e-35
1.666772e-36
3.0187261e-38
4.8929451e-40
7.0710766e-42
9.0740449e-44
1.0295104e-45
1.0280052e-47
8.9905868e-50
6.8501598e-52
4.5229152e-54
2.5735197e-56
1.254906e-58
5.2146835e-61
1.8360133e-63
5.4525764e-66
1.3598396e-68
2.8292166e-71
4.8302067e-74
6.483259e-77
1.3640123e-79
4.0807649e-80
7.3437174e-81
7.1654164e-81
4.5512343e-81
1.8865703e-79
6.69144e-78
3.1075401e-77
3.8895026e-77
3.0002225e-77
1.7448483e-77
6.9084352e-78
4.7318456e-78
5.0267809e-76
6.0433555e-74
6.4843215e-72
6.2818887e-70
5.5448454e-68
4.4918994e-66
3.3600094e-64
2.3329464e-62
1.5101414e-60
9.1483598e-59
5.2038304e-57
2.7873677e-55
1.4094532e-53
6.7420128e-52
3.0493127e-50
1.2993148e-48
5.3242793e-47
2.301756e-45
1.0458832e-43
3.300634e-42
5.6379263e-41
7.641931e-40
1.6116675e-38
4.9160406e-37
1.5793424e-35
5.0194665e-34
1.5861281e-32
4.9490391e-31
1.3852826e-29
2.9931398e-28
4.7301504e-27
6.906887e-26
1.2941936e-24
2.9763842e-23
7.0627025e-22
1.6234045e-20
3.5560811e-19
7.3990415e-18
1.5206013e-16
2.9089505e-15
2.2428885e-14
7.5467273e-14
8.3926821e-13
4.6845574e-12
2.0154375e-11
4.7642746e-11
5.8338466e-11
1.0163798e-10
4.8657423e-10
6.5973235e-10
2.4811252e-10
3.31287e-11
2.1583978e-12
1.6547616e-13
1.2559815e-14
8.3660783e-16
5.034724e-17
2.7638797e-18
1.3849351e-19
6.334045e-21
2.6433675e-22
1.0061997e-23
3.491472e-25
1.1033518e-26
3.170697e-28
8.2687409e-30
1.9519671e-31
4.1589638e-33
7.9724378e-35
1.370121e-36
2.1029292e-38
2.871037e-40
3.4719293e-42
3.7013983e-44
3.4617285e-46
2.8253574e-48
2.0011484e-50
1.2230356e-52
6.4153864e-55
2.873655e-57
1.0940925e-59
3.5275703e-62
9.6048532e-65
2.2015278e-67
4.2059562e-70
6.5190561e-73
9.0766539e-76
9.5551886e-77
5.2579805e-77
1.3784376e-77
9.980545e-78
2.3359074e-78
1.6245938e-76
4.4059459e-75
1.5753609e-74
1.8245102e-74
1.3831677e-74
7.8505244e-75
3.0685338e-75
1.9277516e-75
2.0646027e-73
2.5611558e-71
2.8183736e-69
2.7883134e-67
2.5055664e-65
2.0614328e-63
1.5631706e-61
1.0986145e-59
7.189387e-58
4.3986226e-56
2.524803e-54
1.3637109e-52
6.9490672e-51
3.3480258e-49
1.5241435e-47
6.5266812e-46
2.6866549e-44
1.1920425e-42
5.8480793e-41
1.9053025e-39
2.8852896e-38
2.6833065e-37
3.2731948e-36
7.8791896e-35
2.3924299e-33
7.441694e-32
2.3175098e-30
7.223756e-29
2.0770294e-27
4.440759e-26
6.0336887e-25
6.3138176e-24
8.4408061e-23
1.7047618e-21
3.9312839e-20
8.973736e-19
1.9755559e-17
4.4095563e-16
9.4562597e-15
9.0730402e-14
3.3482445e-13
3.5526067e-12
3.8895121e-11
2.0241254e-10
8.367454e-10
1.9645099e-09
2.51421e-09
5.1767259e-09
1.4037371e-08
3.1375943e-08
1.3140187e-08
1.5749673e-09
3.1080633e-12
3.8980237e-13
2.4502051e-13
4.7028981e-14
2.4640167e-15
1.056195e-16
5.0538661e-18
2.2656241e-19
9.1740613e-21
3.3706132e-22
1.1252845e-23
3.4109304e-25
9.3745321e-27
2.3317418e-28
5.236504e-30
1.0587612e-31
1.9211706e-33
3.1169137e-35
4.5032394e-37
5.7693894e-39
6.524259e-41
6.4802179e-43
5.6243198e-45
4.2414381e-47
2.7653585e-49
1.5508692e-51
7.4556549e-54
3.0670193e-56
1.0797171e-58
3.2696893e-61
8.6186238e-64
2.0363853e-66
4.3174465e-69
7.8762595e-72
8.4496666e-74
7.6363024e-74
4.2750247e-74
1.2518714e-74
7.1385405e-75
9.004505e-76
7.9248055e-74
1.9096158e-72
5.9684366e-72
6.581348e-72
4.9486321e-72
2.7654208e-72
1.0741142e-72
6.1847973e-73
6.7802763e-71
8.7758656e-69
9.9750134e-67
1.0127202e-64
9.2961294e-63
7.7869845e-61
5.9969178e-59
4.2719242e-57
2.8291436e-55
1.7494376e-53
1.0137178e-51
5.522114e-50
2.8358627e-48
1.3760174e-46
6.3044393e-45
2.7152604e-43
1.1233925e-41
5.0135355e-40
2.5180418e-38
8.5643131e-37
1.3106116e-35
1.1012089e-34
8.8835297e-34
1.2844163e-32
3.1102321e-31
9.07148e-30
2.7630774e-28
8.5712005e-27
2.5588397e-25
5.5907794e-24
6.9122246e-23
5.478835e-22
4.7623201e-21
7.4838918e-20
1.6183093e-18
3.6516763e-17
8.5533325e-16
1.9515117e-14
2.0684491e-13
8.325523e-13
1.3268331e-11
1.3164926e-10
1.3162838e-09
6.319798e-09
2.451248e-08
5.4376247e-08
2.9075798e-07
4.7137373e-06
7.9344683e-06
3.3281585e-06
5.0187135e-07
2.54428e-08
1.0526855e-10
8.1990225e-12
1.135928e-12
1.3355751e-13
4.4524384e-14
4.0490182e-15
1.3675743e-16
5.3157565e-18
2.0643114e-19
7.2618385e-21
2.3044004e-22
6.6197089e-24
1.7201397e-25
4.0350554e-27
8.5232946e-29
1.6164098e-30
2.7427538e-32
4.147687e-34
5.5663981e-36
6.6012918e-38
6.8856232e-40
6.2870028e-42
5.0023331e-44
3.4553109e-46
2.0675353e-48
1.0742633e-50
4.8704298e-53
1.9520105e-55
7.0755526e-58
2.3464151e-60
7.0814154e-63
1.8947856e-65
4.3210673e-68
1.0480993e-70
4.7439586e-71
4.5904984e-71
2.5437291e-71
7.7136498e-72
3.860723e-72
2.7706697e-73
2.7324473e-71
6.2147043e-70
1.8035913e-69
1.9270634e-69
1.4434194e-69
7.9925016e-70
3.0900004e-70
1.5679464e-70
1.7807991e-68
2.4529914e-66
2.913924e-64
3.0587392e-62
2.8827204e-60
2.4672354e-58
1.9345067e-56
1.3991188e-54
9.3874907e-53
5.8706566e-51
3.4354254e-49
1.8875689e-47
9.7673304e-46
4.7708317e-44
2.1981038e-42
9.515111e-41
3.9629573e-39
1.7736384e-37
8.741239e-36
2.9807777e-34
4.8852461e-33
4.5308647e-32
3.4810968e-31
3.0422124e-30
4.0815057e-29
9.5797928e-28
2.7986467e-26
8.6059252e-25
2.6578127e-23
5.9431393e-22
6.8587602e-21
4.433954e-20
2.594087e-19
2.7455143e-18
5.1246389e-17
1.1703405e-15
2.7908399e-14
3.1722352e-13
1.453111e-12
2.5661338e-11
4.3749324e-10
3.8256377e-09
2.9992409e-08
1.397756e-06
9.0491476e-06
1.9570388e-05
2.5419228e-05
4.9500999e-05
5.1231446e-05
4.6912407e-05
1.2617596e-05
4.3629416e-08
3.4429044e-09
2.7075721e-10
2.0750616e-11
2.2695808e-12
1.8795986e-13
3.0180217e-14
2.3448056e-15
8.6392717e-17
2.8553119e-18
9.2959975e-20
2.7611669e-21
7.3807894e-23
1.7785153e-24
3.8580662e-26
7.5126865e-28
1.3089702e-29
2.0328443e-31
2.8033814e-33
3.4421429e-35
3.7312855e-37
3.5512352e-39
2.9611166e-41
2.1611143e-43
1.383786e-45
7.8214329e-48
3.9769996e-50
1.9258744e-52
8.6799745e-55
3.5699172e-57
1.3050249e-59
4.1147131e-62
1.0918208e-64
2.196056e-67
2.0371e-68
2.2631476e-68
2.2049546e-68
1.176564e-68
3.6099933e-69
1.668183e-69
7.1254199e-71
7.3817443e-69
1.6313663e-67
4.5341659e-67
4.747036e-67
3.5503629e-67
1.9571727e-67
7.5394899e-68
3.0597064e-68
3.6306013e-66
5.5503848e-64
7.0390916e-62
7.7341857e-60
7.542575e-58
6.6305947e-56
5.3127283e-54
3.9115655e-52
2.6641743e-50
1.6874084e-48
9.9824671e-47
5.5363479e-45
2.888052e-43
1.4205493e-41
6.5831146e-40
2.8647052e-38
1.2030394e-36
5.4278259e-35
2.6086044e-33
8.6219283e-32
1.5021991e-30
1.6833404e-29
1.4951281e-28
1.0227507e-27
6.7659213e-27
9.4100281e-26
2.4947935e-24
7.6232246e-23
2.4175691e-21
5.4190592e-20
5.7877982e-19
3.2184389e-18
1.4201724e-17
9.2744566e-17
1.3456225e-15
2.8293666e-14
3.3807361e-13
1.7331487e-12
3.1921162e-11
6.9624702e-10
1.164856e-08
3.8703429e-07
1.1259913e-05
2.3331476e-05
4.4394056e-05
4.621871e-05
4.8410441e-05
4.9228094e-05
5.1773835e-05
5.1827858e-05
5.1827858e-05
4.3343781e-05
2.8523449e-06
6.2093768e-09
5.9300302e-10
3.928985e-11
3.4855507e-12
2.3232535e-13
2.7977891e-14
1.7877035e-15
5.6163295e-17
1.5286027e-18
3.9805984e-20
9.4383205e-22
2.0227177e-23
4.0542816e-25
7.4233183e-27
1.2092663e-28
1.7427838e-30
2.212545e-32
2.4607133e-34
2.3816497e-36
1.9906939e-38
1.4243375e-40
8.6751369e-43
4.7944788e-45
2.7389895e-47
1.5298754e-49
9.2593363e-52
4.423409e-54
1.700801e-56
5.3112392e-59
1.4335056e-61
3.1866927e-64
5.86969e-66
5.8273243e-66
8.9587068e-66
8.7140846e-66
4.4268195e-66
1.3592297e-66
5.9644447e-67
1.5859015e-68
1.6451205e-66
3.5958811e-65
9.7602163e-65
1.0086153e-64
7.5499326e-65
4.1586828e-65
1.5977451e-65
4.0141792e-66
5.0065773e-64
9.5942876e-62
1.3605332e-59
1.6009779e-57
1.6368342e-55
1.4902293e-53
1.2268048e-51
9.2299957e-50
6.3983384e-48
4.1119893e-46
2.462499e-44
1.3799226e-42
7.2621369e-41
3.5990131e-39
1.6782449e-37
7.3431057e-36
3.1097629e-34
1.4161772e-32
6.6767643e-31
2.1388834e-29
3.9199623e-28
5.4048949e-27
5.7528789e-26
3.493602e-25
1.439068e-24
9.6373821e-24
2.0464799e-22
6.2157092e-21
2.0607998e-19
4.6089584e-18
4.3799622e-17
1.9849573e-16
6.2766714e-16
2.4751142e-15
2.7977631e-14
3.083634e-13
1.366784e-12
2.3401938e-11
4.9459705e-10
1.0125243e-08
3.9122264e-06
2.3365548e-05
3.7326252e-05
3.6566839e-05
2.3124931e-05
1.316525e-05
7.7032305e-06
1.6809476e-06
3.134109e-07
3.2355424e-05
5.175287e-05
5.1176113e-05
4.0452186e-05
2.1371587e-06
2.674047e-08
1.7260611e-09
9.8121563e-11
4.901346e-12
2.3811667e-13
1.2672113e-14
5.2539335e-16
1.505728e-17
3.7903491e-19
8.8533879e-21
1.8802104e-22
3.6084332e-24
6.244461e-26
9.7189767e-28
1.3587404e-29
1.7034917e-31
1.9104378e-33
1.9104139e-35
1.7298794e-37
1.3998794e-39
1.0148712e-41
6.4431821e-44
3.0274726e-46
1.1745082e-48
4.0410238e-51
1.3249712e-53
4.0430381e-56
1.1430802e-58
2.7721055e-61
1.3364414e-63
9.2984483e-64
2.0985386e-63
3.0445379e-63
2.8969063e-63
1.3930657e-63
4.2694992e-64
1.8058833e-64
3.1467515e-66
3.1286758e-64
6.8450539e-63
1.837744e-62
1.8837514e-62
1.4142919e-62
7.8088666e-63
2.9889881e-63
3.3854649e-64
4.50667e-62
1.0838856e-59
1.9551486e-57
2.578606e-55
2.8237771e-53
2.6938037e-51
2.2945421e-49
1.7718648e-47
1.2536279e-45
8.1895325e-44
4.9699437e-42
2.8154731e-40
1.495137e-38
7.4657683e-37
3.5028168e-35
1.5411323e-33
6.5713715e-32
3.0017371e-30
1.3900863e-28
4.4091276e-27
8.6761312e-26
1.4629057e-24
1.776134e-23
9.8611838e-23
3.0682949e-22
1.1148288e-21
1.6616663e-20
5.1618641e-19
1.9407167e-17
4.0761572e-16
2.8372379e-15
8.131461e-15
1.5384849e-14
3.77892e-14
2.573927e-13
1.4072675e-12
1.4834351e-11
2.92396e-10
5.8087696e-09
1.5176228e-06
3.6491238e-05
3.8085666e-05
3.7532616e-05
1.9562378e-05
4.239466e-07
3.1824171e-07
3.1113503e-07
3.1178449e-07
3.1283362e-07
3.1325176e-07
2.9963137e-06
4.9106167e-05
4.9329819e-05
2.0880194e-05
1.2173627e-07
8.394762e-09
4.5135211e-10
2.10559e-11
9.2497965e-13
5.0635392e-14
3.7986484e-15
1.2809189e-16
3.099886e-18
7.189217e-20
1.5336269e-21
2.9606984e-23
5.1699392e-25
7.9478202e-27
1.03442e-28
1.1677955e-30
1.1514418e-32
9.9111931e-35
7.4186695e-37
4.79755e-39
2.6628613e-41
1.3418197e-43
6.7008573e-46
2.9208435e-48
1.0994534e-50
3.6849659e-53
1.0798319e-55
2.7123275e-58
6.1475938e-61
1.6646725e-61
3.1766557e-61
6.6435575e-61
8.8661739e-61
8.2343299e-61
3.7506658e-61
1.1442527e-61
4.71662e-62
5.7196766e-64
5.1950168e-62
1.1471315e-60
3.0767682e-60
3.1392231e-60
2.368005e-60
1.3106109e-60
5.0040673e-61
6.5887393e-62
5.6193987e-60
7.4875296e-58
1.1562791e-55
1.5245451e-53
1.8331891e-51
1.871337e-49
1.6702364e-47
1.3347357e-45
9.6960298e-44
6.4691919e-42
3.994996e-40
2.2971171e-38
1.2359039e-36
6.2465198e-35
2.9733252e-33
1.3344067e-31
5.6750157e-30
2.3205799e-28
9.2346278e-27
3.7057381e-25
1.6533793e-23
5.5930875e-22
6.8267113e-21
2.8479568e-20
6.2560408e-20
1.3585281e-19
1.3544542e-18
4.7369801e-17
1.9745861e-15
2.9466875e-14
1.1894718e-13
1.9406194e-13
2.2087041e-13
3.2278122e-13
9.1537271e-13
1.2492409e-11
3.2121202e-10
6.4350229e-09
3.8950759e-07
2.4548254e-05
3.9945562e-05
3.2331314e-05
2.4716093e-06
4.7449896e-07
3.5100814e-07
3.1143307e-07
3.0037273e-07
3.1161966e-07
3.1199747e-07
3.1249125e-07
3.1190447e-07
1.7260874e-05
4.7985295e-05
3.6507685e-05
1.7503948e-06
1.5777162e-08
7.8199118e-10
3.3321517e-11
1.3242813e-12
1.0458289e-13
9.7099516e-15
3.3719342e-16
7.7380629e-18
1.6941583e-19
3.385013e-21
5.9746679e-23
9.2905934e-25
1.3011729e-26
1.6559134e-28
1.8654128e-30
1.8528553e-32
1.6401459e-34
1.2973852e-36
9.420781e-39
6.4215584e-41
3.5875317e-43
1.7105811e-45
7.5071217e-48
2.9606704e-50
9.9513893e-53
2.7944513e-55
6.7757216e-58
4.3857322e-59
4.7813954e-59
9.5505419e-59
1.817563e-58
2.246447e-58
2.0257515e-58
8.7774908e-59
2.6572085e-59
1.0781029e-59
9.7719528e-62
7.6652505e-60
1.7180234e-58
4.6392794e-58
4.7235845e-58
3.5823693e-58
1.9922602e-58
7.6284488e-59
5.6173684e-60
6.899509e-58
7.6145843e-56
7.7021671e-54
1.4934583e-51
2.6467807e-49
3.1544799e-47
3.072624e-45
2.5986773e-43
1.9640486e-41
1.3487337e-39
8.5086142e-38
4.9707522e-36
2.7060277e-34
1.3794748e-32
6.5968996e-31
2.9589622e-29
1.2666072e-27
5.4508618e-26
2.3512213e-24
8.8527501e-23
2.9087064e-21
7.8165354e-20
9.0679185e-19
3.6627568e-18
7.3623017e-18
1.2484155e-17
7.518229e-17
2.5466154e-15
9.6302509e-14
1.1810699e-12
4.2336686e-12
7.0210346e-12
8.8766122e-12
1.013613e-11
9.2431695e-12
1.8020048e-10
3.4936196e-09
1.2011998e-07
1.104475e-05
3.9983026e-05
3.797517e-05
1.2813258e-06
1.1598452e-06
9.8219406e-07
1.38632e-06
7.2643641e-07
2.8927927e-07
3.0063837e-07
3.1169656e-07
3.1441891e-07
3.1645173e-07
3.2737543e-07
3.1934868e-05
5.1311351e-05
1.2036574e-05
3.7365517e-08
1.5927753e-09
5.783498e-11
1.8215126e-12
6.7157078e-14
1.5174535e-14
7.1590183e-16
1.2970797e-17
2.5274474e-19
5.0493052e-21
9.0973345e-23
1.440831e-24
2.0194897e-26
2.5510669e-28
2.9260092e-30
2.9962786e-32
2.7265613e-34
2.2020604e-36
1.5540907e-38
9.789615e-41
6.2358996e-43
3.4240376e-45
1.5795468e-47
6.1235571e-50
1.9659889e-52
4.6283535e-55
7.5128237e-57
8.0767644e-57
1.3435028e-56
2.4881084e-56
4.3225604e-56
5.0622991e-56
4.3200828e-56
1.8037736e-56
5.4156407e-57
2.182342e-57
1.6053515e-59
1.0193256e-57
2.3258293e-56
6.3660007e-56
6.4818181e-56
4.9390965e-56
2.788536e-56
1.0449841e-56
1.1112095e-57
1.3992488e-55
1.5702879e-53
1.5795936e-51
1.542214e-49
1.2409968e-46
2.3205532e-44
2.6803077e-42
2.4888779e-40
1.99742e-38
1.4308662e-36
9.3169198e-35
5.5798967e-33
3.1008049e-31
1.6072593e-29
7.7440679e-28
3.4799908e-26
1.6339497e-24
1.0563342e-22
6.4019642e-21
1.4587307e-19
1.1299055e-18
5.898028e-18
5.0498692e-17
2.7621967e-16
6.4344799e-16
9.3766257e-16
3.481991e-15
9.4179978e-14
2.6049185e-12
2.7843154e-11
1.7463448e-10
3.6189226e-10
6.7990932e-10
2.7738722e-09
6.3513475e-09
1.5056382e-09
1.1102484e-08
1.606236e-06
2.8396653e-05
3.8987753e-05
2.8050254e-06
1.2813258e-06
1.2813258e-06
5.9878636e-06
1.3523978e-06
2.8927927e-07
2.8927927e-07
2.8927927e-07
1.5593882e-06
2.1111435e-06
3.5557298e-07
4.0839024e-07
1.7149444e-05
5.3049598e-05
2.5621891e-05
5.0283999e-08
1.7669875e-09
5.3146762e-11
2.379377e-12
1.2646609e-13
2.6270053e-14
2.1888675e-15
4.890894e-17
6.2160545e-19
1.0070634e-20
1.7260617e-22
2.6629064e-24
3.642057e-26
4.4384462e-28
4.8241585e-30
4.7206482e-32
4.1323107e-34
3.1918337e-36
2.1943658e-38
1.3093142e-40
6.6825178e-43
3.0347675e-45
1.1508345e-47
3.2940079e-50
9.0179726e-53
1.3310319e-54
8.993943e-55
2.1798885e-54
3.2967139e-54
5.6286798e-54
8.9986367e-54
1.0261169e-53
8.032539e-54
3.2866315e-54
9.7895566e-55
3.9513319e-55
2.5799556e-57
1.2351633e-55
2.8729158e-54
8.0197035e-54
8.1744474e-54
6.2527092e-54
3.5850934e-54
2.2240183e-56
1.2634923e-54
1.6056004e-52
1.8263476e-50
1.8778754e-48
1.7383796e-46
2.1577681e-44
1.0416085e-40
2.0710629e-38
2.3140068e-36
2.0502391e-34
1.5660731e-32
1.0690854e-30
6.6297574e-29
3.7166598e-27
1.9713167e-25
1.5961873e-23
2.7138641e-21
1.1090108e-19
6.3142984e-19
8.775273e-19
1.5670032e-19
1.7621058e-19
4.2478232e-17
4.0761899e-16
6.4139382e-16
7.3833533e-16
5.9295922e-15
6.262229e-14
2.0933303e-13
4.0247557e-11
1.7314281e-09
7.8414775e-09
2.0759198e-08
6.7459778e-08
1.3496318e-07
2.6099217e-08
4.941548e-09
1.5021529e-08
4.3008316e-06
1.8541013e-05
4.0940737e-06
1.2980705e-06
1.2791692e-06
2.6029431e-06
6.0844891e-06
3.7073816e-07
2.8969858e-07
2.8927927e-07
1.6591684e-06
2.490143e-06
2.4238616e-06
7.1987261e-07
5.1900393e-07
4.111471e-06
5.4046623e-05
2.4064568e-05
5.277259e-08
6.1434354e-09
3.4565868e-10
1.1847198e-11
3.9388298e-13
3.9816552e-14
2.3564659e-15
5.8933253e-17
9.3715747e-19
1.5311988e-20
2.4516301e-22
3.5410146e-24
4.5584197e-26
5.2216327e-28
5.2981606e-30
4.7567635e-32
3.7771524e-34
2.6207298e-36
1.5684466e-38
7.9363201e-41
3.1903492e-43
9.9074796e-46
2.0934526e-48
1.8905076e-50
1.2128812e-51
1.5278918e-52
2.5363817e-52
5.0165898e-52
7.1077605e-52
1.1174862e-51
1.6611256e-51
1.8504916e-51
1.3285177e-51
5.3509506e-52
1.9229203e-52
7.4967256e-53
4.094973e-55
1.3815846e-53
3.2643614e-52
9.3457616e-52
9.5565145e-52
7.3502448e-52
4.1789702e-52
1.2673569e-52
1.6572253e-50
2.3910593e-48
2.7763833e-46
2.8844651e-44
2.7248245e-42
2.3499849e-40
1.8708628e-38
1.8460471e-36
2.650406e-34
2.5966259e-32
2.0850331e-30
1.4616514e-28
9.2151208e-27
5.3164189e-25
2.822019e-23
1.3693087e-21
6.5435475e-20
4.7440168e-18
5.1955862e-16
1.6959946e-14
1.1070523e-13
2.1829825e-13
2.3469583e-13
1.7725373e-13
1.8011846e-13
4.4584654e-13
5.9085192e-13
2.6224831e-13
4.8128897e-12
1.3849222e-09
4.9636437e-08
2.3763132e-08
1.3001247e-07
1.8102416e-06
6.4885189e-07
2.7122343e-08
6.3702156e-08
4.434622e-07
2.5678354e-06
1.5015392e-06
1.3866435e-06
1.3149617e-06
1.2980705e-06
3.1870755e-06
6.0955866e-06
2.695759e-06
2.897852e-07
2.9570265e-07
2.0032529e-06
2.8207168e-06
1.1791173e-06
5.7722808e-07
5.4783376e-07
1.5329165e-06
5.4170219e-05
4.4315529e-05
2.5960903e-06
5.1132099e-10
2.3833589e-10
1.4260903e-11
5.1508211e-13
3.8420916e-14
1.8543989e-15
4.4315052e-17
8.0930004e-19
1.3785669e-20
2.1102799e-22
2.8289802e-24
3.3276004e-26
3.4303169e-28
3.0774944e-30
2.3577176e-32
1.507545e-34
8.1114129e-37
3.6016438e-39
1.3303113e-41
3.5712233e-44
8.5623012e-47
3.7849868e-48
7.5343098e-49
1.1155303e-49
2.4595578e-50
5.9957506e-50
9.9966521e-50
1.3487694e-49
1.9655928e-49
2.7378929e-49
2.9702004e-49
1.9716413e-49
8.0193068e-50
2.0293893e-49
1.3531827e-49
6.427221e-53
1.4444665e-51
3.4357546e-50
1.0136728e-49
1.0413689e-49
8.0525833e-50
4.7093106e-50
1.6380544e-50
5.4044447e-49
8.0142273e-47
1.0659069e-44
1.2554166e-42
1.3233978e-40
1.2564417e-38
1.0917309e-36
1.1136481e-34
1.1138706e-32
1.03119e-30
8.0139433e-29
5.4831308e-27
3.3838668e-25
1.9130737e-23
9.9743892e-22
4.7627311e-20
2.172489e-18
1.3321022e-16
1.4231127e-14
5.9006372e-13
4.8482163e-12
1.0959172e-11
1.2151332e-11
9.0196526e-12
1.1610758e-11
2.3803364e-11
1.9270383e-11
5.1786863e-12
1.2365671e-10
2.8343119e-09
8.9187183e-07
2.2533704e-05
3.055438e-05
3.2267447e-06
3.8162386e-08
3.2452097e-08
1.3014282e-06
3.7767756e-06
4.6004295e-06
2.1142906e-06
1.5011878e-06
1.3862919e-06
1.3712131e-06
1.837849e-06
6.1523978e-06
6.1279266e-06
3.0263421e-07
3.4526166e-07
8.0554783e-07
2.4711063e-06
9.5741424e-07
6.1512171e-07
2.0870735e-06
4.794246e-05
5.4170219e-05
5.4170219e-05
2.2102097e-06
3.426388e-10
5.4600256e-10
1.5676776e-11
4.9001339e-13
2.7984377e-14
1.4296725e-15
4.2963811e-17
4.867614e-19
5.4732423e-21
8.6712158e-23
1.0935011e-24
1.1147593e-26
9.4545395e-29
6.6590349e-31
3.758521e-33
1.7006671e-35
6.3073193e-38
1.8649588e-40
3.8434027e-43
3.3139213e-45
9.6507441e-46
2.0755517e-46
5.7201942e-47
1.0784447e-47
4.9241917e-48
1.1802458e-47
1.7408155e-47
2.2567838e-47
3.0741636e-47
4.0403159e-47
4.2709929e-47
2.6597747e-47
1.6492911e-47
2.8524842e-46
2.8627555e-46
9.9320497e-51
1.4294357e-49
3.3731819e-48
1.0287832e-47
1.0639458e-47
8.3112388e-48
4.7718529e-48
2.0117986e-48
5.8139028e-48
5.8575161e-46
7.9691223e-44
1.297114e-41
2.2090894e-39
2.8092504e-37
2.9644711e-35
2.70817e-33
2.1889311e-31
1.5886461e-29
1.0449328e-27
6.2844076e-26
3.4817636e-24
1.7888767e-22
8.5513085e-21
3.7804668e-19
1.5851091e-17
8.0534044e-16
6.4920661e-14
2.4403277e-12
1.9781658e-11
4.5563216e-11
5.2382809e-11
3.0010398e-11
1.9042118e-11
2.172645e-11
2.5177075e-11
1.4703005e-10
3.6608598e-09
8.8036114e-08
3.5024054e-05
8.4649163e-05
6.6554329e-05
3.9738824e-08
3.589919e-08
3.9738824e-08
1.4870849e-06
4.1559587e-06
4.641611e-06
5.0416047e-06
9.5026938e-06
4.2834377e-06
2.5558884e-06
1.2767868e-06
5.9456678e-06
7.0912184e-06
4.1173662e-07
4.174326e-07
9.7374629e-07
8.7957021e-06
1.9095336e-05
4.2627191e-05
5.3959111e-05
5.4125647e-05
5.4170219e-05
5.2174631e-05
5.6238836e-10
8.8602366e-11
2.6485257e-10
1.1327181e-11
4.2416118e-13
3.2228583e-14
2.6768305e-15
7.1973694e-17
4.5282609e-19
2.7609286e-21
1.6798297e-23
1.8197389e-25
1.4667811e-27
8.8639191e-30
3.8142818e-32
1.584853e-34
6.5024867e-37
2.192751e-39
6.6720358e-42
1.5534651e-43
8.4823908e-44
6.1079656e-44
1.36113e-44
4.5218632e-45
1.2038608e-45
9.1403662e-46
2.004754e-45
2.6715898e-45
3.3229013e-45
4.3037612e-45
5.3647616e-45
5.5426756e-45
3.3499673e-45
1.060307e-44
2.3791202e-43
2.9340521e-43
1.5002846e-48
1.3571194e-47
3.0999126e-46
9.8061492e-46
1.0250512e-45
8.0888754e-46
4.608176e-46
1.9006191e-46
2.0125758e-46
5.842652e-45
9.1653406e-43
1.1612703e-40
1.2903714e-38
1.267229e-36
1.1100789e-34
8.7397605e-33
6.2239867e-31
4.0338003e-29
2.3928146e-27
1.3057847e-25
6.5886483e-24
3.0901559e-22
1.3522959e-20
5.5062792e-19
2.1259639e-17
9.431999e-16
6.4082723e-14
2.448252e-12
2.1631383e-11
5.2708405e-11
6.0218628e-11
4.5752331e-11
1.9171806e-11
1.9346271e-11
5.6385515e-11
4.1436645e-10
1.2755545e-08
7.7359975e-06
8.3046231e-05
8.4818918e-05
8.4806772e-05
2.1067944e-05
3.688654e-08
4.1020034e-08
4.2439092e-08
4.4976436e-08
2.6730171e-07
2.8480136e-07
0.00010687089
9.2321596e-05
2.5624693e-05
1.2767868e-06
1.382876e-06
7.3236353e-06
4.7538362e-06
5.6585291e-07
1.3535222e-06
3.5288913e-05
5.3670008e-05
5.3744409e-05
5.3767168e-05
5.3908955e-05
5.4130788e-05
1.0194496e-05
8.6894161e-11
8.5102837e-12
9.0828743e-11
4.3775094e-12
1.4945543e-13
2.1191598e-14
4.4206888e-15
1.6337946e-16
1.5306548e-18
7.2061185e-21
1.1669011e-23
5.1631904e-26
4.0555225e-28
2.5427066e-30
2.3967735e-32
1.9294462e-34
1.3535638e-36
6.1222695e-39
3.4171619e-41
6.9137105e-42
5.7285841e-42
2.4550494e-42
1.0315415e-42
4.529147e-43
1.6867711e-43
1.445385e-43
2.9960841e-43
3.665236e-43
4.2887121e-43
5.4398316e-43
6.4664788e-43
6.5147354e-43
5.1246326e-43
7.6576765e-42
1.2826013e-40
1.7827009e-40
2.1982561e-46
1.2564436e-45
2.6793307e-44
8.8107618e-44
9.3606985e-44
7.4045812e-44
4.2620739e-44
1.6126977e-44
5.0675797e-45
1.361363e-44
1.2845244e-42
1.597562e-40
1.7699282e-38
1.7410788e-36
1.5285026e-34
1.1999001e-32
8.5582001e-31
5.5770583e-29
3.3302842e-27
1.829505e-25
9.2892331e-24
4.3784139e-22
1.9127247e-20
7.7445783e-19
3.1866774e-17
1.8573322e-15
1.2960297e-13
3.2960578e-12
2.1030543e-11
4.4218142e-11
5.1162751e-11
3.6376468e-11
1.8085689e-11
1.8085488e-11
6.7874277e-11
1.5696421e-09
4.1190393e-08
4.8726807e-06
7.3084003e-05
8.4806772e-05
8.4826619e-05
8.4806783e-05
1.2828424e-05
4.2439092e-08
4.4976436e-08
4.7902381e-08
5.5790079e-08
1.2595846e-07
0.00013283055
0.00013277045
4.7575259e-05
1.2523637e-06
1.2422083e-06
7.4733568e-06
8.2297107e-06
1.7176196e-06
1.0523397e-06
4.0732537e-06
4.6350282e-05
5.3669491e-05
5.377896e-05
4.7034113e-05
1.1178901e-05
7.7173778e-10
3.4925045e-12
4.4334657e-12
3.4683253e-11
3.5721055e-12
2.8402223e-12
2.8745949e-15
2.872243e-15
1.4906832e-16
-1.3104047e-18
2.8315556e-20
1.760387e-23
9.5439169e-26
9.787747e-28
1.2473086e-29
2.1011639e-31
1.7846932e-33
1.2908616e-35
7.8641258e-38
8.1623397e-40
4.3922396e-40
3.1632798e-40
1.5173997e-40
1.0114917e-40
5.8126867e-41
2.385169e-41
1.9886585e-41
3.9126224e-41
4.5196625e-41
4.9847747e-41
6.1786663e-41
7.1640426e-41
7.0971815e-41
1.4998434e-40
3.7912855e-39
4.8609489e-38
7.2519683e-38
3.1071857e-44
1.157437e-43
2.1868351e-42
7.4855126e-42
8.1322941e-42
6.4261289e-42
3.7030068e-42
1.4226825e-42
3.5955591e-43
2.3390974e-43
1.1861076e-42
1.233055e-40
1.4074408e-38
1.424376e-36
1.3486521e-34
1.4844219e-32
1.5596169e-30
1.3906377e-28
1.0563276e-26
7.0332034e-25
4.1839021e-23
2.2656333e-21
1.1400076e-19
5.4193413e-18
2.6945879e-16
2.0548591e-14
1.0518711e-12
1.2546248e-11
3.817577e-11
5.0878691e-11
3.7661104e-11
3.6042835e-11
3.4302096e-11
1.8386682e-11
2.6885777e-11
6.7004848e-10
2.1543309e-08
7.498211e-07
2.00621e-05
7.7778768e-05
8.4806772e-05
8.4826614e-05
2.2952326e-05
5.3659301e-08
4.9187022e-08
5.8725389e-08
8.8081893e-08
1.9025834e-07
3.7062224e-05
0.00013299619
5.6417751e-05
1.241807e-06
1.2419708e-06
3.1796698e-06
8.6048131e-06
8.7922132e-06
7.1798761e-07
5.7226563e-07
3.1669385e-07
8.7290713e-06
1.269078e-05
3.1101183e-06
2.2682433e-08
5.22859e-11
4.4402159e-12
4.0169661e-12
8.3537063e-12
6.5138534e-12
9.2483848e-11
2.25328e-10
2.9382917e-18
5.1345444e-17
-1.545112e-17
5.3166509e-20
8.9331578e-23
6.8726688e-25
1.0482074e-26
1.3787348e-28
1.9733429e-30
2.5728025e-32
1.8563124e-34
1.0322332e-36
3.1475145e-38
2.4209487e-38
1.7753554e-38
1.358348e-38
1.3020477e-38
8.7315528e-39
3.1452963e-39
2.5104011e-39
4.4929907e-39
5.001855e-39
5.2654091e-39
6.3599158e-39
7.2626838e-39
8.1011163e-39
5.5372124e-38
1.3073549e-36
1.3639192e-35
2.1233297e-35
4.2207687e-42
1.0800054e-41
1.6947904e-40
6.0296342e-40
6.7335059e-40
5.3097432e-40
3.0515945e-40
1.1845545e-40
2.8288925e-41
7.6984838e-42
3.5917666e-40
7.4822754e-39
7.495515e-38
6.8021169e-36
9.1100145e-34
9.9652803e-32
9.1317918e-30
7.0472294e-28
4.7784419e-26
2.9084112e-24
1.642233e-22
8.7700394e-21
3.9877378e-19
1.3574515e-17
3.8723143e-16
1.3072507e-14
4.8503008e-13
9.8964902e-12
7.8643708e-11
2.2560656e-10
3.3222289e-10
6.3617366e-10
3.0699157e-09
1.1181984e-08
3.6911702e-11
5.1576332e-11
7.2735181e-10
1.6208411e-09
3.0998081e-08
7.104863e-06
2.5689189e-05
5.4716637e-05
6.8263596e-06
2.2601442e-07
6.3948827e-08
1.2273761e-07
3.0328169e-07
4.4197137e-07
1.7890154e-06
0.00010825187
6.231125e-05
4.3633028e-06
1.2422083e-06
1.303939e-06
6.4687149e-06
9.308343e-06
9.3442841e-06
5.9724934e-07
1.8619232e-07
1.3046884e-07
6.9905895e-08
2.8103335e-09
1.2742722e-09
6.6502867e-12
3.9350986e-12
3.9090639e-12
3.9168197e-12
5.4709148e-12
1.6527062e-10
6.5300421e-10
-1.9721523e-33
-1.2362121e-17
-3.4772262e-17
2.9927464e-19
4.2348295e-21
1.8409933e-22
2.545453e-24
3.0660503e-26
2.7852823e-28
1.7680303e-30
7.8286055e-33
4.1842385e-35
1.4728995e-36
1.2878002e-36
1.3380661e-36
1.6490155e-36
1.8474878e-36
1.074507e-36
3.6106512e-37
2.792698e-37
4.5712317e-37
4.9453684e-37
5.0361818e-37
5.975034e-37
6.8559313e-37
1.1823681e-36
1.6565967e-35
3.3074876e-34
2.9387425e-33
4.6922675e-33
5.4945879e-40
1.0327752e-39
1.2556131e-38
4.6108605e-38
5.3215252e-38
4.1884823e-38
2.3968788e-38
9.3465571e-39
2.2313074e-39
5.332651e-40
1.968147e-38
4.344388e-37
2.103931e-36
1.5599457e-35
1.2877179e-33
1.0804048e-31
8.5924863e-30
9.8475909e-28
1.0514256e-25
8.2246317e-24
5.9330598e-22
4.5908464e-20
2.7917512e-18
8.3028745e-17
1.1879182e-15
1.1018514e-14
9.776985e-14
1.2210858e-12
1.2069206e-11
6.3596305e-10
4.226246e-09
5.5509762e-09
2.8695141e-09
3.1280757e-08
4.2422352e-07
1.1300859e-09
3.4689479e-10
3.4689479e-10
1.707554e-09
3.1084682e-08
1.6374871e-07
2.1172468e-07
1.2596009e-06
4.1471691e-07
1.8056533e-07
5.9109077e-07
1.9126024e-06
2.1141646e-06
2.9192433e-06
9.0546491e-06
0.00015619755
1.8274556e-05
1.3038063e-06
1.4170149e-06
1.5392064e-06
8.100372e-06
1.1821265e-05
1.1783538e-05
5.6539191e-06
1.6334574e-06
1.9836132e-09
9.0964502e-11
3.7766896e-11
-5.8994482e-13
3.909072e-12
3.909072e-12
3.9053978e-12
3.9168197e-12
7.3577271e-12
6.7413842e-10
-1.7101643e-17
-4.1984974e-17
-3.2216956e-17
3.620991e-18
7.0276684e-20
3.083862e-21
3.560097e-23
4.4222699e-25
4.2627561e-27
2.9581259e-29
1.6227095e-31
3.5914399e-34
8.188335e-35
9.8238565e-35
1.5703935e-34
2.1742666e-34
2.2943721e-34
1.1083806e-34
3.5215835e-35
2.7759085e-35
4.1440276e-35
4.3491079e-35
4.3821147e-35
5.1731477e-35
6.2672598e-35
2.1363487e-34
3.7432065e-33
6.3838114e-32
4.9981305e-31
8.0940629e-31
6.8580176e-38
1.0197785e-37
8.9399802e-37
3.3506774e-36
4.0181413e-36
3.1599699e-36
1.8002834e-36
7.0335472e-37
1.6921793e-37
3.4917682e-38
8.5393072e-37