/*--------------------------------*- C++ -*----------------------------------*\
  =========                 |
  \\      /  F ield         | OpenFOAM: The Open Source CFD Toolbox
   \\    /   O peration     | Website:  https://openfoam.org
    \\  /    A nd           | Version:  9
     \\/     M anipulation  |
\*---------------------------------------------------------------------------*/
FoamFile
{
    format      ascii;
    class       surfaceScalarField;
    location    "0.72";
    object      alphaPhi0.phase1;
}
// * * * * * * * * * * * * * * * * * * * * * * * * * * * * * * * * * * * * * //

dimensions      [0 3 -1 0 0 0 0];

internalField   nonuniform List<scalar> 
19800
(
-9.9596787e-88
7.9536207e-88
-1.457476e-86
1.4646006e-87
-8.0061825e-85
9.2981288e-86
-1.6505645e-84
6.8643842e-85
-1.2462148e-84
8.7915203e-85
-3.48979e-85
3.6952116e-85
-2.0132453e-85
9.9813134e-86
-1.5964213e-84
6.5700197e-86
-3.0932534e-84
2.6509818e-85
-2.3181085e-82
2.6205854e-83
-2.577284e-80
2.694107e-81
-2.5704558e-78
2.499555e-79
-2.3397704e-76
2.1184663e-77
-1.9574782e-74
1.6578003e-75
-1.5094637e-72
1.2004431e-73
-1.0772778e-70
8.0649874e-72
-7.1464609e-69
5.0460829e-70
-4.4235807e-67
2.9499213e-68
-2.5633385e-65
1.6159073e-66
-1.3944854e-63
8.3136846e-65
-7.1390282e-62
4.0246075e-63
-3.4464091e-60
1.8363426e-61
-1.5716356e-58
7.9083851e-60
-6.7728107e-57
3.2155604e-58
-2.7495216e-55
1.233854e-56
-1.0559503e-53
4.4650087e-55
-4.0255698e-52
1.534758e-53
-1.5719302e-50
5.0730751e-52
-4.8092462e-49
1.5064335e-50
-9.4239813e-48
3.2988382e-49
-1.8875405e-46
5.9053368e-48
-5.221138e-45
1.3024902e-46
-1.6863341e-43
3.4431218e-45
-5.4988101e-42
8.868294e-44
-1.7616818e-40
2.0204308e-42
-5.5475635e-39
3.4397985e-41
-1.7438752e-37
4.2963221e-41
-5.1678534e-36
-6.9287989e-38
-1.4277097e-34
-4.4728923e-36
-3.8225681e-33
-2.0883339e-34
-1.0100658e-31
-8.6440875e-33
-2.5942324e-30
-3.2403733e-31
-6.3386507e-29
-1.1116868e-29
-1.4510079e-27
-3.5470176e-28
-3.0678432e-26
-1.0615988e-26
-5.8522604e-25
-2.9906068e-25
-9.5041165e-24
-7.9133942e-24
-1.0966267e-22
-1.9497726e-22
-4.3955668e-22
-4.5022651e-21
3.5912595e-20
-1.325807e-19
1.1548695e-18
-2.892483e-18
2.2694616e-17
-4.2877072e-17
1.9599716e-16
-3.7989634e-16
1.1601147e-15
-1.8531215e-15
3.7077335e-15
-7.0309585e-15
6.9830038e-15
-1.2454238e-14
9.0200318e-15
-1.8361941e-14
2.6979218e-15
-1.1653052e-16
5.7791114e-16
0
7.3905366e-17
-4.3241717e-18
5.8470606e-18
-9.3275044e-19
4.2325223e-19
6.9751162e-20
3.1980816e-20
1.2885113e-20
2.3028347e-21
1.4975896e-21
1.5311376e-22
1.4035216e-22
9.3235282e-24
1.1245077e-23
5.1937752e-25
7.900755e-25
2.6451255e-26
4.9324229e-26
1.2304438e-27
2.7548191e-27
5.2229092e-29
1.3815234e-28
2.0207665e-30
6.2334198e-30
7.1161279e-32
2.5333401e-31
2.2766412e-33
9.2795077e-33
6.6025758e-35
3.0642519e-34
1.731464e-36
9.1204637e-36
4.0944763e-38
2.4452167e-37
8.705203e-40
5.8975952e-39
1.6587067e-41
1.2773371e-40
2.8227808e-43
2.4782725e-42
4.2744951e-45
4.2967672e-44
5.7367899e-47
6.6340926e-46
6.7947583e-49
9.0894225e-48
7.0692487e-51
1.1008237e-49
6.4277261e-53
1.1732547e-51
5.0795698e-55
1.0951645e-53
3.4677005e-57
8.9083743e-56
2.0314746e-59
6.2779966e-58
1.0137585e-61
3.8084746e-60
4.2733657e-64
1.9748375e-62
1.5068366e-66
8.6868557e-65
4.3938119e-69
3.2151137e-67
1.0453541e-71
9.9153706e-70
1.9957321e-74
2.5169309e-72
2.9939836e-77
5.1927498e-75
3.4315733e-80
8.5672532e-78
2.9353682e-83
1.1052961e-80
4.1899395e-85
1.1290914e-83
2.6336581e-85
4.5181527e-85
1.2485952e-85
4.0612303e-85
3.7463931e-85
-8.2267317e-88
1.365138e-87
-1.8045734e-85
5.8156982e-86
-6.8495543e-84
2.7326113e-84
-1.7649213e-83
1.7614621e-83
-2.011957e-83
2.5509487e-83
-1.6601597e-83
2.1426043e-83
-6.5920815e-84
1.3379833e-83
-6.9577305e-84
5.6611943e-84
-1.1212401e-82
3.9245525e-83
-1.4210134e-80
4.4992548e-81
-1.6219761e-78
4.730318e-79
-1.6675278e-76
4.5075014e-77
-1.5574992e-74
3.9220041e-75
-1.3311907e-72
3.1351559e-73
-1.0474927e-70
2.3149676e-71
-7.628376e-69
1.5861658e-69
-5.1647449e-67
1.0125822e-67
-3.263693e-65
6.0429822e-66
-1.931579e-63
3.3821816e-64
-1.0738823e-61
1.7796913e-62
-5.6231044e-60
8.8233566e-61
-2.7795547e-58
4.1300136e-59
-1.2992816e-56
1.8277953e-57
-5.7428549e-55
7.653359e-56
-2.4012529e-53
3.0330444e-54
-9.6471148e-52
1.1406017e-52
-3.8156971e-50
4.1001642e-51
-1.3852809e-48
1.3917653e-49
-4.099164e-47
4.1489058e-48
-1.1471899e-45
1.0864685e-46
-3.5578292e-44
2.9313241e-45
-1.1733459e-42
8.3943053e-44
-3.837561e-41
2.3414539e-42
-1.2203958e-39
6.028913e-41
-3.7793972e-38
1.3715552e-39
-1.1452973e-36
2.4310842e-38
-3.4263258e-35
1.4114407e-37
-9.3794138e-34
-1.4633582e-35
-2.2600459e-32
-9.2192883e-34
-5.2494356e-31
-3.7755437e-32
-1.2709399e-29
-1.4356001e-30
-3.1398136e-28
-5.2580141e-29
-7.5324672e-27
-1.7799978e-27
-1.7050801e-25
-5.5936773e-26
-3.5834996e-24
-1.6473299e-24
-6.8510622e-23
-4.5648153e-23
-1.1392798e-21
-1.1870412e-21
-1.4800035e-20
-2.8937619e-20
-1.1698954e-19
-6.8602051e-19
2.2304188e-18
-1.3426848e-17
7.6456441e-17
-1.3645807e-16
1.3876452e-15
-1.5441872e-15
1.0225233e-14
-9.9824337e-15
5.3625577e-14
-4.9285145e-14
1.1874694e-13
-8.0584044e-14
1.7053564e-13
-7.7072548e-14
3.1554097e-13
-1.8695621e-13
2.3617866e-13
0
7.9393806e-14
0
9.8123521e-15
0
7.9600235e-16
0
5.8651376e-17
4.2676018e-17
4.2902093e-18
5.5923826e-18
2.9829994e-19
5.962739e-19
1.909665e-20
5.2607728e-20
1.1116347e-21
3.9706028e-21
5.8837702e-23
2.6199451e-22
2.8355538e-24
1.5317153e-23
1.2449079e-25
7.9986084e-25
4.9797027e-27
3.7498382e-26
1.8143376e-28
1.5833803e-27
6.0160059e-30
6.0336474e-29
1.8126682e-31
2.0768705e-30
4.9527325e-33
6.4585244e-32
1.2240389e-34
1.8134859e-33
2.7286068e-36
4.5925042e-35
5.4694224e-38
1.0471294e-36
9.8254104e-40
2.1449538e-38
1.5761356e-41
3.936854e-40
2.248851e-43
6.4555713e-42
2.841891e-45
9.4230372e-44
3.1660777e-47
1.2196548e-45
3.0939785e-49
1.393827e-47
2.637486e-51
1.3997079e-49
1.9493621e-53
1.2286284e-51
1.2408156e-55
9.3736089e-54
6.752238e-58
6.1753767e-56
3.1154652e-60
3.4887701e-58
1.2073587e-62
1.6768713e-60
3.8882478e-65
6.7970021e-63
1.0277912e-67
2.3019132e-65
2.1981526e-70
6.440963e-68
3.7336877e-73
1.4709634e-70
4.9182311e-76
2.6984253e-73
4.8660129e-79
3.9007338e-76
3.4942625e-82
4.3314227e-79
2.2413751e-84
3.7881214e-82
3.6810928e-85
6.6930551e-84
9.6988317e-86
6.2894465e-85
5.4189116e-85
-1.0594285e-84
2.8557332e-84
-2.7406894e-82
1.1892986e-82
-6.1713451e-81
4.1153426e-81
-1.2272742e-80
1.9172341e-80
-1.358616e-80
2.4104216e-80
-1.0548744e-80
1.8698244e-80
-4.2125725e-81
1.0944608e-80
-3.9657106e-81
4.5462036e-81
-6.3235005e-80
2.8872935e-80
-8.0719644e-78
3.323554e-78
-9.2796503e-76
3.5158822e-76
-9.6004354e-74
3.3676253e-74
-9.0157083e-72
2.9432846e-72
-7.7402348e-70
2.3613331e-70
-6.1120106e-68
1.7482923e-68
-4.4622071e-66
1.2002427e-66
-3.025276e-64
7.6679687e-65
-1.9121154e-62
4.5757404e-63
-1.1303589e-60
2.5574986e-61
-6.2674142e-59
1.342079e-59
-3.2670627e-57
6.6255394e-58
-1.6043622e-55
3.0819975e-56
-7.4315567e-54
1.3523808e-54
-3.2408739e-52
5.5963151e-53
-1.3279351e-50
2.182452e-51
-5.2657657e-49
8.0456177e-50
-2.1676607e-47
2.8475083e-48
-8.1086102e-46
9.4969371e-47
-1.8674465e-44
2.4711367e-45
-3.2190254e-43
4.4945613e-44
-7.1803045e-42
8.3277683e-43
-2.1327848e-40
2.061568e-41
-6.7594188e-39
5.5804482e-40
-2.0990739e-37
1.4247252e-38
-6.3271019e-36
3.2349986e-37
-1.8638077e-34
5.9398086e-36
-5.4174761e-33
5.3898139e-35
-1.4113883e-31
-2.1455594e-33
-2.8766463e-30
-1.4036528e-31
-5.2032375e-29
-4.6933206e-30
-1.0506317e-27
-1.4323519e-28
-2.4016348e-26
-4.8321708e-27
-5.6006083e-25
-1.5996359e-25
-1.2513023e-23
-4.9349078e-24
-2.6150283e-22
-1.425784e-22
-5.0172538e-21
-3.8698627e-21
-8.6125759e-20
-9.9714533e-20
-1.3213975e-18
-2.5660405e-18
-1.3478169e-17
-5.4940601e-17
4.898308e-17
-3.9349543e-16
3.1976628e-15
-4.648416e-15
6.2859398e-14
-7.3216143e-14
4.4227516e-13
-4.310743e-13
2.2122047e-12
-2.0391301e-12
5.1362056e-12
-3.3414041e-12
7.9018854e-12
-3.2204478e-12
1.6981157e-11
-1.0205032e-11
1.5449508e-11
0
5.2120143e-12
0
6.3846748e-13
0
4.9479155e-14
1.0526378e-14
3.8467465e-15
1.4821964e-14
3.1929528e-16
7.1505777e-16
2.2831105e-17
6.1779664e-17
1.4574241e-18
5.3324507e-18
8.4272172e-20
3.9698968e-19
4.4154044e-21
2.5778308e-20
2.0967794e-22
1.4789071e-21
9.0285055e-24
7.5544969e-23
3.5258115e-25
3.453686e-24
1.2486717e-26
1.4179497e-25
4.0083282e-28
5.2391947e-27
1.1650883e-29
1.7442083e-28
3.0616653e-31
5.2338004e-30
7.258814e-33
1.4150434e-31
1.5488301e-34
3.4436434e-33
2.9656414e-36
7.5315541e-35
5.079253e-38
1.4771589e-36
7.7527288e-40
2.5913202e-38
1.0503813e-41
4.0532833e-40
1.257578e-43
5.632918e-42
1.3240151e-45
6.9255932e-44
1.2192206e-47
7.4993643e-46
9.7614489e-50
7.1155574e-48
6.750053e-52
5.8821654e-50
4.0022209e-54
4.2097232e-52
2.0181836e-56
2.5901884e-54
8.5784583e-59
1.3592732e-56
3.0430652e-61
6.0320816e-59
8.901302e-64
2.2429502e-61
2.1168541e-66
6.911031e-64
4.0235988e-69
1.7420263e-66
5.9878635e-72
3.5370797e-69
6.789896e-75
5.6819257e-72
5.6579768e-78
7.052142e-75
9.090316e-81
6.7586426e-78
2.1941815e-81
2.7283996e-80
6.6790629e-82
1.0973338e-80
7.9517345e-83
2.5818448e-81
1.6741842e-81
-8.9057447e-82
1.8279619e-81
-2.3005407e-79
1.2449772e-79
-3.3469416e-78
3.3208646e-78
-5.7305479e-78
1.1919343e-77
-6.2945978e-78
1.3865837e-77
-4.7661106e-78
1.056893e-77
-1.9080095e-78
6.0356681e-78
-1.7071842e-78
2.4807801e-78
-2.9318495e-77
1.6423357e-77
-3.7801303e-75
1.9088947e-75
-4.3855213e-73
2.0365843e-73
-4.5761324e-71
1.9664774e-71
-4.331609e-69
1.7313955e-69
-3.746254e-67
1.3986035e-67
-2.9784188e-65
1.04218e-65
-2.1881416e-63
7.1969108e-64
-1.4921449e-61
4.6237091e-62
-9.4809528e-60
2.7731933e-60
-5.6318518e-58
1.5573938e-58
-3.136546e-56
8.2106359e-57
-1.641604e-54
4.0713727e-55
-8.0903294e-53
1.9018415e-53
-3.7590421e-51
8.3760368e-52
-1.643036e-49
3.4787338e-50
-6.731113e-48
1.3605461e-48
-2.6724811e-46
5.0288507e-47
-1.1453276e-44
1.7924328e-45
-4.7315348e-43
6.105205e-44
-1.045427e-41
1.5435113e-42
-1.2012146e-40
2.2239642e-41
-1.5423463e-39
2.5373169e-40
-3.4728053e-38
4.4180849e-39
-1.0251984e-36
1.0907442e-37
-3.1024228e-35
2.7413645e-36
-9.1574011e-34
6.2606466e-35
-2.640615e-32
1.1908154e-33
-7.5662548e-31
1.393199e-32
-1.9920798e-29
-2.0122228e-31
-3.6269165e-28
-1.8010702e-29
-4.7764021e-27
-5.1185374e-28
-6.9835982e-26
-1.1104456e-26
-1.3604779e-24
-3.0123151e-25
-3.0125562e-23
-9.5017913e-24
-6.6020707e-22
-2.8727647e-22
-1.3683186e-20
-8.1220402e-21
-2.6562259e-19
-2.1798841e-19
-5.0519424e-18
-5.9602544e-18
-7.688819e-17
-1.3766529e-16
-8.3600522e-16
-8.0582887e-16
-1.7889978e-15
-6.4010993e-15
8.5850429e-14
-1.5555092e-13
1.7715339e-12
-2.2976112e-12
1.2749759e-11
-1.3092576e-11
6.5824864e-11
-6.3799723e-11
1.6509831e-10
-1.1504673e-10
2.7523086e-10
-1.2751112e-10
6.9128981e-10
-4.7159766e-10
7.713744e-10
0
2.7172374e-10
0
3.0910104e-11
0
1.3546442e-12
2.5518157e-12
1.0397552e-13
1.2517688e-12
7.2207782e-15
9.3302898e-14
1.0311873e-15
3.6800928e-15
7.3857957e-17
2.6872703e-16
3.3955921e-18
2.0251512e-17
1.6917179e-19
1.2576786e-18
7.9350365e-21
7.0414643e-20
3.341387e-22
3.5107121e-21
1.2678352e-23
1.5601986e-22
4.3456395e-25
6.2049386e-24
1.3453424e-26
2.2141007e-25
3.7589474e-28
7.0988566e-27
9.4667496e-30
2.046243e-28
2.1451229e-31
5.3018351e-30
4.3632547e-33
1.2336923e-31
7.9441634e-35
2.5741373e-33
1.2904119e-36
4.805549e-35
1.8628553e-38
8.0052485e-37
2.3796685e-40
1.1859087e-38
2.677285e-42
1.5560206e-40
2.6387068e-44
1.8004122e-42
2.264615e-46
1.8277301e-44
1.6813323e-48
1.6184627e-46
1.0718117e-50
1.2423634e-48
5.8184059e-53
8.2053974e-51
2.6652889e-55
4.6257206e-53
1.0194154e-57
2.205863e-55
3.2155341e-60
8.8060555e-58
8.2469555e-63
2.9080929e-60
1.6919043e-65
7.8348733e-63
2.7238625e-68
1.694805e-65
3.3630632e-71
2.8905712e-68
3.0926224e-74
3.808572e-71
2.5269406e-77
3.8368385e-74
3.4855554e-78
5.8309278e-77
1.6084416e-78
2.0716902e-77
3.3449866e-79
1.020382e-77
-5.003926e-82
2.6570599e-78
1.3333588e-78
-4.4401325e-79
8.4263444e-79
-1.1231783e-76
7.1630065e-77
-1.3196852e-75
1.7033477e-75
-2.0566757e-75
5.3460655e-75
-2.2513461e-75
5.9212894e-75
-1.6786708e-75
4.4771595e-75
-6.7976337e-76
2.517304e-75
-5.8357982e-76
1.0335246e-75
-1.1248428e-74
7.4683914e-75
-1.4675088e-72
8.7877069e-73
-1.7199189e-70
9.466415e-71
-1.8115826e-68
9.222642e-69
-1.7296814e-66
8.1866215e-67
-1.5079361e-64
6.6632931e-65
-1.2077261e-62
5.0000545e-63
-8.9330431e-61
3.475011e-61
-6.1298576e-59
2.2459611e-59
-3.9175361e-57
1.3546832e-57
-2.3395521e-55
7.6475968e-56
-1.3093672e-53
4.0518471e-54
-6.8841009e-52
2.0188057e-52
-3.4071228e-50
9.4742745e-51
-1.5894309e-48
4.1928361e-49
-6.9734464e-47
1.749499e-47
-2.866962e-45
6.8764652e-46
-1.140046e-43
2.5545918e-44
-4.9072694e-42
9.1532108e-43
-2.1313765e-40
3.1541718e-41
-5.1022385e-39
8.1328983e-40
-5.3981609e-38
1.1232394e-38
-4.4771087e-37
9.8065421e-38
-5.9647262e-36
1.0298864e-36
-1.3865662e-34
1.8935891e-35
-3.9071111e-33
4.3782318e-34
-1.1238537e-31
9.9425187e-33
-3.1807026e-30
1.9636129e-31
-9.0122607e-29
2.750561e-30
-2.4943993e-27
-3.699269e-30
-4.455322e-26
-1.8622459e-27
-4.4808086e-25
-5.0848586e-26
-4.2465964e-24
-7.908858e-25
-6.142434e-23
-1.4559643e-23
-1.228885e-21
-4.0389902e-22
-2.6055065e-20
-1.1793616e-20
-5.3937919e-19
-3.2874728e-19
-1.1385344e-17
-9.4023722e-18
-2.0605376e-16
-2.2815599e-16
-1.8965782e-15
-1.9625647e-15
-1.7540377e-14
-2.3536256e-15
-6.3939113e-14
-2.4015826e-13
-2.3390302e-13
-2.2801383e-12
4.4104148e-11
-6.4285168e-11
3.9074314e-10
-4.0875736e-10
1.9883837e-09
-1.9028991e-09
5.1339256e-09
-3.533177e-09
1.2463029e-08
-1.3175544e-08
5.5275353e-08
-8.7846078e-08
5.8116432e-08
-1.2097439e-07
1.0271096e-08
-2.2146394e-08
4.2383138e-10
0
5.5463548e-11
3.2659206e-10
5.0900505e-12
5.0068021e-11
4.0139285e-13
4.7475978e-12
1.6678562e-14
3.7081342e-13
1.1277663e-15
1.6294462e-14
1.2125176e-16
6.198231e-16
4.7874094e-18
4.0831954e-17
1.9530713e-19
2.1650916e-18
7.9426778e-21
1.0351776e-19
2.9129621e-22
4.4347813e-21
9.5775039e-24
1.6942659e-22
2.8323337e-25
5.7852984e-24
7.534521e-27
1.7692915e-25
1.8008603e-28
4.8503953e-27
3.8605867e-30
1.1918756e-28
7.4053812e-32
2.6228749e-30
1.2673202e-33
5.1605069e-32
1.9280597e-35
9.0563271e-34
2.5968423e-37
1.4132668e-35
3.0819846e-39
1.953738e-37
3.2059283e-41
2.3820502e-39
2.9052601e-43
2.5483393e-41
2.278135e-45
2.3780932e-43
1.5337832e-47
1.9228972e-45
8.79047e-50
1.3367864e-47
4.2469042e-52
7.9205971e-50
1.7106544e-54
3.9592792e-52
5.6722297e-57
1.6508815e-54
1.5259403e-59
5.6636314e-57
3.2770209e-62
1.5738137e-59
5.5160435e-65
3.4799687e-62
7.140327e-68
6.0133555e-65
6.9881342e-71
8.0682224e-68
5.2866123e-74
8.6091114e-71
2.1270791e-75
1.1410239e-73
1.1913294e-75
1.6517716e-74
4.9581362e-76
1.3792711e-74
-2.3274065e-78
6.6478614e-75
-3.9775409e-77
1.7916641e-75
7.6427118e-76
-1.5487687e-76
3.0080153e-76
-3.8820534e-74
2.8454798e-74
-4.075717e-73
6.3974813e-73
-5.9810106e-73
1.8652648e-72
-6.5432871e-73
2.0025381e-72
-4.836722e-73
1.5084603e-72
-1.9978331e-73
8.4058968e-73
-1.6283296e-73
3.459169e-73
-3.6228768e-72
2.7835441e-72
-4.7884309e-70
3.3202107e-70
-5.6748438e-68
3.6151698e-68
-6.0384041e-66
3.5565245e-66
-5.8192129e-64
3.1850534e-64
-5.1160469e-62
2.613214e-62
-4.1286516e-60
1.9749966e-60
-3.0745644e-58
1.3813791e-58
-2.1225477e-56
8.9794666e-57
-1.3637813e-54
5.4436033e-55
-8.1833012e-53
3.0873051e-53
-4.5989725e-51
1.6423432e-51
-2.4267937e-49
8.21393e-50
-1.2048964e-47
3.8682415e-48
-5.6357181e-46
1.7174727e-46
-2.477826e-44
7.1890202e-45
-1.0212049e-42
2.8340295e-43
-4.0723807e-41
1.0561286e-41
-1.7344279e-39
3.7917172e-40
-7.3346827e-38
1.3006703e-38
-1.8465918e-36
3.3834154e-37
-2.2470298e-35
4.932662e-36
-1.8380914e-34
4.4096335e-35
-1.5587532e-33
3.5561911e-34
-2.0409727e-32
3.8144084e-33
-4.4568841e-31
6.3813395e-32
-1.2067598e-29
1.3554487e-30
-3.3485599e-28
2.7541754e-29
-9.5218703e-27
4.3950283e-28
-2.7084746e-25
2.6728435e-27
-4.924133e-24
-1.371663e-25
-4.2047683e-23
-4.2592886e-24
-2.6213983e-22
-5.4873552e-23
-2.4222952e-21
-6.6406919e-22
-3.9426987e-20
-1.3673454e-20
-7.9053994e-19
-3.5837795e-19
-1.7393471e-17
-1.0102033e-17
-3.377252e-16
-2.6666833e-16
-2.5606987e-15
-3.2695043e-15
-1.5881546e-14
-1.8947145e-14
-2.1752648e-13
-3.4873689e-13
-2.325357e-12
-7.4270451e-12
2.135608e-11
-9.0870442e-11
2.3667933e-09
-2.7520508e-09
2.5905272e-08
-3.8023648e-08
1.2968379e-07
-2.3691164e-07
2.9066297e-07
-2.5706634e-07
4.9288403e-07
-2.1007682e-07
5.1282551e-07
-2.6055092e-07
5.6689492e-07
-1.5548979e-07
2.4204477e-07
-2.2775367e-08
2.9018629e-08
1.7383449e-08
2.5864325e-09
2.6151207e-08
2.0750428e-10
2.3804983e-09
1.6225391e-11
1.9222457e-10
1.0847448e-12
1.5225083e-11
4.1136573e-14
1.0328976e-12
1.3085949e-15
3.812904e-14
8.0835085e-17
9.5219647e-16
3.5409137e-18
4.6989896e-17
1.2964544e-19
2.1431437e-18
4.4516593e-21
8.6406909e-20
1.3823084e-22
3.1156601e-21
3.8443072e-24
1.0024394e-22
9.582343e-26
2.8808474e-24
2.1394799e-27
7.4025517e-26
4.2708057e-29
1.7007907e-27
7.6022769e-31
3.4901977e-29
1.2027727e-32
6.3845178e-31
1.6845857e-34
1.038265e-32
2.0791731e-36
1.495739e-34
2.2496705e-38
1.9009953e-36
2.1201701e-40
2.1203201e-38
1.7279091e-42
2.0630562e-40
1.2079178e-44
1.7387201e-42
7.1761021e-47
1.2590454e-44
3.5847033e-49
7.7609241e-47
1.4874975e-51
4.0293961e-49
5.0591805e-54
1.7398516e-51
1.3904882e-56
6.1662958e-54
3.0382634e-59
1.765278e-56
5.1992343e-62
4.0193536e-59
6.9122757e-65
7.1881131e-62
7.2220178e-68
1.0180032e-64
6.0820705e-71
1.2181586e-67
7.7051079e-73
1.4659813e-70
3.5803955e-73
8.9457612e-72
5.5731113e-74
8.5381154e-72
-1.4815125e-73
7.1305268e-72
-8.5533763e-74
3.2480497e-72
-3.7635499e-74
8.816899e-73
3.3636683e-73
-4.1857592e-74
8.775892e-74
-1.0493683e-71
8.6973585e-72
-1.0354526e-70
1.9023757e-70
-1.4619814e-70
5.3138947e-70
-1.5996968e-70
5.591871e-70
-1.1778076e-70
4.2074617e-70
-5.0100426e-71
2.3349623e-70
-3.7787332e-71
9.6559993e-71
-9.9590103e-70
8.7011598e-70
-1.335108e-67
1.0531008e-67
-1.601997e-65
1.1605141e-65
-1.7239421e-63
1.1541308e-63
-1.6783226e-61
1.0436955e-61
-1.4889875e-59
8.6374039e-60
-1.2113928e-57
6.5781601e-58
-9.0861395e-56
4.6321877e-56
-6.3125011e-54
3.0291263e-54
-4.0783761e-52
1.8458596e-52
-2.4589784e-50
1.0516461e-50
-1.3876691e-48
5.6169743e-49
-7.3481685e-47
2.8189948e-47
-3.6592633e-45
1.3318571e-45
-1.7157257e-43
5.9311379e-44
-7.5569066e-42
2.4897311e-42
-3.1218096e-40
9.8432873e-41
-1.2512643e-38
3.6810414e-39
-5.2935733e-37
1.3254292e-37
-2.1208953e-35
4.5116476e-36
-5.2579954e-34
1.1649262e-34
-7.6664595e-33
1.8158482e-33
-8.2719929e-32
1.9071116e-32
-6.3629657e-31
1.6058591e-31
-4.2888235e-30
1.1294479e-30
-5.1044611e-29
9.8902993e-30
-1.1609028e-27
1.6464145e-28
-3.1342506e-26
3.3508826e-27
-8.9750437e-25
5.8786186e-26
-2.5722496e-23
6.3234499e-25
-4.6734528e-22
-5.5658187e-24
-3.6171946e-21
-2.9817956e-22
-1.6558344e-20
-3.7523307e-21
-9.1670227e-20
-3.2064268e-20
-1.042372e-18
-3.9620331e-19
-1.9828812e-17
-8.7820467e-18
-3.8164488e-16
-2.1310273e-16
-2.864824e-15
-3.1519469e-15
-2.3752523e-14
-1.4999067e-14
-4.1794827e-13
-2.7223197e-13
-9.4192755e-12
-5.1816892e-12
-3.2896273e-11
-2.2441005e-10
9.1878818e-09
-2.9764818e-08
1.2731383e-07
-3.0783317e-07
2.7320769e-07
-2.6531351e-07
5.3414452e-07
-4.5277397e-07
6.2505039e-07
-2.6835804e-07
7.3949543e-07
-2.5013603e-07
7.8386248e-07
-1.881201e-07
7.4111298e-07
-7.9263717e-08
7.4091201e-07
6.5803856e-09
6.5267668e-07
1.3477357e-07
1.9344307e-07
1.506956e-07
5.0674848e-09
8.4921596e-08
3.3809777e-10
4.8334224e-09
2.2651903e-11
3.1804192e-10
1.2447856e-12
2.1888219e-11
5.0043213e-14
1.1865303e-12
2.4424658e-15
4.5403648e-14
1.205588e-16
2.0482929e-15
4.3730568e-18
8.907079e-17
1.3594936e-19
3.3246916e-18
3.8588997e-21
1.0978248e-19
9.8358458e-23
3.2331535e-21
2.2433616e-24
8.4972042e-23
4.6307463e-26
1.9937377e-24
8.5333171e-28
4.1782671e-26
1.3945562e-29
7.8051901e-28
2.0153775e-31
1.2956628e-29
2.5628955e-33
1.9042709e-31
2.8502712e-35
2.4663084e-33
2.7515673e-37
2.7988141e-35
2.2848929e-39
2.7639196e-37
1.6135648e-41
2.355818e-39
9.5222881e-44
1.7158616e-41
4.6461692e-46
1.055107e-43
1.9268091e-48
5.401335e-46
6.487809e-51
2.2560564e-48
1.7411806e-53
7.4487367e-51
3.6658182e-56
1.8369951e-53
5.8723923e-59
4.3562875e-56
7.0759309e-62
8.1515635e-59
6.4937039e-65
1.2056217e-61
4.9169158e-68
1.5018962e-64
1.4073306e-70
1.9428446e-67
8.280411e-72
3.1465099e-69
-1.2167998e-70
2.7334304e-69
-2.1859478e-70
3.5726153e-69
-1.9683306e-70
2.9426656e-69
-6.9959755e-71
1.255426e-69
-2.2092332e-71
3.3599049e-70
1.1815223e-70
-9.2486151e-72
2.1769778e-71
-2.3331491e-69
2.1618758e-69
-2.2311584e-68
4.6805423e-68
-3.0758191e-68
1.2776378e-67
-3.3716793e-68
1.327524e-67
-2.4828785e-68
1.0001937e-67
-1.0968452e-68
5.5483659e-68
-7.3028846e-69
2.3066915e-68
-2.3146643e-67
2.2694514e-67
-3.1513687e-65
2.7892713e-65
-3.8348177e-63
3.1161185e-63
-4.1793615e-61
3.1371836e-61
-4.115226e-59
2.868031e-59
-3.6881528e-57
2.3965713e-57
-3.0274933e-55
1.84063e-55
-2.2886658e-53
1.3057362e-53
-1.6008702e-51
8.592642e-52
-1.0403874e-49
5.2648386e-50
-6.3044649e-48
3.0136758e-48
-3.5731725e-46
1.6162174e-46
-1.8991661e-44
8.1408611e-45
-9.4877298e-43
3.8590013e-43
-4.4605467e-41
1.7240347e-41
-1.968919e-39
7.2601347e-40
-8.1565044e-38
2.8804796e-38
-3.2872519e-36
1.0819793e-36
-1.3850277e-34
3.913872e-35
-5.2899559e-33
1.3268363e-33
-1.2744777e-31
3.4117315e-32
-2.1881596e-30
5.6813682e-31
-3.2871222e-29
7.2032187e-30
-2.771151e-28
6.9961677e-29
-1.229354e-27
4.0745078e-28
-6.9270994e-27
1.9197932e-27
-1.0648625e-25
1.9322357e-26
-2.7232989e-24
3.7223231e-25
-7.933322e-23
6.9988197e-24
-2.3511177e-21
9.7809995e-23
-4.1441195e-20
2.2974113e-22
-2.7838379e-19
-1.7851523e-20
-9.3006247e-19
-1.9901931e-19
-3.0627823e-18
-1.0363832e-18
-2.320201e-17
-7.349839e-18
-3.8283284e-16
-1.4817988e-16
-3.1004113e-15
-2.2181097e-15
-9.9623672e-15
-1.6017171e-14
-3.4367806e-13
-1.1614005e-13
-7.0631024e-12
-2.9984249e-12
-9.7726966e-11
-1.0995151e-10
1.6185173e-08
-1.2524573e-07
9.4191586e-08
-3.8672027e-07
2.3690426e-07
-4.2761378e-07
2.586714e-07
-3.2814347e-07
1.2472755e-07
-1.0979055e-07
1.0158805e-07
-2.3090877e-08
7.5641889e-08
-6.1812717e-09
5.3876108e-08
-2.6929012e-09
1.7944428e-07
-1.0998321e-09
7.0276442e-07
1.2704905e-08
7.2597705e-07
1.4211457e-07
6.2622884e-07
2.7077891e-07
1.4180632e-07
2.4753839e-07
3.0411057e-09
7.3280386e-08
1.9371903e-10
2.78703e-09
1.0835069e-11
1.7992972e-10
5.252042e-13
1.0113514e-11
2.2417048e-14
4.8383136e-13
9.5370527e-16
2.0349693e-14
3.5863272e-17
8.3765645e-16
1.0808777e-18
2.9834633e-17
2.840747e-20
9.2049356e-19
6.7049158e-22
2.5110671e-20
1.4129756e-23
6.0912388e-22
2.6501207e-25
1.314049e-23
4.4120012e-27
2.5186885e-25
6.4961027e-29
4.281474e-27
8.419009e-31
6.4328559e-29
9.5495968e-33
8.4992843e-31
9.4160325e-35
9.8142992e-33
8.0051104e-37
9.829923e-35
5.8132804e-39
8.4577986e-37
3.5690011e-41
6.1760876e-39
1.8286524e-43
3.7557056e-41
7.7089286e-46
1.8341046e-43
2.6107667e-48
8.28717e-46
6.8517342e-51
3.0973006e-48
1.3671914e-53
9.2213626e-51
2.0324394e-56
2.1514704e-53
2.275096e-59
3.3019496e-56
2.0486045e-62
5.133376e-59
1.4746727e-65
8.9573875e-62
-4.5094477e-69
1.4198641e-64
-2.1351011e-68
7.393412e-67
-6.0243923e-68
5.3790499e-67
-1.4877409e-67
1.0291094e-66
-1.6729441e-67
1.2520135e-66
-1.1414915e-67
9.9185037e-67
-3.590419e-68
3.9486423e-67
-9.717209e-69
1.0227336e-67
3.3762285e-68
-1.7325076e-69
4.7448395e-69
-4.4126038e-67
4.5324857e-67
-4.1764294e-66
9.8293317e-66
-5.6753889e-66
2.6556258e-65
-6.2407311e-66
2.7383529e-65
-4.6166968e-66
2.070623e-65
-2.0871845e-66
1.1519906e-65
-1.2419027e-66
4.7852398e-66
-4.8248451e-65
4.7996236e-65
-6.0864552e-63
5.9822739e-63
-7.5012971e-61
6.7447073e-61
-8.2913342e-59
6.8836298e-59
-8.2666641e-57
6.3688084e-57
-7.4904972e-55
5.3778173e-55
-6.2079991e-53
4.1679798e-53
-4.7320479e-51
2.9797822e-51
-3.3334834e-49
1.973786e-49
-2.1793674e-47
1.2160305e-47
-1.3272511e-45
6.9926225e-46
-7.5539282e-44
3.7645995e-44
-4.0291387e-42
1.9027049e-42
-2.0188904e-40
9.0474578e-41
-9.5159906e-39
4.0542313e-39
-4.2104732e-37
1.713083e-37
-1.7497517e-35
6.8238104e-36
-7.0780809e-34
2.5760952e-34
-2.9563696e-32
9.3620649e-33
-1.0902108e-30
3.1731457e-31
-2.6425343e-29
8.2752956e-30
-5.3578624e-28
1.5004061e-28
-1.0487216e-26
2.2700447e-27
-9.5816037e-26
2.4773479e-26
-3.4159388e-25
1.310707e-25
-1.1282582e-24
4.2617427e-25
-1.0308071e-23
2.4407251e-24
-2.4235998e-22
4.1850504e-23
-7.6164278e-21
8.3933628e-22
-2.5795671e-19
1.4137931e-20
-3.7766757e-18
9.8046865e-20
-1.6549002e-17
-4.5180838e-19
-3.3588003e-17
-4.0687978e-18
-6.875786e-17
-1.2900238e-17
-3.5679767e-16
-6.5899582e-17
-2.9713132e-15
-1.0683366e-15
-3.03945e-15
-1.7609514e-14
-1.8039296e-13
-7.8968375e-14
-4.3198752e-12
-1.0160172e-12
-7.634258e-11
-3.3480295e-11
-1.2214745e-08
-3.954859e-08
7.9477221e-08
-4.2234953e-07
1.7933763e-07
-3.8920481e-07
1.3207795e-07
-2.6796634e-07
9.7947021e-08
-5.1351324e-08
1.873348e-08
-1.9135571e-08
6.5479371e-09
-9.4134369e-09
4.8260575e-09
-4.3490472e-09
4.8834059e-09
-2.7357331e-09
5.0422447e-09
-1.2801981e-09
1.7498015e-08
3.0127739e-10
4.1041788e-07
2.6770058e-08
6.1312614e-07
1.685807e-07
4.9852037e-07
3.7490724e-07
1.3839833e-08
3.7335447e-07
7.3749766e-10
1.4631939e-08
3.6124077e-11
8.1216389e-10
1.5626128e-12
4.1086111e-11
5.9649546e-14
1.8264986e-12
2.2540117e-15
7.1292893e-14
1.1653921e-16
2.6425202e-15
3.8123568e-18
9.6220696e-17
9.0767376e-20
2.8767286e-18
1.9945269e-21
7.3253725e-20
3.944857e-23
1.6488895e-21
6.9200553e-25
3.2771961e-23
1.0733744e-26
5.7250819e-25
1.4651883e-28
8.7285476e-27
1.7404963e-30
1.1947837e-28
1.7809204e-32
1.4824454e-30
1.5632404e-34
1.5987546e-32
1.1647185e-36
1.4882188e-34
7.2744848e-39
1.18577e-36
3.7510013e-41
8.0009082e-39
1.5671119e-43
4.5154656e-41
5.2086142e-46
2.09693e-43
1.3767865e-48
6.9996854e-46
2.9307875e-51
2.1046203e-48
4.9522925e-54
6.0275856e-51
6.7273985e-57
1.6036979e-53
6.1129237e-60
3.6019683e-56
-4.5295798e-63
7.8197025e-59
-3.7942131e-65
1.6549685e-61
-9.4909743e-66
3.8033139e-64
-1.5416734e-65
1.1781452e-64
-4.3850608e-65
1.9061703e-64
-7.839555e-65
3.3299501e-64
-7.8805983e-65
3.6663925e-64
-4.7006124e-65
2.775132e-64
-1.373591e-65
1.0233446e-64
-3.429338e-66
2.5327891e-65
7.8451742e-66
-2.8254728e-67
9.3577021e-67
-7.2508019e-65
8.2163757e-65
-6.9038482e-64
1.7996178e-63
-9.3145284e-64
4.860562e-63
-1.0291654e-63
4.9927107e-63
-7.6857386e-64
3.7957852e-63
-3.3544757e-64
2.1182279e-63
-1.853529e-64
8.4710224e-64
-4.4210536e-63
4.4776829e-63
-5.3927102e-61
5.5666108e-61
-6.3019318e-59
6.2699945e-59
-6.9939607e-57
6.4150765e-57
-7.0445328e-55
5.9770624e-55
-6.4634121e-53
5.105332e-53
-5.4214295e-51
4.0018337e-51
-4.1792505e-49
2.8915149e-49
-2.9756288e-47
1.9346473e-47
-1.9655797e-45
1.2035601e-45
-1.2094154e-43
6.988834e-44
-6.9562707e-42
3.8010418e-42
-3.7521721e-40
1.9424913e-40
-1.9034419e-38
9.3547055e-39
-9.102394e-37
4.2556732e-37
-4.1090854e-35
1.8323234e-35
-1.7530336e-33
7.4765775e-34
-7.0915078e-32
2.8945172e-32
-2.7236607e-30
1.0645774e-30
-9.9394729e-29
3.713475e-29
-3.7976884e-27
1.2271092e-27
-1.7360161e-25
3.8899418e-26
-4.8169641e-24
9.7329165e-25
-3.6687014e-23
1.0732738e-23
-9.4294333e-23
4.3474134e-23
-1.980853e-22
9.6825135e-23
-1.0262359e-21
3.1849464e-22
-2.2091318e-20
4.6334282e-21
-8.3443779e-19
9.9893116e-20
-2.8535306e-17
1.9017234e-18
-2.5067178e-16
1.4275231e-17
-5.7385729e-16
8.8186543e-18
-7.6410846e-16
-3.6123957e-17
-1.1988578e-15
0
-3.6177216e-15
0
-1.4059845e-14
-3.4504506e-15
0
-2.1515708e-13
0
-5.2049353e-12
0
-1.0961217e-10
-8.7908738e-09
-7.4415595e-09
2.0796365e-08
-3.6559252e-07
9.8122902e-08
-4.3086724e-07
5.0299818e-08
-6.7025206e-08
1.9001518e-08
-2.8939733e-08
3.1626793e-09
-3.1983451e-08
2.422907e-09
-1.6266681e-08
4.1379353e-09
-1.1030776e-08
4.1138554e-09
-4.5199207e-09
4.5247391e-09
-3.1535895e-09
4.809284e-09
-1.5651655e-09
4.878718e-09
2.368204e-10
2.8792741e-08
2.9295976e-09
3.7258277e-07
1.0315184e-07
3.5191269e-07
3.9774123e-07
9.0831639e-08
5.09323e-07
1.2701187e-09
6.8848307e-08
5.0772345e-11
1.8911509e-09
1.7315402e-12
8.3490719e-11
5.2504231e-14
3.2456266e-12
1.6388363e-15
1.1335844e-13
1.5015381e-16
3.7873426e-15
5.4940134e-18
1.4164761e-16
1.1757279e-19
4.2778695e-18
2.3960184e-21
1.0146588e-19
4.4351644e-23
2.1070123e-21
7.2177715e-25
3.9270949e-23
1.024605e-26
6.6467593e-25
1.2671981e-28
9.8596072e-27
1.3655194e-30
1.2451495e-28
1.2720553e-32
1.3595904e-30
1.0097319e-34
1.3041918e-32
6.7828913e-37
1.0889382e-34
3.8365348e-39
7.9104599e-37
1.8251209e-41
5.0136152e-39
7.4464914e-44
2.8059411e-41
2.5864102e-46
1.4210174e-43
6.9659147e-49
6.6775503e-46
1.4436204e-51
2.5745726e-48
1.7869443e-54
8.8236503e-51
-2.9564931e-57
2.9237795e-53
-2.7943358e-59
8.7556738e-56
-1.031736e-61
2.1163104e-58
-4.4294903e-63
5.3377515e-61
-5.1706592e-63
3.7539956e-62
-8.254687e-63
3.4910435e-62
-2.0254547e-62
5.8226796e-62
-2.972117e-62
9.1077763e-62
-2.8286429e-62
9.0898636e-62
-1.5281809e-62
6.4899361e-62
-4.2351043e-63
2.1938638e-62
-1.0074563e-63
5.0984553e-63
1.4492996e-63
-4.1020001e-65
1.716694e-64
-1.0519511e-62
1.3125796e-62
-1.0211194e-61
2.9203802e-61
-1.3758768e-61
7.9476342e-61
-1.5282545e-61
8.1538535e-61
-1.1491084e-61
6.2377871e-61
-5.1362507e-62
3.5009772e-61
-2.7715939e-62
1.4210138e-61
-9.6121721e-61
9.5728608e-61
-1.2044139e-58
1.2152309e-58
-1.3767442e-56
1.3827237e-56
-1.4250237e-54
1.423679e-54
-1.4434844e-52
1.343893e-52
-1.3455482e-50
1.1660097e-50
-1.1431306e-48
9.2502163e-49
-8.9026828e-47
6.7465317e-47
-6.3887688e-45
4.5454289e-45
-4.2440272e-43
2.8411713e-43
-2.6204243e-41
1.6540452e-41
-1.5093504e-39
9.0012393e-40
-8.1368829e-38
4.5940788e-38
-4.1180861e-36
2.2059112e-36
-1.9611404e-34
9.9914031e-35
-8.7905148e-33
4.2770039e-33
-3.7122477e-31
1.7324723e-31
-1.4990583e-29
6.6621332e-30
-5.9023208e-28
2.4503621e-28
-2.1573525e-26
8.5267345e-27
-7.1747455e-25
2.6393401e-25
-2.5984585e-23
7.0509593e-24
-6.6136247e-22
1.5131333e-22
-5.0920429e-21
1.6114273e-21
-1.2633932e-20
6.4327499e-21
-2.2068241e-20
1.3082628e-20
-7.0186591e-20
2.9224173e-20
-1.2102546e-18
3.0609892e-19
-4.6374671e-17
6.6634079e-18
-1.3457956e-15
1.3617359e-16
-9.7446967e-15
2.1628166e-15