/*--------------------------------*- C++ -*----------------------------------*\
  =========                 |
  \\      /  F ield         | OpenFOAM: The Open Source CFD Toolbox
   \\    /   O peration     | Website:  https://openfoam.org
    \\  /    A nd           | Version:  9
     \\/     M anipulation  |
\*---------------------------------------------------------------------------*/
FoamFile
{
    format      ascii;
    class       volScalarField;
    location    "0.72";
    object      p;
}
// * * * * * * * * * * * * * * * * * * * * * * * * * * * * * * * * * * * * * //

dimensions      [1 -1 -2 0 0 0 0];

internalField   nonuniform List<scalar> 
10000
(
0
-0.013701125
-0.04326077
-0.085588684
-0.14193723
-0.21245858
-0.29739188
-0.39707046
-0.51172501
-0.64180204
-0.78763547
-0.94963813
-1.1282816
-1.3239751
-1.5372288
-1.7685314
-2.0182823
-2.2869107
-2.5748142
-2.8823186
-3.2097223
-3.557215
-3.9248279
-4.3124797
-4.7199235
-5.1466584
-5.591913
-6.0546197
-6.5333585
-7.0263409
-7.531399
-8.045904
-8.5667522
-9.0904229
-9.6128577
-10.129254
-10.634063
-11.13136
-11.603745
-12.047478
-12.45799
-12.830822
-13.162046
-13.44867
-13.689214
-13.884543
-14.038517
-14.158418
-14.255546
-14.343544
-14.441486
-14.568581
-14.738568
-14.959903
-15.233146
-15.549147
-15.882075
-16.187236
-16.416192
-16.542729
-16.561995
-16.484833
-16.328803
-16.11295
-15.854826
-15.568038
-15.263983
-14.951884
-14.638653
-14.329022
-14.026151
-13.732257
-13.448784
-13.176761
-12.916772
-12.669099
-12.433863
-12.210984
-12.000272
-11.8015
-11.614326
-11.438391
-11.273359
-11.118872
-10.974586
-10.8402
-10.715392
-10.599969
-10.493701
-10.396369
-10.307827
-10.227887
-10.156461
-10.093544
-10.039121
-9.9932928
-9.9560373
-9.9274648
-9.9060945
-9.8944651
0.0048855485
-0.0084673461
-0.037932662
-0.080110259
-0.13633094
-0.20666077
-0.29144422
-0.39083554
-0.50526085
-0.63503571
-0.7805377
-0.94223039
-1.1204917
-1.3158189
-1.5287356
-1.7596656
-2.009065
-2.2773902
-2.5650336
-2.8723786
-3.1997397
-3.5472916
-3.9151254
-4.3032266
-4.7113705
-5.1391
-5.5857158
-6.0501947
-6.5311665
-7.026929
-7.5353766
-8.0539093
-8.5794298
-9.1083562
-9.6366443
-10.159926
-10.674476
-11.171279
-11.647177
-12.09559
-12.510685
-12.887291
-13.221075
-13.508632
-13.748044
-13.939674
-14.086861
-14.196882
-14.281755
-14.35709
-14.441148
-14.560293
-14.726818
-14.951162
-15.234948
-15.576727
-15.953802
-16.304871
-16.558522
-16.697541
-16.723259
-16.645164
-16.486539
-16.266608
-16.001232
-15.704952
-15.390416
-15.067368
-14.742974
-14.422272
-14.10882
-13.804967
-13.512298
-13.231863
-12.964264
-12.709775
-12.468411
-12.240039
-12.024451
-11.821335
-11.630294
-11.45094
-11.282897
-11.125742
-10.97911
-10.842641
-10.716055
-10.599101
-10.491513
-10.393072
-10.30357
-10.222843
-10.150777
-10.087333
-10.032508
-9.9862713
-9.9485287
-9.9194879
-9.8975399
-9.8855509
0.027772901
0.014745154
-0.014416006
-0.056245579
-0.11203103
-0.18192656
-0.26609017
-0.36488353
-0.47860361
-0.60759472
-0.75231484
-0.91313723
-1.0905252
-1.2850097
-1.4970469
-1.7271111
-1.9756987
-2.2432726
-2.5302999
-2.8372051
-3.16431
-3.5118706
-3.8800742
-4.2689533
-4.6783546
-5.1079394
-5.5571041
-6.0249148
-6.510121
-7.0111258
-7.5258651
-8.0517475
-8.5856821
-9.1240618
-9.6627426
-10.197153
-10.722333
-11.231753
-11.719381
-12.179327
-12.605485
-12.992195
-13.334532
-13.628445
-13.871233
-14.062224
-14.203665
-14.302306
-14.37105
-14.430012
-14.499313
-14.613879
-14.78087
-15.021203
-15.326637
-15.711089
-16.165719
-16.597935
-16.8557
-16.978112
-16.981437
-16.879396
-16.698353
-16.454845
-16.164826
-15.845145
-15.509795
-15.168444
-14.827999
-14.493191
-14.167406
-13.852776
-13.550689
-13.26203
-12.98724
-12.726507
-12.479777
-12.246768
-12.027183
-11.820665
-11.626738
-11.444926
-11.274796
-11.11586
-10.967762
-10.830067
-10.702438
-10.584619
-10.476298
-10.377213
-10.287161
-10.206
-10.133614
-10.069901
-10.01483
-9.9683797
-9.9304207
-9.9011895
-9.8786653
-9.8662701
0.062286326
0.049545391
0.02072509
-0.020587754
-0.07583885
-0.14497323
-0.22833528
-0.32619238
-0.4388532
-0.56674608
-0.71023931
-0.86977694
-1.0458862
-1.2390382
-1.4497187
-1.6784564
-1.9257633
-2.1921661
-2.4781913
-2.7842921
-3.1108689
-3.4582928
-3.8268281
-4.2165882
-4.6275596
-5.0595423
-5.5120619
-5.9843389
-6.4752785
-6.9833928
-7.5067007
-8.0426926
-8.5883251
-9.1399875
-9.6934256
-10.243746
-10.78543
-11.312305
-11.817941
-12.295678
-12.739029
-13.141756
-13.498209
-13.803457
-14.053663
-14.246651
-14.382886
-14.467734
-14.514739
-14.547877
-14.598343
-14.698555
-14.870061
-15.147846
-15.478711
-15.919981
-16.501824
-17.093651
-17.321964
-17.410648
-17.363748
-17.223542
-17.006032
-16.720656
-16.389234
-16.032273
-15.664266
-15.294623
-14.929854
-14.574456
-14.231289
-13.902071
-13.587784
-13.288906
-13.005588
-12.737715
-12.484945
-12.246873
-12.02306
-11.812991
-11.616074
-11.431761
-11.2595
-11.09882
-10.949229
-10.810279
-10.681623
-10.562897
-10.453813
-10.354088
-10.263485
-10.181897
-10.109152
-10.045098
-9.9897011
-9.9429464
-9.9047406
-9.8755205
-9.8522167
-9.8394946
0.10903884
0.096562228
0.068192483
0.027470179
-0.026937304
-0.095127285
-0.17736842
-0.27392584
-0.38520083
-0.51155111
-0.65338737
-0.81122264
-0.98554167
-1.1768322
-1.385633
-1.6124913
-1.85798
-2.1226955
-2.4071984
-2.712024
-3.0377032
-3.3847003
-3.7533675
-4.1439768
-4.5566985
-4.9914996
-5.4480934
-5.925915
-6.4240605
-6.9412068
-7.4755413
-8.0247099
-8.5857445
-9.1550155
-9.7281855
-10.300139
-10.865003
-11.416323
-11.946777
-12.449492
-12.91724
-13.343043
-13.720414
-14.043409
-14.306754
-14.506197
-14.639384
-14.708678
-14.726118
-14.720396
-14.733093
-14.822937
-15.024671
-15.387695
-15.717243
-16.224001
-17.083579
-18.03639
-17.892969
-18.062962
-17.916561
-17.699217
-17.42384
-17.077108
-16.684375
-16.273613
-15.860011
-15.451712
-15.054471
-14.672025
-14.306356
-13.958467
-13.62868
-13.316962
-13.023001
-12.746318
-12.48626
-12.242127
-12.013285
-11.799056
-11.598666
-11.411457
-11.236819
-11.074166
-10.92293
-10.782633
-10.652829
-10.533133
-10.423239
-10.322841
-10.231685
-10.149613
-10.076447
-10.012026
-9.9562646
-9.9091559
-9.8705645
-9.8417113
-9.8170847
-9.8043385
0.16818547
0.1560533
0.12814064
0.088271419
0.034851491
-0.032123665
-0.11291764
-0.20788399
-0.31735916
-0.44173737
-0.58151046
-0.737153
-0.90915111
-1.0980469
-1.3043995
-1.5288052
-1.7719084
-2.0343447
-2.3167486
-2.6197898
-2.9441114
-3.2902708
-3.6587738
-4.0501008
-4.4646277
-4.9025324
-5.3637767
-5.8480619
-6.3547345
-6.8827213
-7.4304557
-7.9957875
-8.5758879
-9.1671654
-9.7652092
-10.364665
-10.959223
-11.54176
-12.105019
-12.640652
-13.140737
-13.597525
-14.003708
-14.352363
-14.636708
-14.850011
-14.985585
-15.038806
-15.018066
-14.960722
-14.949366
-15.04752
-15.295877
-15.982781
-16.398593
-16.56031
-15.061866
-15.094067
-17.067368
-18.65477
-18.532409
-18.355578
-17.993717
-17.545393
-17.058966
-16.570501
-16.093699
-15.63396
-15.194979
-14.778654
-14.38543
-14.01514
-13.667125
-13.340526
-13.034409
-12.747782
-12.479616
-12.228915
-11.994727
-11.776088
-11.572138
-11.38202
-11.205043
-11.0405
-10.887715
-10.746155
-10.61531
-10.494754
-10.384135
-10.283114
-10.191438
-10.108895
-10.035292
-9.9704925
-9.914358
-9.8669779
-9.8278363
-9.7977244
-9.774901
-9.7613498
0.23945608
0.22765221
0.20040555
0.16147469
0.109264
0.04378551
-0.035312684
-0.12831828
-0.23559519
-0.35762026
-0.49485861
-0.64778249
-0.81692474
-1.0028481
-1.206154
-1.427503
-1.6675736
-1.9270637
-2.2067348
-2.5073743
-2.8297181
-3.1744725
-3.5423613
-3.9340844
-4.3502378
-4.7912749
-5.2574821
-5.7488907
-6.2651756
-6.805607
-7.3689499
-7.9533395
-8.5561843
-9.1740183
-9.8023867
-10.435743
-11.067384
-11.689571
-12.293888
-12.871189
-13.412474
-13.909126
-14.353234
-14.737154
-15.052833
-15.291205
-15.439142
-15.481374
-15.412332
-15.258912
-15.352298
-15.753924
-15.91614
-14.714241
-14.9115
-16.161797
-17.880913
-18.895485
-18.856985
-18.714638
-19.491787
-19.429204
-18.758111
-18.129701
-17.515008
-16.925512
-16.366178
-15.840313
-15.349133
-14.891543
-14.465578
-14.069202
-13.700365
-13.357111
-13.03767
-12.74038
-12.463669
-12.206126
-11.966458
-11.743446
-11.536006
-11.343149
-11.164
-10.997702
-10.843525
-10.700829
-10.569079
-10.447793
-10.336524
-10.234953
-10.142805
-10.059801
-9.9857609
-9.9205883
-9.8639331
-9.8161795
-9.7768829
-9.7462117
-9.7237077
-9.7100695
0.32247784
0.31117375
0.28461106
0.24679838
0.19603771
0.13226936
0.055206021
-0.035465455
-0.14018773
-0.25941721
-0.393612
-0.5432875
-0.70899554
-0.89133386
-1.0909661
-1.3085786
-1.5448889
-1.8007068
-2.0769069
-2.3743599
-2.6939365
-3.0365536
-3.4031598
-3.7946835
-4.2119981
-4.6559027
-5.127073
-5.6259467
-6.1526215
-6.706806
-7.2877092
-7.8938821
-8.5230814
-9.1720977
-9.8365673
-10.510802
-11.187628
-11.858466
-12.513632
-13.142592
-13.734815
-14.281049
-14.77327
-15.203291
-15.562673
-15.841018
-16.01961
-16.065786
-15.939918
-15.742694
-16.042003
-14.748904
-15.856476
-18.761302
-20.90858
-22.686506
-23.60743
-23.850598
-24.778445
-23.012184
-21.530825
-20.984559
-20.033224
-18.922605
-18.082125
-17.347754
-16.678509
-16.069047
-15.514112
-15.007674
-14.543945
-14.118194
-13.726415
-13.365157
-13.031565
-12.723137
-12.437636
-12.17319
-11.928084
-11.70084
-11.490106
-11.294699
-11.11355
-10.945703
-10.790325
-10.646679
-10.514171
-10.392253
-10.280438
-10.178386
-10.085792
-10.002356
-9.9278466
-9.8622269
-9.8053064
-9.7571019
-9.7174744
-9.68647
-9.6639029
-9.6502784
0.41703614
0.40622116
0.38049408
0.34399149
0.29484784
0.23309469
0.15840846
0.070396131
-0.031361843
-0.14731187
-0.27795486
-0.42382266
-0.58549659
-0.76362779
-0.95889799
-1.1720169
-1.4037909
-1.6551289
-1.9269736
-2.2203006
-2.5361682
-2.875708
-3.2400881
-3.6305073
-4.0481911
-4.4943477
-4.9700988
-5.4763731
-6.0137979
-6.5826376
-7.1826897
-7.813084
-8.4720925
-9.1569458
-9.8635794
-10.586336
-11.317572
-12.047572
-12.764844
-13.456852
-14.110764
-14.716956
-15.267452
-15.75468
-16.17149
-16.507865
-16.752677
-16.849473
-16.658558
-16.031912
-15.783128
-17.120081
-19.230874
-21.084223
-23.980047
-27.040062
-29.305198
-30.386035
-30.251667
-28.543788
-25.871715
-22.086779
-22.139294
-20.033391
-18.772351
-17.815889
-17.017268
-16.311364
-15.682321
-15.120238
-14.614794
-14.157443
-13.741461
-13.361605
-13.013601
-12.693979
-12.39985
-12.128754
-11.878566
-11.647439
-11.433768
-11.236145
-11.053319
-10.884245
-10.72795
-10.583607
-10.450544
-10.328142
-10.215894
-10.113428
-10.020419
-9.9365758
-9.8616924
-9.7956228
-9.7382847
-9.6896208
-9.6496021
-9.6182368
-9.5955195
-9.5817563
0.52267571
0.51247283
0.48771642
0.4526527
0.40539485
0.34595805
0.27393909
0.18896255
0.090615909
-0.021579161
-0.14813799
-0.28962026
-0.44665757
-0.61991247
-0.81006789
-1.0178998
-1.2443003
-1.490224
-1.7566847
-2.0448093
-2.3558438
-2.6911092
-3.0520142
-3.4400916
-3.8569711
-4.3043171
-4.7837712
-5.2968605
-5.8448652
-6.428737
-7.0490032
-7.7055755
-8.3975163
-9.1227483
-9.877817
-10.657527
-11.453867
-12.25543
-13.048313
-13.816839
-14.54451
-15.220052
-15.838149
-16.394268
-16.878663
-17.289617
-17.650733
-17.898421
-17.77652
-16.383022
-18.080241
-19.265296
-21.418567
-24.198696
-28.112263
-32.464737
-35.946801
-37.597908
-37.155705
-34.852988
-31.580643
-25.947073
-23.557058
-21.191364
-19.530435
-18.322214
-17.36761
-16.552253
-15.841611
-15.219361
-14.670283
-14.180813
-13.740652
-13.342475
-12.98061
-12.65045
-12.348379
-12.071328
-11.81672
-11.582346
-11.366328
-11.167029
-10.983051
-10.813161
-10.656303
-10.511579
-10.378199
-10.255506
-10.142983
-10.04021
-9.946847
-9.8626282
-9.7873204
-9.7207881
-9.6629607
-9.6138062
-9.5733197
-9.5414929
-9.5184665
-9.5043937
0.63901531
0.62950567
0.60578987
0.57241248
0.52729575
0.47042488
0.40141544
0.31988798
0.22539547
0.11745259
-0.004477196
-0.14100235
-0.29276123
-0.46040778
-0.64467102
-0.84639032
-1.0664831
-1.3059396
-1.5658789
-1.8475729
-2.1524159
-2.4819246
-2.8377898
-3.2219115
-3.6363558
-4.0832906
-4.5649688
-5.0836541
-5.641411
-6.2399919
-6.8808129
-7.5648298
-8.2922575
-9.0620768
-9.8718024
-10.717326
-11.590854
-12.479162
-13.365353
-14.227386
-15.041181
-15.792937
-16.4923
-17.125156
-17.671402
-18.154183
-18.585894
-18.895783
-16.136526
-17.787462
-19.665745
-21.373672
-23.786579
-27.400232
-32.580721
-38.320311
-42.891948
-44.961787
-44.219854
-41.038819
-36.128539
-30.964598
-23.979929
-22.938501
-20.490123
-18.887691
-17.712755
-16.768477
-15.973073
-15.291473
-14.700596
-14.180866
-13.718381
-13.30361
-12.929401
-12.590137
-12.28136
-11.99947
-11.741446
-11.504761
-11.287237
-11.087013
-10.902524
-10.732377
-10.575422
-10.43066
-10.297248
-10.174508
-10.061889
-9.9589162
-9.8652636
-9.7806562
-9.7048825
-9.6378405
-9.5794575
-9.5297247
-9.488636
-9.4562362
-9.4327158
-9.4181392
0.76555579
0.75677404
0.73428523
0.70280297
0.66004262
0.60604673
0.54042033
0.46274783
0.37257747
0.26939947
0.15263261
0.021664904
-0.12412305
-0.2854166
-0.46299693
-0.65771051
-0.8704742
-1.1023379
-1.354517
-1.6283737
-1.9254246
-2.2474075
-2.5963257
-2.9744444
-3.3842799
-3.8285739
-4.3103008
-4.8326013
-5.3984826
-6.0106229
-6.6714691
-7.3832476
-8.1477288
-8.9655434
-9.8357593
-10.756527
-11.722387
-12.719025
-13.724203
-14.700708
-15.607461
-16.444632
-17.24375
-17.951844
-18.548664
-19.077426
-19.545107
-17.920047
-17.615204
-20.077439
-21.492201
-23.531395
-25.968526
-30.378836
-36.465681
-43.22606
-48.455044
-50.636995
-49.574691
-45.800105
-40.241239
-34.502806
-24.949078
-23.96488
-21.162189
-19.29523
-17.953208
-16.91151
-16.049175
-15.319516
-14.694388
-14.14975
-13.668958
-13.2408
-12.856808
-12.510535
-12.196904
-11.911795
-11.6518
-11.414057
-11.196075
-10.99585
-10.811618
-10.641873
-10.485369
-10.341023
-10.207934
-10.085396
-9.9728335
-9.86976
-9.7758724
-9.6908718
-9.614605
-9.5469702
-9.4879099
-9.4374551
-9.3956071
-9.3624888
-9.3382921
-9.3230011
0.90169169
0.89379327
0.87265676
0.84324467
0.80312418
0.75233905
0.69046397
0.61708052
0.53171081
0.43379438
0.32274835
0.19798411
0.058860151
-0.095349147
-0.26541986
-0.45217504
-0.65655121
-0.87964455
-1.1227022
-1.3871345
-1.6745841
-1.9870033
-2.3266786
-2.6962346
-3.098674
-3.5373874
-4.016163
-4.5391596
-5.1105266
-5.7340032
-6.4131264
-7.1515471
-7.9531054
-8.8209648
-9.7563342
-10.760738
-11.834603
-12.962076
-14.114104
-15.248792
-16.294033
-17.209421
-18.08815
-18.894412
-19.538081
-20.072344
-20.65132
-20.172329
-21.597044
-22.195218
-23.446623
-25.434827
-27.636426
-32.281624
-38.610582
-45.756454
-51.015342
-53.037583
-51.860146
-47.87917
-42.106868
-35.612794
-26.361934
-24.274127
-21.4578
-19.453551
-18.033136
-16.947187
-16.047688
-15.288961
-14.641703
-14.080267
-13.587102
-13.149982
-12.759727
-12.40934
-12.0933
-11.807046
-11.546839
-11.309643
-11.092545
-10.893427
-10.710372
-10.541824
-10.38642
-10.243002
-10.110622
-9.9885495
-9.8761923
-9.7731028
-9.6789835
-9.5935789
-9.5167394
-9.4483808
-9.3884996
-9.3371446
-9.2943514
-9.2603254
-9.2352546
-9.2190505
1.0468468
1.0399333
1.0202672
0.99318055
0.95599353
0.90874986
0.85102992
0.78238214
0.70227264
0.61013164
0.50540004
0.38747528
0.25568029
0.10929943
-0.052406581
-0.23025131
-0.425178
-0.63826169
-0.87072319
-1.1240072
-1.3998683
-1.7004121
-2.0281366
-2.3860179
-2.7775969
-3.2069751
-3.6788478
-4.1985721
-4.7716841
-5.4032022
-6.097778
-6.8602249
-7.6965324
-8.6136505
-9.6163343
-10.71109
-11.91086
-13.205109
-14.575214
-15.941013
-17.07492
-17.786818
-19.012527
-20.050117
-20.723133
-21.238999
-21.981802
-22.831305
-23.343466
-24.076381
-25.196768
-26.806082
-28.81423
-32.933664
-38.743355
-45.170958
-50.006052
-51.797239
-50.641154
-46.734474
-41.263422
-34.809623
-27.038623
-23.154548
-21.552037
-19.410922
-17.961661
-16.871214
-15.95984
-15.191652
-14.535755
-13.967
-13.468465
-13.027748
-12.635493
-12.284517
-11.969102
-11.684193
-11.42579
-11.191247
-10.97647
-10.779753
-10.599022
-10.432564
-10.278957
-10.137005
-10.005734
-9.8843909
-9.7724149
-9.6694041
-9.5750527
-9.4891639
-9.4116009
-9.3423475
-9.2814684
-9.2289913
-9.1850107
-9.1498763
-9.1237836
-9.1061324
1.200311
1.1944959
1.1765135
1.1519972
1.118036
1.0747083
1.0215596
0.95807317
0.88370069
0.79788478
0.70004655
0.58955632
0.46574889
0.32794729
0.17543461
0.0074159523
-0.17699212
-0.37878209
-0.59912751
-0.8394726
-1.1015999
-1.3876736
-1.7003372
-2.0428868
-2.4193921
-2.8346939
-3.2945436
-3.8057689
-4.3755028
-5.0101449
-5.7156113
-6.4977515
-7.3642994
-8.3272939
-9.3981713
-10.588414
-11.922773
-13.404678
-15.010194
-16.257771
-17.169156
-19.338616
-20.753866
-21.790976
-22.459307
-22.693879
-23.195366
-24.114396
-24.864991
-25.471366
-26.472507
-27.683637
-29.258103
-32.2894
-36.929856
-41.982734
-45.789378
-47.151519
-45.950055
-42.616733
-37.986982
-33.506438
-26.485707
-21.966136
-21.043604
-19.096522
-17.703364
-16.687403
-15.783659
-15.02397
-14.372488
-13.806332
-13.309935
-12.87146
-12.48201
-12.134362
-11.823297
-11.542622
-11.28874
-11.058272
-10.847903
-10.655184
-10.478021
-10.314629
-10.163572
-10.023641
-9.8938761
-9.7735319
-9.6620993
-9.559199
-9.4645712
-9.378063
-9.2996019
-9.2292472
-9.1670853
-9.1131986
-9.0677556
-9.0313168
-9.0037538
-8.9843034
1.3613125
1.3567914
1.3406857
1.3190055
1.2886124
1.24959
1.2014126
1.1435365
1.0754112
0.99645562
0.90605514
0.80358634
0.68841983
0.55990141
0.41734371
0.26002858
0.087188893
-0.10205902
-0.30880594
-0.53440838
-0.78054896
-1.0493387
-1.3434748
-1.6664794
-2.0228822
-2.4182735
-2.8596585
-3.3557781
-3.9157445
-4.5476266
-5.258883
-6.0543499
-6.9397039
-7.9342222
-9.0635391
-10.337717
-11.771911
-13.497767
-14.584421
-13.442153
-17.190302
-20.676755
-22.769467
-24.301026
-25.061038
-25.024246
-25.2278
-25.76405
-26.389397
-26.626289
-27.515672
-28.154826
-29.375317
-31.241893
-34.327256
-37.63115
-40.064596
-40.500404
-39.242632
-36.658508
-33.195011
-29.004397
-24.4296
-21.13735
-20.252012
-18.588109
-17.346337
-16.358389
-15.512739
-14.783778
-14.150028
-13.596253
-13.109557
-12.679402
-12.297841
-11.958176
-11.654549
-11.38159
-11.135086
-10.911423
-10.707354
-10.520282
-10.348014
-10.188758
-10.041048
-9.9037147
-9.7758489
-9.6567727
-9.5459869
-9.4431561
-9.3481296
-9.2608331
-9.1812467
-9.1095053
-9.0457303
-8.990084
-8.9428558
-8.9046743
-8.8753919
-8.8537483
1.5289899
1.5259693
1.5120004
1.4934635
1.4670086
1.4326763
1.3899059
1.3381341
1.2767645
1.2051779
1.122756
1.0288912
0.92296707
0.80435645
0.67244769
0.52664724
0.36632477
0.19073382
-0.0010487999
-0.21016438
-0.43806174
-0.68665851
-0.95852975
-1.2572301
-1.5876321
-1.9560165
-2.3707406
-2.8432724
-3.3858316
-4.0078093
-4.7175706
-5.5201851
-6.4168058
-7.4287523
-8.6125372
-10.003783
-11.631423
-13.525877
-12.488182
-15.23183
-18.39961
-21.097016
-24.56989
-27.115994
-28.27383
-28.198594
-27.60026
-28.075722
-20.685665
-23.267657
-27.975608
-28.567497
-29.062497
-30.284506
-32.157087
-33.785097
-35.054396
-33.595979
-30.851667
-29.764459
-27.882519
-25.141486
-22.323401
-20.813969
-19.275386
-17.943181
-16.867423
-15.960484
-15.171217
-14.479382
-13.871673
-13.337322
-12.866429
-12.450416
-12.082047
-11.754904
-11.463081
-11.201364
-10.965319
-10.751133
-10.555565
-10.375913
-10.209953
-10.055922
-9.912398
-9.7782764
-9.6526967
-9.5350616
-9.4249322
-9.3221125
-9.226518
-9.1381585
-9.0571215
-8.9836013
-8.9178309
-8.860021
-8.810574
-8.7703109
-8.7389065
-8.7146883
1.7020773
1.7010667
1.6896488
1.6745819
1.6524246
1.6232114
1.5863335
1.5411678
1.4870631
1.4233756
1.3494761
1.2647483
1.1685866
1.0604287
0.93977486
0.80616254
0.65911531
0.49808979
0.3224371
0.13135594
-0.076216886
-0.30178676
-0.54752062
-0.81671311
-1.1143516
-1.4471689
-1.8247895
-2.2624629
-2.7776149
-3.381297
-4.0823904
-4.8853539
-5.7807641
-6.792662
-8.0490666
-9.5671301
-11.381962
-13.535354
-13.635778
-16.251421
-18.45368
-19.63861
-25.887802
-29.245384
-30.91486
-30.856116
-29.794487
-29.508181
-19.999025
-18.456095
-28.435955
-28.435684
-28.730341
-29.891715
-30.322509
-31.150706
-31.290423
-31.17955
-27.936772
-26.269712
-24.332287
-22.460282
-20.966943
-19.556052
-18.298628
-17.238669
-16.317466
-15.499664
-14.768184
-14.116743
-13.539627
-13.02982
-12.580206
-12.183854
-11.83405
-11.524374
-11.248909
-11.002366
-10.780153
-10.578342
-10.393648
-10.223285
-10.065127
-9.9174704
-9.7789664
-9.6485996
-9.5256111
-9.4095161
-9.3000238
-9.1970588
-9.1006308
-9.0108514
-8.9279409
-8.8521805
-8.7839213
-8.7234514
-8.671307
-8.6285343
-8.5945656
-8.5672636
1.8805776
1.8813766
1.8728112
1.8614877
1.8440246
1.8204047
1.7899264
1.7518958
1.7056079
1.6503721
1.5855098
1.5103889
1.424441
1.3271876
1.2182424
1.0972791
0.96401308
0.81817837
0.65949166
0.4876074
0.30203786
0.10198767
-0.11391344
-0.3482377
-0.60559983
-0.89265242
-1.2198616
-1.6075004
-2.0831458
-2.6616551
-3.347898
-4.1497595
-5.0510386
-6.0188566
-7.3655195
-8.995199
-10.950247
-13.209029
-15.778022
-16.955379
-18.222108
-18.729307
-26.377977
-30.29882
-32.683839
-33.032392
-32.047525
-31.119481
-28.36973
-18.16299
-28.58273
-27.734632
-28.827634
-30.186467
-29.809211
-29.43795
-28.650566
-27.480139
-26.19033
-24.731943
-22.901136
-21.206122
-19.627719
-18.430256
-17.437446
-16.551407
-15.740475
-14.994502
-14.313688
-13.700893
-13.155516
-12.673756
-12.250375
-11.879206
-11.553542
-11.266689
-11.012525
-10.7855
-10.580828
-10.394493
-10.223154
-10.064082
-9.9152593
-9.7750981
-9.6423536
-9.5161911
-9.3960333
-9.2815151
-9.1725332
-9.0691409
-8.9714937
-8.8798584
-8.7945455
-8.715996
-8.6446594
-8.5808995
-8.5254966
-8.4797011
-8.4426407
-8.4116431
2.0628589
2.0660869
2.0605081
2.0532256
2.0408987
2.023381
1.9998662
1.9695799
1.9317089
1.8854681
1.8301277
1.7650472
1.689695
1.6036655
1.5066806
1.3985741
1.2792889
1.1488766
1.0074892
0.85535988
0.69277403
0.51997719
0.33690008
0.14236446
-0.066949992
-0.29643427
-0.55656248
-0.87319858
-1.2899634
-1.8360195
-2.50915
-3.3116292
-4.2199095
-5.1046282
-6.5237451
-8.1899172
-10.201681
-12.367207
-14.654929
-18.138695
-20.873263
-20.703434
-26.004809
-30.254716
-34.010326
-35.463999
-34.47618
-31.91865
-29.784286
-24.115592
-29.115661
-29.049578
-30.849749
-31.802047
-31.091322
-29.111755
-27.21288
-25.260045
-23.433631
-21.738906
-20.508538
-19.344059
-18.311799
-17.445227
-16.658167
-15.892378
-15.154616
-14.457415
-13.814191
-13.233885
-12.719162
-12.268143
-11.87594
-11.53588
-11.240486
-10.982431
-10.755026
-10.55228
-10.36918
-10.201608
-10.046244
-9.9005052
-9.7625043
-9.6308488
-9.5045362
-9.3829427
-9.2656884
-9.1526444
-9.043909
-8.9397001
-8.8403393
-8.7462489
-8.6578892
-8.5758816
-8.5007687
-8.4330217
-8.3736861
-8.3242529
-8.2834103
-8.2480335
2.2487037
2.2534089
2.2516407
2.2486805
2.241995
2.2311983
2.2153312
2.1934737
2.1646554
2.1279716
2.0826436
2.0280068
1.9635387
1.8888947
1.8039131
1.7085972
1.6031187
1.4878477
1.3634113
1.2307295
1.0910197
0.9458624
0.79707447
0.64578206
0.49154802
0.33312331
0.1623954
-0.054053441
-0.38320905
-0.88833606
-1.5464435
-2.3436569
-3.2015326
-4.1851487
-5.5049677
-7.1696064
-9.1809858
-11.654159
-14.290381
-16.97088
-19.475917
-21.134688
-23.457991
-28.795032
-35.647689
-39.809185
-38.754992
-33.673529
-28.535549
-24.500887
-25.917251
-33.879285
-36.044551
-35.349751
-32.822704
-29.580702
-26.274817
-24.181627
-22.502742
-20.487578
-18.952925
-18.086679
-17.319989
-16.640119
-15.967283
-15.267335
-14.565524
-13.891457
-13.269244
-12.712976
-12.227367
-11.810136
-11.454843
-11.15287
-10.895075
-10.672747
-10.478234
-10.305036
-10.147855
-10.002486
-9.8657514
-9.7352979
-9.609482
-9.4872275
-9.3678603
-9.2510185
-9.1365972
-9.0247549
-8.9158298
-8.8102597
-8.7085549
-8.6112721
-8.519109
-8.4328428
-8.3531304
-8.2805436
-8.21647
-8.1626745
-8.1172316
-8.0766666
2.4365489
2.4426069
2.4446602
2.4465125
2.4461598
2.4428746
2.4354674
2.4228078
2.403756
2.3772674
2.342465
2.2986287
2.2452359
2.1819989
2.1088584
2.0259599
1.9336758
1.8326755
1.7240386
1.6093541
1.4908128
1.3715315
1.2556808
1.1474941
1.0513355
0.97373282
0.90968498
0.82029481
0.62483552
0.16241761
-0.51133338
-1.3014657
-2.0835023
-3.0957661
-3.9794922
-5.994868
-7.5235328
-8.4771863
-11.423039
-17.223482
-18.950326
-18.536734
-19.025522
-25.496992
-39.182434
-48.880141
-47.001407
-36.651309
-26.234592
-25.064411
-24.592286
-36.249691
-41.799225
-40.690634
-35.518866
-29.15905
-25.386784
-22.929525
-20.914241
-19.344212
-18.257436
-17.343199
-16.623671
-16.01711
-15.38006
-14.687145
-13.975892
-13.292298
-12.670964
-12.129698
-11.672773
-11.294377
-10.983981
-10.729196
-10.518007
-10.339582
-10.184991
-10.047123
-9.9204262
-9.8007604
-9.6852174
-9.5718679
-9.4594371
-9.3472611
-9.2350868
-9.1229266
-9.0110587
-8.8999524
-8.7902148
-8.6825513
-8.5776807
-8.4763545
-8.3794957
-8.2880485
-8.2027423
-8.1243024
-8.0545622
-7.9955282
-7.9445002
-7.8978161
2.6245423
2.6317965
2.6381319
2.6453177
2.6521683
2.6573419
2.6593619
2.6568404
2.6484164
2.6328489
2.6091089
2.5764077
2.5342171
2.4822873
2.4206159
2.3494453
2.2693006
2.1810931
2.0862355
1.9867586
1.8856122
1.787412
1.6987124
1.6269592
1.5836961
1.5929718
1.672627
1.7637284
1.6695375
1.2857358
0.62508833
-0.15046733
-0.86591261
-1.6518882
-2.5008346
-4.2797951
-4.3630464
-6.4120042
-9.0090505
-15.788867
-22.604412
-16.685649
-10.076582
-16.444374
-47.075213
-67.296188
-62.274116
-39.785169
-17.154685
-16.262009
-21.004177
-41.851753
-54.040898
-52.44814
-40.281493
-27.79764
-21.845117
-21.509828
-20.494962
-18.135129
-16.40958
-15.826708
-16.005547
-15.529712
-14.89787
-14.152722
-13.375493
-12.642294
-12.000095
-11.467349
-11.042818
-10.712881
-10.459502
-10.264312
-10.111072
-9.986275
-9.8795684
-9.7832139
-9.691664
-9.6010913
-9.5091051
-9.4143603
-9.3161841
-9.214447
-9.1094075
-9.0015782
-8.8916895
-8.780588
-8.6692062
-8.5585248
-8.4494919
-8.3431155
-8.2404961
-8.1427749
-8.050736
-7.9653086
-7.8888266
-7.8234975
-7.7657182
-7.7117898
2.8105997
2.8190463
2.8300119
2.843544
2.8585883
2.8734059
2.8861052
2.8949192
2.8981617
2.8943392
2.8822596
2.8610531
2.8301613
2.7893243
2.7385606
2.6781681
2.6087464
2.5313065
2.4473608
2.3589594
2.2692081
2.1835673
2.1100185
2.0563684
2.0346437
2.0882611
2.2713089
2.4522431
2.2471411
1.7206511
1.0400858
0.59606487
0.31316922
-0.023889255
-0.88227678
-0.45135391
-1.8717103
-5.646393
-8.7380971
-14.410034
-35.887981
-18.894632
6.7637314
10.224847
-61.772205
-105.66584
-93.769584
-44.074
19.886915
31.881135
-5.3492148
-62.618182
-72.722187
-64.253024
-41.662483
-21.246147
-14.377628
-21.36718
-21.613618
-16.896444
-15.262989
-15.336127
-15.499574
-15.248159
-14.560712
-13.665124
-12.740538
-11.907757
-11.223732
-10.699508
-10.319557
-10.055594
-9.8776822
-9.759016
-9.6779578
-9.6181822
-9.5680634
-9.5196164
-9.4677541
-9.4093754
-9.3428899
-9.2677809
-9.1842178
-9.0927861
-8.99442
-8.890209
-8.7813963
-8.669277
-8.5551699
-8.4403344
-8.3259857
-8.2133444
-8.1037623
-7.9985168
-7.898464
-7.8047678
-7.7202832
-7.6474454
-7.5814983
-7.5189396
2.9921225
3.0019516
3.0181263
3.039204
3.0638318
3.089845
3.1148655
3.1364922
3.1526481
3.161554
3.1618521
3.1525531
3.1330355
3.1029984
3.0624611
3.011736
2.9514004
2.8823566
2.8058857
2.7234892
2.6374157
2.5528691
2.4761317
2.4017296
2.3325585
2.3932345
2.7236327
2.9029655
2.4305156
1.4513344
0.34889455
-0.072687695
0.70594792
1.6005462
1.3098866
0.94288842
0.88141198
-5.0657082
-3.6639009
-6.5943232
-50.562473
-17.142744
50.653823
95.959601
-86.455872
-148.76635
-9.7802098
74.7158
174.6528
182.49563
126.01556
125.7935
15.302594
-23.210443
-4.4934313
16.640118
-6.7988709
-27.951073
-26.635362
-12.27579
-10.933514
-14.028929
-15.410959
-15.342455
-14.436525
-13.21062
-12.019188
-11.028355
-10.289796
-9.7888725
-9.480483
-9.3121258
-9.2367917
-9.2170186
-9.225474
-9.2435277
-9.2590836
-9.2647834
-9.256637
-9.232844
-9.1930615
-9.1379244
-9.0686652
-8.9868237
-8.8941345
-8.7923765
-8.6833725
-8.5689084
-8.4506904
-8.3303239
-8.2093383
-8.0890268
-7.9711473
-7.8570132
-7.7475374
-7.6441208
-7.5502025
-7.4684379
-7.392595
-7.3196511
3.1660588
3.1774156
3.1996179
3.2299012
3.2660835
3.3054524
3.3447855
3.3810901
3.4117197
3.4345852
3.448116
3.4512049
3.4431532
3.4236158
3.3925912
3.3503627
3.297414
3.234374
3.1619845
3.080601
2.9906158
2.8951835
2.7900821
2.6431888
2.467514
2.5188409
2.9308199
3.1393772
2.6606579
1.8177233
0.37779702
-0.73966928
1.3648236
3.6936472
4.7002775
3.8739746
1.8903314
-3.7389382
-4.7167181
2.3810672
-56.100622
-23.735889
183.25504
551.60009
-575.7232
2738.7365
7068.1323
5494.0501
1486.1092
931.10671
3919.6842
6757.5091
5514.5141
1148.1751
-556.74291
-70.085535
2.8053698
-57.288158
-9.0643369
12.984646
-5.0081426
-14.538116
-16.854731
-16.293637
-14.624107
-12.725455
-11.100717
-9.8986453
-9.1193091
-8.6860309
-8.5010829
-8.4751909
-8.5401832
-8.6474274
-8.7653261
-8.8746397
-8.9645699
-9.0297146
-9.0681947
-9.080194
-9.0671884
-9.0313701
-8.9752659
-8.9015719
-8.8129398
-8.7119509
-8.6010642
-8.4825649
-8.3585507
-8.2310353
-8.1019793
-7.9723649
-7.8446946
-7.7202166
-7.599808
-7.4850665
-7.3801392
-7.2877914
-7.1999898
-7.1144481
3.3284203
3.3413617
3.3708986
3.4127104
3.4632106
3.5187862
3.5751348
3.6284914
3.6755491
3.7138466
3.7416174
3.7576725
3.7612547
3.7519807
3.7298062
3.6949559
3.6477976
3.588665
3.5176836
3.4338297
3.3349497
3.2195205
3.0659533
2.8104524
2.4905977
2.4340802
3.6538319
3.1621931
0.70637772
0.58944063
0.94976259
1.4840019
3.5448985
7.0127771
9.5545049
10.449966
10.585668
3.5936778
-0.26219437
-9.8703942
98.282971
1075.8357
559.98167
-2707.0565
514.14481
6333.1596
8081.907
6328.5273
4084.3295
3700.4745
5073.5203
6698.3104
6749.967
4890.3644
2079.3576
451.94547
1156.0235
930.63888
200.33608
63.301954
-15.616387
-21.391615
-22.217573
-19.086074
-15.121189
-12.005557
-9.7711416
-8.3490381
-7.605044
-7.3356609
-7.3615322
-7.5469409
-7.8011834
-8.0681393
-8.3161614
-8.5291537
-8.7003562
-8.8282574
-8.9143451
-8.9616428
-8.9739789
-8.9554791
-8.9103059
-8.8424345
-8.7555568
-8.65309
-8.5381495
-8.4135177
-8.2817245
-8.1450678
-8.0054302
-7.8655556
-7.7266742
-7.5903567
-7.457422
-7.3296592
-7.2119666
-7.1071678
-7.0050059
-6.9042068
3.4743368
3.4885972
3.5272834
3.5839192
3.6526621
3.7283831
3.8053989
3.8786442
3.9448353