/*--------------------------------*- C++ -*----------------------------------*\
  =========                 |
  \\      /  F ield         | OpenFOAM: The Open Source CFD Toolbox
   \\    /   O peration     | Website:  https://openfoam.org
    \\  /    A nd           | Version:  9
     \\/     M anipulation  |
\*---------------------------------------------------------------------------*/
FoamFile
{
    format      ascii;
    class       surfaceScalarField;
    location    "0.72";
    object      phi;
}
// * * * * * * * * * * * * * * * * * * * * * * * * * * * * * * * * * * * * * //

dimensions      [0 3 -1 0 0 0 0];

internalField   nonuniform List<scalar> 
19800
(
-0.00010497144
0.00016473575
-0.00017355348
0.00016499994
-0.00024225238
0.0001658339
-0.00031099868
0.00016677969
-0.00037988158
0.00016786598
-0.00044887429
0.00016902754
-0.00051798764
0.00017024984
-0.0005872287
0.00017147492
-0.00065654858
0.00017266074
-0.00072593992
0.00017377
-0.00079537308
0.00017476448
-0.00086476742
0.00017559415
-0.00093409415
0.00017625255
-0.0010032876
0.00017664717
-0.0010722975
0.00017677712
-0.0011410568
0.00017659329
-0.0012095092
0.00017610187
-0.0012776083
0.00017527657
-0.001345298
0.0001741014
-0.0014125167
0.00017255324
-0.0014792124
0.00017058185
-0.0015453203
0.00016819084
-0.0016107518
0.00016540085
-0.0016754023
0.00016214227
-0.0017391534
0.00015837194
-0.001801834
0.00015397443
-0.0018632039
0.00014885327
-0.0019229547
0.00014281939
-0.0019806953
0.00013565038
-0.0020359478
0.00012707294
-0.0020881114
0.00011679775
-0.0021364391
0.0001045783
-0.0021799541
9.01159e-05
-0.002217302
7.3146016e-05
-0.0022467269
5.367978e-05
-0.0022656321
3.1029622e-05
-0.0022713524
4.0858993e-06
-0.0022620598
-2.3387717e-05
-0.0022332606
-5.6939257e-05
-0.0021823493
-9.5472063e-05
-0.0021062377
-0.00013966362
-0.0020014873
-0.00019018242
-0.0018642856
-0.00024774688
-0.0016903006
-0.00031317999
-0.0014744526
-0.00038749463
-0.001210938
-0.00047182233
-0.00089362432
-0.00056689751
-0.00051665306
-0.00067189423
-7.4561195e-05
-0.00078675353
0.00043316284
-0.00090557695
0.0010079762
-0.0010273316
0.0016393297
-0.0011329192
0.0023142059
-0.001216656
0.0030114411
-0.0012643631
0.0037000031
-0.0012578409
0.0043379018
-0.0011783918
0.0048787961
-0.0010193028
0.005286825
-0.0007970515
0.0055485939
-0.00054549312
0.0056679258
-0.00029383719
0.0056633796
-6.5747876e-05
0.0055551469
0.00014174881
0.0053697299
0.00032607466
0.0051294443
0.00048122567
0.0048530843
0.00060500819
0.0045567563
0.00069772257
0.0042529753
0.00076254231
0.0039509242
0.00080339053
0.0036568525
0.0008238079
0.0033744684
0.00082692664
0.0031055476
0.00081556962
0.0028506635
0.00079246681
0.0026097828
0.00076034459
0.0023826179
0.00072187296
0.0021688124
0.00067947715
0.0019680316
0.00063517921
0.0017799617
0.0005904762
0.001604277
0.00054642993
0.0014406304
0.00050367919
0.0012886278
0.00046281316
0.0011479152
0.0004239565
0.0010180821
0.00038726001
0.00089867115
0.00035279017
0.00078922784
0.00032049881
0.0006893054
0.00029034725
0.00059842062
0.00026232641
0.00051613707
0.0002363388
0.00044196766
0.00021225872
0.00037540064
0.00018998532
0.00031590508
0.00016947906
0.00026297617
0.00015076517
0.00021617208
0.00013380585
0.00017498582
0.00011842217
0.00013896792
0.00010469523
0.00010763458
9.2607578e-05
8.038302e-05
8.2024636e-05
5.66017e-05
7.2966692e-05
3.5726566e-05
6.5470531e-05
1.7229795e-05
5.9628538e-05
5.4541206e-05
-0.00010414166
0.00023280959
-0.00017240284
0.00023324817
-0.00024078435
0.0002342187
-0.00030934746
0.00023534263
-0.00037810442
0.00023661918
-0.00044701939
0.00023795436
-0.00051611607
0.00023933515
-0.00058537101
0.0002407397
-0.00065478525
0.00024207206
-0.00072431228
0.00024328983
-0.00079391254
0.00024436812
-0.00086354428
0.0002452196
-0.00093313033
0.00024583631
-0.0010026213
0.00024614123
-0.0010719634
0.00024611343
-0.0011410963
0.00024572123
-0.0012099556
0.00024496183
-0.0012784673
0.00024378774
-0.0013465919
0.00024222669
-0.001414269
0.00024023172
-0.0014814584
0.00023776653
-0.001548135
0.00023486022
-0.0016142253
0.00023148953
-0.0016796511
0.00022756964
-0.0017443121
0.0002230322
-0.0018080815
0.00021774091
-0.0018707655
0.00021153388
-0.0019321059
0.00020415744
-0.0019917456
0.000195291
-0.0020492295
0.00018456017
-0.0021039502
0.00017152063
-0.0021550588
0.00015568737
-0.0022014304
0.00013648757
-0.0022416757
0.00011339107
-0.0022739773
8.598137e-05
-0.0022962302
5.3281327e-05
-0.0023068051
1.4656289e-05
-0.0023012735
-2.8921165e-05
-0.0022776649
-8.0544909e-05
-0.0022328859
-0.00014025211
-0.0021636567
-0.00020889439
-0.002066469
-0.00028736553
-0.0019375716
-0.00037664001
-0.0017728177
-0.00047793169
-0.0015672926
-0.00059302367
-0.0013150207
-0.00072410104
-0.0010093649
-0.00087255254
-0.00064273457
-0.0010385257
-0.00020720562
-0.0012222856
0.00030213942
-0.0014149249
0.00089555907
-0.0016207525
0.0015528144
-0.001790177
0.0022614688
-0.0019253173
0.0030079601
-0.0020108557
0.0037672273
-0.0020171025
0.0044873215
-0.0018984839
0.0050990005
-0.0016309844
0.0055498989
-0.0012479463
0.0058263539
-0.00082194431
0.0059408513
-0.00040833715
0.0059148509
-3.9753441e-05
0.0057819861
0.00027461407
0.0055657072
0.00054235827
0.0052889342
0.00075799508
0.0049747236
0.00091921396
0.0046421765
0.0010302739
0.0043057888
0.0010989345
0.0039758898
0.0011332891
0.0036591358
0.0011405583
0.0033590892
0.0011269759
0.0030770079
0.0010976523
0.0028127498
0.0010567229
0.0025655134
0.0010075798
0.0023343233
0.00095305975
0.0021182913
0.00089550932
0.0019166783
0.00083679468
0.0017288425
0.00077831477
0.0015542085
0.0007210649
0.0013921882
0.00066569882
0.0012422424
0.00061276043
0.0011038291
0.00056237438
0.00097641959
0.00051467529
0.00085949392
0.00046971514
0.00075252689
0.00042746378
0.00065501306
0.00038785518
0.00056646883
0.0003508711
0.00048644357
0.00031636957
0.00041442317
0.00028428153
0.00034991644
0.00025449424
0.00029247258
0.00022692353
0.00024161781
0.0002016171
0.00019692818
0.00017848742
0.00015779588
0.00015755077
0.00012378992
0.0001387045
9.4442009e-05
0.00012195559
6.9146769e-05
0.00010731916
4.7319093e-05
9.4808374e-05
2.8466514e-05
8.4350642e-05
1.2022159e-05
7.6106876e-05
6.8829795e-05
-0.00010356004
0.00030065536
-0.00017167159
0.00030136359
-0.00023993546
0.0003024806
-0.00030836575
0.00030376657
-0.00037688101
0.00030514486
-0.00044569565
0.00030675693
-0.00051476957
0.00030841585
-0.00058409037
0.00031005777
-0.00065357148
0.00031154494
-0.00072323274
0.00031295452
-0.00079302747
0.00031415891
-0.00086287004
0.00031506005
-0.00093273063
0.00031570123
-0.0010025444
0.0003159519
-0.0010722226
0.0003157869
-0.0011417438
0.00031524246
-0.0012109747
0.00031419194
-0.0012799078
0.00031272151
-0.0013484636
0.00031078579
-0.0014165863
0.00030835332
-0.0014842465
0.00030542126
-0.0015513873
0.00030199829
-0.0016179934
0.00029809554
-0.0016839943
0.00029356883
-0.0017493595
0.00028839419
-0.0018139775
0.00028235592
-0.0018777248
0.0002752785
-0.0019403892
0.00026682012
-0.0020016742
0.00025657705
-0.0020611636
0.00024405117
-0.0021182512
0.0002286079
-0.0021721024
0.000209538
-0.0022217012
0.00018608727
-0.0022657371
0.00015742513
-0.0023023834
0.00012262345
-0.0023301532
8.1050343e-05
-0.0023468353
3.13384e-05
-0.0023482709
-2.7487542e-05
-0.0023325462
-9.6269162e-05
-0.0022965921
-0.00017620636
-0.0022372828
-0.00026820428
-0.0021512707
-0.00037337352
-0.0020350604
-0.00049284811
-0.0018846945
-0.00062829722
-0.0016953696
-0.00078235018
-0.0014610467
-0.00095842965
-0.0011735548
-0.0011600433
-0.00082183917
-0.0013902385
-0.00039336609
-0.0016507584
0.00012338259
-0.0019316763
0.00073233662
-0.0022297093
0.0013847914
-0.002442632
0.0020997946
-0.0026403243
0.0028997071
-0.0028107714
0.0037746545
-0.0028920452
0.0046412264
-0.002765048
0.005370987
-0.0023607434
0.0058758761
-0.0017528345
0.0061728742
-0.0011189402
0.0062742262
-0.00050968772
0.0062135086
2.0962214e-05
0.0060377145
0.0004504029
0.005771975
0.00080809824
0.0054466786
0.0010832898
0.0050885667
0.0012773293
0.0047180275
0.0014008164
0.0043494757
0.0014674873
0.0039926696
0.0014901044
0.0036535802
0.0014796466
0.0033353004
0.0014452546
0.0030388327
0.0013941218
0.0027638336
0.0013317194
0.0025092207
0.0012621926
0.0022735972
0.001188683
0.0020555418
0.0011135648
0.0018537617
0.0010385774
0.0016670851
0.00096498852
0.0014945227
0.00089362555
0.0013351415
0.00082508181
0.0011882029
0.00075970256
0.0010529236
0.00069765402
0.00092870049
0.00063890238
0.00081491556
0.00058349459
0.00071101404
0.00053136955
0.00061643933
0.00048242637
0.00053073582
0.00043657062
0.0004534022
0.00039370834
0.00038402149
0.00035366545
0.00032213608
0.00031637895
0.00026717195
0.00028188839
0.00021866949
0.00025012062
0.00017613892
0.00022101872
0.00013918931
0.0001945016
0.00010731209
0.00017058723
8.0027545e-05
0.00014924052
5.6776959e-05
0.00013055585
3.7132361e-05
0.00011443193
2.0351441e-05
0.00010111848
6.146872e-06
9.0325958e-05
8.0547608e-05
-0.00010289887
0.00036823031
-0.00017067454
0.00036914001
-0.00023862753
0.00037042742
-0.00030685703
0.0003720045
-0.00037541474
0.00037368879
-0.00044421416
0.00037556065
-0.00051327887
0.00037747969
-0.00058259802
0.00037936834
-0.00065223548
0.00038118338
-0.00072207488
0.00038278895
-0.00079207869
0.00038415827
-0.0008622212
0.00038520674
-0.00093241381
0.00038589407
-0.0010025815
0.00038611698
-0.0010726662
0.0003858725
-0.0011425659
0.00038514194
-0.0012122409
0.00038386656
-0.0012815798
0.00038206331
-0.001350517
0.0003797239
-0.0014190591
0.00037689148
-0.001487176
0.00037353486
-0.0015548521
0.00036967323
-0.0016219993
0.00036524027
-0.0016887114
0.00036027716
-0.0017549215
0.00035460135
-0.0018206521
0.00034808421
-0.0018858378
0.00034046155
-0.0019503935
0.00033137338
-0.0020140752
0.00032025761
-0.0020765575
0.00030653347
-0.0021373602
0.00028941
-0.0021958206
0.0002679967
-0.0022509698
0.00024123483
-0.0023014714
0.0002079236
-0.0023457323
0.00016688039
-0.0023815376
0.00011685705
-0.0024065841
5.6388289e-05
-0.002418202
-1.5872897e-05
-0.002413421
-0.00010105351
-0.0023893412
-0.00020028523
-0.0023428961
-0.00031464824
-0.002271091
-0.00044517597
-0.0021708135
-0.00059312565
-0.0020388026
-0.0007603085
-0.0018713111
-0.00094983828
-0.0016626525
-0.0011670896
-0.0014028493
-0.0014198466
-0.0010764934
-0.0017165921
-0.00066968916
-0.002057561
-0.00017568771
-0.0024256805
0.00039153635
-0.0027969391
0.0010354059
-0.0030865012
0.0018633706
-0.0034682862
0.0028860184
-0.0038334189
0.0040389425
-0.0040449658
0.0051464867
-0.0038725836
0.0060063769
-0.0032206295
0.0064712759
-0.0022177331
0.0066875442
-0.0013352087
0.0067194634
-0.00054160912
0.0066217873
0.00011864149
0.0063894067
0.00068278251
0.0060480961
0.0011494059
0.0056433526
0.0014880355
0.0052147041
0.0017059804
0.0047871105
0.0018284176
0.0043747699
0.0018798287
0.0039854734
0.0018793982
0.0036228303
0.0018422876
0.0032877877
0.0017802988
0.0029797021
0.0017022088
0.0026970593
0.0016143653
0.0024379219
0.0015213358
0.0022002242
0.0014263822
0.0019819817
0.0013318068
0.0017813849
0.0012391682
0.0015968608
0.0011495102
0.0014270638
0.0010634232
0.0012707974
0.00098134892
0.0011270817
0.00090341636
0.00099517727
0.00082955994
0.00087427782
0.00075979921
0.0007637301
0.00069404146
0.00066299582
0.00063209886
0.00057146422
0.00057395399
0.00048870219
0.00051933657
0.00041425162
0.00046816158
0.00034759323
0.00042032916
0.00028823133
0.00037573963
0.00023575615
0.00033436035
0.0001897652
0.00029611704
0.00014981011
0.0002609775
0.00011540599
0.00022890358
8.608272e-05
0.00019991356
6.1389104e-05
0.00017394357
4.076939e-05
0.00015117989
2.3864462e-05
0.0001313313
9.7881425e-06
0.00011517924
-1.6625618e-06
0.00010177894
8.9080496e-05
-0.00010198969
0.00043545249
-0.00016947601
0.00043662265
-0.00023722419
0.00043818531
-0.00030524651
0.00044001234
-0.00037358081
0.00044202483
-0.00044229928
0.00044427778
-0.00051135922
0.00044653257
-0.00058081505
0.0004488271
-0.00065059064
0.00045095647
-0.00072067485
0.00045286848
-0.00079098746
0.00045447426
-0.00086149174
0.00045571254
-0.00093207867
0.00045647948
-0.0010026813
0.00045672091
-0.0010732252
0.00045641656
-0.0011435961
0.00045551104
-0.0012137325
0.0004540037
-0.0012835702
0.00045190161
-0.0013530211
0.00044917183
-0.001422056
0.00044592348
-0.0014906589
0.00044213675
-0.001558809
0.00043782093
-0.0016266024
0.00043302983
-0.0016940073
0.00042767947
-0.0017611522
0.00042174477
-0.0018280998
0.00041502897
-0.0018948668
0.00040722423
-0.0019614071
0.00039790963
-0.0020276899
0.00038653784
-0.002093519
0.0003723625
-0.0021585651
0.00035445593
-0.0022221927
0.00033162049
-0.0022835908
0.0003026287
-0.0023415413
0.00026587368
-0.0023944962
0.00021983595
-0.0024404976
0.00016285936
-0.002477018
9.2909208e-05
-0.0025013719
8.4769036e-06
-0.0025104872
-9.194166e-05
-0.002501456
-0.00020931401
-0.0024712864
-0.0003448164
-0.0024171658
-0.00049929504
-0.0023366983
-0.00067359207
-0.0022279793
-0.00086902709
-0.0020888732
-0.0010889394
-0.0019147271
-0.0013412342
-0.0016954942
-0.0016390811
-0.0014227267
-0.0019893606
-0.0011009347
-0.0023793518
-0.00070205365
-0.002824561
-5.4482988e-05
-0.0034445143
0.00099337226
-0.0041343584
0.0024396097
-0.0049145191
0.0040458818
-0.0054396858
0.0056457282
-0.005644809
0.0070283435
-0.0052551942
0.0079084112
-0.0041006945
0.0080109695
-0.0023202889
0.0078992036
-0.0012234356
0.0074851657
-0.00012757625
0.0071596737
0.00044412951
0.0068113911
0.001031073
0.0063755074
0.0015852899
0.005870489
0.0019930486
0.0053490856
0.0022273836
0.0048471186
0.0023303813
0.0043799801
0.0023469698
0.0039522371
0.0023071425
0.0035636858
0.002230837
0.0032119697
0.0021320101
0.0028938564
0.0020203232
0.0026058589
0.0019023633
0.0023446214
0.00178258
0.0021070759
0.0016639322
0.0018905261
0.0015483627
0.0016926336
0.0014370589
0.0015114764
0.0013306657
0.0013453934
0.0012295069
0.0011930664
0.0011336824
0.0010534182
0.0010430636
0.00092549438
0.00095748402
0.00080851179
0.00087677943
0.00070180076
0.00080075329
0.00060469934
0.00072920092
0.00051676065
0.00066189776
0.00043743027
0.00059866881
0.00036629709
0.00053929556
0.0003028723
0.00048375836
0.00024671457
0.00043190063
0.00019742575
0.00038365021
0.00015456117
0.00033898757
0.00011770359
0.00029784025
8.639367e-05
0.00026021046
6.015448e-05
0.00022614498
3.8540368e-05
0.00019555669
2.1141107e-05
0.00016858558
7.4687624e-06
0.00014500877
-2.6577818e-06
0.00012530206
-1.1863103e-05
0.00011098201
9.3746574e-05
-0.00010086977
0.00050223763
-0.00016797156
0.00050373432
-0.00023535315
0.00050555262
-0.00030311315
0.00050777505
-0.00037137103
0.00051028075
-0.00044001285
0.00051291127
-0.00050912865
0.00051565102
-0.00057865695
0.00051835475
-0.00064863108
0.00052092707
-0.00071898567
0.00052322678
-0.00078966232
0.00052515347
-0.0008605794
0.0005266286
-0.00093165139
0.00052755282
-0.0010027955
0.00052786542
-0.0010739008
0.00052751901
-0.0011448436
0.00052645214
-0.0012155581
0.00052471685
-0.001285931
0.00052227073
-0.0013559279
0.00051916591
-0.0014254505
0.00051544618
-0.0014945417
0.00051122725
-0.0015632093
0.00050648536
-0.0016315259
0.00050134434
-0.0016996299
0.00049578336
-0.0017676085
0.00048972178
-0.0018356116
0.00048302692
-0.0019038527
0.00047545944
-0.0019725186
0.00046657219
-0.0020416692
0.00045568751
-0.0021112685
0.00044196173
-0.0021811727
0.00042435884
-0.0022510174
0.0004014609
-0.0023200666
0.00037167482
-0.0023873216
0.00033313171
-0.0024511678
0.00028368482
-0.002509633
0.00022132105
-0.0025602051
0.00014347765
-0.0025999783
4.8248345e-05
-0.0026257794
-6.6140913e-05
-0.0026345359
-0.00020055504
-0.0026233126
-0.00035603884
-0.002589458
-0.00053314699
-0.0025311777
-0.00073186673
-0.0024482032
-0.00095199985
-0.0023408356
-0.0011963065
-0.002208319
-0.0014737528
-0.0020556634
-0.0017917394
-0.0019036065
-0.002141419
-0.0017118579
-0.0025710993
-0.0011613226
-0.003375094
0.00021583261
-0.004821671
0.0022827812
-0.0062013075
0.004659158
-0.0072908903
0.00682315
-0.0076036728
0.0087170963
-0.0075387563
0.010112462
-0.006650557
0.011176061
-0.0051642891
0.011697272
-0.0028415006
0.01096166
-0.00048781854
0.0095187367
0.00131535
0.0082930023
0.0016698617
0.00740067
0.0019233994
0.0067191433
0.0022668191
0.0060859406
0.0026262503
0.0054646007
0.0028487231
0.0048791152
0.0029158724
0.0043511117
0.0028749775
0.0038833208
0.002774927
0.0034698641
0.0026442924
0.0031036616
0.0024982099
0.0027782244
0.0023457648
0.0024877315
0.0021928573
0.0022271627
0.0020431515
0.0019922934
0.0018988031
0.0017796409
0.0017610146
0.0015863612
0.001630336
0.00141017
0.0015068572
0.0012492066
0.0013904722
0.0011019903
0.0012808922
0.00096735274
0.0011777015
0.00084429971
0.001080529
0.00073198331
0.00098909871
0.00062973338
0.00090300842
0.00053695789
0.00082197644
0.00045313958
0.00074572048
0.00037779874
0.00067401026
0.00031046554
0.00060662817
0.0002507759
0.00054344884
0.00019834848
0.00048432784
0.00015268495
0.00042931501
0.00011339811
0.000378277
8.006546e-05
0.00033117428
5.229321e-05
0.00028798073
2.9625521e-05
0.00024880842
1.157455e-05
0.0002136036
-2.3076574e-06
0.00018246659
-1.2809674e-05
0.00015551113
-1.9301133e-05
0.0001317906
-2.4219932e-05
0.00011589598
9.4599873e-05
-9.9519651e-05
0.00056852474
-0.00016618941
0.00057038864
-0.00023326269
0.00057262949
-0.00030074988
0.00057525953
-0.00036875155
0.00057827449
-0.00043729777
0.00058145955
-0.00050642326
0.00058477525
-0.00057609695
0.00058802451
-0.00064631219
0.00059114539
-0.00071699929
0.00059391619
-0.00078810112
0.00059625368
-0.00085952283
0.00059805093
-0.00093117458
0.00059920525
-0.0010029269
0.00059961524
-0.0010746639
0.00059925337
-0.0011462519
0.00059803733
-0.0012176059
0.00059606566
-0.0012885824
0.0005932435
-0.0013591213
0.00058970544
-0.0014291789
0.00058550505
-0.0014986989
0.000580746
-0.0015677705
0.00057555571
-0.0016365015
0.00057007618
-0.00170506
0.00056434206
-0.001773689
0.00055834713
-0.0018427089
0.00055204064
-0.0019124191
0.0005451654
-0.0019831452
0.00053729857
-0.0020551439
0.00052768754
-0.0021286891
0.00051550559
-0.0022038221
0.00049948923
-0.002280469
0.00047810623
-0.002358181
0.00044938644
-0.0024361028
0.00041105476
-0.0025128836
0.00036046475
-0.0025863888
0.00029482089
-0.002654023
0.00021110933
-0.0027122693
0.00010649724
-0.0027577547
-2.0653403e-05
-0.0027872904
-0.00017101741
-0.0027976633
-0.00034566462
-0.0027856595
-0.00054514808
-0.0027495093
-0.00076801195
-0.0026898716
-0.0010116373
-0.0026113436
-0.0012748378
-0.0025324318
-0.0015526664
-0.0024989757
-0.0018251933
-0.0024969065
-0.0021434873
-0.0021389833
-0.0029290258
-0.00056490233
-0.0049491767
0.0020023151
-0.007388887
0.0047009285
-0.0088999191
0.0071627999
-0.0097527611
0.0096120455
-0.010052915
0.011862558
-0.0097892644
0.013831785
-0.0086197767
0.014777818
-0.0061103222
0.014939211
-0.0030029006
0.014409025
4.2371912e-05
0.012969852
0.0027545224
0.010859507
0.003780204
0.0088660791
0.0039168283
0.0073368433
0.0037960534
0.0063008186
0.0036622819
0.005521701
0.003627838
0.004853218
0.0035843496
0.0042675052
0.0034606878
0.0037630539
0.0032793798
0.0033300241
0.0030773255
0.0029553576
0.0028728772
0.0026281683
0.002672958
0.0023399675
0.0024810613
0.0020840927
0.0022990279
0.0018552687
0.0021276316
0.0016493172
0.0019669708
0.0014629557
0.0018167011
0.0012936152
0.0016761959
0.0011392903
0.001544798
0.00099846349
0.0014217158
0.00086988955
0.0013062773
0.00075254174
0.0011978791
0.00064561918
0.001096028
0.00054842855
0.001000198
0.00046044912
0.00090995503
0.0003812087
0.00082496065
0.00031028225
0.0007449404
0.00024721242
0.00066969985
0.00019166904
0.0005989925
0.00014329094
0.00053271165
0.00010160333
0.00047100779
6.6291837e-05
0.000413584
3.6945941e-05
0.00036051772
1.3113759e-05
0.00031181711
-5.5005337e-06
0.00026742545
-1.945002e-05
0.00022755394
-2.9255624e-05
0.00019227001
-3.5433037e-05
0.00016168719
-3.8241439e-05
0.00013459662
-3.8700963e-05
0.0001163547
9.181402e-05
-9.7896649e-05
0.00063418941
-0.0001640291
0.00063652632
-0.00023058046
0.00063917554
-0.00029779172
0.00064246092
-0.00036556569
0.00064605008
-0.0004340192
0.00064991058
-0.00050315459
0.00065390529
-0.00057299017
0.00065786182
-0.00064349251
0.00066164891
-0.00071458351
0.00066500396
-0.00078619815
0.00066786705
-0.00085822251
0.00067007537
-0.00093053396
0.000671515
-0.0010030259
0.00067210566
-0.001075514
0.00067173942
-0.0011478865
0.00067040454
-0.0012199595
0.00066813374
-0.0012916178
0.00066490201
-0.0013627496
0.00066083988
-0.0014332834
0.00065603919
-0.001503212
0.00065067419
-0.0015725885
0.00064493376
-0.0016415706
0.00063905979
-0.0017103774
0.00063314684
-0.0017793904
0.00062735568
-0.0018490341
0.0006216811
-0.0019198246
0.00061595617
-0.0019922714
0.00060974794
-0.0020669728
0.00060239001
-0.0021443548
0.00059288528
-0.0022249131
0.00058004556
-0.0023089114
0.00056210558
-0.0023962005
0.00053667531
-0.0024862696
0.00050112029
-0.002577969
0.00045216096
-0.002669138
0.00038598779
-0.0027567436
0.00029871579
-0.002836649
0.00018640637
-0.0029050229
4.7723346e-05
-0.002958351
-0.00011768562
-0.0029927525
-0.00031126029
-0.0030033241
-0.00053457708
-0.0029859138
-0.00078542433
-0.0029419725
-0.0010555806
-0.002892908
-0.0013239018
-0.0029032698
-0.0015423024
-0.0030216794
-0.0017067801
-0.0029435258
-0.0022216397
-0.0017283751
-0.0041441779
0.0011474853
-0.0078250376
0.0039858598
-0.010227264
0.0065247866
-0.011438848
0.0089524415
-0.012180413
0.011133327
-0.012233794
0.013055163
-0.011711103
0.014545811
-0.010110423
0.015614466
-0.0071789715
0.015997744
-0.0033861802
0.015540101
0.00050000543
0.014633595
0.0036610291
0.012771452
0.0056423488
0.010408082
0.0062801989
0.0081184358
0.0060857025
0.0065059918
0.0052747225
0.0054679487
0.0046658765
0.0047184184
0.0043338777
0.0040993476
0.0040797597
0.003574813
0.0038039182
0.0031333867
0.0035187556
0.0027598139
0.003246452
0.0024390588
0.002993712
0.0021597942
0.0027603252
0.0019139023
0.002544922
0.0016952866
0.0023462509
0.0014993046
0.0021629536
0.0013224239
0.0019935782
0.0011619693
0.001836655
0.0010159268
0.0016908381
0.00088277139
0.0015548743
0.00076125341
0.001427793
0.00065039118
0.0013087424
0.00054948543
0.0011969346
0.00045794637
0.0010917387
0.00037527568
0.00099262701
0.00030104864
0.00089918333
0.00023488399
0.00081110347
0.00017645841
0.00072812691
0.0001254417
0.0006500111
8.1402038e-05
0.00057675611
4.4093172e-05
0.00050831836
1.3215548e-05
0.00044445746
-1.1660928e-05
0.00038539005
-3.0948747e-05
0.00033110418
-4.5154963e-05
0.00028163347
-5.4731834e-05
0.00023712706
-6.0001608e-05
0.0001975328
-6.1378969e-05
0.00016306203
-6.0307761e-05
0.00013352626
-5.5459114e-05
0.00011150972
8.5193926e-05
-9.5908061e-05
0.00069912025
-0.00016139506
0.00070200764
-0.00022743767
0.00070520912
-0.00029421147
0.00070923486
-0.00036169976
0.00071353355
-0.00043003427
0.00071823823
-0.00049921159
0.00072308301
-0.00056923591
0.00072788619
-0.00064006623
0.00073247471
-0.00071164744
0.00073658194
-0.00078386091
0.00074007905
-0.00085660852
0.00074282139
-0.00092973211
0.00074463888
-0.0010030707
0.00074544474
-0.0010764665
0.00074513157
-0.0011497336
0.00074366645
-0.0012226699
0.00074106932
-0.0012951052
0.00073733977
-0.0013668785
0.00073261432
-0.0014378901
0.00072705069
-0.0015081479
0.00072093358
-0.0015776876
0.00071447564
-0.001646637
0.00070800838
-0.001715374
0.0007018803
-0.0017843247
0.00069630436
-0.0018540876
0.00069144559
-0.0019253941
0.00068726558
-0.001999101
0.00068345607
-0.0020759855
0.00067927406
-0.0021568868
0.00067378563
-0.0022426918
0.00066584991
-0.0023340346
0.00065344808
-0.0024314809
0.00063411985
-0.0025349286
0.00060456529
-0.0026435241
0.00056075624
-0.0027553388
0.00049780326
-0.0028665247
0.00040990227
-0.0029718831
0.00029176644
-0.0030663881
0.00014223081
-0.0031465875
-3.7482929e-05
-0.0032084158
-0.00024943038
-0.0032427507
-0.00050024351
-0.0032395816
-0.00078859475
-0.003209421
-0.0010857392
-0.0032136362
-0.0013196821
-0.0033400027
-0.0014159365
-0.0034608209
-0.001585965
-0.0028301861
-0.002852274
-0.00050529498
-0.0064690677
0.0023227682
-0.010653101
0.0046679859
-0.012572482
0.0065930476
-0.013363907
0.0083386758
-0.013926039
0.010383146
-0.014278262
0.012485348
-0.013813309
0.014199623
-0.011824696
0.015380598
-0.0083599525
0.015963272
-0.0039688571
0.015832484
0.00063079898
0.014820752
0.0046727612
0.013060191
0.0074029151
0.010881022
0.0084593602
0.0086852781
0.008281442
0.0067051781
0.0072548176
0.0053097403
0.0060613155
0.0044346394
0.0052089792
0.003809698
0.0047047046
0.0032985224
0.00431509
0.0028700701
0.003947209
0.0025117083
0.003604819
0.0022079905
0.0032974385
0.0019457866
0.0030225348
0.001716036
0.0027746784
0.0015123165
0.0025499693
0.0013298744
0.0023453991
0.0011652176
0.0021582349
0.0010157444
0.0019861287
0.00087957012
0.0018270176
0.0007552899
0.0016791539
0.00064175944
0.0015413177
0.0005381725
0.0014123282
0.00044392477
0.0012911816
0.00035851821
0.0011771512
0.00028156015
0.0010695865
0.00021272507
0.0009680178
0.00015172045
0.00087211115
9.8272004e-05
0.00078157749
5.2094342e-05
0.00069618753
1.2882438e-05
0.00061597132
-1.956992e-05
0.00054077474
-4.5828054e-05
0.00047071473
-6.5982456e-05
0.00040554269
-8.0488138e-05
0.00034560769
-8.9788499e-05
0.00029093368
-9.4279014e-05
0.00024161467
-9.4482585e-05
0.00019773528
-9.0831173e-05
0.00015941024
-8.4514802e-05
0.00012721078
-7.4364557e-05
0.00010136084
7.3795368e-05
-9.3509049e-05
0.00076314304
-0.0001581955
0.0007666872
-0.0002235674
0.00077058508
-0.00028978282
0.00077544413
-0.00035699225
0.00078073501
-0.00042519853
0.0007864445
-0.00049443454
0.00079231881
-0.00056469133
0.00079813842
-0.00063592591
0.0008037053
-0.0007080641
0.00080871714
-0.00078100235
0.0008130147
-0.00085458331
0.00081640336
-0.00092866116
0.00081871967
-0.0010030423
0.00081982487
-0.0010775081
0.00081959312
-0.0011518365
0.00081799322
-0.0012257867
0.00081502099
-0.0012991176
0.00081067134
-0.0013716422
0.00080513851
-0.0014431974
0.00079860722
-0.0015136819
0.00079142008
-0.0015831755
0.00078396882
-0.0016518425
0.00077667233
-0.001719986
0.00077002167
-0.0017882246
0.00076454435
-0.0018573958
0.00076061975
-0.0019284301
0.00075830136
-0.002002498
0.00075752337
-0.0020807598
0.00075753592
-0.0021643615
0.00075738818
-0.0022546162
0.00075610374
-0.0023530785
0.00075190812
-0.0024608199
0.00074186048
-0.002578502
0.00072224882
-0.0027060681
0.00068832404
-0.0028419859
0.00063372103
-0.0029817066
0.00054962303
-0.0031167799
0.00042684183
-0.0032400851
0.00026553717
-0.003351903
7.433406e-05
-0.00344893
-0.00015240518
-0.0035106033
-0.00043856851
-0.0035232493
-0.00077594305
-0.0035270074
-0.0010819771
-0.0036020272
-0.00124466
-0.0037105099
-0.0013074539
-0.0033594635
-0.0019370126
-0.0017377634
-0.0044739765
0.0010791714
-0.0092860079
0.0024450699
-0.012019
0.0036992288
-0.013826634
0.0049899682
-0.014654643
0.006703079
-0.015639151
0.0088962896
-0.016471466
0.011150726
-0.016067749
0.012984835
-0.013658811
0.014141294
-0.0095164102
0.014605915
-0.0044334786
0.01452298
0.00071373142
0.013889811
0.0053059367
0.012665313
0.0086274123
0.010454257
0.010670416
0.0084868768
0.010248822
0.0063880658
0.0093536293
0.0048908191
0.0075585639
0.0039680785
0.0061317179
0.0033774081
0.0052953799
0.0029199592
0.0047725372
0.0025337875
0.0043333794
0.0022090711
0.0039295348
0.0019347985
0.0035717224
0.001698656
0.0032586836
0.0014916588
0.0029816792
0.0013076518
0.0027339801
0.0011422933
0.0025107544
0.00099248682
0.0023080469
0.0008559659
0.0021226474
0.00073118945
0.0019517968
0.00061684431
0.0017934974
0.00051217567
0.0016459882
0.00041652824
0.0015079751
0.00032942973
0.0013782784
0.00025057527
0.0012560038
0.00017969079
0.001140474
0.00011654853
0.0010311672
6.1001868e-05
0.00092766015
1.2805901e-05
0.00082977286
-2.8237169e-05
0.00073723208
-6.2357168e-05
0.00065009084
-8.9853752e-05
0.00056827183
-0.00011089671
0.00049176033
-0.00012590304
0.00042054757
-0.00013519776
0.00035489783
-0.0001391275
0.0002948601
-0.00013815496
0.00024064261
-0.00013275673
0.00019234101
-0.00012344612
0.00015010255
-0.00011095489
0.00011472459
-9.513081e-05
8.5537227e-05
5.6718206e-05
-9.059936e-05
0.00082605852
-0.00015430422
0.00083039778
-0.00021889213
0.00083516957
-0.00028452738
0.00084107304
-0.00035133306
0.00084754107
-0.00041934815
0.00085445978
-0.00048863115
0.00086159867
-0.0005591626
0.00086866697
-0.00063086227
0.0008754015
-0.00070368241
0.00088153329
-0.00077746023
0.00088679269
-0.00085205337
0.00089100018
-0.00092727768
0.00089394472
-0.0010028909
0.00089543502
-0.0010786558
0.00089535614
-0.0011542649
0.0008936028
-0.0012294187
0.00089017442
-0.0013038464
0.0008850978
-0.0013772363
0.00087852909
-0.0014493699
0.00087074282
-0.0015200572
0.00086210697
-0.0015892735
0.00085318161
-0.0016571915
0.00084458757
-0.001724226
0.00083705676
-0.0017910749
0.00083139511
-0.0018586074
0.00082815225
-0.0019282237
0.00082791658
-0.0020014273
0.00083072695
-0.0020798201
0.00083592978
-0.0021648882
0.00084245661
-0.0022584472
0.00084966244
-0.0023627848
0.00085624676
-0.0024801845
0.00085926196
-0.0026129679
0.00085503299
-0.0027621731
0.00083752839
-0.0029263604
0.0007979066
-0.0030996846
0.00072294801
-0.0032695167
0.00059667753
-0.0034277865
0.00042380902
-0.0035811122
0.00022766074
-0.0037221071
-1.140996e-05
-0.003814722
-0.00034595197
-0.0038670331
-0.00072362977
-0.0039333832
-0.0010156289
-0.0039956364
-0.0011824071
-0.0037719461
-0.0015311399
-0.0026306385
-0.0030783198
-0.00029225523
-0.0068123632
0.0012458391
-0.010824102
0.001542931
-0.012316091
0.0021084635
-0.014392169
0.0032027196
-0.015748896
0.004695625
-0.017132051
0.006631582
-0.018407424
0.0086029057
-0.018039074
0.010152449
-0.01520835
0.011119436
-0.010483395
0.01155094
-0.0048649753
0.011529749
0.00073491199
0.011083581
0.0057521046
0.010098264
0.0096127322
0.0084997815
0.012268897
0.0067343841
0.012014225
0.005331314
0.010756705
0.0041370083
0.0087528685
0.0033268456
0.0069418758
0.0028221193
0.0058001048
0.0024461167
0.005148546
0.0021275156
0.0046519883
0.0018554268
0.0042016235
0.001623138
0.0038040081
0.0014216864