/*--------------------------------*- C++ -*----------------------------------*\
  =========                 |
  \\      /  F ield         | OpenFOAM: The Open Source CFD Toolbox
   \\    /   O peration     | Website:  https://openfoam.org
    \\  /    A nd           | Version:  9
     \\/     M anipulation  |
\*---------------------------------------------------------------------------*/
FoamFile
{
    format      ascii;
    class       volVectorField;
    location    "0.72";
    object      U;
}
// * * * * * * * * * * * * * * * * * * * * * * * * * * * * * * * * * * * * * //

dimensions      [0 1 -1 0 0 0 0];

internalField   nonuniform List<vector> 
10000
(
(-0.0050886962 0.010131585 0)
(-0.015079812 0.010164442 0)
(-0.020510365 0.010237781 0)
(-0.027708277 0.01032592 0)
(-0.034507309 0.010421583 0)
(-0.041419167 0.010527614 0)
(-0.048334772 0.010637744 0)
(-0.055250925 0.010749787 0)
(-0.062177495 0.010860494 0)
(-0.069113004 0.010966193 0)
(-0.076055873 0.011062558 0)
(-0.083002519 0.011149465 0)
(-0.089941102 0.011223294 0)
(-0.096866342 0.011276409 0)
(-0.10377779 0.011308097 0)
(-0.11066975 0.011315871 0)
(-0.117533 0.011297917 0)
(-0.12436537 0.011251226 0)
(-0.13115981 0.011176174 0)
(-0.13790238 0.011071015 0)
(-0.14459581 0.010930088 0)
(-0.15124273 0.010755501 0)
(-0.15782633 0.010551584 0)
(-0.1643371 0.010313131 0)
(-0.1707657 0.010038392 0)
(-0.17709734 0.0097212291 0)
(-0.18331264 0.0093586126 0)
(-0.18938193 0.0089379022 0)
(-0.19527228 0.0084442625 0)
(-0.20094167 0.0078569741 0)
(-0.20633555 0.007156195 0)
(-0.21137952 0.0063275876 0)
(-0.21598664 0.0053560246 0)
(-0.22007273 0.0042395347 0)
(-0.22347974 0.003007605 0)
(-0.22596149 0.0016479166 0)
(-0.22724728 0.00011854945 0)
(-0.22711181 -0.0016682157 0)
(-0.22524899 -0.0036694696 0)
(-0.22130033 -0.005971722 0)
(-0.21497379 -0.0086325983 0)
(-0.2059432 -0.011704952 0)
(-0.19385736 -0.015241586 0)
(-0.17829804 -0.01928993 0)
(-0.15875528 -0.023890656 0)
(-0.13476763 -0.029106977 0)
(-0.1059121 -0.03500295 0)
(-0.071412536 -0.041503285 0)
(-0.030843723 -0.048657239 0)
(0.016892163 -0.056264882 0)
(0.071576476 -0.064005726 0)
(0.1318218 -0.070870954 0)
(0.19708548 -0.076432766 0)
(0.26574705 -0.079840284 0)
(0.3353283 -0.079930332 0)
(0.40226702 -0.075594567 0)
(0.46208384 -0.066511193 0)
(0.51044049 -0.053634619 0)
(0.54459543 -0.038690666 0)
(0.56396158 -0.023279061 0)
(0.56965813 -0.0084601092 0)
(0.56370167 0.00506588 0)
(0.54843984 0.017243279 0)
(0.52649835 0.028037167 0)
(0.50018054 0.037256904 0)
(0.47117944 0.044775119 0)
(0.44084053 0.050615859 0)
(0.41027936 0.054869399 0)
(0.38029382 0.057618393 0)
(0.35136345 0.058939995 0)
(0.32374014 0.058940408 0)
(0.2975207 0.057787687 0)
(0.2727184 0.055706793 0)
(0.24930923 0.052950714 0)
(0.22725735 0.049764904 0)
(0.20652826 0.046360226 0)
(0.18708911 0.042892571 0)
(0.16890713 0.039470125 0)
(0.15193551 0.036155259 0)
(0.13615528 0.03300443 0)
(0.12154592 0.030032679 0)
(0.10803798 0.02724986 0)
(0.095596818 0.024658279 0)
(0.084175545 0.02225253 0)
(0.073722663 0.020028427 0)
(0.064197964 0.017981532 0)
(0.055557268 0.016104347 0)
(0.047755928 0.014380258 0)
(0.040741441 0.01279599 0)
(0.034448751 0.01134484 0)
(0.028828831 0.010031069 0)
(0.023850405 0.0088543376 0)
(0.019466305 0.0077892958 0)
(0.01562097 0.0068502611 0)
(0.012249505 0.0060307065 0)
(0.0093149056 0.0053121724 0)
(0.0068514082 0.004699583 0)
(0.004271851 0.0042027115 0)
(0.0033218064 0.0038224185 0)
(-1.1127378e-05 0.0034948348 0)
(-0.0050387064 0.021084435 0)
(-0.014976584 0.021116426 0)
(-0.020367379 0.021208969 0)
(-0.027550492 0.021311915 0)
(-0.034335406 0.021432926 0)
(-0.04123618 0.021557854 0)
(-0.048147236 0.021689015 0)
(-0.055064097 0.021819778 0)
(-0.061996516 0.021942916 0)
(-0.068944608 0.022056765 0)
(-0.075902828 0.022157884 0)
(-0.082866507 0.022236237 0)
(-0.089830485 0.022295034 0)
(-0.096786641 0.02232376 0)
(-0.10373025 0.02232278 0)
(-0.11065632 0.022286032 0)
(-0.11755766 0.022215998 0)
(-0.12443023 0.022110176 0)
(-0.13126494 0.021966088 0)
(-0.13805487 0.021780204 0)
(-0.14480205 0.021548055 0)
(-0.15150085 0.021269924 0)
(-0.15814172 0.020945916 0)
(-0.16472108 0.020567061 0)
(-0.17123237 0.020126352 0)
(-0.17766217 0.019608197 0)
(-0.18399621 0.01899671 0)
(-0.19021072 0.018267163 0)
(-0.19627478 0.017390031 0)
(-0.20214974 0.01633108 0)
(-0.20778007 0.015051616 0)
(-0.21309567 0.013512472 0)
(-0.21800493 0.011665432 0)
(-0.22237834 0.0094682211 0)
(-0.22605441 0.006906983 0)
(-0.22884234 0.0039398464 0)
(-0.23054039 0.0004984022 0)
(-0.23083746 -0.0035095417 0)
(-0.22942677 -0.0080654734 0)
(-0.22604939 -0.013271328 0)
(-0.22037652 -0.019210963 0)
(-0.2120741 -0.025959088 0)
(-0.20079217 -0.033595254 0)
(-0.18611922 -0.042219865 0)
(-0.16756892 -0.051979937 0)
(-0.14467869 -0.063033781 0)
(-0.11691768 -0.075452056 0)
(-0.083457509 -0.089158138 0)
(-0.04374964 -0.10417837 0)
(0.0034810904 -0.11970163 0)
(0.059036872 -0.13576581 0)
(0.12172975 -0.14960654 0)
(0.18999333 -0.16072869 0)
(0.26262431 -0.16696907 0)
(0.3381555 -0.16600386 0)
(0.41302517 -0.15520162 0)
(0.48092184 -0.13344692 0)
(0.53528115 -0.10315108 0)
(0.57239327 -0.069764102 0)
(0.5920003 -0.036888903 0)
(0.59617875 -0.006506189 0)
(0.5877849 0.020451427 0)
(0.56964572 0.043694589 0)
(0.54433828 0.062830652 0)
(0.51424866 0.077539114 0)
(0.48145152 0.087995051 0)
(0.44762396 0.094765565 0)
(0.41403187 0.098509762 0)
(0.38152459 0.099827206 0)
(0.3505876 0.099236966 0)
(0.32143843 0.097164258 0)
(0.29411113 0.093959979 0)
(0.26854096 0.089924098 0)
(0.24462795 0.085320888 0)
(0.22227539 0.080377208 0)
(0.20140173 0.075278071 0)
(0.18193906 0.070161556 0)
(0.16382519 0.065127192 0)
(0.14699501 0.0602369 0)
(0.13140938 0.055549153 0)
(0.11701746 0.051073618 0)
(0.10374827 0.046827413 0)
(0.091552313 0.042820246 0)
(0.080374568 0.039047751 0)
(0.070165199 0.035505213 0)
(0.060883305 0.032194884 0)
(0.052474001 0.029104155 0)
(0.044885675 0.026224403 0)
(0.038072528 0.023547385 0)
(0.031984069 0.021070852 0)
(0.026584484 0.018798851 0)
(0.021813312 0.016725985 0)
(0.017631508 0.014842387 0)
(0.014000788 0.013149517 0)
(0.010823987 0.011649098 0)
(0.0080758502 0.010335649 0)
(0.0058113429 0.0092107553 0)
(0.0034410011 0.0082717512 0)
(0.0026662673 0.0075371409 0)
(-0.00034776933 0.0068995258 0)
(-0.004988721 0.026691015 0)
(-0.014910822 0.026735616 0)
(-0.020279756 0.026835653 0)
(-0.02744627 0.026952419 0)
(-0.034215918 0.027080114 0)
(-0.041108736 0.027218552 0)
(-0.048012255 0.027359136 0)
(-0.05493181 0.027502883 0)
(-0.061870689 0.027641582 0)
(-0.068824572 0.02776454 0)
(-0.075801095 0.027871375 0)
(-0.0827875 0.02795536 0)
(-0.089775691 0.028010829 0)
(-0.096761493 0.028031407 0)
(-0.10374033 0.028014333 0)
(-0.11070413 0.027956797 0)
(-0.11764097 0.027858153 0)
(-0.12455194 0.027713047 0)
(-0.13143084 0.027525038 0)
(-0.1382669 0.027289816 0)
(-0.14505827 0.027005793 0)
(-0.15180213 0.026676182 0)
(-0.15849276 0.026295826 0)
(-0.16512663 0.025856372 0)
(-0.17170026 0.025351653 0)
(-0.17820618 0.024767047 0)
(-0.1846334 0.024085842 0)
(-0.19096444 0.023281018 0)
(-0.19717519 0.022316529 0)
(-0.20323299 0.021150125 0)
(-0.20908466 0.019730296 0)
(-0.21465803 0.018001992 0)
(-0.21986256 0.015907753 0)
(-0.22458024 0.01338689 0)
(-0.22866539 0.010361602 0)
(-0.2319473 0.0067470618 0)
(-0.23422061 0.0024559951 0)
(-0.2351754 -0.0025776971 0)
(-0.23451416 -0.0084930143 0)
(-0.23198021 -0.015367487 0)
(-0.22725581 -0.023302664 0)
(-0.2200105 -0.032404436 0)
(-0.20991118 -0.042780507 0)
(-0.19659338 -0.054580001 0)
(-0.17961005 -0.068024891 0)
(-0.15844631 -0.083388358 0)
(-0.13244862 -0.10087195 0)
(-0.10067175 -0.12058834 0)
(-0.061980397 -0.14256515 0)
(-0.015080864 -0.16589293 0)
(0.041945016 -0.1912389 0)
(0.10562138 -0.21160218 0)
(0.17282221 -0.22731898 0)
(0.24770984 -0.23756411 0)
(0.3318965 -0.239419 0)
(0.42084351 -0.22618958 0)
(0.50305018 -0.19381999 0)
(0.56643026 -0.14600429 0)
(0.60713224 -0.093428895 0)
(0.62698166 -0.043497389 0)
(0.6284076 -0.00051475434 0)
(0.61564033 0.036297854 0)
(0.59271723 0.067073381 0)
(0.56251434 0.091343261 0)
(0.52773111 0.10911674 0)
(0.49077986 0.12103738 0)
(0.45344673 0.12806667 0)
(0.41692496 0.13118387 0)
(0.38197044 0.13125843 0)
(0.34901284 0.12904177 0)
(0.31823786 0.12515039 0)
(0.28966044 0.12007195 0)
(0.26319399 0.11418992 0)
(0.23870359 0.10780842 0)
(0.21604319 0.10116766 0)
(0.19507424 0.094451964 0)
(0.17567433 0.087799169 0)
(0.15772954 0.081306655 0)
(0.14114444 0.075040998 0)
(0.1258506 0.069052441 0)
(0.11176499 0.06335567 0)
(0.0988142 0.05796297 0)
(0.086935876 0.052876329 0)
(0.076066001 0.048095036 0)
(0.066157699 0.043610919 0)
(0.057163648 0.03941991 0)
(0.049026785 0.03550921 0)
(0.041709523 0.031873163 0)
(0.035163549 0.02850363 0)
(0.029336444 0.025392771 0)
(0.024177754 0.022533244 0)
(0.019635413 0.019911376 0)
(0.015672292 0.017541277 0)
(0.012245723 0.015398198 0)
(0.0092836095 0.013490352 0)
(0.0067556855 0.011825091 0)
(0.0046867935 0.010400134 0)
(0.0025172113 0.0092096301 0)
(0.0019309721 0.0082641055 0)
(-0.00074403599 0.0074210961 0)
(-0.004935922 0.033346437 0)
(-0.014834293 0.033417878 0)
(-0.02015373 0.033538069 0)
(-0.027314038 0.033688216 0)
(-0.034076315 0.033840706 0)
(-0.040960393 0.034012986 0)
(-0.047863195 0.03418653 0)
(-0.054779485 0.034362316 0)
(-0.061728594 0.034531131 0)
(-0.068703562 0.034680602 0)
(-0.075696979 0.034804717 0)
(-0.082706442 0.034907161 0)
(-0.089727279 0.034973402 0)
(-0.096749085 0.034998069 0)
(-0.10376416 0.034978988 0)
(-0.11076511 0.034916628 0)
(-0.11774656 0.034805222 0)
(-0.12469982 0.034641184 0)
(-0.13161653 0.034429848 0)
(-0.1384942 0.034169315 0)
(-0.14532715 0.033858148 0)
(-0.15211454 0.033498097 0)
(-0.15885844 0.033084715 0)
(-0.16555554 0.03261224 0)
(-0.17220681 0.032070593 0)
(-0.17880996 0.031444294 0)
(-0.18536272 0.030709887 0)
(-0.19185886 0.029828862 0)
(-0.19828084 0.028754572 0)
(-0.20460527 0.02743231 0)
(-0.21079136 0.025790809 0)
(-0.21677968 0.02374871 0)
(-0.22249012 0.021211526 0)
(-0.22781488 0.018075856 0)
(-0.23260559 0.014233737 0)
(-0.23666346 0.0095754342 0)
(-0.23976474 0.004000097 0)
(-0.24165871 -0.0025786915 0)
(-0.24205471 -0.010309172 0)
(-0.2406592 -0.019291326 0)
(-0.23717558 -0.029629091 0)
(-0.23128693 -0.041433065 0)
(-0.22269066 -0.054830419 0)
(-0.21108504 -0.069997708 0)
(-0.1961176 -0.087225403 0)
(-0.17733563 -0.10693979 0)
(-0.15401953 -0.12965994 0)
(-0.12489507 -0.15594152 0)
(-0.08830195 -0.1861272 0)
(-0.043804538 -0.21951404 0)
(0.0099516317 -0.25413483 0)
(0.069198335 -0.2765714 0)
(0.13984147 -0.29856404 0)
(0.23294952 -0.32120583 0)
(0.34470697 -0.33581814 0)
(0.46134758 -0.32353214 0)
(0.56298566 -0.27290256 0)
(0.63040167 -0.19869225 0)
(0.66357078 -0.12798454 0)
(0.67474726 -0.055075128 0)
(0.67107457 0.0053355974 0)
(0.65410178 0.055050206 0)
(0.62449671 0.095687086 0)
(0.58611689 0.12629922 0)
(0.54357202 0.14707859 0)
(0.50018212 0.15966985 0)
(0.45784852 0.16587797 0)
(0.41757379 0.16724833 0)
(0.37986995 0.16508444 0)
(0.34493991 0.16043833 0)
(0.31277856 0.15411325 0)
(0.28326195 0.1467065 0)
(0.25620626 0.13866055 0)
(0.23140259 0.13030042 0)
(0.20864399 0.12186337 0)
(0.18773838 0.11351789 0)
(0.16851626 0.10538361 0)
(0.15082367 0.097534019 0)
(0.13454045 0.090022338 0)
(0.11957374 0.082875026 0)
(0.10582275 0.076099546 0)
(0.093202985 0.069694876 0)
(0.081652085 0.063656364 0)
(0.071104538 0.057975024 0)
(0.061507521 0.052644586 0)
(0.052815832 0.047648233 0)
(0.044972291 0.042976569 0)
(0.037933473 0.038616591 0)
(0.031648379 0.034556514 0)
(0.026069383 0.030782606 0)
(0.021156655 0.027288853 0)
(0.016871619 0.02407763 0)
(0.013166336 0.021150543 0)
(0.0099918348 0.018504442 0)
(0.0072882701 0.016144332 0)
(0.0050240092 0.014066826 0)
(0.0032209095 0.012265683 0)
(0.001319323 0.010795656 0)
(0.00095267802 0.0095879888 0)
(-0.0012752061 0.0084688646 0)
(-0.0048574197 0.040216487 0)
(-0.014736311 0.040317786 0)
(-0.02000917 0.040459305 0)
(-0.027151999 0.040628043 0)
(-0.033900796 0.040811813 0)
(-0.040770593 0.041013589 0)
(-0.04766998 0.041222368 0)
(-0.054592771 0.041428296 0)
(-0.061554833 0.041622065 0)
(-0.068551052 0.04179735 0)
(-0.075571035 0.041943929 0)
(-0.08261116 0.042056216 0)
(-0.08967135 0.042126281 0)
(-0.096736366 0.042149878 0)
(-0.10379519 0.042122375 0)
(-0.11084369 0.042040625 0)
(-0.11787407 0.041901962 0)
(-0.12487566 0.0417078 0)
(-0.13184152 0.041457717 0)
(-0.13876823 0.041153485 0)
(-0.14565073 0.040795942 0)
(-0.1524902 0.040385125 0)
(-0.15928891 0.039921116 0)
(-0.16604931 0.039403351 0)
(-0.17277848 0.038819361 0)
(-0.1794817 0.038149217 0)
(-0.186169 0.037365318 0)
(-0.19284315 0.036429029 0)
(-0.19949416 0.035285649 0)
(-0.20611412 0.033869189 0)
(-0.21267714 0.032091781 0)
(-0.21913471 0.02985231 0)
(-0.22541777 0.027034219 0)
(-0.23142329 0.023502649 0)
(-0.23701719 0.019124718 0)
(-0.24202551 0.01374939 0)
(-0.24621835 0.0072169616 0)
(-0.24932659 -0.0006149982 0)
(-0.25105933 -0.0098803244 0)
(-0.25111847 -0.020704698 0)
(-0.24920083 -0.033185282 0)
(-0.24500852 -0.047426523 0)
(-0.23827853 -0.063552679 0)
(-0.22880296 -0.081733409 0)
(-0.2164062 -0.10229682 0)
(-0.20079615 -0.12587576 0)
(-0.18120309 -0.15354907 0)
(-0.15631846 -0.18654522 0)
(-0.12592351 -0.22464434 0)
(-0.091813413 -0.2650274 0)
(-0.045304053 -0.30532655 0)
(0.035483759 -0.33911401 0)
(0.1632676 -0.39203765 0)
(0.32274171 -0.43648992 0)
(0.48938099 -0.4625612 0)
(0.64075808 -0.44012112 0)
(0.75648754 -0.35456635 0)
(0.80934075 -0.21652359 0)
(0.80448444 -0.13555988 0)
(0.77114416 -0.05367564 0)
(0.73209952 0.018730129 0)
(0.6999758 0.084323883 0)
(0.6621792 0.13611085 0)
(0.61409438 0.17239985 0)
(0.56127741 0.19468533 0)
(0.50934928 0.20619394 0)
(0.46063857 0.20997721 0)
(0.41580021 0.20832032 0)
(0.37496075 0.20292909 0)
(0.33797285 0.19509414 0)
(0.30453402 0.18575611 0)
(0.27429138 0.1755767 0)
(0.24689418 0.16501817 0)
(0.22201605 0.15440016 0)
(0.19936653 0.14394062 0)
(0.17869453 0.13378022 0)
(0.15978561 0.12400766 0)
(0.14245392 0.11466782 0)
(0.12656516 0.10579122 0)
(0.11200405 0.097378609 0)
(0.098653997 0.089419002 0)
(0.086429424 0.081903258 0)
(0.075264924 0.07482178 0)
(0.065093635 0.068151111 0)
(0.055861951 0.061882813 0)
(0.047517383 0.055993865 0)
(0.040009876 0.050468726 0)
(0.033298372 0.045299495 0)
(0.027333718 0.040475018 0)
(0.022071619 0.035989622 0)
(0.017476729 0.031843195 0)
(0.01350287 0.028031626 0)
(0.010105818 0.024546252 0)
(0.0072445104 0.021394423 0)
(0.0048492204 0.018574782 0)
(0.0028871751 0.016086617 0)
(0.0014157419 0.013915393 0)
(-0.00016754046 0.012123639 0)
(-0.00031624385 0.01073597 0)
(-0.0019814734 0.0092398427 0)
(-0.0047615034 0.046901133 0)
(-0.014612286 0.047032957 0)
(-0.019833065 0.047203603 0)
(-0.026958484 0.047404426 0)
(-0.03368855 0.047628993 0)
(-0.040543957 0.047869509 0)
(-0.047441472 0.048119207 0)
(-0.054371415 0.048364634 0)
(-0.061347263 0.04859723 0)
(-0.068365624 0.048806283 0)
(-0.07541903 0.048982302 0)
(-0.082501268 0.04911464 0)
(-0.089605549 0.049196235 0)
(-0.096719457 0.049224627 0)
(-0.10383423 0.049190196 0)
(-0.11094054 0.049090918 0)
(-0.11802749 0.048927991 0)
(-0.12508495 0.048700888 0)
(-0.1321042 0.04841034 0)
(-0.13908178 0.048061044 0)
(-0.14601447 0.047656777 0)
(-0.15290285 0.047201656 0)
(-0.15974966 0.04669953 0)
(-0.1665645 0.046149176 0)
(-0.17336662 0.045541602 0)
(-0.18016813 0.044860061 0)
(-0.18698436 0.044077273 0)
(-0.19383412 0.043150766 0)
(-0.2007252 0.042016691 0)
(-0.20766824 0.040597634 0)
(-0.21465867 0.038789828 0)
(-0.22166586 0.036467294 0)
(-0.22864298 0.033487869 0)
(-0.23550012 0.029675488 0)
(-0.24210756 0.024851187 0)
(-0.24828941 0.018833044 0)
(-0.25381188 0.011421752 0)
(-0.25840454 0.0024212656 0)
(-0.26175838 -0.0083060007 0)
(-0.26355047 -0.020879139 0)
(-0.26347062 -0.035405397 0)
(-0.26123208 -0.051970653 0)
(-0.25660122 -0.070619898 0)
(-0.2494894 -0.091432656 0)
(-0.23995256 -0.11472744 0)
(-0.22793611 -0.14142662 0)
(-0.21317121 -0.17310152 0)
(-0.19660066 -0.2100435 0)
(-0.1815663 -0.24998413 0)
(-0.15770368 -0.29896689 0)
(-0.068105238 -0.3782207 0)
(0.11364986 -0.47839157 0)
(0.34441726 -0.58047162 0)
(0.57731215 -0.62971196 0)
(0.78543247 -0.63965881 0)
(0.95545759 -0.57629134 0)
(1.0802089 -0.44799539 0)
(1.158688 -0.24705246 0)
(1.1530314 -0.072467271 0)
(1.0349714 0.050234497 0)
(0.88429797 0.079609796 0)
(0.77662169 0.12535196 0)
(0.7041538 0.1820474 0)
(0.64113346 0.22691689 0)
(0.57753459 0.25145736 0)
(0.51612855 0.26038025 0)
(0.46016845 0.25967096 0)
(0.41042655 0.25317046 0)
(0.36647129 0.24318479 0)
(0.32761116 0.23118815 0)
(0.29315343 0.21815529 0)
(0.262473 0.20473181 0)
(0.23502372 0.19133752 0)
(0.21034078 0.17823976 0)
(0.18803923 0.1656049 0)
(0.1678061 0.15352614 0)
(0.1493837 0.14204381 0)
(0.13256377 0.13116777 0)
(0.11719736 0.1208958 0)
(0.10314511 0.11120096 0)
(0.090286721 0.10205458 0)
(0.078542316 0.09343776 0)
(0.067836989 0.085322924 0)
(0.058104896 0.077682663 0)
(0.049294493 0.070496032 0)
(0.041349474 0.063739075 0)
(0.034230292 0.05739117 0)
(0.027899435 0.051446615 0)
(0.022305681 0.04589272 0)
(0.017413769 0.040725392 0)
(0.013181343 0.035934988 0)
(0.0095609346 0.031520716 0)
(0.0065177739 0.027480465 0)
(0.0040100736 0.02381171 0)
(0.0019721545 0.020520358 0)
(0.00036454441 0.017612743 0)
(-0.0007514629 0.015085265 0)
(-0.0018774378 0.012909738 0)
(-0.0018405677 0.011398478 0)
(-0.0029235689 0.0094694956 0)
(-0.0046433068 0.053547686 0)
(-0.014465156 0.053714021 0)
(-0.019624531 0.053915714 0)
(-0.026722501 0.054157243 0)
(-0.033433267 0.054431039 0)
(-0.040274299 0.054719407 0)
(-0.047167971 0.055018481 0)
(-0.054105324 0.055314798 0)
(-0.061099531 0.055595863 0)
(-0.068147683 0.055848662 0)
(-0.075239477 0.056059247 0)
(-0.082368652 0.056219499 0)
(-0.089526358 0.056321245 0)
(-0.096700744 0.056358094 0)
(-0.10388004 0.056321234 0)
(-0.11104933 0.056208828 0)
(-0.11819976 0.05602084 0)
(-0.12532037 0.055759683 0)
(-0.13239858 0.055427714 0)
(-0.1394296 0.055033652 0)
(-0.14640919 0.054584738 0)
(-0.15333813 0.054088126 0)
(-0.1602248 0.053552343 0)
(-0.16708507 0.052981165 0)
(-0.17394165 0.052370394 0)
(-0.18081765 0.051711639 0)
(-0.18774701 0.050978768 0)
(-0.1947669 0.050123246 0)
(-0.20189954 0.049075641 0)
(-0.20917714 0.047749215 0)
(-0.21662412 0.046030828 0)
(-0.22422997 0.043773281 0)
(-0.23197508 0.040801069 0)
(-0.23979711 0.036907294 0)
(-0.24757847 0.031855611 0)
(-0.25516159 0.025404616 0)
(-0.26231563 0.017297032 0)
(-0.2687096 0.0072916039 0)
(-0.27398035 -0.0047690084 0)
(-0.27780495 -0.01898649 0)
(-0.2798593 -0.035458006 0)
(-0.27979611 -0.054234539 0)
(-0.27735355 -0.075249115 0)
(-0.27249913 -0.098403309 0)
(-0.26544541 -0.12389845 0)
(-0.25693521 -0.15251566 0)
(-0.24963847 -0.18417675 0)
(-0.24917302 -0.21690796 0)
(-0.24757287 -0.2631277 0)
(-0.17158608 -0.3750399 0)
(0.063779127 -0.57773167 0)
(0.33623555 -0.74266001 0)
(0.59601021 -0.85247875 0)
(0.84532113 -0.89135323 0)
(1.0800871 -0.8727007 0)
(1.2926601 -0.76952186 0)
(1.4475538 -0.56524201 0)
(1.5069655 -0.29719349 0)
(1.4865281 -0.026335397 0)
(1.3938313 0.20884311 0)
(1.2059635 0.27574712 0)
(0.97612621 0.2763783 0)
(0.79407607 0.2818681 0)
(0.67327897 0.30199412 0)
(0.58803857 0.31972678 0)
(0.51697947 0.32334883 0)
(0.45412587 0.31546417 0)
(0.39964848 0.30175664 0)
(0.35304001 0.28552641 0)
(0.31292814 0.26828165 0)
(0.27805074 0.25083514 0)
(0.24745651 0.23370061 0)
(0.22039746 0.21718012 0)
(0.19627909 0.20143328 0)
(0.17463469 0.18653237 0)
(0.15509716 0.17249406 0)
(0.13737001 0.1592945 0)
(0.1212332 0.14690076 0)
(0.1065264 0.13526228 0)
(0.093095282 0.1243223 0)
(0.080824091 0.11403446 0)
(0.069634909 0.10436149 0)
(0.059452112 0.09525619 0)
(0.050216851 0.086685462 0)
(0.041875416 0.078616566 0)
(0.034376679 0.071024798 0)
(0.027690564 0.063889019 0)
(0.021780754 0.0571942 0)
(0.016596253 0.050931211 0)
(0.012103787 0.04508898 0)
(0.0082673636 0.039659276 0)
(0.0050476401 0.03464747 0)
(0.0023999705 0.030052717 0)
(0.00028802135 0.025871589 0)
(-0.0013431226 0.022117344 0)
(-0.0025327958 0.018793884 0)
(-0.0032845531 0.015914949 0)
(-0.0038616367 0.013375134 0)
(-0.0036378136 0.0116724 0)
(-0.0040848246 0.0093706966 0)
(-0.0045013816 0.06015459 0)
(-0.014285472 0.060362422 0)
(-0.019375386 0.060604732 0)
(-0.026437793 0.060897191 0)
(-0.033123374 0.061226533 0)
(-0.039949563 0.061575464 0)
(-0.046837899 0.061936303 0)
(-0.053783996 0.062295217 0)
(-0.060799417 0.062633916 0)
(-0.067883169 0.06294012 0)
(-0.075022242 0.06319748 0)
(-0.082206617 0.063394354 0)
(-0.089427442 0.063521402 0)
(-0.09667199 0.063569817 0)
(-0.10392653 0.063533444 0)
(-0.11117417 0.063408339 0)
(-0.11840019 0.063192646 0)
(-0.12559147 0.062892242 0)
(-0.13273258 0.062512427 0)
(-0.1398161 0.062064981 0)
(-0.14684026 0.06156141 0)
(-0.1538049 0.061015803 0)
(-0.1607175 0.060444727 0)
(-0.16760071 0.059859123 0)
(-0.17448519 0.059262953 0)
(-0.18140528 0.058652606 0)
(-0.18841475 0.058007686 0)
(-0.1955721 0.057283683 0)
(-0.20292087 0.056408238 0)
(-0.21051674 0.0552878 0)
(-0.21841697 0.053803008 0)
(-0.22665135 0.051781797 0)
(-0.23523178 0.049011711 0)
(-0.2441347 0.0452492 0)
(-0.2532752 0.040191714 0)
(-0.26249757 0.033522468 0)
(-0.27154867 0.024920801 0)
(-0.28005272 0.014085698 0)
(-0.28758242 0.00082378388 0)
(-0.29375958 -0.014925544 0)
(-0.29822564 -0.033253928 0)
(-0.30053274 -0.054261043 0)
(-0.30021396 -0.077804083 0)
(-0.2969602 -0.10341976 0)
(-0.29147387 -0.13054448 0)
(-0.28768368 -0.15740747 0)
(-0.29402653 -0.17992731 0)
(-0.31036594 -0.21032605 0)
(-0.27408628 -0.32095893 0)
(-0.051563833 -0.6044036 0)
(0.26997371 -0.88502049 0)
(0.53742119 -1.0365232 0)
(0.77886356 -1.1168403 0)
(1.0032593 -1.1283842 0)
(1.2097131 -1.083679 0)
(1.3867948 -0.94207769 0)
(1.5207392 -0.67210444 0)
(1.6024342 -0.32124136 0)
(1.598034 0.029783624 0)
(1.5278466 0.32239272 0)
(1.3958576 0.47329373 0)
(1.171453 0.50812635 0)
(0.91068846 0.48582555 0)
(0.70982 0.43385087 0)
(0.58783281 0.40606389 0)
(0.50541869 0.39296558 0)
(0.43850071 0.37618135 0)
(0.38138884 0.35366577 0)
(0.33336891 0.32948631 0)
(0.29303464 0.3058625 0)
(0.25864595 0.28337485 0)
(0.22888624 0.26218644 0)
(0.20281344 0.24235226 0)
(0.17973023 0.22386566 0)
(0.15911121 0.2066721 0)
(0.14055592 0.1906864 0)
(0.12375457 0.17580501 0)
(0.1084869 0.16193555 0)
(0.094579223 0.14897476 0)
(0.081879561 0.13683776 0)
(0.070286819 0.12545398 0)
(0.059726667 0.11476192 0)
(0.05012724 0.10470258 0)
(0.041437765 0.095228705 0)
(0.033609355 0.086300798 0)
(0.026601098 0.077891256 0)
(0.020387111 0.069979305 0)
(0.014931967 0.062539884 0)
(0.010190605 0.055568005 0)
(0.0061351854 0.049052118 0)
(0.0027370391 0.042985752 0)
(-4.5126232e-05 0.03737789 0)
(-0.0022544657 0.032226379 0)
(-0.0039232404 0.027534844 0)
(-0.0051013713 0.023314625 0)
(-0.0058250118 0.019569414 0)
(-0.0061711631 0.016317143 0)
(-0.0061297061 0.013483212 0)
(-0.0057086622 0.01147499 0)
(-0.0054479354 0.0089155737 0)
(-0.0043274219 0.066688232 0)
(-0.014065302 0.066946431 0)
(-0.019073166 0.067237183 0)
(-0.026093356 0.067598858 0)
(-0.032749572 0.067989817 0)
(-0.039554754 0.068415725 0)
(-0.046437009 0.06885397 0)
(-0.053395265 0.06928872 0)
(-0.060437913 0.069699039 0)
(-0.067561361 0.070069575 0)
(-0.074755073 0.070386053 0)
(-0.082006911 0.070629749 0)
(-0.089305123 0.070790361 0)
(-0.096633847 0.070856798 0)
(-0.10397635 0.070822582 0)
(-0.11131423 0.070684592 0)
(-0.11862886 0.070440094 0)
(-0.12590218 0.070094735 0)
(-0.13311491 0.069658538 0)
(-0.14025674 0.069143654 0)
(-0.14732217 0.068569642 0)
(-0.15430745 0.067961612 0)
(-0.1612239 0.067345964 0)
(-0.16809999 0.066741469 0)
(-0.17497364 0.066166791 0)
(-0.18189256 0.065631148 0)
(-0.18892902 0.065120101 0)
(-0.19616806 0.064597295 0)
(-0.20367954 0.063992086 0)
(-0.21154413 0.063207563 0)
(-0.21986564 0.062117979 0)
(-0.22872431 0.060537101 0)
(-0.23816824 0.058220174 0)
(-0.24823168 0.054872844 0)
(-0.2588857 0.050138204 0)
(-0.26999793 0.043594752 0)
(-0.2812973 0.034769588 0)
(-0.29230993 0.02324327 0)
(-0.30245263 0.0088752067 0)
(-0.31128324 -0.0082785714 0)
(-0.31850655 -0.028453479 0)
(-0.32352934 -0.052050883 0)
(-0.3251324 -0.078777951 0)
(-0.32263887 -0.1071882 0)
(-0.31927121 -0.13373768 0)
(-0.32437447 -0.1506769 0)
(-0.34593453 -0.1601986 0)
(-0.34876177 -0.22979531 0)
(-0.20562414 -0.50213721 0)
(0.1172214 -0.95956944 0)
(0.35732602 -1.1754524 0)
(0.56912108 -1.2645837 0)
(0.74421616 -1.3140991 0)
(0.9288014 -1.3221472 0)
(1.1396681 -1.2695961 0)
(1.3390862 -1.0904069 0)
(1.4908584 -0.77366975 0)
(1.5804756 -0.36810998 0)
(1.6107261 0.058173947 0)
(1.5607091 0.41885981 0)
(1.4220114 0.65491457 0)
(1.211679 0.73989896 0)
(0.97512144 0.71623967 0)
(0.75122148 0.62234586 0)
(0.58077743 0.52914299 0)
(0.47725729 0.47377458 0)
(0.40857432 0.43885054 0)
(0.35296863 0.40621193 0)
(0.30618271 0.3734846 0)
(0.26723701 0.34277113 0)
(0.23454638 0.31483141 0)
(0.20656417 0.28944401 0)
(0.1821845 0.26627937 0)
(0.1606704 0.24509681 0)
(0.14148673 0.22568387 0)
(0.12422599 0.20783563 0)
(0.10858875 0.19136327 0)
(0.094368889 0.17609865 0)
(0.081396504 0.16188864 0)
(0.06953805 0.14862484 0)
(0.058709245 0.13620767 0)
(0.048845561 0.12454717 0)
(0.039884101 0.1135752 0)
(0.031784249 0.1032319 0)
(0.024510078 0.093473245 0)
(0.0180315 0.084267527 0)
(0.012322755 0.075589304 0)
(0.0073545028 0.067414599 0)
(0.0030957016 0.059736176 0)
(-0.00048857261 0.052551281 0)
(-0.0034135882 0.045854343 0)
(-0.0057155573 0.039641401 0)
(-0.0074422364 0.033928694 0)
(-0.0086227907 0.028720863 0)
(-0.0093050832 0.024028457 0)
(-0.0095198776 0.019854039 0)
(-0.0093703853 0.016216239 0)
(-0.0087174031 0.013124588 0)
(-0.0080353515 0.010734849 0)
(-0.0069344555 0.0080309062 0)
(-0.0041177732 0.073139351 0)
(-0.013798262 0.073456201 0)
(-0.018704438 0.073808444 0)
(-0.02567753 0.074250862 0)
(-0.032299091 0.074723859 0)
(-0.039073523 0.075241455 0)
(-0.045951555 0.075773816 0)
(-0.052924022 0.076300599 0)
(-0.059999441 0.076801633 0)
(-0.067170233 0.077252683 0)
(-0.074428477 0.077639601 0)
(-0.081759835 0.077942213 0)
(-0.089148623 0.078147138 0)
(-0.096578273 0.078240333 0)
(-0.1040262 0.078212276 0)
(-0.11147133 0.07805893 0)
(-0.11889155 0.077780257 0)
(-0.12626132 0.077381246 0)
(-0.1335581 0.076872512 0)
(-0.140765 0.076272409 0)
(-0.14786824 0.075610138 0)
(-0.15486097 0.07491891 0)
(-0.1617572 0.074233005 0)
(-0.16858721 0.073594008 0)
(-0.17539224 0.073040005 0)
(-0.18224033 0.072592327 0)
(-0.18922745 0.07225344 0)
(-0.19646376 0.072001051 0)
(-0.20405096 0.071764966 0)
(-0.21210156 0.07144752 0)
(-0.22076595 0.070926073 0)
(-0.23019041 0.070018479 0)
(-0.24048898 0.06845508 0)
(-0.2517524 0.065886514 0)
(-0.26403718 0.061866847 0)
(-0.27732165 0.055819484 0)
(-0.29134315 0.047078636 0)
(-0.30535324 0.035076655 0)
(-0.31841237 0.01973765 0)
(-0.33024305 0.0012497061 0)
(-0.34100036 -0.020790713 0)
(-0.349347 -0.047384639 0)
(-0.35261981 -0.078140273 0)
(-0.35171061 -0.10910381 0)
(-0.35373484 -0.12998004 0)
(-0.36668116 -0.1329093 0)
(-0.37785599 -0.15867951 0)
(-0.3011073 -0.34472657 0)
(-0.016355098 -0.8072543 0)
(0.21086847 -1.1780716 0)
(0.30072403 -1.3472763 0)
(0.42724456 -1.4110188 0)
(0.57673007 -1.4826582 0)
(0.76890184 -1.5387227 0)
(0.99722092 -1.4988017 0)
(1.2099893 -1.2851999 0)
(1.3672273 -0.90814251 0)
(1.45215 -0.43595731 0)
(1.4740823 0.054675919 0)
(1.4462156 0.49015111 0)
(1.3567894 0.801957 0)
(1.1787877 0.95948196 0)
(0.94770086 0.9303318 0)
(0.72712561 0.83080211 0)
(0.54337945 0.67959047 0)
(0.42824046 0.5655162 0)
(0.36132458 0.50014692 0)
(0.31235191 0.45522504 0)
(0.27055969 0.41477608 0)
(0.23520371 0.37732817 0)
(0.20568 0.34400788 0)
(0.18053387 0.31456379 0)
(0.15861611 0.28826957 0)
(0.13923297 0.26459829 0)
(0.12189353 0.24316168 0)
(0.1062297 0.22362643 0)
(0.091986446 0.20571652 0)
(0.078980948 0.18918874 0)
(0.06707075 0.17384951 0)
(0.056153693 0.15955915 0)
(0.046161497 0.14619054 0)
(0.037049255 0.13363122 0)
(0.028771288 0.12180179 0)
(0.021299201 0.11063529 0)
(0.014612948 0.10008266 0)
(0.0086925396 0.090106705 0)
(0.0035151876 0.080680441 0)
(-0.00093870303 0.071786526 0)
(-0.0046861596 0.063414475 0)
(-0.0077569784 0.055559971 0)
(-0.01017967 0.048229143 0)
(-0.011972692 0.041407485 0)
(-0.013171681 0.035127762 0)
(-0.01382044 0.029392545 0)
(-0.013960877 0.024215747 0)
(-0.013624974 0.019605729 0)
(-0.012889279 0.015576599 0)
(-0.01163035 0.012195612 0)
(-0.010584968 0.0094539845 0)
(-0.0085259312 0.0066188688 0)
(-0.0038656475 0.079490516 0)
(-0.013471316 0.079879803 0)
(-0.018258996 0.08031041 0)
(-0.025171197 0.080844972 0)
(-0.031750678 0.081427469 0)
(-0.038491761 0.082053842 0)
(-0.045363696 0.082700074 0)
(-0.052350387 0.083338948 0)
(-0.059464121 0.083948515 0)
(-0.066694726 0.08449895 0)
(-0.07402873 0.084973026 0)
(-0.081452728 0.085349245 0)
(-0.088949633 0.085608528 0)
(-0.096500164 0.085735687 0)
(-0.10407687 0.085718569 0)
(-0.1116514 0.085550686 0)
(-0.11919672 0.085231418 0)
(-0.12668396 0.084764857 0)
(-0.1340812 0.084164125 0)
(-0.14135996 0.083455418 0)
(-0.14850001 0.08267346 0)
(-0.15549271 0.081862499 0)
(-0.16234121 0.081072553 0)
(-0.1690707 0.080368527 0)
(-0.17573943 0.079813406 0)
(-0.18243111 0.079450074 0)
(-0.18925843 0.079309609 0)
(-0.19637342 0.079389324 0)
(-0.20391808 0.0796203 0)
(-0.21202975 0.079906535 0)
(-0.2209027 0.08015741 0)
(-0.23076313 0.080199356 0)
(-0.2418169 0.079727433 0)
(-0.25426866 0.078356448 0)
(-0.26834036 0.075579019 0)
(-0.28415258 0.070720326 0)
(-0.30139429 0.062790059 0)
(-0.31889509 0.050554608 0)
(-0.33541896 0.033933763 0)
(-0.35121312 0.01419733 0)
(-0.36653501 -0.00909135 0)
(-0.37825073 -0.039016708 0)
(-0.38432949 -0.075459466 0)
(-0.38915873 -0.10676868 0)
(-0.39690603 -0.11938895 0)
(-0.40080683 -0.12958429 0)
(-0.35439021 -0.23198638 0)
(-0.16002682 -0.56736091 0)
(0.10032496 -1.0506143 0)
(0.14039919 -1.219913 0)
(0.16948602 -1.4068793 0)
(0.26193157 -1.5226976 0)
(0.38990929 -1.6518125 0)
(0.55484244 -1.7623468 0)
(0.75355951 -1.7289375 0)
(0.93485136 -1.4709605 0)
(1.0667206 -1.0281956 0)