/*--------------------------------*- C++ -*----------------------------------*\
  =========                 |
  \\      /  F ield         | OpenFOAM: The Open Source CFD Toolbox
   \\    /   O peration     | Website:  https://openfoam.org
    \\  /    A nd           | Version:  9
     \\/     M anipulation  |
\*---------------------------------------------------------------------------*/
FoamFile
{
    format      ascii;
    class       surfaceScalarField;
    location    "1";
    object      alphaPhi0.phase1;
}
// * * * * * * * * * * * * * * * * * * * * * * * * * * * * * * * * * * * * * //

dimensions      [0 3 -1 0 0 0 0];

internalField   nonuniform List<scalar> 
8032
(
-2.80666e-73
5.3688e-76
-7.79941e-73
1.36007e-73
-1.26333e-69
1.73658e-70
-1.45649e-66
1.445e-67
-1.23112e-63
8.82734e-65
-8.38336e-61
4.14993e-62
-4.91219e-58
1.46138e-59
-2.88351e-55
2.78715e-57
-1.78897e-52
-4.26094e-54
-8.72753e-50
-5.68352e-51
-2.697e-47
-2.2582e-48
-2.39931e-45
-3.30706e-46
-4.74468e-44
-6.4726e-44
-3.70539e-43
-3.06429e-42
-1.43372e-42
-3.63598e-41
5.04206e-46
-2.65688e-40
1.43247e-42
-2.65307e-40
3.6804e-43
-3.58937e-41
4.59123e-44
-2.88745e-42
3.06196e-45
-6.03635e-44
1.09867e-46
-1.98466e-45
3.38289e-48
-2.42374e-46
5.22487e-51
-1.45441e-48
1.81108e-54
-4.91641e-52
2.73891e-59
3.40057e-58
5.30466e-62
9.01575e-61
7.60543e-65
2.56292e-63
8.98712e-68
5.44873e-66
7.79488e-71
8.91711e-69
4.84122e-74
1.07149e-71
1.73226e-74
8.39279e-75
3.14001e-77
-1.82116e-72
1.54157e-72
-4.94403e-69
3.8778e-69
-8.83331e-66
4.75863e-66
-9.80825e-63
3.81378e-63
-7.9825e-60
2.24347e-60
-5.23148e-57
1.01534e-57
-2.94923e-54
3.44212e-55
-1.67955e-51
6.34399e-53
-1.01587e-48
-3.10721e-50
-4.70289e-46
-4.13936e-47
-1.3165e-43
-1.61676e-44
-9.91446e-42
-2.22717e-42
-1.54276e-40
-7.9765e-41
-9.7518e-40
-8.72824e-40
-2.12174e-39
-4.59495e-39
7.22551e-43
-1.0615e-38
2.12292e-39
-1.06143e-38
9.74251e-40
-4.59434e-39
1.50423e-40
-8.65646e-40
1.36307e-41
-7.53826e-41
4.13842e-43
-2.66226e-42
1.51762e-44
-9.25705e-43
3.08659e-47
-7.71722e-45
1.13629e-50
-3.08855e-48
1.62943e-55
7.00049e-54
4.13424e-58
2.12876e-56
4.97217e-61
6.31299e-59
6.07901e-64
1.3916e-61
5.47798e-67
2.36528e-64
3.0665e-70
2.95129e-67
1.12887e-73
2.40531e-70
9.56275e-74
-1.21415e-68
1.18216e-68
-2.85188e-65
2.76843e-65
-4.07876e-62
3.1651e-62
-4.22488e-59
2.36661e-59
-3.20636e-56
1.29843e-56
-1.95834e-53
5.47882e-54
-1.02834e-50
1.73173e-51
-5.49236e-48
2.98846e-49
-3.13421e-45
-1.26627e-46
-1.33506e-42
-1.5528e-43
-3.22776e-40
-5.35641e-41
-1.98781e-38
-6.2754e-39
-2.60442e-37
-1.90265e-37
-1.45891e-36
-1.83806e-36
-2.9528e-36
-8.95815e-36
9.50637e-40
-1.99373e-35
2.95436e-36
-1.99361e-35
1.45758e-36
-8.95702e-36
2.5442e-37
-1.82381e-36
2.21129e-38
-1.80714e-37
8.23426e-40
-6.07561e-39
3.46376e-41
-1.76341e-39
9.54062e-44
-2.05008e-41
3.88769e-47
-1.00657e-44
5.84655e-52
3.39174e-50
1.45389e-54
1.11148e-52
2.06845e-57
3.5303e-55
2.71683e-60
8.35389e-58
2.62398e-63
1.52253e-60
1.83631e-66
2.03644e-63
7.81754e-70
1.78147e-66
7.60754e-70
-7.1745e-65
7.01799e-65
-1.52688e-61
1.48884e-61
-1.58717e-58
1.53986e-58
-1.48154e-55
1.04463e-55
-1.01951e-52
5.19816e-53
-5.64137e-50
1.98839e-50
-2.68182e-47
5.69725e-48
-1.30269e-44
8.95896e-46
-6.80208e-42
-3.26625e-43
-2.59673e-39
-3.60576e-40
-5.30397e-37
-1.07896e-37
-2.64869e-35
-1.0624e-35
-2.91542e-34
-2.71707e-34
-1.44751e-33
-2.31509e-33
-2.72497e-33
-1.04456e-32
8.12758e-37
-2.23977e-32
2.72629e-33
-2.23964e-32
1.44625e-33
-1.04444e-32
2.8531e-34
-2.29819e-33
2.41783e-35
-2.59255e-34
1.13558e-36
-8.46173e-36
5.273e-38
-2.18392e-36
2.00248e-40
-3.56211e-38
9.35818e-44
-2.21178e-41
1.61749e-48
1.07805e-46
4.34168e-51
3.90361e-49
7.02043e-54
1.36775e-51
1.01737e-56
3.57097e-54
1.09051e-59
7.17634e-57
1.0491e-62
1.05805e-59
4.92955e-66
1.02304e-62
4.82252e-66
-3.65416e-61
3.58825e-61
-6.88514e-58
6.73916e-58
-6.33504e-55
6.17093e-55
-4.50692e-52
3.70246e-52
-2.74785e-49
1.633e-49
-1.34573e-46
5.53323e-47
-5.65647e-44
1.4043e-44
-2.43506e-41
1.9688e-42
-1.13422e-38
-6.04798e-40
-3.79884e-36
-5.91389e-37
-6.44315e-34
-1.51373e-34
-2.59195e-32
-1.24134e-32
-2.39232e-31
-2.67061e-31
-1.05318e-30
-2.0054e-30
-1.84523e-30
-8.37842e-30
5.02282e-34
-1.73114e-29
1.84604e-30
-1.73105e-29
1.05231e-30
-8.3775e-30
2.34518e-31
-1.99168e-30
2.32692e-32
-2.55895e-31
1.19739e-33
-9.83111e-33
5.91541e-35
-1.92748e-33
3.13212e-37
-4.47023e-35
1.72809e-40
-3.59711e-38
3.71268e-45
2.57637e-43
1.12225e-47
1.05146e-45
2.06902e-50
4.16149e-48
3.38397e-53
1.22652e-50
4.75658e-56
2.78111e-53
5.17004e-59
4.63588e-56
2.74407e-62
5.06287e-59
2.6958e-62
-1.64068e-57
1.61548e-57
-2.68841e-54
2.6386e-54
-2.15099e-51
2.10139e-51
-1.20203e-48
1.09543e-48
-6.37821e-46
4.20728e-46
-2.7149e-43
1.24044e-43
-9.90559e-41
2.73917e-41
-3.70241e-38
3.36834e-39
-1.50843e-35
-8.51558e-37
-4.35927e-33
-7.29692e-34
-6.05632e-31
-1.58057e-31
-1.95216e-29
-1.07186e-29
-1.50842e-28
-1.93551e-28
-5.89184e-28
-1.27972e-27
-9.61583e-28
-4.95105e-27
2.36499e-31
-9.86136e-27
9.61964e-28
-9.86087e-27
5.88731e-28
-4.95054e-27
1.48119e-28
-1.27157e-27
1.77184e-29
-1.862e-28
1.00704e-30
-8.70168e-30
5.12326e-32
-1.25323e-30
3.8075e-34
-4.25029e-32
2.54181e-37
-4.52355e-35
7.22022e-42
4.8906e-40
2.52563e-44
2.28324e-42
5.35289e-47
1.03962e-44
1.00559e-49
3.52075e-47
1.79886e-52
9.1684e-50
2.24859e-55
1.75887e-52
1.3724e-58
2.20854e-55
1.3522e-58
-6.45893e-54
6.37152e-54
-9.08518e-51
8.93329e-51
-6.23979e-48
6.10789e-48
-2.80996e-45
2.73094e-45
-1.2716e-42
9.01535e-43
-4.64188e-40
2.2829e-40
-1.45018e-37
4.32947e-38
-4.63386e-35
4.6171e-36
-1.62783e-32
-9.3843e-34
-4.00641e-30
-7.00762e-31
-4.5093e-28
-1.27387e-28
-1.15931e-26
-7.10259e-27
-7.48778e-26
-1.07417e-25
-2.59723e-25
-6.24555e-25
-3.95314e-25
-2.23883e-24
8.73451e-29
-4.30534e-24
3.95454e-25
-4.30513e-24
2.59537e-25
-2.23861e-24
7.36509e-26
-6.20852e-25
1.06397e-26
-1.0374e-25
6.87793e-28
-5.91441e-27
3.51073e-29
-5.99318e-28
3.672e-31
-3.14147e-29
3.03123e-34
-4.49949e-32
1.19528e-38
7.57195e-37
4.93513e-41
4.08551e-39
1.21041e-43
2.16939e-41
2.66181e-46
8.55048e-44
5.91275e-49
2.59063e-46
8.61051e-52
5.79403e-49
6.12223e-55
8.47422e-52
6.04411e-55
-2.19951e-50
2.17248e-50
-2.6322e-47
2.59142e-47
-1.53822e-44
1.50764e-44
-5.89247e-42
5.73511e-42
-2.1594e-39
1.61061e-39
-6.69775e-37
3.47185e-37
-1.77439e-34
5.60436e-35
-4.79348e-32
5.1462e-33
-1.43743e-29
-8.21668e-31
-2.98075e-27
-5.34132e-28
-2.69264e-25
-8.09289e-26
-5.49767e-24
-3.69886e-24
-2.96349e-23
-4.70329e-23
-9.15556e-23
-2.43984e-22
-1.30124e-22
-8.30971e-22
2.57674e-26
-1.54305e-21
1.30165e-22
-1.54298e-21
9.14965e-23
-8.309e-22
2.92011e-23
-2.428e-22
5.10251e-24
-4.56107e-23
3.84916e-25
-3.15858e-24
1.93265e-26
-2.00526e-25
2.83823e-28
-1.83172e-26
2.94739e-31
-3.5764e-29
1.68701e-35
9.72247e-34
8.344e-38
6.09824e-36
2.37682e-40
3.81299e-38
6.44453e-43
1.76425e-40
1.68299e-45
6.28317e-43
2.88053e-48
1.65166e-45
2.40736e-51
2.83891e-48
2.37994e-51
-6.37848e-47
6.30551e-47
-6.45795e-44
6.36297e-44
-3.19329e-41
3.1323e-41
-1.03481e-38
1.00806e-38
-3.09602e-36
2.39506e-36
-8.11017e-34
4.37054e-34
-1.81014e-31
5.97123e-32
-4.10328e-29
4.70265e-30
-1.0431e-26
-5.75806e-28
-1.80429e-24
-3.26852e-25
-1.29715e-22
-4.11988e-23
-2.09476e-21
-1.56971e-21
-9.42808e-21
-1.72548e-20
-2.62869e-20
-8.35194e-20
-3.46561e-20
-2.65468e-19
6.15078e-24
-4.19413e-19
3.46657e-20
-4.19399e-19
2.62733e-20
-2.65461e-19
9.31044e-21
-8.3622e-20
1.96668e-21
-1.68823e-20
1.75042e-22
-1.37558e-21
8.64659e-24
-4.38047e-23
1.77098e-25
-8.49372e-24
2.38325e-28
-2.30473e-26
2.01362e-32
1.0379e-30
1.20898e-34
7.60438e-33
4.00552e-37
5.63708e-35
1.32746e-39
3.07783e-37
4.09806e-42
1.29554e-39
8.28944e-45
4.02534e-42
8.18859e-48
8.17678e-45
8.10271e-48
-1.55446e-43
1.5376e-43
-1.32752e-40
1.30866e-40
-5.53802e-38
5.43474e-38
-1.51368e-35
1.47528e-35
-3.71936e-33
2.95679e-33
-8.20018e-31
4.55429e-31
-1.53576e-28
5.25015e-29
-2.90785e-26
3.54143e-27
-6.23423e-24
-3.23983e-25
-8.9385e-22
-1.64344e-22
-5.09408e-20
-1.69885e-20
-6.4701e-19
-4.76037e-19
-2.38815e-18
-3.74673e-18
-5.69305e-18
-1.23119e-17
-7.02188e-18
-2.32941e-17
1.1188e-21
-2.03979e-17
7.02362e-18
-2.03988e-17
5.69045e-18
-2.32935e-17
2.36162e-18
-1.22582e-17
6.1465e-19
-3.66308e-18
5.42957e-20
-4.2786e-19
3.14471e-21
-1.39847e-20
8.86082e-23
-3.08087e-21
1.60625e-25
-1.1925e-23
2.05646e-29
9.39107e-28
1.51857e-31
8.04863e-30
5.83168e-34
7.10845e-32
2.34465e-36
4.59054e-34
8.58236e-39
2.29031e-36
2.05778e-41
8.43645e-39
2.40994e-44
2.03132e-41
2.38656e-44
-3.14861e-40
3.11587e-40
-2.26611e-37
2.23462e-37
-7.96886e-35
7.82204e-35
-1.83552e-32
1.78934e-32
-3.72166e-30
3.02275e-30
-6.89637e-28
3.92709e-28
-1.0816e-25
3.81577e-26
-1.70715e-23
2.20607e-24
-3.09406e-21
-1.47084e-22
-3.7954e-19
-6.37071e-20
-1.60958e-17
-3.97841e-18
-1.52893e-16
-6.14727e-18
-4.51157e-16
-1.67468e-17
-9.74728e-16
-2.97939e-17
-1.18629e-15
-5.28863e-16
1.70205e-19
-2.51155e-15
1.18655e-15
-2.51142e-15
9.74065e-16
-5.28157e-16
4.46932e-16
-2.87405e-17
1.46753e-16
-1.51763e-17
1.37514e-17
-4.23546e-18
9.30831e-19
-2.72374e-18
3.48897e-20
-8.54477e-19
8.75957e-23
-4.79638e-21
1.82081e-26
7.33429e-25
1.67626e-28
7.33103e-27
7.3955e-31
7.74763e-29
3.58066e-33
5.91543e-31
1.55542e-35
3.50039e-33
4.42442e-38
1.52998e-35
6.14859e-41
4.37039e-38
6.09339e-41
-5.2513e-37
5.19856e-37
-3.18799e-34
3.1443e-34
-9.45901e-32
9.28553e-32
-1.8377e-29
1.79155e-29
-3.0875e-27
2.55333e-27
-4.80972e-25
2.80116e-25
-6.32423e-23
2.29567e-23
-8.45817e-21
1.1419e-21
-1.23845e-18
-6.56155e-20
-1.13235e-16
-2.11282e-18
-4.05628e-15
0
-3.13506e-14
0
-7.83667e-14
0
-1.52938e-13
0
-1.73691e-13
-8.427e-14
2.26127e-17
-3.63542e-13
1.73724e-13
-3.63523e-13
1.52841e-13
-8.41437e-14
7.78353e-14
0
3.04526e-14
0
3.52604e-15
0
2.32311e-16
0
1.06287e-17
-1.64742e-16
3.7416e-20
-1.42941e-18
1.3917e-23
4.91747e-22
1.62424e-25
5.73502e-24
8.13677e-28
7.29086e-26
4.70196e-30
6.56136e-28
2.42166e-32
4.59888e-30
8.16425e-35
2.38312e-32
1.34508e-37
8.06852e-35
1.33382e-37
-7.12089e-34
7.05159e-34
-3.65549e-31
3.60582e-31
-9.17444e-29
9.00599e-29
-1.50704e-26
1.46908e-26
-2.10677e-24
1.77061e-24
-2.76616e-22
1.64492e-22
-3.05641e-20
1.14093e-20
-3.37792e-18
5.92387e-19
-3.73808e-16
-1.4364e-18
-2.5035e-14
0
-8.18266e-13
0
-5.24698e-12
0
-1.11978e-11
0
-1.97084e-11
0
-2.08464e-11
-1.17102e-11
2.46774e-15
-4.32379e-11
2.085e-11
-4.32358e-11
1.97002e-11
-1.16974e-11
1.11448e-11
0
5.14747e-12
0
7.48602e-13
0
4.25589e-14
0
2.45927e-15
-2.30839e-14
1.17231e-17
-2.92962e-16
9.06819e-21
2.6231e-19
1.36995e-22
3.82166e-21
7.70713e-25
5.88164e-23
5.24626e-27
6.20258e-25
3.19549e-29
5.13249e-27
1.27355e-31
3.14544e-29
2.48124e-34
1.25906e-31
2.46173e-34
-6.18844e-31
6.11498e-31
-2.69809e-28
2.65382e-28
-5.75431e-26
5.62782e-26
-8.03109e-24
7.79091e-24
-9.46424e-22
7.97734e-22
-1.23042e-19
8.03926e-20
-8.60144e-18
5.25554e-18
-2.08979e-15
2.06506e-15
-4.30476e-16
0
-4.54376e-12
0
-1.42417e-10
0
-7.17281e-10
0
-1.30743e-09
0
-2.06129e-09
0
-2.02191e-09
-1.32199e-09
2.18703e-13
-4.17652e-09
2.02223e-09
-4.17634e-09
2.06094e-09
-1.3212e-09
1.30521e-09
0
7.12158e-10
0
1.36884e-10
0
5.87321e-12
0
3.99517e-13
-1.19172e-12
4.17812e-15
-4.65324e-14
4.76159e-18
1.58128e-15
6.69308e-20
3.28764e-18
5.42182e-22
4.65019e-20
4.5565e-24
4.56619e-22
3.26778e-26
4.45204e-24
1.53306e-28
3.2141e-26
3.51743e-31
1.5149e-28
3.48926e-31
-5.02485e-28
4.97591e-28
-1.87026e-25
1.84375e-25
-3.40639e-23
3.34014e-23
-4.05917e-21
3.95088e-21
-3.81707e-19
3.58722e-19
-8.62033e-17
8.53832e-17
-3.14162e-14
3.12936e-14
-1.81714e-12
1.78472e-12
0
0
-8.84778e-10
0
-1.96978e-08
0
-7.66656e-08
0
-1.18681e-07
0
-1.66381e-07
0
-1.50324e-07
-1.20604e-07
1.49482e-11
-3.19633e-07
1.50346e-07
-3.1962e-07
1.66384e-07
-1.20575e-07
1.18671e-07
0
7.66262e-08
0
1.96266e-08
0
8.29841e-10
0
3.07321e-11
0
2.01804e-12
-3.001e-12
2.8369e-14
1.60565e-12
7.76924e-17
2.82675e-14
3.06641e-19
7.70946e-17
3.24747e-21
2.90757e-19
2.72716e-23
3.17414e-21
1.49751e-25
2.68193e-23
4.0235e-28
1.47985e-25
3.99255e-28
-4.25905e-25
4.22857e-25
-1.36362e-22
1.34796e-22
-2.13949e-20
2.10421e-20
-2.3349e-18
2.28551e-18
-6.7951e-16
6.75735e-16
-2.61807e-13
2.6107e-13
-1.14446e-11
1.1204e-11
-4.01403e-10
3.91104e-10
-1.69936e-09
0
-1.27344e-07
0
-1.96923e-06
0
-5.84207e-06
0
-7.6896e-06
0
-1.11416e-05
-6.21679e-06
-1.12524e-05
-0.000425585
1.04051e-09
-0.000656302
1.12539e-05
-0.000656285
1.11417e-05
-0.000425549
7.68981e-06
-6.19863e-06
5.84193e-06
0
1.96892e-06
0
1.2711e-07
0
1.61141e-09
0
4.05229e-10
0
1.12414e-11
3.86128e-10
2.56562e-13
1.10039e-11
6.70696e-16
2.55838e-13
2.24734e-18
6.67118e-16
2.05389e-20
2.20148e-18
1.30884e-22
2.02128e-20
4.08744e-25
1.2945e-22
4.06013e-25
-2.71359e-22
2.6947e-22
-7.54949e-20
7.46178e-20
-1.07997e-17
1.06257e-17
-3.24906e-15
3.22667e-15
-7.868e-13
7.83624e-13
-5.49608e-11
5.43943e-11
-1.65296e-09
1.60682e-09
-4.42157e-08
4.2827e-08
-5.71586e-07
0
-6.55545e-06
0
-0.000138719
-0.000410296
-0.000419759
-0.00232165
-0.000574657
-0.00403284
-0.000563492
-0.00596986
-0.000335539
-0.00674877
3.22495e-08
-0.00686619
0.000335598
-0.00686619
0.000563532
-0.00674875
0.000574671
-0.00596903
0.000419754
-0.00403272
0.000138704
-0.00232149
6.55349e-06
-0.000410187
5.71187e-07
0
4.42129e-08
0
1.65206e-09
4.28113e-08
5.49321e-11
1.60579e-09
7.86259e-13
5.43618e-11
3.24609e-15
7.8309e-13
1.07825e-17
3.22392e-15
7.53682e-20
1.06107e-17
2.70892e-22
7.4504e-20
2.69043e-22
-6.90084e-20
6.8135e-20
-1.72058e-17
1.69707e-17
-5.6899e-15
5.63916e-15
-1.55354e-12
1.54819e-12
-9.48605e-11
9.39308e-11
-5.24499e-09
5.19538e-09
-1.29026e-07
1.24936e-07
-2.61051e-06
2.50392e-06
-5.17565e-05
-8.28466e-06
-0.00101639
-0.00224965
-0.00193248
-0.00536216
-0.00203156
-0.00618708
-0.00165669
-0.00671935
-0.00107754
-0.00707181
-0.000529203
-0.0072971
4.64637e-08
-0.00739544
0.000529299
-0.00739544
0.00107764
-0.00729709
0.00165679
-0.00707179
0.00203164
-0.00671932
0.00193249
-0.00618702
0.00101632
-0.00536206
5.17259e-05
-0.0022494
2.6097e-06
-8.25066e-06
1.28967e-07
2.50317e-06
5.24352e-09
1.24878e-07
9.48337e-11
5.19391e-09
1.55304e-12
9.39041e-11
5.68706e-15
1.5477e-12
1.7201e-17
5.63634e-15
6.89883e-20
1.6966e-17
6.81155e-20
-1.33832e-17
1.32169e-17
-4.0188e-15
3.97801e-15
-1.5726e-12
1.56787e-12
-1.24782e-10
1.24442e-10
-6.19176e-09
6.14182e-09
-2.90502e-07
2.8857e-07
-5.52352e-06
5.31804e-06
-0.000231781
-1.77544e-05
-0.00280611
-0.002668
-0.00341999
-0.00508965
-0.00269811
-0.00608404
-0.00213092
-0.00675427
-0.00160912
-0.00724115
-0.00108376
-0.00759717
-0.000545031
-0.00783584
4.29758e-08
-0.00794052
0.000545119
-0.00794052
0.00108386
-0.00783583
0.00160922
-0.00759715
0.00213102
-0.00724112
0.00269823
-0.00675422
0.00342013
-0.00608396
0.00280602
-0.00508952
0.000231638
-0.00266768
5.52097e-06
-1.77237e-05
2.90431e-07
5.31552e-06
6.19011e-09
2.88499e-07
1.24747e-10
6.14019e-09
1.57209e-12
1.24406e-10
4.01705e-15
1.56736e-12
1.33777e-17
3.97629e-15
1.32115e-17
-1.13318e-15
1.10349e-15
-4.68942e-13
4.69887e-13
-6.18683e-11
6.26475e-11
-4.20715e-09
4.24031e-09
-1.89898e-07
1.89423e-07
-7.91602e-06
7.91458e-06
-0.000336238
0.000186309
-0.0039109
-0.00167803
-0.00383679
-0.00435711
-0.0033088
-0.00561765
-0.00286847
-0.00652437
-0.00238154
-0.00724121
-0.00183691
-0.00778578
-0.00124876
-0.00818532
-0.000631126
-0.00845347
4.40213e-08
-0.00857169
0.000631217
-0.00857169
0.00124885
-0.00845347
0.00183701
-0.00818531
0.00238165
-0.00778576
0.00286858
-0.00724116
0.00330891
-0.00652429
0.00383692
-0.00561753
0.00391084
-0.00435693
0.000336001
-0.00167764
7.91418e-06
0.000186311
1.89852e-07
7.91277e-06
4.20602e-09
1.89379e-07
6.18506e-11
4.23921e-09
4.68786e-13
6.26299e-11
1.13277e-15
4.69735e-13
1.10311e-15
-5.52698e-14
5.44946e-14
-1.11027e-11
1.14615e-11
-1.08217e-09
1.12435e-09
-6.52006e-08
6.75601e-08
-2.54183e-06
2.6205e-06
-0.000176718
0.00018097
-0.00406969
0.000100852
-0.00431869
-0.00301605
-0.00404592
-0.00462987
-0.00380869
-0.00585488
-0.00338571
-0.00694734
-0.00281272
-0.0078142
-0.00215322
-0.00844528
-0.00145303
-0.00888552
-0.000730977
-0.00917552
4.38852e-08
-0.00930271
0.000731067
-0.00930271
0.00145313
-0.00917553
0.00215333
-0.00888551
0.00281284
-0.00844526
0.00338584
-0.00781416
0.00380881
-0.00694726
0.00404602
-0.00585474
0.00431879
-0.0046297
0.00406954
-0.00301579
0.000176682
0.000101153
2.54117e-06
0.000180932
6.51819e-08
2.61985e-06
1.08186e-09
6.75421e-08
1.10996e-11
1.12406e-09
5.52528e-14
1.14587e-11
5.44818e-14
-1.13277e-12
1.13297e-12
-1.7865e-10
1.87792e-10
-1.60314e-08
1.6786e-08
-8.89433e-07
9.24807e-07
-3.36069e-05
3.50986e-05
-0.0030727
0.00129574
-0.00467336
-0.000898837
-0.00455752
-0.00313189
-0.00472134
-0.00446605
-0.00452863
-0.0060476
-0.00401177
-0.0074642
-0.00328566
-0.00854031
-0.0024776
-0.00925334
-0.00165354
-0.00970958
-0.000827197
-0.0100019
3.91988e-08
-0.0101299
0.000827277
-0.01013
0.00165363
-0.0100019
0.00247771
-0.00970959
0.00328579
-0.00925335
0.00401191
-0.00854028
0.00452874
-0.0074641
0.00472142
-0.00604741
0.00455755
-0.00446584
0.00467343
-0.00313167
0.00307236
-0.000898516
3.35935e-05
0.00129566
8.89113e-07
3.50853e-05
1.60251e-08
9.24548e-07
1.78596e-10
1.67816e-08
1.13234e-12
1.87767e-10
1.13275e-12
-6.92453e-12
6.93374e-12
-6.7893e-10
8.53095e-10
-5.86916e-08
7.36e-08
-3.14518e-06
3.91456e-06
-0.000502627
0.000252684
-0.00486001
0.00207119
-0.00455425
-0.00120458
-0.00493267
-0.00275344
-0.00521469
-0.00418383
-0.00506869
-0.00619356
-0.0045315
-0.00800136
-0.00369753
-0.00937427
-0.00275128
-0.0101996
-0.00181421
-0.0106466
-0.000902739
-0.0109133
2.49063e-08
-0.0110327
0.00090279
-0.0110327
0.00181428
-0.0109134
0.00275138
-0.0106467
0.00369766
-0.0101996
0.00453162
-0.00937424
0.00506877
-0.00800121
0.0052147
-0.00619332
0.00493264
-0.00418357
0.00455426
-0.00275326
0.00486007
-0.00120431
0.000502205
0.00207143
3.14156e-06
0.000252512
5.85959e-08
3.91254e-06
6.7769e-10
7.35697e-08
6.91523e-12
8.50991e-10
6.93372e-12
-3.77922e-11
3.73146e-11
-3.64412e-09
4.42183e-09
-3.23197e-07
3.89115e-07
-1.82893e-05
2.15959e-05
-0.00231793
0.00155075
-0.00429814
0.00190677
-0.00443316
-0.00106955
-0.00487749
-0.00230729
-0.00518442
-0.00386749
-0.00519278
-0.0061837
-0.00475458
-0.00843805
-0.00390951
-0.0102193
-0.00288926
-0.0112198
-0.00188831
-0.0116476
-0.000933662
-0.011868
-4.19228e-09
-0.0119664
0.000933654
-0.0119664
0.00188833
-0.011868
0.00288933
-0.0116477
0.00390959
-0.0112199
0.00475465
-0.0102193
0.00519278
-0.00843783
0.00518436
-0.00618339
0.00487739
-0.00386719
0.00443307
-0.00230711
0.00429813
-0.00106936
0.00231741
0.00190719
1.82809e-05
0.00155035
3.22329e-07
2.15894e-05
3.54092e-09
3.89097e-07
3.76925e-11
4.33057e-09
3.7388e-11
-8.53614e-11
9.91037e-11
-2.336e-09
6.55535e-09
-2.68013e-07
6.48481e-07
-1.95451e-05
4.05958e-05
-0.00311147
0.00292969
-0.00373148
0.00161401
-0.00394142
-0.000859582
-0.0042047
-0.00197451
-0.00373785
-0.00264986
-0.00410053
-0.00221758
-0.00442634
-0.00598069
-0.00373818
-0.0109074
-0.00277262
-0.0121854
-0.00181812
-0.0126021
-0.000895516
-0.0127906
-3.96976e-08
-0.0128618
0.000895435
-0.0128618
0.00181807
-0.0127907
0.00277262
-0.0126022
0.00373819
-0.0121855
0.00442625
-0.0109072
0.00409987
-0.00597871
0.00373751
-0.00221696
0.00420455
-0.00264959
0.00394125
-0.00197439
0.00373137
-0.000859444
0.00311111
0.00161439
1.9534e-05
0.00292924
2.64999e-07
4.05821e-05
2.09886e-09
6.48453e-07
8.51416e-11
6.30644e-09
9.94926e-11
-9.85086e-11
1.56962e-10
-1.19329e-09
7.24744e-09
-1.84787e-07
8.25204e-07
-7.38419e-05
6.74186e-05
-0.00327577
0.00396347
-0.00305304
0.00138902
-0.00303626
-0.000875252
-0.00243675
-0.00175171
-0.000542962
-0.000762992
-0.000259519
-2.12997e-06
-0.00217869
-0.0003357
-0.00302537
-0.00688646
-0.00233608
-0.0128747
-0.00157556
-0.0133626
-0.000782212
-0.0135839
-5.36639e-08
-0.013644
0.000782108
-0.013644
0.00157546
-0.013584
0.002336
-0.0133628
0.00302525
-0.0128747
0.00217791
-0.00688436
0.000259278
-0.000335513
0.000542858
-2.12775e-06
0.00243675
-0.00076318
0.00303613
-0.00175176
0.00305296
-0.000875157
0.00327568
0.00138942
7.36099e-05
0.00396312
1.81485e-07
6.73409e-05
8.67854e-10
8.24902e-07
9.71938e-11
7.02435e-09
1.59182e-10
-8.13066e-11
1.74715e-10
-1.81568e-09
8.30341e-09
-4.01916e-07
1.21633e-06
-0.000319707
0.000228278
-0.00252037
0.00428457
-0.00232096
0.00118399
-0.0020146
-0.00118167
-0.00082683
-0.00203769
-1.05836e-06
-0.000511784
-3.02102e-06
-2.51201e-08
-0.000332534
-5.93301e-06
-0.00169811
-0.00141369
-0.00170486
-0.0128677
-0.00122009
-0.0138474
-0.000621243
-0.0141828
-2.34135e-08
-0.0142651
0.000621213
-0.0142651
0.00122001
-0.0141828
0.00170475
-0.0138475
0.0016979
-0.0128676
0.000332349
-0.00141311
3.01887e-06
-5.92928e-06
1.05842e-06
-2.50885e-08
0.00082699
-0.000512039
0.00201448
-0.00203782
0.00232087
-0.0011816
0.00252037
0.00118436
0.000319436
0.00428438
3.99128e-07
0.000228066
1.3629e-09
1.21551e-06
7.30382e-11
8.38818e-09
1.78966e-10
0
1.22509e-10
0
7.11751e-09
-4.2224e-08
1.25245e-06
-0.00033455
0.000301854
-0.00180912
0.00422395
-0.00165423
0.00102642
-0.00121195
-0.00162389
-0.000424885
-0.00257666
-1.83082e-07
-0.000748927
-5.5212e-08
-2.71246e-08
-5.88089e-06
-5.67393e-08
-0.000640636
-0.000206156
-0.00108411
-0.00828383
-0.000859143
-0.0140721
-0.000455326
-0.0145865
7.67404e-09
-0.0147203
0.000455357
-0.0147203
0.000859111
-0.0145865
0.001084
-0.0140721
0.000640434
-0.00828213
5.87732e-06
-0.000206078
5.51641e-08
-5.66485e-08
1.82962e-07
-2.71187e-08
0.000424964
-0.000749271
0.00121188
-0.00257678
0.00165416
-0.00162381
0.00180908
0.00102681
0.00033434
0.00422375
4.19517e-08
0.000301582
0
1.25187e-06
0
7.99782e-09
1.33575e-10
0
8.54289e-11
0
4.80575e-09
0
8.81349e-07
-0.000143584
0.000227587
-0.00112511
0.00391383
-0.00104959
0.000950972
-0.000614334
-0.00205948
-0.000193709
-0.0030136
-7.30105e-07
-0.000827333
3.03627e-11
-7.06676e-07
-5.71526e-08
-1.08411e-08
0
-2.89125e-05
-0.000538469
-0.000277978
-0.000564661
-0.0140405
-0.000312587
-0.0147913
-6.6607e-08
-0.0150329
0.000312445
-0.0150329
0.000564539
-0.0147913
0.000538341
-0.0140406
0
-0.000277836
5.70426e-08
-2.88912e-05
-3.04415e-11
-1.08491e-08
7.30448e-07
-7.07125e-07
0.000193702
-0.000827659
0.000614264
-0.00301364
0.00104952
-0.00205939
0.00112499
0.000951402
0.00014346
0.00391343
0
0.000227338
0
8.81949e-07
0
5.81786e-09
9.69834e-11
0
6.32477e-11
0
3.03996e-09
6.38073e-07
3.5396e-07
1.49065e-05
0.000100402
-0.000430461
0.00326032
-0.000439327
0.000959907
-0.000136661
-0.00236222
9.48746e-07
-0.00306101
2.76884e-07
-0.000389177
3.0528e-08
-4.71605e-07
1.26849e-08
-9.86741e-09
-9.3983e-10
-7.74715e-08
-0.000272698
-3.65413e-06
-0.00032546
-0.00911429
-0.000196588
-0.0147812
-1.43995e-07
-0.0152293
0.000196158
-0.0152292
0.000325253
-0.0147814
0.000272564
-0.009115
9.38981e-10
-3.65161e-06
-1.26962e-08
-7.74391e-08
-3.0514e-08
-9.87382e-09
-2.77127e-07
-4.71786e-07
-9.95617e-07
-0.000389265
0.000136557
-0.00306102
0.000439205
-0.00236212
0.00043029
0.000960387
-1.49489e-05
0.00325969
-6.37231e-07
0.000100273
0
3.55566e-07
0
3.82653e-09
7.38055e-11
1.73061e-12
4.84982e-11
2.73276e-09
3.03328e-10
2.32404e-07
2.57598e-07
9.34517e-05
7.22684e-06
0.000281175
0.00215927
0.000162848
0.00103372
0.000219595
-0.00241898
7.94099e-05
-0.00189569
4.92571e-07
-2.04294e-05
1.89151e-08
-1.48183e-08
5.07482e-10
-1.10074e-08
2.34849e-10
-8.98184e-08
-3.65044e-06
-9.21499e-09
-0.000141166
-0.00235623
-0.000102557
-0.0146327
6.22248e-08
-0.0153319
0.000102839
-0.015332
0.000141189
-0.0146327
3.64792e-06
-0.00235628
-2.35092e-10
-9.22738e-09
-5.07896e-10
-8.97761e-08
-1.88924e-08
-1.10087e-08
-4.92701e-07
-1.48202e-08
-7.94541e-05
-2.04304e-05
-0.000219723
-0.00189574
-0.000162999
-0.00241885
-0.000281311
0.00103414
-9.3332e-05
0.00215865
-2.32266e-07
7.2169e-06
-3.29692e-09
2.59418e-07
-2.06792e-12
4.2253e-10
5.56971e-11
1.67727e-12
3.92595e-11
2.56941e-10
4.77045e-11
5.98691e-08
2.10596e-07
6.87743e-06
3.9938e-07
0.000683201
0.0011362
0.000756418
0.00110387
0.000415615
-0.00207823
0
-0.000852358
0
-1.09314e-06
0
-2.23857e-08
6.52908e-10
-9.97251e-09
4.10057e-09
-3.48305e-07
7.80084e-10
-1.16547e-08
-3.0351e-05
-0.00135372
-2.17322e-05
-0.0143924
1.97307e-08
-0.0153537
2.16732e-05
-0.0153536
3.03678e-05
-0.0143926
-7.7986e-10
-0.00135366
-4.09858e-09
-1.16776e-08
-6.53175e-10
-3.47743e-07
0
-9.97129e-09
0
-2.23887e-08
0
-1.093e-06
-0.000415728
-0.000852374
-0.000756566
-0.00207807
-0.000683164
0.00110417
-6.8681e-06
0.00113591
-5.99767e-08
3.98862e-07
-3.65622e-10
2.13463e-07
-1.95869e-12
5.83197e-11
4.43917e-11
1.66242e-12
3.15589e-11
2.13431e-11
2.79824e-11
4.24882e-08
1.78988e-07
4.18295e-07
2.26964e-08
0.000788427
0.00042213
0.00142068
0.00105774
0.000691627
-0.00135733
4.68326e-07
-0.000327131
0
-6.37841e-07
2.32522e-09
-2.43495e-08
2.77073e-08
-2.1922e-07
1.03507e-07
-2.95145e-06
9.99923e-08
-1.16054e-08
5.20434e-05
-0.00212138
5.33895e-05
-0.0141569
1.08071e-07
-0.0152998
-5.3238e-05
-0.0152997
-5.19731e-05
-0.0141569
-1.00001e-07
-0.00212122
-1.03507e-07
-1.16397e-08
-2.77021e-08
-2.95381e-06
-2.32535e-09
-2.19278e-07
0
-2.43484e-08
-4.68253e-07
-6.3777e-07
-0.000691682
-0.000327107
-0.00142079
-0.00135716
-0.00078829
0.00105797
-4.17943e-07
0.000422035
-4.27147e-08
2.26975e-08
-3.00217e-11
1.83155e-07
-1.87189e-12
3.01042e-11
3.51736e-11
1.48796e-12
2.69444e-11
3.61787e-12
2.58356e-11
2.57505e-08
1.02887e-09
4.63772e-08
2.01311e-09
0.000570802
0.000121278
0.00156551
0.000951264
0.000613108
-0.000672794
3.70875e-07
-0.000102523
8.57982e-09
-2.7928e-07
1.12678e-08
-2.57659e-08
1.95492e-08
-5.46795e-07
1.60674e-07
-2.94472e-06
1.57426e-07
-8.76694e-09
0.000153901
-0.00318768
0.000118849
-0.0139328
1.36e-07
-0.0151807
-0.00011855
-0.0151806
-0.000153737
-0.0139327
-1.57489e-07
-0.00318752
-1.60734e-07
-8.7993e-09
-1.95546e-08
-2.94713e-06
-1.12726e-08
-5.47171e-07
-8.5761e-09
-2.57691e-08
-3.7092e-07
-2.79156e-07
-0.000613098
-0.00010249
-0.0015655
-0.000672654
-0.000570727
0.000951475
-4.72268e-08
0.000121216
-2.66366e-08
2.04487e-09
-4.38571e-12
2.24708e-09
-1.62421e-12
2.73151e-11
2.85952e-11
1.14954e-12
2.57782e-11
2.00523e-12
2.4964e-11
7.75374e-09
4.06105e-10
9.40747e-09
3.56614e-10
0.000116742
4.54453e-06
0.00143325
0.000793596
0.000368742
-0.000118797
2.43697e-07
-1.41674e-05
0
-5.62845e-08
1.53222e-08
-5.28676e-08
4.74731e-08
-6.37761e-07
1.68434e-07
-2.87982e-06
1.64613e-07
-5.84019e-09
0.000223112
-0.00343501
0.000160451
-0.013664
1.68159e-07
-0.0150197
-0.000160013
-0.0150197
-0.000222897
-0.0136638
-1.64682e-07
-0.00343481
-1.68497e-07
-5.87267e-09
-4.74441e-08
-2.88173e-06
-1.5328e-08
-6.38316e-07
0
-5.29969e-08
-2.43555e-07
-5.6393e-08
-0.00036867
-1.41533e-05
-0.00143324
-0.00011869
-0.000116684
0.000793758
-9.71373e-09
4.54189e-06
-8.0371e-09
3.65404e-10
-2.24186e-12
4.17378e-10
-1.30971e-12
2.63576e-11
2.72577e-11
6.60955e-13
2.51072e-11
1.28779e-12
2.43206e-11
4.07373e-10
0
7.19908e-10
4.46271e-11
4.41382e-06
1.31427e-07
0.00105039
0.000799676
0.000115566
9.79275e-05
7.40223e-08
-5.34775e-07
0
-1.27156e-08
1.29646e-08
-8.71493e-08
3.95982e-08
-1.85385e-07
1.17498e-07
-4.29878e-07
1.12293e-07
-2.84434e-09
0.000226747
-0.00270089
0.00017229
-0.0133596
1.02113e-07
-0.0148467
-0.000172037
-0.0148467
-0.000226605
-0.0133594
-1.12444e-07
-0.00270071
-1.17647e-07
-2.87282e-09
-3.9648e-08
-4.29465e-07
-1.29735e-08
-1.85773e-07
0
-8.72749e-08
-7.39981e-08
-1.28729e-08
-0.00011549
-5.34266e-07
-0.00105038
9.79486e-05
-4.41127e-06
0.000799686
-7.3855e-10
1.31354e-07
-4.18699e-10
4.63324e-11
-1.35128e-12
0
-7.27619e-13
2.57082e-11
2.65126e-11
3.87009e-13
2.47104e-11
3.19714e-12
8.15562e-11
2.64526e-11
2.76494e-11
5.30427e-11
1.94784e-11
8.87193e-08
4.2762e-08
0.000813395
0.000625078
6.05039e-07
0.000112908
1.02935e-08
3.81922e-08
6.97982e-10
-8.73177e-09
2.22141e-09
-4.12196e-08
8.26154e-10
-4.19201e-10
1.20261e-09
-4.32464e-07
1.82789e-10
-4.0891e-09
0.000182606
-0.0019766
0.000170439
-0.013135
5.26127e-08
-0.0146753
-0.000170379
-0.0146753
-0.000182538
-0.0131348
-1.82518e-10
-0.00197643
-1.19816e-09
-4.11486e-09
-8.28413e-10
-4.32038e-07
-2.22523e-09
-4.32396e-10
-7.0334e-10
-4.15557e-08
-1.02977e-08
-8.91235e-09
-6.04615e-07
3.82368e-08
-0.000813367
0.000112896
-8.86594e-08
0.000624975
-5.75516e-11
4.27544e-08
-3.03348e-11
2.10327e-11
-4.18153e-12
4.05533e-11
-4.09239e-13
1.05782e-10
2.60865e-11
1.43853e-13
2.55872e-11
2.1496e-12
1.24326e-10
2.72897e-12
2.98642e-11
7.40003e-12
1.62049e-11
0.00102349
0.00256357
0.000592097
0.000874262
0
2.53652e-05
0
2.6781e-08
2.06297e-11
-7.53944e-09
6.83631e-11
-2.25968e-10
1.39108e-11
-4.16228e-09
4.05581e-08
-3.8153e-06
4.35184e-08
-9.31399e-09
0.000163269
-0.00182039
0.000166929
-0.0129768
2.70552e-08
-0.0145073
-0.000166868
-0.0145073
-0.000163242
-0.0129766
-4.34151e-08
-0.00182018
-4.04461e-08
-9.34153e-09
-1.43436e-11
-3.81508e-06
-7.07435e-11
-4.15807e-09
-2.11724e-11
-2.4174e-10
0
-7.72336e-09
0
2.67769e-08
-0.000591991
2.53512e-05
-0.00102363
0.00087413
-8.88205e-12
0.00256419
-3.47209e-12
1.75038e-11
-2.7679e-12
3.51529e-11
-1.74667e-13
1.61267e-10
2.73212e-11
-1.3111e-12
2.79175e-11
-3.27594e-13
1.67166e-10
3.99806e-13
3.05014e-11
3.47604e-12
1.44896e-11
0.000799458
0.00307883
4.39154e-06
0.000434652
0
8.94434e-08
-1.5351e-09
2.43976e-09
-1.53325e-11
-9.35928e-09
1.84084e-12
-5.0299e-11
2.17264e-09
-1.15529e-08
2.12679e-07
-3.9258e-06
2.11581e-07
-1.25292e-08
0.000165765
-0.0018435
0.000169825
-0.0129171
-9.188e-08
-0.0143373
-0.000169932
-0.0143374
-0.000165837
-0.0129168
-2.11593e-07
-0.00184334
-2.12685e-07
-1.25567e-08
-2.17337e-09
-3.92561e-06
-1.98226e-12
-1.16059e-08
1.64079e-11
-6.02784e-11
1.5409e-09
-9.48002e-09
0
2.41985e-09
-4.36338e-06
8.94342e-08
-0.000799331
0.000434497
-4.19565e-12
0.00307886
-4.73033e-13
1.56163e-11
4.16821e-13
3.61048e-11
1.69662e-12
2.16772e-10
3.04256e-11
-1.01078e-12
3.00356e-11
-1.14029e-12
1.69581e-10
-2.29987e-13
3.08684e-11
1.37228e-12
1.41615e-11
0.000643293
0.00312394
9.33993e-08
5.29165e-05
-8.95161e-09
1.98145e-07
-1.54267e-09
1.8585e-09
0
-4.07209e-12
1.94534e-10
-5.9116e-12
4.81528e-09
-5.05183e-07
2.20431e-07
-4.03682e-06
2.13017e-07
-1.0851e-08
0.000192603
-0.00247302
0.000175945