/*--------------------------------*- C++ -*----------------------------------*\
  =========                 |
  \\      /  F ield         | OpenFOAM: The Open Source CFD Toolbox
   \\    /   O peration     | Website:  https://openfoam.org
    \\  /    A nd           | Version:  9
     \\/     M anipulation  |
\*---------------------------------------------------------------------------*/
FoamFile
{
    format      ascii;
    class       volScalarField;
    location    "1";
    object      p;
}
// * * * * * * * * * * * * * * * * * * * * * * * * * * * * * * * * * * * * * //

dimensions      [1 -1 -2 0 0 0 0];

internalField   nonuniform List<scalar> 
4096
(
-0.00213431
0
0.00420155
0.0103832
0.0183688
0.0279215
0.0387415
0.0504789
0.0626987
0.0749219
0.0866526
0.097397
0.106674
0.114053
0.119182
0.121811
0.121812
0.119186
0.114059
0.106683
0.0974088
0.0866669
0.0749386
0.0627178
0.0505001
0.0387649
0.0279467
0.0183958
0.0104118
0.00423146
2.98202e-05
-0.00210277
-0.0565442
-0.0543284
-0.0499632
-0.0435439
-0.0352525
-0.025336
-0.014107
-0.00193837
0.0107393
0.0234195
0.0355831
0.046718
0.0563295
0.0639731
0.0692851
0.0720078
0.0720092
0.0692891
0.0639798
0.0563389
0.04673
0.0355976
0.0234364
0.0107585
-0.00191693
-0.0140834
-0.0253105
-0.0352253
-0.0435151
-0.049933
-0.0542974
-0.0565126
-0.113582
-0.111197
-0.1065
-0.0995945
-0.0906776
-0.0800163
-0.0679486
-0.0548801
-0.0412736
-0.0276622
-0.0146095
-0.00266859
0.00763285
0.0158217
0.021511
0.0244263
0.0244277
0.0215151
0.0158285
0.00764231
-0.0026565
-0.0145948
-0.027645
-0.0412541
-0.0548583
-0.0679247
-0.0799905
-0.09065
-0.0995654
-0.10647
-0.111166
-0.11355
-0.173482
-0.170837
-0.165629
-0.157973
-0.14809
-0.136279
-0.122914
-0.108448
-0.0933981
-0.0783467
-0.0639167
-0.0507231
-0.0393479
-0.0303104
-0.0240342
-0.0208191
-0.0208177
-0.02403
-0.0303035
-0.0393383
-0.0507107
-0.0639017
-0.0783292
-0.0933781
-0.108426
-0.122889
-0.136252
-0.148062
-0.157943
-0.165598
-0.170805
-0.17345
-0.23661
-0.233607
-0.227693
-0.219002
-0.207785
-0.19438
-0.179216
-0.162808
-0.145746
-0.128687
-0.112337
-0.0973943
-0.0845179
-0.0742931
-0.0671956
-0.0635613
-0.0635599
-0.0671913
-0.0742859
-0.0845079
-0.0973816
-0.112322
-0.128669
-0.145725
-0.162785
-0.179191
-0.194353
-0.207756
-0.218972
-0.227662
-0.233575
-0.236577
-0.303493
-0.300025
-0.293192
-0.283151
-0.270191
-0.254701
-0.237177
-0.218213
-0.198495
-0.178783
-0.159892
-0.142631
-0.127763
-0.115963
-0.107775
-0.103584
-0.103583
-0.107771
-0.115955
-0.127753
-0.142618
-0.159876
-0.178764
-0.198473
-0.218189
-0.237151
-0.254673
-0.270161
-0.28312
-0.29316
-0.299991
-0.303459
-0.374848
-0.370795
-0.362809
-0.351069
-0.335909
-0.317781
-0.297258
-0.275037
-0.251922
-0.228805
-0.206649
-0.186405
-0.168972
-0.15514
-0.145547
-0.140639
-0.140638
-0.145543
-0.155132
-0.168961
-0.186391
-0.206632
-0.228786
-0.251899
-0.275013
-0.297231
-0.317752
-0.335878
-0.351036
-0.362775
-0.37076
-0.374812
-0.451628
-0.44686
-0.437461
-0.423634
-0.405763
-0.384368
-0.360118
-0.333829
-0.30645
-0.279044
-0.252763
-0.228745
-0.208063
-0.191659
-0.180287
-0.174471
-0.17447
-0.180282
-0.191651
-0.208052
-0.22873
-0.252745
-0.279024
-0.306427
-0.333804
-0.360089
-0.384337
-0.40573
-0.4236
-0.437425
-0.446824
-0.451591
-0.535089
-0.529465
-0.518367
-0.502024
-0.48087
-0.455501
-0.426689
-0.395387
-0.362724
-0.329974
-0.298537
-0.269793
-0.245041
-0.225414
-0.211813
-0.204861
-0.20486
-0.211808
-0.225406
-0.245029
-0.269778
-0.298519
-0.329953
-0.3627
-0.39536
-0.426659
-0.455469
-0.480836
-0.501988
-0.51833
-0.529426
-0.535051
-0.626872
-0.62024
-0.607139
-0.587815
-0.562752
-0.532616
-0.498287
-0.460875
-0.421721
-0.382363
-0.344521
-0.309891
-0.280072
-0.256438
-0.240066
-0.231701
-0.231699
-0.240061
-0.256429
-0.280059
-0.309875
-0.344502
-0.382341
-0.421696
-0.460846
-0.498256
-0.532583
-0.562716
-0.587777
-0.607099
-0.6202
-0.626831
-0.729113
-0.721321
-0.705901
-0.683112
-0.653469
-0.617699
-0.576781
-0.531993
-0.484924
-0.437428
-0.391657
-0.349728
-0.313628
-0.285032
-0.26523
-0.255114
-0.255112
-0.265224
-0.285023
-0.313615
-0.349711
-0.391637
-0.437405
-0.484897
-0.531963
-0.576748
-0.617663
-0.653431
-0.683072
-0.70586
-0.721278
-0.729069
-0.844584
-0.835489
-0.817453
-0.790722
-0.755822
-0.713506
-0.664833
-0.611238
-0.554581
-0.497103
-0.441545
-0.390552
-0.346656
-0.311941
-0.287927
-0.275666
-0.275664
-0.287922
-0.311932
-0.346643
-0.390535
-0.441524
-0.497079
-0.554553
-0.611206
-0.664799
-0.713469
-0.755782
-0.79068
-0.817409
-0.835444
-0.844538
-0.976873
-0.966364
-0.945469
-0.914391
-0.873618
-0.82388
-0.766256
-0.702292
-0.63412
-0.564418
-0.496664
-0.434187
-0.380603
-0.338523
-0.309478
-0.29462
-0.294619
-0.309472
-0.338513
-0.380589
-0.434169
-0.496642
-0.564393
-0.63409
-0.702259
-0.76622
-0.82384
-0.873575
-0.914346
-0.945422
-0.966316
-0.976824
-1.13059
-1.11862
-1.09476
-1.0591
-1.01204
-0.954174
-0.886522
-0.810621
-0.728757
-0.643861
-0.560597
-0.483743
-0.418593
-0.367876
-0.332291
-0.31377
-0.313768
-0.332285
-0.367866
-0.418578
-0.483725
-0.560574
-0.643834
-0.728726
-0.810586
-0.886483
-0.954132
-1.01199
-1.05905
-1.09471
-1.11857
-1.13054
-1.31159
-1.29826
-1.27156
-1.23145
-1.17809
-1.11185
-1.03349
-0.944341
-0.846343
-0.743006
-0.641158
-0.547686
-0.468215
-0.405989
-0.360419
-0.33679
-0.336788
-0.360413
-0.40598
-0.4682
-0.547667
-0.641135
-0.742979
-0.846312
-0.944306
-1.03345
-1.1118
-1.17805
-1.2314
-1.2715
-1.29821
-1.31154
-1.52723
-1.51284
-1.48388
-1.44009
-1.38125
-1.30721
-1.21845
-1.11603
-1.00094
-0.876241
-0.749613
-0.628931
-0.530739
-0.457267
-0.407143
-0.380161
-0.380159
-0.407138
-0.457258
-0.530724
-0.628912
-0.74959
-0.876213
-1.00091
-1.11599
-1.21841
-1.30716
-1.3812
-1.44004
-1.48382
-1.51278
-1.52717
-1.78648
-1.77169
-1.74178
-1.69622
-1.63409
-1.55445
-1.45744
-1.34214
-1.20284
-1.04634
-0.906414
-0.770395
-0.649387
-0.572932
-0.534325
-0.517622
-0.517619
-0.534319
-0.572918
-0.649367
-0.770374
-0.906389
-1.04631
-1.20281
-1.3421
-1.4574
-1.5544
-1.63403
-1.69616
-1.74172
-1.77163
-1.78641
-2.09989
-2.08593
-2.05754
-2.0139
-1.95316
-1.87381
-1.77078
-1.63013
-1.46314
-1.29515
-1.13638
-1.04068
-0.947542
-0.886407
-0.851942
-0.837977
-0.837972
-0.851928
-0.886378
-0.947513
-1.04065
-1.13635
-1.29512
-1.46311
-1.6301
-1.77074
-1.87376
-1.9531
-2.01384
-2.05747
-2.08586
-2.09981
-2.47918
-2.46809
-2.44544
-2.41061
-2.36183
-2.29132
-2.16178
-1.98148
-1.81359
-1.70178
-1.59804
-1.51418
-1.44236
-1.38642
-1.34568
-1.32466
-1.32465
-1.34566
-1.38638
-1.44232
-1.51414
-1.598
-1.70174
-1.81356
-1.98145
-2.16174
-2.29126
-2.36176
-2.41054
-2.44536
-2.46801
-2.4791
-2.93612
-2.93107
-2.92089
-2.90809
-2.88872
-2.80254
-2.62012
-2.46114
-2.40662
-2.34564
-2.2542
-2.14124
-2.03523
-1.9501
-1.889
-1.85862
-1.85861
-1.88897
-1.95006
-2.03518
-2.14118
-2.25415
-2.34559
-2.40656
-2.46109
-2.62006
-2.80247
-2.88864
-2.90801
-2.9208
-2.93097
-2.93603
-3.48046
-3.48614
-3.49948
-3.52989
-3.54081
-3.38591
-3.23622
-3.25577
-3.27072
-3.15868
-3.01085
-2.84733
-2.69803
-2.57718
-2.49123
-2.44945
-2.44943
-2.49119
-2.57712
-2.69797
-2.84726
-3.01078
-3.15861
-3.27066
-3.2557
-3.23616
-3.38584
-3.54073
-3.52979
-3.49937
-3.48603
-3.48035
-4.1163
-4.13942
-4.19599
-4.29192
-4.32323
-4.18186
-4.24496
-4.35571
-4.3373
-4.18735
-3.97441
-3.72589
-3.50098
-3.32095
-3.19416
-3.13371
-3.1337
-3.19412
-3.32088
-3.5009
-3.72581
-3.97433
-4.18728
-4.33722
-4.35561
-4.24481
-4.18178
-4.32316
-4.2918
-4.19587
-4.13929
-4.11617
-4.83719
-4.88337
-4.99861
-5.16256
-5.15967
-5.29833
-5.49413
-5.63423
-5.67629
-5.52621
-5.20389
-4.8245
-4.47707
-4.20514
-4.01395
-3.9251
-3.92508
-4.0139
-4.20507
-4.47699
-4.82442
-5.20381
-5.52613
-5.6762
-5.63411
-5.494
-5.29823
-5.15957
-5.16241
-4.99844
-4.88321
-4.83703
-5.62088
-5.69439
-5.87688
-6.12881
-6.13145
-6.48909
-6.85246
-7.05859
-7.26216
-7.25546
-6.86714
-6.2493
-5.67359
-5.26489
-4.97684
-4.84525
-4.84523
-4.97678
-5.2648
-5.6735
-6.24924
-6.86711
-7.25536
-7.262
-7.05841
-6.85229
-6.48892
-6.13125
-6.12861
-5.87668
-5.69419
-5.62069
-6.43217
-6.5348
-6.77744
-7.10365
-7.30545
-7.76371
-8.13667
-8.47093
-8.93674
-9.21971
-8.85211
-7.9913
-7.05778
-6.45078
-6.05222
-5.86221
-5.86218
-6.05214
-6.45066
-7.05767
-7.99124
-8.852
-9.21948
-8.93645
-8.47066
-8.13643
-7.76346
-7.30518
-7.10344
-6.7772
-6.53457
-6.43193
-7.22718
-7.35432
-7.63349
-7.97549
-8.38058
-8.91917
-9.20637
-9.56957
-9.86805
-9.87076
-9.83621
-9.43606
-8.35836
-7.57345
-7.11547
-6.8767
-6.87666
-7.11537
-7.57327
-8.35817
-9.43579
-9.83578
-9.87033
-9.86764
-9.5692
-9.20606
-8.91886
-8.38028
-7.97523
-7.63321
-7.35403
-7.22689
-7.95791
-8.10036
-8.39919
-8.737
-9.23784
-9.79759
-9.87813
-10.0666
-10.1022
-10.0863
-10.1081
-9.9882
-9.29915
-8.50008
-8.04778
-7.79929
-7.79922
-8.04763
-8.49983
-9.29885
-9.98776
-10.1076
-10.0858
-10.1017
-10.0662
-9.87777
-9.79725
-9.23749
-8.73668
-8.39884
-8.10002
-7.95758
-8.5845
-8.73174
-9.0463
-9.39544
-9.90255
-10.4107
-10.2616
-10.2388
-10.2005
-10.1885
-10.2064
-10.166
-9.90537
-9.22144
-8.78972
-8.5686
-8.56855
-8.78947
-9.22111
-9.90493
-10.1655
-10.2059
-10.188
-10.2
-10.2384
-10.2612
-10.4104
-9.90212
-9.39503
-9.04589
-8.73135
-8.58411
-9.0789
-9.22165
-9.5442
-9.89068
-10.3753
-10.8373
-10.5218
-10.3393
-10.2631
-10.2398
-10.2363
-10.208
-10.1276
-9.74698
-9.34247
-9.16118
-9.16116
-9.34212
-9.74656
-10.1271
-10.2074
-10.2357
-10.2393
-10.2625
-10.3388
-10.5215
-10.8369
-10.3748
-9.89018
-9.54374
-9.2212
-9.07846
-9.43807
-9.55691
-9.87576
-10.1789
-10.652
-11.0752
-10.6819
-10.3783
-10.279
-10.256
-10.2394
-10.2078
-10.1787
-10.0598
-9.72997
-9.58598
-9.58616
-9.72912
-10.0592
-10.178
-10.2072
-10.2388
-10.2555
-10.2784
-10.378
-10.6815
-11.0747
-10.6515
-10.1783
-9.87525
-9.55642
-9.43759
-9.65816
-9.76578
-10.0206
-10.2838
-10.719
-11.0415
-10.7154
-10.3432
-10.2906
-10.2566
-10.2346
-10.2126
-10.1929
-10.168
-9.99594
-9.86733
-9.86829
-9.99416
-10.1672
-10.1922
-10.2119
-10.234
-10.256
-10.29
-10.3427
-10.715
-11.041
-10.7184
-10.2833
-10.0201
-9.76526
-9.65765
-9.75789
-9.84201
-10.0359
-10.2471
-10.6005
-10.7867
-10.6097
-10.3274
-10.281
-10.2447
-10.2228
-10.2074
-10.1938
-10.1841
-10.1388
-10.0156
-10.0158
-10.1381
-10.1835
-10.1931
-10.2067
-10.2222
-10.2441
-10.2804
-10.3269
-10.6091
-10.7861
-10.5998
-10.2465
-10.0354
-9.84148
-9.75737
-9.76948
-9.82756
-9.96669
-10.1224
-10.3578
-10.4467
-10.4376
-10.2607
-10.2339
-10.2148
-10.2036
-10.1992
-10.1979
-10.1891
-10.1771
-10.0969
-10.0968
-10.1766
-10.1884
-10.1973
-10.1986
-10.203
-10.2142
-10.2333
-10.2602
-10.437
-10.4461
-10.3571
-10.1219
-9.96613
-9.82702
-9.76896
-9.72525
-9.76072
-9.84978
-9.94801
-10.0648
-10.0482
-10.2318
-10.1608
-10.1625
-10.1723
-10.181
-10.1916
-10.2001
-10.1963
-10.1913
-10.1492
-10.1491
-10.1907
-10.1957
-10.1995
-10.191
-10.1805
-10.1718
-10.162
-10.1603
-10.2313
-10.0476
-10.0643
-9.94744
-9.84923
-9.76019
-9.72474
-9.65477
-9.67162
-9.71933
-9.77998
-9.84059
-9.82913
-10.0445
-10.0672
-10.0963
-10.133
-10.1629
-10.187
-10.2023
-10.2029
-10.1998
-10.1805
-10.1805
-10.1992
-10.2024
-10.2017
-10.1865
-10.1624
-10.1325
-10.0958
-10.0667
-10.044
-9.82855
-9.84005
-9.77945
-9.71881
-9.67111
-9.65427
-9.5804
-9.58113
-9.59621
-9.64656
-9.69061
-9.80874
-9.96811
-10.0057
-10.0537
-10.1091
-10.1553
-10.1893
-10.2098
-10.2189
-10.2149
-10.2052
-10.2053
-10.2142
-10.2184
-10.2092
-10.1888
-10.1548
-10.1086
-10.0532
-10.0052
-9.96764
-9.80823
-9.6901
-9.64605
-9.5957
-9.58063
-9.57991
-9.51624
-9.49928
-9.47902
-9.51322
-9.53795
-9.80349
-9.9131
-9.96071
-10.0304
-10.1035
-10.1627
-10.2043
-10.2292
-10.2455
-10.2461
-10.2361
-10.2362
-10.2455
-10.245
-10.2287
-10.2039
-10.1622
-10.103
-10.03
-9.96029
-9.91269
-9.80306
-9.53746
-9.51274
-9.47853
-9.4988
-9.51576
-9.46468
-9.43049
-9.37465
-9.35675
-9.31978
-9.75446
-9.85809
-9.93279
-10.0329
-10.1232
-10.1912
-10.2376
-10.2642
-10.2797
-10.2873
-10.274
-10.2743
-10.2864
-10.2792
-10.2637
-10.2372
-10.1908
-10.1228
-10.0326
-9.93242
-9.85772
-9.7541
-9.31933
-9.35627
-9.37417
-9.43002
-9.46422
-9.44045
-9.39204
-9.32575
-9.24927
-9.12135
-9.81357
-9.87559
-9.97392
-10.0827
-10.1787
-10.2478
-10.2931
-10.3173
-10.3276
-10.3368
-10.3204
-10.3207
-10.3361
-10.3271
-10.3169
-10.2927
-10.2474
-10.1784
-10.0824
-9.97361
-9.87527
-9.81326
-9.12096
-9.24879
-9.32526
-9.39158
-9.44
-9.46943
-9.41106
-9.36074
-9.18515
-9.37703
-9.96956
-9.98689
-10.0906
-10.1869
-10.273
-10.3335
-10.3705
-10.388
-10.3926
-10.3961
-10.3769
-10.3771
-10.3957
-10.3923
-10.3877
-10.3702
-10.3332
-10.2727
-10.1866
-10.0903
-9.98663
-9.96932
-9.3767
-9.18462
-9.36024
-9.41063
-9.46903
-9.5711
-9.49274
-9.35292
-9.15415
-9.84024
-10.1733
-10.1731
-10.2593
-10.3397
-10.4045
-10.4455
-10.4667
-10.4731
-10.4741
-10.4643
-10.441
-10.4409
-10.4643
-10.4738
-10.4729
-10.4664
-10.4452
-10.4042
-10.3395
-10.2591
-10.1729
-10.1732
-9.84028
-9.15354
-9.35244
-9.49239
-9.57077
-9.80079
-9.75066
-9.51353
-9.36721
-10.2922
-10.4206
-10.4285
-10.4849
-10.5356
-10.5662
-10.5764
-10.5738
-10.5648
-10.5635
-10.538
-10.5075
-10.5071
-10.5382
-10.5633
-10.5646
-10.5736
-10.5761
-10.566
-10.5355
-10.4848
-10.4284
-10.4205
-10.292
-9.36692
-9.51328
-9.75048
-9.80059
-10.2206
-10.2104
-10.0927
-10.075
-10.6591
-10.7683
-10.7494
-10.7652
-10.7641
-10.7441
-10.7125
-10.6785
-10.6509
-10.6464
-10.6071
-10.5672
-10.5669
-10.6074
-10.6463
-10.6507
-10.6783
-10.7123
-10.7439
-10.7639
-10.7651
-10.7493
-10.7682
-10.6591
-10.075
-10.0928
-10.2104
-10.2206
-10.8243
-10.8423
-10.9319
-10.9874
-11.1542
-11.1881
-11.13
-11.0768
-11.0001
-10.9156
-10.8343
-10.7664
-10.7209
-10.7096
-10.6584
-10.61
-10.6098
-10.6584
-10.7095
-10.7207
-10.7662
-10.8341
-10.9154
-11
-11.0767
-11.13
-11.1881
-11.1543
-10.9877
-10.9322
-10.8424
-10.8244
-11.484
-11.7121
-12.1333
-12.1885
-11.8385
-11.6517
-11.5312
-11.3709
-11.2049
-11.0501
-10.9201
-10.8229
-10.7629
-10.7436
-10.6834
-10.6287
-10.6286
-10.6832
-10.7434
-10.7627
-10.8227
-10.9199
-11.0499
-11.2047
-11.3708
-11.5312
-11.6517
-11.8387
-12.189
-12.1337
-11.7123
-11.4841
-11.9765
-12.4352
-13.1092
-13.1891
-12.511
-12.0743
-11.8708
-11.5797
-11.3283
-11.1146
-10.9486
-10.8325
-10.7649
-10.7405
-10.6762
-10.6183
-10.6184
-10.6758
-10.7403
-10.7646
-10.8323
-10.9484
-11.1144
-11.3282
-11.5796
-11.8707
-12.0743
-12.5112
-13.1894
-13.109
-12.4349
-11.9765
-12.0311
-12.4317
-13.0861
-13.247
-12.7127
-12.2839
-11.9849
-11.6372
-11.331
-11.0868
-10.9081
-10.7883
-10.7215
-10.6933
-10.6326
-10.5769
-10.5771
-10.6321
-10.693
-10.7212
-10.7881
-10.9079
-11.0866
-11.3308
-11.6371
-11.9848
-12.2838
-12.7126
-13.2467
-13.0855
-12.4311
-12.0308
-11.6226
-11.9227
-12.4054
-12.683
-12.4979
-12.1773
-11.8456
-11.5011
-11.2002
-10.9667
-10.802
-10.6942
-10.6359
-10.6051
-10.5563
-10.5073
-10.5075
-10.5557
-10.6048
-10.6356
-10.6939
-10.8018
-10.9665
-11.1999
-11.5009
-11.8454
-12.1771
-12.4976
-12.6824
-12.4048
-11.9222
-11.6221
-11.0352
-11.3169
-11.7345
-11.9804
-11.9475
-11.7515
-11.4903
-11.213
-10.9677
-10.7792
-10.648
-10.5632
-10.5187
-10.4882
-10.4551
-10.4157
-10.4158
-10.4546
-10.4879
-10.5184
-10.5629
-10.6478
-10.7789
-10.9674
-11.2127
-11.49
-11.7511
-11.9471
-11.9799
-11.7339
-11.3164
-11.0347
-10.4551
-10.6826
-11.0292
-11.2767
-11.3154
-11.2132
-11.0469
-10.8597
-10.691
-10.5609
-10.4707
-10.4134
-10.3844
-10.3573
-10.3405
-10.3112
-10.3113
-10.3401
-10.3571
-10.3842
-10.4131
-10.4705
-10.5606
-10.6907
-10.8594
-11.0466
-11.2128
-11.315
-11.2761
-11.0287
-10.6821
-10.4546
-9.99393
-10.1495
-10.3916
-10.6076
-10.7064
-10.6943
-10.6169
-10.5163
-10.4213
-10.3463
-10.2951
-10.2636
-10.2489
-10.2255
-10.2239
-10.2037
-10.2037
-10.2236
-10.2253
-10.2487
-10.2633
-10.2949
-10.3461
-10.4211
-10.516
-10.6166
-10.694
-10.706
-10.6071
-10.3912
-10.1491
-9.99356
-9.70401
-9.80391
-9.96629
-10.1284
-10.2386
-10.2774
-10.2656
-10.231
-10.1921
-10.16
-10.1396
-10.1284
-10.125
-10.1044
-10.1146
-10.102
-10.1019
-10.1144
-10.1042
-10.1247
-10.1282
-10.1393
-10.1598
-10.1918
-10.2307
-10.2653
-10.2771
-10.2383
-10.128
-9.96596
-9.80361
-9.70372
-9.55614
-9.62079
-9.72988
-9.84697
-9.94059
-9.99508
-10.0174
-10.0207
-10.0163
-10.0129
-10.0132
-10.0161
-10.0207
-10.0027
-10.0194
-10.0125
-10.0125
-10.0193
-10.0025
-10.0204
-10.0159
-10.013
-10.0126
-10.0161
-10.0205
-10.0171
-9.99481
-9.9403
-9.84669
-9.72961
-9.62055
-9.55591
-9.5008
-9.54314
-9.61642
-9.69958
-9.77363
-9.82715
-9.86074
-9.88057
-9.89278
-9.90581
-9.91821
-9.93006
-9.94037
-9.92517
-9.94236
-9.93893
-9.9389
-9.94225
-9.92499
-9.94018
-9.92986
-9.918
-9.9056
-9.89258
-9.88035
-9.86051
-9.82691
-9.77339
-9.69934
-9.6162
-9.54293
-9.50059
-9.50061
-9.52845
-9.57754
-9.63601
-9.69152
-9.73668
-9.77061
-9.79625
-9.81802
-9.83533
-9.85285
-9.86955
-9.88409
-9.87246
-9.8845
-9.88219
-9.88216
-9.8844
-9.87229
-9.8839
-9.86936
-9.85266
-9.83513
-9.8178
-9.79603
-9.77039
-9.73647
-9.69131
-9.6358
-9.57734
-9.52826
-9.50043
-9.52989
-9.54822
-9.58095
-9.62131
-9.6618
-9.6975
-9.72719
-9.75201
-9.77382
-9.7935
-9.81265
-9.83093
-9.84638
-9.83971
-9.84436
-9.8416
-9.84156
-9.84426
-9.83955
-9.84621
-9.83076
-9.81246
-9.79331
-9.77361
-9.75181
-9.72699
-9.6973
-9.66161
-9.62112
-9.58077
-9.54804
-9.52971
-9.57354
-9.58567
-9.60754
-9.63523
-9.66425
-9.69141
-9.71555
-9.73697
-9.75658
-9.77495
-9.79315
-9.81004
-9.82213
-9.82018
-9.81941
-9.81577
-9.81575
-9.81932
-9.82004
-9.82197
-9.80987
-9.79297
-9.77476
-9.75639
-9.73679
-9.71537
-9.69122
-9.66406
-9.63505
-9.60737
-9.5855
-9.57337
-9.62355
-9.63164
-9.64636
-9.6654
-9.68603
-9.70623
-9.7251
-9.74263
-9.75909
-9.77388
-9.79048
-9.80443
-9.81187
-9.8134
-9.80782
-9.80309
-9.80306
-9.80774
-9.81326
-9.81172
-9.80428
-9.79031
-9.77368
-9.75892
-9.74246
-9.72493
-9.70606
-9.68586
-9.66524
-9.64619
-9.63147
-9.62338
-9.67589
-9.68135
-9.69136
-9.70456
-9.71924
-9.73414
-9.74866
-9.76277
-9.77676
-9.79131
-9.80217
-9.81232
-9.81538
-9.81963
-9.80787
-9.80165
-9.80162
-9.8078
-9.81951
-9.81525
-9.81218
-9.80203
-9.7912
-9.77662
-9.76262
-9.74851
-9.73398
-9.71908
-9.7044
-9.69121
-9.68119
-9.67574
-9.72871
-9.73245
-9.73937
-9.74862
-9.75917
-9.77019
-9.7813
-9.7924
-9.80349
-9.81425
-9.82319
-9.83054
-9.82911
-9.83615
-9.81757
-9.80958
-9.80955
-9.81751
-9.83604
-9.82899
-9.83041
-9.82306
-9.81412
-9.80335
-9.79226
-9.78115
-9.77004
-9.75901
-9.74847
-9.73921
-9.7323
-9.72856
-9.7812
-9.78382
-9.7887
-9.79532
-9.80301
-9.81127
-9.81981
-9.8285
-9.83718
-9.84531
-9.8519
-9.85683
-9.85089
-9.86062
-9.83512
-9.82506
-9.82504
-9.83506
-9.86052
-9.85077
-9.85671
-9.85177
-9.84518
-9.83704
-9.82836
-9.81967
-9.81113
-9.80287
-9.79517
-9.78855
-9.78367
-9.78105
-9.83311
-9.83499
-9.83852
-9.84337
-9.84913
-9.85544
-9.8621
-9.86895
-9.87574
-9.88187
-9.88643
-9.88946
-9.8792
-9.88991
-9.8585
-9.84623
-9.84622
-9.85845
-9.88981
-9.87908
-9.88934
-9.88631
-9.88175
-9.87562
-9.86882
-9.86196
-9.8553
-9.84899
-9.84323
-9.83838
-9.83485
-9.83297
-9.88439
-9.88578
-9.88841
-9.89208
-9.89651
-9.90146
-9.90678
-9.91228
-9.91764
-9.92225
-9.92524
-9.92683
-9.91296
-9.9223
-9.88601
-9.87146
-9.87144
-9.88596
-9.92221
-9.91285
-9.92671
-9.92512
-9.92213
-9.91752
-9.91215
-9.90665
-9.90133
-9.89637
-9.89194
-9.88828
-9.88564
-9.88425
-9.93511
-9.93617
-9.93819
-9.94105
-9.94455
-9.94855
-9.95289
-9.9574
-9.96174
-9.96526
-9.96714
-9.96775
-9.95127
-9.95645
-9.91624
-9.89939
-9.89937
-9.91619
-9.95636
-9.95116
-9.96763
-9.96702
-9.96514
-9.96162
-9.95728
-9.95276
-9.94842
-9.94443
-9.94092
-9.93806
-9.93604
-9.93498
-9.98534
-9.98618
-9.98779
-9.99009
-9.99295
-9.99625
-9.99989
-10.0037
-10.0073
-10.01
-10.0112
-10.0112
-9.99329
-9.99139
-9.94797
-9.92888
-9.92887
-9.94792
-9.99131
-9.99319
-10.0111
-10.0111
-10.0099
-10.0072
-10.0036
-9.99977
-9.99613
-9.99283
-9.98996
-9.98766
-9.98605
-9.98521
-10.0352
-10.0359
-10.0372
-10.0391
-10.0415
-10.0444
-10.0475
-10.0507
-10.0537
-10.0559
-10.0567
-10.0564
-10.0382
-10.0266
-9.98033
-9.9591
-9.95908
-9.98028
-10.0265
-10.0381
-10.0563
-10.0566
-10.0558
-10.0536
-10.0506
-10.0474
-10.0443
-10.0414
-10.039
-10.0371
-10.0357
-10.035
-10.0847
-10.0853
-10.0864
-10.0881
-10.0902
-10.0927
-10.0954
-10.0982
-10.1007
-10.1025
-10.1032
-10.1027
-10.0854
-10.0619
-10.0128
-9.9894
-9.98939
-10.0127
-10.0618
-10.0853
-10.1026
-10.1031
-10.1024
-10.1006
-10.0981
-10.0953
-10.0926
-10.0901
-10.088
-10.0863
-10.0851
-10.0845
-10.1339
-10.1344
-10.1355
-10.137
-10.1389
-10.1412
-10.1435
-10.1459
-10.1479
-10.1494
-10.1502
-10.1498
-10.1351
-10.0968
-10.0448
-10.0193
-10.0193
-10.0447
-10.0967
-10.135
-10.1497
-10.1501
-10.1493
-10.1478
-10.1458
-10.1434
-10.1411
-10.1388
-10.1369
-10.1354
-10.1343
-10.1338
-10.1829
-10.1834
-10.1844
-10.1858
-10.1876
-10.1896
-10.1917
-10.1937
-10.1953
-10.1965
-10.1976
-10.1985
-10.1884
-10.1309
-10.0755
-10.048
-10.0479
-10.0755
-10.1308
-10.1883
-10.1984
-10.1975
-10.1964
-10.1952
-10.1936
-10.1916
-10.1895
-10.1875
-10.1857
-10.1843
-10.1833
-10.1828
-10.2317
-10.2322
-10.2331
-10.2345
-10.2362
-10.2381
-10.24
-10.2417
-10.2428
-10.2434
-10.2447
-10.2469
-10.2474
-10.1642
-10.1037
-10.0744
-10.0744
-10.1036
-10.1642
-10.2473
-10.2468
-10.2446
-10.2433
-10.2427
-10.2416
-10.2399
-10.238
-10.2361
-10.2344
-10.233
-10.2321
-10.2316
-10.2804
-10.2809
-10.2818
-10.2831
-10.2847
-10.2865
-10.2883
-10.2897
-10.2903
-10.2897
-10.2886
-10.2807
-10.2986
-10.1938
-10.128
-10.0979
-10.0979
-10.128
-10.1937
-10.2985
-10.2806
-10.2885
-10.2896
-10.2902
-10.2896
-10.2882
-10.2864
-10.2846
-10.283
-10.2817
-10.2808
-10.2803
-10.3289
-10.3294
-10.3303
-10.3316
-10.3332
-10.335
-10.3367
-10.3379
-10.3381
-10.3364
-10.3331
-10.3074
-10.331
-10.2183
-10.1497
-10.1195
-10.1195
-10.1496
-10.2183
-10.3309
-10.3073
-10.333
-10.3364
-10.338
-10.3378
-10.3366
-10.3349
-10.3331
-10.3315
-10.3302
-10.3293
-10.3288
-10.3773
-10.3778
-10.3787
-10.38
-10.3816
-10.3834
-10.3851
-10.3863
-10.3865
-10.3847
-10.3806
-10.3455
-10.3514
-10.2393
-10.1711
-10.1413
-10.1413
-10.171
-10.2393
-10.3514
-10.3454
-10.3805
-10.3846
-10.3864
-10.3862
-10.385
-10.3833
-10.3815
-10.3799
-10.3786
-10.3777
-10.3772
-10.4257
-10.4262
-10.4271
-10.4284
-10.43
-10.4318
-10.4335
-10.4347
-10.435
-10.4338
-10.43
-10.402
-10.3671
-10.2603
-10.1954
-10.1663
-10.1663
-10.1953
-10.2603
-10.367
-10.4019
-10.43
-10.4337
-10.4349
-10.4346
-10.4334
-10.4317
-10.4299
-10.4283
-10.427
-10.4261
-10.4256
-10.474
-10.4745
-10.4755
-10.4768
-10.4784
-10.4802
-10.4817
-10.4828
-10.4829
-10.482
-10.4783
-10.4738
-10.3896
-10.2861
-10.2255
-10.1978
-10.1978
-10.2255
-10.2861
-10.3896
-10.4737
-10.4782
-10.4819
-10.4828
-10.4827
-10.4817
-10.4801
-10.4783
-10.4767
-10.4754
-10.4744
-10.4739
-10.5224
-10.5229
-10.5239
-10.5253
-10.5269
-10.5286
-10.5301
-10.5309
-10.5303
-10.5271
-10.5099
-10.5406
-10.4167
-10.3183
-10.2643
-10.239
-10.239
-10.2643
-10.3182
-10.4166
-10.5405
-10.5099
-10.527
-10.5302
-10.5308
-10.53
-10.5285
-10.5268
-10.5252
-10.5238
-10.5228
-10.5223
-10.5709
-10.5714
-10.5724
-10.5738
-10.5755
-10.5772
-10.5787
-10.5794
-10.5788
-10.5755
-10.5553
-10.5712
-10.4457
-10.3607
-10.3153
-10.2938
-10.2938
-10.3153
-10.3606
-10.4456
-10.5711
-10.5553
-10.5754
-10.5787
-10.5793
-10.5786
-10.5772
-10.5754
-10.5737
-10.5723
-10.5713
-10.5708
-10.6195
-10.6201
-10.6211
-10.6226
-10.6243
-10.6261
-10.6275
-10.6279
-10.6266
-10.6228
-10.6252
-10.5858
-10.4849
-10.4198
-10.3842
-10.3672
-10.3672
-10.3841
-10.4198
-10.4849
-10.5858
-10.6251
-10.6227
-10.6266
-10.6278
-10.6274
-10.626
-10.6242
-10.6225
-10.621
-10.62
-10.6194
-10.6684
-10.669
-10.6701
-10.6716
-10.6734
-10.6751
-10.6763
-10.6757
-10.6702
-10.6594
-10.6957
-10.6218
-10.5466
-10.5015
-10.4762
-10.4642
-10.4642
-10.4762
-10.5015
-10.5465
-10.6217
-10.6956
-10.6594
-10.6702
-10.6757
-10.6762
-10.675
-10.6733
-10.6715
-10.67
-10.6689
-10.6683
-10.7176
-10.7182
-10.7194
-10.721
-10.7228
-10.7246
-10.7258
-10.7251
-10.72
-10.7311
-10.7406
-10.6818
-10.6364
-10.6105
-10.5955
-10.5884
-10.5884
-10.5955
-10.6105
-10.6363
-10.6818
-10.7405
-10.731
-10.7199
-10.725
-10.7257
-10.7245
-10.7227
-10.7209
-10.7193
-10.7181
-10.7175
-10.7672
-10.7679
-10.7691
-10.7708
-10.7726
-10.7744
-10.7758
-10.7754
-10.7803
-10.8231
-10.8122
-10.781
-10.7614
-10.7509
-10.7449
-10.7421
-10.7421
-10.7449
-10.7509
-10.7613
-10.7809
-10.8121
-10.823
-10.7802
-10.7754
-10.7758
-10.7743
-10.7725
-10.7707
-10.769
-10.7678
-10.7671
-10.8175
-10.8182
-10.8195
-10.8215
-10.8232
-10.8248
-10.8267
-10.8369
-10.8896
-10.925
-10.9246
-10.9216
-10.9222
-10.9237
-10.925
-10.9257
-10.9257
-10.925
-10.9237
-10.9222
-10.9215
-10.9245
-10.9249
-10.8896
-10.8368
-10.8266
-10.8247
-10.8231
-10.8214
-10.8195
-10.8181
-10.8174
-10.8688
-10.8694
-10.871
-10.874
-10.8751
-10.8765
-10.9001
-10.9576
-11.0271
-11.0659
-11.0873
-11.1048
-11.1185
-11.1285
-11.135
-11.1382
-11.1382
-11.135
-11.1285
-11.1185
-11.1047
-11.0872
-11.0658
-11.027
-10.9576
-10.9
-10.8764
-10.875
-10.8739
-10.8709
-10.8693
-10.8687
-10.9213
-10.9218
-10.9227
-10.9278
-10.9531
-11.0059
-11.0683
-11.148
-11.2151
-11.2623
-11.2984
-11.3265
-11.3476
-11.3628
-11.3726
-11.3774
-11.3774
-11.3726
-11.3628
-11.3476
-11.3264
-11.2984
-11.2622
-11.215
-11.1479
-11.0682
-11.0058
-10.953
-10.9278
-10.9226
-10.9217
-10.9212
-11.0331
-11.0431
-11.0672
-11.1059
-11.16
-11.2308
-11.312
-11.3906
-11.4556
-11.5075
-11.5486
-11.5808
-11.6054
-11.6231
-11.6346
-11.6403
-11.6403
-11.6346
-11.6231
-11.6054
-11.5808
-11.5486
-11.5075
-11.4555
-11.3905
-11.312
-11.2307
-11.16
-11.1058
-11.0672
-11.043
-11.0331
-11.3142
-11.3316
-11.3658
-11.4145
-11.4751
-11.5428
-11.6138
-11.6804
-11.7392
-11.7888
-11.8295
-11.8621
-11.8873
-11.9057
-11.9177
-11.9236
-11.9236
-11.9177
-11.9057
-11.8872
-11.862
-11.8294
-11.7888
-11.7392
-11.6804
-11.6137
-11.5427
-11.475
-11.4144
-11.3658
-11.3315
-11.3141
-11.7039
-11.7177
-11.7445
-11.783
-11.832
-11.8878
-11.9454
-12.0009
-12.0518
-12.0963
-12.1339
-12.1646
-12.1888
-12.2066
-12.2184
-12.2242
-12.2242
-12.2184
-12.2066
-12.1888
-12.1646
-12.1338
-12.0962
-12.0517
-12.0009
-11.9454
-11.8878
-11.8319
-11.7829
-11.7444
-11.7176
-11.7038
-12.1001
-12.1112
-12.1329
-12.1643
-12.2036
-12.248
-12.2946
-12.3405
-12.3838
-12.4225
-12.456
-12.4839
-12.5061
-12.5226
-12.5336
-12.539
-12.539
-12.5336
-12.5226
-12.506
-12.4839
-12.456
-12.4225
-12.3837
-12.3405
-12.2945
-12.248
-12.2035
-12.1642
-12.1328
-12.1111
-12.1
-12.4981
-12.5071
-12.5246
-12.5498
-12.5813
-12.617
-12.6549
-12.693
-12.7291
-12.7622
-12.7913
-12.8159
-12.8357
-12.8506
-12.8606
-12.8655
-12.8655
-12.8606
-12.8506
-12.8357
-12.8159
-12.7913
-12.7622
-12.7291
-12.6929
-12.6548
-12.6169
-12.5812
-12.5498
-12.5246
-12.507
-12.498
-12.8955
-12.9027
-12.9168
-12.937
-12.9623
-12.9912
-13.0221
-13.0534
-13.0836
-13.1116
-13.1365
-13.1578
-13.1751
-13.1883
-13.1971
-13.2015
-13.2015
-13.1971
-13.1883
-13.1751
-13.1578
-13.1365
-13.1115
-13.0835
-13.0533
-13.0221
-12.9912
-12.9623
-12.937
-12.9167
-12.9026
-12.8954
-13.2911
-13.2969
-13.3082
-13.3246
-13.345
-13.3684
-13.3935
-13.4193
-13.4443
-13.4678
-13.4889
-13.5072
-13.5221
-13.5335
-13.5412
-13.5451
-13.545
-13.5412
-13.5335
-13.5221
-13.5071
-13.4889
-13.4678
-13.4443
-13.4192
-13.3935
-13.3683
-13.3449
-13.3245
-13.3082
-13.2968
-13.291
-13.6845
-13.6892
-13.6983
-13.7115
-13.728
-13.747
-13.7675
-13.7886
-13.8094
-13.829
-13.8468
-13.8623
-13.875
-13.8848
-13.8914
-13.8948
-13.8948
-13.8914
-13.8848
-13.875
-13.8622
-13.8468
-13.829
-13.8094
-13.7886
-13.7675
-13.7469
-13.728
-13.7114
-13.6983
-13.6891
-13.6844
-14.0756
-14.0794
-14.0868
-14.0974
-14.1108
-14.1262
-14.143
-14.1604
-14.1775
-14.1938
-14.2087
-14.2218
-14.2326
-14.2409
-14.2465
-14.2494
-14.2494
-14.2465
-14.2409
-14.2325
-14.2217
-14.2087
-14.1938
-14.1775
-14.1603
-14.143
-14.1262
-14.1108
-14.0974
-14.0867
-14.0793
-14.0755
-14.4645
-14.4675
-14.4735
-14.4822
-14.493
-14.5056
-14.5193
-14.5336
-14.5477
-14.5612
-14.5737
-14.5846
-14.5937
-14.6008
-14.6056
-14.608
-14.608
-14.6055
-14.6008
-14.5937
-14.5846
-14.5737
-14.5612
-14.5477
-14.5335
-14.5193
-14.5056
-14.493
-14.4821
-14.4735
-14.4675
-14.4644
-14.8513
-14.8538
-14.8587
-14.8657
-14.8746
-14.8848
-14.896
-14.9077
-14.9194
-14.9306
-14.941
-14.9501
-14.9578
-14.9637
-14.9677
-14.9697
-14.9697
-14.9677
-14.9637
-14.9577
-14.9501
-14.941
-14.9306
-14.9194
-14.9077
-14.896
-14.8848
-14.8745
-14.8657
-14.8587
-14.8538
-14.8513
-15.2365
-15.2385
-15.2424
-15.2482
-15.2554
-15.2637
-15.2729
-15.2825
-15.2922
-15.3014
-15.31
-15.3176
-15.324
-15.329
-15.3324
-15.3341
-15.3341
-15.3324
-15.329
-15.324
-15.3176
-15.31
-15.3014
-15.2921
-15.2825
-15.2729
-15.2637
-15.2553
-15.2481
-15.2424
-15.2384
-15.2364
-15.62
-15.6217
-15.6249
-15.6296
-15.6354
-15.6423
-15.6498
-15.6577
-15.6657
-15.6733
-15.6804
-15.6868
-15.6921
-15.6962
-15.6991
-15.7005
-15.7005
-15.6991
-15.6962
-15.6921
-15.6868
-15.6804
-15.6733
-15.6656
-15.6577
-15.6498
-15.6423
-15.6354
-15.6295
-15.6249
-15.6216
-15.62
-16.0023
-16.0036
-16.0063
-16.0101
-16.0149
-16.0205
-16.0267
-16.0331
-16.0397
-16.046
-16.0519
-16.0572
-16.0616
-16.065
-16.0674
-16.0686
-16.0686
-16.0674
-16.065
-16.0616
-16.0571
-16.0519
-16.046
-16.0397
-16.0331
-16.0266
-16.0204
-16.0148
-16.01
-16.0062
-16.0036
-16.0022
-16.3834
-16.3845
-16.3867
-16.3898
-16.3937
-16.3983
-16.4034
-16.4087
-16.4141
-16.4193
-16.4242
-16.4285
-16.4322
-16.4351
-16.437
-16.438
-16.438
-16.437
-16.4351
-16.4322
-16.4285
-16.4242
-16.4193
-16.4141
-16.4087
-16.4033
-16.3983
-16.3937
-16.3897
-16.3866
-16.3845
-16.3834
-16.7636
-16.7645
-16.7662
-16.7688
-16.772
-16.7758
-16.7799
-16.7843
-16.7888
-16.7931
-16.7971
-16.8007
-16.8038
-16.8061
-16.8078
-16.8086
-16.8086
-16.8078
-16.8061
-16.8037
-16.8007
-16.7971
-16.7931
-16.7888
-16.7843
-16.7799
-16.7758
-16.772
-16.7688
-16.7662
-16.7645
-16.7636
-17.143
-17.1437
-17.1452
-17.1472
-17.1499
-17.153
-17.1564
-17.16
-17.1637
-17.1672
-17.1705
-17.1735
-17.176
-17.178
-17.1794
-17.18
-17.18
-17.1794
-17.178
-17.176
-17.1735
-17.1705
-17.1672
-17.1636
-17.16
-17.1564
-17.153
-17.1499
-17.1472
-17.1451
-17.1437
-17.143
-17.5217
-17.5223
-17.5235
-17.5252
-17.5274
-17.5299
-17.5327
-17.5357
-17.5387
-17.5416