/*--------------------------------*- C++ -*----------------------------------*\
  =========                 |
  \\      /  F ield         | OpenFOAM: The Open Source CFD Toolbox
   \\    /   O peration     | Website:  https://openfoam.org
    \\  /    A nd           | Version:  9
     \\/     M anipulation  |
\*---------------------------------------------------------------------------*/
FoamFile
{
    format      ascii;
    class       volScalarField;
    location    "1";
    object      p_rgh;
}
// * * * * * * * * * * * * * * * * * * * * * * * * * * * * * * * * * * * * * //

dimensions      [1 -1 -2 0 0 0 0];

internalField   nonuniform List<scalar> 
4096
(
-3.2998
-3.29766
-3.29346
-3.28728
-3.27929
-3.26974
-3.25892
-3.24718
-3.23496
-3.22274
-3.21101
-3.20027
-3.19099
-3.18361
-3.17848
-3.17585
-3.17585
-3.17848
-3.1836
-3.19098
-3.20025
-3.211
-3.22272
-3.23494
-3.24716
-3.2589
-3.26972
-3.27927
-3.28725
-3.29343
-3.29763
-3.29976
-3.30227
-3.30006
-3.29569
-3.28927
-3.28098
-3.27107
-3.25984
-3.24767
-3.23499
-3.22231
-3.21015
-3.19901
-3.1894
-3.18176
-3.17645
-3.17372
-3.17372
-3.17644
-3.18175
-3.18939
-3.199
-3.21013
-3.22229
-3.23497
-3.24765
-3.25981
-3.27104
-3.28096
-3.28925
-3.29566
-3.30003
-3.30224
-3.30738
-3.305
-3.3003
-3.29339
-3.28448
-3.27382
-3.26175
-3.24868
-3.23507
-3.22146
-3.20841
-3.19647
-3.18617
-3.17798
-3.17229
-3.16937
-3.16937
-3.17228
-3.17797
-3.18616
-3.19646
-3.20839
-3.22144
-3.23505
-3.24866
-3.26172
-3.27379
-3.28445
-3.29336
-3.30027
-3.30496
-3.30735
-3.31535
-3.3127
-3.3075
-3.29984
-3.28996
-3.27815
-3.26478
-3.25032
-3.23527
-3.22021
-3.20578
-3.19259
-3.18122
-3.17218
-3.1659
-3.16269
-3.16268
-3.1659
-3.17217
-3.18121
-3.19258
-3.20577
-3.2202
-3.23525
-3.25029
-3.26476
-3.27812
-3.28993
-3.29981
-3.30746
-3.31267
-3.31532
-3.32655
-3.32354
-3.31763
-3.30894
-3.29772
-3.28432
-3.26915
-3.25274
-3.23568
-3.21862
-3.20227
-3.18733
-3.17445
-3.16423
-3.15713
-3.1535
-3.1535
-3.15713
-3.16422
-3.17444
-3.18732
-3.20226
-3.2186
-3.23566
-3.25272
-3.26913
-3.28429
-3.29769
-3.30891
-3.3176
-3.32351
-3.32651
-3.3415
-3.33803
-3.3312
-3.32116
-3.30819
-3.29271
-3.27518
-3.25622
-3.2365
-3.21679
-3.1979
-3.18063
-3.16577
-3.15397
-3.14578
-3.14159
-3.14159
-3.14577
-3.15396
-3.16576
-3.18062
-3.19788
-3.21677
-3.23648
-3.25619
-3.27515
-3.29268
-3.30816
-3.32112
-3.33116
-3.33799
-3.34146
-3.36092
-3.35687
-3.34888
-3.33714
-3.32198
-3.30385
-3.28333
-3.26111
-3.23799
-3.21488
-3.19272
-3.17248
-3.15504
-3.14121
-3.13162
-3.12671
-3.12671
-3.13161
-3.1412
-3.15503
-3.17246
-3.1927
-3.21486
-3.23797
-3.26108
-3.2833
-3.30382
-3.32195
-3.33711
-3.34885
-3.35683
-3.36088
-3.38577
-3.381
-3.3716
-3.35777
-3.3399
-3.31851
-3.29426
-3.26797
-3.24059
-3.21318
-3.1869
-3.16288
-3.1422
-3.1258
-3.11443
-3.10861
-3.10861
-3.11442
-3.12579
-3.14219
-3.16287
-3.18689
-3.21316
-3.24057
-3.26794
-3.29423
-3.31848
-3.33987
-3.35774
-3.37157
-3.38096
-3.38573
-3.4173
-3.41167
-3.40058
-3.38423
-3.36308
-3.33771
-3.3089
-3.2776
-3.24493
-3.21218
-3.18075
-3.152
-3.12725
-3.10762
-3.09402
-3.08707
-3.08707
-3.09402
-3.10761
-3.12724
-3.15199
-3.18073
-3.21216
-3.24491
-3.27757
-3.30887
-3.33768
-3.36304
-3.3842
-3.40054
-3.41164
-3.41726
-3.45715
-3.45052
-3.43742
-3.41809
-3.39303
-3.36289
-3.32856
-3.29115
-3.252
-3.21264
-3.1748
-3.14017
-3.11035
-3.08671
-3.07034
-3.06198
-3.06198
-3.07034
-3.08671
-3.11034
-3.14015
-3.17478
-3.21262
-3.25197
-3.29112
-3.32853
-3.36286
-3.39299
-3.41805
-3.43738
-3.45048
-3.45711
-3.50746
-3.49967
-3.48425
-3.46146
-3.43181
-3.39604
-3.35513
-3.31034
-3.26327
-3.21577
-3.17
-3.12807
-3.09197
-3.06338
-3.04357
-3.03346
-3.03346
-3.04357
-3.06337
-3.09196
-3.12806
-3.16998
-3.21575
-3.26324
-3.31031
-3.35509
-3.39601
-3.43178
-3.46142
-3.4842
-3.49962
-3.50741
-3.571
-3.5619
-3.54387
-3.51714
-3.48224
-3.43992
-3.39125
-3.33765
-3.28099
-3.22352
-3.16796
-3.11697
-3.07307
-3.03835
-3.01434
-3.00208
-3.00208
-3.01434
-3.03835
-3.07306
-3.11695
-3.16794
-3.22349
-3.28097
-3.33762
-3.39121
-3.43988
-3.4822
-3.51709
-3.54382
-3.56186
-3.57095
-3.65136
-3.64085
-3.61995
-3.58887
-3.5481
-3.49836
-3.44074
-3.37677
-3.3086
-3.2389
-3.17115
-3.10867
-3.05509
-3.01301
-2.98396
-2.9691
-2.9691
-2.98395
-3.013
-3.05507
-3.10865
-3.17112
-3.23887
-3.30857
-3.37674
-3.4407
-3.49832
-3.54806
-3.58883
-3.6199
-3.6408
-3.65131
-3.75314
-3.74117
-3.71731
-3.68165
-3.63459
-3.57672
-3.50907
-3.43317
-3.35131
-3.26641
-3.18315
-3.10629
-3.04114
-2.99043
-2.95484
-2.93632
-2.93632
-2.95484
-2.99042
-3.04113
-3.10628
-3.18312
-3.26638
-3.35128
-3.43314
-3.50903
-3.57668
-3.63454
-3.6816
-3.71726
-3.74112
-3.75309
-3.88221
-3.86888
-3.84218
-3.80207
-3.74871
-3.68247
-3.60411
-3.51496
-3.41696
-3.31362
-3.21178
-3.11834
-3.03888
-2.97664
-2.93109
-2.90748
-2.90748
-2.93108
-2.97663
-3.03887
-3.11832
-3.21176
-3.3136
-3.41693
-3.51492
-3.60407
-3.68242
-3.74866
-3.80202
-3.84212
-3.86882
-3.88215
-4.04592
-4.03153
-4.00256
-3.95878
-3.89993
-3.82589
-3.73713
-3.63471
-3.51963
-3.39499
-3.26911
-3.15032
-3.05234
-2.97833
-2.99499
-3.03454
-3.03453
-2.99497
-2.97832
-3.05232
-3.1503
-3.26909
-3.39496
-3.5196
-3.63468
-3.73709
-3.82585
-3.89988
-3.95873
-4.00251
-4.03147
-4.04586
-4.25323
-4.23845
-4.20854
-4.16297
-4.10084
-4.0212
-3.9242
-3.80889
-3.67001
-3.518
-3.51406
-4.78711
-7.00259
-9.16918
-10.8887
-11.5514
-11.5513
-10.8886
-9.16897
-7.00239
-4.78694
-3.51399
-3.51797
-3.66997
-3.80886
-3.92416
-4.02115
-4.10079
-4.16291
-4.20847
-4.23838
-4.25317
-4.51471
-4.50075
-4.47236
-4.42873
-4.36798
-4.28863
-4.1856
-4.04497
-3.88933
-5.83861
-11.4059
-15.7567
-17.654
-18.349
-18.3145
-18.3005
-18.3005
-18.3145
-18.3489
-17.6539
-15.7565
-11.4054
-5.83823
-3.88928
-4.04493
-4.18556
-4.28858
-4.36792
-4.42866
-4.47229
-4.50068
-4.51464
-4.84207
-4.83098
-4.80833
-4.77351
-4.72472
-4.65421
-4.5247
-4.38844
-9.12618
-17.0188
-18.6851
-18.6012
-18.5294
-18.4734
-18.4327
-18.4117
-18.4117
-18.4327
-18.4734
-18.5293
-18.6012
-18.685
-17.0184
-9.1254
-4.38836
-4.52465
-4.65416
-4.72465
-4.77343
-4.80826
-4.8309
-4.84199
-5.24708
-5.24203
-5.23185
-5.21905
-5.19968
-5.11354
-4.94653
-10.6689
-18.8504
-19.0571
-18.9657
-18.8527
-18.7467
-18.6616
-18.6005
-18.5701
-18.5701
-18.6005
-18.6615
-18.7467
-18.8527
-18.9656
-19.0571
-18.8502
-10.6679
-4.94644
-5.11347
-5.1996
-5.21897
-5.23176
-5.24193
-5.24699
-5.73949
-5.74517
-5.75851
-5.78892
-5.79989
-5.6463
-9.92145
-19.2572
-19.6067
-19.4946
-19.3468
-19.1833
-19.034
-18.9131
-18.8272
-18.7854
-18.7854
-18.8271
-18.9131
-19.0339
-19.1832
-19.3467
-19.4946
-19.6066
-19.2568
-9.9205
-5.64623
-5.79981
-5.78882
-5.7584
-5.74506
-5.73938
-6.3234
-6.34652
-6.40309
-6.49903
-6.53106
-8.08359
-18.332
-20.3161
-20.2977
-20.1478
-19.9348
-19.6863
-19.4614
-19.2814
-19.1546
-19.0941
-19.0941
-19.1545
-19.2813
-19.4613
-19.6862
-19.9347
-20.1477
-20.2976
-20.316
-18.3312
-8.08302
-6.53099
-6.49891
-6.40296
-6.34639
-6.32327
-6.99235
-7.03853
-7.15377
-7.31779
-7.37704
-14.1745
-21.079
-21.2191
-21.261
-21.1111
-20.7887
-20.4094
-20.0619
-19.79
-19.5988
-19.51
-19.51
-19.5988
-19.7899
-20.0619
-20.4093
-20.7887
-21.111
-21.261
-21.219
-21.0789
-14.1732
-7.37683
-7.31763
-7.15361
-7.03838
-6.99219
-7.72411
-7.79762
-7.98012
-8.23241
-9.37597
-19.5679
-22.0618
-22.267
-22.4655
-22.4636
-22.0756
-21.4586
-20.8829
-20.4742
-20.1862
-20.0546
-20.0546
-20.1861
-20.4741
-20.8828
-21.4586
-22.0756
-22.4635
-22.4653
-22.2669
-22.0616
-19.5669
-9.37533
-8.23221
-7.97992
-7.79743
-7.72392
-8.48347
-8.58611
-8.82875
-9.15566
-12.3683
-22.5669
-22.9704
-23.2762
-22.8699
-21.3576
-22.5823
-22.825
-21.8916
-21.2846
-20.886
-20.696
-20.696
-20.8859
-21.2845
-21.8915
-22.825
-22.581
-21.3567
-22.8694
-23.2759
-22.9702
-22.5662
-12.3672
-9.15545
-8.82851
-8.58587
-8.48323
-9.22655
-9.35369
-9.63287
-9.98095
-15.7348
-23.3762
-23.6642
-23.4203
-16.898
-12.6447
-15.2743
-22.3913
-22.8166
-22.0317
-21.5737
-21.335
-21.3349
-21.5736
-22.0315
-22.8164
-22.3897
-15.2719
-12.6438
-16.8979
-23.4202
-23.6639
-23.3759
-15.7332
-9.98067
-9.63258
-9.3534
-9.22626
-9.90535
-10.0478
-10.3466
-10.7789
-18.0301
-23.8786
-23.9589
-22.5293
-13.6739
-12.0338
-12.0556
-15.0873
-23.3818
-22.5828
-22.1305
-21.882
-21.8819
-22.1303
-22.5825
-23.3815
-15.0854
-12.0552
-12.0333
-13.6744
-22.5297
-23.9585
-23.8782
-18.0285
-10.7785
-10.3463
-10.0475
-9.90501
-10.48
-10.6273
-10.9418
-11.4954
-19.3193
-24.1161
-23.9668
-22.6003
-13.9441
-12.0841
-12.1019
-12.4505
-22.4459
-22.9285
-22.4969
-22.2756
-22.2755
-22.4966
-22.9282
-22.4448
-12.4499
-12.1014
-12.0836
-13.9447
-22.6007
-23.9665
-24.1157
-19.3177
-11.4948
-10.9414
-10.6269
-10.4796
-10.9225
-11.0652
-11.3881
-11.9111
-19.2914
-24.1671
-23.8512
-23.1852
-14.6013
-12.0834
-12.0798
-12.1383
-15.1088
-23.0767
-22.664
-22.4926
-22.4926
-22.6636
-23.0763
-15.1071
-12.1377
-12.0793
-12.0829
-14.602
-23.1852
-23.8508
-24.1667
-19.2897
-11.9104
-11.3876
-11.0648
-10.922
-11.2297
-11.3486
-11.6676
-12.0636
-18.5506
-24.0295
-23.6352
-23.1213
-13.9543
-12.0477
-12.031
-12.0111
-11.9709
-21.5146
-22.5781
-22.5419
-22.5421
-22.5772
-21.5143
-11.9702
-12.0105
-12.0304
-12.0471
-13.9542
-23.1212
-23.6348
-24.029
-18.5487
-12.0629
-11.6671
-11.3481
-11.2292
-11.3979
-11.5055
-11.7605
-12.0236
-16.8708
-23.2202
-23.2932
-20.3313
-12.5126
-11.9963
-11.9743
-11.9523
-11.9326
-15.4581
-22.3319
-22.4477
-22.4486
-22.3302
-15.4576
-11.9319
-11.9517
-11.9737
-11.9957
-12.5122
-20.3311
-23.2927
-23.2192
-16.8688
-12.0231
-11.76
-11.505
-11.3974
-11.4457
-11.5298
-11.7239
-11.9349
-14.845
-21.7398
-22.8118
-15.4659
-11.9704
-11.9325
-11.9106
-11.8952
-11.8816
-12.8004
-21.934
-22.2204
-22.2207
-21.9333
-12.7997
-11.8809
-11.8946
-11.91
-11.9319
-11.9698
-15.4656
-22.8112
-21.7386
-14.8434
-11.9343
-11.7233
-11.5293
-11.4452
-11.4053
-11.4634
-11.6027
-11.7583
-13.1578
-19.7918
-21.2155
-13.3703
-11.8698
-11.8507
-11.8395
-11.8371
-11.8338
-12.844
-21.4519
-21.9257
-21.9256
-21.4514
-12.8433
-11.8332
-11.8365
-11.839
-11.8501
-11.8692
-13.3698
-21.215
-19.7905
-13.1568
-11.7577
-11.6021
-11.4629
-11.4048
-11.3092
-11.3446
-11.4338
-11.5319
-11.7629
-18.4826
-18.1487
-12.4035
-11.7465
-11.7563
-11.7655
-11.7784
-11.784
-13.7728
-21.0175
-21.6022
-21.6021
-21.0169
-13.7721
-11.7834
-11.7779
-11.7649
-11.7557
-11.746
-12.4029
-18.148
-18.4819
-11.7622
-11.5314
-11.4332
-11.3441
-11.3087
-11.1868
-11.2036
-11.2513
-11.312
-11.3726
-17.1975
-16.1806
-11.8343
-11.6283
-11.6651
-11.6956
-11.7218
-11.7343
-14.0959
-20.614
-21.2578
-21.2579
-20.6132
-14.0952
-11.7337
-11.7213
-11.6951
-11.6645
-11.6278
-11.8338
-16.18
-17.1973
-11.372
-11.3114
-11.2508
-11.2031
-11.1863
-11.0605
-11.0612
-11.0763
-11.1266
-11.1707
-16.0722
-14.4046
-11.5233
-11.5338
-11.5893
-11.6358
-11.6711
-11.6898
-13.8368
-20.2027
-20.9067
-20.9067
-20.202
-13.8362
-11.6893
-11.6706
-11.6353
-11.5888
-11.5333
-11.5228
-14.4039
-16.0722
-11.1702
-11.1261
-11.0758
-11.0607
-11.06
-10.9444
-10.9274
-10.9071
-10.9413
-10.9661
-15.3551
-12.9374
-11.3889
-11.4585
-11.5317
-11.5908
-11.6325
-11.6573
-13.1134
-19.816
-20.5616
-20.5617
-19.8154
-13.1128
-11.6568
-11.632
-11.5904
-11.5313
-11.4581
-11.3885
-12.9368
-15.3548
-10.9656
-10.9409
-10.9067
-10.9269
-10.9439
-10.8409
-10.8067
-10.7508
-10.7329
-11.6662
-14.6628
-11.7153
-11.309
-11.4092
-11.4994
-11.5674
-11.6144
-11.6403
-12.8181
-19.4874
-20.2237
-20.224
-19.4865
-12.8174
-11.6399
-11.614
-11.567
-11.499
-11.4088
-11.3086
-11.7148
-14.6623
-11.6662
-10.7325
-10.7504
-10.8062
-10.8404
-10.7647
-10.7163
-10.65
-10.5735
-15.2125
-13.0602
-11.2058
-11.2982
-11.407
-11.503
-11.572
-11.6205
-11.6416
-12.7593
-19.2015
-19.8948
-19.8951
-19.2008
-12.7587
-11.6412
-11.6201
-11.5717
-11.5026
-11.4067
-11.2979
-11.2055
-13.0595
-15.212
-10.573
-10.6495
-10.7158
-10.7643
-10.7418
-10.6834
-10.6331
-10.4575
-15.2978
-11.6423
-11.2592
-11.3629
-11.4593
-11.5454
-11.6059
-11.6458
-11.6604
-12.9692
-19.0225
-19.5762
-19.5764
-19.0221
-12.9689
-11.6601
-11.6455
-11.6056
-11.5451
-11.459
-11.3626
-11.259
-11.6418
-15.2973
-10.4569
-10.6326
-10.683
-10.7414
-10.7915
-10.7131
-10.5857
-11.0547
-14.8663
-11.3937
-11.3935
-11.4797
-11.5601
-11.6249
-11.6674
-11.69
-11.6935
-13.3738
-18.864
-19.2651
-19.2649
-18.8641
-13.3737
-11.6933
-11.6897
-11.6671
-11.6246
-11.5598
-11.4795
-11.3933
-11.3936
-14.8661
-11.0552
-10.5852
-10.7128
-10.7912
-10.9693
-10.9191
-11.0263
-14.8311
-12.6953
-11.589
-11.597
-11.6534
-11.7041
-11.7347
-11.7473
-11.7447
-11.7333
-13.5783
-18.6515
-18.9562
-18.9559
-18.6518
-13.5782
-11.7331
-11.7445
-11.7471
-11.7345
-11.7039
-11.6533
-11.5968
-11.589
-12.6959
-14.8315
-11.0262
-10.9189
-10.9691
-11.3372
-11.327
-12.1933
-15.6222
-12.8303
-11.8848
-11.8659
-11.8818
-11.8806
-11.8607
-11.8303
-11.7951
-11.7674
-13.5848
-18.399
-18.6406
-18.6403
-18.3993
-13.5847
-11.7672
-11.7949
-11.8301
-11.8605
-11.8804
-11.8817
-11.8659
-11.8848
-12.8311
-15.6221
-12.1937
-11.327
-11.3371
-11.889
-12.0371
-15.1571
-16.2965
-13.7335
-12.2527
-12.1946
-12.1414
-12.0647
-11.9801
-11.8989
-11.831
-11.7855
-13.5345
-18.1216
-18.3081
-18.3079
-18.1216
-13.5343
-11.7853
-11.8308
-11.8987
-11.98
-12.0646
-12.1413
-12.1946
-12.2527
-13.7345
-16.2967
-15.1574
-12.0372
-11.889
-12.4968
-13.1487
-17.2031
-17.2523
-15.0397
-12.6643
-12.5443
-12.3835
-12.2175
-12.0627
-11.9327
-11.8356
-11.7756
-13.552
-17.8229
-17.9514
-17.9513
-17.8226
-13.5516
-11.7754
-11.8354
-11.9325
-12.0626
-12.2174
-12.3835
-12.5443
-12.6644
-15.0409
-17.2527
-17.2034
-13.1486
-12.4969
-12.9373
-13.703
-17.919
-17.9995
-15.287
-13.035
-12.8316
-12.5405
-12.2891
-12.0754
-11.9094
-11.7932
-11.7256
-13.6299
-17.4925
-17.5656
-17.5656
-17.492
-13.6293
-11.7254
-11.793
-11.9092
-12.0752
-12.2889
-12.5404
-12.8315
-13.035
-15.2878
-17.9997
-17.9187
-13.7024
-12.9373
-12.94
-13.3986
-16.5365
-17.7573
-14.4363
-13.1979
-12.8937
-12.546
-12.2398
-11.9956
-11.8169
-11.6971
-11.6303
-13.65
-17.1167
-17.1487
-17.1489
-17.1161
-13.6493
-11.63
-11.6969
-11.8167
-11.9954
-12.2396
-12.5459
-12.8936
-13.1978
-14.4363
-17.7563
-16.5338
-13.398
-12.9396
-12.4795
-12.7803
-13.4326
-14.3256
-13.4745
-13.0362
-12.7025
-12.358
-12.057
-11.8236
-11.6589
-11.551
-11.4928
-13.5915
-16.6973
-16.7036
-16.7038
-16.6967
-13.5907
-11.4925
-11.5508
-11.6587
-11.8234
-12.0568
-12.3578
-12.7023
-13.0359
-13.4741
-14.3242
-13.4314
-12.7797
-12.479
-11.8401
-12.1219
-12.5397
-12.7862
-12.7551
-12.5569
-12.2953
-12.0179
-11.7726
-11.5841
-11.453
-11.3681
-11.3236
-13.4837
-16.244
-16.2365
-16.2367
-16.2435
-13.483
-11.3234
-11.3678
-11.4527
-11.5839
-11.7724
-12.0177
-12.295
-12.5565
-12.7547
-12.7857
-12.5391
-12.1213
-11.8396
-11.2081
-11.4356
-11.7822
-12.0297
-12.0685
-11.9662
-11.7999
-11.6127
-11.444
-11.3139
-11.2237
-11.1664
-11.1374
-13.3492
-15.7699
-15.7565
-15.7566
-15.7695
-13.3485
-11.1372
-11.1661
-11.2235
-11.3136
-11.4437
-11.6124
-11.7996
-11.9658
-12.0681
-12.0292
-11.7817
-11.4351
-11.2076
-10.695
-10.8506
-11.0927
-11.3087
-11.4075
-11.3954
-11.318
-11.2173
-11.1224
-11.0474
-10.9962
-10.9647
-10.95
-13.1958
-15.2875
-15.2735
-15.2735
-15.2872
-13.1951
-10.9497
-10.9644
-10.9959
-11.0472
-11.1221
-11.2171
-11.3176
-11.3951
-11.4071
-11.3082
-11.0922
-10.8502
-10.6946
-10.3532
-10.4531
-10.6154
-10.7775
-10.8878
-10.9265
-10.9148
-10.8802
-10.8412
-10.8092
-10.7887
-10.7776
-10.7741
-13.0284
-14.8074
-14.7962
-14.7962
-14.8072
-13.0278
-10.7739
-10.7774
-10.7885
-10.809
-10.841
-10.8799
-10.9145
-10.9262
-10.8874
-10.7772
-10.6151
-10.4528
-10.3529
-10.1534
-10.218
-10.3271
-10.4442
-10.5378
-10.5923
-10.6146
-10.618
-10.6135
-10.6101
-10.6104
-10.6134
-10.6179
-12.8512
-14.3381
-14.3312
-14.3312
-14.338
-12.8507
-10.6177
-10.6131
-10.6102
-10.6098
-10.6133
-10.6177
-10.6144
-10.592
-10.5375
-10.4439
-10.3268
-10.2178
-10.1531
-10.0461
-10.0884
-10.1617
-10.2449
-10.3189
-10.3724
-10.406
-10.4258
-10.4381
-10.4511
-10.4635
-10.4753
-10.4857
-12.6686
-13.8855
-13.8821
-13.882
-13.8854
-12.6681
-10.4855
-10.4751
-10.4633
-10.4509
-10.4379
-10.4256
-10.4058
-10.3722
-10.3187
-10.2446
-10.1615
-10.0882
-10.0459
-9.99396
-10.0218
-10.0709
-10.1294
-10.1849
-10.23
-10.264
-10.2896
-10.3114
-10.3287
-10.3462
-10.3629
-10.3774
-12.4815
-13.4521
-13.4498
-13.4498
-13.452
-12.4811
-10.3773
-10.3627
-10.346
-10.3285
-10.3111
-10.2894
-10.2637
-10.2298
-10.1847
-10.1291
-10.0707
-10.0216
-9.99378
-9.97131
-9.98964
-10.0224
-10.0627
-10.1032
-10.1389
-10.1686
-10.1934
-10.2152
-10.2349
-10.2541
-10.2724
-10.2878
-12.2795
-13.0364
-13.0337
-13.0336
-13.0363
-12.2791
-10.2876
-10.2722
-10.2539
-10.2347
-10.215
-10.1932
-10.1684
-10.1387
-10.103
-10.0625
-10.0222
-9.98946
-9.97113
-9.96303
-9.97516
-9.99703
-10.0247
-10.0537
-10.0809
-10.105
-10.1265
-10.1461
-10.1644
-10.1826
-10.1995
-10.249
-12.0472
-12.6359
-12.6323
-12.6323
-12.6359
-12.0469
-10.2488
-10.1994
-10.1825
-10.1643
-10.1459
-10.1263
-10.1049
-10.0807
-10.0536
-10.0245
-9.99685
-9.97499
-9.96286
-9.9611
-9.96919
-9.98391
-10.003
-10.0236
-10.0438
-10.0627
-10.0802
-10.0966
-10.1114
-10.128
-10.142
-10.2191
-11.8041
-12.2488
-12.2441
-12.2441
-12.2487
-11.8039
-10.2189
-10.1418
-10.1279
-10.1112
-10.0965
-10.08
-10.0625
-10.0436
-10.0234
-10.0028
-9.98375
-9.96903
-9.96094
-9.96152
-9.96698
-9.97699
-9.99018
-10.0049
-10.0198
-10.0343
-10.0484
-10.0624
-10.0769
-10.0878
-10.0979
-10.1954
-11.5542
-11.8733
-11.8671
-11.8671
-11.8733
-11.554
-10.1952
-10.0978
-10.0877
-10.0768
-10.0622
-10.0482
-10.0341
-10.0196
-10.0047
-9.99002
-9.97683
-9.96682
-9.96136
-9.9624
-9.96614
-9.97306
-9.98232
-9.99286
-10.0039
-10.015
-10.0261
-10.0372
-10.0479
-10.0569
-10.0642
-10.1732
-11.295
-11.5075
-11.4995
-11.4995
-11.5074
-11.2948
-10.173
-10.0641
-10.0567
-10.0478
-10.037
-10.026
-10.0148
-10.0037
-9.99271
-9.98216
-9.97291
-9.96599
-9.96225
-9.96296
-9.96558
-9.97046
-9.97708
-9.98478
-9.99303
-10.0016
-10.0103
-10.0189
-10.0271
-10.0337
-10.0386
-10.1484
-11.025
-11.1495
-11.1394
-11.1394
-11.1494
-11.0249
-10.1483
-10.0385
-10.0335
-10.0269
-10.0188
-10.0101
-10.0014
-9.99289
-9.98463
-9.97694
-9.97031
-9.96544
-9.96282
-9.96294
-9.96482
-9.96835
-9.9732
-9.97896
-9.98527
-9.99193
-9.99878
-10.0056
-10.0117
-10.0163
-10.0193
-10.117
-10.7421
-10.7973
-10.7851
-10.7851
-10.7973
-10.742
-10.1169
-10.0192
-10.0161
-10.0116
-10.0054
-9.99865
-9.99179
-9.98513
-9.97882
-9.97306
-9.96821
-9.96468
-9.9628
-9.96229
-9.96368
-9.96631
-9.96998
-9.9744
-9.97936
-9.98468
-9.99017
-9.99554
-10.0001
-10.0031
-10.0047
-10.0736
-10.4452
-10.4493
-10.4348
-10.4347
-10.4493
-10.4451
-10.0734
-10.0046
-10.003
-10
-9.99541
-9.99005
-9.98455
-9.97923
-9.97427
-9.96984
-9.96617
-9.96354
-9.96215
-9.96107
-9.96213
-9.96416
-9.96701
-9.97052
-9.97451
-9.97885
-9.98336
-9.98771
-9.99122
-9.9931
-9.99371
-10.0118
-10.1343
-10.104
-10.0872
-10.0871
-10.104
-10.1342
-10.0117
-9.9936
-9.99299
-9.99111
-9.98759
-9.98324
-9.97873
-9.97439
-9.97039
-9.96689
-9.96403
-9.962
-9.96094
-9.95937
-9.96021
-9.96182
-9.96412
-9.96698
-9.97029
-9.97392
-9.97771
-9.98131
-9.98408
-9.98525
-9.98527
-9.9244
-9.81037
-9.7602
-9.74112
-9.7411
-9.76015
-9.81029
-9.9243
-9.98517
-9.98514
-9.98397
-9.9812
-9.97759
-9.9738
-9.97017
-9.96686
-9.964
-9.9617
-9.96008
-9.95925
-9.95727
-9.95796
-9.95929
-9.96122
-9.96364
-9.96647
-9.9696
-9.97283
-9.97583
-9.97804
-9.97884
-9.97854
-9.80157
-9.47553
-9.41702
-9.39579
-9.39578
-9.41698
-9.47546
-9.80149
-9.97844
-9.97873
-9.97793
-9.97571
-9.97272
-9.96949
-9.96635
-9.96352
-9.9611
-9.95917
-9.95784
-9.95715
-9.95484
-9.95543
-9.95658
-9.95826
-9.96039
-9.96289
-9.96562
-9.96836
-9.97086
-9.97267
-9.97334
-9.97284
-9.63204
-9.13308
-9.07392
-9.05056
-9.05054
-9.07388
-9.13301
-9.63198
-9.97274
-9.97324
-9.97257
-9.97075
-9.96825
-9.96551
-9.96278
-9.96028
-9.95814
-9.95646
-9.95531
-9.95472
-9.95213
-9.95266
-9.9537
-9.95523
-9.95716
-9.9594
-9.96179
-9.96413
-9.96618
-9.96767
-9.96843
-9.96807
-9.40545
-8.78694
-8.73038
-8.70488
-8.70487
-8.73034
-8.78687
-9.40541
-9.96798
-9.96833
-9.96757
-9.96607
-9.96402
-9.96168
-9.95929
-9.95705
-9.95512
-9.95359
-9.95254
-9.95201
-9.94921
-9.94971
-9.95068
-9.95211
-9.95389
-9.95592
-9.95804
-9.96003
-9.96165
-9.96281
-9.96394
-9.96482
-9.11135
-8.4413
-8.38558
-8.35803
-8.35802
-8.38554
-8.44124
-9.11133
-9.96473
-9.96385
-9.96271
-9.96155
-9.95993
-9.95794
-9.95581
-9.95378
-9.952
-9.95057
-9.94959
-9.9491
-9.94611
-9.94659
-9.94752
-9.94887
-9.95055
-9.95244
-9.95436
-9.95603
-9.95717
-9.95775
-9.95904
-9.9613
-8.74269
-8.09878
-8.03822
-8.00893
-8.00892
-8.03818
-8.09872
-8.74268
-9.96121
-9.95895
-9.95766
-9.95707
-9.95593
-9.95426
-9.95234
-9.95045
-9.94876
-9.94741
-9.94648
-9.946
-9.94284
-9.94331
-9.94421
-9.94553
-9.94716
-9.94896
-9.95073
-9.95213
-9.95271
-9.95212
-9.951
-9.93809
-8.30295
-7.75276
-7.68703
-7.65694
-7.65693
-7.687
-7.7527
-8.30294
-9.93804
-9.95091
-9.95202
-9.95261
-9.95203
-9.95063
-9.94886
-9.94705
-9.94542
-9.94411
-9.9432
-9.94274
-9.93943
-9.93989
-9.9408
-9.9421
-9.94371
-9.94548
-9.94718
-9.94843
-9.94862
-9.94696
-9.94362
-9.69692
-7.83429
-7.40176
-7.33313
-7.30296
-7.30295
-7.3331
-7.40171
-7.83427
-9.6969
-9.94353
-9.94687
-9.94853
-9.94834
-9.94709
-9.94538
-9.94361
-9.942
-9.9407
-9.93979
-9.93933
-9.93592
-9.93638
-9.9373
-9.9386
-9.94022
-9.94198
-9.94367
-9.9449
-9.94507
-9.94326
-9.93914
-9.33614
-7.33846
-7.04724
-6.97899
-6.94922
-6.94921
-6.97897
-7.04719
-7.33843
-9.33615
-9.93905
-9.94317
-9.94498
-9.94481
-9.94357
-9.94189
-9.94012
-9.93851
-9.9372
-9.93629
-9.93582
-9.93234
-9.93282
-9.93374
-9.93507
-9.93669
-9.93844
-9.9401
-9.94132
-9.9416
-9.94043
-9.93669
-8.75873
-6.85935
-6.69271
-6.62773
-6.59872
-6.59871
-6.6277
-6.69267
-6.85931
-8.75877
-9.93661
-9.94034
-9.94151
-9.94122
-9.94001
-9.93835
-9.93659
-9.93497
-9.93365
-9.93272
-9.93225
-9.92875
-9.92924
-9.93019
-9.93153
-9.93315
-9.93489
-9.93647
-9.93752
-9.93763
-9.93673
-9.93297
-7.9697
-6.44819
-6.34295
-6.28238
-6.25462
-6.25461
-6.28235
-6.3429
-6.44814
-7.96976
-9.93289
-9.93665
-9.93755
-9.93743
-9.93638
-9.93479
-9.93306
-9.93143
-9.93009
-9.92915
-9.92866
-9.9252
-9.9257
-9.92668
-9.92804
-9.92968
-9.93139
-9.93286
-9.93365
-9.93312
-9.92984
-9.91274
-7.02874
-6.09799
-5.99958
-5.94558
-5.92027
-5.92026
-5.94555
-5.99954
-6.09793
-7.02879
-9.91266
-9.92976
-9.93303
-9.93356
-9.93277
-9.9313
-9.92959
-9.92795
-9.92658
-9.92561
-9.92511
-9.92174
-9.92226
-9.92327
-9.92469
-9.92637
-9.9281
-9.92954
-9.93025
-9.92967
-9.92638
-9.03851
-6.14205
-5.75145
-5.66644
-5.62108
-5.59955
-5.59954
-5.62106
-5.6664
-5.7514
-6.14204
-9.03861
-9.9263
-9.92959
-9.93016
-9.92946
-9.92801
-9.92628
-9.9246
-9.92318
-9.92217
-9.92165
-9.91844
-9.91899
-9.92004
-9.92151
-9.92324
-9.925
-9.92639
-9.92685
-9.92555
-9.92174
-7.59331
-5.52971
-5.41517
-5.35001
-5.31438
-5.29743
-5.29742
-5.31436
-5.34998
-5.41512
-5.52967
-7.59342
-9.92166
-9.92547
-9.92676
-9.92631
-9.92491
-9.92315
-9.92142
-9.91995
-9.9189
-9.91835
-9.91537
-9.91595
-9.91706
-9.91859
-9.92035
-9.9221
-9.92328
-9.92274
-9.91724
-9.54449
-5.9645
-5.1765
-5.10125
-5.05617
-5.03087
-5.01887
-5.01886
-5.03085
-5.05614
-5.10121
-5.17645
-5.96454
-9.54454
-9.91716
-9.92266
-9.9232
-9.92202
-9.92027
-9.9185
-9.91697
-9.91586
-9.91528
-9.91263
-9.91325
-9.91442
-9.91601
-9.91782
-9.91962
-9.92085
-9.92019
-9.91509
-7.37544
-4.9416
-4.86098
-4.81551
-4.78969
-4.77466
-4.76755
-4.76755
-4.77464
-4.78966
-4.81547
-4.86093
-4.94156
-7.3756
-9.91501
-9.9201
-9.92077
-9.91954
-9.91774
-9.91593
-9.91433
-9.91316
-9.91255
-9.91035
-9.91099
-9.91224
-9.91393
-9.91573
-9.91752
-9.91896
-9.91856
-8.7385
-5.04958
-4.61583
-4.58457
-4.56497
-4.5545
-4.54848
-4.54569
-4.54569
-4.54847
-4.55447
-4.56493
-4.58452
-4.61577
-5.04962
-8.73863
-9.91848
-9.91888
-9.91743
-9.91565
-9.91385
-9.91215
-9.91091
-9.91026
-9.90869
-9.90936
-9.91073
-9.9127
-9.91438
-9.91598
-9.9179
-9.1306
-5.13764
-4.35305
-4.35262
-4.34963
-4.35029
-4.35181
-4.35309
-4.35377
-4.35377
-4.35308
-4.35179
-4.35025
-4.34958
-4.35256
-4.35298
-5.13775
-9.13071
-9.91782
-9.91589
-9.9143
-9.91262
-9.91065
-9.90928
-9.9086
-9.90802
-9.90865
-9.91022
-9.91324
-9.91432
-9.91571
-8.71295
-4.6953
-4.07965
-4.11838
-4.13981
-4.15731
-4.17106
-4.18104
-4.18756
-4.19075
-4.19074
-4.18754
-4.18102
-4.17103
-4.15726
-4.13975
-4.11832
-4.07957
-4.69541
-8.71313
-9.91563
-9.91424
-9.91316
-9.91013
-9.90857
-9.90794
-9.9086
-9.90911
-9.91004
-9.86201
-9.09119
-6.75304
-4.07712
-3.82496
-3.89204
-3.93929
-3.9754
-4.00344
-4.0246
-4.03978
-4.04959
-4.05439
-4.05438
-4.04957
-4.03975
-4.02456
-4.0034
-3.97535
-3.93922
-3.89197
-3.82488
-4.07715
-6.7533
-9.09131
-9.862
-9.90995
-9.90903
-9.90851
-7.83831
-7.58062
-6.85838
-5.54378
-4.23521
-3.57045
-3.61351
-3.692
-3.75703
-3.80898
-3.85009
-3.88228
-3.90684
-3.92458
-3.93609
-3.94174
-3.94173
-3.93607
-3.92456
-3.9068
-3.88224
-3.85004
-3.80892
-3.75697
-3.69193
-3.61343
-3.57039
-4.23529
-5.54397
-6.85862
-7.58082
-7.83849
-3.45177
-3.40053
-3.32719
-3.34115
-3.40146
-3.46876
-3.53972
-3.60634
-3.66514
-3.71473
-3.75539
-3.78797
-3.81318
-3.83159
-3.84361
-3.84953
-3.84953
-3.8436
-3.83156
-3.81315
-3.78793
-3.75535
-3.71468
-3.66508
-3.60628
-3.53965
-3.46868
-3.40137
-3.34106
-3.32713
-3.4005
-3.45176
-3.25423
-3.26806
-3.29489
-3.33333
-3.38233
-3.43821
-3.4958
-3.55131
-3.60215
-3.64665
-3.68425
-3.71502
-3.73918
-3.75702
-3.76875
-3.77456
-3.77456
-3.76874
-3.757
-3.73916
-3.71498
-3.68421
-3.6466
-3.60209
-3.55125
-3.49573
-3.43813
-3.38225
-3.33325
-3.29481
-3.26797
-3.25415
-3.27494
-3.28603
-3.30775
-3.3391
-3.37844
-3.42285
-3.46939
-3.51537
-3.55859
-3.59735
-3.63084
-3.65871
-3.68091
-3.69745
-3.70841
-3.71386
-3.71386
-3.7084
-3.69743
-3.68088
-3.65868
-3.6308
-3.5973
-3.55853
-3.51531
-3.46933
-3.42279
-3.37837
-3.33902
-3.30767
-3.28595
-3.27486
-3.29739
-3.30638
-3.32393
-3.34913
-3.38055
-3.41626
-3.45419
-3.49225
-3.52841
-3.56152
-3.59064
-3.61523
-3.63504
-3.64993
-3.65986
-3.66482
-3.66481
-3.65985
-3.64991
-3.63501
-3.6152
-3.5906
-3.56148
-3.52836
-3.4922
-3.45413
-3.41619
-3.38048
-3.34906
-3.32386
-3.30631
-3.29732
-3.31922
-3.32645
-3.34055
-3.3608
-3.38608
-3.41497
-3.44586
-3.47715
-3.50733
-3.53531
-3.56025
-3.58156
-3.59889
-3.61202
-3.62082
-3.62523
-3.62523
-3.62081
-3.612
-3.59887
-3.58153
-3.56021
-3.53527
-3.50728
-3.4771
-3.44581
-3.41491
-3.38602
-3.36074
-3.34049
-3.32639
-3.31915
-3.33928
-3.34511
-3.35646
-3.37278
-3.39318
-3.41658
-3.44176
-3.46747
-3.49252
-3.516
-3.53714
-3.55539
-3.57034
-3.58173
-3.58941
-3.59327
-3.59326
-3.5894
-3.58172
-3.57032
-3.55536
-3.53711
-3.51597
-3.49248
-3.46743
-3.44171
-3.41653
-3.39313
-3.37272
-3.3564
-3.34505
-3.33922
-3.35714
-3.36184
-3.371
-3.38417
-3.40068
-3.41967
-3.44021
-3.46132
-3.48207
-3.50167
-3.51947
-3.53494
-3.54771
-3.55749
-3.5641
-3.56743
-3.56743
-3.56409
-3.55747
-3.54769
-3.53492
-3.51944
-3.50164
-3.48203
-3.46128
-3.44016
-3.41962
-3.40063
-3.38412
-3.37094
-3.36178
-3.35708
-3.3727
-3.37649
-3.3839
-3.39455
-3.40793
-3.42338
-3.44015
-3.45749
-3.47463
-3.49094
-3.50585
-3.51889
-3.5297
-3.53803
-3.54367
-3.54652
-3.54652
-3.54367
-3.53802
-3.52969
-3.51887
-3.50582
-3.49091
-3.4746
-3.45745
-3.44011
-3.42334
-3.40789
-3.39451
-3.38385
-3.37644
-3.37264
-3.38605
-3.38912
-3.39512
-3.40376
-3.41463
-3.42721
-3.44092
-3.45516
-3.46931
-3.48285
-3.49528
-3.50622
-3.51533
-3.52237
-3.52715
-3.52957
-3.52957
-3.52714
-3.52236
-3.51531
-3.5062
-3.49526
-3.48282
-3.46928
-3.45512
-3.44088
-3.42717
-3.41459
-3.40372
-3.39508
-3.38908
-3.386
-3.3974
-3.39989
-3.40476
-3.41178
-3.42062
-3.43089
-3.4421
-3.4538
-3.46547
-3.47668
-3.48703
-3.49617
-3.50381
-3.50973
-3.51376
-3.5158
-3.5158
-3.51375
-3.50972
-3.5038
-3.49615
-3.48701
-3.47666
-3.46544
-3.45376
-3.44207
-3.43085
-3.42059
-3.41174
-3.40472
-3.39985
-3.39736
-3.40697
-3.409
-3.41296
-3.41867
-3.42588
-3.43426
-3.44345
-3.45305
-3.46268
-3.47196
-3.48055
-3.48816
-3.49454
-3.4995
-3.50289
-3.5046
-3.5046
-3.50288
-3.49949
-3.49453
-3.48814
-3.48053
-3.47193
-3.46265
-3.45303
-3.44342
-3.43423
-3.42585
-3.41864
-3.41292
-3.40896
-3.40693
-3.415
-3.41666
-3.41988
-3.42454
-3.43042
-3.43728
-3.44481
-3.4527
-3.46063
-3.4683
-3.47542
-3.48175
-3.48707
-3.49121
-3.49404
-3.49547
-3.49547
-3.49403
-3.4912
-3.48706
-3.48173
-3.4754
-3.46828
-3.46061
-3.45267
-3.44478
-3.43725
-3.43039
-3.42451
-3.41985
-3.41662
-3.41497
-3.42172
-3.42306
-3.42569
-3.4295
-3.43431
-3.43992
-3.44609
-3.45258
-3.45911
-3.46545
-3.47135
-3.4766
-3.48102
-3.48446
-3.48682
-3.48802
-3.48802
-3.48682
-3.48446
-3.48101
-3.47658
-3.47133
-3.46543
-3.45909
-3.45256
-3.44607
-3.43989
-3.43428
-3.42947
-3.42566
-3.42303
-3.42169
-3.42731
-3.42841
-3.43056
-3.43367
-3.4376
-3.4422
-3.44727
-3.4526
-3.45798
-3.46321
-3.46809
-3.47244
-3.47611
-3.47897
-3.48094
-3.48193
-3.48193
-3.48093
-3.47897
-3.4761
-3.47243
-3.46807
-3.46319
-3.45796
-3.45258
-3.44724
-3.44217
-3.43758
-3.43364
-3.43053
-3.42838
-3.42728
-3.43196
-3.43285
-3.43461
-3.43716
-3.44038
-3.44415
-3.44831
-3.4527
-3.45713
-3.46144
-3.46547
-3.46907
-3.47212
-3.47449
-3.47612
-3.47695
-3.47695
-3.47612
-3.47449
-3.47211
-3.46906
-3.46546
-3.46143
-3.45711
-3.45268
-3.44829
-3.44413
-3.44036
-3.43713
-3.43459
-3.43283
-3.43193
-3.43581
-3.43655
-3.43798
-3.44007
-3.44271
-3.44581
-3.44922
-3.45283
-3.45648
-3.46004
-3.46337
-3.46635
-3.46886
-3.47083
-3.47218
-3.47287
-3.47287
-3.47218
-3.47083
-3.46886
-3.46634
-3.46336
-3.46003
-3.45647
-3.45281
-3.4492
-3.44579
-3.44269
-3.44005
-3.43796
-3.43652
-3.43579
-3.439
-3.43961
-3.44078
-3.44249
-3.44466
-3.4472
-3.45001
-3.45298
-3.45598
-3.45892
-3.46167
-3.46413
-3.46621
-3.46784
-3.46896
-3.46953
-3.46953
-3.46895
-3.46783
-3.4662
-3.46412
-3.46165
-3.45891
-3.45597
-3.45296
-3.44999
-3.44718
-3.44464
-3.44247
-3.44076
-3.43958
-3.43898
-3.44164
-3.44214
-3.44311
-3.44451
-3.44629
-3.44837
-3.45068
-3.45312
-3.4556
-3.45802
-3.46029
-3.46232
-3.46404
-3.46539
-3.46631
-3.46678
-3.46678
-3.46631
-3.46538
-3.46403
-3.46231
-3.46028
-3.45801
-3.45559
-3.45311
-3.45067
-3.44836
-3.44627
-3.44449
-3.44309
-3.44212
-3.44162
-3.44383
-3.44423
-3.44503
-3.44618
-3.44764