/*--------------------------------*- C++ -*----------------------------------*\
  =========                 |
  \\      /  F ield         | OpenFOAM: The Open Source CFD Toolbox
   \\    /   O peration     | Website:  https://openfoam.org
    \\  /    A nd           | Version:  9
     \\/     M anipulation  |
\*---------------------------------------------------------------------------*/
FoamFile
{
    format      ascii;
    class       surfaceScalarField;
    location    "1";
    object      phi;
}
// * * * * * * * * * * * * * * * * * * * * * * * * * * * * * * * * * * * * * //

dimensions      [0 3 -1 0 0 0 0];

internalField   nonuniform List<scalar> 
8032
(
-0.000107858
0.000107858
-0.000212041
0.000104213
-0.000308513
9.64712e-05
-0.0003935
8.49873e-05
-0.000463703
7.02024e-05
-0.000516361
5.26577e-05
-0.000549346
3.29854e-05
-0.000561249
1.19029e-05
-0.00055164
-9.60915e-06
-0.000520703
-3.09368e-05
-0.000469476
-5.12271e-05
-0.000399872
-6.96038e-05
-0.00031456
-8.5312e-05
-0.000216856
-9.77035e-05
-0.000110593
-0.000106263
3.84567e-08
-0.000110632
0.00011067
-0.000110631
0.000216931
-0.000106261
0.000314633
-9.77016e-05
0.000399942
-8.53093e-05
0.000469543
-6.96004e-05
0.000520766
-5.12231e-05
0.000551698
-3.09322e-05
0.000561303
-9.60422e-06
0.000549395
1.19082e-05
0.000516404
3.2991e-05
0.00046374
5.26633e-05
0.000393533
7.02079e-05
0.000308541
8.4992e-05
0.000212067
9.64737e-05
0.00010786
0.000104208
0.00010786
-0.000112281
0.000220138
-0.000220778
0.00021271
-0.000321253
0.000196945
-0.000409799
0.000173533
-0.000482982
0.000143386
-0.000537928
0.000107604
-0.000572423
6.748e-05
-0.000585004
2.4484e-05
-0.000575019
-1.9594e-05
-0.000542817
-6.31386e-05
-0.000489485
-0.000104559
-0.000416974
-0.000142115
-0.000328052
-0.000174234
-0.000226178
-0.000199578
-0.000115354
-0.000217086
3.88398e-08
-0.000226025
0.000115431
-0.000226024
0.000226254
-0.000217084
0.000328126
-0.000199574
0.000417046
-0.000174229
0.000489553
-0.000142108
0.000542881
-0.000104551
0.000575078
-6.31295e-05
0.000585058
-1.9584e-05
0.000572472
2.44948e-05
0.000537971
6.74913e-05
0.00048302
0.000107615
0.00040983
0.000143397
0.000321278
0.000173544
0.000220797
0.000196955
0.000112287
0.000212717
0.000220147
-0.000120598
0.000340736
-0.000237157
0.000329269
-0.00034514
0.000304928
-0.000440371
0.000268765
-0.000519163
0.000222178
-0.000578416
0.000166856
-0.000615729
0.000104793
-0.000629508
3.82631e-05
-0.000619
-3.01018e-05
-0.000584489
-9.76498e-05
-0.00052719
-0.000161857
-0.000449197
-0.000220108
-0.000353472
-0.000269959
-0.000243739
-0.000309311
-0.000124323
-0.000336503
3.95735e-08
-0.000350387
0.000124401
-0.000350386
0.000243817
-0.000336499
0.000353548
-0.000309305
0.000449269
-0.00026995
0.000527259
-0.000220098
0.000584553
-0.000161845
0.00061906
-9.76359e-05
0.000629562
-3.00865e-05
0.000615778
3.82797e-05
0.000578459
0.00010481
0.0005192
0.000166874
0.000440402
0.000222196
0.000345163
0.000268783
0.000237173
0.000304945
0.000120606
0.000329285
0.000340752
-0.000133207
0.000473942
-0.000261991
0.000458053
-0.000381381
0.000424317
-0.000486789
0.000374173
-0.000574141
0.00030953
-0.000639991
0.000232706
-0.000681644
0.000146446
-0.000697283
5.39022e-05
-0.000686034
-4.1351e-05
-0.000648103
-0.000135581
-0.000584805
-0.000225155
-0.000498459
-0.000306454
-0.000392346
-0.000376071
-0.000270602
-0.000431055
-0.000138043
-0.000469062
4.07094e-08
-0.00048847
0.000138124
-0.000488469
0.000270681
-0.000469056
0.000392424
-0.000431047
0.000498533
-0.00037606
0.000584876
-0.00030644
0.000648169
-0.000225138
0.000686095
-0.000135562
0.000697339
-4.13301e-05
0.000681694
5.39247e-05
0.000640035
0.000146469
0.000574178
0.000232731
0.000486819
0.000309556
0.000381404
0.000374198
0.000262007
0.000424342
0.000133214
0.000458077
0.000473967
-0.000150578
0.00062452
-0.000296219
0.000603694
-0.000431361
0.000559459
-0.000550853
0.000493665
-0.000650092
0.000408769
-0.000725144
0.000307758
-0.000772896
0.000194197
-0.000791205
7.22117e-05
-0.000779006
-5.35501e-05
-0.000736421
-0.000178166
-0.00066487
-0.000296706
-0.000566962
-0.000404362
-0.000446426
-0.000496607
-0.000307981
-0.0005695
-0.000157138
-0.000619905
4.22931e-08
-0.00064565
0.000157222
-0.000645648
0.000308064
-0.000619898
0.000446507
-0.000569489
0.000567039
-0.000496592
0.000664943
-0.000404343
0.000736489
-0.000296685
0.000779069
-0.000178142
0.000791262
-5.35232e-05
0.000772946
7.22406e-05
0.000725188
0.000194227
0.000650129
0.00030779
0.000550883
0.000408802
0.000431383
0.000493698
0.000296234
0.000559491
0.000150585
0.000603727
0.000624552
-0.0001733
0.000797819
-0.00034101
0.000771405
-0.000496815
0.000715264
-0.000634839
0.000631689
-0.000749781
0.000523712
-0.00083706
0.000395038
-0.000892991
0.000250127
-0.000914982
9.4203e-05
-0.000901677
-6.68552e-05
-0.000853076
-0.000226767
-0.000770724
-0.000379058
-0.000657598
-0.000517488
-0.000518017
-0.000636188
-0.00035748
-0.000730037
-0.000182428
-0.000794957
4.43651e-08
-0.000828122
0.000182516
-0.000828119
0.000357566
-0.000794949
0.000518101
-0.000730024
0.000657679
-0.00063617
0.000770801
-0.000517465
0.000853147
-0.000379031
0.000901742
-0.000226737
0.000915041
-6.6822e-05
0.000893043
9.42385e-05
0.000837106
0.000250165
0.000749819
0.000395077
0.000634869
0.000523752
0.000496838
0.000631729
0.000341026
0.000715304
0.000173307
0.000771445
0.000797859
-0.000202101
0.00099992
-0.000397818
0.000967122
-0.000579911
0.000897356
-0.000741599
0.000793377
-0.000876701
0.000658814
-0.000979793
0.000498129
-0.00104642
0.000316758
-0.00107339
0.000121175
-0.00105892
-8.13309e-05
-0.0010028
-0.000282882
-0.000906738
-0.000475124
-0.000774155
-0.000650071
-0.000610135
-0.000800207
-0.000421194
-0.000918978
-0.000214987
-0.00100116
4.69723e-08
-0.00104316
0.000215081
-0.00104315
0.000421286
-0.00100115
0.000610224
-0.000918962
0.000774239
-0.000800185
0.000906818
-0.000650043
0.00100288
-0.000475092
0.00105899
-0.000282846
0.00107346
-8.12908e-05
0.00104648
0.000121217
0.000979839
0.000316803
0.00087674
0.000498176
0.00074163
0.000658862
0.000579934
0.000793425
0.000397833
0.000897405
0.000202108
0.00096717
0.000999968
-0.000237858
0.00123778
-0.000468401
0.00119766
-0.000683286
0.00111224
-0.000874639
0.000984729
-0.00103518
0.000819357
-0.00115841
0.000621357
-0.00123887
0.000397214
-0.00127252
0.000154831
-0.00125696
-9.68876e-05
-0.00119169
-0.000348156
-0.00107854
-0.000588271
-0.000921521
-0.000807093
-0.000726675
-0.000995053
-0.00050183
-0.00114382
-0.000256202
-0.00124679
5.0172e-08
-0.00129941
0.000256302
-0.0012994
0.000501928
-0.00124678
0.00072677
-0.0011438
0.000921611
-0.000995027
0.00107863
-0.00080706
0.00119177
-0.000588233
0.00125704
-0.000348113
0.00127259
-9.68399e-05
0.00123892
0.000154881
0.00115846
0.000397267
0.00103522
0.000621412
0.00087467
0.000819413
0.00068331
0.000984786
0.000468416
0.0011123
0.000237866
0.00119772
0.00123783
-0.000281603
0.00151938
-0.000554836
0.0014709
-0.000810085
0.00136749
-0.00103818
0.00121282
-0.00123049
0.00101167
-0.00137915
0.000770019
-0.00147739
0.000495452
-0.00152
0.000197443
-0.00150371
-0.000113182
-0.00142749
-0.000424374
-0.00129334
-0.000722422
-0.00110595
-0.00099448
-0.000872616
-0.00122839
-0.000602841
-0.0014136
-0.000307838
-0.0015418
5.40358e-08
-0.0016073
0.000307945
-0.0016073
0.000602946
-0.00154178
0.000872717
-0.00141357
0.00110605
-0.00122836
0.00129343
-0.000994441
0.00142757
-0.000722376
0.00150378
-0.000424323
0.00152007
-0.000113126
0.00147745
0.000197502
0.0013792
0.000495514
0.00123053
0.000770082
0.00103821
0.00101173
0.000810109
0.00121289
0.000554852
0.00136755
0.000281611
0.00147096
0.00151944
-0.000334513
0.00185389
-0.00065951
0.0017959
-0.000963955
0.00167194
-0.00123718
0.00148604
-0.00146893
0.00124342
-0.0016496
0.000950695
-0.00177069
0.000616538
-0.00182536
0.000252111
-0.00180908
-0.000129458
-0.00172002
-0.000513441
-0.00156026
-0.000882174
-0.00133539
-0.00121935
-0.00105428
-0.0015095
-0.000728613
-0.00173926
-0.000372141
-0.00189827
5.86493e-08
-0.0019795
0.000372258
-0.00197949
0.000728727
-0.00189825
0.00105439
-0.00173924
0.00133549
-0.00150946
0.00156036
-0.00121931
0.0017201
-0.00088212
0.00180916
-0.00051338
0.00182543
-0.000129392
0.00177075
0.00025218
0.00164965
0.000616609
0.00146897
0.000950768
0.00123721
0.0012435
0.000963979
0.00148612
0.000659526
0.00167201
0.000334521
0.00179597
0.00185397
-0.000397887
0.00225178
-0.000785083
0.00218309
-0.00114902
0.00203587
-0.00147735
0.00181437
-0.00175789
0.00152397
-0.00197886
0.00117167
-0.0021294
0.000767075
-0.00220042
0.000323131
-0.00218558
-0.000144297
-0.00208169
-0.000617328
-0.00189092
-0.00107294
-0.00161995
-0.00149033
-0.00127975
-0.00184969
-0.000884792
-0.00213422
-0.000452017
-0.00233104
6.41513e-08
-0.00243158
0.000452144
-0.00243157
0.000884916
-0.00233102
0.00127987
-0.00213419
0.00162006
-0.00184965
0.00189103
-0.00149027
0.00208179
-0.00107288
0.00218566
-0.000617257
0.00220049
-0.00014422
0.00212946
0.000323211
0.00197891
0.000767157
0.00175793
0.00117175
0.00147738
0.00152405
0.00114904
0.00181445
0.000785099
0.00203595
0.000397895
0.00218317
0.00225186
-0.000473075
0.00272486
-0.000934369
0.00264439
-0.00136976
0.00247127
-0.00176509
0.0022097
-0.00210592
0.00186479
-0.00237769
0.00144344
-0.00256643
0.000955805
-0.00265983
0.000416533
-0.00264886
-0.000155262
-0.00252822
-0.000737976
-0.00230015
-0.00130101
-0.00197281
-0.00181768
-0.00155969
-0.00226281
-0.0010788
-0.00261512
-0.000551261
-0.00285858
7.0706e-08
-0.00298291
0.000551401
-0.00298291
0.00107893
-0.00285856
0.00155982
-0.00261508
0.00197293
-0.00226276
0.00230027
-0.00181761
0.00252832
-0.00130093
0.00264895
-0.000737893
0.00265991
-0.000155172
0.00256649
0.000416626
0.00237775
0.000955899
0.00210596
0.00144353
0.00176513
0.00186489
0.00136979
0.00220979
0.000934383
0.00247136
0.000473082
0.00264447
0.00272494
-0.000561389
0.00328624
-0.00111017
0.00319317
-0.00163082
0.00299192
-0.00210732
0.00268619
-0.00252261
0.00228008
-0.00285867
0.00177951
-0.00309731
0.00119445
-0.00322164
0.000540863
-0.00321857
-0.000158334
-0.00307963
-0.000876918
-0.00280728
-0.00157336
-0.00241058
-0.00221438
-0.0019064
-0.00276698
-0.00131835
-0.00320317
-0.000673553
-0.00350338
7.84287e-08
-0.00365654
0.000673709
-0.00365654
0.00131851
-0.00350335
0.00190655
-0.00320312
0.00241071
-0.00276692
0.0028074
-0.0022143
0.00307974
-0.00157327
0.00321867
-0.000876821
0.00322172
-0.00015823
0.00309738
0.00054097
0.00285873
0.00119455
0.00252265
0.00177961
0.00210735
0.00228019
0.00163084
0.00268629
0.00111019
0.00299201
0.000561396
0.00319326
0.00328634
-0.000663938
0.00395018
-0.00131499
0.00384422
-0.0019366
0.00361353
-0.00251105
0.00326064
-0.00301836
0.00278739
-0.00343612
0.00219728
-0.00374041
0.00149873
-0.00390752
0.000707971
-0.003918
-0.000147855
-0.00375779
-0.00103712
-0.00342758
-0.00190357
-0.00293771
-0.00270425
-0.00231483
-0.00338986
-0.00159494
-0.00392306
-0.000812897
-0.00428542
8.64268e-08
-0.00446953
0.000813068
-0.00446952
0.00159511
-0.00428539
0.00231499
-0.00392301
0.00293786
-0.00338979
0.00342772
-0.00270416
0.00375791
-0.00190346
0.0039181
-0.00103701
0.0039076
-0.000147732
0.00374048
0.000708094
0.00343618
0.00149886
0.00301839
0.00219739
0.00251108
0.00278751
0.00193662
0.00326075
0.001315
0.00361363
0.000663944
0.00384432
0.00395028
-0.000781365
0.00473155
-0.00155051
0.00461336
-0.00229064
0.00435366
-0.00298279
0.00395279
-0.00360381
0.00340842
-0.0041255
0.00271896
-0.00451515
0.00188838
-0.00473724
0.00093006
-0.00475837
-0.000126722
-0.00454906
-0.00124643
-0.00410766
-0.00234497
-0.00346513
-0.00334678
-0.00268091
-0.00417407
-0.00181827
-0.0047857
-0.000916115
-0.00518757
8.94315e-08
-0.00538573
0.000916294
-0.00538572
0.00181844
-0.00518754
0.00268109
-0.00478565
0.00346529
-0.00417399
0.00410782
-0.00334668
0.0045492
-0.00234484
0.00475848
-0.00124629
0.00473732
-0.000126576
0.00451521
0.000930204
0.00412555
0.00188852
0.00360385
0.00271909
0.00298281
0.00340854
0.00229065
0.00395291
0.00155052
0.00435377
0.000781369
0.00461347
0.00473165
-0.000913464
0.00564501
-0.00181687
0.00551677
-0.00269458
0.00523137
-0.00352744
0.00478565
-0.00428863
0.00416961
-0.0049398
0.00337014
-0.00542862
0.0023772
-0.00569013
0.00119157
-0.00564967
-0.000167182
-0.00524748
-0.00164862
-0.00454566
-0.00304679
-0.00364754
-0.00424491
-0.00268944
-0.00513216
-0.00175378
-0.00572137
-0.000860209
-0.00608115
7.78917e-08
-0.00624602
0.000860367
-0.00624601
0.00175395
-0.00608112
0.00268962
-0.00572132
0.00364771
-0.00513209
0.00454583
-0.0042448
0.00524764
-0.00304665
0.0056498
-0.00164846
0.00569023
-0.000167005
0.00542869
0.00119175
0.00493985
0.00237736
0.00428865
0.00337029
0.00352745
0.00416974
0.00269459
0.00478577
0.00181687
0.00523148
0.000913465
0.00551688
0.00564512
-0.00105864
0.00670366
-0.00211162
0.00656975
-0.00314679
0.00626654
-0.00414653
0.00578539
-0.00507713
0.00510021
-0.00587346
0.00416646
-0.00642994
0.00293368
-0.00660411
0.00136574
-0.00624515
-0.000526141
-0.00532452
-0.00256926
-0.00414991
-0.0042214
-0.00302665
-0.00536817
-0.0020897
-0.00606911
-0.00131186
-0.00649921
-0.000631829
-0.00676118
5.77414e-08
-0.00687791
0.000631948
-0.0068779
0.00131199
-0.00676116
0.00208985
-0.00649918
0.00302682
-0.00606906
0.0041501
-0.00536808
0.00532471
-0.00422126
0.00624531
-0.00256906
0.00660422
-0.000525916
0.00643001
0.00136596
0.00587349
0.00293388
0.00507715
0.00416663
0.00414654
0.00510036
0.00314679
0.00578552
0.00211162
0.00626666
0.00105864
0.00656985
0.00670376
-0.00121323
0.00791688
-0.00242836
0.00778488
-0.0036406
0.00747878
-0.00483557
0.00698036
-0.00595726
0.0062219
-0.00686601
0.00507521
-0.00731466
0.00338233
-0.00700198
0.00105307
-0.00577006
-0.00175807
-0.00431301
-0.0040263
-0.00315241
-0.005382
-0.0023194
-0.00620118
-0.00165789
-0.00673062
-0.00107459
-0.00708251
-0.000528048
-0.00730772
4.60906e-08
-0.007406
0.000528143
-0.007406
0.00107469
-0.00730771
0.001658
-0.00708249
0.00231953
-0.00673058
0.00315256
-0.00620112
0.0043132
-0.0053819
0.00577027
-0.00402613
0.00700215
-0.00175781
0.00731475
0.00105336
0.00686605
0.00338258
0.00595726
0.00507541
0.00483556
0.00622206
0.00364059
0.00698049
0.00242835
0.0074789
0.00121322
0.00778498
0.00791698
-0.00137059
0.00928748
-0.00275512
0.0091694
-0.00416173
0.0088854
-0.00557431
0.00839293
-0.00686302
0.0075106
-0.00770319
0.00591538
-0.00756018
0.00323932
-0.00613675
-0.00037037
-0.00448787
-0.00340694
-0.00340735
-0.00510682
-0.00269459
-0.00609476
-0.00213227
-0.00676349
-0.00161182
-0.00725107
-0.00108624
-0.0076081
-0.000546479
-0.00784748
4.27047e-08
-0.00795252
0.000546566
-0.00795252
0.00108633
-0.00784747
0.00161192
-0.00760808
0.00213237
-0.00725104
0.0026947
-0.00676345
0.00340749
-0.00609468
0.00448806
-0.00510669
0.00613696
-0.00340671
0.00756034
-0.000370017
0.00770325
0.00323968
0.00686301
0.00591565
0.00557428
0.00751079
0.0041617
0.00839307
0.00275509
0.0088855
0.00137058
0.00916949
0.00928756
-0.00152047
0.0108079
-0.00307303
0.010722
-0.00468208
0.0104944
-0.00629414
0.010005
-0.00760159
0.00881806
-0.00789982
0.00621361
-0.00654878
0.00188828
-0.004795
-0.00212415
-0.00383086
-0.00437108
-0.00331373
-0.00562396
-0.00287695
-0.00653154
-0.00238977
-0.00725068
-0.00184345
-0.00779738
-0.0012532
-0.00819835
-0.000633368
-0.00846731
4.36927e-08
-0.00858593
0.000633457
-0.00858594
0.0012533
-0.00846731
0.00184356
-0.00819834
0.00238987
-0.00779736
0.00287706
-0.00725063
0.00331384
-0.00653146
0.00383099
-0.00562384
0.00479518
-0.0043709
0.00654899
-0.00212382
0.00789993
0.00188873
0.00760159
0.006214
0.00629408
0.00881829
0.00468202
0.0100051
0.00307299
0.0104945
0.00152045
0.010722
0.010808
-0.00164778
0.0124557
-0.00335056
0.0124247
-0.00513469
0.0122786
-0.00681306
0.0116834
-0.00784216
0.00984716
-0.00699785
0.00536931
-0.00522018
0.000110602
-0.00431524
-0.00302909
-0.00405657
-0.00462975
-0.00382257
-0.00585796
-0.00339873
-0.00695538
-0.00282323
-0.00782617
-0.00216087
-0.00845974
-0.00145796
-0.00890126
-0.000733399
-0.00919188
4.33936e-08
-0.00931938
0.000733488
-0.00931938
0.00145806
-0.00919188
0.00216097
-0.00890125
0.00282335
-0.00845973
0.00339885
-0.00782614
0.00382269
-0.0069553
0.00405667
-0.00585782
0.00431535
-0.00462958
0.00522035
-0.00302883
0.00699801
0.000111073
0.00784217
0.00536984
0.00681298
0.00984749
0.0051346
0.0116835
0.00335049
0.0122786
0.00164775
0.0124248
0.0124558
-0.00173401
0.0141897
-0.00354044
0.0142312
-0.00539887
0.014137
-0.00692433
0.0132088
-0.00723796
0.0101608
-0.00569625
0.0038276
-0.00466654
-0.000919113
-0.00456741
-0.00312821
-0.00473617
-0.004461
-0.00454338
-0.00605075
-0.00402533
-0.00747343
-0.0032965
-0.00855499
-0.00248522
-0.00927103
-0.00165833
-0.00972814
-0.000829541
-0.0100207
3.83843e-08
-0.010149
0.00082962
-0.010149
0.00165842
-0.0100207
0.00248533
-0.00972816
0.00329663
-0.00927104
0.00402546
-0.00855496
0.00454349
-0.00747333
0.00473624
-0.00605056
0.00456744
-0.00446078
0.0046666
-0.003128
0.00569647
-0.000918794
0.00723807
0.00382824
0.00692425
0.0101613
0.00539876
0.013209
0.00354036
0.014137
0.00173397
0.0142312
0.0141897
-0.00176255
0.0159523
-0.00360303
0.0160717
-0.00540911
0.0159431
-0.00672047
0.0145202
-0.00609257
0.00953287
-0.0048463
0.00258134
-0.0045556
-0.00120982
-0.00493966
-0.00274416
-0.0052217
-0.00417895
-0.00507776
-0.00619469
-0.00454141
-0.00800978
-0.00370626
-0.00939014
-0.00275739
-0.0102199
-0.00181792
-0.0106676
-0.000904533
-0.0109341
2.34678e-08
-0.0110535
0.000904582
-0.0110535
0.00181799
-0.0109341
0.00275749
-0.0106677
0.00370638
-0.0102199
0.00454153
-0.00939011
0.00507784
-0.00800964
0.00522172
-0.00619444
0.00493962
-0.00417869
0.00455561
-0.00274398
0.00484636
-0.00120955
0.0060927
0.00258191
0.00672039
0.00953362
0.00540899
0.0145204
0.00360293
0.0159431
0.0017625
0.0160716
0.0159522
-0.00171074
0.017663
-0.00347575
0.0178367
-0.00508622
0.0175535
-0.00602296
0.0154569
-0.00493018
0.00844009
-0.00428944
0.0019406
-0.00443244
-0.00106682
-0.00487713
-0.00229946
-0.00519341
-0.00386268
-0.0052034
-0.00618469
-0.00475791
-0.00845528
-0.00391234
-0.0102357
-0.00289134
-0.0112409
-0.00188967
-0.0116693
-0.000934269
-0.0118895
-6.33649e-09
-0.0119878
0.000934258
-0.0119878
0.00188969
-0.0118895
0.0028914
-0.0116694
0.00391243
-0.011241
0.00475798
-0.0102357
0.00520341
-0.00845506
0.00519334
-0.00618438
0.00487704
-0.00386238
0.00443235
-0.00229929
0.00428943
-0.00106663
0.00493024
0.00194109
0.00602293
0.00844093
0.00508609
0.0154572
0.00347563
0.0175535
0.00171068
0.0178366
0.0176629
-0.00156439
0.0192274
-0.00313223
0.0194045
-0.00446982
0.0188911
-0.00499758
0.0159847
-0.0040614
0.00750391
-0.00372838
0.00160758
-0.00393681
-0.000858397
-0.00423817
-0.00199809
-0.00461794
-0.00348291
-0.00485382
-0.00594881
-0.00450211
-0.00880698
-0.00373198
-0.0110058
-0.00276786
-0.012205
-0.00181584
-0.0126213
-0.000894418
-0.0128109
-4.15447e-08
-0.0128822
0.000894334
-0.0128822
0.00181578
-0.012811
0.00276785
-0.0126214
0.00373198
-0.0122051
0.00450211
-0.0110058
0.00485374
-0.00880669
0.00461776
-0.00594841
0.00423801
-0.00348263
0.00393668
-0.00199796
0.00372831
-0.000858262
0.00406137
0.00160802
0.00499757
0.00750474
0.00446969
0.0159851
0.00313211
0.0188911
0.00156432
0.0194043
0.0192272
-0.00132938
0.0205568
-0.00261128
0.0206864
-0.00365209
0.0199319
-0.00386738
0.0162
-0.00327928
0.00691581
-0.0030456
0.0013739
-0.00302356
-0.000880431
-0.00301816
-0.0020035
-0.00327113
-0.00322994
-0.00364528
-0.00557466
-0.00357921
-0.00887306
-0.00304946
-0.0115356
-0.00232507
-0.0129294
-0.00156992
-0.0133765
-0.000779686
-0.0136011
-5.35844e-08
-0.0136618
0.000779583
-0.0136618
0.00156982
-0.0136012
0.00232498
-0.0133766
0.00304935
-0.0129295
0.00357905
-0.0115355
0.003645
-0.00887264
0.00327081
-0.00557422
0.00301796
-0.00322977
0.00302343
-0.00200344
0.00304551
-0.000880337
0.00327924
0.0013743
0.00386738
0.00691659
0.00365194
0.0162006
0.00261117
0.0199319
0.00132931
0.0206862
0.0205565
-0.00102964
0.0215864
-0.00198179
0.0216386
-0.00272233
0.0206725
-0.00276828
0.0162459
-0.00252058
0.00666811
-0.00231645
0.00116977
-0.00200558
-0.0011913
-0.00165162
-0.00235746
-0.00152771
-0.00335385
-0.00166269
-0.00543968
-0.00197109
-0.00856466
-0.00200292
-0.0115038
-0.00169485
-0.0132375
-0.0012135
-0.0138578
-0.000618346
-0.0141963
-2.22251e-08
-0.0142801
0.000618318
-0.0142801
0.00121343
-0.0141963
0.00169474
-0.0138579
0.00200274
-0.0132375
0.00197084
-0.0115036
0.00166246
-0.00856426
0.00152753
-0.00543929
0.0016515
-0.00335374
0.00200548
-0.00235742
0.00231636
-0.00119122
0.00252052
0.00117014
0.00276824
0.00666887
0.00272218
0.0162466
0.00198167
0.0206724
0.00102958
0.0216383
0.0215861
-0.000694035
0.0222805
-0.00129845
0.022243
-0.00174155
0.0211156
-0.00179722
0.0163016
-0.00180875
0.00667964
-0.00165215
0.00101316
-0.00120864
-0.0016348
-0.000789669
-0.00277644
-0.000553372
-0.00359015
-0.000529135
-0.00546391
-0.000788607
-0.00830519
-0.00108676
-0.0112056
-0.00110752
-0.0132167
-0.000854251
-0.0141111
-0.000453046
-0.0145975
3.3691e-09
-0.0147332
0.000453066
-0.0147332
0.000854213
-0.0145975
0.00110742
-0.0141111
0.00108659
-0.0132166
0.000788389
-0.0112054
0.000528973
-0.00830484
0.000553309
-0.00546363
0.000789591
-0.00359002
0.00120857
-0.0027764
0.00165207
-0.00163472
0.00180867
0.00101355
0.00179712
0.00668042
0.00174143
0.0163023
0.00129835
0.0211155
0.000693986
0.0222427
0.0222801
-0.00035409
0.0226346
-0.000610038
0.0224989
-0.000768145
0.0212737
-0.000868599
0.0164021
-0.00112425
0.00693529
-0.00105027
0.000939179
-0.000615005
-0.00207006
-0.000311009
-0.00308043
-6.07626e-05
-0.00384039
7.15305e-05
-0.00559621
-7.07896e-05
-0.00816287
-0.000410783
-0.0108656
-0.000665822
-0.0129617
-0.000564683
-0.0142122
-0.000311101
-0.0148511
-7.64507e-08
-0.0150442
0.000310932
-0.0150442
0.000564547
-0.0148511
0.000665667
-0.0142122
0.000410608
-0.0129616
7.06142e-05
-0.0108654
-7.16657e-05
-0.00816256
6.06823e-05
-0.00559598
0.000310927
-0.00384027
0.000614936
-0.0030804
0.00105019
-0.00206998
0.00112413
0.000939608
0.000868434
0.00693611
0.000768051
0.0164027
0.000609975
0.0212736
0.00035406
0.0224986
0.0226342
-3.02846e-05
0.0226648
-2.20289e-05
0.0224907
0.000160766
0.0210909
7.41959e-05
0.0164886
-0.000430723
0.00744021
-0.000442437
0.000950894
-0.000141218
-0.00237128
-2.98203e-06
-0.00321867
0.000225497
-0.00406887
0.000363623
-0.00573433
0.000276612
-0.00807586
-4.04373e-05
-0.0105486
-0.000356675
-0.0126454
-0.00035076
-0.0142181
-0.00019523
-0.0150066
-1.31826e-07
-0.0152393
0.000194818
-0.0152392
0.000350547
-0.0150068
0.00035649
-0.0142182
4.02986e-05
-0.0126454
-0.00027673
-0.0105484
-0.000363707
-0.00807559
-0.000225577
-0.00573411
2.90366e-06
-0.00406875
0.000141112
-0.00321861
0.000442314
-0.00237118
0.000430551
0.000951372
-7.44139e-05
0.00744108
-0.0001608
0.0164891
2.20225e-05
0.0210907
3.02799e-05
0.0224903
0.0226645
0.000208586
0.0224563
0.000504296
0.022195
0.000900621
0.0206946
0.00105803
0.0163312
0.000331437
0.00816681
0.000163438
0.00111889
0.000219264
-0.00242711
0.000211194
-0.0032106
0.000361079
-0.00421876
0.000452224
-0.00582548
0.000408935
-0.00803257
0.000195269
-0.0103349
-8.30586e-05
-0.0123671
-0.000185848
-0.0141153
-0.000101229
-0.0150912
9.23423e-08
-0.0153406
0.0001016
-0.0153407
0.000185927
-0.0150911
8.3029e-05
-0.0141153
-0.000195332
-0.012367
-0.000408981
-0.0103347
-0.000452253
-0.00803231
-0.000361126
-0.00582523
-0.000211284
-0.00421859
-0.000219398
-0.0032105
-0.000163597
-0.00242698
-0.00033165
0.00111943
-0.00105817
0.0081676
-0.000900592
0.0163315
-0.000504255
0.0206944
-0.000208565
0.0221946
0.0224559
0.000398793
0.0220575
0.000881416
0.0217123
0.00145158
0.0201244
0.00178294
0.0159999
0.0010461
0.00890366
0.000771707
0.00139328
0.000491201
-0.0021466
0.000381082
-0.00310048
0.000429824
-0.0042675
0.000460725
-0.00585638
0.000438594
-0.00801044
0.000302342
-0.0101987
8.30708e-05
-0.0121478
-4.05849e-05
-0.0139917
-1.99542e-05
-0.0151118
1.59315e-08
-0.0153606
1.98806e-05
-0.0153605
4.06108e-05
-0.0151119
-8.30365e-05
-0.0139916
-0.000302308
-0.0121478
-0.00043857
-0.0101985
-0.000460703
-0.00801018
-0.000429828
-0.00585611
-0.000381151
-0.00426727
-0.000491326
-0.00310032
-0.000771874
-0.00214643
-0.00104623
0.00139378
-0.00178293
0.0089043
-0.00145147
0.016
-0.000881322
0.0201243
-0.000398746
0.021712
0.0220571
0.000516761
0.0215407
0.00111559
0.0211135
0.00178725
0.0194528
0.00225361
0.0155335
0.0017537
0.00940357
0.00155551
0.00159148
0.00103834
-0.00162944
0.000728185
-0.00279033
0.000521652
-0.00406097
0.000447703
-0.00578243
0.000419044
-0.00798178
0.000343865
-0.0101235
0.000216849
-0.0120208
0.000123896
-0.0138987
5.57441e-05
-0.0150437
1.06908e-07
-0.0153049
-5.5601e-05
-0.0153048
-0.000123742
-0.0150437
-0.000216689
-0.0138987
-0.000343747
-0.0120207
-0.000418949
-0.0101233
-0.000447623
-0.00798151
-0.000521603
-0.00578213
-0.000728191
-0.00406068
-0.0010384
-0.00279011
-0.00155559
-0.00162925
-0.00175368
0.00159187
-0.00225343
0.00940406
-0.00178705
0.0155337
-0.00111545
0.0194527
-0.000516689
0.0211133
0.0215405
0.000566106
0.0209746
0.00120936
0.0204702
0.0019105
0.0187516
0.00241662
0.0150274
0.00227806
0.00954212
0.00225803
0.00161152
0.00160491
-0.000976317
0.00102914
-0.00221456
0.000570622
-0.00360245
0.0004006
-0.00561241
0.000376627
-0.0079578
0.000365899
-0.0101127
0.000320508
-0.0119754
0.000259272
-0.0138375
0.000120974
-0.0149054
1.382e-07
-0.0151841
-0.00012067
-0.015184
-0.000259006
-0.0149054
-0.000320264
-0.0138374
-0.000365728
-0.0119752
-0.00037649
-0.0101125
-0.000400479
-0.00795752
-0.000570522
-0.00561209
-0.00102909
-0.00360211
-0.00160492
-0.00221428
-0.00225805
-0.000976122
-0.00227793
0.00161175
-0.00241635
0.00954248
-0.00191024
0.0150275
-0.00120918
0.0187516
-0.000566015
0.0204701
0.0209744
0.000551685
0.0204229
0.00117522
0.0198467
0.00186535
0.0180615
0.0023831
0.0145096
0.00263274
0.00929249
0.00256248
0.00168178
0.00182083
-0.000234668
0.00104176
-0.00143549
0.000501561
-0.00306225
0.000330871
-0.00544172
0.000340175
-0.00796711
0.000386979
-0.0101595
0.000394608
-0.0119831
0.000334844
-0.0137777
0.000161657
-0.0147322
1.69579e-07
-0.0150226
-0.000161216
-0.0150226
-0.000334529
-0.0147321
-0.000394357
-0.0137776
-0.000386794
-0.0119828
-0.00034002
-0.0101593
-0.000330723
-0.00796682
-0.000501417
-0.00544139
-0.00104164
-0.00306189
-0.00182077
-0.00143515
-0.00256242
-0.000234469
-0.00263256
0.00168189
-0.00238282
0.00929274
-0.00186508
0.0145098
-0.00117502
0.0180615
-0.000551582
0.0198467
0.0204229
0.00047189
0.019951
0.001031
0.0192876
0.00172178
0.0173707
0.00239535
0.0138361
0.00298716
0.00870067
0.00249488
0.00217406
0.00161768
0.000642525
0.0007991
-0.000616906
0.00035488
-0.00261803
0.000260148
-0.00534698
0.000314402
-0.00802136
0.000401311
-0.0102465
0.000432197
-0.0120139
0.000349394
-0.0136949
0.000172697
-0.0145555
1.01208e-07
-0.01485
-0.000172448
-0.0148501
-0.000349185
-0.0145553
-0.000432022
-0.0136948
-0.000401159
-0.0120137
-0.000314252
-0.0102462
-0.000259988
-0.00802108
-0.000354691
-0.00534669
-0.000798892
-0.00261769
-0.00161749
-0.000616548
-0.0024947
0.000642734
-0.00298693
0.00217412
-0.00239506
0.00870088
-0.00172151
0.0138362
-0.00103078
0.0173708
-0.000471773
0.0192877
0.0199511
0.00031628
0.0196347
0.000767754
0.0188361
0.0014155
0.016723
0.00231947
0.0129321
0.00337809
0.00764205
0.0024739
0.00307825
0.00143695
0.00167947
0.000562253
0.000257791
0.000215311
-0.00227109
0.000199278
-0.00533095
0.000296852
-0.00811894
0.000404933
-0.0103545
0.000440684
-0.0120497
0.000335078
-0.0135893
0.000170467
-0.0143909
5.31895e-08
-0.0146796
-0.000170409
-0.0146796
-0.000334963
-0.0143908
-0.000440582
-0.0135891
-0.000404826
-0.0120494
-0.000296725
-0.0103543
-0.000199132
-0.00811867
-0.000215114
-0.00533071
-0.000562012
-0.00227079
-0.00143669
0.000258127
-0.00247366
0.00167971
-0.00337788
0.00307833
-0.00231919
0.00764219
-0.00141521
0.0129323
-0.000767522
0.0167231
-0.000316151
0.0188363
0.0196349
9.50487e-05
0.0195397
0.000350755
0.0185804
0.000815601
0.0162581
0.00180065
0.011947
0.00304001
0.00640268
0.00217692
0.00394134
0.00102183
0.00283456
0.000220871
0.00105875
4.74765e-05
-0.00209769
0.000136054
-0.00541953
0.000277734
-0.00826062
0.000392023
-0.0104688
0.000427567
-0.0120852
0.000326123
-0.0134879
0.000168352
-0.0142331
3.39247e-08
-0.0145113
-0.000168261
-0.0145113
-0.000326069
-0.014233
-0.000427534
-0.0134877
-0.000391967
-0.012085
-0.00027763
-0.0104686
-0.000135882
-0.00826042
-4.72787e-05
-0.00541931
-0.000220607
-0.00209746
-0.00102153
0.00105905
-0.00217666
0.00283484
-0.0030398
0.00394147
-0.00180041
0.0064028
-0.000815292
0.0119471
-0.000350502
0.0162583
-9.4919e-05
0.0185807
0.01954
-0.000187646
0.0197273
-0.000171095
0.0185639
0.00022764
0.0158594
0.00137289
0.0108018
0.00234692
0.00542866
0.00135858
0.00492968
0.000215347
0.0039778
-0.000203372
0.00147747
-0.000134171
-0.0021669
7.68973e-05
-0.0056306
0.000263466
-0.00844718
0.00038073
-0.0105861
0.00041738
-0.0121219
0.0003328
-0.0134033
0.00017083
-0.0140711
-9.20815e-08
-0.0143404
-0.000170938
-0.0143405
-0.000332957
-0.014071
-0.000417496
-0.0134031
-0.000380745
-0.0121217
-0.000263402
-0.010586
-7.67787e-05
-0.00844704
0.000134358
-0.00563045
0.00020361
-0.00216671
-0.000215049
0.00147771
-0.00135829
0.00397807
-0.00234669
0.00492988
-0.00137269
0.00542879
-0.00022735
0.0108018
0.000171422
0.0158596
0.000187831
0.0185643
0.0197278
-0.000562043
0.0202894
-0.000818014
0.0188198
-0.000139081
0.0151804
0.00104542
0.00961729
0.0011335
0.00534058
0.000212086
0.00585109
-0.00063279
0.00482267
-0.000615325
0.00146
-0.00028825
-0.00249397
4.44749e-05
-0.00596332
0.000271925
-0.00867463
0.000394416
-0.0107086
0.000433752
-0.0121612
0.000352842
-0.0133224
0.000177072
-0.0138954
-2.45815e-07
-0.014163
-0.000177616
-0.0141631
-0.000353244
-0.0138953
-0.000433979
-0.0133224
-0.00039447
-0.0121612
-0.000271868
-0.0107086
-4.4331e-05
-0.00867458
0.000288436
-0.00596321
0.000615556
-0.00249383
0.000633054
0.00146021
-0.000211834
0.00482296
-0.00113327
0.00585131
-0.00104515
0.00534067
0.000139603
0.00961705
0.000818518
0.0151807
0.000562303