/*--------------------------------*- C++ -*----------------------------------*\
  =========                 |
  \\      /  F ield         | OpenFOAM: The Open Source CFD Toolbox
   \\    /   O peration     | Website:  https://openfoam.org
    \\  /    A nd           | Version:  9
     \\/     M anipulation  |
\*---------------------------------------------------------------------------*/
FoamFile
{
    format      ascii;
    class       volVectorField;
    location    "1";
    object      U;
}
// * * * * * * * * * * * * * * * * * * * * * * * * * * * * * * * * * * * * * //

dimensions      [0 1 -1 0 0 0 0];

internalField   nonuniform List<vector> 
4096
(
(-0.0173657 0.0171021 0)
(-0.0516282 0.0165311 0)
(-0.084005 0.0153028 0)
(-0.1133 0.0134808 0)
(-0.138351 0.0111355 0)
(-0.158183 0.00835234 0)
(-0.172015 0.00522963 0)
(-0.179236 0.00187086 0)
(-0.179603 -0.001506 0)
(-0.173076 -0.00489375 0)
(-0.159807 -0.00811528 0)
(-0.140303 -0.0110294 0)
(-0.115298 -0.013519 0)
(-0.0857603 -0.0154826 0)
(-0.0528428 -0.0168389 0)
(-0.0178412 -0.0175314 0)
(0.0178658 -0.0175313 0)
(0.0528671 -0.0168387 0)
(0.0857842 -0.0154823 0)
(0.115321 -0.0135186 0)
(0.140325 -0.0110289 0)
(0.159828 -0.00811464 0)
(0.173096 -0.00489302 0)
(0.179621 -0.00150521 0)
(0.179252 0.00187171 0)
(0.17203 0.00523051 0)
(0.158196 0.00835323 0)
(0.138362 0.0111363 0)
(0.113309 0.0134815 0)
(0.0840139 0.015303 0)
(0.0516324 0.0165302 0)
(0.0173656 0.0171022 0)
(-0.0180748 0.0520431 0)
(-0.053741 0.0503053 0)
(-0.0874492 0.0465726 0)
(-0.117955 0.0410324 0)
(-0.144054 0.0338999 0)
(-0.164729 0.0254361 0)
(-0.179163 0.0159469 0)
(-0.186753 0.00577917 0)
(-0.187151 -0.00462637 0)
(-0.180355 -0.0149072 0)
(-0.166552 -0.024695 0)
(-0.146244 -0.0335661 0)
(-0.120195 -0.0411502 0)
(-0.0894105 -0.0471332 0)
(-0.0550954 -0.0512661 0)
(-0.0186027 -0.0533763 0)
(0.0186275 -0.0533761 0)
(0.05512 -0.0512656 0)
(0.0894346 -0.0471323 0)
(0.120218 -0.0411489 0)
(0.146266 -0.0335645 0)
(0.166573 -0.0246931 0)
(0.180375 -0.014905 0)
(0.187169 -0.004624 0)
(0.18677 0.00578174 0)
(0.179178 0.0159496 0)
(0.164742 0.0254388 0)
(0.144065 0.0339026 0)
(0.117964 0.0410349 0)
(0.0874564 0.0465743 0)
(0.0537449 0.0503053 0)
(0.0180756 0.0520445 0)
(-0.0194129 0.0890197 0)
(-0.0577229 0.0860514 0)
(-0.0939413 0.0796812 0)
(-0.126737 0.0702205 0)
(-0.154821 0.0580367 0)
(-0.177096 0.0435737 0)
(-0.192679 0.0273539 0)
(-0.200924 0.00997126 0)
(-0.201438 -0.00786904 0)
(-0.194177 -0.0254887 0)
(-0.179365 -0.0422423 0)
(-0.157534 -0.057438 0)
(-0.129503 -0.0704382 0)
(-0.096352 -0.080698 0)
(-0.0593802 -0.0877868 0)
(-0.0200513 -0.0914064 0)
(0.0200766 -0.091406 0)
(0.0594052 -0.0877858 0)
(0.0963765 -0.0806964 0)
(0.129527 -0.070436 0)
(0.157557 -0.0574352 0)
(0.179386 -0.0422391 0)
(0.194197 -0.025485 0)
(0.201456 -0.007865 0)
(0.20094 0.00997562 0)
(0.192694 0.0273584 0)
(0.177109 0.0435784 0)
(0.154831 0.0580415 0)
(0.126746 0.0702252 0)
(0.0939478 0.0796855 0)
(0.0577266 0.0860551 0)
(0.019414 0.0890237 0)
(-0.0214412 0.129321 0)
(-0.063759 0.125022 0)
(-0.103787 0.115796 0)
(-0.140065 0.102088 0)
(-0.171172 0.0844242 0)
(-0.195896 0.0634428 0)
(-0.213246 0.0398972 0)
(-0.222494 0.0146475 0)
(-0.223198 -0.0113116 0)
(-0.215266 -0.0369731 0)
(-0.198936 -0.061366 0)
(-0.174791 -0.0834992 0)
(-0.143736 -0.102446 0)
(-0.106968 -0.117406 0)
(-0.0659344 -0.127746 0)
(-0.0222674 -0.133026 0)
(0.0222935 -0.133026 0)
(0.0659601 -0.127745 0)
(0.106994 -0.117404 0)
(0.14376 -0.102443 0)
(0.174814 -0.0834953 0)
(0.198958 -0.0613614 0)
(0.215286 -0.0369678 0)
(0.223216 -0.0113059 0)
(0.222511 0.0146537 0)
(0.213261 0.0399038 0)
(0.195909 0.0634496 0)
(0.171183 0.0844311 0)
(0.140073 0.102095 0)
(0.103793 0.115803 0)
(0.0637627 0.125029 0)
(0.0214424 0.129328 0)
(-0.0242354 0.174385 0)
(-0.0720757 0.168615 0)
(-0.11736 0.156226 0)
(-0.15845 0.137809 0)
(-0.19375 0.114059 0)
(-0.22188 0.085821 0)
(-0.241703 0.0540987 0)
(-0.252372 0.0200448 0)
(-0.253362 -0.01502 0)
(-0.244532 -0.049731 0)
(-0.226122 -0.0827412 0)
(-0.198782 -0.112708 0)
(-0.163533 -0.138376 0)
(-0.12174 -0.158654 0)
(-0.0750557 -0.172674 0)
(-0.0253519 -0.179835 0)
(0.025379 -0.179834 0)
(0.0750825 -0.172672 0)
(0.121766 -0.158651 0)
(0.163558 -0.138372 0)
(0.198806 -0.112703 0)
(0.226145 -0.0827351 0)
(0.244553 -0.0497241 0)
(0.253381 -0.0150124 0)
(0.252389 0.020053 0)
(0.241718 0.0541074 0)
(0.221893 0.08583 0)
(0.193761 0.114068 0)
(0.158459 0.137818 0)
(0.117366 0.156235 0)
(0.0720794 0.168624 0)
(0.0242366 0.174394 0)
(-0.0278899 0.225822 0)
(-0.0829557 0.218398 0)
(-0.135127 0.202445 0)
(-0.18254 0.178714 0)
(-0.223366 0.148078 0)
(-0.256007 0.111604 0)
(-0.279131 0.0705695 0)
(-0.291722 0.0264531 0)
(-0.293139 -0.0190506 0)
(-0.28317 -0.0641726 0)
(-0.262052 -0.107127 0)
(-0.230515 -0.14615 0)
(-0.189735 -0.179598 0)
(-0.141299 -0.206036 0)
(-0.0871363 -0.224321 0)
(-0.0294378 -0.233663 0)
(0.0294661 -0.233662 0)
(0.0871644 -0.224319 0)
(0.141327 -0.206032 0)
(0.189762 -0.179593 0)
(0.23054 -0.146144 0)
(0.262076 -0.107119 0)
(0.283192 -0.0641639 0)
(0.293159 -0.019041 0)
(0.29174 0.0264634 0)
(0.279147 0.0705804 0)
(0.256021 0.111616 0)
(0.223377 0.14809 0)
(0.182549 0.178726 0)
(0.135133 0.202457 0)
(0.0829594 0.218409 0)
(0.0278911 0.225834 0)
(-0.0325212 0.285456 0)
(-0.0967487 0.276148 0)
(-0.157668 0.256133 0)
(-0.213139 0.226329 0)
(-0.261039 0.187798 0)
(-0.299494 0.141844 0)
(-0.326907 0.090042 0)
(-0.342041 0.0342388 0)
(-0.344089 -0.0234376 0)
(-0.332734 -0.0807484 0)
(-0.308199 -0.135383 0)
(-0.271311 -0.185071 0)
(-0.223445 -0.227692 0)
(-0.166474 -0.261399 0)
(-0.102689 -0.28472 0)
(-0.0346989 -0.296637 0)
(0.034729 -0.296636 0)
(0.102719 -0.284717 0)
(0.166503 -0.261394 0)
(0.223473 -0.227686 0)
(0.271337 -0.185063 0)
(0.308224 -0.135374 0)
(0.332757 -0.0807378 0)
(0.34411 -0.0234259 0)
(0.34206 0.0342514 0)
(0.326923 0.0900551 0)
(0.299507 0.141858 0)
(0.261051 0.187812 0)
(0.213148 0.226343 0)
(0.157675 0.256147 0)
(0.0967524 0.276162 0)
(0.0325225 0.28547 0)
(-0.0382699 0.355362 0)
(-0.113877 0.343898 0)
(-0.18569 0.319221 0)
(-0.251235 0.282425 0)
(-0.308031 0.234768 0)
(-0.353852 0.177797 0)
(-0.386764 0.113412 0)
(-0.405227 0.0438801 0)
(-0.408203 -0.0281768 0)
(-0.395218 -0.0999521 0)
(-0.36646 -0.168501 0)
(-0.322874 -0.230924 0)
(-0.266084 -0.284516 0)
(-0.198333 -0.326922 0)
(-0.122377 -0.356271 0)
(-0.0413599 -0.37127 0)
(0.041392 -0.371269 0)
(0.122409 -0.356268 0)
(0.198363 -0.326917 0)
(0.266114 -0.284508 0)
(0.322903 -0.230914 0)
(0.366486 -0.168489 0)
(0.395242 -0.0999394 0)
(0.408224 -0.0281628 0)
(0.405247 0.043895 0)
(0.386781 0.113427 0)
(0.353866 0.177814 0)
(0.308043 0.234784 0)
(0.251244 0.282442 0)
(0.185697 0.319238 0)
(0.11388 0.343915 0)
(0.0382712 0.355379 0)
(-0.0453006 0.437927 0)
(-0.134837 0.423992 0)
(-0.220028 0.393953 0)
(-0.298007 0.349086 0)
(-0.365863 0.290835 0)
(-0.420934 0.220993 0)
(-0.460848 0.1418 0)
(-0.483656 0.056008 0)
(-0.487992 -0.0331999 0)
(-0.473155 -0.122321 0)
(-0.439258 -0.207624 0)
(-0.387385 -0.285423 0)
(-0.319473 -0.352279 0)
(-0.238241 -0.405206 0)
(-0.147044 -0.441843 0)
(-0.0497071 -0.460566 0)
(0.0497416 -0.460565 0)
(0.147078 -0.441839 0)
(0.238274 -0.405199 0)
(0.319505 -0.35227 0)
(0.387414 -0.285412 0)
(0.439286 -0.20761 0)
(0.47318 -0.122306 0)
(0.488015 -0.0331834 0)
(0.483676 0.0560256 0)
(0.460865 0.141818 0)
(0.420948 0.221012 0)
(0.365875 0.290854 0)
(0.298016 0.349105 0)
(0.220034 0.393972 0)
(0.13484 0.424011 0)
(0.0453019 0.437946 0)
(-0.0538007 0.535889 0)
(-0.160196 0.519134 0)
(-0.261643 0.482946 0)
(-0.354832 0.428773 0)
(-0.436344 0.35822 0)
(-0.502973 0.273311 0)
(-0.551781 0.176645 0)
(-0.580272 0.0714726 0)
(-0.586608 -0.0383359 0)
(-0.569748 -0.148432 0)
(-0.529667 -0.254087 0)
(-0.467612 -0.350614 0)
(-0.385923 -0.433641 0)
(-0.287933 -0.499392 0)
(-0.177764 -0.544902 0)
(-0.0601045 -0.568156 0)
(0.0601421 -0.568154 0)
(0.177801 -0.544897 0)
(0.287968 -0.499384 0)
(0.385957 -0.433631 0)
(0.467645 -0.3506 0)
(0.529697 -0.254071 0)
(0.569775 -0.148414 0)
(0.586632 -0.0383166 0)
(0.580293 0.0714931 0)
(0.551799 0.176666 0)
(0.502988 0.273333 0)
(0.436356 0.358242 0)
(0.354841 0.428795 0)
(0.261649 0.482968 0)
(0.1602 0.519156 0)
(0.0538019 0.535911 0)
(-0.063977 0.652387 0)
(-0.190584 0.63244 0)
(-0.311615 0.589249 0)
(-0.423277 0.524409 0)
(-0.521567 0.439633 0)
(-0.602615 0.337117 0)
(-0.662744 0.219788 0)
(-0.698704 0.0914437 0)
(-0.707987 -0.0432469 0)
(-0.689039 -0.178882 0)
(-0.641586 -0.309445 0)
(-0.567078 -0.428962 0)
(-0.468384 -0.531854 0)
(-0.349635 -0.613323 0)
(-0.215926 -0.669678 0)
(-0.0730258 -0.698459 0)
(0.0730669 -0.698457 0)
(0.215966 -0.669672 0)
(0.349675 -0.613313 0)
(0.468421 -0.531841 0)
(0.567113 -0.428946 0)
(0.641618 -0.309426 0)
(0.689068 -0.178861 0)
(0.708013 -0.0432243 0)
(0.698726 0.0914675 0)
(0.662762 0.219813 0)
(0.60263 0.337142 0)
(0.521579 0.439658 0)
(0.423286 0.524434 0)
(0.311621 0.589274 0)
(0.190587 0.632464 0)
(0.0639782 0.652411 0)
(-0.0760418 0.790989 0)
(-0.226654 0.767482 0)
(-0.371096 0.716418 0)
(-0.505071 0.639479 0)
(-0.623916 0.538381 0)
(-0.722955 0.415381 0)
(-0.797549 0.273657 0)
(-0.843408 0.117553 0)
(-0.857046 -0.0473328 0)
(-0.83612 -0.214278 0)
(-0.779968 -0.375595 0)
(-0.690323 -0.52358 0)
(-0.570727 -0.650985 0)
(-0.426291 -0.751758 0)
(-0.263353 -0.821399 0)
(-0.08909 -0.85696 0)
(0.0891352 -0.856958 0)
(0.263398 -0.821393 0)
(0.426334 -0.751747 0)
(0.570768 -0.65097 0)
(0.69036 -0.523561 0)
(0.780002 -0.375573 0)
(0.836151 -0.214254 0)
(0.857073 -0.0473065 0)
(0.843431 0.117581 0)
(0.797568 0.273685 0)
(0.72297 0.415409 0)
(0.623928 0.538409 0)
(0.50508 0.639507 0)
(0.371102 0.716445 0)
(0.226657 0.767509 0)
(0.076043 0.791016 0)
(-0.0901993 0.955695 0)
(-0.269047 0.92831 0)
(-0.441251 0.868566 0)
(-0.60203 0.778131 0)
(-0.746008 0.658537 0)
(-0.867537 0.511899 0)
(-0.960721 0.34148 0)
(-1.01982 0.152103 0)
(-1.0399 -0.049608 0)
(-1.01744 -0.255267 0)
(-0.951203 -0.454774 0)
(-0.843205 -0.637922 0)
(-0.697671 -0.795591 0)
(-0.521122 -0.920342 0)
(-0.321846 -1.00662 0)
(-0.108871 -1.05075 0)
(0.108921 -1.05075 0)
(0.321896 -1.00662 0)
(0.52117 -0.920329 0)
(0.697716 -0.795573 0)
(0.843247 -0.637899 0)
(0.951241 -0.454748 0)
(1.01748 -0.255238 0)
(1.03993 -0.0495773 0)
(1.01985 0.152135 0)
(0.960741 0.341512 0)
(0.867552 0.511931 0)
(0.746019 0.658569 0)
(0.602038 0.778162 0)
(0.441257 0.868596 0)
(0.26905 0.928339 0)
(0.0902004 0.955724 0)
(-0.106617 1.1509 0)
(-0.318309 1.11944 0)
(-0.523138 1.05041 0)
(-0.715931 0.94529 0)
(-0.890587 0.805132 0)
(-1.0403 0.631555 0)
(-1.15753 0.427602 0)
(-1.23447 0.198364 0)
(-1.26398 -0.0484932 0)
(-1.2405 -0.301886 0)
(-1.16156 -0.548115 0)
(-1.0291 -0.775034 0)
(-0.848869 -0.971317 0)
(-0.631434 -1.12654 0)
(-0.38859 -1.2333 0)
(-0.131169 -1.28756 0)
(0.131224 -1.28756 0)
(0.388644 -1.23329 0)
(0.631487 -1.12652 0)
(0.848919 -0.971296 0)
(1.02915 -0.775008 0)
(1.1616 -0.548084 0)
(1.24053 -0.301852 0)
(1.26401 -0.0484574 0)
(1.23449 0.198401 0)
(1.15755 0.427639 0)
(1.04032 0.631591 0)
(0.890597 0.805167 0)
(0.715938 0.945324 0)
(0.523143 1.05044 0)
(0.318312 1.11947 0)
(0.106618 1.15093 0)
(-0.125384 1.3813 0)
(-0.374766 1.34578 0)
(-0.617519 1.26726 0)
(-0.84829 1.14677 0)
(-1.06032 0.984381 0)
(-1.24542 0.780634 0)
(-1.39374 0.537811 0)
(-1.49416 0.260859 0)
(-1.53506 -0.0416226 0)
(-1.50627 -0.355001 0)
(-1.40133 -0.662787 0)
(-1.22438 -0.950604 0)
(-0.990987 -1.19505 0)
(-0.7235 -1.38116 0)
(-0.438896 -1.50518 0)
(-0.146804 -1.56805 0)
(0.146861 -1.56805 0)
(0.438953 -1.50517 0)
(0.723556 -1.38114 0)
(0.991042 -1.19503 0)
(1.22443 -0.950573 0)
(1.40137 -0.662751 0)
(1.50631 -0.354961 0)
(1.53509 -0.0415808 0)
(1.49418 0.260902 0)
(1.39376 0.537853 0)
(1.24543 0.780675 0)
(1.06033 0.98442 0)
(0.848296 1.14681 0)
(0.617522 1.2673 0)
(0.374768 1.34582 0)
(0.125385 1.38133 0)
(-0.146447 1.65166 0)
(-0.438339 1.61249 0)
(-0.724567 1.52499 0)
(-1.00002 1.38937 0)
(-1.25747 1.20395 0)
(-1.4868 0.967124 0)
(-1.67375 0.679115 0)
(-1.79921 0.34275 0)
(-1.83936 -0.0353666 0)
(-1.77097 -0.439298 0)
(-1.58535 -0.833381 0)
(-1.31784 -1.18065 0)
(-1.01282 -1.46799 0)
(-0.707457 -1.6774 0)
(-0.414274 -1.81204 0)
(-0.13579 -1.87555 0)
(0.13584 -1.87554 0)
(0.414325 -1.81203 0)
(0.707511 -1.67738 0)
(1.01288 -1.46797 0)
(1.31789 -1.18061 0)
(1.58541 -0.833339 0)
(1.77101 -0.43925 0)
(1.8394 -0.0353166 0)
(1.79924 0.3428 0)
(1.67377 0.679163 0)
(1.48681 0.967169 0)
(1.25748 1.20399 0)
(1.00002 1.3894 0)
(0.724569 1.52503 0)
(0.43834 1.61252 0)
(0.146447 1.65169 0)
(-0.169521 1.96648 0)
(-0.50828 1.92463 0)
(-0.843448 1.82983 0)
(-1.17093 1.68089 0)
(-1.48325 1.47303 0)
(-1.76592 1.19956 0)
(-1.99281 0.852658 0)
(-2.12358 0.426067 0)
(-2.10037 -0.0690766 0)
(-1.8808 -0.603527 0)
(-1.52665 -1.12452 0)
(-1.13085 -1.55482 0)
(-0.801629 -1.82689 0)
(-0.535523 -1.98744 0)
(-0.306216 -2.0811 0)
(-0.0992637 -2.12306 0)
(0.0993008 -2.12305 0)
(0.306255 -2.08109 0)
(0.535567 -1.98743 0)
(0.801677 -1.82687 0)
(1.13091 -1.55479 0)
(1.52671 -1.12447 0)
(1.88086 -0.603468 0)
(2.10041 -0.0690149 0)
(2.12361 0.426128 0)
(1.99283 0.852715 0)
(1.76592 1.19961 0)
(1.48325 1.47308 0)
(1.17093 1.68093 0)
(0.843447 1.82986 0)
(0.508279 1.92467 0)
(0.16952 1.96652 0)
(-0.19398 2.32947 0)
(-0.582833 2.28675 0)
(-0.971793 2.18807 0)
(-1.35912 2.03022 0)
(-1.73649 1.80169 0)
(-2.07727 1.47934 0)
(-2.32156 1.03011 0)
(-2.35992 0.447213 0)
(-2.1027 -0.265578 0)
(-1.58975 -1.06319 0)
(-1.16167 -1.57949 0)
(-0.859244 -1.87712 0)
(-0.628277 -2.06022 0)
(-0.433764 -2.17767 0)
(-0.254875 -2.25164 0)
(-0.0838493 -2.28455 0)
(0.0838789 -2.28455 0)
(0.254906 -2.25163 0)
(0.433797 -2.17766 0)
(0.628314 -2.06021 0)
(0.859288 -1.87709 0)
(1.16172 -1.57945 0)
(1.58982 -1.06312 0)
(2.10276 -0.265494 0)
(2.35996 0.44729 0)
(2.32158 1.03018 0)
(2.07728 1.4794 0)
(1.73649 1.80174 0)
(1.35911 2.03027 0)
(0.971788 2.18811 0)
(0.58283 2.28678 0)
(0.193979 2.3295 0)
(-0.218723 2.74268 0)
(-0.658817 2.70206 0)
(-1.10499 2.60565 0)
(-1.55964 2.44671 0)
(-2.01041 2.1932 0)
(-2.39363 1.77294 0)
(-2.53883 1.13045 0)
(-2.27165 0.236047 0)
(-1.64689 -0.873274 0)
(-1.22686 -1.51159 0)
(-0.958526 -1.8677 0)
(-0.766738 -2.09062 0)
(-0.598718 -2.2436 0)
(-0.432962 -2.35204 0)
(-0.26213 -2.4235 0)
(-0.0879439 -2.45436 0)
(0.0879712 -2.45436 0)
(0.262158 -2.42349 0)
(0.432992 -2.35203 0)
(0.59875 -2.24359 0)
(0.766773 -2.0906 0)
(0.958566 -1.86767 0)
(1.22692 -1.51154 0)
(1.64696 -0.87319 0)
(2.27172 0.236163 0)
(2.53886 1.13054 0)
(2.39363 1.77301 0)
(2.0104 2.19325 0)
(1.55963 2.44676 0)
(1.10498 2.60568 0)
(0.65881 2.70209 0)
(0.218721 2.74271 0)
(-0.24205 3.20553 0)
(-0.731259 3.17166 0)
(-1.23514 3.08776 0)
(-1.7626 2.93524 0)
(-2.28337 2.62191 0)
(-2.59833 2.00774 0)
(-2.41622 0.964305 0)
(-1.75373 -0.477388 0)
(-1.33259 -1.31498 0)
(-1.12683 -1.75931 0)
(-0.993273 -2.03123 0)
(-0.847316 -2.23885 0)
(-0.681133 -2.39941 0)
(-0.498219 -2.51976 0)
(-0.303124 -2.6013 0)
(-0.102342 -2.63742 0)
(0.10237 -2.63742 0)
(0.303154 -2.6013 0)
(0.49825 -2.51975 0)
(0.681166 -2.3994 0)
(0.84735 -2.23884 0)
(0.993309 -2.03121 0)
(1.12687 -1.75927 0)
(1.33263 -1.31491 0)
(1.75379 -0.477277 0)
(2.41628 0.964445 0)
(2.59835 2.00784 0)
(2.28335 2.62198 0)
(1.76258 2.93528 0)
(1.23513 3.08779 0)
(0.731249 3.17169 0)
(0.242047 3.20555 0)
(-0.26152 3.71337 0)
(-0.792496 3.69299 0)
(-1.34869 3.63345 0)
(-1.94662 3.47288 0)
(-2.46023 3.02024 0)
(-2.51714 1.99633 0)
(-1.91243 0.243093 0)
(-1.46342 -0.906087 0)
(-1.31711 -1.48923 0)
(-1.27459 -1.83657 0)
(-1.16914 -2.14372 0)
(-1.0041 -2.3964 0)
(-0.801502 -2.58657 0)
(-0.580853 -2.72356 0)
(-0.351253 -2.81473 0)
(-0.118399 -2.85487 0)
(0.118427 -2.85487 0)
(0.351282 -2.81473 0)
(0.580886 -2.72356 0)
(0.801538 -2.58656 0)
(1.00414 -2.39639 0)
(1.16918 -2.14369 0)
(1.27462 -1.83653 0)
(1.31714 -1.48918 0)
(1.46347 -0.905995 0)
(1.91249 0.243232 0)
(2.51717 1.99647 0)
(2.46022 3.02032 0)
(1.94658 3.47292 0)
(1.34867 3.63348 0)
(0.792481 3.693 0)
(0.261515 3.71339 0)
(-0.274174 4.25647 0)
(-0.832584 4.25682 0)
(-1.42946 4.22244 0)
(-2.05268 3.99468 0)
(-2.42676 3.25325 0)
(-2.10073 1.44083 0)
(-1.59412 -0.190225 0)
(-1.42229 -1.04431 0)
(-1.50664 -1.46757 0)
(-1.51545 -1.90142 0)
(-1.39099 -2.30042 0)
(-1.18064 -2.60671 0)
(-0.927444 -2.82328 0)
(-0.662391 -2.96979 0)
(-0.397733 -3.06534 0)
(-0.133747 -3.10702 0)
(0.133772 -3.10702 0)
(0.397759 -3.06535 0)
(0.662422 -2.96979 0)
(0.927482 -2.82328 0)
(1.18068 -2.6067 0)
(1.39104 -2.30039 0)
(1.51548 -1.90137 0)
(1.50666 -1.46751 0)
(1.42229 -1.04424 0)
(1.59416 -0.190085 0)
(2.1008 1.44105 0)
(2.42676 3.25337 0)
(2.05264 3.99473 0)
(1.42942 4.22246 0)
(0.832565 4.25682 0)
(0.274168 4.25647 0)
(-0.277403 4.81807 0)
(-0.844076 4.84369 0)
(-1.46567 4.81704 0)
(-2.05062 4.45678 0)
(-2.18827 3.26685 0)
(-1.71279 0.947195 0)
(-1.42709 -0.398887 0)
(-1.5059 -0.960021 0)
(-1.66048 -1.38509 0)
(-1.6763 -1.96432 0)
(-1.56585 -2.47158 0)
(-1.33369 -2.86104 0)
(-1.03589 -3.10645 0)
(-0.728093 -3.25335 0)
(-0.433703 -3.34573 0)
(-0.146292 -3.38631 0)
(0.146307 -3.38632 0)
(0.43372 -3.34574 0)
(0.728119 -3.25336 0)
(1.03592 -3.10646 0)
(1.33373 -2.86103 0)
(1.56588 -2.47154 0)
(1.67631 -1.96425 0)
(1.66048 -1.38501 0)
(1.50589 -0.95996 0)
(1.42711 -0.398776 0)
(1.71282 0.947387 0)
(2.18829 3.26706 0)
(2.05058 4.45683 0)
(1.46563 4.81704 0)
(0.844052 4.84368 0)
(0.277395 4.81805 0)
(-0.268184 5.38008 0)
(-0.816512 5.42948 0)
(-1.41868 5.36972 0)
(-1.91694 4.81329 0)
(-1.80593 2.84264 0)
(-1.44419 0.682552 0)
(-1.32878 -0.389792 0)
(-1.5021 -0.809312 0)
(-1.6369 -1.29859 0)
(-1.69344 -1.9992 0)
(-1.62407 -2.64912 0)
(-1.4048 -3.14354 0)
(-1.09259 -3.4334 0)
(-0.759713 -3.57466 0)
(-0.446988 -3.65244 0)
(-0.152976 -3.68876 0)
(0.152971 -3.68876 0)
(0.446985 -3.65245 0)
(0.759727 -3.57468 0)
(1.09261 -3.43342 0)
(1.40483 -3.14353 0)
(1.62408 -2.64907 0)
(1.69343 -1.99912 0)
(1.63687 -1.2985 0)
(1.50206 -0.809257 0)
(1.32876 -0.389727 0)
(1.44421 0.682719 0)
(1.80595 2.84292 0)
(1.9169 4.81337 0)
(1.41863 5.36972 0)
(0.816484 5.42946 0)
(0.268175 5.38005 0)
(-0.244846 5.91058 0)
(-0.745288 5.96989 0)
(-1.2737 5.84399 0)
(-1.651 5.04332 0)
(-1.45631 2.50225 0)
(-1.21881 0.546913 0)
(-1.1797 -0.306301 0)
(-1.31599 -0.686019 0)
(-1.42716 -1.21688 0)
(-1.56534 -2.0334 0)
(-1.524 -2.82124 0)
(-1.32614 -3.43412 0)
(-1.04297 -3.77547 0)
(-0.735576 -3.9053 0)
(-0.425021 -3.9645 0)
(-0.149538 -3.99006 0)
(0.149511 -3.99006 0)
(0.424994 -3.96453 0)
(0.73557 -3.90533 0)
(1.04297 -3.77549 0)
(1.32613 -3.43411 0)
(1.52399 -2.82117 0)
(1.56529 -2.0333 0)
(1.4271 -1.21678 0)
(1.31594 -0.685966 0)
(1.17966 -0.306248 0)
(1.21881 0.547062 0)
(1.45631 2.50252 0)
(1.65098 5.04343 0)
(1.27365 5.84398 0)
(0.745257 5.96985 0)
(0.244837 5.91053 0)
(-0.208417 6.38054 0)
(-0.634045 6.43203 0)
(-1.05827 6.22952 0)
(-1.29543 5.17374 0)
(-1.15964 2.26723 0)
(-0.992119 0.463997 0)
(-0.938861 -0.260035 0)
(-0.978127 -0.621401 0)
(-0.995154 -1.06041 0)
(-1.12703 -1.84248 0)
(-1.20959 -2.88402 0)
(-1.0534 -3.65922 0)
(-0.848962 -4.0585 0)
(-0.643865 -4.1853 0)
(-0.365927 -4.24467 0)
(-0.13305 -4.26271 0)
(0.133017 -4.26271 0)
(0.365892 -4.24471 0)
(0.643841 -4.18535 0)
(0.848924 -4.05853 0)
(1.05337 -3.65919 0)
(1.20954 -2.8839 0)
(1.12691 -1.84231 0)
(0.995073 -1.06032 0)
(0.978078 -0.621366 0)
(0.93882 -0.259998 0)
(0.992113 0.464133 0)
(1.15962 2.26748 0)
(1.29541 5.1739 0)
(1.05822 6.22951 0)
(0.634013 6.43197 0)
(0.208408 6.38047 0)
(-0.16227 6.76361 0)
(-0.491586 6.79368 0)
(-0.803518 6.51706 0)
(-0.9138 5.1939 0)
(-0.897615 2.15814 0)
(-0.76411 0.406095 0)
(-0.673801 -0.306585 0)
(-0.609183 -0.664282 0)
(-0.472772 -0.997175 0)
(-0.514475 -1.69472 0)
(-0.594777 -2.77571 0)
(-0.660174 -3.72066 0)
(-0.567151 -4.21954 0)
(-0.499135 -4.37943 0)
(-0.286773 -4.46651 0)
(-0.106174 -4.48693 0)
(0.106162 -4.48693 0)
(0.286761 -4.46654 0)
(0.499104 -4.37947 0)
(0.567102 -4.21955 0)
(0.660108 -3.72062 0)
(0.594703 -2.77556 0)
(0.514401 -1.69459 0)
(0.472734 -0.997147 0)
(0.609143 -0.664267 0)
(0.673762 -0.30656 0)
(0.764101 0.406215 0)
(0.89759 2.15839 0)
(0.913779 5.19411 0)
(0.803467 6.51704 0)
(0.491555 6.7936 0)
(0.162261 6.76352 0)
(-0.110334 7.04379 0)
(-0.328425 7.04668 0)
(-0.531691 6.70562 0)
(-0.550962 5.19312 0)
(-0.647936 2.12318 0)
(-0.558348 0.347718 0)
(-0.447081 -0.439134 0)
(-0.324768 -0.81352 0)
(-0.189319 -1.10522 0)
(-0.161101 -1.72228 0)
(-0.203987 -2.66937 0)
(-0.326926 -3.64087 0)
(-0.33435 -4.25204 0)
(-0.342735 -4.48931 0)
(-0.211 -4.62088 0)
(-0.0766021 -4.65534 0)
(0.076604 -4.65536 0)
(0.211007 -4.62088 0)
(0.342706 -4.48933 0)
(0.33431 -4.25202 0)
(0.326861 -3.6408 0)
(0.203913 -2.66925 0)
(0.161069 -1.72218 0)
(0.189298 -1.10519 0)
(0.324741 -0.813506 0)
(0.447048 -0.439111 0)
(0.558336 0.347836 0)
(0.647897 2.12342 0)
(0.550932 5.19335 0)
(0.531649 6.70559 0)
(0.3284 7.04659 0)
(0.110327 7.04368 0)
(-0.0564409 7.21413 0)
(-0.162008 7.18479 0)
(-0.257172 6.80358 0)
(-0.205459 5.22924 0)
(-0.389561 2.16156 0)
(-0.373432 0.303115 0)
(-0.25094 -0.59495 0)
(-0.141372 -0.94791 0)
(-0.0519384 -1.17986 0)
(0.0126721 -1.75956 0)
(0.0260024 -2.61936 0)
(-0.0770863 -3.51516 0)
(-0.192239 -4.19298 0)
(-0.207783 -4.54041 0)
(-0.148333 -4.71999 0)
(-0.0511939 -4.77397 0)
(0.05114 -4.77399 0)
(0.148285 -4.71998 0)
(0.20774 -4.54042 0)
(0.192189 -4.19294 0)
(0.0770235 -3.51509 0)
(-0.026057 -2.61926 0)
(-0.0126962 -1.75948 0)
(0.0519091 -1.17982 0)
(0.141352 -0.947901 0)
(0.250906 -0.594924 0)
(0.373417 0.303241 0)
(0.389499 2.16181 0)
(0.205416 5.22946 0)
(0.257147 6.80354 0)
(0.161992 7.18468 0)
(0.0564365 7.21401 0)
(-0.00705819 7.27139 0)
(-0.00567665 7.22203 0)
(-0.0186768 6.80443 0)
(0.141218 5.27813 0)
(-0.108205 2.27476 0)
(-0.195596 0.290916 0)
(-0.0559031 -0.72522 0)
(-0.0299527 -1.0121 0)
(0.0294533 -1.25696 0)
(0.102368 -1.80929 0)
(0.119898 -2.589 0)
(0.0608617 -3.41526 0)
(-0.0951095 -4.09613 0)
(-0.115466 -4.55287 0)
(-0.0949972 -4.78191 0)
(-0.0322827 -4.85263 0)
(0.0321798 -4.85262 0)
(0.0948944 -4.78195 0)
(0.115413 -4.55288 0)
(0.0950494 -4.09611 0)
(-0.060905 -3.41519 0)
(-0.119929 -2.58891 0)
(-0.102388 -1.80922 0)
(-0.0294863 -1.25692 0)
(0.0299298 -1.01209 0)
(0.0558558 -0.72519 0)
(0.19557 0.291066 0)
(0.108117 2.27504 0)
(-0.141248 5.27831 0)
(0.0186761 6.80438 0)
(0.00567283 7.22192 0)
(0.00705877 7.27126 0)
(0.024301 7.24025 0)
(0.116724 7.17219 0)
(0.181717 6.71086 0)
(0.430006 5.27883 0)
(0.197971 2.49862 0)
(-0.00424873 0.331867 0)
(0.124181 -0.791254 0)
(0.0352704 -1.01896 0)
(0.0894138 -1.33757 0)
(0.134012 -1.85304 0)
(0.148465 -2.57355 0)
(0.113987 -3.33428 0)
(0.00453259 -3.99867 0)
(-0.0611423 -4.53407 0)
(-0.0460459 -4.82004 0)
(-0.0185847 -4.89891 0)
(0.0186603 -4.8989 0)
(0.046106 -4.82008 0)
(0.0611536 -4.53407 0)
(-0.00454209 -3.99865 0)
(-0.114003 -3.33422 0)
(-0.148474 -2.57347 0)
(-0.134021 -1.85297 0)
(-0.0894354 -1.33753 0)
(-0.035303 -1.01894 0)
(-0.124243 -0.791216 0)
(0.00420585 0.332032 0)
(-0.198062 2.49889 0)
(-0.430003 5.27893 0)
(-0.181702 6.7108 0)
(-0.116714 7.17208 0)
(-0.0242972 7.24013 0)
(0.0538718 7.13878 0)
(0.207817 7.04356 0)
(0.335273 6.54777 0)
(0.625792 5.19216 0)
(0.460879 2.73695 0)
(0.210376 0.399773 0)
(0.277773 -0.751394 0)
(0.076293 -1.02823 0)
(0.138923 -1.38187 0)
(0.141387 -1.87528 0)
(0.149205 -2.56616 0)
(0.12941 -3.27911 0)
(0.0622386 -3.91476 0)
(-0.0168502 -4.49814 0)
(-0.00260099 -4.83792 0)
(-0.00764567 -4.91623 0)
(0.00764576 -4.91622 0)
(0.00259254 -4.83791 0)
(0.0168571 -4.49812 0)
(-0.0622204 -3.91474 0)
(-0.129403 -3.27905 0)
(-0.149199 -2.56608 0)
(-0.14138 -1.8752 0)
(-0.138932 -1.38181 0)
(-0.0763262 -1.02819 0)
(-0.277826 -0.751343 0)
(-0.210413 0.399948 0)
(-0.460933 2.73719 0)
(-0.625742 5.19223 0)
(-0.335241 6.54771 0)
(-0.207793 7.04346 0)
(-0.0538644 7.13867 0)
(0.0737479 6.9869 0)
(0.26306 6.86344 0)
(0.43457 6.34275 0)
(0.729694 5.06096 0)
(0.669511 2.96626 0)
(0.47356 0.498976 0)
(0.491043 -0.607764 0)
(0.233948 -0.964031 0)
(0.191134 -1.34893 0)
(0.146726 -1.86799 0)
(0.13868 -2.55676 0)
(0.127533 -3.24479 0)
(0.087885 -3.85932 0)
(0.0470321 -4.46146 0)
(0.0364255 -4.82948 0)
(0.00214074 -4.91081 0)
(-0.00208141 -4.91079 0)
(-0.0363693 -4.82949 0)
(-0.0469885 -4.46145 0)
(-0.0878415 -3.85929 0)
(-0.127503 -3.24473 0)
(-0.138652 -2.55667 0)
(-0.146703 -1.8679 0)
(-0.191125 -1.34885 0)
(-0.23396 -0.963971 0)
(-0.491075 -0.607706 0)
(-0.473566 0.499124 0)
(-0.669491 2.96643 0)
(-0.72961 5.06102 0)
(-0.434519 6.3427 0)
(-0.263023 6.86336 0)
(-0.0737373 6.9868 0)
(0.0827644 6.80798 0)
(0.284502 6.6588 0)
(0.47762 6.11759 0)
(0.75188 4.89954 0)
(0.775803 3.0827 0)
(0.701536 0.54454 0)
(0.692132 -0.410352 0)
(0.398458 -0.812498 0)
(0.22487 -1.23193 0)
(0.138074 -1.82189 0)
(0.119035 -2.54628 0)
(0.120117 -3.23232 0)
(0.109719 -3.83364 0)
(0.0996794 -4.43639 0)
(0.0661187 -4.79548 0)
(0.0141529 -4.88277 0)
(-0.0140566 -4.88272 0)
(-0.0660315 -4.79549 0)
(-0.0995861 -4.43637 0)
(-0.109657 -3.83359 0)
(-0.120071 -3.23224 0)
(-0.118994 -2.54619 0)
(-0.138037 -1.82179 0)
(-0.224844 -1.23183 0)
(-0.398455 -0.812419 0)
(-0.692149 -0.410291 0)
(-0.701521 0.544639 0)
(-0.775733 3.08282 0)
(-0.751781 4.89959 0)
(-0.477554 6.11757 0)
(-0.284456 6.65874 0)
(-0.0827513 6.80792 0)
(0.0815115 6.62271 0)
(0.275524 6.44944 0)
(0.472083 5.89095 0)
(0.717826 4.73001 0)
(0.831318 3.03285 0)
(0.822297 0.503212 0)
(0.767814 -0.200007 0)
(0.445327 -0.593654 0)
(0.20372 -1.06108 0)
(0.111585 -1.76213 0)
(0.100145 -2.5436 0)
(0.115893 -3.23897 0)
(0.129847 -3.82989 0)
(0.128438 -4.41791 0)
(0.0833414 -4.74279 0)
(0.0219947 -4.8341 0)
(-0.0218722 -4.8341 0)
(-0.083238 -4.74276 0)
(-0.128332 -4.41787 0)
(-0.129776 -3.82982 0)
(-0.115843 -3.23889 0)
(-0.100096 -2.5435 0)
(-0.111537 -1.76202 0)
(-0.203676 -1.06097 0)
(-0.445297 -0.593555 0)
(-0.767806 -0.199943 0)
(-0.822262 0.503264 0)
(-0.831241 3.03295 0)
(-0.717726 4.73007 0)
(-0.472009 5.89095 0)
(-0.275473 6.44941 0)
(-0.0814963 6.62267 0)
(0.0684865 6.45177 0)
(0.237383 6.25624 0)
(0.430158 5.66982 0)
(0.656056 4.54545 0)
(0.941279 2.88318 0)
(0.879403 0.549485 0)
(0.714743 0.0426103 0)
(0.356347 -0.336828 0)
(0.14245 -0.900075 0)
(0.0787202 -1.71862 0)
(0.0862981 -2.55386 0)
(0.11401 -3.26144 0)
(0.144052 -3.83709 0)
(0.13632 -4.39621 0)
(0.0869936 -4.68481 0)
(0.0240162 -4.77926 0)
(-0.0239467 -4.77928 0)
(-0.0869429 -4.68476 0)
(-0.136248 -4.39616 0)
(-0.143994 -3.837 0)
(-0.113965 -3.26135 0)
(-0.0862467 -2.55377 0)
(-0.0786644 -1.71852 0)
(-0.142388 -0.899961 0)
(-0.356277 -0.336714 0)
(-0.714689 0.042676 0)
(-0.879324 0.549501 0)
(-0.941204 2.88325 0)
(-0.655955 4.54551 0)
(-0.430079 5.66984 0)
(-0.237326 6.25625 0)
(-0.0684678 6.45177 0)
(0.0411416 6.31842 0)
(0.164762 6.09051 0)
(0.342021 5.45314 0)
(0.541311 4.30643 0)
(1.04003 2.66354 0)
(0.975367 0.841935 0)
(0.669291 0.378251 0)
(0.264732 -0.0519625 0)
(0.0834099 -0.766492 0)
(0.049732 -1.69929 0)
(0.0767817 -2.57735 0)
(0.113349 -3.29424 0)
(0.149312 -3.85004 0)
(0.133151 -4.3665 0)
(0.0849542 -4.63075 0)
(0.0235689 -4.72448 0)
(-0.0235404 -4.72448 0)
(-0.0849362 -4.63072 0)
(-0.133115 -4.36644 0)
(-0.149272 -3.84995 0)
(-0.113314 -3.29415 0)
(-0.0767357 -2.57726 0)
(-0.0496749 -1.6992 0)
(-0.0833423 -0.766389 0)
(-0.264644 -0.0518483 0)
(-0.669213 0.378322 0)
(-0.975292 0.841958 0)
(-1.03996 2.66361 0)
(-0.541207 4.30649 0)
(-0.341934 5.45318 0)
(-0.164701 6.09055 0)
(-0.0411207 6.31846 0)
(0.00836749 6.25404 0)
(0.0548416 5.97291 0)
(0.181011 5.26612 0)
(0.331992 3.99335 0)
(0.88479 2.27118 0)
(0.942898 1.14932 0)
(0.521716 0.721875 0)
(0.125301 0.231648 0)
(0.00873698 -0.678997 0)
(0.0201444 -1.70934 0)
(0.0676808 -2.61647 0)
(0.11072 -3.3315 0)
(0.143952 -3.86151 0)
(0.128909 -4.33122 0)
(0.0843267 -4.57998 0)
(0.022956 -4.67057 0)
(-0.0229296 -4.67057 0)
(-0.0843119 -4.57995 0)
(-0.128895 -4.33115 0)
(-0.143931 -3.86142 0)
(-0.110696 -3.33142 0)
(-0.0676445 -2.61639 0)
(-0.0200906 -1.70926 0)
(-0.00866582 -0.678912 0)
(-0.12521 0.231753 0)
(-0.521617 0.721954 0)
(-0.942837 1.14935 0)
(-0.884718 2.2712 0)
(-0.331897 3.9934 0)
(-0.180915 5.26618 0)
(-0.0547737 5.97298 0)
(-0.00834958 6.25412 0)
(-0.0351272 6.26021 0)
(-0.0778444 5.92629 0)
(-0.0336125 5.1307 0)
(0.198749 3.63958 0)
(0.646162 1.81647 0)
(0.75077 1.40433 0)
(0.18835 1.09934 0)
(-0.0549797 0.437761 0)
(-0.0807966 -0.662479 0)
(-0.0107509 -1.75826 0)
(0.0608204 -2.67046 0)
(0.108819 -3.36923 0)
(0.138144 -3.8738 0)
(0.129887 -4.30245 0)
(0.0864863 -4.52959 0)
(0.0231561 -4.61672 0)
(-0.0232091 -4.61675 0)
(-0.0865456 -4.52953 0)
(-0.129928 -4.30238 0)
(-0.138156 -3.87373 0)
(-0.10881 -3.36918 0)
(-0.0607911 -2.67041 0)
(0.0108003 -1.7582 0)
(0.0808646 -0.662412 0)
(0.0550668 0.437849 0)
(-0.188238 1.09943 0)
(-0.750697 1.40438 0)
(-0.646093 1.81652 0)
(-0.198672 3.6396 0)
(0.0337315 5.13077 0)
(0.0779317 5.92641 0)
(0.0351581 6.26034 0)
(-0.0981131 6.37256 0)
(-0.249236 5.96581 0)
(-0.299055 5.00608 0)
(0.259249 3.29355 0)
(0.302706 1.65626 0)
(0.369894 1.72239 0)
(-0.206084 1.4431 0)
(-0.236196 0.505098 0)
(-0.158156 -0.728318 0)
(-0.0322693 -1.84835 0)
(0.0614131 -2.73875 0)
(0.114036 -3.4085 0)
(0.141434 -3.88638 0)
(0.137769 -4.27826 0)
(0.090265 -4.47646 0)
(0.0241572 -4.56143 0)
(-0.0243267 -4.56147 0)
(-0.0904236 -4.47641 0)
(-0.137875 -4.27824 0)
(-0.14147 -3.88636 0)
(-0.114032 -3.40848 0)
(-0.0613875 -2.73872 0)
(0.0323153 -1.84831 0)
(0.158223 -0.728266 0)
(0.23628 0.505172 0)
(0.206182 1.44319 0)
(-0.369818 1.72247 0)
(-0.302624 1.65631 0)
(-0.259158 3.29355 0)
(0.299216 5.00617 0)
(0.24937 5.96598 0)
(0.0981557 6.37276 0)
(-0.190875 6.63168 0)
(-0.523554 6.11798 0)
(-0.618786 4.79618 0)
(0.0806372 2.89518 0)
(-0.0531087 1.73229 0)
(-0.142278 2.04237 0)
(-0.511406 1.62291 0)
(-0.391436 0.427148 0)
(-0.203452 -0.875137 0)
(-0.0320582 -1.9755 0)
(0.0770537 -2.81906 0)
(0.131196 -3.45003 0)
(0.157163 -3.901 0)
(0.150726 -4.2514 0)
(0.094667 -4.41723 0)
(0.0257779 -4.50347 0)
(-0.0259061 -4.50345 0)
(-0.0947688 -4.41727 0)
(-0.150809 -4.25143 0)
(-0.157188 -3.90104 0)
(-0.131185 -3.45004 0)
(-0.077022 -2.81905 0)
(0.0321079 -1.97548 0)
(0.20352 -0.875103 0)
(0.391529 0.427205 0)
(0.511511 1.62299 0)