/*--------------------------------*- C++ -*----------------------------------*\
  =========                 |
  \\      /  F ield         | OpenFOAM: The Open Source CFD Toolbox
   \\    /   O peration     | Website:  https://openfoam.org
    \\  /    A nd           | Version:  9
     \\/     M anipulation  |
\*---------------------------------------------------------------------------*/
FoamFile
{
    format      ascii;
    class       surfaceScalarField;
    location    "0.25";
    object      alphaPhi0.phase1;
}
// * * * * * * * * * * * * * * * * * * * * * * * * * * * * * * * * * * * * * //

dimensions      [0 3 -1 0 0 0 0];

internalField   nonuniform List<scalar> 
8032
(
-2.16486e-297
5.15623e-304
-8.9237e-291
2.08751e-297
-1.89762e-284
4.15792e-291
-2.71215e-278
5.61967e-285
-2.9427e-272
5.25896e-279
-2.63148e-266
3.70129e-273
-2.05653e-260
1.92712e-267
-1.47279e-254
5.8433e-262
-8.64631e-249
-1.43413e-249
-2.76695e-243
-3.1139e-243
-3.8863e-238
-1.56252e-237
-1.47787e-233
-2.83415e-232
-6.74801e-230
-1.30618e-227
-2.36001e-227
-7.46797e-224
-2.95161e-226
-3.82358e-221
8.34292e-228
-9.38645e-220
3.12959e-226
-9.41062e-220
2.45256e-227
-3.85538e-221
5.98363e-230
-6.4573e-224
6.42226e-234
-5.50586e-228
8.64384e-239
-5.85031e-233
4.69728e-244
-2.40233e-238
1.32122e-249
-4.329e-244
2.22492e-255
-2.32027e-250
3.13786e-261
7.49613e-263
4.16137e-267
2.79879e-268
4.8583e-273
5.77185e-274
4.71216e-279
8.79057e-280
3.50045e-285
1.0086e-285
1.74037e-291
8.26873e-292
4.26729e-298
4.27973e-298
1.0343e-304
-4.14836e-290
2.12066e-296
-1.53252e-283
7.65444e-290
-2.84863e-277
1.34936e-283
-3.55824e-271
1.55609e-277
-3.41128e-265
1.28006e-271
-2.71494e-259
7.9479e-266
-1.89927e-253
3.66078e-260
-1.22288e-247
9.65909e-255
-6.31862e-242
-1.22905e-242
-1.74397e-236
-2.13945e-236
-2.07203e-231
-9.05724e-231
-6.5939e-227
-1.37504e-225
-2.57847e-223
-5.2962e-221
-8.32844e-221
-2.59614e-217
-9.90496e-220
-1.22777e-214
2.08494e-221
-2.85303e-213
1.03438e-219
-2.85754e-213
8.55914e-221
-1.2341e-214
2.25307e-223
-2.22563e-217
2.79158e-227
-2.18842e-221
4.26572e-232
-2.64191e-226
2.64304e-237
-1.24711e-231
8.41555e-243
-2.58194e-237
1.57309e-248
-1.56784e-243
2.43069e-254
1.11794e-255
3.52629e-260
4.57187e-261
4.50029e-266
1.03081e-266
4.76869e-272
1.71505e-272
3.86823e-278
2.14865e-278
2.09908e-284
1.92292e-284
5.61382e-291
1.08615e-290
2.86067e-297
-4.24287e-283
3.49664e-289
-1.38333e-276
1.1213e-282
-2.24767e-270
1.73331e-276
-2.45189e-264
1.72091e-270
-2.05846e-258
1.23025e-264
-1.44016e-252
6.66435e-259
-8.88523e-247
2.67946e-253
-5.05839e-241
6.05955e-248
-2.26473e-235
-5.01171e-236
-5.32381e-230
-7.02934e-230
-5.31068e-225
-2.48902e-224
-1.4145e-220
-3.14859e-219
-4.7478e-217
-1.01587e-214
-1.4189e-214
-4.28912e-211
-1.60513e-213
-1.87534e-208
1.79048e-215
-4.12372e-207
1.64248e-213
-4.12715e-207
1.43933e-214
-1.88062e-208
4.08578e-217
-3.64984e-211
5.84195e-221
-4.126e-215
1.01458e-225
-5.64332e-220
7.22751e-231
-3.07988e-225
2.64346e-236
-7.42715e-231
5.58625e-242
-5.21344e-237
9.63112e-248
6.32801e-249
1.55605e-253
2.88608e-254
2.20951e-259
7.24172e-260
2.60278e-265
1.3395e-265
2.34552e-271
1.86417e-271
1.41327e-277
1.85227e-277
4.19455e-284
1.16118e-283
3.39259e-290
-2.9458e-276
3.47321e-282
-8.50731e-270
9.97119e-276
-1.20743e-263
1.3461e-269
-1.14915e-257
1.15933e-263
-8.40713e-252
7.18969e-258
-5.12404e-246
3.37652e-252
-2.75415e-240
1.17447e-246
-1.36627e-234
2.26218e-241
-5.23958e-229
-1.27269e-229
-1.03933e-223
-1.45442e-223
-8.66657e-219
-4.28643e-218
-1.93685e-214
-4.51317e-213
-5.6067e-211
-1.22612e-208
-1.55172e-208
-4.49768e-205
-1.66829e-207
-1.81824e-202
4.39993e-210
-3.78826e-201
1.67739e-207
-3.78951e-201
1.55736e-208
-1.82053e-202
4.76389e-211
-3.80335e-205
7.83611e-215
-4.90854e-209
1.54236e-219
-7.54331e-214
1.27041e-224
-4.76686e-219
5.41097e-230
-1.35359e-224
1.31868e-235
-1.11876e-230
2.59162e-241
2.13627e-242
4.76193e-247
1.10962e-247
7.68124e-253
3.16366e-253
1.02686e-258
6.64119e-259
1.04917e-264
1.04796e-264
7.16154e-271
1.17963e-270
2.40741e-277
8.37228e-277
2.76909e-283
-1.60954e-269
2.55539e-275
-4.04442e-263
6.43684e-269
-4.9836e-257
7.55561e-263
-4.10572e-251
5.62538e-257
-2.59196e-245
3.00495e-251
-1.36004e-239
1.21198e-245
-6.28312e-234
3.60902e-240
-2.67633e-228
5.8866e-235
-8.70039e-223
-2.25049e-223
-1.44589e-217
-2.11246e-217
-1.00617e-212
-5.17074e-212
-1.89617e-208
-4.54225e-207
-4.77391e-205
-1.04795e-202
-1.22312e-202
-3.38686e-199
-1.24958e-201
-1.26406e-196
-3.49296e-204
-2.5057e-195
1.24231e-201
-2.50576e-195
1.2194e-202
-1.26449e-196
4.01896e-205
-2.8489e-199
7.55039e-209
-4.14579e-203
1.67012e-213
-7.04619e-208
1.5929e-218
-5.13396e-213
7.9867e-224
-1.72844e-218
2.2864e-229
-1.70754e-224
5.23125e-235
5.01773e-236
1.11604e-240
3.03001e-241
2.08755e-246
1.00201e-246
3.2323e-252
2.43646e-252
3.82121e-258
4.44833e-258
3.01544e-264
5.78849e-264
1.17055e-270
4.74587e-270
1.81158e-276
-7.44599e-263
1.53967e-268
-1.59959e-256
3.33348e-262
-1.68593e-250
3.35632e-256
-1.18532e-244
2.13435e-250
-6.36782e-239
9.70151e-245
-2.83653e-233
3.31916e-239
-1.1105e-227
8.36018e-234
-4.005e-222
1.14634e-228
-1.09358e-216
-2.94408e-217
-1.51573e-211
-2.28148e-211
-8.81637e-207
-4.64415e-206
-1.41244e-202
-3.42596e-201
-3.1354e-199
-6.79336e-197
-7.42201e-197
-1.97231e-193
-7.22467e-196
-6.77256e-191
-3.83901e-198
-1.2874e-189
7.14519e-196
-1.28723e-189
7.37689e-197
-6.77166e-191
2.62323e-199
-1.65189e-193
5.55812e-203
-2.6626e-197
1.35982e-207
-4.88169e-202
1.49532e-212
-4.05133e-207
8.88663e-218
-1.6207e-212
3.03429e-223
-1.93466e-218
8.23414e-229
8.75317e-230
2.07757e-234
6.25803e-235
4.58954e-240
2.44461e-240
8.38212e-246
7.01166e-246
1.16745e-251
1.50827e-251
1.0842e-257
2.30991e-257
4.95058e-264
2.22691e-263
9.99172e-270
-2.98716e-256
7.8939e-262
-5.40431e-250
1.44456e-255
-4.79452e-244
1.22767e-249
-2.83287e-238
6.57135e-244
-1.27658e-232
2.50738e-238
-4.76218e-227
7.18426e-233
-1.55987e-221
1.51259e-227
-4.70782e-216
1.72963e-222
-1.07269e-210
-2.95692e-211
-1.23927e-205
-1.9012e-205
-6.06001e-201
-3.23848e-200
-8.3498e-197
-2.02834e-195
-1.66581e-193
-3.50655e-191
-3.62924e-191
-9.34288e-188
-3.38931e-190
-2.9366e-185
-1.99203e-192
-5.41229e-184
3.34816e-190
-5.41123e-184
3.60484e-191
-2.9357e-185
1.38813e-193
-7.80028e-188
3.25794e-197
-1.36525e-191
8.59833e-202
-2.6115e-196
1.07688e-206
-2.41149e-201
7.6025e-212
-1.14265e-206
3.13096e-217
-1.65894e-212
1.02314e-222
1.16635e-223
3.09985e-228
1.0022e-228
8.21095e-234
4.695e-234
1.7956e-239
1.61254e-239
2.99088e-245
4.14814e-245
3.31839e-251
7.58916e-251
1.80781e-257
8.73254e-257
4.67122e-263
-1.03809e-249
3.46627e-255
-1.5595e-243
5.282e-249
-1.14857e-237
3.73567e-243
-5.62913e-232
1.66137e-237
-2.10202e-226
5.25762e-232
-6.49416e-221
1.24764e-226
-1.76253e-215
2.174e-221
-4.41802e-210
2.05877e-216
-8.38346e-205
-2.34051e-205
-8.113e-200
-1.25888e-199
-3.3702e-195
-1.8163e-194
-4.04995e-191
-9.79359e-190
-7.41662e-188
-1.49455e-185
-1.47921e-185
-3.7128e-182
-1.33925e-184
-1.06251e-179
-7.27995e-187
-1.91952e-178
1.32425e-184
-1.91913e-178
1.47013e-185
-1.06218e-179
6.16587e-188
-3.09391e-182
1.57136e-191
-5.79571e-186
4.32656e-196
-1.11578e-190
6.02872e-201
-1.10277e-195
5.04008e-206
-6.13024e-201
2.52082e-211
-1.08466e-206
1.0034e-216
1.19939e-217
3.69415e-222
1.25319e-222
1.18737e-227
7.1248e-228
3.14638e-233
2.96522e-233
6.34177e-239
9.23054e-239
8.50347e-245
2.04103e-244
5.59467e-251
2.83537e-250
1.83007e-256
-3.07657e-243
1.28989e-248
-3.79973e-237
1.61928e-242
-2.29947e-231
9.42819e-237
-9.2561e-226
3.44823e-231
-2.83863e-220
8.96571e-226
-7.20866e-215
1.74736e-220
-1.6125e-209
2.50268e-215
-3.35081e-204
1.95499e-210
-5.31932e-199
-1.49414e-199
-4.3613e-194
-6.81652e-194
-1.56005e-189
-8.46864e-189
-1.65511e-185
-3.97778e-184
-2.82623e-182
-5.3816e-180
-5.13202e-180
-1.25068e-176
-4.55305e-179
-3.24625e-174
-2.1005e-181
-5.79041e-173
4.50986e-179
-5.78936e-173
5.10582e-180
-3.24552e-174
2.34729e-182
-1.04139e-176
6.40203e-186
-2.08287e-180
1.77402e-190
-3.93167e-185
2.64556e-195
-3.92455e-190
2.59426e-200
-2.51555e-195
1.57951e-205
-5.41064e-201
7.71832e-211
9.52668e-212
3.48366e-216
1.22095e-216
1.37109e-221
8.50063e-222
4.44258e-227
4.32612e-227
1.09343e-232
1.64439e-232
1.78815e-238
4.43428e-238
1.43272e-244
7.50433e-244
5.89312e-250
-7.6553e-237
4.01481e-242
-7.71231e-231
4.11785e-236
-3.80698e-225
1.95829e-230
-1.25038e-219
5.84721e-225
-3.13265e-214
1.24111e-219
-6.51892e-209
1.97656e-214
-1.20236e-203
2.32043e-209
-2.08271e-198
1.49652e-204
-2.7999e-193
-7.88812e-194
-1.9765e-188
-3.10926e-188
-6.15886e-184
-3.37503e-183
-5.793e-180
-1.38456e-178
-9.25393e-177
-1.64816e-174
-1.52397e-174
-3.55057e-171
-1.33442e-173
-8.34514e-169
-4.98554e-176
-1.47359e-167
1.3242e-173
-1.47338e-167
1.51786e-174
-8.34425e-169
7.68593e-177
-2.95612e-171
2.23804e-180
-6.37248e-175
6.08034e-185
-1.17566e-179
9.15722e-190
-1.09635e-184
1.03525e-194
-7.88713e-190
7.65557e-200
-2.04888e-195
4.6116e-205
5.81666e-206
2.56706e-210
9.19754e-211
1.24537e-215
7.89385e-216
4.9683e-221
4.94618e-221
1.5035e-226
2.31168e-226
3.01885e-232
7.65417e-232
2.96698e-238
1.58852e-237
1.52853e-243
-1.57505e-230
1.03127e-235
-1.28826e-224
8.59588e-230
-5.16435e-219
3.32127e-224
-1.37945e-213
8.05868e-219
-2.82012e-208
1.39173e-213
-4.82055e-203
1.80922e-208
-7.38711e-198
1.7453e-203
-1.08137e-192
9.36431e-199
-1.25341e-187
-3.5404e-188
-7.72855e-183
-1.22526e-182
-2.10317e-178
-1.16616e-177
-1.74053e-174
-4.13824e-173
-2.57721e-171
-4.26322e-169
-3.84285e-169
-8.38741e-166
-3.32985e-168
-1.78511e-163
-9.8037e-171
-3.12056e-162
3.30983e-168
-3.12022e-162
3.83122e-169
-1.78513e-163
2.14168e-171
-6.98377e-166
6.72103e-175
-1.64626e-169
1.78457e-179
-3.03937e-174
2.51073e-184
-2.40956e-179
3.18535e-189
-1.86583e-184
2.84306e-194
-5.80216e-190
2.11239e-199
2.70354e-200
1.45476e-204
5.29041e-205
8.73835e-210
5.62216e-210
4.31376e-215
4.35926e-215
1.61354e-220
2.51816e-220
3.99945e-226
1.02923e-225
4.84468e-232
2.63348e-231
3.11973e-237
-2.65122e-224
2.16424e-229
-1.75516e-218
1.46038e-223
-5.70419e-213
4.57017e-218
-1.23975e-207
8.99486e-213
-2.0768e-202
1.26446e-207
-2.94378e-197
1.34731e-202
-3.80723e-192
1.07815e-197
-4.80332e-187
4.88781e-193
-4.87835e-182
-1.38293e-182
-2.63665e-177
-4.21609e-177
-6.20589e-173
-3.4795e-172
-4.44446e-169
-1.05007e-167
-6.00973e-166
-9.19067e-164
-8.11362e-164
-1.62938e-160
-6.95779e-163
-3.14179e-158
-1.58812e-165
-5.40237e-157
6.92549e-163
-5.40196e-157
8.09567e-164
-3.14216e-158
4.997e-166
-1.3566e-160
1.7147e-169
-3.54116e-164
4.55595e-174
-6.83148e-169
5.44896e-179
-4.15757e-174
7.44045e-184
-3.21796e-179
7.94579e-189
-1.18028e-184
7.27091e-194
9.3976e-195
6.19872e-199
2.27698e-199
4.62276e-204
3.00433e-204
2.8345e-209
2.89333e-209
1.31588e-214
2.0744e-214
4.04291e-220
1.05101e-219
6.0637e-226
3.32907e-225
4.87692e-231
-3.62044e-218
3.68002e-223
-1.9395e-212
2.00678e-217
-5.11992e-207
5.08354e-212
-9.10561e-202
8.12968e-207
-1.26389e-196
9.35445e-202
-1.51172e-191
8.26101e-197
-1.68529e-186
5.57989e-192
-1.86413e-181
2.18259e-187
-1.66487e-176
-4.73915e-177
-7.80035e-172
-1.25602e-171
-1.56122e-167
-8.81622e-167
-9.49857e-164
-2.2266e-162
-1.1571e-160
-1.63063e-158
-1.07693e-158
-1.95796e-155
-6.85252e-158
-1.32571e-155
-1.08492e-160
-2.50443e-155
6.82781e-158
-2.50431e-155
1.12041e-158
-1.32558e-155
9.62498e-161
-1.69965e-155
3.65743e-164
-6.2621e-159
1.0154e-168
-1.33338e-163
9.32238e-174
-5.67693e-169
1.27231e-178
-3.875e-174
1.60202e-183
-1.61678e-179
1.80485e-188
2.34827e-189
1.90756e-193
7.05461e-194
1.77181e-198
1.15934e-198
1.35463e-203
1.39218e-203
7.83682e-209
1.24382e-208
2.99676e-214
7.84312e-214
5.58426e-220
3.08737e-219
5.61131e-225
-3.99488e-212
5.04311e-217
-1.73674e-206
2.22317e-211
-3.75009e-201
4.57175e-206
-5.5276e-196
5.98199e-201
-6.47992e-191
5.70608e-196
-6.68823e-186
4.2567e-191
-6.54032e-181
2.48169e-186
-6.3625e-176
8.52124e-182
-4.9329e-171
-1.40807e-171
-1.96522e-166
-3.1738e-166
-3.29137e-162
-1.8616e-161
-1.66722e-158
-3.87531e-157
-1.80279e-157
-1.95048e-155
-8.34373e-155
-1.08928e-153
-1.05542e-152
-2.17091e-151
-1.41516e-155
-3.54139e-150
1.05254e-152
-3.5413e-150
9.20002e-155
-2.17152e-151
6.10693e-157
-1.00989e-153
6.42972e-159
-4.03041e-155
1.97063e-163
-2.26669e-158
1.26566e-168
-6.90335e-164
1.52328e-173
-3.21462e-169
2.18137e-178
-1.39021e-174
3.01832e-183
3.94474e-184
3.96806e-188
1.4742e-188
4.61044e-193
3.03053e-193
4.41498e-198
4.55804e-198
3.19625e-203
5.09614e-203
1.52674e-208
4.01429e-208
3.54744e-214
1.97011e-213
4.45655e-219
-3.56195e-206
5.5546e-211
-1.26747e-200
1.98769e-205
-2.27116e-195
3.34605e-200
-2.83261e-190
3.6339e-195
-2.87092e-185
2.93347e-190
-2.60169e-180
1.89227e-185
-2.23604e-175
9.68799e-181
-1.8857e-170
2.92535e-176
-1.24201e-165
-3.54155e-166
-4.13398e-161
-6.66136e-161
-5.47211e-157
-3.08934e-156
-1.46545e-156
-1.84573e-155
-9.41255e-153
-1.13818e-151
-1.30808e-149
-1.46875e-148
-1.52316e-147
-2.69503e-146
-1.56227e-150
-4.22448e-145
1.52002e-147
-4.22443e-145
1.45035e-149
-2.69592e-146
3.46502e-152
-1.36942e-148
2.09515e-154
-1.57315e-150
3.33762e-158
-7.74627e-154
1.53319e-163
-1.11768e-158
1.25881e-168
-3.12273e-164
1.86816e-173
-9.80826e-170
3.11438e-178
4.08274e-179
5.08279e-183
1.89417e-183
7.39846e-188
4.87816e-188
8.9024e-193
9.21926e-193
8.09574e-198
1.29475e-197
4.84905e-203
1.27885e-202
1.40939e-208
7.85274e-208
2.21732e-213
-2.58731e-200
4.92993e-205
-7.65789e-195
1.44631e-199
-1.16436e-189
2.02544e-194
-1.25863e-184
1.86677e-189
-1.12113e-179
1.30624e-184
-8.92043e-175
7.40626e-180
-6.63013e-170
3.32974e-175
-4.73572e-165
8.69896e-171
-2.60062e-160
-7.33859e-161
-5.78868e-156
-9.35844e-156
-2.90806e-155
-1.46666e-154
-2.47276e-151
-2.65345e-150
-1.37868e-147
-1.43279e-146
-1.68425e-144
-1.62636e-143
-1.80528e-142
-2.74786e-141
-1.42218e-145
-4.13899e-140
1.80246e-142
-4.13899e-140
1.90141e-144
-2.74888e-141
4.99759e-147
-1.54427e-143
3.26932e-149
-2.10484e-145
4.2719e-153
-1.19251e-148
2.47607e-158
-1.47631e-153
1.21966e-163
-5.19539e-159
1.31455e-168
-1.2761e-164
2.20825e-173
2.90099e-174
4.06559e-178
1.51827e-178
6.98087e-183
4.61242e-183
1.02144e-187
1.05997e-187
1.14855e-192
1.84069e-192
8.57285e-198
2.26573e-197
3.11466e-203
1.73893e-202
6.14097e-208
-1.56016e-194
3.56569e-199
-3.93202e-189
8.73202e-194
-5.19369e-184
1.04129e-188
-4.93444e-179
8.33795e-184
-3.85024e-174
5.12842e-179
-2.63968e-169
2.54738e-174
-1.65553e-164
9.86938e-170
-9.80454e-160
2.17654e-165
-2.56131e-155
-7.31436e-156
-3.41314e-154
-5.22002e-154
-4.40428e-150
-2.15468e-149
-3.54687e-146
-3.23977e-145
-1.6589e-142
-1.48138e-141
-1.78152e-139
-1.47981e-138
-1.75765e-137
-2.30253e-136
-1.07178e-140
-3.33279e-135
1.75556e-137
-3.33282e-135
2.0498e-139
-2.30344e-136
5.92185e-142
-1.43245e-138
4.14243e-144
-2.31273e-140
6.38387e-148
-1.48975e-143
3.36972e-153
-2.25701e-148
2.02567e-158
-7.06977e-154
1.70739e-163
-2.17273e-159
2.61516e-168
3.44071e-169
4.77889e-173
1.78721e-173
8.3524e-178
5.52643e-178
1.31079e-182
1.36216e-182
1.66768e-187
2.67638e-187
1.46671e-192
3.88172e-192
6.4433e-198
3.60289e-197
1.56187e-202
-8.0361e-189
2.154e-193
-1.75886e-183
4.50111e-188
-2.03511e-178
4.66174e-183
-1.68417e-173
3.27009e-178
-1.12511e-168
1.75206e-173
-6.47031e-164
7.45165e-169
-3.34658e-159
2.42201e-164
-4.86451e-155
5.64501e-160
-2.09005e-153
-5.78757e-154
-5.06026e-149
-7.62055e-149
-5.49539e-145
-2.59722e-144
-4.17697e-141
-3.24739e-140
-1.64002e-137
-1.25848e-136
-1.54834e-134
-1.10693e-133
-1.40601e-132
-1.58639e-131
-6.7096e-136
-2.20665e-130
1.40472e-132
-2.20668e-130
1.81714e-134
-1.58704e-131
5.76554e-137
-1.09329e-133
4.31198e-139
-2.0871e-135
7.82976e-143
-1.52803e-138
5.17571e-148
-2.83236e-143
2.21099e-153
-1.0913e-148
2.90359e-158
-2.35801e-154
4.73434e-163
6.23763e-164
9.51871e-168
3.56339e-168
1.76504e-172
1.16899e-172
2.90155e-177
3.01812e-177
3.93744e-182
6.32502e-182
3.83534e-187
1.01605e-186
1.94241e-192
1.08714e-191
5.60835e-197
-3.59525e-183
1.11816e-187
-6.83234e-178
2.01488e-182
-6.82397e-173
1.81189e-177
-4.79732e-168
1.09716e-172
-2.67144e-163
4.994e-168
-1.26015e-158
1.77086e-163
-4.36738e-155
5.4065e-159
-7.93351e-153
7.99411e-155
-3.06685e-148
-8.41548e-149
-6.16976e-144
-9.12716e-144
-5.65192e-140
-2.56917e-139
-4.03879e-136
-2.67297e-135
-1.33226e-132
-8.78762e-132
-1.10581e-129
-6.80976e-129
-9.24195e-128
-8.99064e-127
-3.49933e-131
-1.20186e-125
9.23535e-128
-1.20189e-125
1.32455e-129
-8.99443e-127
4.61253e-132
-6.8671e-129
3.68808e-134
-1.5471e-130
7.88367e-138
-1.2869e-133
6.52736e-143
-2.91849e-138
3.41893e-148
-1.38387e-143
1.24708e-153
-3.64553e-149
8.26137e-158
1.91612e-158
1.98047e-162
7.42726e-163
4.28305e-167
2.83859e-167
8.02244e-172
8.35032e-172
1.22229e-176
1.96473e-176
1.34052e-181
3.55351e-181
7.78854e-187
4.36249e-186
2.6472e-191
-1.37743e-177
4.96847e-182
-2.25e-172
7.72221e-177
-1.90683e-167
5.96908e-172
-1.11943e-162
3.06709e-167
-5.13428e-158
1.16663e-162
-2.27106e-155
3.57895e-158
-2.80332e-152
9.09149e-154
-1.16002e-147
1.41113e-149
-3.69718e-143
-1.00385e-143
-6.18879e-139
-8.96924e-139
-4.79403e-135
-2.08596e-134
-3.20639e-131
-1.80716e-130
-8.89339e-128
-5.04517e-127
-6.49036e-125
-3.44664e-124
-4.99217e-123
-4.19293e-122
-1.52365e-126
-5.38704e-121
4.98934e-123
-5.38715e-121
7.93732e-125
-4.19472e-122
3.03231e-127
-3.55004e-124
2.59157e-129
-9.42056e-126
6.51684e-133
-8.90028e-129
6.76124e-138
-2.46939e-133
4.34147e-143
-1.44218e-138
1.93997e-148
-4.62768e-144
7.61661e-156
3.55305e-153
3.47478e-157
1.32069e-157
9.02212e-162
6.00896e-162
1.98797e-166
2.07017e-166
3.49882e-171
5.62664e-171
4.38191e-176
1.16214e-175
2.91615e-181
1.6341e-180
1.15479e-185
-4.52968e-172
1.88996e-176
-6.33173e-167
2.54018e-171
-4.52666e-162
1.68022e-166
-2.20964e-157
7.30362e-162
-9.99689e-156
2.33945e-157
-1.12557e-151
6.98231e-153
-4.09481e-147
1.6002e-148
-1.39325e-142
2.04254e-144
-3.66251e-138
-9.82327e-139
-5.10929e-134
-7.23228e-134
-3.35533e-130
-1.39031e-129
-2.08999e-126
-1.00378e-125
-4.87856e-123
-2.38226e-122
-3.13076e-120
-1.43572e-119
-2.21608e-118
-1.60976e-117
-5.54538e-122
-1.98788e-116
2.21506e-118
-1.98792e-116
3.90927e-120
-1.61044e-117
1.63815e-122
-1.51056e-119
1.49612e-124
-4.71224e-121
4.42257e-128
-5.05486e-124
5.75209e-133
-1.71572e-128
4.5322e-138
-1.2352e-133
2.46192e-143
-4.82887e-139
6.23594e-151
5.48986e-148
1.78726e-155
2.43811e-152
1.57413e-156
1.06836e-156
4.22515e-161
4.48881e-161
8.70908e-166
1.40102e-165
1.24843e-170
3.31205e-170
9.36076e-176
5.24758e-175
4.18593e-180
-1.30017e-166
6.2801e-171
-1.54214e-161
7.29249e-166
-9.11028e-157
4.13986e-161
-1.28837e-155
1.4883e-156
-4.8942e-151
4.87082e-152
-1.64197e-146
1.22557e-147
-4.91395e-142
2.30919e-143
-1.37477e-137
2.42393e-139
-2.98212e-133
-7.88545e-134
-3.47314e-129
-4.78545e-129
-1.99555e-125
-7.60813e-125
-1.11845e-121
-4.58168e-121
-2.19919e-118
-9.25431e-118
-1.24118e-115
-4.92396e-115
-8.08469e-114
-5.08972e-113
-1.68741e-117
-6.04167e-112
8.08166e-114
-6.04179e-112
1.58196e-115
-5.09189e-113
7.27246e-118
-5.29051e-115
7.09581e-120
-1.93629e-116
2.46397e-123
-2.35754e-119
4.01896e-128
-9.78868e-124
3.88967e-133
-8.69462e-129
2.56853e-138
-4.14203e-134
8.01315e-146
6.97596e-143
2.68393e-150
3.76734e-147
7.98565e-155
1.99945e-151
6.95162e-156
7.9536e-156
1.8832e-160
3.2887e-160
3.17764e-165
8.43244e-165
2.72697e-170
1.52908e-169
1.36253e-174
-3.22043e-161
1.8387e-165
-3.05775e-156
1.87488e-160
-5.14843e-155
8.45144e-156
-2.17045e-150
3.14974e-151
-7.12613e-146
8.52468e-147
-1.96797e-141
1.76337e-142
-4.84547e-137
2.73156e-138
-1.11468e-132
2.35807e-134
-1.99633e-128
-5.19247e-129
-1.94489e-124
-2.59855e-124
-1.06769e-120
-3.41875e-120
-4.91358e-117
-1.71893e-116
-8.14661e-114
-2.9586e-113
-4.04421e-111
-1.39092e-110
-2.424e-109
-1.3259e-108
-4.29017e-113
-1.51303e-107
2.42323e-109
-1.51306e-107
5.25796e-111
-1.32646e-108
2.65311e-113
-1.52519e-110
2.76479e-115
-6.53577e-112
1.12694e-118
-9.02905e-115
2.30602e-123
-4.58564e-119
2.7444e-128
-5.02993e-124
2.20304e-133
-2.92056e-129
8.48797e-141
7.29029e-138
3.45562e-145
4.78713e-142
1.24897e-149
3.09036e-146
3.80413e-154
1.49397e-150
2.37478e-155
5.52086e-155
6.90698e-160
2.32777e-159
7.06974e-165
3.96523e-164
4.10419e-169
-6.15235e-156
4.94121e-160
-1.75312e-154
3.7433e-155
-9.03014e-150
1.79102e-150
-3.15152e-145
5.49527e-146
-8.52437e-141
1.22271e-141
-1.93827e-136
2.07932e-137
-3.92689e-132
2.64816e-133
-7.42838e-128
1.88022e-129
-1.09912e-123
-2.80477e-124
-8.97593e-120
-1.15809e-119
-4.68312e-116
-1.26171e-115
-1.77196e-112
-5.30233e-112
-2.47981e-109
-7.78713e-109
-1.08304e-106
-3.23764e-106
-5.97303e-105
-2.84719e-104
-9.10062e-109
-3.12373e-103
5.97142e-105
-3.12379e-103
1.43482e-106
-2.84838e-104
7.95367e-109
-3.6194e-106
8.84978e-111
-1.81213e-107
4.23114e-114
-2.83946e-110
1.08651e-118
-1.76379e-114
1.59189e-123
-2.39144e-119
1.55339e-128
-1.69277e-124
7.41469e-136
6.26621e-133
3.66864e-140
5.00247e-137
1.61041e-144
3.92795e-141
5.95382e-149
2.30974e-145
1.70598e-153
1.03807e-149
4.54239e-155
3.38333e-154
1.51495e-159
1.11711e-158
1.06196e-163
-3.61046e-154
9.52639e-155
-3.07275e-149
7.91368e-150
-1.30595e-144
3.11409e-145
-3.75868e-140
7.85519e-141
-8.379e-136
1.43692e-136
-1.56913e-131
2.009e-132
-2.6163e-127
2.10364e-128
-4.06997e-123
1.22858e-124
-4.97871e-119
-1.24281e-119
-3.41571e-115
-4.23652e-115
-1.6837e-111
-3.82518e-111
-5.245e-108
-1.34521e-107
-6.2026e-105
-1.68809e-104
-2.38381e-102
-6.21302e-102
-1.20963e-100
-5.04247e-100
-1.60771e-104
-5.31955e-99
1.20934e-100
-5.31963e-99
3.21335e-102
-5.04455e-100
1.95933e-104
-7.07093e-102
2.32699e-106
-4.12696e-103
1.304e-109
-7.33189e-106
4.20324e-114
-5.56964e-110
7.59094e-119
-9.34387e-115
9.00417e-124
-8.06484e-120
5.34434e-131
4.43007e-128
3.21306e-135
4.29906e-132
1.71249e-139
4.1057e-136
7.68191e-144
2.93656e-140
2.66908e-148
1.6053e-144
6.28015e-153
6.36394e-149
4.98588e-155
1.61723e-153
2.76381e-158
-6.28495e-149
2.00685e-149
-4.41871e-144
1.37082e-144
-1.55066e-139
4.43486e-140
-3.68276e-135
9.19735e-136
-6.7694e-131
1.38325e-131
-1.04443e-126
1.59005e-127
-1.43347e-122
1.36897e-123
-1.83395e-118
6.5774e-120
-1.85621e-114
-4.5176e-115
-1.07225e-110
-1.27233e-110
-4.96094e-107
-9.52917e-107
-1.27415e-103
-2.80793e-103
-1.27473e-100
-3.01541e-100
-4.31227e-98
-9.8347e-98
-2.01326e-96
-7.36963e-96
-2.36023e-100
-7.47666e-95
2.01285e-96
-7.47677e-95
5.9038e-98
-7.37263e-96
3.96607e-100
-1.1374e-97
5.02606e-102
-7.71952e-99
3.29863e-105
-1.55435e-101
1.33495e-109
-1.44378e-105
2.97567e-114
-3.0001e-110
4.29043e-119
-3.15819e-115
3.18022e-126
2.57629e-123
2.32276e-130
3.0385e-127
1.50261e-134
3.52924e-131
8.17463e-139
3.07021e-135
3.442e-143
2.0414e-139
9.80821e-148
9.84326e-144
1.3951e-152
3.04251e-148
4.4542e-153
-8.96713e-144
3.46197e-144
-5.21331e-139
1.94422e-139
-1.51192e-134
5.17152e-135
-2.96505e-130
8.81826e-131
-4.49635e-126
1.09045e-126
-5.71762e-122
1.03064e-122
-6.46116e-118
7.29639e-119
-6.79894e-114
2.88454e-115
-5.69848e-110
-1.34721e-110
-2.77781e-106
-3.13767e-106
-1.19773e-102
-1.9512e-102
-2.53998e-99
-4.82437e-99
-2.15245e-96
-4.44069e-96
-6.41126e-94
-1.28487e-93
-2.75384e-92
-8.89397e-92
-2.87349e-96
-8.67864e-91
2.75333e-92
-8.67875e-91
8.89523e-94
-8.89755e-92
6.5964e-96
-1.50676e-93
8.91677e-98
-1.18588e-94
6.84853e-101
-2.70522e-97
3.48032e-105
-3.07195e-101
9.58867e-110
-7.91502e-106
1.68047e-114
-1.01647e-110
1.56338e-121
1.23252e-118
1.38686e-125
1.76628e-122
1.08853e-129
2.49495e-126
7.17809e-134
2.63973e-130
3.6602e-138
2.13468e-134
1.26209e-142
1.25188e-138
2.17086e-147
4.70639e-143
8.38031e-148
-1.04851e-138
4.88789e-139
-5.04662e-134
2.25698e-134
-1.21069e-129
4.93635e-130
-1.96211e-125
6.92124e-126
-2.45619e-121
7.03755e-122
-2.57529e-117
5.46942e-118
-2.39673e-113
3.18421e-114
-2.07457e-109
1.03603e-110
-1.44115e-105
-3.29629e-106
-6.4174e-102
-6.3553e-102
-2.36903e-98
-3.2851e-98
-4.15443e-95
-6.82588e-95
-2.98596e-92
-5.39453e-92
-7.8339e-90
-1.38636e-89
-3.09571e-88
-8.8692e-88
-2.89535e-92
-8.32533e-87
3.0952e-88
-8.32542e-87
1.09873e-89
-8.87274e-88
9.01414e-92
-1.64442e-89
1.29929e-93
-1.49604e-90
1.1669e-96
-3.86482e-93
7.44706e-101
-5.36433e-97
2.53973e-105
-1.71567e-101
5.41004e-110
-2.68857e-106
6.35359e-117
4.85126e-114
6.84376e-121
8.44499e-118
6.51456e-125
1.45059e-121
5.20408e-129
1.86648e-125
3.21109e-133
1.83562e-129
1.3385e-137
1.30918e-133
2.78094e-142
5.98571e-138
1.29631e-142
-1.00459e-133
5.6459e-134
-4.00852e-129
2.14372e-129
-7.96374e-125
3.85557e-125
-1.06751e-120
4.44547e-121
-1.10383e-116
3.71713e-117
-9.54715e-113
2.37566e-113
-7.31959e-109
1.13749e-109
-5.21223e-105
3.04676e-106
-3.00368e-101
-6.61793e-102
-1.26574e-97
-1.05754e-97
-3.83801e-94
-4.54953e-94
-5.57446e-91
-7.95724e-91
-3.40282e-88
-5.40899e-88
-7.8668e-86
-1.23622e-85
-2.85995e-84
-7.31331e-84
-2.41041e-88
-6.60481e-83
2.85952e-84
-6.60487e-83
1.11229e-85
-7.3162e-84
1.01201e-87
-1.4791e-85
1.55488e-89
-1.54973e-86
1.63157e-92
-4.53195e-89
1.30765e-96
-7.68669e-93
5.52888e-101
-3.05508e-97
1.43145e-105
-5.84343e-102
2.1362e-112
1.57117e-109
2.7932e-116
3.32124e-113
3.22313e-120
6.93654e-117
3.11704e-124
1.08534e-120
2.32534e-128
1.29799e-124
1.17045e-132
1.12574e-128
2.93329e-137
6.25911e-133
1.64844e-137
-7.88598e-129
5.33309e-129
-2.61275e-124
1.66526e-124
-4.30398e-120
2.46316e-120
-4.77637e-116
2.33571e-116
-4.08248e-112
1.60623e-112
-2.91417e-108
8.4428e-109
-1.84109e-104
3.32512e-105
-1.07869e-100
7.33429e-102
-5.16105e-97
-1.09039e-97
-2.04269e-93
-1.44619e-93
-5.09177e-90
-5.18499e-90
-6.13524e-87
-7.64699e-87
-3.18537e-84
-4.47929e-84
-6.49221e-82
-9.11613e-82
-2.17132e-80
-4.98983e-80
-1.6555e-84
-4.3364e-79
2.17103e-80
-4.33643e-79
9.22651e-82
-4.99178e-80
9.33378e-84
-1.097e-81
1.52806e-85
-1.31805e-82
1.87186e-88
-4.36128e-85
1.88392e-92
-9.03682e-89
9.89135e-97
-4.46841e-93
3.11245e-101
-1.04342e-97
5.94647e-108
4.18751e-105
9.43575e-112
1.07446e-108
1.31925e-115
2.72819e-112
1.54347e-119
5.1903e-116
1.3908e-123
7.54748e-120
8.44288e-128
7.95922e-124
2.54829e-132
5.3809e-128
1.72326e-132
-5.07121e-124
4.11759e-124
-1.3976e-119
1.05748e-119
-1.91156e-115
1.28656e-115
-1.75805e-111
1.00348e-111
-1.24299e-107
5.67608e-108
-7.32642e-104
2.45407e-104
-3.81535e-100
7.9512e-101
-1.83949e-96
1.44481e-97
-7.31279e-93
-1.47467e-93
-2.69642e-89
-1.62582e-89
-5.53033e-86
-4.86512e-86
-5.5376e-83
-6.06159e-83
-2.44909e-80
-3.06548e-80
-4.40297e-78
-5.56297e-78
-1.35471e-76
-2.81896e-76
-9.36923e-81
-2.35773e-75
1.35454e-76
-2.35775e-75
6.27031e-78
-2.82006e-76
7.07138e-80
-6.71238e-78
1.2331e-81
-9.2027e-79
1.76194e-84
-3.44393e-81
2.22645e-88
-8.71496e-85
1.45406e-92
-5.36714e-89
5.56048e-97
-1.53041e-93
1.37151e-103
9.18581e-101
2.64021e-107
2.85955e-104
4.47042e-111
8.82583e-108
6.32278e-115
2.04134e-111
6.87484e-119
3.60887e-115
5.02637e-123
4.62687e-119
1.82381e-127
3.80301e-123
1.48079e-127
-2.67122e-119
2.59718e-119
-6.13601e-115
5.48681e-115
-6.97857e-111
5.49147e-111
-5.32453e-107
3.52362e-107
-3.11636e-103
1.63963e-103
-1.51747e-99
5.83193e-100
-6.51592e-96
1.55476e-96
-2.58561e-92
2.32846e-93
-9.36896e-89
-1.63726e-89
-2.91038e-85
-1.50311e-85
-4.9163e-82
-3.76018e-82
-4.09815e-79
-3.96541e-79
-1.54641e-76
-1.73477e-76
-2.45382e-74
-2.8109e-74
-6.94564e-73
-1.31943e-72
-4.36496e-77
-1.06221e-71
6.94484e-73
-1.06222e-71
3.49085e-74
-1.31994e-72
4.40031e-76
-3.39037e-74
8.17003e-78
-5.27405e-75
1.36055e-80
-2.2312e-77
2.158e-84
-6.89277e-81
1.75606e-88
-5.29288e-85
8.16052e-93
-1.84329e-89
2.62278e-99
1.65874e-96
6.12341e-103
6.26108e-100
1.25501e-106
2.34856e-103
2.14426e-110
6.60289e-107
2.81034e-114
1.41897e-110
2.47101e-118
2.21141e-114
1.07571e-122
2.2095e-118
1.04586e-122
-1.37942e-114
1.33759e-114
-2.41289e-110
2.32482e-110
-2.09445e-106
1.9144e-106
-1.32715e-102
1.01073e-102
-6.43476e-99
3.86982e-99
-2.58978e-95
1.13256e-95
-9.17192e-92
2.48494e-92
-2.99601e-88
3.06895e-89
-1.00642e-84
-1.49241e-85
-2.56756e-81
-1.14324e-81
-3.57605e-78
-2.39488e-78
-2.4862e-75
-2.14196e-75
-8.01801e-73
-8.1219e-73
-1.12372e-70
-1.17666e-70
-2.9262e-69
-5.11913e-69
-1.67276e-73
-3.96731e-68
2.92589e-69
-3.96733e-68
1.59203e-70
-5.12109e-69
2.24876e-72
-1.41433e-70
4.44394e-74
-2.48055e-71
8.61778e-77
-1.18574e-73
1.71503e-80
-4.46988e-77
1.74194e-84
-4.28429e-81
9.83555e-89
-1.8225e-85
4.16121e-95
2.46616e-92
1.17792e-98
1.12792e-95
2.92081e-102
5.14074e-99
6.02404e-106
1.75651e-102
9.50679e-110
4.58765e-106
1.09064e-113
8.68933e-110
6.23938e-118
1.05521e-113
6.0711e-118
-5.79686e-110
5.6208e-110
-8.34411e-106
8.03913e-106
-5.71197e-102
5.44775e-102
-2.72254e-98
2.36695e-98
-1.09428e-94
7.4583e-95
-3.64174e-91
1.79646e-91
-1.06407e-87
3.24482e-88
-2.86166e-84
3.30687e-85
-8.82889e-81
-1.11694e-81
-1.85061e-77
-7.15554e-78
-2.12769e-74
-1.25745e-74
-1.23613e-71
-9.5573e-72
-3.41325e-69
-3.14721e-69
-4.22816e-67
-4.08238e-67
-1.013e-65
-1.64893e-65
-5.26975e-70
-1.25718e-64
1.0129e-65
-1.25718e-64
5.94768e-67
-1.64956e-65
9.4369e-69
-4.87524e-67
1.98415e-70
-9.57285e-68
4.47679e-73
-5.16789e-70
1.11729e-76
-2.37612e-73
1.41887e-80
-2.84552e-77
9.73187e-85
-1.47853e-81
5.48009e-91
3.01947e-88
1.88029e-94
1.67189e-91
5.63833e-98
9.25626e-95
1.40279e-101
3.84287e-98
2.92676e-105
1.21955e-101
4.28035e-109
2.80687e-105
2.97583e-113
4.142e-109
2.89598e-113
-1.98614e-105
1.92568e-105
-2.35318e-101
2.267e-101
-1.32597e-97
1.26457e-97
-4.81899e-94
4.52261e-94
-1.53237e-90
1.17311e-90
-4.21866e-87
2.32615e-87
-1.01727e-83
3.45996e-84
-2.42421e-80
2.91225e-81
-6.32173e-77
-6.8632e-78
-1.08927e-73
-3.68642e-74
-1.03514e-70
-5.4443e-71
-5.03549e-68
-3.52363e-68
-1.19277e-65
-1.01386e-65
-1.30725e-63
-1.25225e-63
-2.88172e-62
-4.87757e-62
-1.36423e-66
-3.57371e-61
2.88146e-62
-3.57372e-61
1.79919e-63
-4.87943e-62
3.25142e-65
-1.46408e-63
7.27065e-67
-3.03063e-64
1.90707e-69
-1.84677e-66
5.96503e-73
-1.03511e-69
9.48712e-77
-1.55014e-73
7.90154e-81
-9.83654e-78
5.9924e-87
3.04506e-84
2.49155e-90
2.03918e-87
9.03136e-94
1.37096e-90
2.81777e-97
6.91386e-94
7.76902e-101
2.66542e-97
1.38043e-104
7.45273e-101
1.166e-108
1.33604e-104
1.13488e-108
-5.54351e-101
5.37432e-101
-5.40775e-97
5.20919e-97
-2.50908e-93
2.39265e-93
-7.50924e-90
7.04615e-90