/*--------------------------------*- C++ -*----------------------------------*\
  =========                 |
  \\      /  F ield         | OpenFOAM: The Open Source CFD Toolbox
   \\    /   O peration     | Website:  https://openfoam.org
    \\  /    A nd           | Version:  9
     \\/     M anipulation  |
\*---------------------------------------------------------------------------*/
FoamFile
{
    format      ascii;
    class       volScalarField;
    location    "0.25";
    object      p;
}
// * * * * * * * * * * * * * * * * * * * * * * * * * * * * * * * * * * * * * //

dimensions      [1 -1 -2 0 0 0 0];

internalField   nonuniform List<scalar> 
4096
(
2.08968e-07
0
3.43694e-07
5.4939e-07
7.68926e-07
1.04319e-06
1.36365e-06
1.72214e-06
2.1002e-06
2.47953e-06
2.84201e-06
3.17097e-06
3.45133e-06
3.67049e-06
3.81841e-06
3.88823e-06
3.87623e-06
3.78218e-06
3.60905e-06
3.36314e-06
3.05358e-06
2.69214e-06
2.29266e-06
1.87056e-06
1.44222e-06
1.02436e-06
6.33301e-07
2.84291e-07
-9.20374e-09
-2.35618e-07
-3.8543e-07
-4.57854e-07
-0.0519317
-0.0519316
-0.0519314
-0.0519312
-0.051931
-0.0519307
-0.0519304
-0.05193
-0.0519296
-0.0519292
-0.0519288
-0.0519285
-0.0519282
-0.0519279
-0.0519278
-0.0519277
-0.0519277
-0.0519278
-0.051928
-0.0519283
-0.0519286
-0.051929
-0.0519294
-0.0519298
-0.0519302
-0.0519307
-0.0519311
-0.0519314
-0.0519317
-0.051932
-0.0519321
-0.0519322
-0.103864
-0.103863
-0.103863
-0.103863
-0.103863
-0.103862
-0.103862
-0.103862
-0.103861
-0.103861
-0.10386
-0.10386
-0.10386
-0.103859
-0.103859
-0.103859
-0.103859
-0.103859
-0.10386
-0.10386
-0.10386
-0.103861
-0.103861
-0.103861
-0.103862
-0.103862
-0.103863
-0.103863
-0.103864
-0.103864
-0.103864
-0.103864
-0.155796
-0.155795
-0.155795
-0.155795
-0.155795
-0.155794
-0.155794
-0.155793
-0.155793
-0.155792
-0.155792
-0.155792
-0.155791
-0.155791
-0.155791
-0.155791
-0.155791
-0.155791
-0.155791
-0.155791
-0.155792
-0.155792
-0.155793
-0.155793
-0.155794
-0.155794
-0.155795
-0.155795
-0.155795
-0.155796
-0.155796
-0.155796
-0.207728
-0.207728
-0.207727
-0.207727
-0.207727
-0.207726
-0.207726
-0.207725
-0.207725
-0.207724
-0.207723
-0.207723
-0.207723
-0.207722
-0.207722
-0.207722
-0.207722
-0.207722
-0.207722
-0.207723
-0.207723
-0.207724
-0.207724
-0.207725
-0.207725
-0.207726
-0.207726
-0.207727
-0.207727
-0.207728
-0.207728
-0.207728
-0.25966
-0.25966
-0.259659
-0.259659
-0.259659
-0.259658
-0.259657
-0.259657
-0.259656
-0.259656
-0.259655
-0.259654
-0.259654
-0.259653
-0.259653
-0.259653
-0.259653
-0.259653
-0.259654
-0.259654
-0.259654
-0.259655
-0.259656
-0.259656
-0.259657
-0.259658
-0.259658
-0.259659
-0.259659
-0.25966
-0.25966
-0.25966
-0.311592
-0.311592
-0.311592
-0.311591
-0.311591
-0.31159
-0.311589
-0.311589
-0.311588
-0.311587
-0.311586
-0.311586
-0.311585
-0.311585
-0.311584
-0.311584
-0.311584
-0.311584
-0.311585
-0.311585
-0.311586
-0.311586
-0.311587
-0.311588
-0.311589
-0.311589
-0.31159
-0.311591
-0.311591
-0.311592
-0.311592
-0.311592
-0.363525
-0.363524
-0.363524
-0.363524
-0.363523
-0.363522
-0.363521
-0.36352
-0.363519
-0.363518
-0.363518
-0.363517
-0.363516
-0.363516
-0.363515
-0.363515
-0.363515
-0.363515
-0.363516
-0.363516
-0.363517
-0.363518
-0.363519
-0.363519
-0.36352
-0.363521
-0.363522
-0.363523
-0.363524
-0.363524
-0.363525
-0.363525
-0.415457
-0.415457
-0.415457
-0.415456
-0.415455
-0.415454
-0.415453
-0.415452
-0.415451
-0.41545
-0.415449
-0.415448
-0.415447
-0.415446
-0.415446
-0.415446
-0.415446
-0.415446
-0.415446
-0.415447
-0.415448
-0.415449
-0.41545
-0.415451
-0.415452
-0.415453
-0.415454
-0.415455
-0.415456
-0.415457
-0.415457
-0.415457
-0.46739
-0.46739
-0.467389
-0.467388
-0.467388
-0.467386
-0.467385
-0.467384
-0.467382
-0.467381
-0.46738
-0.467379
-0.467378
-0.467377
-0.467376
-0.467376
-0.467376
-0.467376
-0.467377
-0.467378
-0.467379
-0.46738
-0.467381
-0.467382
-0.467384
-0.467385
-0.467386
-0.467388
-0.467389
-0.467389
-0.46739
-0.46739
-0.519323
-0.519323
-0.519322
-0.519321
-0.51932
-0.519319
-0.519317
-0.519316
-0.519314
-0.519312
-0.519311
-0.519309
-0.519308
-0.519307
-0.519307
-0.519306
-0.519306
-0.519307
-0.519307
-0.519308
-0.519309
-0.519311
-0.519312
-0.519314
-0.519316
-0.519317
-0.519319
-0.51932
-0.519321
-0.519322
-0.519323
-0.519323
-0.571256
-0.571256
-0.571255
-0.571254
-0.571253
-0.571251
-0.571249
-0.571247
-0.571245
-0.571243
-0.571242
-0.57124
-0.571238
-0.571237
-0.571237
-0.571236
-0.571236
-0.571237
-0.571237
-0.571238
-0.57124
-0.571242
-0.571243
-0.571245
-0.571247
-0.571249
-0.571251
-0.571253
-0.571254
-0.571255
-0.571256
-0.571256
-0.62319
-0.62319
-0.623189
-0.623188
-0.623186
-0.623184
-0.623182
-0.623179
-0.623177
-0.623174
-0.623172
-0.62317
-0.623168
-0.623167
-0.623166
-0.623166
-0.623166
-0.623166
-0.623167
-0.623168
-0.62317
-0.623172
-0.623174
-0.623177
-0.623179
-0.623182
-0.623184
-0.623186
-0.623187
-0.623189
-0.62319
-0.62319
-0.675124
-0.675124
-0.675123
-0.675121
-0.675119
-0.675117
-0.675114
-0.675111
-0.675108
-0.675105
-0.675102
-0.6751
-0.675098
-0.675096
-0.675095
-0.675095
-0.675095
-0.675095
-0.675096
-0.675098
-0.6751
-0.675102
-0.675105
-0.675108
-0.675111
-0.675114
-0.675117
-0.675119
-0.675121
-0.675123
-0.675124
-0.675124
-0.727059
-0.727058
-0.727057
-0.727055
-0.727053
-0.72705
-0.727047
-0.727043
-0.727039
-0.727036
-0.727033
-0.72703
-0.727027
-0.727025
-0.727024
-0.727023
-0.727023
-0.727024
-0.727025
-0.727027
-0.72703
-0.727033
-0.727036
-0.727039
-0.727043
-0.727046
-0.72705
-0.727053
-0.727055
-0.727057
-0.727058
-0.727059
-0.778995
-0.778994
-0.778992
-0.77899
-0.778987
-0.778983
-0.778979
-0.778975
-0.778971
-0.778966
-0.778962
-0.778959
-0.778956
-0.778953
-0.778951
-0.778951
-0.778951
-0.778951
-0.778953
-0.778956
-0.778959
-0.778962
-0.778966
-0.778971
-0.778975
-0.778979
-0.778983
-0.778987
-0.77899
-0.778992
-0.778994
-0.778994
-0.830931
-0.83093
-0.830928
-0.830925
-0.830921
-0.830917
-0.830912
-0.830907
-0.830902
-0.830897
-0.830892
-0.830887
-0.830883
-0.830881
-0.830878
-0.830877
-0.830877
-0.830878
-0.830881
-0.830883
-0.830887
-0.830892
-0.830897
-0.830902
-0.830907
-0.830912
-0.830917
-0.830921
-0.830925
-0.830928
-0.83093
-0.830931
-0.882868
-0.882867
-0.882865
-0.882861
-0.882857
-0.882851
-0.882846
-0.882839
-0.882833
-0.882827
-0.882821
-0.882815
-0.882811
-0.882807
-0.882805
-0.882803
-0.882803
-0.882805
-0.882807
-0.882811
-0.882815
-0.882821
-0.882826
-0.882833
-0.882839
-0.882845
-0.882851
-0.882857
-0.882861
-0.882865
-0.882867
-0.882868
-0.934807
-0.934805
-0.934802
-0.934798
-0.934793
-0.934786
-0.934779
-0.934772
-0.934764
-0.934756
-0.934749
-0.934742
-0.934737
-0.934732
-0.934729
-0.934728
-0.934728
-0.934729
-0.934732
-0.934737
-0.934742
-0.934749
-0.934756
-0.934764
-0.934772
-0.934779
-0.934786
-0.934793
-0.934798
-0.934802
-0.934805
-0.934807
-0.986747
-0.986745
-0.986742
-0.986736
-0.98673
-0.986722
-0.986713
-0.986704
-0.986695
-0.986685
-0.986676
-0.986668
-0.986662
-0.986656
-0.986653
-0.986651
-0.986651
-0.986653
-0.986656
-0.986662
-0.986668
-0.986676
-0.986685
-0.986695
-0.986704
-0.986713
-0.986722
-0.98673
-0.986736
-0.986741
-0.986745
-0.986747
-1.03869
-1.03869
-1.03868
-1.03868
-1.03867
-1.03866
-1.03865
-1.03864
-1.03863
-1.03861
-1.0386
-1.03859
-1.03859
-1.03858
-1.03857
-1.03857
-1.03857
-1.03857
-1.03858
-1.03859
-1.03859
-1.0386
-1.03861
-1.03863
-1.03864
-1.03865
-1.03866
-1.03867
-1.03868
-1.03868
-1.03869
-1.03869
-1.09063
-1.09063
-1.09063
-1.09062
-1.09061
-1.0906
-1.09058
-1.09057
-1.09056
-1.09054
-1.09053
-1.09052
-1.09051
-1.0905
-1.09049
-1.09049
-1.09049
-1.09049
-1.0905
-1.09051
-1.09052
-1.09053
-1.09054
-1.09056
-1.09057
-1.09058
-1.0906
-1.09061
-1.09062
-1.09062
-1.09063
-1.09063
-1.14258
-1.14258
-1.14257
-1.14256
-1.14255
-1.14254
-1.14252
-1.1425
-1.14249
-1.14247
-1.14245
-1.14244
-1.14243
-1.14242
-1.14241
-1.14241
-1.14241
-1.14241
-1.14242
-1.14243
-1.14244
-1.14245
-1.14247
-1.14249
-1.1425
-1.14252
-1.14254
-1.14255
-1.14256
-1.14257
-1.14258
-1.14258
-1.19453
-1.19453
-1.19452
-1.19451
-1.19449
-1.19448
-1.19446
-1.19444
-1.19442
-1.1944
-1.19438
-1.19436
-1.19434
-1.19433
-1.19432
-1.19432
-1.19432
-1.19432
-1.19433
-1.19434
-1.19436
-1.19438
-1.1944
-1.19442
-1.19444
-1.19446
-1.19448
-1.19449
-1.19451
-1.19452
-1.19453
-1.19453
-1.24648
-1.24648
-1.24647
-1.24646
-1.24644
-1.24642
-1.2464
-1.24637
-1.24635
-1.24632
-1.2463
-1.24628
-1.24626
-1.24624
-1.24623
-1.24623
-1.24623
-1.24623
-1.24624
-1.24626
-1.24628
-1.2463
-1.24632
-1.24635
-1.24637
-1.2464
-1.24642
-1.24644
-1.24646
-1.24647
-1.24648
-1.24648
-1.29844
-1.29844
-1.29843
-1.29841
-1.29839
-1.29836
-1.29834
-1.29831
-1.29827
-1.29824
-1.29822
-1.29819
-1.29817
-1.29815
-1.29814
-1.29813
-1.29813
-1.29814
-1.29815
-1.29817
-1.29819
-1.29822
-1.29824
-1.29827
-1.29831
-1.29834
-1.29836
-1.29839
-1.29841
-1.29843
-1.29844
-1.29844
-1.35041
-1.3504
-1.35039
-1.35037
-1.35034
-1.35031
-1.35028
-1.35024
-1.3502
-1.35017
-1.35013
-1.3501
-1.35007
-1.35005
-1.35004
-1.35003
-1.35003
-1.35004
-1.35005
-1.35007
-1.3501
-1.35013
-1.35017
-1.3502
-1.35024
-1.35028
-1.35031
-1.35034
-1.35037
-1.35039
-1.3504
-1.35041
-1.40238
-1.40237
-1.40236
-1.40233
-1.4023
-1.40226
-1.40222
-1.40218
-1.40213
-1.40209
-1.40204
-1.40201
-1.40197
-1.40195
-1.40193
-1.40192
-1.40192
-1.40193
-1.40195
-1.40197
-1.40201
-1.40204
-1.40209
-1.40213
-1.40218
-1.40222
-1.40226
-1.4023
-1.40233
-1.40236
-1.40237
-1.40238
-1.45436
-1.45435
-1.45433
-1.4543
-1.45426
-1.45422
-1.45417
-1.45411
-1.45406
-1.454
-1.45395
-1.45391
-1.45387
-1.45384
-1.45381
-1.4538
-1.4538
-1.45381
-1.45384
-1.45387
-1.45391
-1.45395
-1.454
-1.45406
-1.45411
-1.45417
-1.45422
-1.45426
-1.4543
-1.45433
-1.45435
-1.45436
-1.50635
-1.50634
-1.50632
-1.50628
-1.50623
-1.50618
-1.50612
-1.50605
-1.50598
-1.50592
-1.50586
-1.5058
-1.50575
-1.50571
-1.50569
-1.50568
-1.50568
-1.50569
-1.50571
-1.50575
-1.5058
-1.50586
-1.50592
-1.50598
-1.50605
-1.50612
-1.50618
-1.50623
-1.50628
-1.50632
-1.50634
-1.50635
-1.55836
-1.55834
-1.55831
-1.55827
-1.55821
-1.55815
-1.55807
-1.55799
-1.55791
-1.55783
-1.55775
-1.55769
-1.55763
-1.55758
-1.55755
-1.55753
-1.55753
-1.55755
-1.55758
-1.55763
-1.55769
-1.55775
-1.55783
-1.55791
-1.55799
-1.55807
-1.55815
-1.55821
-1.55827
-1.55831
-1.55834
-1.55836
-1.61038
-1.61036
-1.61032
-1.61027
-1.6102
-1.61012
-1.61003
-1.60993
-1.60983
-1.60974
-1.60964
-1.60956
-1.60949
-1.60943
-1.6094
-1.60938
-1.60938
-1.6094
-1.60943
-1.60949
-1.60956
-1.60964
-1.60974
-1.60983
-1.60993
-1.61003
-1.61012
-1.6102
-1.61027
-1.61032
-1.61036
-1.61038
-1.66242
-1.6624
-1.66235
-1.66229
-1.6622
-1.66211
-1.662
-1.66188
-1.66176
-1.66164
-1.66153
-1.66142
-1.66134
-1.66127
-1.66122
-1.6612
-1.6612
-1.66122
-1.66127
-1.66134
-1.66142
-1.66153
-1.66164
-1.66176
-1.66188
-1.662
-1.66211
-1.6622
-1.66229
-1.66235
-1.6624
-1.66242
-1.71448
-1.71445
-1.7144
-1.71432
-1.71422
-1.7141
-1.71397
-1.71383
-1.71368
-1.71353
-1.7134
-1.71327
-1.71317
-1.71309
-1.71303
-1.713
-1.713
-1.71303
-1.71309
-1.71317
-1.71327
-1.7134
-1.71353
-1.71368
-1.71383
-1.71397
-1.7141
-1.71422
-1.71432
-1.7144
-1.71445
-1.71448
-1.76657
-1.76654
-1.76648
-1.76638
-1.76626
-1.76611
-1.76595
-1.76578
-1.7656
-1.76542
-1.76526
-1.7651
-1.76498
-1.76488
-1.76481
-1.76477
-1.76477
-1.76481
-1.76488
-1.76498
-1.7651
-1.76526
-1.76542
-1.7656
-1.76578
-1.76595
-1.76611
-1.76626
-1.76638
-1.76648
-1.76654
-1.76657
-1.8187
-1.81866
-1.81858
-1.81847
-1.81832
-1.81814
-1.81794
-1.81773
-1.81751
-1.8173
-1.8171
-1.81691
-1.81676
-1.81663
-1.81655
-1.81651
-1.81651
-1.81655
-1.81663
-1.81676
-1.81691
-1.8171
-1.8173
-1.81751
-1.81773
-1.81794
-1.81814
-1.81832
-1.81847
-1.81858
-1.81866
-1.8187
-1.87086
-1.87082
-1.87072
-1.87058
-1.8704
-1.87019
-1.86995
-1.86969
-1.86943
-1.86917
-1.86892
-1.8687
-1.86851
-1.86836
-1.86825
-1.8682
-1.8682
-1.86825
-1.86836
-1.86851
-1.8687
-1.86892
-1.86917
-1.86943
-1.86969
-1.86995
-1.87019
-1.8704
-1.87058
-1.87072
-1.87082
-1.87086
-1.92308
-1.92302
-1.92291
-1.92274
-1.92252
-1.92226
-1.92197
-1.92166
-1.92134
-1.92102
-1.92072
-1.92045
-1.92022
-1.92003
-1.91991
-1.91984
-1.91984
-1.91991
-1.92003
-1.92022
-1.92045
-1.92072
-1.92102
-1.92134
-1.92166
-1.92197
-1.92226
-1.92252
-1.92274
-1.92291
-1.92302
-1.92308
-1.97536
-1.97529
-1.97515
-1.97495
-1.97469
-1.97437
-1.97402
-1.97364
-1.97325
-1.97286
-1.9725
-1.97216
-1.97188
-1.97166
-1.9715
-1.97142
-1.97142
-1.9715
-1.97166
-1.97188
-1.97216
-1.9725
-1.97286
-1.97325
-1.97364
-1.97402
-1.97437
-1.97469
-1.97495
-1.97515
-1.97529
-1.97536
-2.02771
-2.02763
-2.02746
-2.02722
-2.0269
-2.02652
-2.02609
-2.02563
-2.02515
-2.02468
-2.02424
-2.02383
-2.02349
-2.02321
-2.02302
-2.02292
-2.02292
-2.02302
-2.02321
-2.02349
-2.02383
-2.02424
-2.02468
-2.02515
-2.02563
-2.02609
-2.02652
-2.0269
-2.02722
-2.02746
-2.02763
-2.02771
-2.08015
-2.08006
-2.07986
-2.07956
-2.07917
-2.07871
-2.07819
-2.07763
-2.07706
-2.07649
-2.07594
-2.07545
-2.07502
-2.07469
-2.07445
-2.07433
-2.07433
-2.07445
-2.07469
-2.07502
-2.07545
-2.07594
-2.07649
-2.07706
-2.07763
-2.07819
-2.07871
-2.07917
-2.07956
-2.07986
-2.08006
-2.08015
-2.13271
-2.13259
-2.13235
-2.13199
-2.13152
-2.13096
-2.13033
-2.12966
-2.12896
-2.12826
-2.1276
-2.12699
-2.12647
-2.12606
-2.12577
-2.12563
-2.12563
-2.12577
-2.12606
-2.12647
-2.12699
-2.1276
-2.12826
-2.12896
-2.12966
-2.13033
-2.13096
-2.13152
-2.13199
-2.13235
-2.13259
-2.13271
-2.18539
-2.18525
-2.18496
-2.18453
-2.18396
-2.18329
-2.18253
-2.18171
-2.18086
-2.18001
-2.1792
-2.17846
-2.17782
-2.17732
-2.17696
-2.17678
-2.17678
-2.17696
-2.17732
-2.17782
-2.17846
-2.1792
-2.18001
-2.18086
-2.18171
-2.18253
-2.18329
-2.18396
-2.18453
-2.18496
-2.18525
-2.18539
-2.23823
-2.23806
-2.23772
-2.23719
-2.23652
-2.2357
-2.23478
-2.23379
-2.23276
-2.23173
-2.23074
-2.22983
-2.22905
-2.22842
-2.22799
-2.22777
-2.22777
-2.22799
-2.22842
-2.22905
-2.22983
-2.23074
-2.23173
-2.23276
-2.23379
-2.23478
-2.2357
-2.23652
-2.23719
-2.23772
-2.23806
-2.23823
-2.29127
-2.29107
-2.29065
-2.29002
-2.28921
-2.28823
-2.28712
-2.28592
-2.28467
-2.28341
-2.2822
-2.28109
-2.28012
-2.27935
-2.27882
-2.27854
-2.27854
-2.27882
-2.27935
-2.28012
-2.28109
-2.2822
-2.28341
-2.28467
-2.28592
-2.28712
-2.28823
-2.28921
-2.29002
-2.29065
-2.29107
-2.29127
-2.34454
-2.3443
-2.3438
-2.34305
-2.34207
-2.3409
-2.33956
-2.33811
-2.33659
-2.33506
-2.33358
-2.33221
-2.33102
-2.33007
-2.3294
-2.32906
-2.32906
-2.3294
-2.33007
-2.33102
-2.33221
-2.33358
-2.33506
-2.33659
-2.33811
-2.33956
-2.3409
-2.34207
-2.34305
-2.3438
-2.3443
-2.34454
-2.39809
-2.3978
-2.39721
-2.39631
-2.39515
-2.39374
-2.39213
-2.39038
-2.38853
-2.38667
-2.38486
-2.38318
-2.38171
-2.38052
-2.37969
-2.37927
-2.37927
-2.37969
-2.38052
-2.38171
-2.38318
-2.38486
-2.38667
-2.38853
-2.39038
-2.39213
-2.39374
-2.39515
-2.39631
-2.39721
-2.3978
-2.39809
-2.45198
-2.45163
-2.45093
-2.44987
-2.44848
-2.44679
-2.44487
-2.44275
-2.44052
-2.43825
-2.43603
-2.43396
-2.43214
-2.43066
-2.42962
-2.42908
-2.42908
-2.42962
-2.43066
-2.43214
-2.43396
-2.43603
-2.43825
-2.44052
-2.44275
-2.44487
-2.44679
-2.44848
-2.44987
-2.45093
-2.45163
-2.45198
-2.50627
-2.50586
-2.50503
-2.50378
-2.50212
-2.50012
-2.49782
-2.49528
-2.49258
-2.48982
-2.4871
-2.48454
-2.48227
-2.48041
-2.4791
-2.47842
-2.47842
-2.4791
-2.48041
-2.48227
-2.48454
-2.4871
-2.48982
-2.49258
-2.49528
-2.49782
-2.50012
-2.50212
-2.50377
-2.50503
-2.50586
-2.50627
-2.56104
-2.56057
-2.55959
-2.55811
-2.55617
-2.55379
-2.55105
-2.54801
-2.54476
-2.5414
-2.53806
-2.53489
-2.53205
-2.52971
-2.52804
-2.52716
-2.52716
-2.52804
-2.52971
-2.53205
-2.53489
-2.53806
-2.5414
-2.54476
-2.54801
-2.55105
-2.55379
-2.55617
-2.55811
-2.55959
-2.56057
-2.56104
-2.6164
-2.61585
-2.61471
-2.61298
-2.61069
-2.60789
-2.60465
-2.60102
-2.59711
-2.59303
-2.58894
-2.585
-2.58143
-2.57846
-2.57631
-2.57517
-2.57517
-2.57631
-2.57846
-2.58143
-2.585
-2.58894
-2.59303
-2.59711
-2.60102
-2.60465
-2.60789
-2.61069
-2.61298
-2.61471
-2.61584
-2.6164
-2.67245
-2.67181
-2.67049
-2.66847
-2.66581
-2.66254
-2.65871
-2.65441
-2.64973
-2.64479
-2.63978
-2.63488
-2.63038
-2.62656
-2.62376
-2.62227
-2.62227
-2.62376
-2.62656
-2.63038
-2.63488
-2.63978
-2.64479
-2.64973
-2.65441
-2.65871
-2.66254
-2.66581
-2.66847
-2.67048
-2.6718
-2.67245
-2.72932
-2.72858
-2.72706
-2.72474
-2.72166
-2.71786
-2.71339
-2.70832
-2.70275
-2.69681
-2.69067
-2.68458
-2.67887
-2.67392
-2.67022
-2.66822
-2.66822
-2.67022
-2.67392
-2.67887
-2.68458
-2.69067
-2.69681
-2.70275
-2.70832
-2.71339
-2.71786
-2.72166
-2.72474
-2.72706
-2.72858
-2.72932
-2.78716
-2.78632
-2.78459
-2.78195
-2.77842
-2.77404
-2.76886
-2.76294
-2.75636
-2.74926
-2.74179
-2.73422
-2.72694
-2.72047
-2.71549
-2.71274
-2.71274
-2.71549
-2.72047
-2.72694
-2.73422
-2.74179
-2.74926
-2.75636
-2.76294
-2.76886
-2.77404
-2.77842
-2.78194
-2.78459
-2.78632
-2.78716
-2.84614
-2.8452
-2.84325
-2.84027
-2.83627
-2.83129
-2.82535
-2.81851
-2.81083
-2.80241
-2.79339
-2.78402
-2.77472
-2.7662
-2.75935
-2.75545
-2.75545
-2.75935
-2.7662
-2.77472
-2.78402
-2.79339
-2.80241
-2.81083
-2.81851
-2.82535
-2.83129
-2.83627
-2.84027
-2.84325
-2.8452
-2.84614
-2.90647
-2.90542
-2.90326
-2.89993
-2.89545
-2.88985
-2.88313
-2.87533
-2.86649
-2.85666
-2.84591
-2.8344
-2.82253
-2.81119
-2.80154
-2.7958
-2.7958
-2.80154
-2.81119
-2.82253
-2.8344
-2.84591
-2.85666
-2.86649
-2.87533
-2.88313
-2.88985
-2.89545
-2.89993
-2.90326
-2.90542
-2.90647
-2.96838
-2.96723
-2.96485
-2.96118
-2.95623
-2.95001
-2.94252
-2.93377
-2.92377
-2.91253
-2.89997
-2.88605
-2.87095
-2.85581
-2.84194
-2.83321
-2.83321
-2.84194
-2.85581
-2.87095
-2.88605
-2.89997
-2.91253
-2.92377
-2.93376
-2.94252
-2.95001
-2.95623
-2.96118
-2.96485
-2.96723
-2.96838
-3.03212
-3.03088
-3.0283
-3.02431
-3.0189
-3.01209
-3.00385
-2.99417
-2.9831
-2.97063
-2.95641
-2.94005
-2.92122
-2.90147
-2.88201
-2.86868
-2.86868
-2.88201
-2.90147
-2.92122
-2.94005
-2.95641
-2.97062
-2.98309
-2.99417
-3.00384
-3.01209
-3.0189
-3.02431
-3.0283
-3.03088
-3.03212
-3.09799
-3.09667
-3.09392
-3.08963
-3.08377
-3.07637
-3.0674
-3.05683
-3.04477
-3.03142
-3.01597
-2.99745
-2.97483
-2.95149
-2.92331
-2.90256
-2.90256
-2.92331
-2.95149
-2.97483
-2.99745
-3.01597
-3.03142
-3.04477
-3.05683
-3.0674
-3.07637
-3.08377
-3.08963
-3.09392
-3.09667
-3.09799
-3.16633
-3.16496
-3.16207
-3.15747
-3.15113
-3.1431
-3.13333
-3.12177
-3.10862
-3.09472
-3.0788
-3.05947
-3.03224
-3.00903
-2.97781
-2.9537
-2.9537
-2.97781
-3.00903
-3.03224
-3.05947
-3.0788
-3.09471
-3.10862
-3.12177
-3.13333
-3.1431
-3.15113
-3.15747
-3.16207
-3.16496
-3.16632
-3.23751
-3.23614
-3.23314
-3.22818
-3.22119
-3.21238
-3.20161
-3.18856
-3.17366
-3.15977
-3.14477
-3.12763
-3.10021
-3.08609
-3.07438
-3.05315
-3.05315
-3.07438
-3.08608
-3.10021
-3.12763
-3.14477
-3.15977
-3.17365
-3.18856
-3.20161
-3.21238
-3.22119
-3.22818
-3.23314
-3.23614
-3.23751
-3.31196
-3.31065
-3.30758
-3.3021
-3.29404
-3.28417
-3.27191
-3.25621
-3.23775
-3.22537
-3.21124
-3.20945
-3.22652
-3.24302
-3.23971
-3.22956
-3.22956
-3.23971
-3.24302
-3.22652
-3.20944
-3.21124
-3.22536
-3.23775
-3.25621
-3.27191
-3.28417
-3.29404
-3.30209
-3.30758
-3.31065
-3.31196
-3.39008
-3.38895
-3.38587
-3.37953
-3.3696
-3.35818
-3.34413
-3.3253
-3.29936
-3.29169
-3.32126
-3.35999
-3.3924
-3.41005
-3.4198
-3.42123
-3.42123
-3.4198
-3.41005
-3.3924
-3.35998
-3.32126
-3.29169
-3.29936
-3.3253
-3.34413
-3.35818
-3.3696
-3.37952
-3.38587
-3.38895
-3.39007
-3.4721
-3.47142
-3.46862
-3.46084
-3.44693
-3.43387
-3.41803
-3.40816
-3.4259
-3.4562
-3.50625
-3.55045
-3.58852
-3.61075
-3.62409
-3.6303
-3.6303
-3.62409
-3.61075
-3.58852
-3.55045
-3.50625
-3.4562
-3.4259
-3.40816
-3.41803
-3.43387
-3.44693
-3.46084
-3.46862
-3.47142
-3.4721
-3.55747
-3.55806
-3.55618
-3.54636
-3.52151
-3.50769
-3.52591
-3.55204
-3.61075
-3.67029
-3.73099
-3.77759
-3.81326
-3.83786
-3.85204
-3.85888
-3.85888
-3.85204
-3.83786
-3.81326
-3.77759
-3.73099
-3.67029
-3.61074
-3.55204
-3.52591
-3.50769
-3.52151
-3.54636
-3.55618
-3.55806
-3.55747
-3.64513
-3.64789
-3.64779
-3.63666
-3.63613
-3.67092
-3.73377
-3.80497
-3.87086
-3.92814
-3.98125
-4.02696
-4.06112
-4.08499
-4.10009
-4.10745
-4.10745
-4.10009
-4.08499
-4.06112
-4.02696
-3.98125
-3.92814
-3.87086
-3.80496
-3.73377
-3.67092
-3.63613
-3.63666
-3.64779
-3.64789
-3.64513
-3.73208
-3.73734
-3.74418
-3.76043
-3.81514
-3.90282
-3.99632
-4.07517
-4.14231
-4.20089
-4.25152
-4.29366
-4.32639
-4.35014
-4.36555
-4.37311
-4.37311
-4.36555
-4.35014
-4.32639
-4.29366
-4.25151
-4.20089
-4.14231
-4.07517
-3.99632
-3.90282
-3.81514
-3.76043
-3.74418
-3.73734
-3.73207
-3.81244
-3.82384
-3.87891
-3.98309
-4.10158
-4.19611
-4.28519
-4.36331
-4.43012
-4.48738
-4.53606
-4.5763
-4.60793
-4.63114
-4.64632
-4.6538
-4.6538
-4.64632
-4.63114
-4.60793
-4.5763
-4.53606
-4.48738
-4.43012
-4.36331
-4.28519
-4.19611
-4.10158
-3.98309
-3.87891
-3.82384
-3.81244
-4.02763
-4.06709
-4.17735
-4.3084
-4.41868
-4.51149
-4.59562
-4.66996
-4.73403
-4.78888
-4.83524
-4.87343
-4.90356
-4.92582
-4.94046
-4.94771
-4.94771
-4.94046
-4.92582
-4.90356
-4.87343
-4.83524
-4.78888
-4.73403
-4.66996
-4.59562
-4.51149
-4.41868
-4.3084
-4.17735
-4.0671
-4.02763
-4.4256
-4.4687
-4.56134
-4.66505
-4.76174
-4.84787
-4.92499
-4.99338
-5.05295
-5.10417
-5.14751
-5.18325
-5.21153
-5.23252
-5.24639
-5.25327
-5.25327
-5.24639
-5.23252
-5.21153
-5.18325
-5.14751
-5.10417
-5.05295
-4.99339
-4.92499
-4.84787
-4.76174
-4.66505
-4.56134
-4.46871
-4.4256
-4.87964
-4.91
-4.97312
-5.05082
-5.12935
-5.20292
-5.27033
-5.33114
-5.3849
-5.43156
-5.47127
-5.50414
-5.53027
-5.54974
-5.56264
-5.56906
-5.56906
-5.56264
-5.54974
-5.53027
-5.50414
-5.47127
-5.43156
-5.3849
-5.33114
-5.27033
-5.20292
-5.12936
-5.05082
-4.97312
-4.91
-4.87964
-5.32213
-5.3451
-5.39049
-5.44804
-5.50957
-5.57017
-5.62748
-5.68016
-5.72752
-5.76912
-5.80482
-5.83456
-5.85832
-5.87609
-5.88791
-5.89381
-5.89381
-5.88791
-5.87609
-5.85832
-5.83456
-5.80483
-5.76912
-5.72752
-5.68017
-5.62748
-5.57017
-5.50958
-5.44804
-5.39049
-5.34511
-5.32214
-5.75468
-5.77181
-5.80468
-5.84776
-5.89582
-5.94496
-5.99274
-6.03757
-6.07853
-6.11498
-6.14656
-6.17306
-6.19434
-6.21033
-6.22101
-6.22634
-6.22634
-6.22101
-6.21033
-6.19434
-6.17306
-6.14656
-6.11498
-6.07853
-6.03757
-5.99274
-5.94496
-5.89582
-5.84776
-5.80468
-5.77181
-5.75469
-6.17727
-6.19
-6.21425
-6.2469
-6.28445
-6.32398
-6.36334
-6.401
-6.43595
-6.46745
-6.495
-6.5183
-6.53712
-6.55133
-6.56084
-6.5656
-6.5656
-6.56084
-6.55133
-6.53712
-6.5183
-6.495
-6.46745
-6.43595
-6.401
-6.36334
-6.32398
-6.28445
-6.2469
-6.21425
-6.19
-6.17727
-6.59113
-6.6007
-6.61893
-6.64395
-6.67338
-6.70509
-6.73729
-6.76864
-6.79818
-6.82511
-6.84888
-6.86913
-6.88559
-6.89806
-6.90644
-6.91064
-6.91064
-6.90644
-6.89806
-6.88559
-6.86913
-6.84888
-6.82511
-6.79818
-6.76864
-6.73729
-6.70509
-6.67339
-6.64395
-6.61893
-6.6007
-6.59113
-6.99778
-7.00506
-7.01899
-7.03836
-7.06156
-7.08699
-7.11325
-7.13911
-7.16397
-7.1868
-7.20713
-7.22456
-7.2388
-7.24965
-7.25695
-7.26062
-7.26062
-7.25695
-7.24965
-7.2388
-7.22456
-7.20713
-7.1868
-7.16397
-7.13912
-7.11325
-7.08699
-7.06156
-7.03836
-7.01899
-7.00506
-6.99779
-7.39858
-7.40419
-7.41496
-7.43011
-7.44849
-7.46894
-7.49038
-7.51192
-7.53244
-7.55162
-7.56885
-7.58374
-7.59596
-7.60531
-7.61162
-7.6148
-7.6148
-7.61162
-7.60531
-7.59597
-7.58374
-7.56885
-7.55162
-7.53245
-7.51192
-7.49038
-7.46894
-7.44849
-7.43011
-7.41497
-7.40419
-7.39858
-7.79464
-7.79901
-7.80744
-7.81938
-7.83403
-7.8505
-7.86796
-7.88563
-7.90274
-7.9188
-7.93334
-7.94596
-7.95639
-7.96439
-7.9698
-7.97253
-7.97253
-7.9698
-7.96439
-7.95639
-7.94596
-7.93334
-7.9188
-7.90274
-7.88563
-7.86796
-7.8505
-7.83403
-7.81938
-7.80744
-7.79901
-7.79464
-8.18688
-8.19032
-8.19697
-8.20646
-8.21818
-8.23148
-8.2457
-8.26021
-8.2744
-8.28781
-8.30001
-8.31067
-8.3195
-8.3263
-8.33092
-8.33325
-8.33325
-8.33092
-8.3263
-8.3195
-8.31067
-8.30001
-8.28781
-8.2744
-8.26021
-8.2457
-8.23148
-8.21818
-8.20646
-8.19697
-8.19032
-8.18688
-8.57603
-8.57876
-8.58405
-8.59163
-8.60105
-8.61182
-8.62341
-8.63532
-8.64706
-8.65822
-8.66843
-8.67738
-8.68483
-8.69058
-8.69449
-8.69647
-8.69647
-8.69449
-8.69058
-8.68483
-8.67738
-8.66843
-8.65822
-8.64706
-8.63532
-8.62342
-8.61182
-8.60105
-8.59163
-8.58405
-8.57876
-8.57603
-8.96268
-8.96486
-8.96909
-8.97518
-8.98278
-8.99152
-9.00098
-9.01076
-9.02045
-9.02971
-9.03823
-9.04572
-9.05198
-9.05682
-9.06012
-9.06179
-9.0618
-9.06012
-9.05682
-9.05198
-9.04572
-9.03823
-9.02971
-9.02045
-9.01076
-9.00098
-8.99152
-8.98278
-8.97518
-8.96909
-8.96486
-8.96268
-9.3473
-9.34905
-9.35245
-9.35736
-9.36352
-9.37062
-9.37835
-9.38638
-9.39438
-9.40205
-9.40913
-9.41539
-9.42063
-9.42469
-9.42746
-9.42887
-9.42887
-9.42746
-9.42469
-9.42063
-9.41539
-9.40913
-9.40205
-9.39438
-9.38638
-9.37835
-9.37062
-9.36352
-9.35736
-9.35246
-9.34905
-9.3473
-9.73027
-9.73168
-9.73443
-9.7384
-9.7434
-9.74919
-9.75551
-9.7621
-9.76869
-9.77504
-9.78092
-9.78613
-9.7905
-9.7939
-9.79623
-9.7974
-9.7974
-9.79623
-9.7939
-9.7905
-9.78613
-9.78092
-9.77504
-9.76869
-9.7621
-9.75551
-9.74919
-9.7434
-9.7384
-9.73443
-9.73168
-9.73027
-10.1119
-10.113
-10.1153
-10.1185
-10.1226
-10.1273
-10.1325
-10.1379
-10.1433
-10.1485
-10.1534
-10.1577
-10.1614
-10.1642
-10.1662
-10.1671
-10.1671
-10.1662
-10.1642
-10.1614
-10.1577
-10.1534
-10.1485
-10.1433
-10.1379
-10.1325
-10.1273
-10.1226
-10.1185
-10.1153
-10.113
-10.1119
-10.4924
-10.4934
-10.4952
-10.4978
-10.5011
-10.505
-10.5092
-10.5136
-10.5181
-10.5225
-10.5265
-10.5301
-10.5331
-10.5355
-10.5371
-10.5379
-10.5379
-10.5371
-10.5355
-10.5331
-10.5301
-10.5265
-10.5225
-10.5181
-10.5136
-10.5092
-10.505
-10.5011
-10.4978
-10.4952
-10.4934
-10.4924
-10.8721
-10.8728
-10.8743
-10.8764
-10.8791
-10.8823
-10.8858
-10.8894
-10.8931
-10.8967
-10.9
-10.903
-10.9055
-10.9075
-10.9088
-10.9095
-10.9095
-10.9088
-10.9075
-10.9055
-10.903
-10.9
-10.8967
-10.8931
-10.8894
-10.8858
-10.8823
-10.8791
-10.8764
-10.8743
-10.8728
-10.8721
-11.251
-11.2516
-11.2528
-11.2545
-11.2567
-11.2593
-11.2622
-11.2652
-11.2682
-11.2712
-11.2739
-11.2764
-11.2785
-11.2801
-11.2812
-11.2818
-11.2818
-11.2812
-11.2801
-11.2785
-11.2764
-11.2739
-11.2712
-11.2682
-11.2652
-11.2622
-11.2593
-11.2567
-11.2545
-11.2528
-11.2516
-11.251
-11.6293
-11.6298
-11.6307
-11.6322
-11.634
-11.6361
-11.6384
-11.6409
-11.6434
-11.6458
-11.6481
-11.6501
-11.6519
-11.6532
-11.6541
-11.6546
-11.6546
-11.6541
-11.6532
-11.6519
-11.6501
-11.6481
-11.6458
-11.6434
-11.6409
-11.6384
-11.6361
-11.634
-11.6322
-11.6307
-11.6298
-11.6293
-12.0071
-12.0075
-12.0083
-12.0094
-12.0109
-12.0127
-12.0146
-12.0166
-12.0187
-12.0207
-12.0226
-12.0242
-12.0257
-12.0268
-12.0275
-12.0279
-12.0279
-12.0275
-12.0268
-12.0257
-12.0242
-12.0226
-12.0207
-12.0187
-12.0166
-12.0146
-12.0127
-12.0109
-12.0094
-12.0083
-12.0075
-12.0071
-12.3845
-12.3848
-12.3855
-12.3864
-12.3876
-12.3891
-12.3906
-12.3923
-12.394
-12.3956
-12.3972
-12.3986
-12.3998
-12.4007
-12.4013
-12.4016
-12.4016
-12.4013
-12.4007
-12.3998
-12.3986
-12.3972
-12.3956
-12.394
-12.3923
-12.3906
-12.3891
-12.3876
-12.3864
-12.3855
-12.3848
-12.3845
-12.7615
-12.7618
-12.7623
-12.7631
-12.7641
-12.7653
-12.7666
-12.768
-12.7694
-12.7707
-12.772
-12.7731
-12.7741
-12.7749
-12.7754
-12.7757
-12.7757
-12.7754
-12.7749
-12.7741
-12.7731
-12.772
-12.7707
-12.7694
-12.768
-12.7666
-12.7653
-12.7641
-12.7631
-12.7623
-12.7618
-12.7615
-13.1383
-13.1386
-13.139
-13.1396
-13.1405
-13.1414
-13.1425
-13.1436
-13.1448
-13.1459
-13.1469
-13.1479
-13.1487
-13.1493
-13.1497
-13.15
-13.15
-13.1497
-13.1493
-13.1487
-13.1479
-13.1469
-13.1459
-13.1448
-13.1436
-13.1425
-13.1414
-13.1405
-13.1396
-13.139
-13.1386
-13.1383
-13.5149
-13.5151
-13.5154
-13.516
-13.5166
-13.5174
-13.5183
-13.5192
-13.5202
-13.5211
-13.522
-13.5228
-13.5234
-13.5239
-13.5243
-13.5245
-13.5245
-13.5243
-13.5239
-13.5234
-13.5228
-13.522
-13.5211
-13.5202
-13.5192
-13.5183
-13.5174
-13.5166
-13.516
-13.5154
-13.5151
-13.5149
-13.8913
-13.8914
-13.8917
-13.8922
-13.8927
-13.8934
-13.8941
-13.8949
-13.8956
-13.8964
-13.8971
-13.8978
-13.8983
-13.8987
-13.899
-13.8992
-13.8992
-13.899
-13.8987
-13.8983
-13.8978
-13.8971
-13.8964
-13.8956
-13.8949
-13.8941
-13.8934
-13.8927
-13.8922
-13.8917
-13.8914
-13.8913
-14.2675
-14.2677
-14.2679
-14.2683
-14.2687
-14.2692
-14.2698
-14.2705
-14.2711
-14.2717
-14.2723
-14.2728
-14.2733
-14.2736
-14.2739
-14.274
-14.274
-14.2739
-14.2736
-14.2733
-14.2728
-14.2723
-14.2717
-14.2711
-14.2705
-14.2698
-14.2692
-14.2687
-14.2683
-14.2679
-14.2677
-14.2675
-14.6436
-14.6437
-14.6439
-14.6442
-14.6446
-14.6451
-14.6455
-14.6461
-14.6466
-14.6471
-14.6476
-14.648
-14.6484
-14.6487
-14.6489
-14.649
-14.649
-14.6489
-14.6487
-14.6484
-14.648
-14.6476
-14.6471
-14.6466
-14.6461
-14.6455
-14.6451
-14.6446
-14.6442
-14.6439
-14.6437
-14.6436
-15.0197
-15.0197
-15.0199
-15.0201
-15.0205
-15.0208
-15.0212
-15.0216
-15.0221
-15.0225
-15.0229
-15.0233
-15.0236
-15.0238
-15.024
-15.024
-15.024
-15.024
-15.0238
-15.0236
-15.0233
-15.0229
-15.0225
-15.0221
-15.0216
-15.0212
-15.0208
-15.0205
-15.0201
-15.0199
-15.0197
-15.0197
-15.3956
-15.3957
-15.3958
-15.396
-15.3962
-15.3965
-15.3969
-15.3972
-15.3976
-15.3979
-15.3983
-15.3985
-15.3988
-15.399
-15.3991
-15.3992
-15.3992
-15.3991
-15.399
-15.3988
-15.3985
-15.3983
-15.3979
-15.3976
-15.3972
-15.3969
-15.3965
-15.3962
-15.396
-15.3958
-15.3957
-15.3956
-15.7714
-15.7715
-15.7716
-15.7718
-15.772
-15.7722
-15.7725
-15.7728
-15.7731
-15.7734
-15.7736
-15.7739
-15.7741
-15.7743
-15.7744
-15.7744
-15.7744
-15.7744
-15.7743
-15.7741
-15.7739
-15.7736
-15.7734
-15.7731
-15.7728
-15.7725
-15.7722
-15.772
-15.7718
-15.7716
-15.7715
-15.7714
-16.1472
-16.1473
-16.1474
-16.1475
-16.1477
-16.1479
-16.1481
-16.1483
-16.1486
-16.1488
-16.1491
-16.1493
-16.1494
-16.1496
-16.1496
-16.1497
-16.1497
-16.1496
-16.1496
-16.1494
-16.1493
-16.1491
-16.1488
-16.1486
-16.1483
-16.1481
-16.1479
-16.1477
-16.1475
-16.1474
-16.1473
-16.1472
-16.523
-16.523
-16.5231
-16.5232
-16.5234
-16.5235
-16.5237
-16.5239
-16.5241
-16.5243
-16.5245
-16.5247
-16.5248
-16.5249
-16.525