/*--------------------------------*- C++ -*----------------------------------*\
  =========                 |
  \\      /  F ield         | OpenFOAM: The Open Source CFD Toolbox
   \\    /   O peration     | Website:  https://openfoam.org
    \\  /    A nd           | Version:  9
     \\/     M anipulation  |
\*---------------------------------------------------------------------------*/
FoamFile
{
    format      ascii;
    class       volScalarField;
    location    "0.25";
    object      p_rgh;
}
// * * * * * * * * * * * * * * * * * * * * * * * * * * * * * * * * * * * * * //

dimensions      [1 -1 -2 0 0 0 0];

internalField   nonuniform List<scalar> 
4096
(
-3.29766
-3.29766
-3.29766
-3.29766
-3.29766
-3.29766
-3.29766
-3.29766
-3.29766
-3.29766
-3.29766
-3.29766
-3.29766
-3.29766
-3.29766
-3.29766
-3.29766
-3.29766
-3.29766
-3.29766
-3.29766
-3.29766
-3.29766
-3.29766
-3.29766
-3.29766
-3.29766
-3.29766
-3.29766
-3.29766
-3.29766
-3.29766
-3.29766
-3.29766
-3.29766
-3.29766
-3.29766
-3.29766
-3.29766
-3.29766
-3.29766
-3.29766
-3.29766
-3.29766
-3.29766
-3.29766
-3.29766
-3.29766
-3.29766
-3.29766
-3.29766
-3.29766
-3.29766
-3.29766
-3.29766
-3.29766
-3.29766
-3.29766
-3.29766
-3.29766
-3.29766
-3.29766
-3.29766
-3.29766
-3.29766
-3.29766
-3.29766
-3.29766
-3.29766
-3.29766
-3.29766
-3.29766
-3.29766
-3.29766
-3.29766
-3.29766
-3.29766
-3.29766
-3.29766
-3.29766
-3.29766
-3.29766
-3.29766
-3.29766
-3.29766
-3.29766
-3.29766
-3.29766
-3.29766
-3.29766
-3.29766
-3.29766
-3.29766
-3.29766
-3.29766
-3.29766
-3.29766
-3.29766
-3.29766
-3.29766
-3.29766
-3.29766
-3.29766
-3.29766
-3.29766
-3.29766
-3.29766
-3.29766
-3.29766
-3.29766
-3.29766
-3.29766
-3.29766
-3.29766
-3.29766
-3.29766
-3.29766
-3.29766
-3.29766
-3.29766
-3.29766
-3.29766
-3.29766
-3.29766
-3.29766
-3.29766
-3.29766
-3.29766
-3.29766
-3.29766
-3.29766
-3.29766
-3.29766
-3.29766
-3.29766
-3.29766
-3.29766
-3.29766
-3.29766
-3.29766
-3.29766
-3.29766
-3.29766
-3.29766
-3.29766
-3.29766
-3.29766
-3.29766
-3.29766
-3.29766
-3.29766
-3.29766
-3.29766
-3.29766
-3.29766
-3.29766
-3.29766
-3.29766
-3.29766
-3.29766
-3.29766
-3.29766
-3.29766
-3.29766
-3.29766
-3.29766
-3.29766
-3.29766
-3.29766
-3.29766
-3.29766
-3.29766
-3.29766
-3.29766
-3.29766
-3.29766
-3.29766
-3.29766
-3.29766
-3.29766
-3.29766
-3.29766
-3.29766
-3.29766
-3.29766
-3.29766
-3.29766
-3.29766
-3.29766
-3.29766
-3.29766
-3.29766
-3.29766
-3.29766
-3.29766
-3.29766
-3.29766
-3.29766
-3.29766
-3.29766
-3.29766
-3.29766
-3.29766
-3.29766
-3.29766
-3.29766
-3.29766
-3.29766
-3.29766
-3.29766
-3.29766
-3.29766
-3.29766
-3.29766
-3.29766
-3.29766
-3.29766
-3.29766
-3.29766
-3.29766
-3.29766
-3.29766
-3.29766
-3.29766
-3.29766
-3.29766
-3.29766
-3.29766
-3.29766
-3.29766
-3.29766
-3.29766
-3.29766
-3.29766
-3.29766
-3.29766
-3.29766
-3.29766
-3.29766
-3.29766
-3.29766
-3.29766
-3.29766
-3.29766
-3.29766
-3.29766
-3.29766
-3.29766
-3.29766
-3.29766
-3.29766
-3.29766
-3.29766
-3.29766
-3.29766
-3.29767
-3.29767
-3.29767
-3.29767
-3.29766
-3.29766
-3.29766
-3.29766
-3.29766
-3.29766
-3.29766
-3.29766
-3.29766
-3.29766
-3.29766
-3.29765
-3.29765
-3.29765
-3.29765
-3.29766
-3.29766
-3.29766
-3.29766
-3.29766
-3.29766
-3.29766
-3.29766
-3.29766
-3.29766
-3.29766
-3.29767
-3.29767
-3.29767
-3.29767
-3.29767
-3.29767
-3.29767
-3.29766
-3.29766
-3.29766
-3.29766
-3.29766
-3.29766
-3.29766
-3.29766
-3.29765
-3.29765
-3.29765
-3.29765
-3.29765
-3.29765
-3.29765
-3.29765
-3.29766
-3.29766
-3.29766
-3.29766
-3.29766
-3.29766
-3.29766
-3.29766
-3.29767
-3.29767
-3.29767
-3.29767
-3.29767
-3.29767
-3.29767
-3.29767
-3.29767
-3.29766
-3.29766
-3.29766
-3.29766
-3.29766
-3.29766
-3.29765
-3.29765
-3.29765
-3.29765
-3.29765
-3.29765
-3.29765
-3.29765
-3.29765
-3.29765
-3.29766
-3.29766
-3.29766
-3.29766
-3.29766
-3.29766
-3.29767
-3.29767
-3.29767
-3.29767
-3.29767
-3.29767
-3.29767
-3.29767
-3.29767
-3.29767
-3.29766
-3.29766
-3.29766
-3.29766
-3.29766
-3.29766
-3.29765
-3.29765
-3.29765
-3.29765
-3.29765
-3.29765
-3.29765
-3.29765
-3.29765
-3.29765
-3.29766
-3.29766
-3.29766
-3.29766
-3.29766
-3.29766
-3.29767
-3.29767
-3.29767
-3.29767
-3.29767
-3.29767
-3.29767
-3.29767
-3.29767
-3.29767
-3.29767
-3.29766
-3.29766
-3.29766
-3.29766
-3.29765
-3.29765
-3.29765
-3.29765
-3.29765
-3.29765
-3.29765
-3.29765
-3.29765
-3.29765
-3.29765
-3.29765
-3.29766
-3.29766
-3.29766
-3.29766
-3.29767
-3.29767
-3.29767
-3.29767
-3.29767
-3.29767
-3.29767
-3.29767
-3.29767
-3.29767
-3.29767
-3.29767
-3.29766
-3.29766
-3.29766
-3.29766
-3.29765
-3.29765
-3.29765
-3.29765
-3.29765
-3.29764
-3.29764
-3.29765
-3.29765
-3.29765
-3.29765
-3.29765
-3.29766
-3.29766
-3.29766
-3.29766
-3.29767
-3.29767
-3.29767
-3.29767
-3.29767
-3.29767
-3.29768
-3.29768
-3.29768
-3.29767
-3.29767
-3.29767
-3.29767
-3.29766
-3.29766
-3.29765
-3.29765
-3.29765
-3.29765
-3.29764
-3.29764
-3.29764
-3.29764
-3.29764
-3.29764
-3.29765
-3.29765
-3.29765
-3.29765
-3.29766
-3.29766
-3.29767
-3.29767
-3.29767
-3.29767
-3.29768
-3.29768
-3.29768
-3.29768
-3.29768
-3.29768
-3.29768
-3.29767
-3.29767
-3.29767
-3.29766
-3.29766
-3.29765
-3.29765
-3.29765
-3.29764
-3.29764
-3.29764
-3.29764
-3.29764
-3.29764
-3.29764
-3.29764
-3.29765
-3.29765
-3.29765
-3.29766
-3.29766
-3.29767
-3.29767
-3.29767
-3.29768
-3.29768
-3.29768
-3.29768
-3.29769
-3.29769
-3.29768
-3.29768
-3.29768
-3.29767
-3.29767
-3.29766
-3.29766
-3.29765
-3.29765
-3.29764
-3.29764
-3.29764
-3.29763
-3.29763
-3.29763
-3.29763
-3.29764
-3.29764
-3.29764
-3.29765
-3.29765
-3.29766
-3.29766
-3.29767
-3.29767
-3.29768
-3.29768
-3.29768
-3.29768
-3.29769
-3.29769
-3.29769
-3.29769
-3.29768
-3.29768
-3.29767
-3.29767
-3.29766
-3.29766
-3.29765
-3.29764
-3.29764
-3.29763
-3.29763
-3.29763
-3.29763
-3.29763
-3.29763
-3.29763
-3.29763
-3.29764
-3.29764
-3.29765
-3.29766
-3.29766
-3.29767
-3.29767
-3.29768
-3.29768
-3.29769
-3.29769
-3.29769
-3.2977
-3.2977
-3.29769
-3.29769
-3.29768
-3.29768
-3.29767
-3.29766
-3.29766
-3.29765
-3.29764
-3.29763
-3.29763
-3.29762
-3.29762
-3.29762
-3.29762
-3.29762
-3.29762
-3.29763
-3.29763
-3.29764
-3.29765
-3.29766
-3.29766
-3.29767
-3.29768
-3.29768
-3.29769
-3.29769
-3.2977
-3.2977
-3.29771
-3.29771
-3.2977
-3.2977
-3.29769
-3.29768
-3.29767
-3.29766
-3.29765
-3.29765
-3.29764
-3.29763
-3.29762
-3.29762
-3.29761
-3.29761
-3.29761
-3.29761
-3.29762
-3.29762
-3.29763
-3.29764
-3.29765
-3.29765
-3.29766
-3.29767
-3.29768
-3.29769
-3.2977
-3.2977
-3.2977
-3.29771
-3.29772
-3.29771
-3.29771
-3.2977
-3.2977
-3.29769
-3.29768
-3.29767
-3.29765
-3.29764
-3.29763
-3.29762
-3.29761
-3.29761
-3.2976
-3.2976
-3.2976
-3.2976
-3.29761
-3.29761
-3.29762
-3.29763
-3.29764
-3.29765
-3.29767
-3.29768
-3.29769
-3.2977
-3.2977
-3.29771
-3.29771
-3.29772
-3.29773
-3.29773
-3.29772
-3.29771
-3.2977
-3.29769
-3.29768
-3.29767
-3.29765
-3.29764
-3.29763
-3.29761
-3.2976
-3.2976
-3.29759
-3.29759
-3.29759
-3.29759
-3.2976
-3.2976
-3.29761
-3.29763
-3.29764
-3.29765
-3.29767
-3.29768
-3.29769
-3.2977
-3.29771
-3.29772
-3.29773
-3.29773
-3.29774
-3.29774
-3.29774
-3.29773
-3.29771
-3.2977
-3.29768
-3.29767
-3.29765
-3.29763
-3.29762
-3.2976
-3.29759
-3.29758
-3.29758
-3.29757
-3.29757
-3.29758
-3.29758
-3.29759
-3.2976
-3.29762
-3.29763
-3.29765
-3.29767
-3.29768
-3.2977
-3.29771
-3.29773
-3.29774
-3.29774
-3.29774
-3.29776
-3.29776
-3.29775
-3.29774
-3.29773
-3.29771
-3.29769
-3.29767
-3.29765
-3.29763
-3.29761
-3.29759
-3.29758
-3.29757
-3.29756
-3.29755
-3.29755
-3.29756
-3.29757
-3.29758
-3.29759
-3.29761
-3.29763
-3.29765
-3.29767
-3.29769
-3.29771
-3.29773
-3.29774
-3.29775
-3.29776
-3.29776
-3.29779
-3.29778
-3.29777
-3.29776
-3.29774
-3.29772
-3.2977
-3.29767
-3.29765
-3.29762
-3.2976
-3.29758
-3.29756
-3.29755
-3.29754
-3.29753
-3.29753
-3.29754
-3.29755
-3.29756
-3.29758
-3.2976
-3.29762
-3.29765
-3.29767
-3.2977
-3.29772
-3.29774
-3.29776
-3.29777
-3.29778
-3.29779
-3.29781
-3.29781
-3.2978
-3.29778
-3.29776
-3.29773
-3.29771
-3.29768
-3.29764
-3.29761
-3.29759
-3.29756
-3.29754
-3.29752
-3.29751
-3.2975
-3.2975
-3.29751
-3.29752
-3.29754
-3.29756
-3.29759
-3.29761
-3.29764
-3.29768
-3.29771
-3.29773
-3.29776
-3.29778
-3.2978
-3.29781
-3.29781
-3.29785
-3.29784
-3.29783
-3.29781
-3.29778
-3.29775
-3.29772
-3.29768
-3.29764
-3.2976
-3.29757
-3.29754
-3.29751
-3.29749
-3.29748
-3.29747
-3.29747
-3.29748
-3.29749
-3.29751
-3.29754
-3.29757
-3.2976
-3.29764
-3.29768
-3.29772
-3.29775
-3.29778
-3.29781
-3.29783
-3.29784
-3.29785
-3.29789
-3.29788
-3.29786
-3.29784
-3.29781
-3.29777
-3.29773
-3.29768
-3.29764
-3.29759
-3.29755
-3.29751
-3.29748
-3.29745
-3.29744
-3.29743
-3.29743
-3.29744
-3.29745
-3.29748
-3.29751
-3.29755
-3.29759
-3.29764
-3.29768
-3.29773
-3.29777
-3.29781
-3.29784
-3.29786
-3.29788
-3.29789
-3.29794
-3.29793
-3.29791
-3.29788
-3.29784
-3.29779
-3.29774
-3.29769
-3.29763
-3.29758
-3.29753
-3.29748
-3.29744
-3.29741
-3.29739
-3.29738
-3.29738
-3.29739
-3.29741
-3.29744
-3.29748
-3.29753
-3.29758
-3.29763
-3.29769
-3.29774
-3.29779
-3.29784
-3.29788
-3.29791
-3.29793
-3.29794
-3.298
-3.29798
-3.29796
-3.29792
-3.29788
-3.29782
-3.29776
-3.2977
-3.29763
-3.29756
-3.2975
-3.29744
-3.2974
-3.29736
-3.29733
-3.29732
-3.29732
-3.29733
-3.29736
-3.2974
-3.29744
-3.2975
-3.29756
-3.29763
-3.2977
-3.29776
-3.29782
-3.29788
-3.29792
-3.29796
-3.29798
-3.298
-3.29807
-3.29805
-3.29802
-3.29798
-3.29792
-3.29786
-3.29778
-3.2977
-3.29762
-3.29754
-3.29747
-3.2974
-3.29734
-3.29729
-3.29726
-3.29724
-3.29724
-3.29726
-3.29729
-3.29734
-3.2974
-3.29747
-3.29754
-3.29762
-3.2977
-3.29778
-3.29786
-3.29792
-3.29798
-3.29802
-3.29805
-3.29807
-3.29816
-3.29814
-3.2981
-3.29805
-3.29798
-3.2979
-3.29781
-3.29771
-3.29761
-3.29752
-3.29742
-3.29734
-3.29727
-3.29721
-3.29718
-3.29716
-3.29716
-3.29718
-3.29721
-3.29727
-3.29734
-3.29742
-3.29752
-3.29761
-3.29771
-3.29781
-3.2979
-3.29798
-3.29805
-3.2981
-3.29814
-3.29816
-3.29826
-3.29824
-3.2982
-3.29814
-3.29805
-3.29795
-3.29784
-3.29773
-3.29761
-3.29749
-3.29737
-3.29727
-3.29719
-3.29712
-3.29707
-3.29705
-3.29705
-3.29707
-3.29712
-3.29719
-3.29727
-3.29737
-3.29749
-3.29761
-3.29773
-3.29784
-3.29795
-3.29805
-3.29814
-3.2982
-3.29824
-3.29826
-3.2984
-3.29837
-3.29832
-3.29824
-3.29814
-3.29802
-3.29788
-3.29774
-3.2976
-3.29745
-3.29731
-3.29719
-3.29708
-3.297
-3.29694
-3.29691
-3.29691
-3.29694
-3.297
-3.29708
-3.29719
-3.29731
-3.29745
-3.29759
-3.29774
-3.29788
-3.29802
-3.29814
-3.29824
-3.29832
-3.29837
-3.2984
-3.29855
-3.29852
-3.29846
-3.29837
-3.29824
-3.2981
-3.29793
-3.29776
-3.29758
-3.29741
-3.29724
-3.29709
-3.29696
-3.29686
-3.29679
-3.29675
-3.29675
-3.29679
-3.29686
-3.29696
-3.29709
-3.29724
-3.29741
-3.29758
-3.29776
-3.29793
-3.2981
-3.29824
-3.29837
-3.29846
-3.29852
-3.29855
-3.29875
-3.29871
-3.29863
-3.29852
-3.29837
-3.29819
-3.298
-3.29778
-3.29757
-3.29735
-3.29715
-3.29697
-3.29681
-3.29669
-3.2966
-3.29656
-3.29656
-3.2966
-3.29669
-3.29681
-3.29697
-3.29715
-3.29735
-3.29757
-3.29778
-3.298
-3.29819
-3.29837
-3.29852
-3.29863
-3.29871
-3.29875
-3.29898
-3.29894
-3.29884
-3.29871
-3.29853
-3.29831
-3.29807
-3.29781
-3.29755
-3.29729
-3.29704
-3.29682
-3.29663
-3.29648
-3.29637
-3.29632
-3.29632
-3.29637
-3.29648
-3.29663
-3.29682
-3.29704
-3.29729
-3.29755
-3.29781
-3.29807
-3.29831
-3.29852
-3.29871
-3.29884
-3.29894
-3.29898
-3.29927
-3.29921
-3.2991
-3.29893
-3.29871
-3.29845
-3.29816
-3.29785
-3.29753
-3.29721
-3.29691
-3.29664
-3.29641
-3.29622
-3.2961
-3.29603
-3.29603
-3.2961
-3.29622
-3.29641
-3.29664
-3.29691
-3.29721
-3.29753
-3.29785
-3.29816
-3.29845
-3.29871
-3.29893
-3.2991
-3.29921
-3.29927
-3.29962
-3.29955
-3.29941
-3.29921
-3.29894
-3.29863
-3.29828
-3.2979
-3.29751
-3.29712
-3.29676
-3.29642
-3.29614
-3.29591
-3.29576
-3.29568
-3.29568
-3.29576
-3.29591
-3.29614
-3.29642
-3.29676
-3.29712
-3.29751
-3.2979
-3.29828
-3.29863
-3.29894
-3.29921
-3.29941
-3.29955
-3.29962
-3.30004
-3.29996
-3.29979
-3.29954
-3.29922
-3.29884
-3.29841
-3.29795
-3.29748
-3.29701
-3.29656
-3.29616
-3.29581
-3.29554
-3.29535
-3.29525
-3.29525
-3.29535
-3.29554
-3.29581
-3.29616
-3.29656
-3.29701
-3.29748
-3.29795
-3.29841
-3.29884
-3.29922
-3.29954
-3.29979
-3.29996
-3.30004
-3.30055
-3.30045
-3.30025
-3.29995
-3.29957
-3.2991
-3.29859
-3.29803
-3.29745
-3.29688
-3.29634
-3.29584
-3.29542
-3.29508
-3.29485
-3.29473
-3.29473
-3.29485
-3.29508
-3.29542
-3.29584
-3.29634
-3.29688
-3.29745
-3.29803
-3.29859
-3.2991
-3.29957
-3.29995
-3.30025
-3.30045
-3.30055
-3.30117
-3.30105
-3.30081
-3.30045
-3.29998
-3.29943
-3.2988
-3.29812
-3.29742
-3.29672
-3.29606
-3.29546
-3.29494
-3.29452
-3.29424
-3.29409
-3.29409
-3.29424
-3.29452
-3.29494
-3.29546
-3.29606
-3.29672
-3.29742
-3.29812
-3.2988
-3.29943
-3.29998
-3.30045
-3.30081
-3.30105
-3.30117
-3.30192
-3.30178
-3.30149
-3.30106
-3.30049
-3.29982
-3.29906
-3.29824
-3.29739
-3.29654
-3.29573
-3.29499
-3.29435
-3.29385
-3.29349
-3.29331
-3.29331
-3.29349
-3.29385
-3.29435
-3.29499
-3.29573
-3.29654
-3.29739
-3.29824
-3.29906
-3.29982
-3.30049
-3.30106
-3.30149
-3.30178
-3.30192
-3.30283
-3.30266
-3.30232
-3.30179
-3.30112
-3.3003
-3.29938
-3.29839
-3.29736
-3.29633
-3.29534
-3.29443
-3.29365
-3.29302
-3.29259
-3.29237
-3.29237
-3.29259
-3.29302
-3.29365
-3.29443
-3.29534
-3.29633
-3.29736
-3.29839
-3.29938
-3.3003
-3.30112
-3.30179
-3.30232
-3.30266
-3.30283
-3.30394
-3.30373
-3.30332
-3.30269
-3.30188
-3.3009
-3.29979
-3.29859
-3.29733
-3.29608
-3.29487
-3.29375
-3.29279
-3.29202
-3.29149
-3.29121
-3.29121
-3.29149
-3.29202
-3.29279
-3.29375
-3.29487
-3.29608
-3.29733
-3.29859
-3.29979
-3.3009
-3.30188
-3.30269
-3.30332
-3.30373
-3.30394
-3.30528
-3.30503
-3.30453
-3.30379
-3.30281
-3.30163
-3.3003
-3.29884
-3.29732
-3.29579
-3.29431
-3.29295
-3.29176
-3.29081
-3.29014
-3.2898
-3.2898
-3.29014
-3.29081
-3.29176
-3.29295
-3.29431
-3.29579
-3.29732
-3.29884
-3.3003
-3.30163
-3.30281
-3.30379
-3.30453
-3.30503
-3.30528
-3.30689
-3.3066
-3.30601
-3.30512
-3.30395
-3.30254
-3.30093
-3.29918
-3.29734
-3.29547
-3.29366
-3.29198
-3.29051
-3.28933
-3.2885
-3.28807
-3.28807
-3.2885
-3.28933
-3.29051
-3.29198
-3.29366
-3.29547
-3.29734
-3.29918
-3.30093
-3.30254
-3.30395
-3.30512
-3.30601
-3.3066
-3.30689
-3.30885
-3.3085
-3.3078
-3.30674
-3.30535
-3.30367
-3.30174
-3.29963
-3.29739
-3.29512
-3.2929
-3.29083
-3.28901
-3.28753
-3.28649
-3.28595
-3.28595
-3.28649
-3.28753
-3.28901
-3.29083
-3.2929
-3.29512
-3.29739
-3.29963
-3.30174
-3.30367
-3.30535
-3.30674
-3.3078
-3.3085
-3.30885
-3.31121
-3.3108
-3.30997
-3.30872
-3.30707
-3.30506
-3.30276
-3.30022
-3.29752
-3.29476
-3.29204
-3.28948
-3.28721
-3.28536
-3.28404
-3.28336
-3.28336
-3.28404
-3.28536
-3.28721
-3.28948
-3.29204
-3.29476
-3.29752
-3.30022
-3.30276
-3.30506
-3.30707
-3.30872
-3.30997
-3.3108
-3.31121
-3.31405
-3.31358
-3.3126
-3.31112
-3.30917
-3.3068
-3.30406
-3.30102
-3.29777
-3.29441
-3.29107
-3.2879
-3.28506
-3.28272
-3.28105
-3.28017
-3.28017
-3.28105
-3.28272
-3.28506
-3.2879
-3.29107
-3.29441
-3.29777
-3.30102
-3.30406
-3.3068
-3.30917
-3.31112
-3.3126
-3.31358
-3.31405
-3.31748
-3.31692
-3.31578
-3.31405
-3.31177
-3.30897
-3.30572
-3.3021
-3.29819
-3.29411
-3.29001
-3.28608
-3.28251
-3.27954
-3.27738
-3.27625
-3.27625
-3.27738
-3.27954
-3.28251
-3.28608
-3.29001
-3.29411
-3.29819
-3.3021
-3.30572
-3.30897
-3.31177
-3.31405
-3.31578
-3.31692
-3.31748
-3.32159
-3.32095
-3.31963
-3.31762
-3.31496
-3.31168
-3.30786
-3.30355
-3.29887
-3.29394
-3.28892
-3.28403
-3.27952
-3.27571
-3.27291
-3.27141
-3.27141
-3.27291
-3.27571
-3.27952
-3.28403
-3.28892
-3.29394
-3.29887
-3.30355
-3.30786
-3.31168
-3.31496
-3.31762
-3.31963
-3.32095
-3.32159
-3.32653
-3.32579
-3.32428
-3.32196
-3.31888
-3.31508
-3.3106
-3.30553
-3.29996
-3.29402
-3.28789
-3.2818
-3.27608
-3.27114
-3.26743
-3.26543
-3.26543
-3.26743
-3.27114
-3.27608
-3.2818
-3.28789
-3.29402
-3.29996
-3.30553
-3.3106
-3.31508
-3.31888
-3.32196
-3.32427
-3.32579
-3.32653
-3.33244
-3.3316
-3.32987
-3.32723
-3.3237
-3.31932
-3.31414
-3.30822
-3.30165
-3.29454
-3.28707
-3.2795
-3.27222
-3.26576
-3.26077
-3.25802
-3.25802
-3.26077
-3.26576
-3.27222
-3.2795
-3.28707
-3.29454
-3.30165
-3.30822
-3.31414
-3.31932
-3.3237
-3.32723
-3.32987
-3.3316
-3.33244
-3.33949
-3.33855
-3.3366
-3.33362
-3.32962
-3.32464
-3.3187
-3.31186
-3.30418
-3.29576
-3.28674
-3.27737
-3.26807
-3.25955
-3.2527
-3.24881
-3.24881
-3.2527
-3.25955
-3.26807
-3.27737
-3.28674
-3.29576
-3.30418
-3.31186
-3.3187
-3.32464
-3.32962
-3.33362
-3.3366
-3.33855
-3.33949
-3.34789
-3.34684
-3.34468
-3.34135
-3.33687
-3.33127
-3.32455
-3.31675
-3.30791
-3.29808
-3.28733
-3.27582
-3.26395
-3.25261
-3.24296
-3.23722
-3.23722
-3.24296
-3.25261
-3.26395
-3.27582
-3.28733
-3.29808
-3.30791
-3.31675
-3.32455
-3.33127
-3.33687
-3.34135
-3.34468
-3.34684
-3.34789
-3.35787
-3.35672
-3.35434
-3.35067
-3.34572
-3.3395
-3.33201
-3.32325
-3.31325
-3.30202
-3.28946
-3.27553
-3.26044
-3.2453
-3.23143
-3.22271
-3.22271
-3.23143
-3.2453
-3.26044
-3.27553
-3.28946
-3.30202
-3.31325
-3.32325
-3.33201
-3.3395
-3.34572
-3.35067
-3.35434
-3.35672
-3.35786
-3.36967
-3.36843
-3.36586
-3.36187
-3.35646
-3.34964
-3.3414
-3.33173
-3.32065
-3.30818
-3.29397
-3.2776
-3.25877
-3.2391
-3.21973
-3.20656
-3.20656
-3.21973
-3.2391
-3.25877
-3.2776
-3.29397
-3.30818
-3.32065
-3.33173
-3.3414
-3.34964
-3.35646
-3.36187
-3.36586
-3.36843
-3.36967
-3.38361
-3.3823
-3.37955
-3.37525
-3.3694
-3.362
-3.35302
-3.34246
-3.33039
-3.31704
-3.30159
-3.28308
-3.2605
-3.23841
-3.2133
-3.23364
-3.23364
-3.2133
-3.23841
-3.2605
-3.28308
-3.30159
-3.31704
-3.33039
-3.34246
-3.35302
-3.362
-3.3694
-3.37525
-3.37955
-3.3823
-3.38361
-3.40002
-3.39866
-3.39576
-3.39116
-3.38482
-3.37679
-3.36702
-3.35546
-3.34231
-3.32841
-3.3125
-3.29319
-3.26626
-3.26053
-3.77055
-4.10519
-4.10519
-3.77053
-3.26053
-3.26625
-3.29318
-3.3125
-3.32841
-3.34231
-3.35546
-3.36702
-3.37679
-3.38482
-3.39116
-3.39576
-3.39865
-3.40002
-3.41927
-3.4179
-3.4149
-3.40995
-3.40295
-3.39414
-3.38337
-3.37032
-3.35542
-3.34154
-3.32663
-3.3111
-3.361
-3.60152
-4.33815
-4.36753
-4.36753
-4.33814
-3.6015
-3.36099
-3.3111
-3.32662
-3.34154
-3.35542
-3.37032
-3.38337
-3.39414
-3.40295
-3.40995
-3.4149
-3.4179
-3.41927
-3.44179
-3.44048
-3.43741
-3.43192
-3.42387
-3.414
-3.40174
-3.38604
-3.36763
-3.35558
-3.35012
-3.46334
-3.92347
-4.10461
-4.17856
-4.16841
-4.16841
-4.17856
-4.10461
-3.92346
-3.46333
-3.35012
-3.35558
-3.36763
-3.38604
-3.40174
-3.414
-3.42387
-3.43192
-3.43741
-3.44048
-3.44179
-3.46797
-3.46685
-3.46377
-3.45742
-3.4475
-3.43608
-3.42203
-3.4032
-3.37993
-3.37947
-3.61221
-3.83677
-3.9557
-3.97336
-3.98311
-3.98454
-3.98454
-3.98311
-3.97336
-3.9557
-3.83676
-3.6122
-3.37947
-3.37993
-3.4032
-3.42203
-3.43608
-3.4475
-3.45742
-3.46377
-3.46684
-3.46797
-3.49806
-3.49738
-3.49459
-3.48681
-3.47294
-3.46017
-3.444
-3.44373
-3.53138
-3.58304
-3.68471
-3.73822
-3.77629
-3.79852
-3.81186
-3.81807
-3.81807
-3.81186
-3.79852
-3.77629
-3.73822
-3.68471
-3.58304
-3.53138
-3.44373
-3.444
-3.46017
-3.47294
-3.48681
-3.49459
-3.49738
-3.49806
-3.53151
-3.5321
-3.53022
-3.5204
-3.49554
-3.48173
-3.45583
-3.37946
-3.42299
-3.48252
-3.54322
-3.58982
-3.62549
-3.65009
-3.66427
-3.67112
-3.67112
-3.66427
-3.65009
-3.62549
-3.58982
-3.54322
-3.48252
-3.42299
-3.37946
-3.45583
-3.48172
-3.49554
-3.52039
-3.53021
-3.5321
-3.53151
-3.56723
-3.56999
-3.5699
-3.55864
-3.43476
-3.31756
-3.21578
-3.24166
-3.30755
-3.36483
-3.41794
-3.46366
-3.49781
-3.52168
-3.53678
-3.54414
-3.54414
-3.53678
-3.52168
-3.49781
-3.46365
-3.41794
-3.36483
-3.30755
-3.24166
-3.21578
-3.31756
-3.43476
-3.55864
-3.56989
-3.56999
-3.56723
-3.60225
-3.60751
-3.59806
-3.29598
-2.93009
-2.96406
-3.05747
-3.13632
-3.20346
-3.26204
-3.31267
-3.35481
-3.38754
-3.41129
-3.4267
-3.43426
-3.43426
-3.4267
-3.41129
-3.38754
-3.35481
-3.31267
-3.26204
-3.20346
-3.13632
-3.05747
-2.96406
-2.93009
-3.29597
-3.59806
-3.60751
-3.60225
-3.63068
-3.64207
-3.32853
-2.73755
-2.78738
-2.88173
-2.9708
-3.04892
-3.11574
-3.173
-3.22167
-3.26192
-3.29354
-3.31675
-3.33193
-3.33942
-3.33942
-3.33193
-3.31675
-3.29354
-3.26192
-3.22167
-3.173
-3.11574
-3.04892
-2.9708
-2.88174
-2.78738
-2.73755
-3.32851
-3.64207
-3.63067
-3.08106
-3.05289
-2.64477
-2.61888
-2.72877
-2.82157
-2.90569
-2.98003
-3.0441
-3.09895
-3.14531
-3.1835
-3.21363
-3.23589
-3.25054
-3.25779
-3.25779
-3.25054
-3.23589
-3.21363
-3.1835
-3.14532
-3.09895
-3.04411
-2.98003
-2.90569
-2.82157
-2.72877
-2.61888
-2.64476
-3.05289
-3.08106
-2.36916
-2.40808
-2.49808
-2.59987
-2.69628
-2.7824
-2.85953
-2.92792
-2.98749
-3.03871
-3.08205
-3.11778
-3.14606
-3.16705
-3.18092
-3.18781
-3.18781
-3.18092
-3.16705
-3.14606
-3.11778
-3.08205
-3.03871
-2.98749
-2.92792
-2.85953
-2.78241
-2.69628
-2.59987
-2.49809
-2.40808
-2.36916
-2.43871
-2.46905
-2.53218
-2.60983
-2.68835
-2.76192
-2.82933
-2.89014
-2.94389
-2.99056
-3.03027
-3.06314
-3.08926
-3.10873
-3.12164
-3.12806
-3.12806
-3.12164
-3.10873
-3.08926
-3.06314
-3.03027
-2.99056
-2.9439
-2.89014
-2.82933
-2.76192
-2.68835
-2.60983
-2.53218
-2.46905
-2.43871
-2.50559
-2.52856
-2.57394
-2.6315
-2.69303
-2.75363
-2.81094
-2.86362
-2.91097
-2.95258
-2.98828
-3.01802
-3.04177
-3.05955
-3.07137
-3.07726
-3.07726
-3.07137
-3.05955
-3.04177
-3.01802
-2.98828
-2.95258
-2.91097
-2.86362
-2.81094
-2.75363
-2.69303
-2.6315
-2.57395
-2.52856
-2.50559
-2.5626
-2.57973
-2.6126
-2.65568
-2.70374
-2.75288
-2.80066
-2.84549
-2.88644
-2.9229
-2.95448
-2.98097
-3.00226
-3.01825
-3.02892
-3.03425
-3.03425
-3.02892
-3.01825
-3.00226
-2.98097
-2.95448
-2.9229
-2.88645
-2.84549
-2.80066
-2.75288
-2.70374
-2.65568
-2.6126
-2.57973
-2.5626
-2.60965
-2.62238
-2.64663
-2.67928
-2.71683
-2.75636
-2.79572
-2.83338
-2.86833
-2.89983
-2.92738
-2.95068
-2.9695
-2.98371
-2.99322
-2.99797
-2.99798
-2.99322
-2.98371
-2.9695
-2.95068
-2.92738
-2.89983
-2.86833
-2.83338
-2.79572
-2.75636
-2.71683
-2.67928
-2.64663
-2.62238
-2.60965
-2.64797
-2.65754
-2.67577
-2.70079
-2.73022
-2.76193
-2.79413
-2.82548
-2.85502
-2.88195
-2.90572
-2.92597
-2.94243
-2.9549
-2.96328
-2.96748
-2.96748
-2.96328
-2.9549
-2.94243
-2.92597
-2.90572
-2.88195
-2.85502
-2.82548
-2.79413
-2.76193
-2.73023
-2.70079
-2.67577
-2.65754
-2.64797
-2.67909
-2.68636
-2.70029
-2.71966
-2.74286
-2.76829
-2.79455
-2.82041
-2.84527
-2.8681
-2.88843
-2.90586
-2.92011
-2.93095
-2.93825
-2.94192
-2.94192
-2.93825
-2.93095
-2.92011
-2.90586
-2.88843
-2.8681
-2.84527
-2.82042
-2.79455
-2.76829
-2.74286
-2.71966
-2.70029
-2.68637
-2.67909
-2.70434
-2.70995
-2.72073
-2.73587
-2.75425
-2.7747
-2.79614
-2.81768
-2.83821
-2.85738
-2.87461
-2.8895
-2.90173
-2.91107
-2.91739
-2.92056
-2.92056
-2.91739
-2.91107
-2.90173
-2.8895
-2.87461
-2.85738
-2.83821
-2.81768
-2.79615
-2.77471
-2.75425
-2.73587
-2.72073
-2.70995
-2.70434
-2.72486
-2.72923
-2.73766
-2.7496
-2.76425
-2.78073
-2.79818
-2.81585
-2.83296
-2.84902
-2.86356
-2.87619
-2.88661
-2.89461
-2.90002
-2.90275
-2.90275
-2.90002
-2.89461
-2.88661
-2.87619
-2.86356
-2.84902
-2.83296
-2.81585
-2.79819
-2.78073
-2.76425
-2.74961
-2.73766
-2.72923
-2.72486
-2.74156
-2.745
-2.75166
-2.76114
-2.77286
-2.78617
-2.80039
-2.81489
-2.82908
-2.84249
-2.85469
-2.86535
-2.87419
-2.88099
-2.8856
-2.88793
-2.88793
-2.8856
-2.88099
-2.87419
-2.86535
-2.85469
-2.84249
-2.82908
-2.81489
-2.80039
-2.78617
-2.77286
-2.76114
-2.75166
-2.745
-2.74156
-2.75518
-2.7579
-2.76319
-2.77077
-2.7802
-2.79097
-2.80256
-2.81447
-2.82621
-2.83736
-2.84757
-2.85652
-2.86397
-2.86973
-2.87364
-2.87562
-2.87562
-2.87364
-2.86973
-2.86398
-2.85653
-2.84757
-2.83736
-2.82621
-2.81447
-2.80256
-2.79097
-2.7802
-2.77077
-2.76319
-2.7579
-2.75518
-2.76629
-2.76846
-2.7727
-2.77878
-2.78639
-2.79513
-2.80459
-2.81436
-2.82406
-2.83332
-2.84183
-2.84933
-2.85559
-2.86043
-2.86373
-2.8654
-2.8654
-2.86373
-2.86043
-2.85559
-2.84933
-2.84183
-2.83332
-2.82406
-2.81436
-2.80459
-2.79513
-2.78639
-2.77878
-2.7727
-2.76846
-2.76629
-2.77537
-2.77711
-2.78052
-2.78543
-2.79158
-2.79869
-2.80642
-2.81445
-2.82244
-2.83012
-2.8372
-2.84346
-2.84869
-2.85276
-2.85553
-2.85694
-2.85694
-2.85553
-2.85276
-2.84869
-2.84346
-2.8372
-2.83012
-2.82244
-2.81445
-2.80642
-2.79869
-2.79158
-2.78543
-2.78052
-2.77712
-2.77537
-2.7828
-2.78421
-2.78696
-2.79093
-2.79593
-2.80171
-2.80804
-2.81463
-2.82122
-2.82757
-2.83345
-2.83866
-2.84303
-2.84643
-2.84875
-2.84993
-2.84993
-2.84875
-2.84643
-2.84303
-2.83866
-2.83345
-2.82757
-2.82122
-2.81463
-2.80804
-2.80172
-2.79593
-2.79093
-2.78696
-2.78421
-2.7828
-2.78889
-2.79003
-2.79225
-2.79548
-2.79954
-2.80427
-2.80944
-2.81485
-2.82029
-2.82553
-2.83041
-2.83474
-2.83838
-2.84121
-2.84315
-2.84414
-2.84414
-2.84315
-2.84121
-2.83838
-2.83474
-2.83041
-2.82553
-2.82029
-2.81485
-2.80944
-2.80427
-2.79954
-2.79548
-2.79226
-2.79003
-2.78889
-2.79388
-2.7948
-2.79661
-2.79923
-2.80255
-2.80641
-2.81065
-2.81509
-2.81957
-2.8239
-2.82794
-2.83153
-2.83455
-2.83691
-2.83853
-2.83935
-2.83935
-2.83853
-2.83691
-2.83455
-2.83153
-2.82794
-2.8239
-2.81957
-2.81509
-2.81065
-2.80641
-2.80255
-2.79923
-2.79661
-2.7948
-2.79388
-2.79797
-2.79872
-2.8002
-2.80233
-2.80504
-2.8082
-2.81167
-2.81532
-2.81901
-2.82259
-2.82592
-2.8289
-2.83141
-2.83337
-2.83471
-2.8354
-2.8354
-2.83471
-2.83337
-2.83141
-2.8289
-2.82592
-2.82259
-2.81901
-2.81532
-2.81167
-2.8082
-2.80504
-2.80233
-2.8002
-2.79872
-2.79797
-2.80133
-2.80194
-2.80314
-2.80489
-2.8071
-2.80969
-2.81254
-2.81554
-2.81857
-2.82152
-2.82428
-2.82674
-2.82882
-2.83045
-2.83156
-2.83213
-2.83213
-2.83157
-2.83045
-2.82882
-2.82674
-2.82428
-2.82153
-2.81857
-2.81554
-2.81254
-2.80969
-2.8071
-2.80489
-2.80314
-2.80194
-2.80133
-2.80409
-2.80459
-2.80557
-2.807
-2.80881
-2.81093
-2.81327
-2.81573
-2.81823
-2.82066
-2.82294
-2.82498
-2.8267
-2.82804
-2.82897
-2.82944
-2.82944
-2.82897
-2.82805
-2.8267
-2.82498
-2.82294
-2.82067
-2.81823
-2.81573
-2.81327
-2.81093
-2.80881
-2.807
-2.80557
-2.80459
-2.80409
-2.80635
-2.80676
-2.80756
-2.80873
-2.81022
-2.81195
-2.81388
-2.8159
-2.81796
-2.81997
-2.82184
-2.82353
-2.82495
-2.82606
-2.82683
-2.82722
-2.82722
-2.82683
-2.82606
-2.82495
-2.82353
-2.82185
-2.81997
-2.81796
-2.81591
-2.81388
-2.81196
-2.81022
-2.80873
-2.80757
-2.80676
-2.80635
-2.80821
-2.80855
-2.80921
-2.81016
-2.81138
-2.81281
-2.81439
-2.81605
-2.81775
-2.8194
-2.82095
-2.82234
-2.82351
-2.82443
-2.82507
-2.82539
-2.82539
-2.82507
-2.82443
-2.82351
-2.82234
-2.82095
-2.8194
-2.81775
-2.81605
-2.81439
-2.81281
-2.81138
-2.81016
-2.80921
-2.80855
-2.80821
-2.80974
-2.81002
-2.81056
-2.81134
-2.81234
-2.81351
-2.81481
-2.81618
-2.81757
-2.81894
-2.82021
-2.82136
-2.82233
-2.82309
-2.82361
-2.82388
-2.82388
-2.82361
-2.82309
-2.82233
-2.82136
-2.82021
-2.81894
-2.81757
-2.81618
-2.81481
-2.81351
-2.81234
-2.81134
-2.81056
-2.81002
-2.80974
-2.811
-2.81123
-2.81167
-2.81231
-2.81313
-2.81409
-2.81516
-2.81629
-2.81744
-2.81856
-2.81961
-2.82055
-2.82136
-2.82198
-2.82242
-2.82264
-2.82264
-2.82242
-2.82198
-2.82136
-2.82055
-2.81961
-2.81856
-2.81744
-2.81629
-2.81516
-2.81409
-2.81313
-2.81231
-2.81167
-2.81123
-2.811
-2.81204
-2.81222
-2.81258
-2.81311
-2.81379
-2.81458
-2.81545
-2.81638
-2.81732
-2.81825
-2.81912
-2.81989
-2.82056
-2.82107
-2.82143
-2.82161
-2.82161
-2.82143
-2.82107
-2.82056
-2.81989
-2.81912
-2.81825
-2.81732
-2.81638
-2.81545
-2.81458
-2.81379
-2.81311
-2.81258
-2.81222
-2.81204
-2.81289
-2.81304
-2.81334
-2.81377
-2.81432
-2.81497
-2.81569
-2.81646
-2.81723
-2.81799
-2.81871
-2.81935
-2.8199
-2.82032
-2.82062
-2.82077
-2.82077
-2.82062
-2.82032
-2.8199
-2.81935
-2.81871
-2.81799
-2.81723
-2.81646
-2.81569
-2.81497
-2.81432
-2.81377
-2.81334
-2.81304
-2.81289
-2.81359
-2.81371
-2.81396
-2.81431
-2.81477
-2.8153
-2.81589
-2.81652
-2.81716
-2.81779
-2.81838
-2.8189
-2.81935
-2.81971
-2.81995
-2.82007
-2.82007
-2.81995
-2.81971
-2.81935
-2.81891
-2.81838
-2.81779
-2.81716
-2.81652
-2.81589
-2.8153
-2.81477
-2.81431
-2.81396
-2.81371
-2.81359
-2.81416
-2.81426
-2.81446
-2.81476
-2.81513
-2.81557
-2.81606
-2.81657
-2.8171
-2.81762
-2.8181
-2.81854
-2.81891
-2.8192
-2.8194
-2.8195
-2.8195
-2.8194
-2.8192
-2.81891
-2.81854
-2.8181
-2.81762
-2.8171
-2.81658
-2.81606
-2.81557
-2.81513
-2.81476
-2.81446
-2.81426
-2.81416
-2.81463
-2.81472
-2.81488
-2.81512
-2.81543
-2.81579
-2.81619
-2.81662
-2.81705
-2.81748
-2.81788
-2.81824
-2.81854
-2.81878
-2.81895
-2.81903
-2.81903
-2.81895
-2.81878
-2.81854
-2.81824
-2.81788
-2.81748
-2.81705
-2.81662
-2.81619
-2.81579
-2.81543
-2.81513
-2.81488
-2.81472
-2.81463
-2.81502
-2.81509
-2.81523
-2.81543
-2.81568
-2.81598
-2.81631
-2.81666
-2.81701
-2.81736
-2.81769
-2.81799
-2.81824
-2.81844
-2.81857
-2.81864
-2.81864
-2.81857
-2.81844
-2.81824
-2.81799
-2.81769
-2.81736
-2.81701
-2.81666
-2.81631
-2.81598
-2.81568
-2.81543
-2.81523
-2.81509
-2.81502
-2.81534
-2.8154
-2.81551
-2.81568
-2.81588
-2.81613
-2.8164
-2.81669
-2.81698
-2.81727
-2.81754
-2.81778
-2.81799
-2.81815
-2.81826
-2.81832
-2.81832
-2.81826
-2.81815
-2.81799
-2.81778
-2.81754
-2.81727
-2.81698
-2.81669
-2.8164
-2.81613
-2.81588
-2.81568
-2.81551
-2.8154
-2.81534
-2.81561
-2.81565
-2.81575
-2.81588
-2.81605
-2.81625
-2.81648
-2.81671
-2.81695
-2.81719
-2.81741
-2.81761
-2.81779
-2.81792
-2.81801
-2.81806
-2.81806
-2.81801
-2.81792
-2.81779
-2.81761
-2.81741
-2.81719
-2.81695
-2.81671
-2.81648
-2.81625
-2.81605
-2.81588
-2.81575
-2.81565
-2.81561
-2.81582
-2.81586
-2.81594
-2.81605
-2.81619
-2.81635
-2.81654
-2.81673
-2.81693
-2.81713
-2.81731
-2.81748
-2.81762
-2.81773
-2.8178
-2.81784
-2.81784
-2.8178
-2.81773
-2.81762
-2.81748
-2.81731
-2.81713
-2.81693
-2.81673
-2.81654
-2.81636
-2.81619
-2.81605
-2.81594
-2.81586
-2.81582
-2.816
-2.81603
-2.8161
-2.81619
-2.8163
-2.81644
-2.81659
-2.81675
-2.81691
-2.81708
-2.81723
-2.81736
-2.81748
-2.81757
-2.81763
-2.81766
-2.81766
-2.81763
-2.81757
-2.81748
-2.81736
-2.81723
-2.81708
-2.81691
-2.81675
-2.81659
-2.81644
-2.8163
-2.81619
-2.8161
-2.81603
-2.816
-2.81615
-2.81618
-2.81623
-2.8163
-2.8164
-2.81651
-2.81663
-2.81677
-2.8169
-2.81703
-2.81716
-2.81727
-2.81736
-2.81744
-2.81749
-2.81752
-2.81752
-2.81749
-2.81744
-2.81736
-2.81727
-2.81716
-2.81703
-2.8169
-2.81677
-2.81663