/*--------------------------------*- C++ -*----------------------------------*\
  =========                 |
  \\      /  F ield         | OpenFOAM: The Open Source CFD Toolbox
   \\    /   O peration     | Website:  https://openfoam.org
    \\  /    A nd           | Version:  9
     \\/     M anipulation  |
\*---------------------------------------------------------------------------*/
FoamFile
{
    format      ascii;
    class       surfaceScalarField;
    location    "0.25";
    object      phi;
}
// * * * * * * * * * * * * * * * * * * * * * * * * * * * * * * * * * * * * * //

dimensions      [0 3 -1 0 0 0 0];

internalField   nonuniform List<scalar> 
8032
(
-4.86009e-09
5.05125e-09
-1.04853e-08
4.61612e-09
-1.4904e-08
4.53093e-09
-1.90726e-08
4.31722e-09
-2.26136e-08
3.66639e-09
-2.538e-08
2.85514e-09
-2.71963e-08
1.87344e-09
-2.79464e-08
7.8634e-10
-2.75779e-08
-3.4573e-10
-2.60966e-08
-1.46626e-09
-2.356e-08
-2.52654e-09
-2.00703e-08
-3.48258e-09
-1.57687e-08
-4.29681e-09
-1.08278e-08
-4.93764e-09
-5.44526e-09
-5.38075e-09
1.64938e-10
-5.6093e-09
5.77985e-09
-5.61496e-09
1.11771e-08
-5.39789e-09
1.61429e-08
-4.96703e-09
2.04808e-08
-4.33955e-09
2.40192e-08
-3.54037e-09
2.6618e-08
-2.60107e-09
2.81744e-08
-1.55881e-09
2.86268e-08
-4.54917e-10
2.79576e-08
6.66531e-10
2.6195e-08
1.75986e-09
2.34132e-08
2.779e-09
1.97324e-08
3.6778e-09
1.53198e-08
4.4101e-09
1.03866e-08
4.93049e-09
5.18585e-09
5.1974e-09
5.18461e-09
-5.68461e-09
1.06312e-08
-1.13911e-08
1.03125e-08
-1.65622e-08
9.78202e-09
-2.10664e-08
8.93359e-09
-2.48706e-08
7.57365e-09
-2.77664e-08
5.8275e-09
-2.9623e-08
3.78299e-09
-3.0342e-08
1.53975e-09
-2.98741e-08
-7.90584e-10
-2.82261e-08
-3.09913e-09
-2.54567e-08
-5.2852e-09
-2.16735e-08
-7.25857e-09
-1.7025e-08
-8.94014e-09
-1.16952e-08
-1.02641e-08
-5.89482e-09
-1.11791e-08
1.4676e-10
-1.16501e-08
6.1911e-09
-1.16593e-08
1.19994e-08
-1.1207e-08
1.73425e-08
-1.03115e-08
2.20096e-08
-9.00849e-09
2.58165e-08
-7.34945e-09
2.86129e-08
-5.39996e-09
3.02885e-08
-3.23703e-09
3.07771e-08
-9.46381e-10
3.00602e-08
1.38053e-09
2.81678e-08
3.6491e-09
2.518e-08
5.7637e-09
2.1226e-08
7.62882e-09
1.64832e-08
9.14966e-09
1.11777e-08
1.02331e-08
5.5804e-09
1.0792e-08
1.07631e-08
-6.37028e-09
1.69119e-08
-1.2625e-08
1.65176e-08
-1.84511e-08
1.56263e-08
-2.3512e-08
1.40526e-08
-2.76906e-08
1.18165e-08
-3.08316e-08
9.02292e-09
-3.2807e-08
5.79872e-09
-3.35285e-08
2.28986e-09
-3.29556e-08
-1.34374e-09
-3.11e-08
-4.94078e-09
-2.80272e-08
-8.34815e-09
-2.38534e-08
-1.14254e-08
-1.87399e-08
-1.40489e-08
-1.28863e-08
-1.61145e-08
-6.52203e-09
-1.75415e-08
1.02918e-10
-1.82743e-08
6.72814e-09
-1.82847e-08
1.30931e-08
-1.75728e-08
1.89474e-08
-1.61672e-08
2.40607e-08
-1.41236e-08
2.82318e-08
-1.15227e-08
3.12964e-08
-8.46699e-09
3.31339e-08
-5.07721e-09
3.36723e-08
-1.48753e-09
3.28912e-08
2.15875e-09
3.08237e-08
5.7135e-09
2.75573e-08
9.02706e-09
2.32329e-08
1.19501e-08
1.80457e-08
1.43342e-08
1.2241e-08
1.60349e-08
6.11284e-09
1.69163e-08
1.68749e-08
-7.05783e-09
2.3896e-08
-1.41544e-08
2.35614e-08
-2.07147e-08
2.21815e-08
-2.64583e-08
1.98228e-08
-3.11788e-08
1.6575e-08
-3.47049e-08
1.25851e-08
-3.6903e-08
8.0262e-09
-3.76853e-08
3.09447e-09
-3.70157e-08
-1.99693e-09
-3.49133e-08
-7.03124e-09
-3.14541e-08
-1.17986e-08
-2.67687e-08
-1.61045e-08
-2.10375e-08
-1.97757e-08
-1.44829e-08
-2.26662e-08
-7.36068e-09
-2.4662e-08
5.04302e-11
-2.56847e-08
7.46002e-09
-2.56944e-08
1.45774e-08
-2.4691e-08
2.11233e-08
-2.27144e-08
2.68406e-08
-1.98427e-08
3.15046e-08
-1.61889e-08
3.49323e-08
-1.18971e-08
3.69891e-08
-7.13649e-09
3.75944e-08
-2.09558e-09
3.67257e-08
3.02458e-09
3.44201e-08
8.0161e-09
3.07753e-08
1.26689e-08
2.5949e-08
1.67735e-08
2.01572e-08
2.01228e-08
1.36753e-08
2.25137e-08
6.83331e-09
2.37561e-08
2.37061e-08
-7.97938e-09
3.1804e-08
-1.5991e-08
3.15257e-08
-2.34917e-08
2.96653e-08
-3.00975e-08
2.64356e-08
-3.55376e-08
2.20335e-08
-3.96005e-08
1.66695e-08
-4.21317e-08
1.05768e-08
-4.30342e-08
4.01308e-09
-4.22718e-08
-2.74665e-09
-3.9871e-08
-9.42217e-09
-3.59219e-08
-1.57403e-08
-3.05753e-08
-2.14456e-08
-2.40376e-08
-2.63094e-08
-1.65629e-08
-3.01384e-08
-8.44244e-09
-3.27809e-08
6.19281e-12
-3.41327e-08
8.45226e-09
-3.41406e-08
1.65648e-08
-3.28044e-08
2.40258e-08
-3.01767e-08
3.05424e-08
-2.6361e-08
3.58591e-08
-2.15076e-08
3.97672e-08
-1.58074e-08
4.21134e-08
-9.48522e-09
4.28063e-08
-2.7911e-09
4.18202e-08
4.00797e-09
3.91973e-08
1.0636e-08
3.50489e-08
1.68144e-08
2.95541e-08
2.22653e-08
2.29608e-08
2.67135e-08
1.55803e-08
2.98916e-08
7.78434e-09
3.1548e-08
3.14897e-08
-9.16136e-09
4.09308e-08
-1.83569e-08
4.06871e-08
-2.70225e-08
3.83131e-08
-3.47058e-08
3.41165e-08
-4.10579e-08
2.83933e-08
-4.58145e-08
2.14379e-08
-4.87873e-08
1.3562e-08
-4.98617e-08
5.09871e-09
-4.89967e-08
-3.6021e-09
-4.62256e-08
-1.21855e-08
-4.16551e-08
-2.03047e-08
-3.54622e-08
-2.76339e-08
-2.78873e-08
-3.3881e-08
-1.92256e-08
-3.87979e-08
-9.81535e-09
-4.21899e-08
-2.4638e-11
-4.3923e-08
9.7632e-09
-4.39287e-08
1.91646e-08
-4.22066e-08
2.78111e-08
-3.88244e-08
3.53634e-08
-3.39151e-08
4.15255e-08
-2.76716e-08
4.60556e-08
-2.03397e-08
4.87763e-08
-1.22083e-08
4.95815e-08
-3.59886e-09
4.84415e-08
5.14527e-09
4.54055e-08
1.36693e-08
4.0602e-08
2.1615e-08
3.42395e-08
2.86252e-08
2.66022e-08
3.43478e-08
1.80525e-08
3.84383e-08
9.0239e-09
4.0575e-08
4.05114e-08
-1.06877e-08
5.15796e-08
-2.1407e-08
5.13777e-08
-3.15453e-08
4.84341e-08
-4.05707e-08
4.31355e-08
-4.80582e-08
3.58817e-08
-5.36818e-08
2.70667e-08
-5.72102e-08
1.70973e-08
-5.85035e-08
6.39919e-09
-5.7512e-08
-4.5871e-09
-5.42749e-08
-1.54168e-08
-4.89191e-08
-2.56558e-08
-4.16535e-08
-3.48958e-08
-3.27619e-08
-4.27698e-08
-2.2592e-08
-4.8966e-08
-1.15415e-08
-5.32393e-08
-4.32471e-11
-5.54209e-08
1.14522e-08
-5.54245e-08
2.24943e-08
-5.32495e-08
3.265e-08
-4.89814e-08
4.1521e-08
-4.27876e-08
4.87593e-08
-3.49118e-08
5.4081e-08
-2.56636e-08
5.72778e-08
-1.54073e-08
5.82251e-08
-4.5486e-09
5.68881e-08
6.47978e-09
5.33244e-08
1.72304e-08
4.76852e-08
2.72515e-08
4.0214e-08
3.60935e-08
3.12477e-08
4.33118e-08
2.12086e-08
4.84752e-08
1.06e-08
5.11793e-08
5.1111e-08
-1.26309e-08
6.41941e-08
-2.52918e-08
6.40189e-08
-3.72811e-08
6.04086e-08
-4.79788e-08
5.38248e-08
-5.68736e-08
4.47738e-08
-6.35696e-08
3.37637e-08
-6.77838e-08
2.13148e-08
-6.9345e-08
7.96447e-09
-6.8191e-08
-5.73674e-09
-6.43678e-08
-1.9236e-08
-5.80259e-08
-3.19942e-08
-4.94141e-08
-4.35048e-08
-3.88697e-08
-5.3312e-08
-2.68061e-08
-6.10282e-08
-1.36959e-08
-6.63488e-08
-5.30882e-11
-6.90635e-08
1.35873e-08
-6.90652e-08
2.66903e-08
-6.63533e-08
3.87419e-08
-6.10341e-08
4.92692e-08
-5.33165e-08
5.78593e-08
-4.35037e-08
6.41753e-08
-3.19815e-08
6.79698e-08
-1.9204e-08
6.9095e-08
-5.67611e-09
6.75095e-08
8.06283e-09
6.32818e-08
2.14556e-08
5.65913e-08
3.39394e-08
4.77281e-08
4.49544e-08
3.70878e-08
5.39492e-08
2.51738e-08
6.03863e-08
1.25875e-08
6.37646e-08
6.36964e-08
-1.50727e-08
7.92435e-08
-3.01711e-08
7.90989e-08
-4.44731e-08
7.4697e-08
-5.72455e-08
6.65885e-08
-6.78787e-08
5.54023e-08
-7.58948e-08
4.17783e-08
-8.09504e-08
2.6371e-08
-8.28357e-08
9.85166e-09
-8.14737e-08
-7.09629e-09
-7.69178e-08
-2.37893e-08
-6.93474e-08
-3.95622e-08
-5.906e-08
-5.37902e-08
-4.64594e-08
-6.59111e-08
-3.20401e-08
-7.54465e-08
-1.63678e-08
-8.20206e-08
-5.74247e-11
-8.53739e-08
1.6251e-08
-8.53741e-08
3.19176e-08
-8.20207e-08
4.63274e-08
-7.54451e-08
5.89151e-08
-6.59056e-08
6.91866e-08
-5.37769e-08
7.67391e-08
-3.95359e-08
8.12767e-08
-2.37436e-08
8.26227e-08
-7.02433e-09
8.07277e-08
9.95553e-09
7.56737e-08
2.65073e-08
6.76749e-08
4.19357e-08
5.7077e-08
5.55497e-08
4.43569e-08
6.66674e-08
3.01123e-08
7.4629e-08
1.50549e-08
7.88177e-08
7.8751e-08
-1.81081e-08
9.73415e-08
-3.62341e-08
9.72115e-08
-5.34002e-08
9.18514e-08
-6.87361e-08
8.19155e-08
-8.15108e-08
6.81714e-08
-9.11491e-08
5.14134e-08
-9.72349e-08
3.24556e-08
-9.95129e-08
1.21299e-08
-9.7888e-08
-8.72013e-09
-9.24228e-08
-2.92531e-08
-8.3332e-08
-4.86516e-08
-7.0973e-08
-6.61479e-08
-5.58314e-08
-8.10517e-08
-3.85017e-08
-9.27756e-08
-1.96642e-08
-1.00858e-07
-5.8557e-11
-1.0498e-07
1.95457e-08
-1.04979e-07
3.83789e-08
-1.00855e-07
5.57017e-08
-9.27691e-08
7.08342e-08
-8.10395e-08
8.31825e-08
-6.61267e-08
9.22622e-08
-4.86173e-08
9.77175e-08
-2.92008e-08
9.93361e-08
-8.64493e-09
9.70584e-08
1.22311e-08
9.0983e-08
3.25804e-08
8.13678e-08
5.15487e-08
6.86293e-08
6.82862e-08
5.33361e-08
8.1958e-08
3.62094e-08
9.17529e-08
1.81099e-08
9.69167e-08
9.68589e-08
-2.18503e-08
1.19176e-07
-4.371e-08
1.19058e-07
-6.44064e-08
1.12537e-07
-8.28952e-08
1.00396e-07
-9.82999e-08
8.35699e-08
-1.09927e-07
6.30364e-08
-1.17273e-07
3.97995e-08
-1.20028e-07
1.4884e-08
-1.18075e-07
-1.06731e-08
-1.11488e-07
-3.58395e-08
-1.00526e-07
-5.96134e-08
-8.56182e-08
-8.10546e-08
-6.73516e-08
-9.93177e-08
-4.64434e-08
-1.13684e-07
-2.37146e-08
-1.23586e-07
-5.78957e-11
-1.28637e-07
2.35978e-08
-1.28635e-07
4.63237e-08
-1.23581e-07
6.72273e-08
-1.13674e-07
8.54881e-08
-9.93015e-08
1.00389e-07
-8.10293e-08
1.11346e-07
-5.95756e-08
1.17929e-07
-3.57857e-08
1.19882e-07
-1.06001e-08
1.17134e-07
1.49773e-08
1.09803e-07
3.99092e-08
9.82008e-08
6.31489e-08
8.28281e-08
8.36565e-08
6.43757e-08
1.00409e-07
4.37093e-08
1.12418e-07
2.18584e-08
1.18763e-07
1.18717e-07
-2.64434e-08
1.45611e-07
-5.28845e-08
1.45489e-07
-7.79102e-08
1.37553e-07
-1.00265e-07
1.22743e-07
-1.18892e-07
1.02191e-07
-1.32953e-07
7.70932e-08
-1.4184e-07
4.86831e-08
-1.45175e-07
1.82177e-08
-1.42817e-07
-1.30324e-08
-1.34853e-07
-4.38037e-08
-1.21595e-07
-7.28712e-08
-1.03563e-07
-9.90857e-08
-8.1467e-08
-1.21414e-07
-5.61736e-08
-1.38977e-07
-2.86767e-08
-1.51084e-07
-5.62758e-11
-1.57257e-07
2.85635e-08
-1.57256e-07
5.60587e-08
-1.51077e-07
8.13494e-08
-1.38966e-07
1.03443e-07
-1.21396e-07
1.21471e-07
-9.9059e-08
1.34727e-07
-7.28334e-08
1.42692e-07
-4.37521e-08
1.45055e-07
-1.2965e-08
1.4173e-07
1.83006e-08
1.32861e-07
4.87768e-08
1.18823e-07
7.7184e-08
1.00226e-07
1.02252e-07
7.78994e-08
1.22734e-07
5.28927e-08
1.37422e-07
2.64586e-08
1.45198e-07
1.45174e-07
-3.20598e-08
1.77659e-07
-6.41067e-08
1.77526e-07
-9.44305e-08
1.67868e-07
-1.21513e-07
1.49818e-07
-1.44079e-07
1.24751e-07
-1.61115e-07
9.41245e-08
-1.71883e-07
5.94476e-08
-1.75926e-07
2.22583e-08
-1.73069e-07
-1.58901e-08
-1.6342e-07
-5.34539e-08
-1.47354e-07
-8.89373e-08
-1.25503e-07
-1.20937e-07
-9.87236e-08
-1.48193e-07
-6.80689e-08
-1.69632e-07
-3.47427e-08
-1.8441e-07
-5.41951e-11
-1.91946e-07
3.4634e-08
-1.91944e-07
6.79594e-08
-1.84404e-07
9.86129e-08
-1.6962e-07
1.25391e-07
-1.48175e-07
1.47242e-07
-1.20911e-07
1.63309e-07
-8.89016e-08
1.72962e-07
-5.34067e-08
1.75826e-07
-1.58304e-08
1.71795e-07
2.23295e-08
1.61045e-07
5.95251e-08
1.44032e-07
9.41955e-08
1.2149e-07
1.24791e-07
9.44315e-08
1.49791e-07
6.41235e-08
1.67729e-07
3.20735e-08
1.77244e-07
1.77248e-07
-3.89183e-08
2.16571e-07
-7.78086e-08
2.16408e-07
-1.146e-07
2.04652e-07
-1.47456e-07
1.82668e-07
-1.74831e-07
1.5212e-07
-1.95498e-07
1.14787e-07
-2.08561e-07
7.25075e-08
-2.13466e-07
2.71606e-08
-2.1e-07
-1.93572e-08
-1.98293e-07
-6.51629e-08
-1.78799e-07
-1.08432e-07
-1.52284e-07
-1.47453e-07
-1.19788e-07
-1.80689e-07
-8.25891e-08
-2.06831e-07
-4.21474e-08
-2.24852e-07
-5.19816e-11
-2.34042e-07
4.20434e-08
-2.3404e-07
8.2485e-08
-2.24846e-07
1.19684e-07
-2.0682e-07
1.5218e-07
-1.80672e-07
1.78697e-07
-1.47429e-07
1.98194e-07
-1.084e-07
2.09907e-07
-6.51217e-08
2.13382e-07
-1.93063e-08
2.0849e-07
2.72198e-08
1.95444e-07
7.25696e-08
1.74798e-07
1.1484e-07
1.47445e-07
1.52143e-07
1.14607e-07
1.82628e-07
7.78244e-08
2.04509e-07
3.89348e-08
2.16134e-07
2.16181e-07
-4.72784e-08
2.63841e-07
-9.45151e-08
2.63637e-07
-1.39196e-07
2.49325e-07
-1.79093e-07
2.22559e-07
-2.12333e-07
1.85355e-07
-2.37427e-07
1.39877e-07
-2.53289e-07
8.83661e-08
-2.59244e-07
3.31138e-08
-2.55035e-07
-2.35678e-08
-2.40817e-07
-7.93826e-08
-2.17143e-07
-1.32107e-07
-1.84941e-07
-1.79656e-07
-1.45475e-07
-2.20155e-07
-1.00295e-07
-2.52011e-07
-5.11771e-08
-2.73971e-07
-4.98494e-11
-2.8517e-07
5.10775e-08
-2.85168e-07
1.00196e-07
-2.73965e-07
1.45377e-07
-2.52002e-07
1.84844e-07
-2.20141e-07
2.17049e-07
-1.79635e-07
2.40728e-07
-1.3208e-07
2.54954e-07
-7.93483e-08
2.59172e-07
-2.35261e-08
2.5323e-07
3.3161e-08
2.37384e-07
8.84138e-08
2.12309e-07
1.39914e-07
1.79086e-07
1.85363e-07
1.39206e-07
2.22507e-07
9.45347e-08
2.4918e-07
4.72911e-08
2.63374e-07
2.63472e-07
-5.74665e-08
3.21303e-07
-1.14871e-07
3.21036e-07
-1.69163e-07
3.03611e-07
-2.1764e-07
2.71031e-07
-2.58027e-07
2.25738e-07
-2.88517e-07
1.70363e-07
-3.0779e-07
1.07636e-07
-3.15026e-07
4.03477e-08
-3.09912e-07
-2.86837e-08
-2.92635e-07
-9.66613e-08
-2.63867e-07
-1.60876e-07
-2.24735e-07
-2.18788e-07
-1.76775e-07
-2.68115e-07
-1.21872e-07
-3.06916e-07
-6.21807e-08
-3.33663e-07
-4.79598e-11
-3.47304e-07
6.2085e-08
-3.47302e-07
1.21777e-07
-3.33658e-07
1.76682e-07
-3.06908e-07
2.24644e-07
-2.68104e-07
2.6378e-07
-2.18772e-07
2.92554e-07
-1.60855e-07
3.09839e-07
-9.66344e-08
3.14963e-07
-2.86515e-08
3.07739e-07
4.03833e-08
2.88482e-07
1.0767e-07
2.58009e-07
1.70386e-07
2.17639e-07
2.25732e-07
1.69174e-07
2.70971e-07
1.14887e-07
3.03465e-07
5.74812e-08
3.2078e-07
3.20952e-07
-6.98698e-08
3.91167e-07
-1.39659e-07
3.90819e-07
-2.05658e-07
3.69605e-07
-2.64584e-07
3.29953e-07
-3.13677e-07
2.74826e-07
-3.50738e-07
2.07421e-07
-3.74166e-07
1.3106e-07
-3.82963e-07
4.91425e-08
-3.76747e-07
-3.49013e-08
-3.55745e-07
-1.17665e-07
-3.20774e-07
-1.95849e-07
-2.73203e-07
-2.6636e-07
-2.14899e-07
-3.2642e-07
-1.48151e-07
-3.73664e-07
-7.55834e-08
-4.06231e-07
-4.64169e-11
-4.22841e-07
7.5491e-08
-4.2284e-07
1.4806e-07
-4.06228e-07
2.1481e-07
-3.73658e-07
2.73117e-07
-3.26412e-07
3.20693e-07
-2.66349e-07
3.5567e-07
-1.95833e-07
3.7668e-07
-1.17645e-07
3.82906e-07
-3.48785e-08
3.74122e-07
4.91669e-08
3.50708e-07
1.31082e-07
3.13662e-07
2.07431e-07
2.64583e-07
2.74809e-07
2.05669e-07
3.29884e-07
1.39677e-07
3.69458e-07
6.98801e-08
3.90573e-07
3.90832e-07
-8.49716e-08
4.76134e-07
-1.69835e-07
4.75678e-07
-2.50084e-07
4.4985e-07
-3.21733e-07
4.01598e-07
-3.81424e-07
3.34514e-07
-4.26489e-07
2.52482e-07
-4.54977e-07
1.59546e-07
-4.65676e-07
5.98394e-08
-4.5812e-07
-4.24585e-08
-4.32585e-07
-1.43201e-07
-3.90062e-07
-2.38373e-07
-3.32216e-07
-3.24207e-07
-2.61318e-07
-3.9732e-07
-1.8015e-07
-4.54832e-07
-9.19033e-08
-4.94479e-07
-4.53075e-11
-5.147e-07
9.18132e-08
-5.14699e-07
1.80061e-07
-4.94477e-07
2.61231e-07
-4.54828e-07
3.32134e-07
-3.97315e-07
3.89984e-07
-3.242e-07
4.32514e-07
-2.38363e-07
4.58058e-07
-1.4319e-07
4.65623e-07
-4.2445e-08
4.54936e-07
5.98531e-08
4.26462e-07
1.59555e-07
3.81412e-07
2.5248e-07
3.21734e-07
3.34486e-07
2.50094e-07
4.01523e-07
1.69847e-07
4.49703e-07
8.49841e-08
4.75438e-07
4.75815e-07
-1.03347e-07
5.79478e-07
-2.06558e-07
5.78884e-07
-3.04154e-07
5.47442e-07
-3.91288e-07
4.88729e-07
-4.63882e-07
4.07104e-07
-5.18689e-07
3.07287e-07
-5.53338e-07
1.94192e-07
-5.66355e-07
7.28542e-08
-5.57171e-07
-5.16438e-08
-5.2612e-07
-1.74254e-07
-4.74407e-07
-2.90087e-07
-4.04055e-07
-3.94559e-07
-3.17826e-07
-4.8355e-07
-2.19104e-07
-5.53553e-07
-1.11771e-07
-6.01813e-07
-4.46818e-11
-6.26427e-07
1.11682e-07
-6.26427e-07
2.19017e-07
-6.01812e-07
3.17741e-07
-5.53553e-07
4.03975e-07
-4.83549e-07
4.74331e-07
-3.94557e-07
5.26051e-07
-2.90084e-07
5.57111e-07
-1.7425e-07
5.66305e-07
-5.16394e-08
5.533e-07
7.28575e-08
5.18663e-07
1.94191e-07
4.6387e-07
3.07274e-07
3.91287e-07
4.07067e-07
3.04164e-07
4.88647e-07
2.06573e-07
5.47293e-07
1.03355e-07
5.78652e-07
5.79171e-07
-1.25711e-07
7.05186e-07
-2.51246e-07
7.04416e-07
-3.69948e-07
6.66141e-07
-4.75928e-07
5.94706e-07
-5.64225e-07
4.95398e-07
-6.30891e-07
3.73951e-07
-6.73042e-07
2.36341e-07
-6.88883e-07
8.86936e-08
-6.77722e-07
-6.28066e-08
-6.39961e-07
-2.12016e-07
-5.77065e-07
-3.52984e-07
-4.91495e-07
-4.8013e-07
-3.86607e-07
-5.88439e-07
-2.6652e-07
-6.7364e-07
-1.35955e-07
-7.32378e-07
-4.45888e-11
-7.62338e-07
1.35866e-07
-7.62338e-07
2.66433e-07
-7.3238e-07
3.86523e-07
-6.73643e-07
4.91415e-07
-5.88442e-07
5.76991e-07
-4.80134e-07
6.39894e-07
-3.52987e-07
6.77663e-07
-2.1202e-07
6.88834e-07
-6.28112e-08
6.73005e-07
8.86867e-08
6.30866e-07
2.36329e-07
5.64212e-07
3.73927e-07
4.75928e-07
4.9535e-07
3.69956e-07
5.94618e-07
2.51255e-07
6.65992e-07
1.25721e-07
7.04188e-07
7.04891e-07
-1.52916e-07
8.581e-07
-3.05615e-07
8.57113e-07
-4.50001e-07
8.10524e-07
-5.78913e-07
7.23615e-07
-6.86319e-07
6.02802e-07
-7.67419e-07
4.55049e-07
-8.18704e-07
2.87625e-07
-8.37988e-07
1.07976e-07
-8.24426e-07
-7.63702e-08
-7.78504e-07
-2.57938e-07
-7.02004e-07
-4.29486e-07
-5.97915e-07
-5.8422e-07
-4.7032e-07
-7.16034e-07
-3.24231e-07
-8.1973e-07
-1.6539e-07
-8.91219e-07
-4.50538e-11
-9.27683e-07
1.65301e-07
-9.27684e-07
3.24143e-07
-8.91222e-07
4.70235e-07
-8.19735e-07
5.97834e-07
-7.16041e-07
7.01929e-07
-5.84229e-07
7.78437e-07
-4.29496e-07
8.24367e-07
-2.5795e-07
8.37939e-07
-7.63839e-08
8.18666e-07
1.07959e-07
7.67394e-07
2.87602e-07
6.86305e-07
4.55015e-07
5.78909e-07
6.02746e-07
4.50007e-07
7.2352e-07
3.05627e-07
8.10373e-07
1.52922e-07
8.5689e-07
8.57814e-07
-1.86016e-07
1.04411e-06
-3.7176e-07
1.04285e-06
-5.4739e-07
9.86153e-07
-7.04204e-07
8.80426e-07
-8.34865e-07
7.33461e-07
-9.33534e-07
5.53717e-07
-9.95939e-07
3.50029e-07
-1.01942e-06
1.31455e-07
-1.00294e-06
-9.28472e-08
-9.47101e-07
-3.13783e-07
-8.5405e-07
-5.22537e-07
-7.27429e-07
-7.10842e-07
-5.72203e-07
-8.7126e-07
-3.9447e-07
-9.97464e-07
-2.01216e-07
-1.08447e-06
-4.61097e-11
-1.12885e-06
2.01125e-07
-1.12886e-06
3.9438e-07
-1.08448e-06
5.72117e-07
-9.97472e-07
7.27347e-07
-8.71271e-07
8.53974e-07
-7.10856e-07
9.47032e-07
-5.22554e-07
1.00288e-06
-3.13802e-07
1.01937e-06
-9.28699e-08
9.959e-07
1.31428e-07
9.33506e-07
3.49995e-07
8.34849e-07
5.53671e-07
7.042e-07
7.33395e-07
5.47394e-07
8.80326e-07
3.71765e-07
9.86e-07
1.86025e-07
1.04263e-06
1.04384e-06
-2.26277e-07
1.27039e-06
-4.52219e-07
1.26879e-06
-6.65863e-07
1.1998e-06
-8.56623e-07
1.07118e-06
-1.01558e-06
8.92417e-07
-1.13563e-06
6.73767e-07
-1.21158e-06
4.25974e-07
-1.24018e-06
1.60053e-07
-1.22017e-06
-1.12857e-07
-1.15226e-06
-3.8169e-07
-1.03908e-06
-6.35719e-07
-8.85048e-07
-8.64876e-07
-6.96199e-07
-1.06011e-06
-4.79955e-07
-1.21371e-06
-2.4482e-07
-1.31961e-06
-4.77745e-11
-1.37363e-06
2.44725e-07
-1.37363e-06
4.79862e-07
-1.31961e-06
6.9611e-07
-1.21372e-06
8.84963e-07
-1.06012e-06
1.039e-06
-8.64896e-07
1.15219e-06
-6.35742e-07
1.22011e-06
-3.81718e-07
1.24013e-06
-1.12889e-07
1.21154e-06
1.60017e-07
1.1356e-06
4.2593e-07
1.01556e-06
6.73711e-07
8.56615e-07
8.92342e-07
6.65865e-07
1.07108e-06
4.52228e-07
1.19964e-06
2.2628e-07
1.26858e-06
1.27012e-06
-2.75251e-07
1.54564e-06
-5.50088e-07
1.54363e-06
-8.0997e-07
1.45968e-06
-1.04203e-06
1.30324e-06
-1.23542e-06
1.08581e-06
-1.3815e-06
8.19843e-07
-1.47393e-06
5.1841e-07
-1.50878e-06
1.94897e-07
-1.48449e-06
-1.37148e-07
-1.40192e-06
-4.6426e-07
-1.26425e-06
-7.73382e-07
-1.07687e-06
-1.05226e-06
-8.4711e-07
-1.28987e-06
-5.84e-07
-1.47682e-06
-2.97891e-07
-1.60572e-06
-5.00774e-11
-1.67147e-06
2.97792e-07
-1.67147e-06
5.83902e-07
-1.60573e-06
8.47016e-07
-1.47683e-06
1.07678e-06
-1.28989e-06
1.26417e-06
-1.05229e-06
1.40184e-06
-7.73413e-07
1.48442e-06
-4.64296e-07
1.50872e-06
-1.37189e-07
1.47389e-06
1.9485e-07
1.38146e-06
5.18355e-07
1.2354e-06
8.19777e-07
1.04202e-06
1.08572e-06
8.09968e-07
1.30313e-06
5.50089e-07
1.45952e-06
2.75257e-07
1.54341e-06
1.54538e-06
-3.3481e-07
1.88045e-06
-6.69119e-07
1.87794e-06
-9.85246e-07
1.7758e-06
-1.26755e-06
1.58554e-06
-1.50283e-06
1.32109e-06
-1.68059e-06
9.97598e-07
-1.79311e-06
6.30929e-07
-1.83558e-06
2.37363e-07
-1.8061e-06
-1.66623e-07
-1.70572e-06
-5.64647e-07
-1.53828e-06
-9.40818e-07
-1.31033e-06
-1.28022e-06
-1.03078e-06
-1.56941e-06
-7.10637e-07
-1.79696e-06
-3.62488e-07
-1.95386e-06
-5.30385e-11
-2.0339e-06
3.62383e-07
-2.03391e-06
7.10534e-07
-1.95388e-06
1.03068e-06
-1.79698e-06
1.31023e-06
-1.56944e-06
1.53819e-06
-1.28025e-06
1.70564e-06
-9.40856e-07
1.80603e-06
-5.64691e-07
1.83552e-06
-1.66673e-07
1.79306e-06
2.37306e-07
1.68055e-06
6.30863e-07
1.50281e-06
9.97521e-07
1.26753e-06
1.321e-06
9.85242e-07
1.58542e-06
6.69123e-07
1.77564e-06
3.34812e-07
1.87772e-06
1.88019e-06
-4.07247e-07
2.28769e-06
-8.13879e-07
2.28457e-06
-1.19841e-06
2.16034e-06
-1.54184e-06
1.92897e-06
-1.8281e-06
1.60736e-06
-2.04442e-06
1.21392e-06
-2.1814e-06
7.67914e-07
-2.23318e-06
2.89141e-07
-2.19744e-06
-2.02366e-07
-2.07541e-06
-6.86679e-07
-1.87177e-06
-1.14445e-06
-1.59446e-06
-1.55753e-06
-1.25434e-06
-1.90953e-06
-8.64783e-07
-2.18652e-06
-4.4112e-07
-2.37753e-06
-5.66911e-11
-2.47497e-06
4.41007e-07
-2.47497e-06
8.64672e-07
-2.37754e-06
1.25424e-06
-2.18654e-06
1.59436e-06
-1.90956e-06
1.87167e-06
-1.55756e-06
2.07532e-06
-1.1445e-06
2.19736e-06
-6.86732e-07
2.23312e-06
-2.02427e-07
2.18135e-06
2.89073e-07
2.04438e-06
7.67836e-07
1.82807e-06
1.21383e-06
1.54182e-06
1.60725e-06
1.19841e-06
1.92883e-06
8.13876e-07
2.16017e-06
4.07251e-07
2.28435e-06
2.28744e-06
-4.95325e-07
2.78302e-06
-9.8991e-07
2.77915e-06
-1.45765e-06
2.62807e-06
-1.87542e-06
2.34674e-06
-2.22371e-06
1.95565e-06
-2.48697e-06
1.47718e-06
-2.65377e-06
9.34708e-07
-2.71693e-06
3.52302e-07
-2.67361e-06
-2.45683e-07
-2.52529e-06
-8.34999e-07
-2.27764e-06
-1.3921e-06
-1.9403e-06
-1.89487e-06
-1.52647e-06
-2.32336e-06
-1.05243e-06
-2.66057e-06
-5.36842e-07
-2.89311e-06
-6.10636e-11
-3.01175e-06
5.36721e-07
-3.01175e-06
1.05231e-06
-2.89313e-06
1.52636e-06
-2.66059e-06
1.94019e-06
-2.32339e-06
2.27754e-06
-1.89491e-06
2.5252e-06
-1.39216e-06
2.67353e-06
-8.35061e-07
2.71685e-06
-2.45754e-07
2.65371e-06
3.52222e-07
2.48693e-06
9.34618e-07
2.22368e-06
1.47707e-06
1.87539e-06
1.95554e-06
1.45763e-06
2.34659e-06
9.8991e-07
2.62789e-06
4.95323e-07
2.77893e-06
2.78276e-06
-6.0242e-07
3.38544e-06
-1.20395e-06
3.38068e-06
-1.77286e-06
3.19698e-06
-2.28106e-06
2.85494e-06
-2.70484e-06
2.37943e-06
-3.02526e-06
1.79759e-06
-3.22838e-06
1.13783e-06
-3.30547e-06
4.29387e-07
-3.25302e-06
-2.98134e-07
-3.07278e-06
-1.01523e-06
-2.77163e-06
-1.69325e-06
-2.36127e-06
-2.30523e-06
-1.85775e-06
-2.82688e-06
-1.28087e-06
-3.23744e-06
-6.53384e-07
-3.5206e-06
-6.6197e-11
-3.66506e-06
6.53252e-07
-3.66507e-06
1.28074e-06
-3.52062e-06
1.85763e-06
-3.23747e-06
2.36115e-06
-2.82691e-06
2.77152e-06
-2.30528e-06
3.07268e-06
-1.69331e-06
3.25292e-06
-1.01531e-06
3.30539e-06
-2.98215e-07
3.22831e-06
4.29295e-07
3.0252e-06
1.13773e-06
2.7048e-06
1.79747e-06
2.28104e-06
2.3793e-06
1.77284e-06
2.85479e-06
1.20394e-06
3.1968e-06
6.02422e-07
3.38045e-06
3.38518e-06
-7.3261e-07
4.11805e-06
-1.46415e-06
4.11223e-06
-2.1561e-06
3.88893e-06
-2.7743e-06
3.47315e-06
-3.28993e-06
2.89506e-06
-3.67994e-06
2.1876e-06
-3.92736e-06
1.38526e-06
-4.0215e-06
5.23529e-07
-3.95806e-06
-3.6158e-07
-3.73909e-06
-1.23419e-06
-3.37293e-06
-2.05942e-06
-2.87375e-06
-2.80441e-06
-2.26108e-06
-3.43954e-06
-1.55903e-06
-3.9395e-06
-7.95292e-07
-4.28434e-06
-7.21314e-11
-4.46028e-06
7.95148e-07
-4.46029e-06
1.55889e-06
-4.28436e-06
2.26095e-06
-3.93953e-06
2.87362e-06
-3.43958e-06
3.3728e-06
-2.80447e-06
3.73898e-06
-2.05949e-06
3.95795e-06
-1.23428e-06
4.02141e-06
-3.61673e-07
3.92728e-06
5.23425e-07
3.67988e-06
1.38514e-06
3.28988e-06
2.18747e-06
2.77427e-06
2.89492e-06
2.15608e-06
3.47298e-06
1.46415e-06
3.88873e-06
7.32605e-07
4.112e-06
4.11779e-06
-8.9086e-07
5.00891e-06
-1.78045e-06
5.00182e-06
-2.62197e-06
4.73045e-06
-3.37397e-06
4.22514e-06
-4.00137e-06
3.52247e-06
-4.47613e-06
2.66236e-06
-4.77758e-06
1.6867e-06
-4.89264e-06
6.38589e-07
-4.81598e-06
-4.38233e-07
-4.55005e-06
-1.50012e-06
-4.10488e-06
-2.50459e-06
-3.49769e-06
-3.41161e-06
-2.75221e-06
-4.18502e-06
-1.89777e-06
-4.79394e-06
-9.68116e-07
-5.21399e-06
-7.89193e-11
-5.42832e-06
9.67959e-07
-5.42832e-06
1.89761e-06
-5.21401e-06
2.75206e-06
-4.79397e-06
3.49755e-06
-4.18507e-06
4.10475e-06
-3.41167e-06
4.54993e-06
-2.50467e-06
4.81587e-06
-1.50021e-06
4.89253e-06
-4.38339e-07
4.77749e-06
6.38471e-07
4.47606e-06
1.68657e-06
4.00131e-06
2.66222e-06
3.37393e-06
3.5223e-06
2.62195e-06
4.22496e-06
1.78043e-06
4.73025e-06
8.90858e-07
5.00157e-06
5.00865e-06
-1.08317e-06
6.09208e-06
-2.16485e-06
6.08349e-06
-3.18822e-06
5.75383e-06
-4.10291e-06
5.13984e-06
-4.86633e-06
4.28588e-06
-5.44433e-06
3.24037e-06
-5.81171e-06
2.05408e-06
-5.95246e-06
7.79342e-07
-5.85999e-06
-5.30702e-07
-5.53714e-06
-1.82297e-06
-4.996e-06
-3.04572e-06
-4.25745e-06
-4.15015e-06
-3.35034e-06
-5.09213e-06
-2.31035e-06
-5.83392e-06
-1.17864e-06
-6.3457e-06
-8.66152e-11
-6.60686e-06
1.17846e-06
-6.60687e-06
2.31018e-06
-6.34573e-06
3.35017e-06
-5.83396e-06
4.2573e-06
-5.09219e-06
4.99585e-06
-4.15023e-06
5.537e-06
-3.04581e-06
5.85986e-06
-1.82307e-06
5.95234e-06
-5.30821e-07
5.81161e-06
7.79209e-07
5.44425e-06
2.05394e-06
4.86626e-06
3.2402e-06
4.10286e-06
4.2857e-06
3.18818e-06
5.13964e-06
2.16483e-06
5.7536e-06
1.08316e-06
6.08324e-06
6.09181e-06
-1.31683e-06
7.40891e-06
-2.63191e-06
7.39857e-06
-3.8763e-06
6.99822e-06
-4.98885e-06
6.25239e-06
-5.91779e-06
5.21482e-06
-6.62158e-06
3.94415e-06
-7.06945e-06
2.50196e-06
-7.24182e-06
9.51709e-07
-7.13047e-06
-6.42046e-07
-6.7387e-06
-2.21475e-06
-6.08103e-06
-3.70338e-06
-5.18277e-06
-5.04842e-06
-4.07894e-06
-6.19596e-06
-2.81301e-06
-7.09984e-06
-1.43514e-06
-7.72358e-06
-9.52854e-11
-8.0419e-06
1.43495e-06
-8.04191e-06
2.81283e-06
-7.7236e-06
4.07876e-06
-7.09989e-06
5.18259e-06
-6.19602e-06
6.08087e-06
-5.0485e-06
6.73854e-06
-3.70348e-06
7.13033e-06
-2.21486e-06
7.24169e-06
-6.42179e-07
7.06934e-06
9.51561e-07
6.62148e-06
2.5018e-06
5.91772e-06
3.94397e-06
4.9888e-06
5.21462e-06
3.87626e-06
6.25218e-06
2.63188e-06
6.99798e-06
1.31682e-06
7.39831e-06
7.40863e-06
-1.60063e-06
9.00954e-06
-3.19925e-06
8.9972e-06
-4.71224e-06
8.51121e-06
-6.06538e-06
7.60553e-06
-7.19576e-06
6.3452e-06
-8.05283e-06
4.80123e-06
-8.59907e-06
3.0482e-06
-8.81042e-06
1.16306e-06
-8.67665e-06
-7.75813e-07
-8.20148e-06
-2.68991e-06
-7.40238e-06
-4.50248e-06
-6.30993e-06
-6.14087e-06
-4.96669e-06
-7.5392e-06
-3.42558e-06
-8.64095e-06
-1.74776e-06
-9.4014e-06
-1.05001e-10
-9.78955e-06
1.74755e-06
-9.78956e-06
3.42537e-06
-9.40143e-06
4.96649e-06
-8.641e-06
6.30973e-06
-7.53927e-06
7.4022e-06
-6.14096e-06
8.20131e-06
-4.50259e-06
8.67649e-06
-2.69004e-06
8.81027e-06
-7.7596e-07
8.59894e-06
1.16289e-06
8.05273e-06
3.04802e-06
7.19567e-06
4.80103e-06
6.06531e-06
6.34499e-06
4.7122e-06
7.6053e-06
3.19923e-06
8.51095e-06
1.60062e-06
8.99692e-06
9.00925e-06
-1.94524e-06
1.09548e-05
-3.88821e-06
1.09402e-05
-5.72752e-06
1.03505e-05
-7.37315e-06
9.25116e-06
-8.74869e-06
7.72075e-06
-9.79264e-06
5.84518e-06
-1.04592e-05
3.71471e-06
-1.07187e-05
1.4226e-06
-1.05584e-05
-9.36068e-07
-9.98251e-06
-3.26583e-06
-9.01182e-06
-5.47316e-06
-7.68332e-06
-7.46937e-06
-6.04868e-06
-9.17383e-06
-4.17234e-06
-1.05173e-05
-2.12891e-06
-1.14448e-05
-1.15845e-10
-1.19183e-05
2.12868e-06
-1.19184e-05
4.17211e-06
-1.14449e-05
6.04846e-06
-1.05173e-05
7.68311e-06
-9.17391e-06
9.01162e-06
-7.46947e-06
9.98232e-06
-5.47329e-06
1.05583e-05
-3.26597e-06
1.07185e-05
-9.36231e-07
1.0459e-05
1.42241e-06
9.79252e-06
3.71451e-06
8.74859e-06
5.84496e-06
7.37307e-06
7.72051e-06
5.72746e-06
9.25091e-06
3.88817e-06
1.03502e-05
1.94523e-06
1.09399e-05
1.09545e-05
-2.36351e-06
1.33183e-05
-4.72451e-06
1.33012e-05
-6.96017e-06
1.25862e-05
-8.96135e-06
1.12523e-05
-1.06353e-05
9.39469e-06
-1.19071e-05
7.11701e-06
-1.27209e-05
4.52845e-06
-1.30401e-05
1.74187e-06
-1.28488e-05
-1.12739e-06
-1.21513e-05
-3.96329e-06
-1.09726e-05
-6.65187e-06
-9.35725e-06
-9.08475e-06
-7.3679e-06
-1.11632e-05
-5.08306e-06
-1.28021e-05
-2.59383e-06
-1.39341e-05
-1.27907e-10
-1.4512e-05
2.59357e-06
-1.45121e-05
5.08281e-06
-1.39341e-05
7.36765e-06
-1.28022e-05
9.35701e-06
-1.11633e-05
1.09724e-05
-9.08486e-06
1.21511e-05
-6.65201e-06
1.28486e-05
-3.96345e-06
1.304e-05
-1.12757e-06
1.27207e-05
1.74167e-06
1.1907e-05
4.52823e-06
1.06352e-05
7.11677e-06
8.96126e-06
9.39443e-06
6.96011e-06
1.12521e-05
4.72447e-06
1.25859e-05
2.36349e-06
1.33008e-05
1.3318e-05
-2.87096e-06
1.61893e-05
-5.73922e-06
1.61694e-05
-8.45611e-06
1.53031e-05
-1.08894e-05
1.36856e-05
-1.29265e-05
1.14318e-05
-1.44764e-05
8.66689e-06
-1.54706e-05
5.5226e-06
-1.58641e-05
2.13544e-06
-1.56367e-05
-1.3548e-06
-1.47929e-05
-4.80712e-06
-1.33622e-05
-8.08259e-06
-1.13982e-05
-1.10487e-05
-8.97707e-06
-1.35843e-05
-6.19431e-06
-1.55849e-05
-3.16122e-06
-1.69671e-05
-1.41288e-10
-1.76731e-05
3.16094e-06
-1.76731e-05
6.19403e-06
-1.69672e-05
8.9768e-06
-1.5585e-05
1.1398e-05
-1.35844e-05
1.33619e-05
-1.10488e-05
1.47926e-05
-8.08274e-06
1.56365e-05
-4.80729e-06
1.58639e-05
-1.355e-06
1.54704e-05
2.13522e-06
1.44763e-05
5.52235e-06
1.29264e-05
8.66662e-06
1.08893e-05
1.14315e-05
8.45603e-06
1.36853e-05
5.73917e-06
1.53028e-05
2.87094e-06
1.61691e-05
1.61889e-05
-3.48623e-06
1.96755e-05
-6.96972e-06
1.96529e-05
-1.02707e-05
1.8604e-05
-1.3229e-05
1.6644e-05
-1.57082e-05
1.39111e-05
-1.75975e-05
1.05561e-05
-1.8813e-05
6.73811e-06
-1.92993e-05
2.62178e-06
-1.90305e-05
-1.62361e-06
-1.80109e-05
-5.82677e-06
-1.62751e-05
-9.8183e-06
-1.38878e-05
-1.3436e-05
-1.0941e-05
-1.65312e-05
-7.55106e-06
-1.89748e-05
-3.85414e-06
-2.0664e-05
-1.56102e-10
-2.15271e-05
3.85383e-06
-2.15271e-05
7.55075e-06
-2.06641e-05
1.09407e-05
-1.89749e-05
1.38875e-05
-1.65313e-05
1.62749e-05
-1.34362e-05
1.80106e-05
-9.81846e-06
1.90303e-05
-5.82696e-06
1.92991e-05
-1.62383e-06
1.88128e-05
2.62153e-06
1.75973e-05
6.73784e-06
1.57081e-05
1.05558e-05
1.32289e-05
1.39107e-05
1.02706e-05
1.66437e-05
6.96966e-06
1.86037e-05
3.4862e-06
1.96525e-05
1.96751e-05
-4.23176e-06
2.39073e-05
-8.46094e-06
2.38821e-05
-1.24704e-05
2.26135e-05
-1.60665e-05
2.02401e-05
-1.90839e-05
1.69284e-05
-2.13876e-05
1.28599e-05
-2.28752e-05
8.22565e-06
-2.34778e-05
3.22441e-06
-2.31623e-05
-1.93913e-06
-2.1932e-05
-7.05702e-06
-1.98277e-05
-1.19227e-05
-1.69263e-05
-1.63374e-05
-1.33394e-05
-2.01181e-05
-9.20877e-06
-2.31054e-05
-4.70102e-06
-2.51718e-05
-1.72475e-10
-2.62279e-05
4.70068e-06
-2.6228e-05
9.20844e-06
-2.51718e-05
1.33391e-05