/*--------------------------------*- C++ -*----------------------------------*\
  =========                 |
  \\      /  F ield         | OpenFOAM: The Open Source CFD Toolbox
   \\    /   O peration     | Website:  https://openfoam.org
    \\  /    A nd           | Version:  9
     \\/     M anipulation  |
\*---------------------------------------------------------------------------*/
FoamFile
{
    format      ascii;
    class       volVectorField;
    location    "0.25";
    object      U;
}
// * * * * * * * * * * * * * * * * * * * * * * * * * * * * * * * * * * * * * //

dimensions      [0 1 -1 0 0 0 0];

internalField   nonuniform List<vector> 
4096
(
(-7.90836e-07 7.46779e-07 0)
(-2.4587e-06 7.30331e-07 0)
(-4.13734e-06 6.64158e-07 0)
(-5.52459e-06 6.6418e-07 0)
(-6.70113e-06 5.71441e-07 0)
(-7.7341e-06 4.48304e-07 0)
(-8.48221e-06 2.95593e-07 0)
(-8.90131e-06 1.25227e-07 0)
(-8.96537e-06 -5.24044e-08 0)
(-8.66779e-06 -2.28404e-07 0)
(-8.01937e-06 -3.94785e-07 0)
(-7.04628e-06 -5.44788e-07 0)
(-5.78809e-06 -6.72453e-07 0)
(-4.29555e-06 -7.72952e-07 0)
(-2.62848e-06 -8.42419e-07 0)
(-8.53371e-07 -8.78308e-07 0)
(9.59231e-07 -8.79262e-07 0)
(2.73743e-06 -8.45367e-07 0)
(4.4108e-06 -7.77979e-07 0)
(5.91312e-06 -6.79832e-07 0)
(7.18494e-06 -5.54788e-07 0)
(8.17595e-06 -4.07828e-07 0)
(8.84691e-06 -2.44733e-07 0)
(9.17124e-06 -7.20002e-08 0)
(9.13614e-06 1.03487e-07 0)
(8.74325e-06 2.7458e-07 0)
(8.00897e-06 4.34074e-07 0)
(6.96436e-06 5.74703e-07 0)
(5.65489e-06 6.89288e-07 0)
(4.14188e-06 7.70802e-07 0)
(2.50467e-06 8.11974e-07 0)
(8.22187e-07 8.09255e-07 0)
(-8.46506e-07 2.40994e-06 0)
(-2.76022e-06 2.27565e-06 0)
(-4.59621e-06 2.19074e-06 0)
(-6.0844e-06 2.07131e-06 0)
(-7.40207e-06 1.77408e-06 0)
(-8.48121e-06 1.37855e-06 0)
(-9.25456e-06 9.02255e-07 0)
(-9.67468e-06 3.75253e-07 0)
(-9.71805e-06 -1.73506e-07 0)
(-9.37817e-06 -7.17211e-07 0)
(-8.66591e-06 -1.23181e-06 0)
(-7.60849e-06 -1.69603e-06 0)
(-6.24748e-06 -2.09146e-06 0)
(-4.63674e-06 -2.40273e-06 0)
(-2.84e-06 -2.61792e-06 0)
(-9.28341e-07 -2.72885e-06 0)
(1.0227e-06 -2.73143e-06 0)
(2.93607e-06 -2.62575e-06 0)
(4.73625e-06 -2.41611e-06 0)
(6.35221e-06 -2.11089e-06 0)
(7.72017e-06 -1.72219e-06 0)
(8.78614e-06 -1.26537e-06 0)
(9.50803e-06 -7.58488e-07 0)
(9.85734e-06 -2.2164e-07 0)
(9.82037e-06 3.23719e-07 0)
(9.39893e-06 8.55422e-07 0)
(8.6106e-06 1.35105e-06 0)
(7.48873e-06 1.78818e-06 0)
(6.08222e-06 2.14449e-06 0)
(4.45603e-06 2.39795e-06 0)
(2.69644e-06 2.52878e-06 0)
(8.86268e-07 2.51999e-06 0)
(-9.99297e-07 4.35871e-06 0)
(-3.07623e-06 4.19755e-06 0)
(-5.05412e-06 4.0167e-06 0)
(-6.79e-06 3.63143e-06 0)
(-8.26076e-06 3.06993e-06 0)
(-9.43828e-06 2.35512e-06 0)
(-1.02653e-05 1.52266e-06 0)
(-1.07029e-05 6.12084e-07 0)
(-1.0729e-05 -3.32898e-07 0)
(-1.03385e-05 -1.26893e-06 0)
(-9.54384e-06 -2.15558e-06 0)
(-8.37457e-06 -2.95614e-06 0)
(-6.87562e-06 -3.63852e-06 0)
(-5.10536e-06 -4.17581e-06 0)
(-3.13313e-06 -4.54708e-06 0)
(-1.03634e-06 -4.738e-06 0)
(1.10261e-06 -4.74133e-06 0)
(3.19961e-06 -4.55713e-06 0)
(5.17216e-06 -4.19285e-06 0)
(6.94267e-06 -3.66294e-06 0)
(8.44145e-06 -2.98837e-06 0)
(9.6095e-06 -2.19576e-06 0)
(1.04008e-05 -1.31641e-06 0)
(1.07843e-05 -3.85165e-07 0)
(1.0745e-05 5.60796e-07 0)
(1.02848e-05 1.48304e-06 0)
(9.42321e-06 2.3427e-06 0)
(8.19649e-06 3.101e-06 0)
(6.65779e-06 3.71941e-06 0)
(4.87963e-06 4.16039e-06 0)
(2.9535e-06 4.38815e-06 0)
(9.70387e-07 4.37579e-06 0)
(-1.11571e-06 6.47177e-06 0)
(-3.42964e-06 6.37313e-06 0)
(-5.64795e-06 5.99647e-06 0)
(-7.62625e-06 5.36916e-06 0)
(-9.30508e-06 4.49868e-06 0)
(-1.06312e-05 3.42496e-06 0)
(-1.15541e-05 2.19284e-06 0)
(-1.20359e-05 8.5576e-07 0)
(-1.20553e-05 -5.27e-07 0)
(-1.1609e-05 -1.89534e-06 0)
(-1.0712e-05 -3.19147e-06 0)
(-9.39782e-06 -4.36219e-06 0)
(-7.71664e-06 -5.36035e-06 0)
(-5.73358e-06 -6.14632e-06 0)
(-3.52589e-06 -6.68915e-06 0)
(-1.17989e-06 -6.96763e-06 0)
(1.21255e-06 -6.97096e-06 0)
(3.55762e-06 -6.69919e-06 0)
(5.76326e-06 -6.16314e-06 0)
(7.74289e-06 -5.38402e-06 0)
(9.41874e-06 -4.39256e-06 0)
(1.0725e-05 -3.22785e-06 0)
(1.16103e-05 -1.93585e-06 0)
(1.20399e-05 -5.67714e-07 0)
(1.19972e-05 8.21972e-07 0)
(1.14845e-05 2.17676e-06 0)
(1.05232e-05 3.43963e-06 0)
(9.15411e-06 4.5537e-06 0)
(7.43696e-06 5.46262e-06 0)
(5.45059e-06 6.11112e-06 0)
(3.3003e-06 6.44804e-06 0)
(1.08567e-06 6.43158e-06 0)
(-1.26383e-06 8.83774e-06 0)
(-3.8679e-06 8.74441e-06 0)
(-6.38064e-06 8.22592e-06 0)
(-8.65778e-06 7.33417e-06 0)
(-1.05976e-05 6.11961e-06 0)
(-1.21278e-05 4.63698e-06 0)
(-1.31906e-05 2.94901e-06 0)
(-1.37447e-05 1.12706e-06 0)
(-1.37678e-05 -7.51656e-07 0)
(-1.32579e-05 -2.60829e-06 0)
(-1.22335e-05 -4.36615e-06 0)
(-1.07333e-05 -5.95376e-06 0)
(-8.81521e-06 -7.30737e-06 0)
(-6.55342e-06 -8.37309e-06 0)
(-4.03606e-06 -9.10878e-06 0)
(-1.36145e-06 -9.48544e-06 0)
(1.36578e-06 -9.48832e-06 0)
(4.03881e-06 -9.11738e-06 0)
(6.55281e-06 -8.38728e-06 0)
(8.8092e-06 -7.32681e-06 0)
(1.07194e-05 -5.97774e-06 0)
(1.22086e-05 -4.3932e-06 0)
(1.32181e-05 -2.63566e-06 0)
(1.37086e-05 -7.74681e-07 0)
(1.36611e-05 1.11552e-06 0)
(1.30781e-05 2.95822e-06 0)
(1.19842e-05 4.67589e-06 0)
(1.04258e-05 6.19126e-06 0)
(8.47025e-06 7.42786e-06 0)
(6.20986e-06 8.31118e-06 0)
(3.7601e-06 8.77063e-06 0)
(1.23582e-06 8.75132e-06 0)
(-1.45246e-06 1.15394e-05 0)
(-4.43452e-06 1.14597e-05 0)
(-7.32336e-06 1.07841e-05 0)
(-9.96695e-06 9.60281e-06 0)
(-1.22321e-05 7.99543e-06 0)
(-1.40234e-05 6.04144e-06 0)
(-1.52698e-05 3.82655e-06 0)
(-1.59226e-05 1.44398e-06 0)
(-1.59564e-05 -1.00747e-06 0)
(-1.53698e-05 -3.42714e-06 0)
(-1.4185e-05 -5.71667e-06 0)
(-1.24478e-05 -7.78386e-06 0)
(-1.02255e-05 -9.54605e-06 0)
(-7.60463e-06 -1.09332e-05 0)
(-4.68743e-06 -1.18903e-05 0)
(-1.58794e-06 -1.23796e-05 0)
(1.57255e-06 -1.23818e-05 0)
(4.67023e-06 -1.18968e-05 0)
(7.58367e-06 -1.09437e-05 0)
(1.01986e-05 -9.55985e-06 0)
(1.24125e-05 -7.79984e-06 0)
(1.41385e-05 -5.7329e-06 0)
(1.5309e-05 -3.44049e-06 0)
(1.5878e-05 -1.01327e-06 0)
(1.58237e-05 1.45197e-06 0)
(1.51491e-05 3.8552e-06 0)
(1.38826e-05 6.09537e-06 0)
(1.20779e-05 8.07182e-06 0)
(9.81396e-06 9.68504e-06 0)
(7.19427e-06 1.08378e-05 0)
(4.35734e-06 1.14397e-05 0)
(1.43388e-06 1.14171e-05 0)
(-1.69446e-06 1.46757e-05 0)
(-5.16762e-06 1.4608e-05 0)
(-8.53909e-06 1.37619e-05 0)
(-1.16393e-05 1.22532e-05 0)
(-1.43074e-05 1.01933e-05 0)
(-1.64238e-05 7.69139e-06 0)
(-1.79005e-05 4.86102e-06 0)
(-1.86784e-05 1.82223e-06 0)
(-1.87269e-05 -1.29989e-06 0)
(-1.80443e-05 -4.37864e-06 0)
(-1.66574e-05 -7.29016e-06 0)
(-1.46201e-05 -9.91803e-06 0)
(-1.2012e-05 -1.21577e-05 0)
(-8.93503e-06 -1.39203e-05 0)
(-5.50952e-06 -1.51361e-05 0)
(-1.86957e-06 -1.5757e-05 0)
(1.84225e-06 -1.57585e-05 0)
(5.48046e-06 -1.51404e-05 0)
(8.9024e-06 -1.39269e-05 0)
(1.19739e-05 -1.21659e-05 0)
(1.45744e-05 -9.92637e-06 0)
(1.66019e-05 -7.29656e-06 0)
(1.7977e-05 -4.38004e-06 0)
(1.86458e-05 -1.29213e-06 0)
(1.85826e-05 1.84406e-06 0)
(1.77909e-05 4.9013e-06 0)
(1.63041e-05 7.75111e-06 0)
(1.41854e-05 1.02655e-05 0)
(1.15263e-05 1.23182e-05 0)
(8.45205e-06 1.37862e-05 0)
(5.11914e-06 1.45538e-05 0)
(1.68299e-06 1.45292e-05 0)
(-2.00398e-06 1.83641e-05 0)
(-6.10385e-06 1.83084e-05 0)
(-1.00857e-05 1.7267e-05 0)
(-1.37571e-05 1.53802e-05 0)
(-1.69246e-05 1.27926e-05 0)
(-1.94427e-05 9.64726e-06 0)
(-2.1204e-05 6.09123e-06 0)
(-2.21361e-05 2.27695e-06 0)
(-2.22016e-05 -1.63857e-06 0)
(-2.13981e-05 -5.4972e-06 0)
(-1.97572e-05 -9.14465e-06 0)
(-1.73432e-05 -1.24358e-05 0)
(-1.42509e-05 -1.52402e-05 0)
(-1.06014e-05 -1.74468e-05 0)
(-6.53765e-06 -1.89685e-05 0)
(-2.21896e-06 -1.97451e-05 0)
(2.18533e-06 -1.97459e-05 0)
(6.50251e-06 -1.89708e-05 0)
(1.05632e-05 -1.74501e-05 0)
(1.42081e-05 -1.52435e-05 0)
(1.72942e-05 -1.24378e-05 0)
(1.97005e-05 -9.14332e-06 0)
(2.13325e-05 -5.48979e-06 0)
(2.21265e-05 -1.62168e-06 0)
(2.20519e-05 2.30683e-06 0)
(2.11128e-05 6.13638e-06 0)
(1.93489e-05 9.70608e-06 0)
(1.6835e-05 1.28558e-05 0)
(1.36811e-05 1.54276e-05 0)
(1.00311e-05 1.72676e-05 0)
(6.07699e-06 1.82327e-05 0)
(2.00024e-06 1.8206e-05 0)
(-2.39171e-06 2.275e-05 0)
(-7.28079e-06 2.27049e-05 0)
(-1.2029e-05 2.14327e-05 0)
(-1.64102e-05 1.91007e-05 0)
(-2.01952e-05 1.58895e-05 0)
(-2.32083e-05 1.19814e-05 0)
(-2.53192e-05 7.56267e-06 0)
(-2.64397e-05 2.82485e-06 0)
(-2.65241e-05 -2.03646e-06 0)
(-2.55687e-05 -6.82525e-06 0)
(-2.36111e-05 -1.13506e-05 0)
(-2.07283e-05 -1.5433e-05 0)
(-1.70335e-05 -1.8911e-05 0)
(-1.26717e-05 -2.16473e-05 0)
(-7.814e-06 -2.35339e-05 0)
(-2.65104e-06 -2.44964e-05 0)
(2.61461e-06 -2.44966e-05 0)
(7.77635e-06 -2.35346e-05 0)
(1.26316e-05 -2.16478e-05 0)
(1.69898e-05 -1.89106e-05 0)
(2.068e-05 -1.54303e-05 0)
(2.35573e-05 -1.13438e-05 0)
(2.55089e-05 -6.81214e-06 0)
(2.64585e-05 -2.01442e-06 0)
(2.63694e-05 2.85813e-06 0)
(2.52468e-05 7.60788e-06 0)
(2.3138e-05 1.20353e-05 0)
(2.01327e-05 1.5942e-05 0)
(1.63607e-05 1.91323e-05 0)
(1.1999e-05 2.14164e-05 0)
(7.26918e-06 2.26166e-05 0)
(2.39064e-06 2.25894e-05 0)
(-2.8748e-06 2.80058e-05 0)
(-8.7448e-06 2.79693e-05 0)
(-1.44429e-05 2.64198e-05 0)
(-1.97024e-05 2.35565e-05 0)
(-2.42487e-05 1.96012e-05 0)
(-2.78706e-05 1.47814e-05 0)
(-3.04103e-05 9.33019e-06 0)
(-3.17609e-05 3.48584e-06 0)
(-3.18664e-05 -2.50952e-06 0)
(-3.07217e-05 -8.41409e-06 0)
(-2.83719e-05 -1.39927e-05 0)
(-2.49092e-05 -1.90246e-05 0)
(-2.04697e-05 -2.33111e-05 0)
(-1.52278e-05 -2.66831e-05 0)
(-9.38934e-06 -2.90077e-05 0)
(-3.18343e-06 -3.01934e-05 0)
(3.14625e-06 -3.01933e-05 0)
(9.35125e-06 -2.90072e-05 0)
(1.5188e-05 -2.66817e-05 0)
(2.04273e-05 -2.3308e-05 0)
(2.48635e-05 -1.90187e-05 0)
(2.83226e-05 -1.39826e-05 0)
(3.06688e-05 -8.39786e-06 0)
(3.18105e-05 -2.48536e-06 0)
(3.17036e-05 3.51926e-06 0)
(3.03542e-05 9.37247e-06 0)
(2.78192e-05 1.48285e-05 0)
(2.42063e-05 1.96429e-05 0)
(1.96734e-05 2.35751e-05 0)
(1.44271e-05 2.63917e-05 0)
(8.74192e-06 2.78756e-05 0)
(2.87787e-06 2.78483e-05 0)
(-3.46921e-06 3.43378e-05 0)
(-1.05499e-05 3.43072e-05 0)
(-1.74204e-05 3.24218e-05 0)
(-2.37609e-05 2.8919e-05 0)
(-2.92425e-05 2.40693e-05 0)
(-3.36111e-05 1.81536e-05 0)
(-3.66759e-05 1.14604e-05 0)
(-3.83073e-05 4.28426e-06 0)
(-3.8437e-05 -3.07673e-06 0)
(-3.70584e-05 -1.03254e-05 0)
(-3.42254e-05 -1.71732e-05 0)
(-3.00491e-05 -2.33492e-05 0)
(-2.46938e-05 -2.861e-05 0)
(-1.83697e-05 -3.27482e-05 0)
(-1.13253e-05 -3.56009e-05 0)
(-3.83726e-06 -3.70557e-05 0)
(3.80047e-06 -3.70553e-05 0)
(1.12879e-05 -3.55995e-05 0)
(1.83311e-05 -3.27454e-05 0)
(2.46535e-05 -2.86052e-05 0)
(3.00068e-05 -2.33415e-05 0)
(3.4181e-05 -1.71613e-05 0)
(3.70123e-05 -1.0308e-05 0)
(3.83901e-05 -3.05258e-06 0)
(3.82611e-05 4.31578e-06 0)
(3.66328e-05 1.14982e-05 0)
(3.3574e-05 1.81933e-05 0)
(2.92146e-05 2.41011e-05 0)
(2.37433e-05 2.89271e-05 0)
(1.74155e-05 3.2386e-05 0)
(1.05526e-05 3.42117e-05 0)
(3.4715e-06 3.41865e-05 0)
(-4.19976e-06 4.19922e-05 0)
(-1.27659e-05 4.19648e-05 0)
(-2.10738e-05 3.96708e-05 0)
(-2.87403e-05 3.5395e-05 0)
(-3.53683e-05 2.94654e-05 0)
(-4.06512e-05 2.2227e-05 0)
(-4.43584e-05 1.40346e-05 0)
(-4.63326e-05 5.25003e-06 0)
(-4.64907e-05 -3.76062e-06 0)
(-4.48244e-05 -1.26333e-05 0)
(-4.13985e-05 -2.10148e-05 0)
(-3.63474e-05 -2.85737e-05 0)
(-2.98695e-05 -3.50121e-05 0)
(-2.22193e-05 -4.00765e-05 0)
(-1.36972e-05 -4.35676e-05 0)
(-4.63809e-06 -4.53479e-05 0)
(4.60231e-06 -4.53473e-05 0)
(1.36611e-05 -4.35657e-05 0)
(2.21824e-05 -4.0073e-05 0)
(2.98316e-05 -3.50065e-05 0)
(3.63085e-05 -2.85652e-05 0)
(4.13588e-05 -2.10024e-05 0)
(4.47843e-05 -1.26161e-05 0)
(4.64512e-05 -3.73787e-06 0)
(4.62952e-05 5.27848e-06 0)
(4.43251e-05 1.40672e-05 0)
(4.06243e-05 2.22595e-05 0)
(3.53499e-05 2.94887e-05 0)
(2.87321e-05 3.5395e-05 0)
(2.10729e-05 3.963e-05 0)
(1.27707e-05 4.18705e-05 0)
(4.20457e-06 4.18484e-05 0)
(-5.09194e-06 5.12665e-05 0)
(-1.54758e-05 5.12388e-05 0)
(-2.55439e-05 4.84473e-05 0)
(-3.4832e-05 4.32343e-05 0)
(-4.28617e-05 3.59974e-05 0)
(-4.92621e-05 2.71582e-05 0)
(-5.37539e-05 1.71512e-05 0)
(-5.61464e-05 6.41981e-06 0)
(-5.63385e-05 -4.58806e-06 0)
(-5.43199e-05 -1.54272e-05 0)
(-5.01687e-05 -2.56661e-05 0)
(-4.40476e-05 -3.48998e-05 0)
(-3.61971e-05 -4.27646e-05 0)
(-2.69254e-05 -4.89509e-05 0)
(-1.65968e-05 -5.32152e-05 0)
(-5.61706e-06 -5.53899e-05 0)
(5.58259e-06 -5.53892e-05 0)
(1.65622e-05 -5.32131e-05 0)
(2.68904e-05 -4.89471e-05 0)
(3.61617e-05 -4.27587e-05 0)
(4.40119e-05 -3.48912e-05 0)
(5.0133e-05 -2.56541e-05 0)
(5.42848e-05 -1.54112e-05 0)
(5.6305e-05 -4.56754e-06 0)
(5.61158e-05 6.4446e-06 0)
(5.37279e-05 1.71786e-05 0)
(4.92425e-05 2.7184e-05 0)
(4.285e-05 3.60135e-05 0)
(3.48274e-05 4.3228e-05 0)
(2.55476e-05 4.84037e-05 0)
(1.54823e-05 5.11465e-05 0)
(5.09445e-06 5.11305e-05 0)
(-6.18236e-06 6.25195e-05 0)
(-1.87852e-05 6.24881e-05 0)
(-3.10011e-05 5.90905e-05 0)
(-4.22697e-05 5.27395e-05 0)
(-5.20108e-05 4.39172e-05 0)
(-5.97752e-05 3.31371e-05 0)
(-6.52246e-05 2.09302e-05 0)
(-6.81273e-05 7.83834e-06 0)
(-6.83605e-05 -5.59129e-06 0)
(-6.59114e-05 -1.88151e-05 0)
(-6.08745e-05 -3.13066e-05 0)
(-5.34472e-05 -4.25717e-05 0)
(-4.3921e-05 -5.21667e-05 0)
(-3.26701e-05 -5.97138e-05 0)
(-2.01363e-05 -6.49162e-05 0)
(-6.81211e-06 -6.75693e-05 0)
(6.77904e-06 -6.75686e-05 0)
(2.01032e-05 -6.49141e-05 0)
(3.26369e-05 -5.97101e-05 0)
(4.3888e-05 -5.2161e-05 0)
(5.34144e-05 -4.25636e-05 0)
(6.08424e-05 -3.12956e-05 0)
(6.58805e-05 -1.88009e-05 0)
(6.83318e-05 -5.57347e-06 0)
(6.8102e-05 7.85926e-06 0)
(6.5204e-05 2.09525e-05 0)
(5.97606e-05 3.31569e-05 0)
(5.2003e-05 4.39271e-05 0)
(4.22695e-05 5.27284e-05 0)
(3.10045e-05 5.9045e-05 0)
(1.87914e-05 6.2399e-05 0)
(6.18714e-06 6.2391e-05 0)
(-7.51046e-06 7.61866e-05 0)
(-2.28195e-05 7.61473e-05 0)
(-3.76561e-05 7.20112e-05 0)
(-5.13397e-05 6.42775e-05 0)
(-6.31679e-05 5.35302e-05 0)
(-7.25958e-05 4.03942e-05 0)
(-7.92127e-05 2.55172e-05 0)
(-8.27374e-05 9.56018e-06 0)
(-8.30205e-05 -6.80913e-06 0)
(-8.00463e-05 -2.29279e-05 0)
(-7.39294e-05 -3.81541e-05 0)
(-6.49092e-05 -5.18855e-05 0)
(-5.33397e-05 -6.35811e-05 0)
(-3.96752e-05 -7.27806e-05 0)
(-2.44524e-05 -7.91221e-05 0)
(-8.26949e-06 -8.23562e-05 0)
(8.23776e-06 -8.23555e-05 0)
(2.44208e-05 -7.91202e-05 0)
(3.96437e-05 -7.27772e-05 0)
(5.33086e-05 -6.3576e-05 0)
(6.48788e-05 -5.18783e-05 0)
(7.39002e-05 -3.81445e-05 0)
(8.00188e-05 -2.29157e-05 0)
(8.29956e-05 -6.79425e-06 0)
(8.27159e-05 9.57723e-06 0)
(7.91959e-05 2.55347e-05 0)
(7.25847e-05 4.04086e-05 0)
(6.3163e-05 5.35348e-05 0)
(5.13396e-05 6.42626e-05 0)
(3.7662e-05 7.1965e-05 0)
(2.28262e-05 7.60611e-05 0)
(7.5123e-06 7.60651e-05 0)
(-9.12988e-06 9.27954e-05 0)
(-2.77358e-05 9.27438e-05 0)
(-4.57643e-05 8.77083e-05 0)
(-6.2391e-05 7.82936e-05 0)
(-7.67626e-05 6.52073e-05 0)
(-8.82176e-05 4.92095e-05 0)
(-9.62574e-05 3.10891e-05 0)
(-0.00010054 1.16518e-05 0)
(-0.000100884 -8.28855e-06 0)
(-9.72701e-05 -2.79242e-05 0)
(-8.98372e-05 -4.64727e-05 0)
(-7.88761e-05 -6.32005e-05 0)
(-6.48168e-05 -7.74485e-05 0)
(-4.82113e-05 -8.86557e-05 0)
(-2.97119e-05 -9.63812e-05 0)
(-1.00456e-05 -0.000100321 0)
(1.0015e-05 -0.000100321 0)
(2.96816e-05 -9.63796e-05 0)
(4.81813e-05 -8.86528e-05 0)
(6.47874e-05 -7.74441e-05 0)
(7.88477e-05 -6.31946e-05 0)
(8.98103e-05 -4.64648e-05 0)
(9.72453e-05 -2.79143e-05 0)
(0.000100862 -8.27669e-06 0)
(0.000100521 1.16651e-05 0)
(9.62433e-05 3.11021e-05 0)
(8.82087e-05 4.92191e-05 0)
(7.67591e-05 6.52075e-05 0)
(6.23934e-05 7.82755e-05 0)
(4.57683e-05 8.76614e-05 0)
(2.77414e-05 9.26608e-05 0)
(9.13425e-06 9.26801e-05 0)
(-1.11004e-05 0.000112987 0)
(-3.37214e-05 0.000112918 0)
(-5.56386e-05 0.000106787 0)
(-7.58496e-05 9.53283e-05 0)
(-9.33187e-05 7.9399e-05 0)
(-0.000107243 5.99232e-05 0)
(-0.000117016 3.7861e-05 0)
(-0.000122222 1.41941e-05 0)
(-0.00012264 -1.00864e-05 0)
(-0.000118248 -3.39965e-05 0)
(-0.000109212 -5.65833e-05 0)
(-9.58872e-05 -7.69534e-05 0)
(-7.87956e-05 -9.43039e-05 0)
(-5.86082e-05 -0.000107952 0)
(-3.61181e-05 -0.00011736 0)
(-1.2209e-05 -0.000122158 0)
(1.21794e-05 -0.000122158 0)
(3.60888e-05 -0.000117359 0)
(5.85794e-05 -0.000107949 0)
(7.87676e-05 -9.43006e-05 0)
(9.58604e-05 -7.69488e-05 0)
(0.000109187 -5.65773e-05 0)
(0.000118225 -3.3989e-05 0)
(0.00012262 -1.00776e-05 0)
(0.000122205 1.42037e-05 0)
(0.000117004 3.78699e-05 0)
(0.000107235 5.99284e-05 0)
(9.33165e-05 7.93952e-05 0)
(7.58505e-05 9.53076e-05 0)
(5.56445e-05 0.00010674 0)
(3.37274e-05 0.000112837 0)
(1.11015e-05 0.000112878 0)
(-1.35006e-05 0.000137541 0)
(-4.10089e-05 0.000137448 0)
(-6.76586e-05 0.000129984 0)
(-9.22334e-05 0.000116039 0)
(-0.000113474 9.66528e-05 0)
(-0.000130405 7.29487e-05 0)
(-0.000142288 4.60946e-05 0)
(-0.000148619 1.72856e-05 0)
(-0.000149129 -1.22715e-05 0)
(-0.000143788 -4.13788e-05 0)
(-0.000132802 -6.88757e-05 0)
(-0.000116599 -9.36747e-05 0)
(-9.5816e-05 -0.000114798 0)
(-7.12675e-05 -0.000131414 0)
(-4.39184e-05 -0.000142868 0)
(-1.48435e-05 -0.00014871 0)
(1.48146e-05 -0.00014871 0)
(4.38898e-05 -0.000142867 0)
(7.12396e-05 -0.000131412 0)
(9.5789e-05 -0.000114796 0)
(0.000116574 -9.36716e-05 0)
(0.000132778 -6.88717e-05 0)
(0.000143767 -4.13738e-05 0)
(0.00014911 -1.22657e-05 0)
(0.000148604 1.72917e-05 0)
(0.000142277 4.60996e-05 0)
(0.000130398 7.29499e-05 0)
(0.000113472 9.66455e-05 0)
(9.22362e-05 0.000116016 0)
(6.7662e-05 0.000129937 0)
(4.10137e-05 0.00013737 0)
(1.35046e-05 0.000137437 0)
(-1.64201e-05 0.000167405 0)
(-4.98768e-05 0.00016728 0)
(-8.2288e-05 0.000158193 0)
(-0.000112174 0.000141224 0)
(-0.000138005 0.000117635 0)
(-0.000158596 8.8789e-05 0)
(-0.000173049 5.61082e-05 0)
(-0.00018075 2.10464e-05 0)
(-0.000181371 -1.49275e-05 0)
(-0.000174878 -5.03551e-05 0)
(-0.000161518 -8.38238e-05 0)
(-0.000141813 -0.000114009 0)
(-0.000116536 -0.000139721 0)
(-8.66785e-05 -0.000159947 0)
(-5.34144e-05 -0.00017389 0)
(-1.80507e-05 -0.000181002 0)
(1.80222e-05 -0.000181002 0)
(5.33863e-05 -0.00017389 0)
(8.66511e-05 -0.000159946 0)
(0.000116509 -0.00013972 0)
(0.000141788 -0.000114008 0)
(0.000161495 -8.38217e-05 0)
(0.000174857 -5.03525e-05 0)
(0.000181354 -1.49246e-05 0)
(0.000180735 2.10491e-05 0)
(0.000173038 5.61095e-05 0)
(0.00015859 8.87865e-05 0)
(0.000138004 0.000117624 0)
(0.000112175 0.000141199 0)
(8.22933e-05 0.000158145 0)
(4.9882e-05 0.000167204 0)
(1.64205e-05 0.000167305 0)
(-1.99741e-05 0.00020373 0)
(-6.06687e-05 0.000203564 0)
(-0.000100089 0.000192501 0)
(-0.000136439 0.000171855 0)
(-0.000167857 0.000143154 0)
(-0.000192902 0.000108056 0)
(-0.000210483 6.8289e-05 0)
(-0.000219853 2.56227e-05 0)
(-0.000220612 -1.81555e-05 0)
(-0.000212716 -6.12706e-05 0)
(-0.000196468 -0.000102003 0)
(-0.000172501 -0.000138742 0)
(-0.000141755 -0.000170036 0)
(-0.000105437 -0.000194654 0)
(-6.49732e-05 -0.000211625 0)
(-2.19549e-05 -0.000220281 0)
(2.19265e-05 -0.000220281 0)
(6.49451e-05 -0.000211625 0)
(0.00010541 -0.000194654 0)
(0.000141729 -0.000170036 0)
(0.000172477 -0.000138742 0)
(0.000196445 -0.000102003 0)
(0.000212696 -6.12706e-05 0)
(0.000220595 -1.81555e-05 0)
(0.000219839 2.56221e-05 0)
(0.000210473 6.82868e-05 0)
(0.000192896 0.00010805 0)
(0.000167855 0.00014314 0)
(0.000136441 0.000171827 0)
(0.000100091 0.000192454 0)
(6.06726e-05 0.00020349 0)
(1.99778e-05 0.000203634 0)
(-2.42966e-05 0.000247916 0)
(-7.37976e-05 0.000247698 0)
(-0.000121748 0.000234232 0)
(-0.000165962 0.000209112 0)
(-0.00020418 0.000174195 0)
(-0.000234646 0.000131493 0)
(-0.000256035 8.31084e-05 0)
(-0.000267436 3.11929e-05 0)
(-0.000268365 -2.20782e-05 0)
(-0.000258765 -7.4545e-05 0)
(-0.000239003 -0.000124115 0)
(-0.000209851 -0.000168825 0)
(-0.00017245 -0.000206912 0)
(-0.000128268 -0.000236874 0)
(-7.90418e-05 -0.000257529 0)
(-2.67069e-05 -0.000268065 0)
(2.66782e-05 -0.000268065 0)
(7.90134e-05 -0.00025753 0)
(0.00012824 -0.000236875 0)
(0.000172423 -0.000206913 0)
(0.000209826 -0.000168827 0)
(0.00023898 -0.000124117 0)
(0.000258744 -7.45474e-05 0)
(0.000268347 -2.20811e-05 0)
(0.000267422 3.11891e-05 0)
(0.000256025 8.31028e-05 0)
(0.000234639 0.000131484 0)
(0.000204177 0.000174178 0)
(0.000165962 0.000209083 0)
(0.000121752 0.000234184 0)
(7.38018e-05 0.000247625 0)
(2.42965e-05 0.000247823 0)
(-2.95568e-05 0.000301666 0)
(-8.97707e-05 0.000301383 0)
(-0.000148097 0.000284993 0)
(-0.00020188 0.000254433 0)
(-0.00024837 0.000211956 0)
(-0.000285434 0.000160007 0)
(-0.000311459 0.00010114 0)
(-0.000325335 3.79747e-05 0)
(-0.000326472 -2.68441e-05 0)
(-0.0003148 -9.06878e-05 0)
(-0.000290766 -0.000151009 0)
(-0.000255305 -0.00020542 0)
(-0.000209806 -0.000251772 0)
(-0.000156055 -0.000288237 0)
(-9.61646e-05 -0.000313377 0)
(-3.24908e-05 -0.0003262 0)
(3.24614e-05 -0.0003262 0)
(9.61356e-05 -0.000313378 0)
(0.000156027 -0.000288239 0)
(0.000209779 -0.000251775 0)
(0.000255279 -0.000205424 0)
(0.000290743 -0.000151014 0)
(0.00031478 -9.06927e-05 0)
(0.000326454 -2.68499e-05 0)
(0.000325321 3.79677e-05 0)
(0.000311448 0.000101131 0)
(0.000285427 0.000159994 0)
(0.000248367 0.000211936 0)
(0.000201881 0.000254402 0)
(0.000148098 0.000284944 0)
(8.97736e-05 0.000301312 0)
(2.95602e-05 0.000301576 0)
(-3.59537e-05 0.00036705 0)
(-0.0001092 0.000366686 0)
(-0.000180149 0.00034674 0)
(-0.000245573 0.000309565 0)
(-0.00030213 0.000257894 0)
(-0.000347223 0.000194698 0)
(-0.00037889 0.000123084 0)
(-0.000395782 4.62338e-05 0)
(-0.000397176 -3.26329e-05 0)
(-0.000382988 -0.000110318 0)
(-0.000353757 -0.000183722 0)
(-0.000310621 -0.000249937 0)
(-0.000255269 -0.000306348 0)
(-0.000189873 -0.000350728 0)
(-0.000117005 -0.000381325 0)
(-3.95304e-05 -0.000396932 0)
(3.94999e-05 -0.000396933 0)
(0.000116975 -0.000381327 0)
(0.000189844 -0.000350731 0)
(0.000255241 -0.000306352 0)
(0.000310595 -0.000249943 0)
(0.000353733 -0.000183729 0)
(0.000382966 -0.000110326 0)
(0.000397158 -3.26416e-05 0)
(0.000395766 4.62236e-05 0)
(0.000378879 0.000123072 0)
(0.000347215 0.000194682 0)
(0.000302126 0.000257871 0)
(0.000245572 0.000309531 0)
(0.000180153 0.000346691 0)
(0.000109203 0.000366616 0)
(3.5953e-05 0.000366963 0)
(-4.37362e-05 0.000446586 0)
(-0.000132833 0.000446123 0)
(-0.000219137 0.000421852 0)
(-0.000298722 0.000376632 0)
(-0.000367526 0.000313782 0)
(-0.000422391 0.00023691 0)
(-0.000460927 0.000149791 0)
(-0.000481492 5.62948e-05 0)
(-0.000483206 -3.96617e-05 0)
(-0.000465961 -0.000134188 0)
(-0.000430411 -0.000223511 0)
(-0.00037794 -0.000304092 0)
(-0.000310599 -0.000372746 0)
(-0.000231033 -0.00042676 0)
(-0.00014237 -0.000464002 0)
(-4.80987e-05 -0.000482998 0)
(4.80667e-05 -0.000482999 0)
(0.000142338 -0.000464004 0)
(0.000231002 -0.000426764 0)
(0.00031057 -0.000372752 0)
(0.000377912 -0.0003041 0)
(0.000430386 -0.00022352 0)
(0.000465938 -0.000134198 0)
(0.000483186 -3.96733e-05 0)
(0.000481476 5.62814e-05 0)
(0.000460915 0.000149775 0)
(0.000422382 0.00023689 0)
(0.000367521 0.000313756 0)
(0.000298722 0.000376596 0)
(0.000219136 0.000421802 0)
(0.000132835 0.000446054 0)
(4.37394e-05 0.000446501 0)
(-5.31997e-05 0.000543335 0)
(-0.000161575 0.00054275 0)
(-0.000266556 0.000513221 0)
(-0.000363368 0.00045822 0)
(-0.000447072 0.000381777 0)
(-0.000513828 0.000288274 0)
(-0.000560729 0.000182298 0)
(-0.000585771 6.85548e-05 0)
(-0.000587881 -4.81925e-05 0)
(-0.000566924 -0.00016321 0)
(-0.000523694 -0.000271907 0)
(-0.000459867 -0.000369973 0)
(-0.00037794 -0.000453529 0)
(-0.00028113 -0.000519273 0)
(-0.000173243 -0.000564603 0)
(-5.85279e-05 -0.000587726 0)
(5.8494e-05 -0.000587727 0)
(0.000173209 -0.000564606 0)
(0.000281097 -0.000519278 0)
(0.000377909 -0.000453537 0)
(0.000459838 -0.000369982 0)
(0.000523667 -0.000271918 0)
(0.0005669 -0.000163223 0)
(0.000587859 -4.82072e-05 0)
(0.000585753 6.85381e-05 0)
(0.000560714 0.000182278 0)
(0.000513818 0.000288251 0)
(0.000447067 0.000381748 0)
(0.000363364 0.000458182 0)
(0.000266557 0.000513169 0)
(0.000161578 0.00054268 0)
(5.31985e-05 0.000543252 0)
(-6.47104e-05 0.000661019 0)
(-0.000196531 0.000660284 0)
(-0.000324224 0.000624363 0)
(-0.000441991 0.000557473 0)
(-0.000543824 0.000464503 0)
(-0.000625052 0.000350778 0)
(-0.000682136 0.00022187 0)
(-0.000712636 8.34997e-05 0)
(-0.000715241 -5.85412e-05 0)
(-0.000689781 -0.000198493 0)
(-0.000637213 -0.000330768 0)
(-0.000559576 -0.000450117 0)
(-0.000459904 -0.000551817 0)
(-0.000342108 -0.000631841 0)
(-0.000210823 -0.000687021 0)
(-7.1223e-05 -0.00071517 0)
(7.11868e-05 -0.000715171 0)
(0.000210787 -0.000687025 0)
(0.000342073 -0.000631848 0)
(0.00045987 -0.000551826 0)
(0.000559545 -0.000450128 0)
(0.000637184 -0.000330781 0)
(0.000689754 -0.000198509 0)
(0.000715218 -5.85589e-05 0)
(0.000712617 8.34796e-05 0)
(0.00068212 0.000221847 0)
(0.00062504 0.000350752 0)
(0.000543817 0.000464471 0)
(0.000441989 0.000557432 0)
(0.000324222 0.000624309 0)
(0.000196532 0.000660214 0)
(6.47133e-05 0.000660936 0)
(-7.87055e-05 0.000804159 0)
(-0.000239036 0.000803243 0)
(-0.000394353 0.000759554 0)
(-0.000537606 0.000678214 0)
(-0.000661494 0.000565156 0)
(-0.000760335 0.000426845 0)
(-0.000829821 0.00027005 0)
(-0.000866978 0.000101725 0)
(-0.000870203 -7.10872e-05 0)
(-0.00083928 -0.00024138 0)
(-0.000775366 -0.000402352 0)
(-0.000680933 -0.000547612 0)
(-0.00055967 -0.000671404 0)
(-0.000416336 -0.00076882 0)
(-0.000256572 -0.000835996 0)
(-8.66778e-05 -0.000870265 0)
(8.66388e-05 -0.000870267 0)
(0.000256533 -0.000836 0)
(0.000416298 -0.000768827 0)
(0.000559634 -0.000671414 0)
(0.000680899 -0.000547625 0)
(0.000775334 -0.000402368 0)
(0.000839251 -0.000241399 0)
(0.000870177 -7.11082e-05 0)
(0.000866956 0.000101702 0)
(0.000829803 0.000270023 0)
(0.000760322 0.000426814 0)
(0.000661485 0.00056512 0)
(0.0005376 0.00067817 0)
(0.000394353 0.000759498 0)
(0.000239037 0.000803173 0)
(7.87036e-05 0.000804078 0)
(-9.57234e-05 0.000978254 0)
(-0.000290718 0.00097712 0)
(-0.000479622 0.000923993 0)
(-0.000653873 0.000825094 0)
(-0.000804593 0.000687621 0)
(-0.000924871 0.000519422 0)
(-0.00100946 0.000328719 0)
(-0.00105474 0.000123963 0)
(-0.00105875 -8.62857e-05 0)
(-0.0010212 -0.000293502 0)
(-0.000943503 -0.000489405 0)
(-0.000828648 -0.000666212 0)
(-0.000681118 -0.000816908 0)
(-0.000506702 -0.000935508 0)
(-0.00031227 -0.0010173 0)
(-0.000105494 -0.00105903 0)
(0.000105452 -0.00105903 0)
(0.000312228 -0.0010173 0)
(0.000506662 -0.000935516 0)
(0.000681079 -0.000816919 0)
(0.000828611 -0.000666228 0)
(0.000943469 -0.000489423 0)
(0.00102117 -0.000293523 0)
(0.00105872 -8.63101e-05 0)
(0.00105472 0.000123935 0)
(0.00100944 0.000328688 0)
(0.000924856 0.000519387 0)
(0.000804582 0.00068758 0)
(0.000653868 0.000825046 0)
(0.000479618 0.000923935 0)
(0.000290717 0.000977049 0)
(9.57259e-05 0.000978172 0)
(-0.00011641 0.00118998 0)
(-0.000353545 0.00118859 0)
(-0.00058329 0.001124 0)
(-0.000795238 0.00100377 0)
(-0.0009786 0.000836627 0)
(-0.00112497 0.000632101 0)
(-0.00122797 0.000400174 0)
(-0.00128316 0.000151111 0)
(-0.00128815 -0.000104681 0)
(-0.00124259 -0.000356831 0)
(-0.00114815 -0.000595259 0)
(-0.00100846 -0.000810483 0)
(-0.000828974 -0.000993949 0)
(-0.000616729 -0.00113836 0)
(-0.00038009 -0.00123796 0)
(-0.000128407 -0.00128877 0)
(0.000128361 -0.00128877 0)
(0.000380044 -0.00123796 0)
(0.000616685 -0.00113837 0)
(0.000828931 -0.000993963 0)
(0.00100842 -0.0008105 0)
(0.00114811 -0.00059528 0)
(0.00124255 -0.000356855 0)
(0.00128812 -0.000104709 0)
(0.00128314 0.000151079 0)
(0.00122794 0.000400139 0)
(0.00112495 0.000632062 0)
(0.000978587 0.000836583 0)
(0.000795228 0.00100372 0)
(0.000583287 0.00112394 0)
(0.000353545 0.00118851 0)
(0.000116407 0.0011899 0)
(-0.000141556 0.00144746 0)
(-0.000429913 0.00144575 0)
(-0.000709304 0.00136725 0)
(-0.000967092 0.00122111 0)
(-0.00119016 0.00101793 0)
(-0.0013683 0.000769261 0)
(-0.00149372 0.000487221 0)
(-0.00156103 0.000184277 0)
(-0.00156728 -0.00012692 0)
(-0.00151201 -0.000433757 0)
(-0.00139724 -0.00072396 0)
(-0.00122737 -0.000985975 0)
(-0.001009 -0.00120937 0)
(-0.000750714 -0.00138523 0)
(-0.000462685 -0.00150654 0)
(-0.000156312 -0.00156843 0)
(0.000156261 -0.00156844 0)
(0.000462635 -0.00150655 0)
(0.000750665 -0.00138524 0)
(0.00100896 -0.00120938 0)
(0.00122732 -0.000985994 0)
(0.0013972 -0.000723984 0)
(0.00151197 -0.000433784 0)
(0.00156725 -0.000126952 0)
(0.001561 0.000184241 0)
(0.0014937 0.000487181 0)
(0.00136828 0.000769217 0)
(0.00119015 0.00101788 0)
(0.000967083 0.00122106 0)
(0.000709297 0.00136719 0)
(0.000429911 0.00144568 0)
(0.000141558 0.00144738 0)
(-0.000172112 0.00176054 0)
(-0.000522719 0.00175847 0)
(-0.000862457 0.00166308 0)
(-0.00117598 0.00148549 0)
(-0.00144736 0.00123854 0)
(-0.00166417 0.000936237 0)
(-0.00181693 0.000593288 0)
(-0.00189905 0.000224829 0)
(-0.00190691 -0.000153771 0)
(-0.00183991 -0.000527167 0)
(-0.00170047 -0.000880418 0)
(-0.00149391 -0.00119944 0)
(-0.00122824 -0.00147149 0)
(-0.000913904 -0.0016857 0)
(-0.000563293 -0.00183348 0)
(-0.000190304 -0.00190889 0)
(0.000190249 -0.00190889 0)
(0.000563238 -0.00183349 0)
(0.00091385 -0.00168571 0)
(0.00122819 -0.00147151 0)
(0.00149386 -0.00119946 0)
(0.00170042 -0.000880445 0)
(0.00183987 -0.000527199 0)
(0.00190687 -0.000153807 0)
(0.00189902 0.000224788 0)
(0.0018169 0.000593244 0)
(0.00166414 0.000936188 0)
(0.00144734 0.00123848 0)
(0.00117597 0.00148543 0)
(0.000862452 0.00166301 0)
(0.000522717 0.00175839 0)
(0.000172109 0.00176045 0)
(-0.00020924 0.00214118 0)
(-0.000635479 0.00213868 0)
(-0.00104855 0.00202282 0)
(-0.00142983 0.00180706 0)
(-0.00175998 0.00150697 0)
(-0.00202387 0.00113953 0)
(-0.00220997 0.000722573 0)
(-0.00231022 0.000274459 0)
(-0.00232016 -0.000186135 0)
(-0.002239 -0.00064055 0)
(-0.00206964 -0.00107059 0)
(-0.00181849 -0.00145907 0)
(-0.00149528 -0.00179045 0)
(-0.00111271 -0.00205143 0)
(-0.000685873 -0.0022315 0)
(-0.000231723 -0.0023234 0)
(0.000231662 -0.0023234 0)
(0.000685812 -0.00223151 0)
(0.00111265 -0.00205144 0)
(0.00149523 -0.00179047 0)
(0.00181843 -0.00145909 0)
(0.00206959 -0.00107062 0)
(0.00223896 -0.000640585 0)
(0.00232011 -0.000186175 0)
(0.00231018 0.000274414 0)
(0.00220994 0.000722524 0)
(0.00202384 0.00113948 0)
(0.00175996 0.00150691 0)
(0.00142982 0.001807 0)
(0.00104854 0.00202275 0)
(0.000635474 0.0021386 0)
(0.000209241 0.00214109 0)
(-0.000254333 0.0026039 0)