/*--------------------------------*- C++ -*----------------------------------*\
  =========                 |
  \\      /  F ield         | OpenFOAM: The Open Source CFD Toolbox
   \\    /   O peration     | Website:  https://openfoam.org
    \\  /    A nd           | Version:  9
     \\/     M anipulation  |
\*---------------------------------------------------------------------------*/
FoamFile
{
    format      ascii;
    class       volScalarField;
    location    "19";
    object      p;
}
// * * * * * * * * * * * * * * * * * * * * * * * * * * * * * * * * * * * * * //

dimensions      [0 2 -2 0 0 0 0];

internalField   nonuniform List<scalar> 
400
(
1.3900047e-06
-0.00067126043
-0.0013836468
-0.0019409196
-0.0022181355
-0.0021545668
-0.0017258129
-0.000924194
0.00023743106
0.0017093984
0.0033892462
0.0051141192
0.0066753749
0.0078510001
0.0084603251
0.0084256929
0.0078154997
0.0068467164
0.0058635599
0.0053012264
0.00065935778
-3.8937757e-05
-0.0005680137
-0.00093891298
-0.0011090824
-0.0010380737
-0.00070388232
-9.3588814e-05
0.00079108507
0.0019181825
0.003211578
0.0045566875
0.0057839415
0.0067182472
0.0072164503
0.0072166146
0.0067721141
0.0060549997
0.0053128072
0.0047407909
0.0014251511
0.00044218537
-0.00011500361
-0.00045158203
-0.00061307658
-0.00058300427
-0.00034469813
0.00012169282
0.00083046066
0.0017719378
0.0028963338
0.004100208
0.0052302854
0.0061130322
0.0065959591
0.0065998061
0.0061579454
0.0054237864
0.0045960756
0.0037505949
0.0020155771
0.00068317683
1.8329817e-05
-0.00035722246
-0.00056983663
-0.00062475461
-0.00050818041
-0.00018863587
0.00037057381
0.0011865094
0.0022320598
0.0034195767
0.0045935119
0.0055590907
0.0061257248
0.0061687739
0.0056858943
0.0048193933
0.0037496988
0.0024760575
0.0021686084
0.00049759231
-0.00029470505
-0.00074707007
-0.0010565165
-0.0012434137
-0.0012907626
-0.0011491906
-0.00075283179
-5.0806563e-05
0.0009593539
0.002212615
0.0035470239
0.00473496
0.0055241374
0.0057121994
0.0052316499
0.0042040347
0.0028086878
0.00098654239
0.0016553164
-0.00031297155
-0.0012371897
-0.001797606
-0.0022508388
-0.0026259292
-0.0028964687
-0.0029887622
-0.0028000735
-0.0022351124
-0.0012484839
0.00013350973
0.0017472274
0.0033296383
0.0045441269
0.0050682439
0.0047199808
0.0035687394
0.0017922132
-0.00072319874
0.00028847319
-0.0019179649
-0.0029712925
-0.0036695584
-0.004318311
-0.0049510139
-0.0055277098
-0.0059453223
-0.0060561831
-0.0057044241
-0.0047726814
-0.0032556674
-0.0012635431
0.00091004492
0.0028258886
0.0039895185
0.0040277468
0.0028903866
0.00071813254
-0.0026776198
-0.0020748009
-0.0044494175
-0.0056249217
-0.0064902984
-0.007390696
-0.0083632885
-0.0093541666
-0.010228747
-0.010787691
-0.010801385
-0.010059812
-0.0084582101
-0.006037299
-0.0030798979
-0.00012316617
0.0021156003
0.0029666979
0.0021384254
-0.00036313497
-0.0048695668
-0.0055222781
-0.0079901056
-0.0092758021
-0.010331506
-0.011535476
-0.012932593
-0.014459549
-0.015952823
-0.017158666
-0.017762012
-0.017433942
-0.015915328
-0.013118914
-0.009247906
-0.0048954049
-0.0010266691
0.0012725525
0.0012807994
-0.00133091
-0.0071984811
-0.010074703
-0.012562806
-0.01393427
-0.015181428
-0.016715533
-0.018599431
-0.020770623
-0.023044804
-0.025117379
-0.026581781
-0.026964635
-0.025808209
-0.022841061
-0.018070058
-0.012047007
-0.0059482062
-0.0013672955
0.00030383358
-0.0019440186
-0.0093789109
-0.01568243
-0.018129827
-0.019534876
-0.020923944
-0.022754588
-0.025126351
-0.027993061
-0.031162041
-0.034286738
-0.036871836
-0.038289
-0.037839059
-0.035060792
-0.029596659
-0.021818024
-0.012981489
-0.0051812634
-0.00071233192
-0.0017609179
-0.010788893
-0.022240708
-0.024610175
-0.025942658
-0.027331848
-0.02932077
-0.032075462
-0.035584742
-0.03966002
-0.043922271
-0.047796032
-0.05052479
-0.051231135
-0.048951648
-0.043138574
-0.033764384
-0.021922098
-0.010033032
-0.0014119346
-6.5662691e-06
-0.010222317
-0.029638042
-0.031920815
-0.032975631
-0.034076606
-0.035935988
-0.038827643
-0.042791323
-0.047646869
-0.052985462
-0.058158282
-0.06227886
-0.064260222
-0.062870055
-0.057107382
-0.046472281
-0.031644984
-0.01503411
-0.0008609585
0.0046499572
-0.0055184395
-0.037862634
-0.040045299
-0.040436949
-0.040749236
-0.042011544
-0.044649243
-0.048753983
-0.05413945
-0.060351093
-0.066660218
-0.072055544
-0.075263296
-0.074806667
-0.069264936
-0.057624347
-0.039957879
-0.01824462
0.0027921534
0.014448071
0.0069102848
-0.047227142
-0.049131113
-0.048137439
-0.046879158
-0.046902195
-0.048795089
-0.052664316
-0.058271663
-0.065071445
-0.072227185
-0.078590998
-0.082707788
-0.082876062
-0.0773057
-0.064520683
-0.043932041
-0.016745302
0.0125055
0.032941225
0.0324112
-0.058893432
-0.059636745
-0.055880943
-0.051938201
-0.049969381
-0.050626655
-0.05392503
-0.059491338
-0.066607547
-0.074280846
-0.081186798
-0.085675332
-0.085828188
-0.079519134
-0.064873563
-0.040687125
-0.0072390191
0.032141218
0.064983283
0.077750877
-0.076223427
-0.072610894
-0.063513538
-0.055432919
-0.050722549
-0.049778847
-0.05230917
-0.057660753
-0.064887866
-0.072770866
-0.079775348
-0.084033052
-0.083388466
-0.075346386
-0.057600695
-0.028373641
0.012934521
0.065397697
0.11555274
0.15150738
-0.10808953
-0.089553959
-0.071231689
-0.057231018
-0.049070111
-0.04632791
-0.048074506
-0.053199364
-0.060430998
-0.068292058
-0.075023655
-0.078523488
-0.076386083
-0.065807375
-0.043863809
-0.0078172996
0.044394489
0.11299889
0.18838121
0.27186151
-0.17684315
-0.10828762
-0.076200796
-0.054649697
-0.042990746
-0.038996067
-0.040568067
-0.045925091
-0.053438176
-0.061434781
-0.068024037
-0.070959291
-0.06754837
-0.054737615
-0.029147192
0.013564699
0.078147701
0.17006494
0.28949603
0.47421882
-0.37208112
-0.12470639
-0.054971399
-0.031961102
-0.022062113
-0.02029878
-0.024357246
-0.031955276
-0.041258399
-0.05063746
-0.058313431
-0.062184179
-0.059779647
-0.048054484
-0.022656787
0.021475442
0.092819583
0.21015344
0.40288905
0.77640994
)
;

boundaryField
{
    movingWall
    {
        type            zeroGradient;
    }
    fixedWalls
    {
        type            zeroGradient;
    }
    frontAndBack
    {
        type            empty;
    }
}


// ************************************************************************* //
