/*--------------------------------*- C++ -*----------------------------------*\
  =========                 |
  \\      /  F ield         | OpenFOAM: The Open Source CFD Toolbox
   \\    /   O peration     | Website:  https://openfoam.org
    \\  /    A nd           | Version:  9
     \\/     M anipulation  |
\*---------------------------------------------------------------------------*/
FoamFile
{
    format      ascii;
    class       surfaceScalarField;
    location    "19";
    object      phi;
}
// * * * * * * * * * * * * * * * * * * * * * * * * * * * * * * * * * * * * * //

dimensions      [0 3 -1 0 0 0 0];

internalField   nonuniform List<scalar> 
760
(
1.2692974e-05
-1.2709139e-05
-2.8727927e-05
4.1420902e-05
-0.0001222896
9.3561671e-05
-0.00025038555
0.00012809596
-0.00039605534
0.0001456698
-0.0005453624
0.00014930706
-0.00068623447
0.00014087209
-0.00080684811
0.00012061364
-0.00089490389
8.8055794e-05
-0.00093834065
4.3436768e-05
-0.00092722695
-1.1113687e-05
-0.00085682046
-7.0406474e-05
-0.00073039699
-0.00012642347
-0.0005613205
-0.00016907648
-0.00037275019
-0.00018857031
-0.00019447292
-0.00017827726
-5.6526169e-05
-0.00013794673
1.960912e-05
-7.6135277e-05
3.0408374e-05
-1.0799241e-05
3.040839e-05
-4.3184627e-05
3.0475489e-05
-0.0002045583
0.00020279458
-0.00046829892
0.00035730229
-0.00080065939
0.00046045644
-0.0011672772
0.00051228764
-0.0015363516
0.00051838148
-0.0018781079
0.00048262836
-0.0021635455
0.00040605124
-0.0023643977
0.00028890801
-0.0024552034
0.00013424249
-0.0024180045
-4.8312495e-05
-0.002245237
-0.00024317399
-0.0019474587
-0.00042420174
-0.0015543985
-0.00056213666
-0.0011142777
-0.00062869114
-0.00068745415
-0.00060510075
-0.00033452092
-0.00049087994
-0.00010089935
-0.00030975682
-1.5544661e-06
-0.00011014409
2.8853936e-05
-0.00011002165
0.00014049714
-0.00040300663
0.00049577957
-0.00083133385
0.00078562952
-0.0013455279
0.00097465046
-0.0018984722
0.001065232
-0.002446419
0.0010663282
-0.0029478401
0.00098404947
-0.0033624037
0.00082061492
-0.0036516635
0.00057816779
-0.0037820903
0.00026466937
-0.0037296085
-0.00010079429
-0.0034856205
-0.00048716199
-0.0030631148
-0.00084670743
-0.0024998717
-0.0011253797
-0.0018581517
-0.0012704112
-0.0012180965
-0.0012451559
-0.00066371573
-0.0010452607
-0.00026308464
-0.00071038787
-4.7957065e-05
-0.00032527164
-1.9103115e-05
-0.00017342755
0.00031392469
-0.0005932505
0.00091560252
-0.0011776126
0.0013699916
-0.0018582413
0.0016552791
-0.0025767332
0.0017837239
-0.0032810889
0.001770684
-0.0039225378
0.0016254984
-0.0044538538
0.0013519309
-0.0048299632
0.00095427725
-0.0050109373
0.00044564354
-0.0049669709
-0.00014476071
-0.0046841764
-0.00076995648
-0.0041721311
-0.0013587527
-0.0034689546
-0.0018285562
-0.002643886
-0.0020954798
-0.0017931232
-0.0020959186
-0.0010258105
-0.0018125735
-0.00044020031
-0.001295998
-9.6721749e-05
-0.00066875018
-0.00011582485
-0.00022977821
0.00054370289
-0.00076501862
0.0014508429
-0.0014913789
0.0020963519
-0.002322386
0.0024862863
-0.003189925
0.0026512629
-0.0040365581
0.0026173171
-0.0048097326
0.0023986728
-0.0054586326
0.002000831
-0.0059338355
0.0014294802
-0.0061894676
0.00070127564
-0.0061880648
-0.0001461635
-0.0059052658
-0.0010527554
-0.0053401449
-0.0019238735
-0.0045228958
-0.0026458053
-0.0035228125
-0.003095563
-0.0024496961
-0.0031690351
-0.0014424787
-0.0028197908
-0.00064120607
-0.0020972706
-0.00014883171
-0.0011611245
-0.00026465654
-0.00027727711
0.00082098
-0.00091148179
0.0020850476
-0.0017606087
0.0029454788
-0.002722627
0.0034483046
-0.0037219718
0.0036506077
-0.0046984042
0.0035937496
-0.0055985599
0.0032988286
-0.0063708316
0.0027731027
-0.0069633549
0.0020220034
-0.0073244628
0.0010623837
-0.0074071005
-6.3525839e-05
-0.00717136
-0.0012884959
-0.0065985897
-0.0024966437
-0.0057014285
-0.0035429665
-0.0045398236
-0.0042571679
-0.0032317061
-0.0044771525
-0.0019489403
-0.0041025566
-0.00088725178
-0.003158959
-0.00021158584
-0.0018367904
-0.00047624235
-0.00031409359
0.0011350736
-0.0010262693
0.0027972234
-0.001973379
0.0038925884
-0.0030415633
0.0045164889
-0.0041504673
0.0047595118
-0.0052396439
0.0046829262
-0.0062577338
0.0043169185
-0.0071551592
0.0036705282
-0.0078799872
0.0027468314
-0.0083764615
0.001558858
-0.008585019
0.00014503172
-0.0084509721
-0.0014225427
-0.0079291851
-0.0030184307
-0.007004693
-0.0044674585
-0.0057148259
-0.0055470349
-0.0041734228
-0.0060185556
-0.0025817463
-0.005694233
-0.0012040584
-0.0045366469
-0.00029449235
-0.0027463564
-0.00077073468
-0.00033822736
0.0014733009
-0.0011031032
0.0035620992
-0.0021175123
0.0049069975
-0.0032597098
0.0056586864
-0.0044471731
0.0059469751
-0.0056216821
0.0058574352
-0.0067366339
0.0054318703
-0.0077476283
0.0046815227
-0.0086060239
0.003605227
-0.0092548986
0.0022077328
-0.00962667
0.00051680323
-0.0096488776
-0.0014003351
-0.0092486771
-0.0034186311
-0.0083736739
-0.0053424617
-0.0070218474
-0.0068988613
-0.0052816424
-0.0077587605
-0.003367555
-0.0076083204
-0.0016173077
-0.0062868942
-0.00040825386
-0.0039554102
-0.0011789885
-0.00034813944
0.0018214404
-0.0011371622
0.004351122
-0.0021826903
0.0059525256
-0.0033584746
0.0068344707
-0.0045820542
0.0071705548
-0.0057995987
0.0070749797
-0.0069719457
0.0066042173
-0.0080634034
0.0057729804
-0.0090331702
0.0045749939
-0.0098287224
0.0030032851
-0.010381008
0.0010690893
-0.010604268
-0.001177075
-0.010400533
-0.0036223666
-0.0096746684
-0.006068326
-0.008368474
-0.0082050557
-0.006515522
-0.0096117124
-0.00430977
-0.0098140723
-0.0021482619
-0.0084484022
-0.00056490726
-0.0055387648
-0.0017438957
-0.00034392512
0.0021653655
-0.0011278276
0.0051350245
-0.0021646484
0.0069893465
-0.0033258101
0.0079956325
-0.0045306835
0.0083754282
-0.0057318049
0.0082761012
-0.0069000695
0.007772482
-0.0080122245
0.0068851355
-0.0090406699
0.0056034394
-0.0099448147
0.00390743
-0.010663247
0.0017875217
-0.011106599
-0.00073372253
-0.011163274
-0.0035656918
-0.010696981
-0.0065346188
-0.0095824557
-0.0093195811
-0.0077666467
-0.011427521
-0.0053713987
-0.01220932
-0.0028071174
-0.011012683
-0.00077834887
-0.0075675334
-0.0025222446
-0.00032890704
0.0024942726
-0.0010824154
0.0058885328
-0.0020707618
0.0079776931
-0.0031635873
0.009088458
-0.0042838682
0.0094957092
-0.0053928163
0.0093850493
-0.0064741055
0.0088537713
-0.0075205202
0.0079315502
-0.0085228997
0.006605819
-0.0094603357
0.0048448661
-0.01029133
0.0026185158
-0.010933219
-9.1833067e-05
-0.011283196
-0.0032157152
-0.0111736
-0.0066442147
-0.01041566
-0.010077521
-0.0088466663
-0.012996515
-0.006455683
-0.014600303
-0.0035814752
-0.013886891
-0.0010642028
-0.010084806
-0.0035864473
-0.00031179292
0.0028060655
-0.0010207016
0.0065974416
-0.001926136
0.0088831275
-0.0028949971
0.010057319
-0.0038569432
0.010457655
-0.004785638
0.010313744
-0.0056808572
0.0097489906
-0.006554564
0.0088052571
-0.0074200142
0.0074712694
-0.0082819626
0.0057068145
-0.0091252974
0.0034618507
-0.009908782
0.00069165169
-0.01052738
-0.0025971168
-0.010827108
-0.0063444872
-0.010573682
-0.010330946
-0.0094932209
-0.014076976
-0.0073911188
-0.016702406
-0.004418884
-0.016859126
-0.0014371948
-0.013066495
-0.005023642
-0.00031006099
0.0031161265
-0.0009804158
0.0072677964
-0.0017791357
0.0096818474
-0.0025694873
0.010847671
-0.0032947491
0.011182917
-0.0039480801
0.010967075
-0.0045501812
0.010351092
-0.0051350208
0.0093900969
-0.0057401749
0.0080764236
-0.006398792
0.0063654318
-0.0071303988
0.0041934576
-0.0079305243
0.0014917773
-0.0087390507
-0.0017885903
-0.0094305687
-0.0056529691
-0.0097687414
-0.0099927733
-0.0094004447
-0.014445273
-0.0079306222
-0.018172228
-0.0052061629
-0.019583585
-0.0019026028
-0.016370055
-0.0069262448
-0.00035606658
0.0034721932
-0.0010240732
0.0079358031
-0.0017043625
0.010362137
-0.0022609854
0.011404294
-0.0026659579
0.01158789
-0.0029442882
0.011245406
-0.0031445619
0.010551366
-0.0033252057
0.0095707407
-0.003547548
0.0082987661
-0.0038714084
0.0066892924
-0.0043495316
0.0046715808
-0.0050187291
0.0021609749
-0.0058769387
-0.00093038055
-0.0068581253
-0.0046717824
-0.007776528
-0.0090743705
-0.0082660108
-0.01395579
-0.0077688438
-0.018669395
-0.0057511388
-0.02160129
-0.0024366738
-0.01968452
-0.0093629187
-0.00050829322
0.0039804864
-0.0012457255
0.0086732354
-0.0017960498
0.010912461
-0.0020482357
0.01165648
-0.0020328052
0.011572459
-0.0018257762
0.011038377
-0.0015125798
0.010238169
-0.0011782709
0.0092364319
-0.00090513413
0.0080256293
-0.0007741392
0.0065582976
-0.00086389744
0.0047613392
-0.0012477452
0.0025448228
-0.0019831919
-0.00019493374
-0.0030821923
-0.0035727819
-0.0044603094
-0.0076962534
-0.0058277053
-0.012588394
-0.0065663108
-0.017930789
-0.0057685198
-0.022399081
-0.0029512417
-0.022501798
-0.01231416
-0.00086858655
0.004849073
-0.0017630825
0.0095677315
-0.0021215332
0.011270912
-0.0019371014
0.011472048
-0.0013512469
0.010986605
-0.00051657156
0.010203701
0.00043662458
0.0092849732
0.0013991779
0.0082738787
0.0022719385
0.0071528689
0.0029604881
0.005869748
0.0033687451
0.0043530824
0.0033964227
0.0025171452
0.0029382025
0.0002632866
0.0019093041
-0.0025438835
0.00026941891
-0.0060563681
-0.0018543817
-0.010464593
-0.0039517563
-0.015833415
-0.0048609248
-0.021489912
-0.0032547313
-0.024107992
-0.015568892
-0.0015911097
0.0064401827
-0.0026109366
0.010587558
-0.0025132932
0.011173269
-0.0015901391
0.010548894
-0.00017247172
0.0095689376
0.0014924438
0.0085387859
0.0032325027
0.0075449144
0.0049228229
0.0065835585
0.0064625807
0.0056131111
0.0077570998
0.004575229
0.0087071322
0.00340305
0.0092011553
0.0020231222
0.0091030397
0.00036140226
0.0082748281
-0.001715672
0.0065652371
-0.0043467771
0.0039040527
-0.0078034089
0.00055882021
-0.012488182
-0.0024681406
-0.018462952
-0.0030273492
-0.023548783
-0.018596241
-0.0027183692
0.009158552
-0.0031499088
0.011019098
-0.0018030957
0.0098264557
0.00046654142
0.0082792567
0.0030892008
0.0069462783
0.0057735341
0.0058544527
0.0083625804
0.0049558681
0.010760054
0.0041860849
0.012893143
0.003480022
0.014690322
0.0027780502
0.016068032
0.0020253405
0.016923005
0.0011681492
0.017119474
0.00016493348
0.016490631
-0.0010868292
0.01481668
-0.002672826
0.01184653
-0.0048332594
0.0074353946
-0.0080770465
0.0022628651
-0.013290422
-0.0012724959
-0.020013422
-0.019868737
-0.0024132707
0.011571823
2.8059356e-05
0.0085777674
0.0042551157
0.0055993992
0.0084160579
0.0041183145
0.01223137
0.0031309658
0.015656101
0.0024297224
0.018686344
0.0019256252
0.02132896
0.0015434689
0.023583248
0.0012257333
0.025428988
0.00093231076
0.02681995
0.00063437806
0.027676993
0.00031110674
0.027900048
-5.8121361e-05
0.027347107
-0.00053388825
0.025771548
-0.0010972667
0.022842988
-0.0019047
0.018054729
-0.0032887871
0.011113559
-0.0063492527
0.0033886639
-0.012288526
-0.016480073
0.011571823
0.020149591
0.02574899
0.029867304
0.03299827
0.035427993
0.037353618
0.038897087
0.04012282
0.041055131
0.041689509
0.042000616
0.041942494
0.041408606
0.040311339
0.038406639
0.035117852
0.028768599
0.016480073
)
;

boundaryField
{
    movingWall
    {
        type            calculated;
        value           uniform 0;
    }
    fixedWalls
    {
        type            calculated;
        value           uniform 0;
    }
    frontAndBack
    {
        type            empty;
        value           nonuniform List<scalar> 0();
    }
}


// ************************************************************************* //
