/*--------------------------------*- C++ -*----------------------------------*\
  =========                 |
  \\      /  F ield         | OpenFOAM: The Open Source CFD Toolbox
   \\    /   O peration     | Website:  https://openfoam.org
    \\  /    A nd           | Version:  9
     \\/     M anipulation  |
\*---------------------------------------------------------------------------*/
FoamFile
{
    format      ascii;
    class       surfaceScalarField;
    location    "19";
    object      phi_0;
}
// * * * * * * * * * * * * * * * * * * * * * * * * * * * * * * * * * * * * * //

dimensions      [0 3 -1 0 0 0 0];

internalField   nonuniform List<scalar> 
760
(
1.2692959e-05
-1.2709129e-05
-2.8727934e-05
4.1420893e-05
-0.00012228957
9.356164e-05
-0.00025038548
0.00012809591
-0.00039605522
0.00014566974
-0.00054536223
0.00014930701
-0.00068623425
0.00014087203
-0.00080684784
0.0001206136
-0.0008949036
8.8055767e-05
-0.00093834035
4.3436758e-05
-0.00092722666
-1.1113675e-05
-0.00085682022
-7.0406434e-05
-0.0007303968
-0.00012642341
-0.00056132038
-0.00016907641
-0.00037275012
-0.00018857024
-0.00019447291
-0.00017827721
-5.6526196e-05
-0.00013794671
1.9609088e-05
-7.6135269e-05
3.0408358e-05
-1.0799252e-05
3.0408374e-05
-4.3184618e-05
3.047549e-05
-0.00020455824
0.00020279452
-0.00046829876
0.00035730217
-0.0008006591
0.00046045627
-0.0011672768
0.00051228745
-0.0015363511
0.00051838129
-0.0018781072
0.00048262818
-0.0021635447
0.0004060511
-0.0023643968
0.00028890793
-0.0024552025
0.00013424248
-0.0024180038
-4.8312438e-05
-0.0022452363
-0.00024317386
-0.0019474582
-0.00042420155
-0.0015543981
-0.00056213644
-0.0011142774
-0.00062869092
-0.00068745403
-0.00060510056
-0.00033452089
-0.00049087982
-0.00010089936
-0.00030975677
-1.5544842e-06
-0.00011014411
2.8853905e-05
-0.0001100216
0.00014049709
-0.00040300647
0.00049577939
-0.00083133352
0.00078562922
-0.0013455273
0.00097465009
-0.0018984715
0.0010652316
-0.002446418
0.0010663278
-0.0029478389
0.00098404912
-0.0033624025
0.00082061465
-0.0036516621
0.00057816764
-0.003782089
0.00026466936
-0.0037296073
-0.00010079416
-0.0034856194
-0.00048716172
-0.0030631139
-0.00084670705
-0.002499871
-0.0011253793
-0.0018581512
-0.0012704107
-0.0012180962
-0.0012451555
-0.00066371561
-0.0010452604
-0.00026308461
-0.00071038774
-4.7957071e-05
-0.00032527162
-1.910315e-05
-0.00017342748
0.00031392457
-0.00059325025
0.00091560215
-0.0011776121
0.0013699911
-0.0018582405
0.0016552785
-0.0025767321
0.0017837232
-0.0032810876
0.0017706833
-0.0039225363
0.0016254978
-0.0044538521
0.0013519305
-0.0048299615
0.00095427702
-0.0050109356
0.00044564354
-0.0049669693
-0.00014476048
-0.0046841749
-0.00076995603
-0.0041721299
-0.0013587521
-0.0034689537
-0.0018285555
-0.0026438853
-0.0020954791
-0.0017931228
-0.002095918
-0.0010258102
-0.001812573
-0.00044020023
-0.0012959977
-9.6721737e-05
-0.00066875009
-0.00011582487
-0.0002297781
0.00054370267
-0.00076501829
0.0014508423
-0.0014913782
0.002096351
-0.0023223851
0.0024862853
-0.0031899237
0.0026512619
-0.0040365566
0.0026173162
-0.0048097308
0.002398672
-0.0054586307
0.0020008304
-0.0059338335
0.0014294798
-0.0061894656
0.00070127564
-0.0061880628
-0.00014616318
-0.005905264
-0.0010527548
-0.0053401434
-0.0019238726
-0.0045228946
-0.0026458043
-0.0035228116
-0.003095562
-0.0024496955
-0.0031690341
-0.0014424784
-0.00281979
-0.00064120593
-0.0020972701
-0.00014883168
-0.0011611243
-0.00026465654
-0.00027727698
0.00082097965
-0.00091148141
0.0020850468
-0.001760608
0.0029454776
-0.0027226259
0.0034483033
-0.0037219704
0.0036506064
-0.0046984025
0.0035937483
-0.005598558
0.0032988275
-0.0063708295
0.002773102
-0.0069633527
0.002022003
-0.0073244607
0.0010623837
-0.0074070984
-6.3525433e-05
-0.007171358
-0.0012884951
-0.006598588
-0.0024966426
-0.0057014271
-0.0035429652
-0.0045398225
-0.0042571665
-0.0032317054
-0.0044771512
-0.0019489398
-0.0041025555
-0.00088725159
-0.0031589583
-0.00021158579
-0.0018367901
-0.0004762423
-0.00031409346
0.0011350731
-0.0010262689
0.0027972222
-0.0019733782
0.0038925869
-0.0030415622
0.0045164872
-0.0041504659
0.0047595101
-0.0052396422
0.0046829247
-0.0062577318
0.0043169172
-0.0071551571
0.0036705273
-0.007879985
0.002746831
-0.0083764593
0.001558858
-0.0085850169
0.00014503219
-0.0084509702
-0.0014225418
-0.0079291833
-0.0030184294
-0.0070046915
-0.004467457
-0.0057148247
-0.0055470333
-0.0041734219
-0.006018554
-0.0025817458
-0.0056942316
-0.0012040581
-0.0045366459
-0.00029449229
-0.0027463559
-0.00077073457
-0.00033822724
0.0014733003
-0.0011031029
0.0035620979
-0.0021175116
0.0049069957
-0.0032597088
0.0056586844
-0.0044471718
0.0059469731
-0.0056216806
0.0058574335
-0.0067366321
0.0054318688
-0.0077476265
0.0046815217
-0.0086060219
0.0036052265
-0.0092548967
0.0022077328
-0.0096266681
0.00051680375
-0.0096488758
-0.0014003341
-0.0092486755
-0.0034186297
-0.0083736724
-0.00534246
-0.0070218462
-0.0068988595
-0.0052816415
-0.0077587586
-0.0033675544
-0.0076083187
-0.0016173074
-0.0062868929
-0.00040825378
-0.0039554095
-0.0011789883
-0.00034813935
0.0018214397
-0.0011371619
0.0043511204
-0.0021826897
0.0059525236
-0.0033584738
0.0068344685
-0.0045820532
0.0071705526
-0.0057995975
0.0070749778
-0.0069719444
0.0066042158
-0.0080634019
0.0057729793
-0.0090331687
0.0045749934
-0.0098287209
0.0030032851
-0.010381007
0.0010690898
-0.010604267
-0.001177074
-0.010400531
-0.0036223652
-0.0096746671
-0.0060683242
-0.0083684729
-0.0082050536
-0.0065155211
-0.0096117103
-0.0043097694
-0.0098140704
-0.0021482616
-0.0084484006
-0.00056490716
-0.0055387638
-0.0017438954
-0.00034392507
0.0021653648
-0.0011278274
0.0051350228
-0.0021646481
0.0069893443
-0.0033258096
0.0079956301
-0.0045306829
0.0083754258
-0.0057318042
0.0082760991
-0.0069000687
0.0077724803
-0.0080122236
0.0068851344
-0.009040669
0.0056034389
-0.0099448139
0.00390743
-0.010663246
0.0017875222
-0.011106599
-0.00073372147
-0.011163273
-0.0035656903
-0.01069698
-0.006534617
-0.0095824549
-0.0093195791
-0.0077666459
-0.011427519
-0.0053713981
-0.012209318
-0.0028071171
-0.011012682
-0.00077834876
-0.0075675321
-0.0025222442
-0.00032890704
0.0024942718
-0.0010824153
0.0058885311
-0.0020707618
0.0079776908
-0.0031635872
0.0090884555
-0.004283868
0.0094957068
-0.0053928161
0.0093850472
-0.0064741053
0.0088537696
-0.00752052
0.0079315492
-0.0085228996
0.0066058186
-0.0094603356
0.0048448662
-0.01029133
0.0026185164
-0.010933219
-9.1832046e-05
-0.011283195
-0.0032157138
-0.011173599
-0.0066442129
-0.010415659
-0.010077519
-0.0088466659
-0.012996512
-0.0064556826
-0.014600301
-0.0035814749
-0.013886889
-0.0010642026
-0.010084804
-0.0035864468
-0.00031179297
0.0028060648
-0.0010207017
0.0065974399
-0.0019261362
0.0088831253
-0.0028949973
0.010057317
-0.0038569435
0.010457653
-0.0047856384
0.010313742
-0.0056808577
0.009748989
-0.0065545646
0.0088052561
-0.0074200149
0.007471269
-0.0082819633
0.0057068147
-0.0091252981
0.0034618513
-0.0099087828
0.00069165272
-0.010527381
-0.0025971155
-0.010827108
-0.0063444856
-0.010573683
-0.010330944
-0.009493221
-0.014076974
-0.0073911187
-0.016702404
-0.0044188839
-0.016859124
-0.0014371947
-0.013066494
-0.0050236414
-0.0003100611
0.003116126
-0.00098041606
0.007267795
-0.0017791361
0.0096818454
-0.002569488
0.010847669
-0.00329475
0.011182915
-0.0039480811
0.010967073
-0.0045501823
0.01035109
-0.0051350221
0.009390096
-0.0057401763
0.0080764233
-0.0063987935
0.0063654321
-0.0071304003
0.0041934582
-0.0079305258
0.0014917783
-0.0087390521
-0.0017885891
-0.0094305698
-0.0056529677
-0.0097687423
-0.0099927718
-0.0094004452
-0.014445271
-0.0079306224
-0.018172226
-0.0052061629
-0.019583583
-0.0019026028
-0.016370054
-0.0069262442
-0.00035606675
0.0034721927
-0.0010240736
0.0079358019
-0.0017043632
0.010362135
-0.0022609864
0.011404292
-0.0026659592
0.011587888
-0.0029442898
0.011245404
-0.0031445636
0.010551364
-0.0033252075
0.00957074
-0.0035475499
0.0082987658
-0.0038714104
0.0066892926
-0.0043495336
0.0046715815
-0.005018731
0.0021609758
-0.0058769405
-0.00093037944
-0.0068581269
-0.0046717812
-0.0077765293
-0.0090743693
-0.0082660117
-0.013955789
-0.0077688444
-0.018669394
-0.005751139
-0.021601289
-0.0024366739
-0.019684519
-0.009362918
-0.0005082934
0.0039804861
-0.001245726
0.0086732346
-0.0017960507
0.01091246
-0.0020482369
0.011656478
-0.0020328068
0.011572458
-0.0018257782
0.011038375
-0.0015125819
0.010238168
-0.0011782732
0.0092364314
-0.00090513643
0.0080256292
-0.00077414149
0.0065582978
-0.00086389967
0.0047613398
-0.0012477473
0.0025448236
-0.0019831939
-0.00019493279
-0.0030821941
-0.0035727809
-0.0044603109
-0.0076962524
-0.0058277064
-0.012588393
-0.0065663116
-0.017930788
-0.0057685202
-0.02239908
-0.0029512418
-0.022501797
-0.01231416
-0.00086858669
0.0048490729
-0.001763083
0.0095677309
-0.0021215343
0.011270911
-0.0019371028
0.011472047
-0.0013512486
0.010986604
-0.00051657365
0.0102037
0.00043662224
0.0092849724
0.0013991755
0.0082738782
0.002271936
0.0071528688
0.0029604858
0.0058697482
0.0033687428
0.0043530828
0.0033964207
0.0025171458
0.0029382006
0.00026328736
0.0019093024
-0.0025438827
0.00026941745
-0.0060563674
-0.0018543829
-0.010464593
-0.0039517572
-0.015833414
-0.0048609253
-0.021489912
-0.0032547315
-0.024107991
-0.015568891
-0.0015911098
0.0064401828
-0.0026109369
0.010587558
-0.0025132942
0.011173268
-0.0015901404
0.010548893
-0.00017247341
0.0095689369
0.0014924418
0.0085387853
0.0032325005
0.0075449138
0.0049228206
0.0065835581
0.0064625784
0.005613111
0.0077570975
0.0045752291
0.0087071301
0.0034030503
0.0092011534
0.0020231227
0.009103038
0.00036140279
0.0082748267
-0.0017156714
0.0065652359
-0.0043467766
0.0039040517
-0.0078034086
0.00055881948
-0.012488182
-0.0024681411
-0.018462951
-0.0030273494
-0.023548783
-0.018596241
-0.0027183695
0.0091585522
-0.0031499089
0.011019098
-0.0018030961
0.0098264554
0.00046654048
0.0082792562
0.0030891995
0.0069462778
0.0057735325
0.0058544523
0.0083625786
0.0049558677
0.010760052
0.0041860847
0.012893141
0.0034800219
0.01469032
0.0027780502
0.01606803
0.0020253407
0.016923003
0.0011681494
0.017119472
0.00016493379
0.01649063
-0.0010868289
0.014816679
-0.0026728258
0.01184653
-0.0048332592
0.0074353941
-0.0080770463
0.0022628648
-0.013290422
-0.0012724961
-0.020013422
-0.019868737
-0.002413271
0.011571823
2.8059531e-05
0.0085777677
0.0042551157
0.0055993994
0.0084160576
0.0041183144
0.01223137
0.0031309657
0.0156561
0.0024297223
0.018686343
0.0019256251
0.021328958
0.0015434688
0.023583247
0.0012257332
0.025428987
0.00093231079
0.026819949
0.00063437812
0.027676992
0.00031110684
0.027900047
-5.8121226e-05
0.027347106
-0.00053388815
0.025771547
-0.0010972666
0.022842988
-0.0019046999
0.018054728
-0.0032887871
0.011113559
-0.0063492527
0.0033886638
-0.012288526
-0.016480073
0.011571823
0.020149591
0.02574899
0.029867304
0.03299827
0.035427992
0.037353617
0.038897086
0.040122819
0.04105513
0.041689508
0.042000615
0.041942494
0.041408606
0.040311339
0.038406639
0.035117852
0.028768599
0.016480073
)
;

boundaryField
{
    movingWall
    {
        type            calculated;
        value           uniform 0;
    }
    fixedWalls
    {
        type            calculated;
        value           uniform 0;
    }
    frontAndBack
    {
        type            empty;
        value           nonuniform List<scalar> 0();
    }
}


// ************************************************************************* //
