/*--------------------------------*- C++ -*----------------------------------*\
  =========                 |
  \\      /  F ield         | OpenFOAM: The Open Source CFD Toolbox
   \\    /   O peration     | Website:  https://openfoam.org
    \\  /    A nd           | Version:  9
     \\/     M anipulation  |
\*---------------------------------------------------------------------------*/
FoamFile
{
    format      ascii;
    class       volVectorField;
    location    "19";
    object      U;
}
// * * * * * * * * * * * * * * * * * * * * * * * * * * * * * * * * * * * * * //

dimensions      [0 1 -1 0 0 0 0];

internalField   nonuniform List<vector> 
400
(
(0.00028431483 -0.00028146621 0)
(0.00011051158 7.9924832e-05 0)
(-0.0013272279 0.00047799195 0)
(-0.0036217734 0.00073588475 0)
(-0.0064233511 0.00086747077 0)
(-0.0094309934 0.00090721705 0)
(-0.012387337 0.0008748153 0)
(-0.015055623 0.00077148503 0)
(-0.017193611 0.00058845559 0)
(-0.018551853 0.00032006894 0)
(-0.01890163 -2.4802998e-05 0)
(-0.01808524 -0.00041823146 0)
(-0.016079145 -0.00079966354 0)
(-0.013048403 -0.0010930107 0)
(-0.0093660802 -0.0012211409 0)
(-0.0055775571 -0.0011294264 0)
(-0.0023003896 -0.00081284626 0)
(-8.3064123e-05 -0.00033798996 0)
(0.00076006054 0.00015226105 0)
(0.00040940951 0.00038930752 0)
(-8.611864e-05 -0.00012367668 0)
(-0.0018692576 0.0017870968 0)
(-0.0063062252 0.0036258137 0)
(-0.012451984 0.0048621881 0)
(-0.019599487 0.0054981871 0)
(-0.027105317 0.0056203239 0)
(-0.034356813 0.0052857079 0)
(-0.040766426 0.0045041136 0)
(-0.045755462 0.0032660456 0)
(-0.048773088 0.0015896028 0)
(-0.049363915 -0.00043537411 0)
(-0.047251354 -0.0026179518 0)
(-0.042449917 -0.0046641899 0)
(-0.035359903 -0.0062185067 0)
(-0.02677755 -0.0069371844 0)
(-0.017826685 -0.0065919421 0)
(-0.0097753362 -0.0051795831 0)
(-0.0037463173 -0.0029993868 0)
(-0.00038883929 -0.00066560823 0)
(0.00028985256 0.00078345858 0)
(-0.00058806702 0.0014335297 0)
(-0.0042425698 0.0063770936 0)
(-0.011757822 0.010639892 0)
(-0.021467304 0.01348274 0)
(-0.032364093 0.014897354 0)
(-0.043585198 0.015016443 0)
(-0.054283952 0.013935312 0)
(-0.063638577 0.011683571 0)
(-0.070851533 0.0082809595 0)
(-0.075183949 0.0038285882 0)
(-0.07603527 -0.0014056024 0)
(-0.073053843 -0.0069349992 0)
(-0.066263299 -0.012070828 0)
(-0.056166673 -0.01599919 0)
(-0.043778885 -0.017941689 0)
(-0.030567983 -0.017379062 0)
(-0.018250051 -0.014289372 0)
(-0.0084177776 -0.0093120373 0)
(-0.0021511257 -0.0037618613 0)
(-1.9968411e-06 0.00031683956 0)
(-0.0010529945 0.0043001028 0)
(-0.0065144014 0.013564821 0)
(-0.016997927 0.020862685 0)
(-0.030028809 0.02555954 0)
(-0.044297566 0.027759645 0)
(-0.058780377 0.027686203 0)
(-0.072482825 0.025486096 0)
(-0.084441589 0.021217251 0)
(-0.093723219 0.014944461 0)
(-0.099458379 0.00687834 0)
(-0.10092447 -0.0025006689 0)
(-0.097657586 -0.012377228 0)
(-0.089588469 -0.021603735 0)
(-0.077178447 -0.028822854 0)
(-0.061502244 -0.032704125 0)
(-0.04425173 -0.03229823 0)
(-0.027561131 -0.02744467 0)
(-0.01358129 -0.019080043 0)
(-0.0040262516 -0.0092705514 0)
(-0.00026772896 -0.0011083076 0)
(-0.0014557487 0.0083644391 0)
(-0.0085484094 0.023179577 0)
(-0.021744604 0.03404925 0)
(-0.037789713 0.040760254 0)
(-0.055093014 0.043698813 0)
(-0.072514601 0.043256244 0)
(-0.088978527 0.039659091 0)
(-0.10345186 0.032999601 0)
(-0.1149252 0.023383299 0)
(-0.12242976 0.011116756 0)
(-0.12510836 -0.003127959 0)
(-0.1223134 -0.018217508 0)
(-0.11375576 -0.03253904 0)
(-0.099693432 -0.044129633 0)
(-0.081096747 -0.050963227 0)
(-0.059773687 -0.051438484 0)
(-0.038289576 -0.045011532 0)
(-0.019519686 -0.032754275 0)
(-0.0060921255 -0.017491387 0)
(-0.00051101249 -0.003522073 0)
(-0.0017887887 0.013474449 0)
(-0.010268935 0.034958294 0)
(-0.025803622 0.049905057 0)
(-0.044463624 0.058790718 0)
(-0.064423332 0.062454216 0)
(-0.084472028 0.061547041 0)
(-0.10351009 0.056412801 0)
(-0.12049634 0.047179866 0)
(-0.13439635 0.033969133 0)
(-0.14416619 0.017132409 0)
(-0.1487959 -0.002534595 0)
(-0.14738618 -0.023633917 0)
(-0.1393047 -0.044139186 0)
(-0.12443005 -0.0614381 0)
(-0.1034272 -0.072638119 0)
(-0.078052648 -0.075170029 0)
(-0.051258837 -0.067703622 0)
(-0.026808387 -0.051122123 0)
(-0.0086119677 -0.028964729 0)
(-0.00078704427 -0.0070520655 0)
(-0.0020418798 0.019435062 0)
(-0.011604832 0.048525379 0)
(-0.028993838 0.067993533 0)
(-0.049754498 0.079220646 0)
(-0.071887151 0.083652015 0)
(-0.094156478 0.082292804 0)
(-0.11549352 0.075645604 0)
(-0.13490781 0.063873991 0)
(-0.15139566 0.047074487 0)
(-0.16387701 0.02556783 0)
(-0.17118475 0.00016466072 0)
(-0.17214729 -0.027607555 0)
(-0.16570899 -0.05539206 0)
(-0.1511861 -0.079940654 0)
(-0.12869571 -0.097345777 0)
(-0.099666274 -0.1036934 0)
(-0.067239326 -0.096281765 0)
(-0.036117769 -0.075217172 0)
(-0.011929275 -0.044538274 0)
(-0.0011707671 -0.012001201 0)
(-0.0022011449 0.026011454 0)
(-0.012483963 0.063415069 0)
(-0.031138107 0.08775844 0)
(-0.053351587 0.10148361 0)
(-0.077013609 0.10677054 0)
(-0.10090695 0.1050678 0)
(-0.12404416 0.097083307 0)
(-0.14554525 0.083017932 0)
(-0.16450277 0.062900432 0)
(-0.17986897 0.036930868 0)
(-0.19039234 0.0057973813 0)
(-0.19464903 -0.029029901 0)
(-0.19113006 -0.06501318 0)
(-0.17848411 -0.098385145 0)
(-0.15602003 -0.12417101 0)
(-0.124441 -0.13675643 0)
(-0.086643842 -0.13132349 0)
(-0.048062159 -0.10622869 0)
(-0.016428785 -0.065390928 0)
(-0.0017537164 -0.018877865 0)
(-0.0022555992 0.032930942 0)
(-0.012853117 0.079083124 0)
(-0.032097475 0.10852792 0)
(-0.054979439 0.12485651 0)
(-0.079331549 0.13108528 0)
(-0.10399011 0.12919248 0)
(-0.12809562 0.12014582 0)
(-0.15093996 0.10419762 0)
(-0.17179198 0.081276386 0)
(-0.18973932 0.051375617 0)
(-0.20357091 0.014917401 0)
(-0.21172389 -0.026872327 0)
(-0.21232019 -0.07152702 0)
(-0.20333348 -0.11501956 0)
(-0.18305854 -0.15143984 0)
(-0.15101426 -0.17327769 0)
(-0.1091628 -0.17281511 0)
(-0.063024638 -0.14523853 0)
(-0.022524281 -0.092974891 0)
(-0.0026588555 -0.0284213 0)
(-0.0022085759 0.039901913 0)
(-0.01271673 0.094938227 0)
(-0.031840398 0.12953227 0)
(-0.054495287 0.14844993 0)
(-0.078497949 0.15562713 0)
(-0.10276838 0.15365903 0)
(-0.12661847 0.1438401 0)
(-0.14957346 0.12650928 0)
(-0.17116776 0.10149047 0)
(-0.19075266 0.068517195 0)
(-0.2073241 0.02762964 0)
(-0.2193748 -0.020390364 0)
(-0.22488489 -0.073456473 0)
(-0.22130366 -0.12768208 0)
(-0.20585188 -0.17661299 0)
(-0.17647348 -0.21098404 0)
(-0.13334417 -0.2196055 0)
(-0.080897493 -0.19274757 0)
(-0.030641141 -0.12884852 0)
(-0.0040699334 -0.041635755 0)
(-0.0020933571 0.046660567 0)
(-0.012189691 0.11041225 0)
(-0.03053602 0.14995748 0)
(-0.052017178 0.17123396 0)
(-0.074464382 0.17918378 0)
(-0.096919163 0.17711343 0)
(-0.11891329 0.16672374 0)
(-0.14026585 0.1484987 0)
(-0.1608616 0.12219053 0)
(-0.18044295 0.087272848 0)
(-0.19840283 0.043354794 0)
(-0.21353675 -0.0093857116 0)
(-0.22401441 -0.069671297 0)
(-0.22708241 -0.13412693 0)
(-0.21908872 -0.19644589 0)
(-0.19626522 -0.24624424 0)
(-0.15621779 -0.26885237 0)
(-0.10070493 -0.24798107 0)
(-0.041145288 -0.17433016 0)
(-0.0062704536 -0.05983223 0)
(-0.0019964072 0.053054822 0)
(-0.011565814 0.12507727 0)
(-0.028661555 0.16903688 0)
(-0.048057458 0.1921001 0)
(-0.067639504 0.20034796 0)
(-0.086645205 0.19790527 0)
(-0.10489752 0.18696139 0)
(-0.12257139 0.16821478 0)
(-0.13996631 0.14140745 0)
(-0.15730021 0.10579948 0)
(-0.17451842 0.060574106 0)
(-0.19108658 0.005229614 0)
(-0.20560431 -0.059917368 0)
(-0.2155081 -0.1326019 0)
(-0.21690289 -0.20752113 0)
(-0.20457871 -0.2743108 0)
(-0.17317475 -0.31571021 0)
(-0.12017035 -0.30807269 0)
(-0.054146923 -0.22987841 0)
(-0.009674728 -0.084651064 0)
(-0.0020997471 0.059181903 0)
(-0.011415514 0.13881012 0)
(-0.027116761 0.18616559 0)
(-0.043626943 0.20993855 0)
(-0.058983974 0.2175933 0)
(-0.072781176 0.21419065 0)
(-0.085253884 0.20246823 0)
(-0.097005606 0.18339078 0)
(-0.1087935 0.15675492 0)
(-0.12135554 0.12168699 0)
(-0.13525939 0.077017809 0)
(-0.15070819 0.021621901 0)
(-0.16712724 -0.045106108 0)
(-0.18274467 -0.12251077 0)
(-0.19405734 -0.20712038 0)
(-0.1952377 -0.2901085 0)
(-0.17829567 -0.35357848 0)
(-0.13540579 -0.36743152 0)
(-0.069088782 -0.29414755 0)
(-0.014794876 -0.11798211 0)
(-0.0027678972 0.065618043 0)
(-0.01274194 0.15199365 0)
(-0.027332054 0.20099042 0)
(-0.040247723 0.22367602 0)
(-0.049932799 0.22932346 0)
(-0.056648506 0.22403116 0)
(-0.061238398 0.21107584 0)
(-0.064822401 0.19167892 0)
(-0.068627514 0.16571954 0)
(-0.073882059 0.13227446 0)
(-0.081735322 0.089962681 0)
(-0.093127107 0.037203655 0)
(-0.10847596 -0.027474877 0)
(-0.12721994 -0.10497183 0)
(-0.14705953 -0.19421602 0)
(-0.16280763 -0.28948152 0)
(-0.16509352 -0.37509415 0)
(-0.14090281 -0.4177215 0)
(-0.084061788 -0.3628091 0)
(-0.022011555 -0.16157163 0)
(-0.0047198198 0.07383345 0)
(-0.017223571 0.16572264 0)
(-0.031286893 0.2133728 0)
(-0.039687179 0.23216785 0)
(-0.041888736 0.23379621 0)
(-0.039357432 0.22538924 0)
(-0.033819744 0.21060851 0)
(-0.027008156 0.19080847 0)
(-0.020600136 0.16589739 0)
(-0.016223637 0.13494025 0)
(-0.01548445 0.096473199 0)
(-0.019933344 0.048693232 0)
(-0.030925951 -0.010409 0)
(-0.049240997 -0.082916646 0)
(-0.07440504 -0.1701394 0)
(-0.10328156 -0.27049893 0)
(-0.12725819 -0.37369163 0)
(-0.12973709 -0.44868383 0)
(-0.094915518 -0.42750305 0)
(-0.030930708 -0.2161258 0)
(-0.009300232 0.086951523 0)
(-0.027433284 0.18185099 0)
(-0.040984338 0.22302963 0)
(-0.042683715 0.23378484 0)
(-0.034411074 0.22879748 0)
(-0.019629454 0.21591875 0)
(-0.0012461095 0.19877686 0)
(0.018337325 0.1785629 0)
(0.037063086 0.15508312 0)
(0.053047379 0.12736023 0)
(0.064413592 0.093938211 0)
(0.069223446 0.053017256 0)
(0.065408169 0.0024656626 0)
(0.051041134 -0.060336261 0)
(0.024637376 -0.13837378 0)
(-0.013706725 -0.2341689 0)
(-0.058757574 -0.34516798 0)
(-0.093513398 -0.44953755 0)
(-0.094470958 -0.47558564 0)
(-0.039216292 -0.28048107 0)
(-0.018580473 0.11087147 0)
(-0.046040613 0.20177542 0)
(-0.055232362 0.2279293 0)
(-0.043988608 0.2250145 0)
(-0.019377614 0.21060955 0)
(0.012327087 0.19227693 0)
(0.046985925 0.17278254 0)
(0.081746469 0.15265249 0)
(0.11443 0.13135239 0)
(0.14314545 0.10779608 0)
(0.1660094 0.080593 0)
(0.18097429 0.048114149 0)
(0.18556988 0.0084515694 0)
(0.17716023 -0.040815228 0)
(0.15275472 -0.1031742 0)
(0.10948481 -0.1839046 0)
(0.04723728 -0.2885534 0)
(-0.021441559 -0.4105092 0)
(-0.072254019 -0.49101566 0)
(-0.041147725 -0.35054186 0)
(-0.033352249 0.1556158 0)
(-0.06860206 0.22040423 0)
(-0.055188667 0.21729119 0)
(-0.016081126 0.19532267 0)
(0.034507467 0.17092142 0)
(0.088502972 0.14849264 0)
(0.14176283 0.12861097 0)
(0.19196266 0.11057651 0)
(0.23753402 0.093297182 0)
(0.27711354 0.075575329 0)
(0.30921186 0.056182303 0)
(0.33203758 0.033824571 0)
(0.34317066 0.0070287648 0)
(0.33982462 -0.025908991 0)
(0.31812903 -0.067740484 0)
(0.27327447 -0.12410701 0)
(0.20044506 -0.20584654 0)
(0.1021382 -0.32506869 0)
(-0.012388099 -0.45457121 0)
(-0.023756868 -0.40864028 0)
(-0.033081001 0.23907353 0)
(-0.042646958 0.21792035 0)
(0.042207104 0.16426608 0)
(0.12760379 0.12783516 0)
(0.20769628 0.10143462 0)
(0.28027893 0.081657236 0)
(0.34486954 0.066647335 0)
(0.40157878 0.054702503 0)
(0.45054601 0.044399256 0)
(0.4916157 0.034640043 0)
(0.52415737 0.024550995 0)
(0.54698207 0.013382313 0)
(0.55821899 0.00040043628 0)
(0.55570674 -0.015136635 0)
(0.53552425 -0.034968586 0)
(0.49244521 -0.062487784 0)
(0.41797177 -0.10694743 0)
(0.30410529 -0.19317537 0)
(0.12313744 -0.33691901 0)
(0.052374081 -0.3943791 0)
(0.24299939 0.15257492 0)
(0.30529653 0.11854304 0)
(0.45481255 0.07610821 0)
(0.56000904 0.050840143 0)
(0.63223299 0.035125943 0)
(0.68654839 0.024812125 0)
(0.729437 0.01795993 0)
(0.76379466 0.013255811 0)
(0.7912774 0.009762165 0)
(0.81274955 0.0068544072 0)
(0.82840961 0.0041186346 0)
(0.8379425 0.0012770149 0)
(0.84056966 -0.0018440628 0)
(0.83497492 -0.0053261166 0)
(0.81886668 -0.0098288385 0)
(0.78942863 -0.016232671 0)
(0.73784296 -0.026935683 0)
(0.65316772 -0.051286565 0)
(0.4560977 -0.11374606 0)
(0.31788988 -0.17206005 0)
)
;

boundaryField
{
    movingWall
    {
        type            fixedValue;
        value           uniform (1 0 0);
    }
    fixedWalls
    {
        type            fixedValue;
        value           uniform (0 0 0);
    }
    frontAndBack
    {
        type            empty;
    }
}


// ************************************************************************* //
