/*--------------------------------*- C++ -*----------------------------------*\
  =========                 |
  \\      /  F ield         | OpenFOAM: The Open Source CFD Toolbox
   \\    /   O peration     | Website:  https://openfoam.org
    \\  /    A nd           | Version:  9
     \\/     M anipulation  |
\*---------------------------------------------------------------------------*/
FoamFile
{
    format      ascii;
    class       volVectorField;
    location    "19";
    object      U_0;
}
// * * * * * * * * * * * * * * * * * * * * * * * * * * * * * * * * * * * * * //

dimensions      [0 1 -1 0 0 0 0];

internalField   nonuniform List<vector> 
400
(
(0.00028431463 -0.00028146607 0)
(0.00011051126 7.992488e-05 0)
(-0.0013272278 0.00047799183 0)
(-0.0036217726 0.00073588453 0)
(-0.0064233493 0.00086747047 0)
(-0.0094309905 0.00090721672 0)
(-0.012387333 0.00087481498 0)
(-0.015055618 0.00077148475 0)
(-0.017193605 0.00058845538 0)
(-0.018551847 0.00032006884 0)
(-0.018901624 -2.4802963e-05 0)
(-0.018085234 -0.00041823124 0)
(-0.01607914 -0.00079966315 0)
(-0.013048399 -0.0010930103 0)
(-0.0093660783 -0.0012211405 0)
(-0.0055775565 -0.0011294261 0)
(-0.0023003899 -0.00081284613 0)
(-8.3064788e-05 -0.00033798999 0)
(0.00076006002 0.00015226087 0)
(0.00040940933 0.00038930736 0)
(-8.6118693e-05 -0.00012367645 0)
(-0.0018692571 0.0017870964 0)
(-0.0063062232 0.0036258125 0)
(-0.012451979 0.0048621865 0)
(-0.01959948 0.0054981851 0)
(-0.027105307 0.0056203219 0)
(-0.034356801 0.005285706 0)
(-0.040766411 0.0045041121 0)
(-0.045755446 0.0032660446 0)
(-0.048773071 0.0015896025 0)
(-0.049363899 -0.0004353736 0)
(-0.047251338 -0.0026179505 0)
(-0.042449904 -0.0046641878 0)
(-0.035359893 -0.0062185043 0)
(-0.026777543 -0.006937182 0)
(-0.017826681 -0.0065919402 0)
(-0.009775335 -0.0051795819 0)
(-0.0037463175 -0.0029993865 0)
(-0.0003888398 -0.00066560862 0)
(0.00028985232 0.00078345808 0)
(-0.00058806681 0.0014335294 0)
(-0.0042425681 0.0063770915 0)
(-0.011757817 0.010639888 0)
(-0.021467296 0.013482735 0)
(-0.03236408 0.014897349 0)
(-0.043585181 0.015016437 0)
(-0.054283931 0.013935307 0)
(-0.063638552 0.011683567 0)
(-0.070851506 0.0082809572 0)
(-0.075183922 0.0038285879 0)
(-0.076035244 -0.0014056007 0)
(-0.07305382 -0.0069349955 0)
(-0.066263278 -0.012070823 0)
(-0.056166657 -0.015999183 0)
(-0.043778874 -0.017941682 0)
(-0.030567976 -0.017379057 0)
(-0.018250047 -0.014289369 0)
(-0.0084177765 -0.0093120358 0)
(-0.0021511257 -0.0037618614 0)
(-1.9969991e-06 0.00031683884 0)
(-0.0010529941 0.0043001013 0)
(-0.0065143986 0.013564815 0)
(-0.01699792 0.020862676 0)
(-0.030028797 0.02555953 0)
(-0.044297548 0.027759634 0)
(-0.058780353 0.027686192 0)
(-0.072482796 0.025486087 0)
(-0.084441557 0.021217244 0)
(-0.093723184 0.014944458 0)
(-0.099458344 0.0068783398 0)
(-0.10092444 -0.0025006653 0)
(-0.097657555 -0.012377221 0)
(-0.089588442 -0.021603725 0)
(-0.077178424 -0.028822843 0)
(-0.061502227 -0.032704113 0)
(-0.044251719 -0.03229822 0)
(-0.027561124 -0.027444662 0)
(-0.013581288 -0.019080039 0)
(-0.0040262511 -0.0092705506 0)
(-0.00026772901 -0.0011083083 0)
(-0.001455748 0.0083644358 0)
(-0.0085484056 0.023179568 0)
(-0.021744595 0.034049236 0)
(-0.037789697 0.040760238 0)
(-0.055092991 0.043698796 0)
(-0.072514573 0.043256228 0)
(-0.088978493 0.039659077 0)
(-0.10345182 0.032999591 0)
(-0.11492516 0.023383294 0)
(-0.12242972 0.011116756 0)
(-0.12510832 -0.0031279535 0)
(-0.12231336 -0.018217497 0)
(-0.11375573 -0.032539026 0)
(-0.099693404 -0.044129616 0)
(-0.081096726 -0.05096321 0)
(-0.059773672 -0.051438469 0)
(-0.038289567 -0.045011521 0)
(-0.019519681 -0.032754268 0)
(-0.0060921243 -0.017491384 0)
(-0.00051101244 -0.0035220733 0)
(-0.0017887878 0.013474443 0)
(-0.010268931 0.034958279 0)
(-0.025803611 0.049905037 0)
(-0.044463607 0.058790695 0)
(-0.064423307 0.062454192 0)
(-0.084471996 0.06154702 0)
(-0.10351006 0.056412783 0)
(-0.1204963 0.047179853 0)
(-0.13439631 0.033969126 0)
(-0.14416615 0.017132409 0)
(-0.14879585 -0.0025345878 0)
(-0.14738614 -0.023633903 0)
(-0.13930466 -0.044139167 0)
(-0.12443002 -0.061438077 0)
(-0.10342718 -0.072638096 0)
(-0.07805263 -0.075170007 0)
(-0.051258825 -0.067703604 0)
(-0.026808381 -0.051122111 0)
(-0.0086119659 -0.028964724 0)
(-0.00078704411 -0.007052065 0)
(-0.0020418789 0.019435054 0)
(-0.011604828 0.048525359 0)
(-0.028993827 0.067993506 0)
(-0.04975448 0.079220616 0)
(-0.071887126 0.083651984 0)
(-0.094156447 0.082292776 0)
(-0.11549348 0.075645581 0)
(-0.13490777 0.063873975 0)
(-0.15139562 0.047074478 0)
(-0.16387697 0.02556783 0)
(-0.17118471 0.00016466955 0)
(-0.17214725 -0.027607538 0)
(-0.16570895 -0.055392036 0)
(-0.15118607 -0.079940626 0)
(-0.12869568 -0.097345746 0)
(-0.099666253 -0.10369337 0)
(-0.067239312 -0.096281741 0)
(-0.036117762 -0.075217155 0)
(-0.011929273 -0.044538265 0)
(-0.0011707669 -0.012001199 0)
(-0.0022011441 0.026011443 0)
(-0.012483959 0.063415044 0)
(-0.031138097 0.087758407 0)
(-0.05335157 0.10148357 0)
(-0.077013586 0.10677051 0)
(-0.10090692 0.10506777 0)
(-0.12404413 0.09708328 0)
(-0.14554521 0.083017912 0)
(-0.16450274 0.062900422 0)
(-0.17986893 0.036930868 0)
(-0.1903923 0.0057973914 0)
(-0.194649 -0.029029882 0)
(-0.19113003 -0.065013153 0)
(-0.17848408 -0.098385112 0)
(-0.15602 -0.12417097 0)
(-0.12444097 -0.13675639 0)
(-0.086643826 -0.13132346 0)
(-0.04806215 -0.10622867 0)
(-0.016428782 -0.065390915 0)
(-0.001753716 -0.018877862 0)
(-0.0022555986 0.032930929 0)
(-0.012853114 0.079083094 0)
(-0.032097467 0.10852788 0)
(-0.054979426 0.12485646 0)
(-0.079331531 0.13108524 0)
(-0.10399008 0.12919244 0)
(-0.12809559 0.12014579 0)
(-0.15093993 0.10419759 0)
(-0.17179195 0.081276375 0)
(-0.18973929 0.051375617 0)
(-0.20357088 0.014917412 0)
(-0.21172386 -0.026872306 0)
(-0.21232017 -0.071526991 0)
(-0.20333345 -0.11501952 0)
(-0.18305852 -0.1514398 0)
(-0.15101424 -0.17327765 0)
(-0.10916278 -0.17281508 0)
(-0.063024629 -0.1452385 0)
(-0.022524278 -0.092974873 0)
(-0.0026588549 -0.028421295 0)
(-0.0022085756 0.039901899 0)
(-0.012716729 0.094938194 0)
(-0.031840393 0.12953222 0)
(-0.054495279 0.14844988 0)
(-0.078497937 0.15562708 0)
(-0.10276836 0.15365899 0)
(-0.12661845 0.14384007 0)
(-0.14957344 0.12650926 0)
(-0.17116774 0.10149046 0)
(-0.19075265 0.068517195 0)
(-0.20732409 0.027629652 0)
(-0.21937478 -0.020390343 0)
(-0.22488487 -0.073456443 0)
(-0.22130365 -0.12768204 0)
(-0.20585186 -0.17661294 0)
(-0.17647346 -0.210984 0)
(-0.13334416 -0.21960546 0)
(-0.080897484 -0.19274754 0)
(-0.030641137 -0.12884849 0)
(-0.0040699326 -0.041635748 0)
(-0.0020933571 0.046660552 0)
(-0.01218969 0.11041221 0)
(-0.030536019 0.14995743 0)
(-0.052017176 0.17123391 0)
(-0.074464378 0.17918373 0)
(-0.096919158 0.17711339 0)
(-0.11891329 0.16672371 0)
(-0.14026584 0.14849867 0)
(-0.16086159 0.12219052 0)
(-0.18044295 0.087272849 0)
(-0.19840283 0.043354805 0)
(-0.21353675 -0.0093856899 0)
(-0.22401441 -0.069671268 0)
(-0.22708241 -0.13412689 0)
(-0.21908872 -0.19644585 0)
(-0.19626521 -0.24624419 0)
(-0.15621778 -0.26885232 0)
(-0.10070492 -0.24798103 0)
(-0.041145284 -0.17433013 0)
(-0.0062704527 -0.059832221 0)
(-0.0019964076 0.053054807 0)
(-0.011565816 0.12507724 0)
(-0.028661558 0.16903683 0)
(-0.048057463 0.19210005 0)
(-0.06763951 0.20034791 0)
(-0.086645212 0.19790523 0)
(-0.10489753 0.18696136 0)
(-0.1225714 0.16821476 0)
(-0.13996633 0.14140744 0)
(-0.15730023 0.10579949 0)
(-0.17451843 0.060574118 0)
(-0.1910866 0.0052296351 0)
(-0.20560433 -0.05991734 0)
(-0.21550811 -0.13260186 0)
(-0.21690289 -0.20752109 0)
(-0.20457871 -0.27431076 0)
(-0.17317475 -0.31571017 0)
(-0.12017035 -0.30807265 0)
(-0.05414692 -0.22987838 0)
(-0.009674727 -0.084651053 0)
(-0.002099748 0.05918189 0)
(-0.011415518 0.13881008 0)
(-0.027116769 0.18616555 0)
(-0.043626955 0.2099385 0)
(-0.058983989 0.21759325 0)
(-0.072781195 0.21419062 0)
(-0.085253905 0.2024682 0)
(-0.09700563 0.18339076 0)
(-0.10879352 0.15675492 0)
(-0.12135557 0.12168699 0)
(-0.13525942 0.077017822 0)
(-0.15070822 0.021621921 0)
(-0.16712727 -0.045106083 0)
(-0.18274469 -0.12251074 0)
(-0.19405736 -0.20712034 0)
(-0.19523771 -0.29010846 0)
(-0.17829567 -0.35357844 0)
(-0.13540579 -0.36743148 0)
(-0.069088781 -0.29414752 0)
(-0.014794875 -0.11798209 0)
(-0.0027678984 0.065618032 0)
(-0.012741946 0.15199362 0)
(-0.027332065 0.20099038 0)
(-0.04024774 0.22367597 0)
(-0.049932822 0.22932341 0)
(-0.056648535 0.22403112 0)
(-0.061238431 0.21107581 0)
(-0.064822437 0.1916789 0)
(-0.068627552 0.16571954 0)
(-0.073882099 0.13227446 0)
(-0.081735362 0.089962695 0)
(-0.093127147 0.037203674 0)
(-0.10847599 -0.027474854 0)
(-0.12721998 -0.10497181 0)
(-0.14705956 -0.194216 0)
(-0.16280765 -0.28948149 0)
(-0.16509353 -0.37509413 0)
(-0.14090282 -0.41772147 0)
(-0.084061789 -0.36280907 0)
(-0.022011555 -0.16157162 0)
(-0.0047198211 0.073833443 0)
(-0.017223578 0.16572262 0)
(-0.031286908 0.21337277 0)
(-0.039687201 0.23216781 0)
(-0.041888765 0.23379618 0)
(-0.039357468 0.22538921 0)
(-0.033819785 0.21060848 0)
(-0.0270082 0.19080846 0)
(-0.020600182 0.16589739 0)
(-0.016223683 0.13494025 0)
(-0.015484495 0.096473211 0)
(-0.019933388 0.04869325 0)
(-0.030925992 -0.01040898 0)
(-0.049241034 -0.082916624 0)
(-0.074405073 -0.17013938 0)
(-0.10328159 -0.27049891 0)
(-0.12725821 -0.37369161 0)
(-0.1297371 -0.4486838 0)
(-0.094915521 -0.42750303 0)
(-0.030930709 -0.21612579 0)
(-0.0093002329 0.086951519 0)
(-0.02743329 0.18185097 0)
(-0.040984354 0.2230296 0)
(-0.04268374 0.23378481 0)
(-0.034411106 0.22879745 0)
(-0.019629493 0.21591873 0)
(-0.0012461542 0.19877684 0)
(0.018337277 0.17856289 0)
(0.037063037 0.15508312 0)
(0.053047331 0.12736023 0)
(0.064413545 0.093938222 0)
(0.069223403 0.053017271 0)
(0.065408129 0.0024656798 0)
(0.051041097 -0.060336243 0)
(0.024637344 -0.13837377 0)
(-0.013706752 -0.23416889 0)
(-0.058757594 -0.34516797 0)
(-0.093513411 -0.44953754 0)
(-0.094470964 -0.47558563 0)
(-0.039216293 -0.28048106 0)
(-0.018580474 0.11087147 0)
(-0.046040617 0.20177541 0)
(-0.055232375 0.22792929 0)
(-0.043988631 0.22501448 0)
(-0.019377645 0.21060953 0)
(0.01232705 0.19227692 0)
(0.046985883 0.17278253 0)
(0.081746423 0.15265249 0)
(0.11442995 0.13135238 0)
(0.1431454 0.10779609 0)
(0.16600936 0.080593008 0)
(0.18097425 0.04811416 0)
(0.18556984 0.0084515826 0)
(0.1771602 -0.040815215 0)
(0.1527547 -0.10317418 0)
(0.10948479 -0.18390459 0)
(0.047237262 -0.28855339 0)
(-0.021441572 -0.4105092 0)
(-0.072254024 -0.49101565 0)
(-0.041147726 -0.35054186 0)
(-0.033352251 0.1556158 0)
(-0.068602063 0.22040423 0)
(-0.055188672 0.21729119 0)
(-0.01608114 0.19532265 0)
(0.034507444 0.17092141 0)
(0.088502943 0.14849263 0)
(0.1417628 0.12861096 0)
(0.19196262 0.1105765 0)
(0.23753398 0.093297179 0)
(0.2771135 0.075575331 0)
(0.30921183 0.056182308 0)
(0.33203755 0.033824578 0)
(0.34317063 0.0070287735 0)
(0.33982459 -0.025908983 0)
(0.31812901 -0.067740476 0)
(0.27327445 -0.12410701 0)
(0.20044505 -0.20584654 0)
(0.10213819 -0.32506869 0)
(-0.012388103 -0.4545712 0)
(-0.023756869 -0.40864027 0)
(-0.033081003 0.23907353 0)
(-0.04264696 0.21792035 0)
(0.042207104 0.16426608 0)
(0.12760379 0.12783516 0)
(0.20769627 0.10143461 0)
(0.28027891 0.081657231 0)
(0.34486952 0.066647331 0)
(0.40157876 0.0547025 0)
(0.45054598 0.044399254 0)
(0.49161567 0.034640044 0)
(0.52415735 0.024550998 0)
(0.54698205 0.013382317 0)
(0.55821897 0.00040044018 0)
(0.55570672 -0.015136631 0)
(0.53552424 -0.034968583 0)
(0.4924452 -0.062487781 0)
(0.41797176 -0.10694743 0)
(0.30410528 -0.19317537 0)
(0.12313744 -0.33691901 0)
(0.05237408 -0.39437909 0)
(0.24299939 0.15257492 0)
(0.30529653 0.11854305 0)
(0.45481255 0.076108212 0)
(0.56000904 0.050840142 0)
(0.63223299 0.035125942 0)
(0.68654839 0.024812124 0)
(0.72943699 0.017959929 0)
(0.76379465 0.01325581 0)
(0.79127739 0.0097621648 0)
(0.81274954 0.0068544075 0)
(0.8284096 0.0041186353 0)
(0.83794249 0.0012770158 0)
(0.84056966 -0.001844062 0)
(0.83497492 -0.0053261158 0)
(0.81886668 -0.0098288378 0)
(0.78942863 -0.016232671 0)
(0.73784296 -0.026935683 0)
(0.65316772 -0.051286566 0)
(0.4560977 -0.11374606 0)
(0.31788988 -0.17206005 0)
)
;

boundaryField
{
    movingWall
    {
        type            fixedValue;
        value           uniform (1 0 0);
    }
    fixedWalls
    {
        type            fixedValue;
        value           uniform (0 0 0);
    }
    frontAndBack
    {
        type            empty;
    }
}


// ************************************************************************* //
