/*--------------------------------*- C++ -*----------------------------------*\
  =========                 |
  \\      /  F ield         | OpenFOAM: The Open Source CFD Toolbox
   \\    /   O peration     | Website:  https://openfoam.org
    \\  /    A nd           | Version:  9
     \\/     M anipulation  |
\*---------------------------------------------------------------------------*/
FoamFile
{
    format      ascii;
    class       surfaceScalarField;
    location    "0.51";
    object      alphaPhi0.phase1;
}
// * * * * * * * * * * * * * * * * * * * * * * * * * * * * * * * * * * * * * //

dimensions      [0 3 -1 0 0 0 0];

internalField   nonuniform List<scalar> 
19800
(
1.1905989e-94
-7.2946371e-92
1.8111435e-92
-9.2799972e-92
9.9904358e-91
-5.547802e-90
3.7911487e-90
-2.20948e-88
3.7815027e-90
-4.7576903e-88
2.8258085e-90
-2.9528193e-88
2.4037166e-90
-2.1145366e-88
1.679601e-90
-2.1110713e-88
1.0051504e-88
-8.6806825e-90
2.3591579e-86
-1.5443769e-87
1.0906573e-83
-6.4451952e-85
3.2748996e-81
-1.8679056e-82
1.7750355e-79
-9.7627003e-81
2.1705267e-78
-1.2159612e-79
1.1097125e-77
-6.2523257e-79
3.8465584e-77
-2.088351e-78
1.049142e-76
-5.7210184e-78
2.5418237e-76
-1.7051455e-77
5.7240204e-75
-4.2339502e-75
6.9970236e-73
-7.1944507e-73
8.5563298e-71
-9.0172564e-71
1.0011739e-68
-1.0513631e-68
1.1147317e-66
-1.1510453e-66
1.199523e-64
-1.204982e-64
1.2847394e-62
-1.2433242e-62
1.4836386e-60
-1.3810197e-60
1.9981343e-58
-1.7992308e-58
2.7513545e-56
-2.3564632e-56
2.5015896e-54
-1.7942385e-54
2.8582384e-52
-2.0885606e-52
1.4557489e-49
-1.3706841e-49
2.8807662e-47
-2.5608373e-47
1.5668731e-46
-5.6475909e-48
2.1794185e-46
-6.0229009e-48
6.4674883e-46
-1.5173175e-47
2.9539291e-46
-9.0632442e-48
2.3154293e-47
-1.9426399e-49
3.2603591e-48
9.2984448e-50
3.0875697e-48
9.3778336e-50
2.949087e-48
1.4630842e-49
2.3621871e-47
9.6145006e-49
3.4246528e-46
1.7510694e-47
3.9991005e-45
2.6547685e-46
3.8594349e-44
3.2474106e-45
2.944425e-43
3.0877146e-44
1.7481252e-42
2.252015e-43
8.2518785e-42
1.2889136e-42
3.1132503e-41
5.8613189e-42
9.0873212e-41
2.0465911e-41
1.6870403e-40
5.6699619e-41
1.5168561e-40
6.3526204e-41
6.5189154e-41
4.0190742e-41
1.2766721e-41
1.2899407e-41
1.914882e-42
2.5560569e-42
2.6112662e-43
3.8705276e-43
2.7610633e-44
4.3528211e-44
1.8576565e-45
3.0797096e-45
7.4553426e-46
1.019006e-46
1.0194002e-46
2.867842e-48
3.5578219e-44
-3.6139776e-44
1.5527478e-41
-1.7470183e-41
3.117052e-40
-7.9430677e-40
6.15221e-40
-1.6163629e-40
7.6862279e-41
-5.722622e-41
7.0149672e-42
-8.1354831e-42
4.4425562e-43
-7.1638916e-43
1.6643965e-44
-4.0998332e-44
1.0709391e-46
-5.8404676e-46
2.2865181e-49
-8.0155966e-49
1.1365897e-51
2.3176476e-51
6.4297807e-54
3.4697431e-53
4.9872671e-56
3.3171414e-55
1.4648601e-57
3.9957478e-57
7.4793193e-59
2.2028954e-58
3.5736212e-61
4.1388339e-60
1.3041438e-63
3.2649656e-62
6.827441e-66
2.3468984e-64
3.3394656e-68
1.5803458e-66
1.4295564e-70
9.8212487e-69
5.1828544e-73
5.6444201e-71
1.4437946e-75
3.0039431e-73
5.9550165e-78
1.5498296e-75
-7.9558328e-78
5.4495068e-77
-6.454495e-78
2.0303551e-77
-3.2793882e-78
6.7973785e-78
-1.254984e-78
2.1001538e-78
-3.4116209e-79
5.4432865e-79
-4.2411068e-80
1.0292806e-79
-1.2288547e-81
8.9972967e-81
-5.6303286e-84
1.9027055e-82
-9.0425294e-87
6.417685e-85
-2.1035152e-89
7.2024363e-88
-5.1455357e-92
9.9638136e-91
-1.18392e-94
7.7993892e-94
-3.4729071e-97
-1.9236584e-96
-1.441727e-98
-2.2459442e-98
-2.0948783e-99
-8.9572383e-97
-1.5040361e-100
-9.9160518e-98
-1.0324917e-101
-1.0611364e-98
-1.046751e-98
4.7293249e-92
-1.954861e-91
2.0331888e-89
-2.4834684e-89
1.1079399e-87
-1.3061142e-87
2.4056759e-87
-2.8576469e-87
1.842582e-87
-2.2046977e-87
1.2742942e-87
-1.3425523e-87
9.0293575e-88
-8.9167765e-88
6.1672971e-88
-4.6418308e-88
7.0418258e-87
-6.3774844e-87
1.155632e-84
-1.0131068e-84
1.5465336e-82
-3.9419057e-83
8.5150792e-81
-1.5757422e-81
2.5356564e-79
-3.3856916e-80
3.1864528e-78
-4.2144106e-79
1.7565685e-77
-2.5972548e-78
5.9542836e-77
-8.6734054e-78
5.3305693e-76
-8.2850865e-77
5.497649e-74
-3.3729018e-74
6.9812146e-72
-6.0853694e-72
8.7504302e-70
-8.3777136e-70
1.0553824e-67
-1.0364991e-67
1.2147361e-65
-1.2010765e-65
1.3285312e-63
-1.3140077e-63
1.4033734e-61
-1.3850392e-61
1.4791569e-59
-1.4549835e-59
1.6891344e-57
-1.6542463e-57
2.2685308e-55
-2.2117303e-55
3.1365407e-53
-3.0443479e-53
2.8627393e-51
-2.754477e-51
3.4035103e-49
-3.2756598e-49
1.8775615e-46
-1.8410068e-46
2.3263256e-44
-2.2272484e-44
2.0829951e-44
-2.8703009e-45
2.4843904e-44
-2.4958923e-45
4.3756417e-44
-1.5552552e-44
3.5699546e-43
-1.563619e-44
6.0948485e-44
-3.1495767e-46
6.0941047e-46
3.3312043e-46
1.0964203e-46
9.4023795e-48
3.0990337e-46
2.9374914e-47
5.3784696e-45
5.7557431e-46
6.4841325e-44
9.3319316e-45
6.7033794e-43
1.2486668e-43
5.7271898e-42
1.35278e-42
3.6881852e-41
1.0986112e-41
1.6172155e-40
6.1121343e-41
4.6753429e-40
2.244544e-40
9.7122724e-40
5.7365926e-40
1.7272567e-39
1.2001772e-39
2.3928555e-39
2.2642436e-39
2.0995533e-39
2.4151783e-39
1.1872762e-39
1.7847864e-39
4.3620212e-40
8.757581e-40
1.3934945e-40
3.2969824e-40
3.4198862e-41
9.3479763e-41
4.9446047e-42
1.6237843e-41
3.6984889e-43
1.390186e-42
1.7846724e-44
4.5840936e-44
9.3773865e-45
-7.2224581e-46
1.7681161e-40
-1.7742674e-40
3.5128123e-38
-3.5456305e-38
3.6344937e-37
-3.2981331e-37
4.189029e-37
-2.6107713e-37
7.1305772e-38
-9.1747223e-38
5.4432465e-39
-1.1545901e-38
4.8342012e-40
-1.0258716e-39
2.4801338e-41
-6.1473722e-41
2.0072648e-43
-9.6529705e-43
3.2630834e-46
-7.4996754e-46
1.7259125e-48
1.3137774e-47
1.0065506e-50
1.6992597e-49
7.3356592e-53
1.6067722e-51
1.5693368e-54
1.6784994e-53
7.9037378e-56
6.8804756e-55
9.5141948e-58
2.1745373e-56
2.1849895e-60
1.7179824e-58
8.5821643e-63
9.9359312e-61
3.9494128e-65
5.8807923e-63
1.6165652e-67
3.3749323e-65
5.5230948e-70
1.8225966e-67
1.3706818e-72
9.1805662e-70
6.4793348e-76
4.2852087e-72
-4.9599449e-77
1.8960222e-74
-1.1757413e-77
1.8400036e-76
-4.5508367e-78
1.6820411e-77
-1.5588778e-78
3.8405702e-78
-3.8346837e-79
8.3289292e-79
-4.4624079e-80
1.2931699e-79
-1.3453075e-81
1.007052e-80
-8.2543506e-84
2.1294616e-82
-2.2472709e-86
1.1014157e-84
-5.2345e-89
2.1495395e-87
-1.1752032e-91
1.5523363e-90
-7.242878e-94
-7.0428211e-93
-4.0081067e-95
-1.4397249e-94
-3.5096085e-95
-2.3333266e-95
-8.1391516e-96
-2.9509178e-95
-5.0540023e-97
-8.2178934e-96
-8.9713722e-99
-5.0543413e-97
-3.0299942e-98
3.2914211e-89
-1.2648283e-88
1.4261733e-86
-1.9221932e-86
7.7569238e-85
-1.0060634e-84
1.6734265e-84
-2.6467016e-84
1.2786854e-84
-2.0252928e-84
8.4055249e-85
-1.2293406e-84
5.8423027e-85
-7.7611571e-85
4.561128e-85
-3.9601209e-85
5.3063826e-84
-2.274384e-84
9.3814195e-82
-3.3801763e-82
1.1821674e-79
-3.9025583e-80
4.224648e-78
-1.3195614e-78
6.4851236e-77
-4.8313857e-77
8.3663098e-76
-7.6287944e-76
5.7959456e-75
-1.912858e-75
2.1790408e-74
-6.4650974e-75
3.5088668e-73
-7.7511154e-74
4.3568588e-71
-2.3094108e-71
5.5586178e-69
-4.7633755e-69
6.93405e-67
-6.603249e-67
8.2942384e-65
-8.1494543e-65
9.4462938e-63
-9.3443614e-63
1.0227327e-60
-1.0111688e-60
1.0692722e-58
-1.0533801e-58
1.1170189e-56
-1.0949808e-56
1.268974e-54
-1.2359164e-54
1.7050357e-52
-1.6495247e-52
2.3809287e-50
-2.2898932e-50
2.2198278e-48
-2.114246e-48
2.7399023e-46
-2.6097715e-46
1.6046797e-43
-1.5648984e-43
2.1718902e-41
-2.0585447e-41
1.9317097e-41
-3.522492e-42
3.6086112e-41
-1.3558616e-41
8.3354695e-41
-4.0835188e-41
4.2025362e-40
-2.5988437e-41
8.080819e-41
-1.5010302e-42
9.417298e-43
5.4513545e-43
5.7028146e-44
1.7614228e-44
5.4257611e-44
9.4717549e-45
1.0005574e-42
1.3663712e-43
1.1507698e-41
2.1033189e-42
1.1294175e-40
2.6809921e-41
9.2415841e-40
2.7862821e-40
5.8039247e-39
2.2110416e-39
2.5347632e-38
1.2291813e-38
7.3750283e-38
4.5792444e-38
1.5268018e-37
1.1882588e-37
2.6619757e-37
2.4842762e-37
3.7021367e-37
4.8108859e-37
3.1820331e-37
5.1692529e-37
1.7365618e-37
3.7713629e-37
6.1701052e-38
1.821288e-37
1.9044031e-38
6.7677507e-38
4.4707011e-39
1.8779416e-38
6.3077121e-40
3.1662426e-39
4.9097353e-41
2.6006876e-40
1.0728234e-41
7.3549091e-42
1.4194507e-40
-2.412449e-41
3.5048096e-37
-3.6234764e-37
4.2108874e-35
-4.3206445e-35
3.2144716e-34
-3.0689584e-34
3.7685647e-34
-3.4237323e-34
5.5534522e-35
-1.0649117e-34
3.9306983e-36
-1.2244022e-35
3.4957527e-37
-1.0202092e-36
1.887497e-38
-5.9060409e-38
1.9206585e-40
-1.0070103e-39
3.025734e-43
-5.6316675e-43
1.6795536e-45
1.7976793e-44
1.0275867e-47
2.2910249e-46
7.7208215e-50
2.2053948e-48
1.5006045e-51
2.3998474e-50
5.8335849e-53
8.2664224e-52
5.8408573e-55
2.0614116e-53
1.879866e-57
1.7853527e-55
7.837915e-60
1.1273126e-57
3.5429753e-62
6.8604803e-60
1.4101314e-64
3.948722e-62
4.5792381e-67
2.1088621e-64
1.0018975e-69
1.0422157e-66
-4.6718782e-73
4.7492239e-69
-3.9436479e-74
2.0324621e-71
-4.2123705e-75
1.5495821e-73
-1.0574422e-75
9.0431379e-75
-2.3355124e-76
1.5108859e-75
-3.200053e-77
2.2510156e-76
-2.8511133e-78
2.1268576e-77
-1.8821499e-79
1.3291254e-78
-5.5724861e-81
5.9663195e-80
-4.5373106e-83
1.0799273e-81
-1.4421277e-85
4.0114278e-84
-5.3560694e-88
-2.4082319e-87
-3.119778e-90
-1.057443e-88
-1.6958953e-91
-1.4478772e-90
-1.1361294e-91
-1.1662757e-91
-1.8644371e-92
-1.05932e-91
-1.0309437e-93
-1.5687423e-92
-1.6627308e-95
-1.2196578e-93
-5.3522498e-95
1.6671729e-86
-7.8824684e-86
7.2889218e-84
-1.1875701e-83
3.9938365e-82
-5.9175885e-82
8.6727674e-82
-1.6925718e-81
6.694913e-82
-1.3030656e-81
4.4467156e-82
-7.9830417e-82
3.1242917e-82
-5.0954331e-82
2.446378e-82
-2.6262439e-82
2.8846033e-81
-1.5276336e-81
4.8717305e-79
-2.1644635e-79
6.2482243e-77
-2.5624709e-77
2.3566382e-75
-9.0951747e-76
3.7338315e-74
-1.3618455e-74
5.0845898e-73
-1.7905196e-73
3.640419e-72
-1.352648e-72
1.2315901e-71
-4.3359225e-72
1.9766651e-70
-5.432033e-71
2.5149979e-68
-7.5798428e-69
3.2144073e-66
-2.4822409e-66
3.9932378e-64
-3.7331943e-64
4.7483891e-62
-4.6354637e-62
5.368428e-60
-5.302838e-60
5.7564047e-58
-5.6864746e-58
5.9663373e-56
-5.866754e-56
6.1920866e-54
-6.0518934e-54
7.0086983e-52
-6.7942271e-52
9.4246468e-50
-9.0583329e-50
1.3292755e-47
-1.2687473e-47
1.2645646e-45
-1.1942241e-45
1.6184359e-43
-1.5287522e-43
1.0048046e-40
-9.7642421e-41
1.4805059e-38
-1.3953374e-38
1.3101642e-38
-3.0480074e-39
3.6891649e-38
-2.0364275e-38
1.0831041e-37
-6.2645069e-38
3.6618468e-37
-3.1435438e-38
8.2223815e-38
-3.4649579e-39
1.1391888e-39
5.8833683e-40
1.6098101e-41
2.3667346e-41
1.2522303e-41
2.5492156e-42
1.422276e-40
2.3655368e-41
1.5564172e-39
3.4141088e-40
1.4478067e-38
4.1508466e-39
1.1316765e-37
4.1464455e-38
6.8955718e-37
3.2096841e-37
2.9720677e-36
1.7713587e-36
8.6202045e-36
6.633993e-36
1.7693194e-35
1.7321704e-35
3.0189917e-35
3.5971566e-35
4.1684906e-35
7.0544031e-35
3.4784728e-35
7.6135995e-35
1.8053488e-35
5.5096012e-35
6.0981731e-36
2.6431238e-35
1.7831841e-36
9.8173041e-36
3.9168559e-37
2.6968895e-36
5.3304754e-38
4.4381191e-37
4.3451508e-39
3.505749e-38
1.0770431e-39
6.9299543e-40
5.0074529e-37
-5.0869768e-37
3.7672757e-34
-3.9754692e-34
3.1328211e-32
-3.2274681e-32
2.0563624e-31
-2.9005867e-31
2.0976179e-31
-2.8760687e-31
3.0406095e-32
-8.1084583e-32
2.1003388e-33
-8.7916525e-33
1.8957833e-34
-7.111104e-34
1.0775132e-35
-4.0577423e-35
1.3389577e-37
-7.528426e-37
2.2272289e-40
-3.3795676e-40
1.3039593e-42
1.6977332e-41
8.6533744e-45
2.2532034e-43
7.272967e-47
2.3594079e-45
1.2517397e-48
2.7565693e-47
3.8500366e-50
8.0911671e-49
3.6370324e-52
1.7625935e-50
1.2722363e-54
1.5011128e-52
5.5125952e-57
9.7670978e-55
2.433432e-59
5.9889727e-57
9.2382403e-62
3.4118475e-59
2.7654709e-64
1.7892579e-61
4.7017628e-67
8.6401855e-64
-1.279227e-69
3.8295982e-66
-2.8508194e-71
1.6020145e-68
-2.4360948e-72
9.9843564e-71
-6.3619871e-73
5.2021266e-72
-1.5272426e-73
9.4077626e-73
-2.6038326e-74
1.5453802e-73
-2.7608709e-75
1.8078846e-74
-1.664077e-76
1.3008982e-75
-4.243864e-78
5.0497059e-77
-3.6898847e-80
7.1301743e-79
-1.8510113e-82
1.8840539e-81
-1.1469618e-84
-1.4601379e-83
-8.8307137e-87
-2.9368948e-85
-4.3219622e-88
-3.4316338e-87
-2.2784742e-88
-3.1962046e-88
-2.9130125e-89
-2.3281692e-88
-1.4468223e-90
-3.0960853e-89
-2.1566785e-92
-1.9815731e-90
-8.3607229e-92
6.6448911e-84
-3.7113927e-83
2.9282082e-81
-5.6480269e-81
1.6166539e-79
-2.8332058e-79
3.5304154e-79
-8.1712428e-79
2.7538587e-79
-6.3293965e-79
1.8478767e-79
-3.9136666e-79
1.3130383e-79
-2.525083e-79
1.0297129e-79
-1.3132542e-79
1.2228571e-78
-7.7211209e-79
1.9299096e-76
-1.0293816e-76
2.5543801e-74
-1.2536635e-74
1.0186892e-72
-4.6706231e-73
1.6560109e-71
-7.1965205e-72
2.1779537e-70
-9.2532063e-71
1.4516195e-69
-6.4657128e-70
4.7503396e-69
-1.967463e-69
8.8116066e-68
-2.8764498e-68
1.1428443e-65
-3.4516798e-66
1.4623487e-63
-7.1694526e-64
1.8104253e-61
-1.5667122e-61
2.1412105e-59
-2.0527128e-59
2.4027214e-57
-2.3598752e-57
2.5536097e-55
-2.5157766e-55
2.6246183e-53
-2.5752589e-53
2.7034472e-51
-2.6352792e-51
3.0457449e-49
-2.9413127e-49
4.0953383e-47
-3.9155962e-47
5.8191162e-45
-5.5211066e-45
5.6354795e-43
-5.2878223e-43
7.4485378e-41
-6.993104e-41
4.8705305e-38
-4.7124969e-38
7.7731383e-36
-7.3110819e-36
6.8600268e-36
-1.9870993e-36
2.7786696e-35
-1.8324121e-35
1.0014713e-34
-6.3959281e-35
2.5172298e-34
-2.9781314e-35
6.8258377e-35
-5.2906247e-36
1.1446479e-36
4.3480261e-37
7.7378657e-39
2.3908916e-38
3.9780881e-39
8.9601259e-40
1.5151849e-38
3.253738e-39
1.6416273e-37
4.1511945e-38
1.4431208e-36
4.8032283e-37
1.07352e-35
4.6035831e-36
6.3249838e-35
3.4731567e-35
2.6821859e-34
1.9020129e-34
7.7230509e-34
7.1584616e-34
1.5660173e-33
1.8817986e-33
2.6013948e-33
3.8895969e-33
3.5152114e-33
7.6828631e-33
2.8069528e-33
8.3229406e-33
1.3517536e-33
5.987553e-33
4.1499116e-34
2.8612135e-33
1.0538207e-34
1.0652222e-33
1.865529e-35
2.8969132e-34
2.0234146e-36
4.6651309e-35
1.6685962e-37
3.4733224e-36
9.2335045e-38
2.8842779e-38
5.88862e-34
-6.1899563e-34
2.2980791e-31
-2.9153212e-31
1.5066972e-29
-1.9045598e-29
9.1187327e-29
-1.855181e-28
8.3222115e-29
-1.6647874e-28
1.1470797e-29
-4.3335607e-29
8.549692e-31
-4.5542263e-30
8.0347787e-32
-3.6709486e-31
4.8283734e-33
-2.1044376e-32
7.1633571e-35
-4.2325117e-34
1.3499763e-37
-1.7418696e-37
8.3330539e-40
1.2332811e-38
6.0280442e-42
1.7375848e-40
5.4114114e-44
1.977675e-42
8.229369e-46
2.3504969e-44
2.2176391e-47
6.1758163e-46
1.9583819e-49
1.2168836e-47
7.3292251e-52
1.0344306e-49
3.1991158e-54
6.8506552e-52
1.3594031e-56
4.1917145e-54
4.8317038e-59
2.3510067e-56
1.2709966e-61
1.2043796e-58
1.1164836e-64
5.6511412e-61
-1.352e-66
2.4203781e-63
-1.6207741e-68
9.8856334e-66
-1.0410227e-69
4.9786235e-68
-2.9634555e-70
2.1388411e-69
-7.6432876e-71
4.3718414e-70
-1.4550129e-71
7.7371717e-71
-1.6726118e-72
1.0050151e-71
-9.7894303e-74
7.6434513e-73
-2.3426966e-75
2.7500906e-74
-2.1391838e-77
3.2579797e-76
-1.403951e-79
2.8349005e-79
-9.6388634e-82
-1.9132825e-80
-7.8850481e-84
-2.4368883e-82
-6.7104063e-85
-2.9625061e-84
-3.1745403e-85
-5.5365855e-85
-3.3995313e-86
-3.5653699e-85
-1.5317932e-87
-4.345278e-86
-2.1285571e-89
-2.3599025e-87
-9.4170853e-89
2.1833073e-81
-1.3991693e-80
9.704587e-79
-2.1515535e-78
5.3908523e-77
-1.0856996e-76
1.1837754e-76
-3.1584064e-76
9.3263078e-77
-2.4610198e-76
6.3252987e-77
-1.5363456e-76
4.5409282e-77
-1.001357e-76
3.5723331e-77
-5.2616512e-77
4.2426171e-76
-3.0896484e-76
6.1641229e-74
-3.799451e-74
8.401792e-72
-4.6965746e-72
3.570328e-70
-1.8760488e-70
5.9941837e-69
-3.0322663e-69
7.5701763e-68
-3.8097702e-68
4.5716165e-67
-2.4099923e-67
1.4363044e-66
-6.8666769e-67
3.229389e-65
-1.2183064e-65
4.2687361e-63
-1.4977624e-63
5.501535e-61
-1.8444309e-61
6.7843866e-59
-3.8085161e-59
7.9702031e-57
-7.0724359e-57
8.872729e-55
-8.550112e-55
9.350635e-53
-9.1525008e-53
9.5172834e-51
-9.3117856e-51
9.715723e-49
-9.4435103e-49
1.0868395e-46
-1.0464544e-46
1.4568405e-44
-1.3873519e-44
2.0770628e-42
-1.9620636e-42
2.0374526e-40
-1.9029254e-40
2.7645864e-38
-2.5849275e-38
1.8916686e-35
-1.8405148e-35
3.2395286e-33
-3.0511405e-33
2.8416103e-33
-1.0074684e-33
1.5875895e-32
-1.1555879e-32
6.842831e-32
-4.6630177e-32
1.3987264e-31
-2.2464333e-32
4.6000134e-32
-5.6421013e-33
9.3583285e-34
1.8180729e-34
5.6051471e-36
1.8332614e-35
8.3681322e-37
5.7139739e-37
1.4291289e-36
4.0908233e-37
1.3940028e-35
3.9664657e-36
1.155914e-34
4.3294047e-35
8.1322036e-34
3.9659894e-34
4.6089343e-33
2.9069794e-33
1.9152222e-32
1.5770852e-32
5.4497244e-32
5.9545042e-32
1.086283e-31
1.5739621e-31
1.7446905e-31
3.2416586e-31
2.2687184e-31
6.42503e-31
1.689545e-31
6.9852269e-31
7.1536488e-32
4.9938899e-31
1.7380216e-32
2.3853867e-31
2.3248153e-33
8.9451538e-32
-2.1636723e-34
2.4153294e-32
-7.8428142e-35
3.7995769e-33
-3.609414e-35
2.6652475e-34
-6.4362646e-34
-1.7057631e-34
1.4711047e-31
-1.0444377e-30
7.6154975e-29
-2.2229878e-28
4.7951295e-27
-1.0218746e-26
2.8638028e-26
-8.3287952e-26
2.4599775e-26
-6.8717148e-26
3.3461778e-27
-1.6797292e-26
2.733806e-28
-1.7523884e-27
2.720242e-29
-1.436474e-28
1.750407e-30
-8.433029e-30
3.0814953e-32
-1.8289611e-31
7.2927438e-35
-5.2193085e-35
4.6501835e-37
7.4541541e-36
3.6577097e-39
1.1362393e-37
3.4687379e-41
1.3874962e-39
5.116139e-43
1.7846032e-41
1.1129488e-44
4.1440686e-43
9.1755792e-47
7.2840951e-45
3.5123822e-49
5.9585289e-47
1.5444366e-51
3.9707748e-49
6.2509647e-54
2.4136284e-51
2.0213638e-56
1.3231818e-53
4.2725603e-59
6.5736299e-56
-2.8323619e-62
2.9727741e-58
-9.4054595e-64
1.2297683e-60
-7.6558929e-66
4.8310018e-63
-3.6384401e-67
2.0283154e-65
-1.1176767e-67
7.0258438e-67
-2.9983775e-68
1.5983068e-67
-6.1285971e-69
2.9576351e-68
-7.5948994e-70
4.1005041e-69
-4.3700496e-71
3.2828013e-70
-9.7558209e-73
1.1065093e-71
-9.3871262e-75
1.0458808e-73
-6.8482647e-77
-2.532615e-76
-4.203902e-79
-1.1483031e-77
-4.6042437e-81
-1.1376646e-79
-7.607189e-82
-2.575496e-81
-3.3931726e-82
-7.0761152e-82
-3.0898035e-83
-4.0908759e-82
-1.2774483e-84
-4.2475911e-83
-1.6506746e-86
-2.1747624e-84
-8.0954309e-86
6.1000986e-79
-4.3871072e-78
2.7329733e-76
-6.8175051e-76
1.5277041e-74
-3.4613435e-74
3.3743674e-74
-1.0159865e-73
2.6864146e-74
-7.9643187e-74
1.8402183e-74
-5.0175986e-74
1.3368052e-74
-3.3065809e-74
1.0546194e-74
-1.7804451e-74
1.2320689e-73
-1.0058221e-73
1.6050221e-71
-1.1121854e-71
2.2596305e-69
-1.4301694e-69
1.0453968e-67
-6.2159782e-68
1.8255022e-66
-1.0433733e-66
2.1771189e-65
-1.2292985e-65
1.183116e-64
-7.0766491e-65
3.5815575e-64
-1.9435128e-64
1.0017703e-62
-4.2872722e-63
1.3484145e-60
-5.3929912e-61
1.7560992e-58
-6.7051677e-59
2.176063e-56
-7.9783119e-57
2.5347897e-54
-1.2969779e-54
2.7938281e-52
-2.458536e-52
2.9146563e-50
-2.7896749e-50
2.9332831e-48
-2.8500901e-48
2.9602111e-46
-2.8669523e-46
3.2785237e-44
-3.1489656e-44
4.3605518e-42
-4.1410429e-42
6.2053872e-40
-5.8450497e-40
6.1282574e-38
-5.7072341e-38
8.47449e-36
-7.9063304e-36
6.016169e-33
-5.8872626e-33
1.0936427e-30
-1.0470945e-30
9.4463987e-31
-4.052971e-31
7.0179848e-30
-5.4287475e-30
3.5517977e-29
-2.5367715e-29
6.3423207e-29
-1.3626131e-29
2.4972322e-29
-4.4548704e-30
6.2128228e-31
-1.4361333e-32
4.0399207e-33
1.0727979e-32
1.8966477e-34
4.0995417e-34
1.5635697e-34
5.9676842e-35
9.6312652e-34
3.1321869e-34
7.5662998e-33
3.1158747e-33
5.0134103e-32
2.7176609e-32
2.7149826e-31
1.9256727e-31
1.0982463e-30
1.0307441e-30
3.0579772e-30
3.8801232e-30
5.891826e-30
1.0200404e-29
8.9810981e-30
2.0685919e-29
1.1015001e-29
4.0883998e-29
7.335603e-30
4.4685771e-29
2.3754295e-30
3.1770344e-29
1.6176355e-31
1.5321864e-29
-2.1802884e-31
5.8705838e-30
-1.0732235e-31
1.5866108e-30
-1.6263391e-32
2.4471725e-31
-2.0390445e-32
1.9685412e-32
-4.4383915e-30
-1.0732187e-30
-5.1668374e-28
-9.7560124e-28
6.8772311e-27
-1.1476651e-25
9.9681492e-25
-3.8705531e-24
6.503911e-24
-2.6899306e-23
5.5155942e-24
-2.0672446e-23
7.6358067e-25
-4.8114425e-24
6.9260193e-26
-5.0607936e-25
7.4088567e-27
-4.2913776e-26
5.1930771e-28
-2.6340802e-27
1.0835768e-29
-6.145673e-29
3.4271348e-32
4.5734379e-33
2.233232e-34
3.8138466e-33
1.9184082e-36
6.2502367e-35
1.9695742e-38
8.3206541e-37
2.7437354e-40
1.1563612e-38
4.6476878e-42
2.3250151e-40
3.5843489e-44
3.5836392e-42
1.4570249e-46
2.9060984e-44
6.2534603e-49
1.9369998e-46
2.3497548e-51
1.1562459e-48
6.6142828e-54
6.1356825e-51
8.8238637e-57
2.9233404e-53
-4.3817836e-59
1.2560991e-55
-4.5923245e-61
5.0400186e-58
-2.7721116e-63
1.8225905e-60
-1.0541247e-64
6.4013785e-63
-3.4564783e-65
1.8898634e-64
-9.65395e-66
4.6949425e-65
-2.1122727e-66
9.0816583e-66
-2.7824079e-67
1.3408428e-66
-1.5364817e-68
1.1107726e-67
-3.1750934e-70
3.3844885e-69
-3.2827937e-72
2.3502737e-71
-2.2057885e-74
-2.299037e-73
-1.5683162e-76
-4.2086385e-75
-2.978026e-78
-5.9920253e-77
-6.9659232e-79
-1.8063272e-78
-2.8784331e-79
-7.2181935e-79
-2.2576927e-80
-3.7773015e-79
-8.6322165e-82
-3.2224339e-80
-1.0383828e-83
-1.5862925e-81
-5.5060211e-83
1.481945e-76
-1.1752014e-75
6.6910074e-74
-1.8458183e-73
3.7648447e-72
-9.4338808e-72
8.3649312e-72
-2.7939004e-71
6.7312925e-72
-2.2042252e-71
4.6578087e-72
-1.4016364e-71
3.4309288e-72
-9.3412942e-72
2.7470369e-72
-5.0689081e-72
3.0709477e-71
-2.8165689e-71
3.4810356e-69
-2.6159032e-69
5.2131368e-67
-3.6377112e-67
2.6491259e-65
-1.7508822e-65
4.7205314e-64
-3.0098905e-64
5.1082332e-63
-3.228891e-63
2.5365989e-62
-1.6995221e-62
7.6213855e-62
-4.6248521e-62
2.6756103e-60
-1.2815133e-60
3.6706123e-58
-1.6498401e-58
4.8403375e-56
-2.0758569e-56
6.0547442e-54
-2.4915384e-54
7.0792083e-52
-2.8106622e-52
7.7100007e-50
-2.9691924e-50
7.9157892e-48
-6.5605235e-48
7.8553138e-46
-7.4024923e-46
7.8168403e-44
-7.5136875e-44
8.534597e-42
-8.167413e-42
1.1208979e-39
-1.0626825e-39
1.5815909e-37
-1.4877106e-37
1.5605403e-35
-1.4515962e-35
2.1797768e-33
-2.0327514e-33
1.5907172e-30
-1.5643856e-30
3.0249429e-28
-2.9370449e-28
2.5448448e-28
-1.3147224e-28
2.4338431e-27
-1.9603788e-27
1.4224628e-26
-1.0496335e-26
2.3345912e-26
-6.5981041e-27
1.0687256e-26
-2.6352938e-27
3.5926607e-28
-1.0244047e-28
2.5353851e-30
4.7814537e-30
5.4740676e-32
2.3847401e-31
2.8351918e-32
1.2749922e-32
5.2881341e-32
2.3206717e-32
4.0428178e-31
1.8086909e-31
2.5332202e-30
1.4960581e-30
1.2971455e-29
1.016635e-29
5.0511327e-29
5.3163177e-29
1.3597021e-28
1.9790607e-28
2.4840489e-28
5.1104187e-28
3.4940535e-28
1.0010396e-27
3.9537702e-28
1.9656069e-27
2.1619541e-28
2.1690968e-27
2.6141182e-29
1.5365126e-27
-3.3524342e-29
7.615176e-28
-2.8039423e-29
3.0089097e-28
-8.3810904e-30
8.2046006e-29
-4.4350859e-30
1.2796213e-29
-2.2721339e-29
5.3993692e-30
-5.5580813e-27
-1.5348043e-27
-4.6876534e-25
-5.3145354e-25
-1.1012212e-23
-4.0516043e-23
1.220562e-22
-1.0554844e-21
1.0873037e-21
-6.5749787e-21
9.5441523e-22
-4.8245725e-21
1.3726608e-22
-1.0586574e-21
1.3941392e-23
-1.1275068e-22
1.624566e-24
-9.9426714e-24
1.2661128e-25
-6.4399097e-25
3.1575198e-27
-1.6046326e-26
1.4239302e-29
1.5824476e-29
9.4296044e-32
1.6943283e-30
8.9352659e-34
2.9941948e-32
9.7485822e-36
4.3368077e-34
1.2949682e-37
6.4786496e-36
1.6668116e-39
1.1251925e-37
1.1607922e-41
1.4707819e-39
5.1084381e-44
1.1917931e-41
2.1000765e-46
7.916736e-44
7.0707259e-49
4.5860229e-46
1.592248e-51
2.3218709e-48
1.432309e-56
1.0424988e-50
-2.3492653e-56
4.1469409e-53
-1.5112866e-58
1.5639901e-55
-6.1721274e-61
4.7869658e-58
-2.4666288e-62
1.2420687e-60
-9.0308322e-63
4.1241735e-62
-2.6201179e-63
1.1593225e-62
-6.0676185e-64
2.3100784e-63
-8.3123726e-65
3.5858511e-64
-4.4725033e-66
2.9992202e-65
-8.9633223e-68
8.2732381e-67
-9.2309065e-70
3.4951689e-69
-5.9543928e-72
-9.1385592e-71
-6.57474e-74
-1.3736474e-72
-1.6033057e-75
-2.7785924e-74
-5.2455415e-76
-1.1550894e-75
-1.9799746e-76
-5.9569665e-76
-1.3511892e-77
-2.7280065e-76
-4.8161298e-79
-1.9819497e-77
-5.404775e-81
-9.3870569e-79
-3.0377419e-80
3.1854443e-74
-2.7430123e-73
1.4486872e-71
-4.3559947e-71
8.208215e-70
-2.2422058e-69
1.8335389e-69
-6.7002179e-69
1.4926553e-69
-5.3238638e-69
1.0436605e-69
-3.4177075e-69
7.7522603e-70
-2.3035353e-69
6.1551534e-70
-1.2437547e-69
6.9008041e-69
-7.5186286e-69
6.5227013e-67
-5.1968632e-67
1.0467613e-64
-7.8345859e-65
5.8982703e-63
-4.2836686e-63
1.06254e-61
-7.6689183e-62
1.0294618e-60
-7.4370182e-61
4.6647366e-60
-3.4668985e-60
1.4069444e-59
-9.482265e-60
6.2044599e-58
-3.2996142e-58
8.6927509e-56
-4.3492106e-56
1.1658767e-53
-5.5617191e-54
1.4761539e-51
-6.7470991e-52
1.7388684e-49
-7.6602371e-50
1.8992745e-47
-8.1170808e-48
1.9294063e-45
-8.0460116e-46
1.8663866e-43
-1.1843201e-43
1.8206929e-41
-1.6627919e-41
1.9500895e-39
-1.8511451e-39
2.5123917e-37
-2.3767879e-37
3.4909583e-35
-3.2838859e-35
3.4098802e-33
-3.1733416e-33
4.7614263e-31
-4.44618e-31
3.5330482e-28
-3.4897166e-28
6.9335455e-26
-6.8113539e-26
5.5801481e-26
-3.4245686e-26
6.6874875e-25
-5.544666e-25
4.4161074e-24
-2.6882479e-24
6.9125558e-24
-2.5697254e-24
3.4364506e-24
-1.1721516e-24
1.5499276e-25
-8.5601438e-26
1.2326282e-27
1.1796538e-27
2.3212222e-29
9.8909998e-29
3.3391405e-30
4.7116067e-30
3.0525543e-30
1.7632681e-30
1.7593858e-29
8.6397232e-30
1.0431691e-28
6.5947619e-29
5.0243919e-28
4.2734269e-28
1.8742268e-27
2.1735211e-27
4.9464638e-27
8.0947497e-27
8.7852021e-27
2.1159452e-26
1.1445772e-26
4.081933e-26
1.1443811e-26
7.9609205e-26
4.0424101e-27
8.8445515e-26
-1.8918398e-27
6.3419912e-26
-2.9289294e-27
3.2197688e-26
-1.764628e-27
1.2697318e-26
-4.5339695e-28
3.394846e-27
-5.4266005e-28
6.1831595e-28
-2.2614003e-26
2.6263845e-27
-3.1890174e-24
-9.9107954e-25
-1.8788305e-22
-1.8130602e-22
-4.8717667e-21
-9.9936832e-21
5.146302e-21
-2.1883943e-19
1.3680955e-19
-1.0920787e-18
1.299757e-19
-8.8264015e-19
1.9667232e-20
-1.8821891e-19
2.2514431e-21
-2.1118883e-20
2.8584756e-22
-1.9375163e-21
2.5209052e-23
-1.2795485e-22
7.671965e-25
-3.2356033e-24
5.2035719e-27
1.1365117e-26
3.4581826e-29
6.436139e-28
3.6060944e-31
1.2333307e-29
4.1696657e-33
1.9400793e-31
5.3976536e-35
3.0930866e-33
5.5447207e-37
4.8549689e-35
3.3585339e-39
5.3941988e-37
1.521204e-41
4.2608478e-39
5.7606315e-44
2.7479456e-41
1.6343741e-46
1.5001325e-43
2.3972537e-49
7.0256434e-46
-6.5808351e-52
2.8642242e-48
-6.7387722e-54
1.0501695e-50
-2.0329883e-56
3.1021025e-53
-3.664019e-59
5.2776131e-56
-4.1878618e-60
6.7569127e-59
-1.9900676e-60
6.8275119e-60
-6.1516669e-61
2.4644843e-60
-1.5297764e-61
5.0423561e-61
-2.16626e-62
8.3103667e-62
-1.1166165e-63
6.9125446e-63
-2.181768e-65
1.6527019e-64
-1.9987821e-67
8.2304384e-68
-1.6774229e-69
-2.6142481e-68
-2.174965e-71
-5.5539658e-70
-9.2994263e-73
-9.5173026e-72
-3.3587161e-73
-7.5853077e-73
-1.1214837e-73
-4.0012529e-73
-6.7185227e-75
-1.5781186e-73
-2.2474057e-76
-1.0351633e-74
-2.3582419e-78
-4.5926074e-76
-1.3845374e-77
6.1339899e-72
-5.6626408e-71
2.8118558e-69
-9.0991802e-69
1.6032829e-67
-4.7174881e-67
3.6041647e-67
-1.423402e-66
2.9690295e-67
-1.1394478e-66
2.0982804e-67
-7.3880788e-67
1.5721481e-67
-5.0389354e-67
1.229707e-67
-2.6870141e-67
1.4514381e-66
-1.6365562e-66
1.137054e-64
-9.9946983e-65
1.8889898e-62
-1.5439557e-62
1.1708682e-60
-9.2798667e-61
2.1341841e-59
-1.6743501e-59
1.8311272e-58
-1.4469811e-58
7.4731826e-58
-6.0945892e-58
2.2660855e-57
-1.7114865e-57
1.2482101e-55
-7.3011984e-56
1.7958735e-53
-9.9515235e-54
2.4621456e-51
-1.2977934e-51
3.1696732e-49
-1.5973455e-49
3.7750694e-47
-1.8311717e-47
4.1463993e-45
-1.9503174e-45
4.2174733e-43
-1.9360947e-43
4.0558812e-41
-1.8295626e-41
3.8382186e-39
-1.7101725e-39
3.9660484e-37
-3.4497504e-37
4.9782149e-35
-4.6707388e-35
6.7525114e-33
-6.3455569e-33
6.4630827e-31
-6.0195178e-31
8.9161467e-29
-8.3526315e-29
6.6441224e-26
-6.5884043e-26
1.3256798e-23
-1.3024024e-23
9.9170504e-24
-7.4699398e-24
1.4666724e-22
-1.2442428e-22
1.1564462e-21
-6.7491615e-22
1.5936006e-21
-8.4333694e-22
8.4119491e-22
-3.9713991e-22
4.818633e-23
-4.0707263e-23
4.6151965e-25
-4.0867433e-26
8.6833602e-27
2.8289924e-26
4.0153803e-28
1.6371222e-27
2.8552281e-28
1.6383696e-28
6.1205238e-28
3.7184796e-28
3.4298786e-27
2.2994296e-27
1.582241e-26
1.4308592e-26
5.7921421e-26
7.2316833e-26
1.5710721e-25
2.7998711e-25
2.9779534e-25
8.0031649e-25
3.9863804e-25
1.7325138e-24
3.2308059e-25
3.394616e-24
3.5710142e-27
3.7072988e-24
-1.8173498e-25
2.7230469e-24
-1.6499987e-25
1.3481119e-24
-7.013073e-26
4.8471439e-25
-4.3857883e-26
1.2269528e-25
-1.0508113e-25
6.2095415e-26
-1.1683199e-23
7.204929e-25
-1.0344785e-21
-3.5431303e-22
-4.509483e-20
-4.1688974e-20
-1.0719844e-18
-1.6827817e-18
-2.3954178e-18
-2.2601674e-17
1.2427011e-17
-4.4023506e-17
1.2501548e-17
-4.645865e-17
2.2948024e-18
-1.5773261e-17
2.9272953e-19
-2.2978224e-18
4.021519e-20
-2.7092131e-19
4.0997831e-21
-2.0645487e-20
1.5569194e-22
-5.3531037e-22
1.5615102e-24
4.8988483e-24
1.0815705e-26
2.0765776e-25
1.2347443e-28
4.2786281e-27
1.4950271e-30
7.3354081e-29
1.8312701e-32
1.2087848e-30
1.6236903e-34
1.7563842e-32
8.9394408e-37
1.7687534e-34
3.8177107e-39
1.3311045e-36
1.2470039e-41
8.0273266e-39
2.6683938e-44
3.951922e-41
8.0901971e-48
1.6199339e-43
-2.0498184e-49
5.499095e-46
-2.3871043e-52
1.0106704e-48
-8.2812531e-55
8.3676528e-52
-4.1683804e-57
1.8303315e-54
-3.3902734e-58
6.8476539e-57
-3.2147542e-58
6.6226882e-58
-1.3000208e-58
4.7004269e-58
-3.3497623e-59
9.7655405e-59
-4.8216359e-60
1.6424544e-59
-2.3856632e-61
1.3277142e-60
-4.5105527e-63
2.6329075e-62
-4.2122653e-65
-1.4383821e-64
-4.9003193e-67
-7.6338349e-66
-6.2017954e-69
-1.7317242e-67
-5.3295434e-70
-2.9983341e-69
-1.8157351e-70
-4.7045801e-70
-5.2930779e-71
-2.2100461e-70
-2.8089911e-72
-7.5562707e-71
-8.878515e-74
-4.5023947e-72
-8.6959802e-76
-1.8834467e-73
-5.2884294e-75
1.0697895e-69
-1.0461425e-68
4.9427526e-67
-1.7025866e-66
2.8358203e-65
-8.8930655e-65
6.4169073e-65
-2.7107732e-64
5.3517488e-65
-2.1872557e-64
3.8268334e-65
-1.4334238e-64
2.8945286e-65
-9.9004287e-65
2.207551e-65
-5.1681607e-65
2.3790288e-64
-2.9504692e-64
1.9692414e-62
-2.0353592e-62
3.2248735e-60
-2.8269592e-60
2.0886004e-58
-1.7957122e-58
3.6650927e-57
-3.1345854e-57
2.7750981e-56
-2.3939339e-56
1.0500567e-55
-9.3972902e-56
3.1380573e-55
-2.56178e-55
2.1426107e-53
-1.3017233e-53
3.2062456e-51
-1.9443248e-51
4.5377868e-49
-2.6418889e-49
5.9922793e-47
-3.3177733e-47
7.2591425e-45
-3.8558733e-45
8.0415463e-43
-4.1373837e-43
8.1958905e-41
-4.1170622e-41
7.8614178e-39
-3.8843547e-39
7.3979095e-37
-3.6203618e-37
7.4558528e-35
-3.6309755e-35
8.842965e-33
-6.7904966e-33
1.1568705e-30
-1.0654043e-30
1.073031e-28
-9.8037791e-29
1.4428616e-26