/*--------------------------------*- C++ -*----------------------------------*\
  =========                 |
  \\      /  F ield         | OpenFOAM: The Open Source CFD Toolbox
   \\    /   O peration     | Website:  https://openfoam.org
    \\  /    A nd           | Version:  9
     \\/     M anipulation  |
\*---------------------------------------------------------------------------*/
FoamFile
{
    format      ascii;
    class       volScalarField;
    location    "0.51";
    object      p;
}
// * * * * * * * * * * * * * * * * * * * * * * * * * * * * * * * * * * * * * //

dimensions      [1 -1 -2 0 0 0 0];

internalField   nonuniform List<scalar> 
10000
(
0
-0.027267374
-0.061855006
-0.10739823
-0.16405864
-0.2315649
-0.30970273
-0.39830466
-0.49707966
-0.60574019
-0.72388338
-0.85113876
-0.98702624
-1.1310079
-1.2825176
-1.4408667
-1.6053168
-1.775077
-1.949233
-2.1268072
-2.3067619
-2.4879648
-2.6692538
-2.8494417
-3.0272816
-3.2015083
-3.3708972
-3.5342471
-3.6903599
-3.8381344
-3.9766186
-4.104956
-4.2223923
-4.3283367
-4.4222888
-4.5035745
-4.5712653
-4.6346715
-4.6857913
-4.7268138
-4.7593855
-4.7851071
-4.805648
-4.8227493
-4.8381184
-4.8534796
-4.8705791
-4.8910333
-4.9163288
-4.9477893
-4.9865325
-5.0334736
-5.0892941
-5.1543966
-5.2288744
-5.3124678
-5.4044815
-5.5037238
-5.6084042
-5.715808
-5.8252125
-5.9322827
-6.0339776
-6.1271496
-6.2085966
-6.2751071
-6.3233707
-6.349275
-6.3516399
-6.3363094
-6.303448
-6.2492945
-6.1751102
-6.0825436
-5.9729731
-5.8480668
-5.7099
-5.5606152
-5.4022746
-5.2369371
-5.0665873
-4.8931164
-4.7180179
-4.5440727
-4.3731657
-4.2069993
-4.046811
-3.893612
-3.7482642
-3.6115651
-3.4842586
-3.3670848
-3.2608
-3.1655238
-3.0787859
-2.9960889
-2.9241721
-2.8691153
-2.8272137
-2.797288
0.022463114
-0.0049712577
-0.03977614
-0.08550973
-0.14234744
-0.21004781
-0.28845574
-0.37736729
-0.47656114
-0.58568478
-0.70442504
-0.83237257
-0.96904797
-1.1139883
-1.2665756
-1.4261318
-1.5919584
-1.7632328
-1.9390389
-2.1184241
-2.3003141
-2.4835643
-2.6670088
-2.8494315
-3.0295454
-3.206071
-3.3777458
-3.5432757
-3.7014435
-3.8511467
-3.9913697
-4.1211962
-4.2398816
-4.3469065
-4.4420542
-4.5256355
-4.5982171
-4.657531
-4.707546
-4.7482068
-4.780584
-4.8060987
-4.8263131
-4.8429116
-4.8575879
-4.8720136
-4.8879105
-4.9068745
-4.9303802
-4.959756
-4.9961958
-5.040733
-5.0941986
-5.1571479
-5.2298533
-5.3122808
-5.4039181
-5.5036922
-5.6098249
-5.7205058
-5.8326991
-5.943818
-6.0502217
-6.148174
-6.2340567
-6.3043792
-6.3559352
-6.3860484
-6.393761
-6.3806219
-6.3460556
-6.2898916
-6.2130106
-6.1168251
-6.0032873
-5.8744138
-5.7322582
-5.5789399
-5.4166208
-5.2474631
-5.0735477
-4.8968732
-4.7185994
-4.5422294
-4.3687958
-4.1998888
-4.0368331
-3.8807299
-3.7325215
-3.5930273
-3.462946
-3.3428298
-3.2331146
-3.1320395
-3.0433064
-2.9632424
-2.8946137
-2.8398918
-2.7986725
-2.7690875
0.052780177
0.025177268
-0.0099015016
-0.056007906
-0.11323657
-0.18140902
-0.26033643
-0.3499069
-0.4498289
-0.55983954
-0.67960864
-0.8087238
-0.94678141
-1.0932558
-1.247558
-1.4090632
-1.577038
-1.7506495
-1.9290364
-2.1111978
-2.2960247
-2.4823959
-2.6691289
-2.8549149
-3.0384291
-3.2183629
-3.3933624
-3.5620757
-3.7232324
-3.8756499
-4.0182059
-4.1499383
-4.2701184
-4.3782067
-4.473921
-4.5573239
-4.6286802
-4.6874193
-4.7357835
-4.7744606
-4.8046136
-4.8277178
-4.8453736
-4.8592806
-4.87117
-4.8827322
-4.8956597
-4.9115677
-4.9319694
-4.9582666
-4.9917237
-5.0334854
-5.0845313
-5.1456525
-5.2173728
-5.299845
-5.3927754
-5.4953327
-5.6061833
-5.7226432
-5.8421124
-5.9612435
-6.0760899
-6.1824293
-6.2761494
-6.3534413
-6.4109488
-6.446312
-6.4584802
-6.4448013
-6.4083507
-6.3491843
-6.2682868
-6.1672634
-6.0481687
-5.913243
-5.7648058
-5.6051928
-5.4366899
-5.2615648
-5.0819973
-4.9000514
-4.7168668
-4.5360544
-4.3583817
-4.1853906
-4.0184035
-3.858531
-3.7067179
-3.5637267
-3.4301219
-3.3060714
-3.1915391
-3.092339
-3.0025068
-2.9229383
-2.855228
-2.8007204
-2.7596485
-2.730063
0.094200907
0.066414223
0.031053424
-0.015444895
-0.073192299
-0.14194998
-0.22161934
-0.31202368
-0.41295472
-0.52415641
-0.64528798
-0.77601542
-0.91590985
-1.0644591
-1.2211276
-1.3852757
-1.5561703
-1.7330217
-1.9149337
-2.1008886
-2.2898064
-2.4805295
-2.671786
-2.8622358
-3.0505189
-3.2352183
-3.4148696
-3.5880439
-3.7533805
-3.9095684
-4.0553816
-4.1897884
-4.3119864
-4.4213415
-4.5174583
-4.6002683
-4.6699207
-4.727796
-4.7739712
-4.8097381
-4.8364957
-4.8558531
-4.8694961
-4.8791743
-4.8866822
-4.893768
-4.902151
-4.9134729
-4.9293057
-4.9511345
-4.9803308
-5.0181885
-5.0659102
-5.1245617
-5.194975
-5.2775917
-5.3724607
-5.4790109
-5.595732
-5.7210223
-5.8512084
-5.982326
-6.1097906
-6.2286598
-6.3340417
-6.421503
-6.4872371
-6.5284687
-6.5434122
-6.5314919
-6.4933857
-6.4303248
-6.343896
-6.2361155
-6.1093817
-5.966248
-5.8093031
-5.6411347
-5.4642207
-5.2809601
-5.0936332
-4.9042497
-4.7148741
-4.52781
-4.3443994
-4.1660894
-3.9941576
-3.8297209
-3.6737468
-3.5270478
-3.3903593
-3.2643862
-3.150091
-3.0447983
-2.9519746
-2.8713132
-2.8031617
-2.7483024
-2.7069822
-2.6770794
0.14663767
0.11863481
0.08297068
0.036001722
-0.02232752
-0.091848982
-0.17239797
-0.26387406
-0.36608487
-0.47875982
-0.60164191
-0.73439736
-0.87659903
-1.0278014
-1.1874703
-1.3549643
-1.5295978
-1.7105875
-1.8970083
-2.0878602
-2.2820587
-2.4783671
-2.6754672
-2.8719917
-3.0664749
-3.2573709
-3.4431188
-3.6221751
-3.7930155
-3.9541712
-4.1043059
-4.2422731
-4.3671234
-4.478117
-4.5748329
-4.6572252
-4.725615
-4.7806872
-4.8233702
-4.8549393
-4.8769464
-4.8911657
-4.8993898
-4.9034358
-4.9051666
-4.9063825
-4.9088318
-4.9141783
-4.9240262
-4.9399405
-4.9633928
-4.9958704
-5.0388861
-5.0939336
-5.1622291
-5.2445528
-5.3418218
-5.4538386
-5.5794325
-5.716145
-5.8606521
-6.0081564
-6.1530597
-6.2892453
-6.410689
-6.5119219
-6.5885453
-6.6374655
-6.6569105
-6.6448897
-6.6038056
-6.5352152
-6.4412091
-6.3243414
-6.1874656
-6.0335418
-5.8655212
-5.6862834
-5.498544
-5.3048493
-5.107586
-4.9086923
-4.7110272
-4.5161152
-4.3254362
-4.1404281
-3.9623479
-3.7922809
-3.6311828
-3.4798573
-3.3390242
-3.209303
-3.0908694
-2.9837407
-2.8889165
-2.8067632
-2.737639
-2.6820826
-2.6402419
-2.6097778
0.21016477
0.18194466
0.14590461
0.098438756
0.039401371
-0.030966748
-0.11257348
-0.20533326
-0.30903627
-0.42349543
-0.54846807
-0.68362543
-0.82861484
-0.98300812
-1.1462729
-1.3178277
-1.4970082
-1.6830137
-1.8749521
-2.071832
-2.2725035
-2.4756922
-2.6800503
-2.8841285
-3.0863339
-3.2849901
-3.47841
-3.6648832
-3.8426831
-4.0101608
-4.1658133
-4.3083105
-4.4365177
-4.5495616
-4.6469766
-4.7286707
-4.7949366
-4.8465054
-4.8845441
-4.9105596
-4.9263354
-4.9338255
-4.9350124
-4.9318549
-4.9262909
-4.9201592
-4.9152303
-4.9131689
-4.9155854
-4.9240748
-4.9401844
-4.9656267
-5.0023491
-5.0523323
-5.1174308
-5.1982774
-5.29794
-5.4162209
-5.5523522
-5.7043812
-5.8680763
-6.0376669
-6.2060726
-6.3655081
-6.5083061
-6.6276361
-6.7181775
-6.7764842
-6.8011306
-6.7879383
-6.7422984
-6.6660781
-6.5619841
-6.4332102
-6.2832096
-6.1155028
-5.933498
-5.740424
-5.5392671
-5.3327059
-5.1230619
-4.9127067
-4.7048217
-4.5003793
-4.3009476
-4.1079418
-3.9225806
-3.7459049
-3.5788471
-3.422167
-3.2765148
-3.1423967
-3.0203164
-2.9104235
-2.8132855
-2.7292699
-2.6587446
-2.6021432
-2.5594986
-2.5283073
0.28492325
0.25644665
0.22002737
0.17197184
0.11219191
0.040856277
-0.041954766
-0.13613637
-0.24155919
-0.3580587
-0.48540711
-0.62334742
-0.77155969
-0.92962619
-1.0970811
-1.2733922
-1.4578932
-1.6498109
-1.8482957
-2.0523256
-2.2607051
-2.4721561
-2.685277
-2.8984814
-3.1100587
-3.31821
-3.5210545
-3.7166601
-3.9030747
-4.0784249
-4.2409788
-4.3891545
-4.5215859
-4.6372526
-4.735547
-4.8162812
-4.879766
-4.9268582
-4.9589948
-4.9779404
-4.9858321
-4.9848913
-4.9773555
-4.965381
-4.9509832
-4.9360232
-4.9222716
-4.9113526
-4.9048328
-4.9042694
-4.9112661
-4.9277591
-4.9562087
-4.9988774
-5.0581986
-5.1370604
-5.2382858
-5.3634496
-5.5124754
-5.6833944
-5.8717677
-6.0703164
-6.2698074
-6.4600333
-6.630825
-6.7733626
-6.8810499
-6.9499796
-6.9795029
-6.9641044
-6.9121364
-6.8256633
-6.7082962
-6.5641776
-6.3975563
-6.2126362
-6.0133801
-5.8034354
-5.5861134
-5.3641979
-5.1389177
-4.915751
-4.6956662
-4.4800174
-4.2703684
-4.0680822
-3.874337
-3.6901364
-3.5163359
-3.3536367
-3.2026491
-3.0638984
-2.9377626
-2.8245371
-2.724678
-2.6384653
-2.5662149
-2.508253
-2.4645955
-2.4326134
0.37103037
0.34231772
0.30546006
0.25682318
0.19622903
0.1238375
0.039748626
-0.056007366
-0.16332799
-0.28205952
-0.41205528
-0.55310912
-0.70491459
-0.8671255
-1.039338
-1.2210412
-1.4116205
-1.6103623
-1.8164038
-2.0287088
-2.2460992
-2.4672736
-2.690731
-2.9147644
-3.1375367
-3.3570953
-3.5713254
-3.7780267
-3.9749797
-4.160021
-4.3311106
-4.4863634
-4.6241388
-4.7431641
-4.8426076
-4.92217
-4.9821948
-5.0237242
-5.0483777
-5.0584779
-5.0566054
-5.0454157
-5.0274777
-5.0051351
-4.9804828
-4.9554101
-4.9316002
-4.9105499
-4.8936735
-4.882459
-4.8784683
-4.883732
-4.9011643
-4.9333887
-4.9842911
-5.0581624
-5.1592872
-5.2909714
-5.4546916
-5.649063
-5.868924
-6.1053097
-6.3458773
-6.5766893
-6.7839038
-6.9559237
-7.0843417
-7.1641873
-7.1930821
-7.1781762
-7.1177544
-7.0173946
-6.8825834
-6.7187984
-6.5313443
-6.3252188
-6.1050028
-5.8748163
-5.6384295
-5.3995957
-5.153676
-4.916568
-4.6826027
-4.4541373
-4.2328557
-4.0200795
-3.8169056
-3.6242731
-3.4429705
-3.2736201
-3.1167878
-2.9729924
-2.8424998
-2.7255914
-2.6226518
-2.5339172
-2.4596675
-2.4001085
-2.3552738
-2.3224667
0.46864336
0.43966664
0.40241726
0.35315715
0.29171122
0.21824978
0.13279623
0.035362726
-0.073962844
-0.19510945
-0.32797765
-0.4723929
-0.62812793
-0.79491396
-0.97238428
-1.1600852
-1.357487
-1.5639154
-1.7785069
-2.0002519
-2.2280061
-2.4604185
-2.6958843
-2.932606
-3.1686075
-3.4017093
-3.6295359
-3.8495929
-4.0593246
-4.2562039
-4.4378016
-4.6018685
-4.746414
-4.8697791
-4.9708076
-5.0490785
-5.1049164
-5.1394673
-5.1548276
-5.1539608
-5.1401708
-5.1167352
-5.0866533
-5.0524596
-5.016302
-4.9800117
-4.9451047
-4.9128817
-4.8845309
-4.8612608
-4.8444636
-4.8356679
-4.8386018
-4.856617
-4.8947813
-4.9592887
-5.0568571
-5.1933683
-5.3730807
-5.5958788
-5.8559682
-6.1419482
-6.4369035
-6.7214155
-6.9759876
-7.1852235
-7.338819
-7.431492
-7.4621622
-7.4399702
-7.3652986
-7.2454122
-7.0875679
-6.8987348
-6.6853827
-6.4533784
-6.2079434
-5.9536313
-5.6942693
-5.4325691
-5.1712848
-4.9151474
-4.6647851
-4.4217243
-4.1873764
-3.9629269
-3.7493424
-3.5474673
-3.3579919
-3.1814339
-3.0181796
-2.8690237
-2.7338498
-2.6129632
-2.506665
-2.4151711
-2.3386844
-2.2773725
-2.231217
-2.1975633
0.57787881
0.54871753
0.51105149
0.46117172
0.39890396
0.32433617
0.23748237
0.138342
0.026920389
-0.09676907
-0.23265324
-0.38063725
-0.54059053
-0.71229147
-0.89545533
-1.089734
-1.2946464
-1.5095569
-1.7336832
-1.9660714
-2.2055678
-2.4507702
-2.7000318
-2.9514775
-3.202945
-3.4519897
-3.6959536
-3.9319818
-4.1571222
-4.3683902
-4.562892
-4.7379286
-4.8910846
-5.0201649
-5.1235171
-5.2005274
-5.2514262
-5.2773881
-5.2811079
-5.2666135
-5.2383575
-5.2005057
-5.1565506
-5.1092088
-5.060578
-5.0122927
-4.9656452
-4.9216588
-4.8811382
-4.844818
-4.8140312
-4.7870222
-4.7723997
-4.7711311
-4.7902453
-4.8386716
-4.9268005
-5.0640275
-5.2598001
-5.5166115
-5.8283334
-6.1796121
-6.5474012
-6.9035078
-7.2195644
-7.4752275
-7.6584009
-7.7642642
-7.7938332
-7.7573901
-7.6610294
-7.5141667
-7.3261298
-7.1055725
-6.8602532
-6.5969741
-6.3216015
-6.0391112
-5.7537407
-5.4667497
-5.1849675
-4.9089607
-4.6405944
-4.3814234
-4.1326967
-3.8954752
-3.6705981
-3.4587657
-3.2604994
-3.0763429
-2.906704
-2.7514573
-2.6111962
-2.4860671
-2.3762016
-2.281771
-2.202884
-2.1396862
-2.0920772
-2.0575599
0.69892516
0.66960372
0.63155234
0.58110877
0.51802514
0.44237059
0.35414981
0.25328676
0.13973351
0.013469044
-0.12551985
-0.27722823
-0.44158641
-0.61846735
-0.80770655
-1.0090445
-1.2220659
-1.4462242
-1.680851
-1.9250547
-2.1776726
-2.4373024
-2.7022881
-2.9706547
-3.2400284
-3.5077144
-3.7707521
-4.025831
-4.2694694
-4.4981572
-4.7084803
-4.8971898
-5.0614274
-5.198172
-5.3050405
-5.3810807
-5.4262963
-5.4417194
-5.4307344
-5.3991607
-5.35342
-5.298866
-5.2394745
-5.1780301
-5.1164197
-5.055951
-4.9975734
-4.9418813
-4.8890929
-4.8390588
-4.7917962
-4.7475582
-4.7098095
-4.6826321
-4.6740943
-4.6964202
-4.765486
-4.8950482
-5.1046686
-5.4017725
-5.7801588
-6.2188302
-6.6859755
-7.1381275
-7.5334691
-7.8458683
-8.0619105
-8.178343
-8.1996455
-8.1398528
-8.0118372
-7.8283119
-7.6010236
-7.3405465
-7.0560789
-6.7553754
-6.4448205
-6.1295889
-5.8135569
-5.5008438
-5.1944776
-4.8964188
-4.6083559
-4.3316638
-4.0674127
-3.8164691
-3.5794964
-3.3570764
-3.1495209
-2.9572759
-2.7805159
-2.6193108
-2.4738676
-2.3443166
-2.2307443
-2.1332273
-2.0518351
-1.9866399
-1.9375046
-1.9020645
0.83188426
0.8025064
0.76413485
0.71314646
0.64931358
0.57265921
0.48311613
0.38057071
0.26494626
0.13613132
-0.0059864027
-0.16146187
-0.33032131
-0.51257259
-0.70816677
-0.91692511
-1.1385582
-1.3726771
-1.6187139
-1.8758397
-2.1429624
-2.4187367
-2.7014808
-2.9891157
-3.2791084
-3.5685112
-3.8539697
-4.1316622
-4.3974748
-4.6472502
-4.8769783
-5.0826702
-5.2613449
-5.4085313
-5.5208412
-5.5970295
-5.6360311
-5.6381236
-5.6079283
-5.5547683
-5.4880691
-5.4146291
-5.3387315
-5.2629406
-5.1886311
-5.1165611
-5.047255
-4.9808957
-4.9169652
-4.8541431
-4.790961
-4.7265662
-4.6622256
-4.6018695
-4.5544224
-4.5360788
-4.5714394
-4.6772937
-4.8947544
-5.2396091
-5.7060288
-6.2632054
-6.8684592
-7.4507634
-7.9466456
-8.3257205
-8.5755467
-8.6958405
-8.6952651
-8.5987365
-8.4255501
-8.1925232
-7.9145302
-7.6043061
-7.272399
-6.9273414
-6.5758998
-6.2235633
-5.8729747
-5.5307555
-5.197588
-4.8755616
-4.5662409
-4.2707765
-3.9899747
-3.72451
-3.4748025
-3.2412512
-3.0240272
-2.8233455
-2.6393485
-2.4719635
-2.3212055
-2.1871153
-2.0697396
-1.9690495
-1.8850961
-1.8178331
-1.7671306
-1.7306816
0.97690443
0.94761646
0.90894055
0.85749706
0.79303431
0.71546994
0.62470867
0.52061821
0.40303848
0.27176382
0.12661049
-0.032569003
-0.20594059
-0.39363544
-0.59570954
-0.81213894
-1.0428136
-1.2874918
-1.5457222
-1.8168144
-2.0998138
-2.3934544
-2.6960584
-3.0054862
-3.3190957
-3.6336801
-3.9454089
-4.2498744
-4.5422745
-4.817585
-5.0710834
-5.2977359
-5.4951943
-5.6564869
-5.7766629
-5.8557763
-5.8896204
-5.8744796
-5.8179336
-5.7368994
-5.6454638
-5.5515414
-5.4592162
-5.3702266
-5.2847302
-5.2025656
-5.1240606
-5.0493116
-4.9770094
-4.9041785
-4.8272393
-4.7427823
-4.649278
-4.5485092
-4.4482166
-4.36774
-4.3453927
-4.4001448
-4.613679
-5.0159315
-5.6005735
-6.3205896
-7.1242068
-7.8834059
-8.5047861
-8.9567639
-9.2348786
-9.3452399
-9.3009194
-9.1473772
-8.9101468
-8.6109789
-8.2681614
-7.8966034
-7.5078547
-7.1108087
-6.712157
-6.3169428
-5.930119
-5.5545249
-5.1919936
-4.8441598
-4.5121308
-4.196787
-3.8986025
-3.6179747
-3.3550983
-3.1101001
-2.882952
-2.6735921
-2.4823478
-2.3086726
-2.1525311
-2.0138746
-1.892657
-1.7887918
-1.7022333
-1.6328736
-1.5805997
-1.5429824
1.1341352
1.105047
1.066162
1.0143875
0.94940498
0.87107848
0.77929046
0.67383859
0.55447943
0.42095756
0.27297614
0.11024479
-0.067514356
-0.2605581
-0.46910661
-0.69333908
-0.93333425
-1.1890083
-1.4600884
-1.746096
-2.0462625
-2.3594355
-2.6840253
-3.0179271
-3.3584308
-3.7020519
-4.0444978
-4.3807153
-4.705053
-5.0112735
-5.293908
-5.5463415
-5.767882
-5.9478781
-6.0823557
-6.1683879
-6.2001316
-6.1615152
-6.06669
-5.9493
-5.8296515
-5.7154088
-5.609169
-5.5104489
-5.4169124
-5.3271313
-5.2420129
-5.1624028
-5.086401
-5.00904
-4.9237173
-4.823364
-4.7020745
-4.5564503
-4.3885143
-4.2142724
-4.0781368
-4.0527776
-4.2404885
-4.7109278
-5.4681116
-6.4301664
-7.5286159
-8.5166042
-9.2772884
-9.7999882
-10.089512
-10.155622
-10.039085
-9.7998573
-9.4736285
-9.0872032
-8.6623764
-8.2159595
-7.7599132
-7.3028042
-6.8507051
-6.4074665
-5.9802166
-5.5688251
-5.1748807
-4.7996374
-4.4437529
-4.1076288
-3.7914654
-3.4952507
-3.2189145
-2.9623603
-2.7253275
-2.5077513
-2.3087575
-2.1287077
-1.9672008
-1.8240396
-1.6990152
-1.5920147
-1.5028479
-1.4314071
-1.3775505
-1.3386116
1.3036851
1.2749451
1.2359941
1.1839805
1.1186389
1.0397696
0.9471837
0.84062186
0.71977637
0.58430699
0.43379645
0.26781511
0.085969502
-0.11216207
-0.32703525
-0.55902998
-0.80840547
-1.0753163
-1.3597486
-1.6614642
-1.9799235
-2.3141992
-2.6628973
-3.0240343
-3.3948965
-3.7718343
-4.1501597
-4.5241137
-4.8869487
-5.2306951
-5.5492356
-5.8327389
-6.0870954
-6.2891571
-6.4588969
-6.5637873
-6.5933409
-6.5128198
-6.3569715
-6.1932739
-6.0461434
-5.9167854
-5.8035162
-5.7024801
-5.6062203
-5.5111539
-5.4212233
-5.34115
-5.2689554
-5.1962855
-5.1126723
-5.0066279
-4.8668034
-4.6807914
-4.4371496
-4.1375309
-3.8270853
-3.6456621
-3.7587137
-4.3259792
-5.3623822
-6.5055542
-8.1019344
-9.5218586
-10.37676
-10.925487
-11.208061
-11.165819
-10.936279
-10.570881
-10.123333
-9.6229775
-9.0955759
-8.559148
-8.0246243
-7.4991142
-6.9851486
-6.4918659
-6.0201605
-5.5702546
-5.1430636
-4.7391028
-4.3585023
-4.0010602
-3.66656
-3.3546078
-3.064787
-2.7966252
-2.5496924
-2.3235037
-2.117455
-1.9312924
-1.7646063
-1.6170696
-1.4883759
-1.3783284
-1.2865937
-1.2131073
-1.1576931
-1.1172614
1.4857293
1.4574173
1.4185407
1.3664349
1.3009376
1.2217672
1.1286654
1.0213485
0.89941507
0.76239573
0.60977684
0.44102259
0.25556325
0.052752499
-0.16807701
-0.40753424
-0.66612885
-0.94429278
-1.2423315
-1.5603038
-1.8979743
-2.2547529
-2.6295633
-3.0206695
-3.4255027
-3.8404446
-4.2605883
-4.6794389
-5.0888681
-5.4784373
-5.8397066
-6.1594598
-6.4612043
-6.6808906
-6.8950711
-7.0528133
-7.1061084
-6.9495505
-6.6927601
-6.4691755
-6.300537
-6.1746079
-6.0726758
-5.9827734
-5.8894505
-5.788519
-5.693185
-5.6163998
-5.5562315
-5.5011151
-5.4356086
-5.3444095
-5.209975
-5.0062765
-4.6981928
-4.2513753
-3.6925714
-3.2111459
-3.1526021
-3.7882454
-5.0041244
-6.6194809
-8.2809359
-9.909114
-11.712892
-12.436679
-12.675621
-12.468275
-12.031877
-11.479634
-10.866995
-10.218194
-9.5639596
-8.920911
-8.2963316
-7.6960979
-7.1096617
-6.563883
-6.0450866
-5.5547079
-5.0929207
-4.6594068
-4.2535665
-3.8746393
-3.5218194
-3.1942314
-2.8911233
-2.6116319
-2.3550165
-2.1206785
-1.9077775
-1.7157822
-1.5441905
-1.3925069
-1.2603457
-1.1473858
-1.0532033
-0.97776472
-0.92083736
-0.87868177
1.6804022
1.6524897
1.6138675
1.5618719
1.4964254
1.4172445
1.3240032
1.2163518
1.0937945
0.9557684
0.80165383
0.63076247
0.4423122
0.23543794
0.0092764186
-0.23705959
-0.50443709
-0.79359722
-1.1051736
-1.4396146
-1.7971174
-2.1775247
-2.5801851
-3.0037986
-3.4462374
-3.904211
-4.3728778
-4.8452923
-5.3119651
-5.7597639
-6.1703527
-6.5363279
-6.8787418
-7.0637148
-6.4256799
-6.2944205
-7.5188042
-7.4926427
-7.0776636
-6.7847116
-6.619078
-6.5297445
-6.4784942
-6.4264739
-6.3390631
-6.2163978
-6.1014906
-6.0266052
-5.9888165
-5.9687202
-5.9443868
-5.8993014
-5.8166763
-5.6545253
-5.3375361
-4.7532125
-3.8341393
-2.7711131
-2.2043381
-2.2672719
-4.8696514
-7.6677011
-10.077855
-12.520434
-13.691269
-13.530948
-13.795801
-14.000394
-13.314012
-12.538329
-11.711577
-10.869865
-10.060856
-9.2934303
-8.5655354
-7.8770881
-7.2273696
-6.6196126
-6.0502551
-5.5177433
-5.0205449
-4.5571597
-4.1260958
-3.7259027
-3.3551128
-3.0123586
-2.6964359
-2.4061677
-2.1405625
-1.8983991
-1.6790128
-1.4815928
-1.3054473
-1.149949
-1.0145974
-0.89894064
-0.80249571
-0.72523998
-0.66688418
-0.62277842
1.8877306
1.8601809
1.8219828
1.7703003
1.7051665
1.6263418
1.5333899
1.4258834
1.303286
1.1649486
1.010105
0.83786932
0.64726229
0.4372309
0.20662818
-0.045741408
-0.32112989
-0.62064672
-0.94531088
-1.2960487
-1.6735847
-2.0782936
-2.5101067
-2.9683977
-3.4518169
-3.9578815
-4.4824538
-5.0191706
-5.5592555
-6.0903638
-6.5767436
-7.0356088
-7.3463102
-5.9820498
-5.1541393
-4.9260575
-5.7232813
-7.9378063
-7.4369355
-7.0947854
-7.0205175
-7.0936726
-7.1709056
-7.1725327
-7.0667173
-6.8704875
-6.7008941
-6.6232004
-6.6198988
-6.654167
-6.7010652
-6.745996
-6.7873669
-6.7811242
-6.6046553
-6.0047228
-4.6211176
-2.5917972
-1.1642831
-2.1364839
-6.0264719
-9.9296998
-13.805022
-16.029013
-17.273829
-17.474515
-16.582964
-15.443369
-14.729739
-13.854316
-12.687086
-11.579385
-10.578168
-9.6673131
-8.8244554
-8.0436911
-7.3203369
-6.6502965
-6.0294329
-5.4542883
-4.921684
-4.4287862
-3.9730849
-3.552317
-3.1643402
-2.8072105
-2.4792419
-2.178902
-1.90485
-1.6557262
-1.4304974
-1.2282035
-1.047977
-0.88908292
-0.75089281
-0.63284804
-0.53436925
-0.45548047
-0.39582719
-0.34963217
2.1077017
2.0804259
2.0427891
1.9916631
1.9271703
1.8490878
1.7569025
1.6501436
1.52822
1.3903743
1.2357011
1.0631337
0.8714952
0.6594711
0.4256229
0.16838147
-0.11385364
-0.42265208
-0.75952863
-1.1259231
-1.5231345
-1.9522097
-2.4138379
-2.9083071
-3.4353231
-3.9938427
-4.5815114
-5.1947106
-5.8299488
-6.4772626
-7.0905149
-7.7327187
-7.6752253
-5.4830193
-5.9919163
-6.1623841
-6.0644997
-8.5094967
-7.8764343
-7.5170647
-7.6132683
-7.9968348
-8.5029432
-8.6432051
-8.3761606
-7.9217714
-7.6012694
-7.4759672
-7.4889269
-7.5945124
-7.7464246
-7.9455629
-8.2409121
-8.6056498
-8.8791701
-8.6867355
-7.1544977
-3.9720947
-1.3810419
-4.613675
-10.25949
-16.26606
-20.802931
-22.873878
-23.063633
-21.598629
-19.797483
-17.970497
-15.988095
-15.380681
-13.799335
-12.339071
-11.101666
-10.029319
-9.0612133
-8.1827408
-7.3815129
-6.6483822
-5.9761502
-5.3589478
-4.7918509
-4.2705669
-3.7914763
-3.3513684
-2.9474168
-2.57709
-2.2382203
-1.9287811
-1.6472924
-1.3920198
-1.161724
-0.9552233
-0.77150674
-0.60972404
-0.46913162
-0.34906719
-0.24883318
-0.16853693
-0.10772443
-0.059466316
2.3401523
2.3130426
2.2761421
2.2258375
2.1623095
2.0853839
1.9945241
1.8892238
1.7688036
1.6323806
1.478933
1.3072837
1.1160086
0.90345779
0.66787565
0.40735142
0.11985826
-0.19669977
-0.54438366
-0.92521069
-1.3411082
-1.7938892
-2.2851445
-2.8162162
-3.3881629
-4.0019104
-4.6579051
-5.3575797
-6.1052908
-6.8852482
-7.6567723
-8.4887799
-8.2091012
-6.0363254
-7.2093895
-8.2802399
-9.7535813
-9.3546227
-8.3550989
-8.3476117
-9.2515035
-10.128885
-11.244261
-11.601348
-10.689913
-9.521703
-8.8560006
-8.6229433
-8.6479941
-8.8359901
-9.1236391
-9.5122128
-10.173913
-11.256091
-12.696691
-14.0564
-13.419745
-9.5503512
-6.717695
-12.572554
-20.522309
-27.748021
-33.301676
-34.655163
-32.181958
-28.052472
-23.878148
-20.894172
-17.844342
-16.560142
-14.909289
-13.093908
-11.605188
-10.361581
-9.2602302
-8.2809029
-7.4010802
-6.6056639
-5.8835615
-5.2261525
-4.626478
-4.078809
-3.5782534
-3.1206406
-2.7024196
-2.3204941
-1.9721951
-1.6551845
-1.3672282
-1.1067903
-0.87231673
-0.66240756
-0.47590467
-0.31183269
-0.16935742
-0.04768317
0.053974809
0.1354128
0.19719462
0.24747373
2.5847469
2.5578014
2.5218145
2.4725608
2.4103195
2.3350361
2.2461323
2.1430367
2.0250252
1.8911489
1.7402444
1.5709509
1.3816285
1.1703417
0.93495266
0.67318985
0.38251126
0.06023309
-0.29625721
-0.68961541
-1.1225062
-1.5975531
-2.1172653
-2.6840232
-3.3005222
-3.970248
-4.6977914
-5.4944911
-6.376164
-7.2781429
-8.191627
-9.1857679
-10.240592
-10.082369
-11.078048
-12.211805
-12.230086
-11.177977
-9.9156227
-10.063041
-12.814617
-16.37387
-17.768024
-17.727427
-14.563372
-11.846259
-10.515733
-10.080588
-10.119798
-10.397575
-10.817373
-11.380389
-12.496775
-14.820675
-18.271517
-22.224032
-24.240374
-21.910265
-18.766187
-24.271273
-33.195537
-41.847555
-48.782118
-49.934192
-45.513975
-37.208461
-29.015114
-23.782423
-20.238905
-17.745701
-16.050862
-13.81024
-12.061398
-10.630916
-9.400076
-8.3226756
-7.367365
-6.5129909
-5.7443505
-5.0500281
-4.4209538
-3.8498313
-3.3305224
-2.8579071
-2.4276499
-2.0360994
-1.680086
-1.3568693
-1.0640465
-0.79969388
-0.56207389
-0.34967698
-0.16119147
0.0044777739
0.14824885
0.2710627
0.37376471
0.45603956
0.51856299
0.57078093
2.8411234
2.8143447
2.7794021
2.7314335
2.6708381
2.5976924
2.5113875
2.4113096
2.2967251
2.1666506
2.0198071
1.8545867
1.6691007
1.4611889
1.2283698
0.9678434
0.67659133
0.35128801
-0.011372396
-0.41469213
-0.86213662
-1.3571778
-1.9031634
-2.5034929
-3.1621147
-3.8850127
-4.6811094
-5.5697915
-6.5704741
-7.6235954
-8.6609814
-9.7264869
-10.945389
-11.793121
-13.097923
-14.810876
-16.482008
-17.098737
-16.04125
-11.892277
-18.209751
-26.378211
-35.389534
-30.995942
-21.501419
-15.58104
-12.788109
-11.845185
-11.861717
-12.236268
-12.689424
-13.355165
-15.014624
-18.735976
-25.290095
-34.06524
-41.842987
-40.195332
-33.031806
-32.420769
-41.439085
-51.389938
-59.022824
-61.399473
-56.773391
-45.75737
-33.856661
-26.634889
-22.766202
-19.375898
-16.863902
-14.365736
-12.39717
-10.804606
-9.4563143
-8.2903473
-7.2671773
-6.3603553
-5.5508892
-4.824689
-4.1707292
-3.5801428
-3.0456271
-2.5611808
-2.1216924
-1.7229237
-1.3612894
-1.0336896
-0.7375345
-0.47061665
-0.23103546
-0.017165174
0.17243332
0.33893414
0.4833472
0.60675784
0.71007859
0.79282247
0.85581871
0.90990831
3.1088243
3.0821378
3.048376
3.0019351
2.9433348
2.8727919
2.7897269
2.6935609
2.5835686
2.4586859
2.3175287
2.158344
1.9790062
1.7770222
1.5495439
1.2932764
1.0046121
0.67963302
0.31413871
-0.095900678
-0.55471021
-1.0666295
-1.6358804
-2.2666904
-2.9639159
-3.7348976
-4.5926439
-5.5639043
-6.6839298
-7.9050378
-9.113313
-10.326319
-11.521544
-12.515117
-14.496755
-18.713553
-24.130681
-27.494274
-26.116354
-22.556956
-23.557694
-16.02139
-1.3263469
-21.311793
-27.252006
-19.455812
-14.974729
-13.569376
-13.733134
-14.220517
-14.558069
-15.041968
-16.845789
-21.916448
-30.668261
-43.591259
-50.043022
-41.517927
-34.919551
-34.587431
-43.76029
-53.361131
-59.307011
-62.74054
-60.016707
-48.964279
-36.471914
-28.710053
-24.161833
-20.473201
-17.314988
-14.660275
-12.550842
-10.841964
-9.4025017
-8.1653915
-7.0871095
-6.1377218
-5.2955555
-4.544404
-3.871489
-3.2665532
-2.7213095
-2.2288963
-1.783505
-1.3803613
-1.0154996
-0.68555886
-0.38777007
-0.11974613
0.12052356
0.33478705
0.52455344
0.69106956
0.83542954
0.95884425
1.0623016
1.145124
1.2083236
1.2642177
3.3872661
3.3605749
3.3280883
3.2833672
3.2270319
3.1595479
3.0804082
2.9890797
2.8848747
2.7667014
2.6330925
2.4821754
2.311619
2.1185612
1.8996929
1.6512639
1.3690318
1.0483524
0.68413407
0.27140021
-0.19487934
-0.71990798
-1.3088138
-1.9665872
-2.6986725
-3.5127256
-4.4228657
-5.4618533
-6.6700657
-8.0356638
-9.4301699
-10.7821
-12.034045
-13.080371
-15.568695
-22.362879
-30.72505
-35.87073
-33.183738
-28.360325
-35.785393
38.143499
7.7824458
-23.02134
-27.782563
-19.662975
-15.320891
-14.689939
-15.590418
-16.370749
-16.267784
-15.84437
-16.684492
-21.416895
-30.968639
4.449902
18.636551
-21.753428
-27.366015
-40.957663
-42.335973
-49.56271
-53.938188
-56.954387
-54.288948
-45.950399
-36.000147
-29.196011
-24.594292
-20.745071
-17.409437
-14.67725
-12.496349
-10.717636
-9.2182986
-7.9320717
-6.8150208
-5.8358318
-4.9713314
-4.2038622
-3.5193461
-2.9064027
-2.3558681
-1.8600637
-1.412602
-1.0083101
-0.64284838
-0.3127784
-0.015182477
0.25240121
0.49204888
0.70557755
0.89453004
1.0602116
1.203776
1.3265887
1.4296994
1.5122022
1.5753145
1.6328736
3.6757724
3.6489482
3.6177477
3.574841
3.5209776
3.45696
3.3823901
3.296793
3.1995719
3.0897113
2.9657296
2.8256185
2.6667932
2.4860537
2.2796452
2.0432577
1.7719686
1.4603432
1.1023838
0.69189064
0.22283823
-0.31101107
-0.91582062
-1.5973486
-2.36142
-3.2151014
-4.1697787
-5.2508378
-6.5050675
-7.9551548
-9.5058484
-11.004334
-12.356071
-13.577748
-16.440459
-23.465727
-30.636817
-28.930414
-32.824341
-28.094309
-41.847766
5.4742387
-7.6757176
-42.160556
-36.649615
-19.722896
-14.851307
-15.034234
-17.826699
-19.75517
-18.183991
-14.909621
-12.976522
-16.9653
-30.288519
-48.175974
-30.645853
-35.950384
-68.441203
-47.616104
-30.317723
-40.469421
-46.371542
-48.650288
-45.523474
-39.620992
-33.312084
-28.212714
-24.088203
-20.384943
-17.100646
-14.402953
-12.220092
-10.417032
-8.8898832
-7.5783509
-6.4409258
-5.44671
-4.5720805
-3.7985668
-3.1111952
-2.4977616
-1.9482721
-1.454363
-1.0091584
-0.60713449
-0.2440371
0.083808841
0.3793098
0.64490714
0.88265524
1.0943307
1.2814911
1.4454814
1.5875195
1.7091063
1.8113226
1.8930348
1.955722
2.0147428
3.9735756
3.9463816
3.9163783
3.8753055
3.8240359
3.7637585
3.6942544
3.6151999
3.5261813
3.4263241
3.3141543
3.1875634
3.0437463
2.8792145
2.6897114
2.4703065
2.2153175
1.918435
1.5725663
1.1702538
0.70403473
0.16628246
-0.45056606
-1.1535293
-1.9492771
-2.8445719
-3.8481095
-4.9758084
-6.2770213
-7.8212138
-9.5321501
-11.197504
-12.573849
-13.667798
-15.658509
-19.392831
-22.305616
-18.653586
-16.404931
-10.520962
-6.4006777
25.316533
-20.387316
-61.639082
-42.912901
-13.565975
-9.0765908
-13.010733
-21.838203
-27.536002
-23.685794
-13.188468
-6.4303304
-9.6393505
-15.404424
-29.705633
-49.873534
104.75356
-17.872377
-17.970736
-8.5226351
-26.680648
-37.76796
-41.358511
-38.599922
-34.18583
-30.275927
-26.555934
-22.947604
-19.531987
-16.444529
-13.857935
-11.725336
-9.9357788
-8.4096718
-7.0958754
-5.9570306
-4.9637577
-4.09268
-3.3249101
-2.6448306
-2.0395786
-1.4984368
-1.0124415
-0.57433109
-0.17837994
0.17944086
0.50274094
0.79432358
1.0564695
1.2910892
1.4998623
1.6843213
1.8458073
1.9855965
2.1052894
2.2060028
2.2863768
2.3482563
2.4085231
4.2798801
4.2519228
4.2229054
4.1835402
4.1347825
4.0783073
4.0141835
3.9423547
3.8626919
3.7745245
3.6764338
3.5662779
3.4411223
3.2971735
3.1296942
2.9329831
2.7005608
2.4251331
2.0983345
1.7111393
1.2544109
0.71868708
0.0942106
-0.62831398
-1.4578988
-2.4035127
-3.4739601
-4.6828402
-6.1057053
-7.8427728
-9.8319756
-11.85526
-13.318089
-14.211336
-14.153936
-15.597664
-16.127125
-13.072551
-0.81797606
14.794571
11.019795
31.123001
3.6717571
-57.728547
-19.755829
-60.47737
181.85775
763.54864
1564.804
2139.268
2065.0629
1335.6726
657.32849
193.02671
-80.336613
-19.890691
-13.850349
73.530555
21.46146
3.686273
6.4344598
-12.783577
-29.201602
-33.95432
-33.04382
-31.103771
-28.232766
-24.993837
-21.59212
-18.446789
-15.556561
-13.09522
-11.031894
-9.2782997
-7.7748515
-6.4789536
-5.3571706
-4.3815796
-3.5290499
-2.7802849
-2.1190743
-1.5318602
-1.0073747
-0.53614009
-0.11001866
0.27581262
0.62540943
0.9419415
1.2279296
1.4853398
1.7157594
1.9206941
2.1016203