/*--------------------------------*- C++ -*----------------------------------*\
  =========                 |
  \\      /  F ield         | OpenFOAM: The Open Source CFD Toolbox
   \\    /   O peration     | Website:  https://openfoam.org
    \\  /    A nd           | Version:  9
     \\/     M anipulation  |
\*---------------------------------------------------------------------------*/
FoamFile
{
    format      ascii;
    class       surfaceScalarField;
    location    "0.51";
    object      phi;
}
// * * * * * * * * * * * * * * * * * * * * * * * * * * * * * * * * * * * * * //

dimensions      [0 3 -1 0 0 0 0];

internalField   nonuniform List<scalar> 
19800
(
9.6062453e-05
-7.4950931e-05
0.00014051864
-7.4151362e-05
0.00018478125
-7.3741042e-05
0.00022867005
-7.2865905e-05
0.00027225977
-7.2165952e-05
0.00031549794
-7.1230435e-05
0.00035836613
-7.0310557e-05
0.0004008425
-6.9321474e-05
0.000442936
-6.8354078e-05
0.00048464985
-6.7415661e-05
0.0005259737
-6.6489304e-05
0.00056696154
-6.5694577e-05
0.00060757261
-6.4874883e-05
0.00064788172
-6.4317485e-05
0.00068786593
-6.3849541e-05
0.00072759869
-6.3589144e-05
0.00076709055
-6.3492877e-05
0.0008063569
-6.3594032e-05
0.00084546514
-6.3906691e-05
0.00088442037
-6.4402633e-05
0.00092319624
-6.509791e-05
0.00096177068
-6.5902355e-05
0.0010001594
-6.6771625e-05
0.0010382939
-6.7690607e-05
0.0010760303
-6.8485831e-05
0.0011132284
-6.9066891e-05
0.0011496751
-6.9180776e-05
0.0011851
-6.8640816e-05
0.0012191612
-6.7312629e-05
0.0012513566
-6.4867037e-05
0.0012810703
-6.1112732e-05
0.0013075843
-5.5845283e-05
0.0013300186
-4.8893243e-05
0.0013472765
-3.9881248e-05
0.0013579347
-2.8497903e-05
0.001359788
-1.45138e-05
0.0013564474
5.3173742e-07
0.0013445893
2.0611887e-05
0.0013232583
4.2396368e-05
0.0012923691
6.5689991e-05
0.0012518649
9.0277882e-05
0.0012020683
0.00011551796
0.0011435273
0.00014056567
0.0010771302
0.00016450235
0.0010040949
0.0001861373
0.00092587669
0.00020439629
0.00084416297
0.00021825119
0.00076098844
0.00022683963
0.00067839532
0.00022966665
0.00059858641
0.00022638705
0.00052370798
0.00021688617
0.00045582356
0.00020150321
0.00039671311
0.00018073379
0.00034784464
0.00015548867
0.00031033017
0.00012684214
0.00028462222
9.6329172e-05
0.0002706527
6.5344653e-05
0.000267859
3.5396369e-05
0.00027566878
7.4489e-06
0.00029044173
-1.4421962e-05
0.0003117285
-3.2265827e-05
0.0003380354
-4.4594663e-05
0.00036595349
-5.1128793e-05
0.00039273687
-5.2468031e-05
0.00041596322
-4.8987428e-05
0.0004335651
-4.1540206e-05
0.00044361776
-3.0853922e-05
0.00044490149
-1.7466056e-05
0.00043850458
-1.7643373e-06
0.00042759944
1.4822522e-05
0.00040779248
3.0933202e-05
0.00038061884
4.5726883e-05
0.00034749034
5.9223875e-05
0.00031041577
7.0804692e-05
0.00027062922
8.0565423e-05
0.00022871453
8.8485439e-05
0.00018556112
9.4248705e-05
0.00014237692
9.7749514e-05
0.00010013773
9.9241039e-05
5.9667984e-05
9.8906598e-05
2.1681011e-05
9.6982896e-05
-1.322667e-05
9.368584e-05
-4.4470007e-05
8.9190074e-05
-7.1516695e-05
8.3852864e-05
-9.4103099e-05
7.7575969e-05
-0.0001123514
7.0388794e-05
-0.00012637455
6.2438689e-05
-0.00013633492
5.3885939e-05
-0.00014239738
4.4996454e-05
-0.00014469409
3.5871733e-05
-0.0001433614
2.6590952e-05
-0.0001386313
1.7447358e-05
-0.00013080178
8.5258297e-06
-0.00012069931
1.9230796e-07
-0.0001099295
-7.5793529e-06
-9.7624039e-05
-1.4992108e-05
-8.2460446e-05
-2.0175449e-05
-6.5225934e-05
-2.4275108e-05
-4.6324573e-05
-2.7283224e-05
-2.969224e-05
9.6712722e-05
-0.00011994394
0.00014138643
-0.00011883375
0.00018578126
-0.00011813324
0.0002298358
-0.00011692423
0.00027352442
-0.00011585334
0.0003168209
-0.00011452633
0.0003597248
-0.00011321481
0.00040223772
-0.00011183052
0.00044426526
-0.00011038864
0.00048588427
-0.00010903169
0.00052709928
-0.00010770695
0.00056790248
-0.00010650057
0.0006083148
-0.00010528176
0.00064839161
-0.00010439679
0.00068814692
-0.00010360647
0.00072762973
-0.00010306784
0.00076682143
-0.00010268564
0.00080582772
-0.00010259971
0.00084463192
-0.00010270571
0.00088327604
-0.00010304778
0.00092178736
-0.00010361225
0.00096024659
-0.0001043583
0.00099855629
-0.00010507864
0.0010366984
-0.00010583383
0.001074663
-0.0001064483
0.0011122899
-0.00010669008
0.0011494654
-0.00010635706
0.0011858829
-0.00010505927
0.0012211888
-0.00010261501
0.0012549358
-9.8611273e-05
0.0012865046
-9.2684117e-05
0.0013151984
-8.4542537e-05
0.0013400429
-7.3738199e-05
0.0013600001
-5.9837783e-05
0.0013741703
-4.2669968e-05
0.0013816533
-2.1999928e-05
0.0013801701
2.0153126e-06
0.001370523
3.0260278e-05
0.0013513823
6.1533982e-05
0.0013219532
9.5116046e-05
0.0012819449
0.00013028616
0.0012315295
0.00016593207
0.0011711592
0.00020093228
0.0011016466
0.00023400941
0.0010243452
0.00026343538
0.00094088611
0.00028785908
0.00085316706
0.0003059731
0.00076339807
0.00031660672
0.00067403551
0.00031902658
0.000587505
0.00031291748
0.00050621518
0.00029817829
0.00043248093
0.00027523736
0.00036857084
0.0002446411
0.00031613166
0.00020792835
0.00027632243
0.00016665614
0.00024991016
0.00012274651
0.00023690598
7.8351943e-05
0.0002366583
3.564421e-05
0.00024763223
-3.5275653e-06
0.00026873257
-3.5524255e-05
0.0002968127
-6.0348495e-05
0.00032913853
-7.6919805e-05
0.00036285581
-8.4847771e-05
0.00039500801
-8.4620053e-05
0.00042298314
-7.6965269e-05
0.00044452247
-6.3080312e-05
0.00045796378
-4.4296449e-05
0.00046246143
-2.1965909e-05
0.0004583366
2.3598278e-06
0.00044581837
2.7338628e-05
0.00042537819
5.1367409e-05
0.0003973448
7.3753149e-05
0.00036325862
9.3306453e-05
0.00032393176
0.00011013187
0.00028104092
0.0001234569
0.00023609287
0.00013343486
0.00019035015
0.00013999287
0.0001447793
0.00014331916
0.00010036183
0.0001436567
5.7939993e-05
0.00014132682
1.8263002e-05
0.00013665757
-1.8048267e-05
0.0001299956
-5.0524178e-05
0.0001216644
-7.8659399e-05
0.00011198466
-0.00010233187
0.000101245
-0.00012151858
8.9574236e-05
-0.00013628203
7.7201159e-05
-0.00014674947
6.4353679e-05
-0.00015303574
5.1282283e-05
-0.00015532715
3.8161481e-05
-0.000154037
2.5297991e-05
-0.00014921521
1.2624803e-05
-0.00014140818
7.1778779e-07
-0.00013145473
-9.7596154e-06
-0.00011876934
-2.0264541e-05
-0.00010429093
-2.9469452e-05
-8.7512752e-05
-3.6957656e-05
-6.8805696e-05
-4.298143e-05
-4.8875357e-05
-4.7217754e-05
-5.0959958e-05
9.736335e-05
-0.00016504356
0.00014214344
-0.0001636121
0.0001866405
-0.00016263269
0.00023081159
-0.00016109433
0.00027460279
-0.00015964471
0.00031800112
-0.00015792622
0.00036099063
-0.00015619965
0.00040346383
-0.00015430854
0.0004455663
-0.00015248682
0.00048716665
-0.0001506323
0.00052833287
-0.00014887577
0.00056902947
-0.00014719122
0.0006094389
-0.00014569115
0.00064938728
-0.00014434611
0.00068902194
-0.00014323664
0.00072829634
-0.00014234256
0.00076732058
-0.00014171045
0.0008060921
-0.00014136652
0.00084473747
-0.00014135068
0.00088332206
-0.0001416356
0.00092177809
-0.0001420664
0.00096008243
-0.00014266013
0.00099854704
-0.00014354488
0.0010370167
-0.00014430291
0.0010753728
-0.00014480084
0.0011136004
-0.00014491793
0.0011516579
-0.00014441686
0.0011892634
-0.00014266262
0.0012261652
-0.0001395139
0.0012618319
-0.00013428044
0.0012956433
-0.0001264987
0.0013269728
-0.00011587075
0.0013548728
-0.00010163789
0.0013782549
-8.3223641e-05
0.0013960788
-6.0497079e-05
0.0014071296
-3.3051451e-05
0.0014097059
-5.6196058e-07
0.0014031978
3.6766293e-05
0.0013870165
7.771192e-05
0.0013597155
0.00012241586
0.0013208367
0.0001691654
0.0012701621
0.00021660414
0.0012079813
0.00026311101
0.001135236
0.00030675584
0.0010530105
0.00034566101
0.0009629588
0.00037791015
0.00086734802
0.00040158209
0.00076862117
0.00041533232
0.00066961046
0.00041803849
0.00057344121
0.00040908807
0.0004829008
0.00038871958
0.00040082347
0.00035731566
0.00032967838
0.0003157885
0.00027196291
0.00026564841
0.00022920466
0.00020941935
0.00020209756
0.00014985442
0.00019091825
8.9528515e-05
0.00019431838
3.2241201e-05
0.00021125389
-2.0461757e-05
0.00024011326
-6.4379228e-05
0.00027702468
-9.7257249e-05
0.0003183966
-0.00011829363
0.00036073815
-0.00012719574
0.0004005825
-0.00012446835
0.00043495613
-0.00011133467
0.00046147754
-8.9604613e-05
0.00047854124
-6.1353902e-05
0.00048534687
-2.8771238e-05
0.00048166074
6.0405224e-06
0.00046807943
4.0915115e-05
0.00044551798
7.3926121e-05
0.00041515701
0.00010411183
0.00037820971
0.00013025283
0.00033620656
0.000152135
0.00029035748
0.00016930613
0.00024232151
0.00018147168
0.00019343799
0.00018887646
0.00014494468
0.00019181059
9.7886445e-05
0.00019071357
5.3175578e-05
0.0001860369
1.1566333e-05
0.00017826563
-2.6316153e-05
0.00016787523
-6.0103592e-05
0.00015544886
-8.9364774e-05
0.0001412448
-0.00011397369
0.00012585238
-0.00013385885
0.00010945886
-0.00014903429
9.2376668e-05
-0.00015972962
7.5048557e-05
-0.00016608327
5.7633779e-05
-0.00016837785
4.0454112e-05
-0.0001668606
2.3779122e-05
-0.00016203954
7.8038229e-06
-0.00015318635
-8.1343837e-06
-0.00014144396
-2.150259e-05
-0.00012727541
-3.443199e-05
-0.00011133263
-4.5413189e-05
-9.3292181e-05
-5.4998596e-05
-7.3386312e-05
-6.2890453e-05
-5.1886812e-05
-6.8716448e-05
-7.3526942e-05
9.8264501e-05
-0.00021040736
0.00014326294
-0.00020861613
0.00018797862
-0.00020734814
0.00023232211
-0.00020543874
0.00027623721
-0.00020356231
0.00031969475
-0.0002013804
0.00036265708
-0.00019916725
0.00040525438
-0.00019690267
0.00044724985
-0.00019448174
0.00048881976
-0.00019220568
0.00052988042
-0.00018993215
0.0005704989
-0.00018780937
0.00061067248
-0.00018586637
0.00065046414
-0.0001841335
0.00068988003
-0.00018265141
0.00072890663
-0.00018136986
0.00076768335
-0.00018048249
0.0008062611
-0.00017994193
0.00084463944
-0.00017973174
0.00088294008
-0.00017993571
0.00092121782
-0.00018034189
0.0009596272
-0.00018107149
0.00099809788
-0.00018201701
0.0010367092
-0.00018291149
0.0010755904
-0.00018368122
0.0011146552
-0.00018398558
0.0011537678
-0.00018352998
0.0011929047
-0.00018179723
0.0012316751
-0.00017828493
0.00126979
-0.00017239926
0.0013067883
-0.00016349758
0.0013416635
-0.00015074322
0.0013734329
-0.00013340934
0.0014011703
-0.00011096778
0.0014233374
-8.2666758e-05
0.0014385014
-4.8213982e-05
0.0014453352
-7.3974752e-06
0.0014429066
3.9190445e-05
0.0014294123
9.1203266e-05
0.0014041238
0.00014770476
0.0013659034
0.00020738818
0.0013143582
0.00026814836
0.0012495985
0.00032786908
0.0011721843
0.00038417135
0.0010834563
0.0004343884
0.00098522638
0.00047613749
0.000880044
0.0005067629
0.00077073183
0.00052464614
0.0006605419
0.00052823221
0.00055289743
0.0005167342
0.00045138979
0.00049022745
0.00035959907
0.0004491081
0.0002808227
0.00039456929
0.00021777546
0.00032869867
0.00017229786
0.00025489711
0.0001458139
0.00017633593
0.00013746012
9.788299e-05
0.0001481996
2.1504043e-05
0.00017287969
-4.513687e-05
0.00021051501
-0.00010201427
0.00025796571
-0.00014471114
0.00031069019
-0.00017102349
0.00036408696
-0.00018059546
0.00041390171
-0.00017428461
0.00045658374
-0.0001540086
0.00048941034
-0.00012242993
0.00051064878
-8.2598295e-05
0.0005195234
-3.7650488e-05
0.00051603024
9.5329974e-06
0.00050089943
5.6045079e-05
0.00047538255
9.9443877e-05
0.0004407849
0.00013870798
0.0003989717
0.00017206258
0.00035192612
0.00019918212
0.00030138209
0.00021985161
0.00024877905
0.00023407391
0.00019565321
0.00024200219
0.00014327287
0.0002441889
9.2800467e-05
0.00024118486
4.5133762e-05
0.00023370524
1.0252845e-06
0.00022237404
-3.8950486e-05
0.00020784941
-7.4370528e-05
0.00019086674
-0.00010482864
0.00017170146
-0.000130315
0.00015133929
-0.00015075566
0.00012989973
-0.00016627396
0.00010789334
-0.00017695391
8.5727617e-05
-0.0001830344
6.3712044e-05
-0.00018473713
4.2153652e-05
-0.00018223511
2.1275563e-05
-0.00017591471
1.4840362e-06
-0.00016671576
-1.7332318e-05
-0.00015397339
-3.4246284e-05
-0.00013856615
-4.9838352e-05
-0.00012070416
-6.3277321e-05
-0.0001007797
-7.4920543e-05
-7.9072406e-05
-8.4597431e-05
-5.5922769e-05
-9.186697e-05
-9.7916639e-05
9.9472777e-05
-0.00025606316
0.00014466908
-0.0002538134
0.00018968048
-0.00025236081
0.00023420392
-0.00024996508
0.00027831501
-0.00024766959
0.00032187979
-0.00024494988
0.00036504482
-0.00024232929
0.00040751491
-0.00023937147
0.0004495554
-0.00023652585
0.00049102719
-0.00023367398
0.00053201999
-0.00023092399
0.00057249753
-0.000228289
0.00061239316
-0.00022575867
0.00065194625
-0.00022368547
0.00069105884
-0.00022176598
0.00072986153
-0.0002201694
0.00076847751
-0.00021909531
0.00080672343
-0.00021818966
0.00084477231
-0.00021778066
0.00088275797
-0.00021791914
0.00092086284
-0.00021844864
0.00095912179
-0.00021933339
0.00099748986
-0.00022038374
0.0010363038
-0.00022172428
0.0010755789
-0.00022295902
0.0011154326
-0.00022384103
0.0011558618
-0.00022395807
0.0011968291
-0.00022276504
0.0012381447
-0.00021960324
0.0012794619
-0.00021371715
0.0013202162
-0.00020425042
0.0013597227
-0.00019025025
0.0013968521
-0.00017054268
0.0014303899
-0.00014450974
0.0014587825
-0.00011105933
0.0014804727
-6.9902876e-05
0.0014936605
-2.0588369e-05
0.0014964622
3.6384597e-05
0.0014871532
0.00010051197
0.0014643239
0.00017053623
0.0014268393
0.0002448749
0.0013738492
0.00032113711
0.0013052155
0.00039649982
0.0012216209
0.0004677661
0.0011242451
0.00053176452
0.0010152076
0.00058517472
0.00089717705
0.00062479333
0.00077369747
0.00064812707
0.00064869274
0.00065323956
0.00052628704
0.00063914106
0.00041075316
0.00060576158
0.00030607185
0.00055378879
0.0002168525
0.00048378968
0.00014606739
0.00039948394
9.6009935e-05
0.00030495569
6.7848249e-05
0.00020449849
6.2835986e-05
0.00010289989
7.9067292e-05
5.2730697e-06
0.00011582227
-8.1893892e-05
0.00016763952
-0.00015383563
0.00023093748
-0.00020801091
0.00030006581
-0.00024014817
0.00036908949
-0.00024962109
0.00043271037
-0.00023790636
0.00048662493
-0.0002079302
0.00052770182
-0.00016350954
0.00055412087
-0.00010901662
0.0005652734
-4.8802095e-05
0.00056135181
1.3455624e-05
0.00054344427
7.395425e-05
0.00051360969
0.00012927914
0.00047384249
0.00017847524
0.00042598999
0.00021991503
0.00037244163
0.00025273104
0.00031528653
0.00027700786
0.00025647584
0.0002928857
0.00019758059
0.00030089735
0.00014006459
0.00030170281
8.5065994e-05
0.00029618135
3.3591814e-05
0.00028517869
-1.3614878e-05
0.000269579
-5.6024116e-05
0.00025025585
-9.3046872e-05
0.0002278873
-0.00012518408
0.00020383637
-0.00015172425
0.00017787695
-0.00017284738
0.00015102104
-0.00018842018
0.00012346436
-0.000198893
9.6199012e-05
-0.00020445605
6.9273594e-05
-0.00020531117
4.3010748e-05
-0.0002019159
1.7881687e-05
-0.00019449464
-5.9373949e-06
-0.00018360723
-2.821808e-05
-0.00016928993
-4.8563368e-05
-0.00015213475
-6.6993025e-05
-0.00013225431
-8.3156356e-05
-0.00011037562
-9.6799389e-05
-8.6425285e-05
-0.0001085454
-6.1332287e-05
-0.00011696281
-0.00012465568
0.00010099575
-0.00030210974
0.00014658171
-0.00029940069
0.00019183842
-0.0002976201
0.00023657699
-0.00029470084
0.00028081606
-0.00029191364
0.00032461923
-0.00028875039
0.00036774069
-0.00028544938
0.00041039462
-0.00028202977
0.00045239611
-0.00027852548
0.00049382217
-0.0002750995
0.00053460651
-0.00027171078
0.00057487607
-0.00026855564
0.00061467201
-0.00026555305
0.00065389736
-0.0002629137
0.00069272711
-0.0002605946
0.00073123521
-0.00025867476
0.00076929899
-0.00025716057
0.00080720075
-0.00025609178
0.00084497362
-0.00025555088
0.00088264251
-0.00025558911
0.00092031273
-0.00025612266
0.00095823302
-0.00025725357
0.00099660863
-0.0002587577
0.001035542
-0.00026065997
0.0010752546
-0.00026267442
0.0011158606
-0.00026444581
0.0011576721
-0.00026576856
0.0012006604
-0.00026575596
0.0012447234
-0.00026366739
0.0012896604
-0.00025865141
0.0013351222
-0.00024971164
0.0013801216
-0.0002352536
0.0014238996
-0.00021432324
0.0014647555
-0.00018536468
0.0015010584
-0.00014736143
0.0015306466
-9.9492976e-05
0.0015514439
-4.1389029e-05
0.0015611665
2.6662044e-05
0.0015576851
0.00010399675
0.001538932
0.00018929012
0.0015032565
0.00028054843
0.0014494056
0.00037498573
0.001376866
0.00046903887
0.0012858754
0.00055875856
0.0011777582
0.00063988243
0.0010549726
0.00070795959
0.00092066025
0.00075910536
0.00077909298
0.00078969521
0.00063478196
0.00079755118
0.00049293783
0.00078098225
0.00035861735
0.00074007894
0.00023726618
0.00067513783
0.000133695
0.00058736423
5.1689095e-05
0.00048149397
-5.4787299e-06
0.00036212697
-3.4740108e-05
0.00023375801
-3.5466006e-05
0.00010362283
-8.3575971e-06
-2.1838564e-05
4.2925765e-05
-0.00013317992
0.00011447157
-0.00022537836
0.00019863581
-0.000292177
0.00028970173
-0.00033121029
0.00037952763
-0.0003394513
0.00046119393
-0.00031957407
0.00052938455
-0.00027611864
0.00058051625
-0.00021464049
0.00061278517
-0.00014128526
0.00062580743
-6.1821942e-05
0.00061981623
1.9446e-05
0.00059804077
9.5725421e-05
0.00056189612
0.00016542215
0.00051430297
0.00022606872
0.00045817229
0.00027604609
0.00039618574
0.00031471984
0.00033078084
0.00034241572
0.0002641293
0.00035953757
0.0001981519
0.00036687379
0.00013434826
0.00036550645
7.3971997e-05
0.000356559
1.793714e-05
0.0003412137
-3.2890389e-05
0.00032040542
-7.8304797e-05
0.00029567092
-0.00011776515
0.00026734659
-0.00015106667
0.00023713667
-0.00017842066
0.00020523061
-0.0001998123
0.00017241174
-0.00021560015
0.00013924916
-0.00022571571
0.00010631204
-0.00023052803
7.4083628e-05
-0.00023048096
4.296343e-05
-0.00022576226
1.3162201e-05
-0.00021681306
-1.4886946e-05
-0.00020395158
-4.1080485e-05
-0.00018764568
-6.4865799e-05
-0.00016831058
-8.6331471e-05
-0.00014626692
-0.00010519937
-0.00012171169
-0.00012135744
-9.5235561e-05
-0.00013502325
-6.760043e-05
-0.0001445998
-0.00015412707
0.00010285117
-0.00034860479
0.00014881925
-0.00034537034
0.00019439539
-0.00034319231
0.0002394402
-0.00033975158
0.00028392499
-0.0003363961
0.00032784746
-0.00033267196
0.00037109633
-0.000328703
0.00041377579
-0.00032470835
0.00045571721
-0.00032046719
0.00049706807
-0.00031645369
0.00053773444
-0.00031237486
0.00057785608
-0.00030867526
0.00061731892
-0.00030501894
0.00065628823
-0.0003018833
0.00069478713
-0.00029909137
0.00073280319
-0.00029669214
0.00077052502
-0.00029488292
0.00080795962
-0.00029352314
0.00084520113
-0.0002927919
0.00088236608
-0.00029275755
0.00091968195
-0.00029343932
0.00095717217
-0.00029474198
0.00099535812
-0.00029694484
0.0010342879
-0.00029959251
0.001074169
-0.0003025547
0.0011155149
-0.00030578895
0.0011585403
-0.00030879398
0.0012035922
-0.0003108091
0.001250724
-0.0003107977
0.0012998723
-0.00030779684
0.0013506413
-0.00030048206
0.0014024903
-0.00028710643
0.0014540803
-0.00026591319
0.0015039527
-0.00023523476
0.0015500038
-0.00019341424
0.0015897389
-0.00013923176
0.0016204014
-7.2051421e-05
0.0016390617
8.0059791e-06
0.0016433512
9.9710165e-05
0.0016303836
0.00020225524
0.001597638
0.00031329129
0.0015433394
0.00042928542
0.0014663215
0.0005460591
0.0013666824
0.00065839786
0.0012456871
0.00076087469
0.0011059123
0.00084773281
0.00095143855
0.00091358011
0.00078700261
0.00095413166
0.00061856356
0.00096598825
0.0004520738
0.00094746709
0.00029384166
0.00089831024
0.00015074548
0.00081823563
2.8135428e-05
0.00070997772
-6.8883065e-05
0.00057851212
-0.00013432301
0.00042756312
-0.00016516613
0.00026459844
-0.00016014598
9.8602654e-05
-0.00012073745
-6.1243159e-05
-4.9681515e-05
-0.00020423808
4.690692e-05
-0.00032196853
0.00016065097
-0.00040591965
0.00028059119
-0.00045114826
0.0003978366
-0.00045669395
0.00050280134
-0.00042454138
0.00058870789
-0.0003620261
0.0006516531
-0.00027758303
0.00069000127
-0.0001796294
0.00070411073
-7.5932407e-05
0.00069473455
2.8820969e-05
0.000666256
0.00012420394
0.00062117794
0.00021049766
0.00056322202
0.0002840241
0.00049609263
0.00034317666
0.00042319141
0.00038762034
0.00034732664
0.00041828035
0.00027104619
0.00043581755
0.00019642866
0.00044149061
0.00012515091
0.00043678441
5.8424605e-05
0.00042328535
-2.9153007e-06
0.00040255452
-5.7695685e-05
0.00037518561
-0.00010588291
0.00034385678
-0.00014797894
0.00030943977
-0.00018304942
0.00027220579
-0.00021136015
0.00023353898
-0.00023293147
0.00019398187
-0.00024842991
0.00015474849
-0.00025789169
0.00011577365
-0.0002616447
7.7835403e-05
-0.0002600527
4.1371669e-05
-0.00025369514
6.8025657e-06
-0.00024277656
-2.5805001e-05
-0.00022783673
-5.6021418e-05
-0.00020907787
-8.3618544e-05
-0.00018712076
-0.00010828502
-0.00016234186
-0.00012997761
-0.00013510187
-0.00014859612
-0.0001056346
-0.00016449408
-7.5051181e-05
-0.00017518278
-0.00018668214
0.00010505624
-0.00039564966
0.0001514703
-0.00039178106
0.00019745251
-0.00038917992
0.00024288387
-0.00038518061
0.0002876112
-0.00038112323
0.00033170197
-0.00037676805
0.00037516344
-0.00037216405
0.0004178444
-0.00036738991
0.00045973868
-0.0003623651
0.00050098948
-0.00035770229
0.00054155868
-0.00035294117
0.00058136031
-0.00034847922
0.00062064637
-0.00034430565
0.00065913525
-0.00034037028
0.00069720321
-0.00033716047
0.00073485436
-0.00033434386
0.0007719737
-0.00033199835
0.00080891707
-0.00033046427
0.00084544681
-0.00032932406
0.00088197703
-0.0003292887
0.00091866498
-0.00033012522
0.00095582928
-0.00033190673
0.0009933014
-0.00033441947
0.0010318147
-0.00033810474
0.0010717097
-0.00034244576
0.0011134505
-0.00034752812
0.0011576928
-0.00035303632
0.0012046388
-0.000357753
0.0012549283
-0.00036108448
0.0013086573
-0.00036152587
0.0013656189
-0.00035744597
0.0014252547
-0.00034674375
0.0014863855
-0.00032704394
0.0015473214
-0.0002961716
0.0016055887
-0.00025168452
0.0016581777
-0.00019182151
0.0017014964
-0.0001153667
0.001732115
-2.2609005e-05
0.0017466163
8.5208962e-05
0.0017415818
0.0002072878
0.0017136826
0.00034119206
0.0016598268
0.00048314464
0.0015781294
0.00062775597
0.0014683374
0.00076818634
0.001331516
0.00089769351
0.0011711831
0.0010080668
0.0009917308
0.0010930332
0.00079924271
0.0011466169
0.00060031841
0.001164911
0.00040284339
0.0011449437
0.00021444054
0.0010867179
4.3492772e-05
0.00098918359
-0.00010457411
0.00085803951
-0.00021985967
0.00069379262
-0.00029661424
0.00050431491
-0.00033066824
0.00029865341
-0.00031955219
8.7488027e-05
-0.00026367391
-0.00011712164
-0.00016713039
-0.00030077733
-3.7307051e-05
-0.00045179257
0.00011436535
-0.00055758699
0.00027422151
-0.00061100393
0.00042792729
-0.00061040356
0.00056259293
-0.0005592093
0.00067020719
-0.00046963906
0.00074656667
-0.00035394218
0.00079064538
-0.00022370828
0.00080380571
-8.9091976e-05
0.00078965014
4.2975613e-05
0.00075043548
0.00016341584
0.00069295115
0.00026797981
0.00062135256
0.00035562253
0.00054009109
0.00042443756
0.00045321087
0.00047449948
0.00036432656
0.0005071656
0.00027631144
0.00052383431
0.00019143517
0.00052636664
0.000111425
0.00051679402
3.7550846e-05
0.00049716013
-2.9074928e-05
0.00046918142
-8.8979221e-05
0.00043509226
-0.0001410818
0.00039596151
-0.00018519299
0.00035355174
-0.00022169295
0.00030870473
-0.00025076468
0.00026260803
-0.00027254421
0.00021575761
-0.0002873953
0.00016959683
-0.00029580234
0.00012418054
-0.00029813237
8.016375e-05
-0.00029478755
3.8026129e-05
-0.00028612845
-1.8580573e-06
-0.00027268448
-3.9248987e-05
-0.00025509744
-7.3607269e-05
-0.0002336371
-0.00010507767
-0.0002087308
-0.00013318729
-0.00018082471
-0.00015788254
-0.00015053169
-0.00017889069
-0.00011773213
-0.00019729545
-8.3833162e-05
-0.00020908306
-0.00022264959
0.00010773015
-0.00044334962
0.00015459764
-0.00043865564
0.00020112555
-0.00043570403
0.0002468715
-0.00043092699
0.00029193656
-0.00042619316
0.00033628391
-0.00042111458
0.00037984302
-0.00041572391
0.0004226284
-0.00041017889
0.00046458252
-0.00040431675
0.0005056324
-0.00039874822
0.00054602754
-0.00039333716
0.00058553687
-0.00038798825
0.0006243879
-0.00038315405
0.00066268955
-0.00037867254
0.00070022857
-0.00037470017
0.00073718325
-0.00037129434
0.00077372484
-0.00036853621
0.00080987535
-0.00036661595
0.00084594085
-0.00036539048
0.00088186865
-0.00036521434
0.00091769198
-0.0003659482
0.00095365831
-0.00036787556
0.00099027714
-0.00037103788
0.0010280996
-0.00037592264
0.0010675318
-0.00038187501
0.0011093569
-0.00038935329
0.001154068
-0.00039774571
0.0012027453
-0.00040642594
0.0012560546
-0.00041439223
0.0013145638
-0.00042003774
0.0013783779
-0.0004212624
0.0014470805
-0.0004154468
0.0015194666
-0.00039943166
0.0015937251
-0.00037043337
0.0016672377
-0.00032519871
0.0017360135
-0.00026059507
0.00179538
-0.00017473023
0.0018414124
-6.8640056e-05
0.0018695817
5.7040745e-05
0.0018759463
0.00020092443
0.0018555581
0.00036158238
0.0018037504
0.00053495277
0.0017178724
0.00071363118
0.0015964323
0.0008896252
0.0014411377
0.001052989
0.0012553412
0.0011938657
0.0010449417
0.0013034339
0.00081727773
0.0013742802
0.00058092818
0.0014012612
0.0003445236
0.0013813495
0.00011810383
0.0013131383
-9.0107757e-05
0.0011973935
-0.00026857452
0.0010365032
-0.00040863109
0.00083384616
-0.00050143421
0.00059711766
-0.000540556
0.00033777473
-0.00052253349
6.9470984e-05
-0.00044634778
-0.00019330756
-0.00031646653
-0.00043066051
-0.00014296005
-0.00062530274
6.036091e-05
-0.00076090741
0.00027414328
-0.00082478247
0.00047603553
-0.00081229442
0.00064833405
-0.00073150986
0.00078174339
-0.00060305189
0.00087251375
-0.00044471178
0.00092120351
-0.00027239598
0.00093085746
-9.8746948e-05
0.00090603542
6.7795432e-05
0.00085379406
0.00021565542
0.00077909203
0.00034268027
0.00068900086
0.00044571353
0.0005894139
0.00052402538
0.00048522025
0.00057869427
0.00038048208
0.00061190428
0.00027848575
0.00062583089
0.00018163825
0.00062321585
9.1619423e-05
0.00060681302
9.5645412e-06
0.00057921294
-6.357721e-05
0.00054232134
-0.00012808793
0.00049960285
-0.00018352488
0.00045139789
-0.00022997358
0.0004000016
-0.00026774444
0.00034647614
-0.00029697155
0.00029183497
-0.00031872663
0.00023751145
-0.00033276257
0.00018363288
-0.00033975021
0.00013116849
-0.00034020531
8.0618811e-05
-0.00033461107
3.2429551e-05
-0.00032340438
-1.3064349e-05
-0.00030723585
-5.5417229e-05
-0.00028650132
-9.4340718e-05
-0.00026175303
-0.00012982512
-0.00023341813
-0.00016152156
-0.00020193451
-0.00018936612
-0.00016801153
-0.00021281598
-0.00013153957
-0.00023376511
-9.3971619e-05
-0.00024665172
-0.00026234492
0.00011086028
-0.00049178795
0.0001583161
-0.00048610826
0.00020538105
-0.00048276961
0.00025161428
-0.00047716449
0.00029707917
-0.00047165545
0.00034165465
-0.00046568996
0.00038536328
-0.00045943563
0.00042812398
-0.00045293667
0.00047007645
-0.00044626462
0.00051106454
-0.00043973591
0.00055116081
-0.00043343169
0.00059048027
-0.00042730369
0.00062896542
-0.00042163879
0.00066669198
-0.00041639973
0.00070369047
-0.00041169471
0.00074015104
-0.00040775058
0.00077594829
-0.00040433378
0.00081132524
-0.00040199377
0.00084652377
-0.00040058702
0.00088132582
-0.00040001573
0.0009160337
-0.00040065842
0.00095104244
-0.00040288449
0.00098663385
-0.00040662543
0.0010230015
-0.00041228725
0.001061211
-0.0004200847
0.0011020209
-0.00043016259
0.0011467331
-0.000442454
0.0011965397
-0.00045622905
0.0012524391
-0.00047029286
0.0013157286
-0.00048333071
0.001386971
-0.00049250634
0.0014658912
-0.00049436759
0.0015512682
-0.0004848108
0.0016415989
-0.0004607671
0.0017340212
-0.00041762201
0.0018229239
-0.00034949565
0.0019030152
-0.00025482
0.001968577
-0.00013420072
0.0020151857
1.0435262e-05
0.0020373413
0.00017877014
0.0020284927
0.00037043079
0.001981834
0.0005816115
0.0018924055
0.00080305954
0.0017582186
0.001023813
0.0015804049
0.0012308035
0.0013635854
0.0014106882
0.0011151104
0.0015519139
0.00084416411
0.0016452285
0.00056099696
0.0016844262
0.0002767735
0.0016655713
2.4995567e-06
0.0015874143
-0.00025125782
0.001451151
-0.00047074504
0.0012559879
-0.00064382956
0.0010069266
-0.00075934169
0.00071263228
-0.00080749706
0.00038593355
-0.00078262241
4.4595028e-05
-0.00068136794
-0.00029456163
-0.000508998
-0.00060303238
-0.00027643153
-0.00085787053
-3.3467923e-06
-0.0010339901
0.00028301834
-0.0011111462
0.00055133608
-0.0010806163
0.00077104695
-0.0009512253
0.00093417781
-0.00076618006
0.0010391106
-0.00054964282
0.0010893617
-0.00032265007
0.0010913598
-0.00010074698
0.0010500462
0.00010910682
0.00097758126
0.00028811792
0.00088032432
0.00043993745
0.00076626768
0.00055977172
0.00064345292
0.00064684205
0.00051782758
0.00070431925
0.00039404246
0.00073568771
0.00027565458
0.00074421805
0.00016510132
0.00073376931
6.3954609e-05
0.00070796175
-2.6924005e-05
0.0006700935
-0.0001068926
0.00062229124
-0.00017602397
0.00056873314
-0.00023488055
0.00051025363
-0.00028341004
0.00044853003
-0.00032221656
0.00038528027
-0.00035180003
0.00032141799
-0.00037252164
0.0002582308
-0.0003851019
0.00019621245
-0.00039012358
0.0001361845
-0.00038816423
7.8661441e-05
-0.00037983512
2.4099953e-05
-0.0003656541
-2.7242713e-05
-0.00034617513
-7.4898483e-05
-0.00032190403
-0.00011860988
-0.00029337287
-0.00015835408
-0.00026121447
-0.00019367849
-0.00022580654
-0.00022477658
-0.00018771701
-0.00025090532
-0.00014734467
-0.00027413655
-0.00010527365
-0.00028872251
-0.0003059796
0.00011458161
-0.00054103816
0.00016264574
-0.00053417464
0.0002103228
-0.00053044938
0.0002571008
-0.00052393851
0.00030294855
-0.00051750222
0.0003478928
-0.00051063602
0.00039180496
-0.00050334416
0.00043473478
-0.00049586188
0.0004766176
-0.00048814665
0.00051738298
-0.00048049858
0.00055731294
-0.00047335634
0.00059612207
-0.00046611129
0.00063419507
-0.00045971221
0.00067144976
-0.00045365096
0.00070778596
-0.00044802677
0.00074352409
-0.00044348898
0.00077875112
-0.00043956194
0.0008133074
-0.00043654826
0.00084735641
-0.00043463508
0.00088113275
-0.00043379437
0.0009146006
-0.00043412694
0.00094800487
-0.0004362852
0.00098171614
-0.00044033402
0.0010163599
-0.00044693245
0.0010526641
-0.00045638982
0.0010917891
-0.00046928417
0.0011350616
-0.00048572236
0.0011844331
-0.00050560091
0.0012421037
-0.00052796697
0.0013097298
-0.00055095882
0.0013886754
-0.00057145186
0.001479151
-0.00058484429
0.0015793119
-0.00058497453
0.0016889078
-0.00057036539
0.0018050788
-0.00053379363
0.0019198193
-0.00046423393
0.0020247163
-0.00035971549
0.00211492
-0.00022440497
0.0021859078
-6.0550918e-05
0.0022305354
0.00013414438
0.0022392516
0.00036171566
0.0022021199
0.00061874422