/*--------------------------------*- C++ -*----------------------------------*\
  =========                 |
  \\      /  F ield         | OpenFOAM: The Open Source CFD Toolbox
   \\    /   O peration     | Website:  https://openfoam.org
    \\  /    A nd           | Version:  9
     \\/     M anipulation  |
\*---------------------------------------------------------------------------*/
FoamFile
{
    format      ascii;
    class       volVectorField;
    location    "0.51";
    object      U;
}
// * * * * * * * * * * * * * * * * * * * * * * * * * * * * * * * * * * * * * //

dimensions      [0 1 -1 0 0 0 0];

internalField   nonuniform List<vector> 
10000
(
(0.0060214764 -0.0039531978 0)
(0.011871547 -0.0039011716 0)
(0.016511403 -0.0038709395 0)
(0.020549068 -0.0038069405 0)
(0.025091748 -0.0037545305 0)
(0.029401737 -0.0036796551 0)
(0.033700745 -0.003608106 0)
(0.03796798 -0.0035302289 0)
(0.042201523 -0.0034537598 0)
(0.046391031 -0.003378799 0)
(0.050542507 -0.0033073222 0)
(0.054650135 -0.0032434796 0)
(0.058726729 -0.003181253 0)
(0.062777193 -0.0031419174 0)
(0.066789224 -0.0031141674 0)
(0.07077199 -0.0031026258 0)
(0.074730877 -0.0031090831 0)
(0.078664857 -0.0031358324 0)
(0.082579155 -0.0031795398 0)
(0.086481948 -0.0032438507 0)
(0.090364141 -0.0033335626 0)
(0.094220138 -0.0034381045 0)
(0.098067747 -0.0035477369 0)
(0.10189578 -0.003669879 0)
(0.10568699 -0.003792863 0)
(0.10942863 -0.0039061862 0)
(0.11310201 -0.0039872466 0)
(0.11669797 -0.0040205643 0)
(0.12017471 -0.0039994769 0)
(0.12348541 -0.0039032723 0)
(0.1265847 -0.003721857 0)
(0.12940394 -0.0034426951 0)
(0.13186909 -0.0030647076 0)
(0.13386669 -0.00256437 0)
(0.13528827 -0.0019276024 0)
(0.13594917 -0.0011224612 0)
(0.13587538 -3.0880899e-05 0)
(0.13509338 0.0011929358 0)
(0.13344475 0.0025844818 0)
(0.13086575 0.0040970327 0)
(0.12730745 0.0057240948 0)
(0.12279176 0.0074417069 0)
(0.11735428 0.0091862212 0)
(0.11108535 0.010897649 0)
(0.10410398 0.012484758 0)
(0.096534605 0.013859457 0)
(0.088531709 0.014938765 0)
(0.080273557 0.01566821 0)
(0.071958351 0.015996541 0)
(0.063827471 0.01590427 0)
(0.056085685 0.015374751 0)
(0.048923061 0.014437683 0)
(0.04254224 0.013118621 0)
(0.037123119 0.011484227 0)
(0.032780008 0.0096145092 0)
(0.029602205 0.0076062895 0)
(0.027623143 0.0055540458 0)
(0.026810922 0.0035616442 0)
(0.027086641 0.0017161002 0)
(0.028225484 6.4161935e-05 0)
(0.030062854 -0.0011927652 0)
(0.032479409 -0.0020851831 0)
(0.035224964 -0.0026349961 0)
(0.037986912 -0.0028696701 0)
(0.040502254 -0.0027957681 0)
(0.042558673 -0.0024683943 0)
(0.043945403 -0.0019284581 0)
(0.044517262 -0.0012126866 0)
(0.044264189 -0.00033258415 0)
(0.043402697 0.00066712016 0)
(0.041880259 0.001595044 0)
(0.039538282 0.0024872248 0)
(0.036510169 0.0033441122 0)
(0.032974497 0.0041724501 0)
(0.029116554 0.0049049394 0)
(0.025027952 0.0054783301 0)
(0.020764116 0.0058976589 0)
(0.016432588 0.0061869952 0)
(0.012150254 0.006351215 0)
(0.0080034562 0.0063963648 0)
(0.0040679692 0.0063359724 0)
(0.00041102284 0.0061793021 0)
(-0.0029118117 0.0059355322 0)
(-0.0058365611 0.0056304342 0)
(-0.0083191361 0.0052625245 0)
(-0.010361136 0.0048322091 0)
(-0.011976154 0.0043525492 0)
(-0.013177569 0.0038292518 0)
(-0.013977926 0.0032840986 0)
(-0.014397605 0.0027263641 0)
(-0.014446689 0.0021613793 0)
(-0.014141554 0.0016064804 0)
(-0.013507083 0.0010623465 0)
(-0.012604917 0.00051135534 0)
(-0.011576733 -3.6551318e-05 0)
(-0.010443309 -0.00048977472 0)
(-0.0089310396 -0.00080902346 0)
(-0.0077129282 -0.0010608192 0)
(-0.0052126099 -0.0012421446 0)
(-0.003275619 -0.0013933187 0)
(0.00607058 -0.010014921 0)
(0.011953756 -0.0099135668 0)
(0.016604863 -0.0098627863 0)
(0.020660871 -0.0097572243 0)
(0.025211772 -0.0096731542 0)
(0.029537989 -0.0095663492 0)
(0.033837706 -0.00945936 0)
(0.038107355 -0.0093452671 0)
(0.042336605 -0.0092343532 0)
(0.046520635 -0.0091288777 0)
(0.050661403 -0.0090249771 0)
(0.054761568 -0.0089391775 0)
(0.058817045 -0.0088478514 0)
(0.06283846 -0.0087875166 0)
(0.06682975 -0.0087350516 0)
(0.070787837 -0.0087078271 0)
(0.074719095 -0.0086963882 0)
(0.078626101 -0.0087058005 0)
(0.082513039 -0.0087401216 0)
(0.086380961 -0.0087919956 0)
(0.090233554 -0.0088612978 0)
(0.094077934 -0.0089408487 0)
(0.097912939 -0.0090288573 0)
(0.10172939 -0.0091178833 0)
(0.10552654 -0.0091878227 0)
(0.10930278 -0.009230181 0)
(0.11304292 -0.0092184036 0)
(0.11672192 -0.0091281085 0)
(0.12030651 -0.0089426413 0)
(0.12376134 -0.0086212306 0)
(0.12703728 -0.0081362646 0)
(0.13005374 -0.0074609684 0)
(0.13274388 -0.0065648896 0)
(0.13500337 -0.0054072094 0)
(0.13672886 -0.0039650667 0)
(0.13783132 -0.0021948893 0)
(0.13814329 -1.450058e-05 0)
(0.1376061 0.0024379183 0)
(0.13617808 0.0051397431 0)
(0.13375215 0.0080419262 0)
(0.13029368 0.011081623 0)
(0.12578404 0.014156126 0)
(0.12023977 0.017169712 0)
(0.11373788 0.020008764 0)
(0.10638291 0.022535071 0)
(0.098321926 0.024632734 0)
(0.089740843 0.026188723 0)
(0.080846625 0.027093865 0)
(0.071866311 0.027305019 0)
(0.063055898 0.026779053 0)
(0.054650009 0.025510265 0)
(0.046867526 0.023533164 0)
(0.039946686 0.02091385 0)
(0.03410181 0.017759039 0)
(0.02946148 0.014193605 0)
(0.026127537 0.0104088 0)
(0.024154217 0.006575445 0)
(0.023506041 0.0028923708 0)
(0.024066216 -0.00045993507 0)
(0.025724639 -0.0033303035 0)
(0.028235469 -0.0054858288 0)
(0.031281676 -0.0069026927 0)
(0.03461095 -0.0075892427 0)
(0.037932524 -0.0076050755 0)
(0.04095856 -0.0070004329 0)
(0.043450217 -0.005878028 0)
(0.045212576 -0.0043365795 0)
(0.046124599 -0.0024657562 0)
(0.04615661 -0.00033891043 0)
(0.045335143 0.0019035527 0)
(0.043689551 0.0039991428 0)
(0.041257373 0.0059327549 0)
(0.03814412 0.0076878437 0)
(0.034461991 0.0092468199 0)
(0.030332034 0.010559006 0)
(0.025922276 0.011555802 0)
(0.021374985 0.012240302 0)
(0.01679605 0.012641938 0)
(0.012282944 0.012783299 0)
(0.0079291501 0.012688786 0)
(0.0038123995 0.012388622 0)
(-6.8524553e-06 0.011913171 0)
(-0.0034604046 0.011289185 0)
(-0.0064959915 0.010547942 0)
(-0.0090926018 0.0097001909 0)
(-0.011236301 0.0087547765 0)
(-0.012936025 0.0077274408 0)
(-0.014198792 0.0066398375 0)
(-0.015032193 0.0055191453 0)
(-0.015472837 0.004376663 0)
(-0.015521358 0.0032364645 0)
(-0.015199926 0.0021000393 0)
(-0.014567169 0.00096569273 0)
(-0.013675535 -0.00012385551 0)
(-0.012555825 -0.0011314222 0)
(-0.011198589 -0.0019760023 0)
(-0.0094895077 -0.0026252854 0)
(-0.0081411462 -0.0031495204 0)
(-0.0055415425 -0.0035386012 0)
(-0.0034306213 -0.0038555079 0)
(0.0061308714 -0.014321655 0)
(0.012023023 -0.014203471 0)
(0.016685711 -0.014118556 0)
(0.020760407 -0.013989688 0)
(0.025311596 -0.013867393 0)
(0.029651439 -0.013720656 0)
(0.03396153 -0.013573267 0)
(0.038235915 -0.013420455 0)
(0.042464079 -0.013260435 0)
(0.046649625 -0.013105904 0)
(0.050783281 -0.012954847 0)
(0.05488002 -0.012812426 0)
(0.058930996 -0.012678547 0)
(0.062942404 -0.012564032 0)
(0.066919354 -0.012464763 0)
(0.070857977 -0.012392428 0)
(0.074775511 -0.012336935 0)
(0.078658296 -0.012306297 0)
(0.082524599 -0.012302575 0)
(0.086386125 -0.012326467 0)
(0.0902343 -0.012369019 0)
(0.094066219 -0.012430476 0)
(0.097899186 -0.012497586 0)
(0.10174119 -0.012562759 0)
(0.10557687 -0.01260362 0)
(0.10940112 -0.01260044 0)
(0.11321177 -0.012528009 0)
(0.11699146 -0.012357596 0)
(0.12071611 -0.012047318 0)
(0.12434909 -0.011552974 0)
(0.12782886 -0.010830894 0)
(0.13108836 -0.0098471745 0)
(0.1340702 -0.008547588 0)
(0.13665548 -0.0068827391 0)
(0.13874177 -0.0048403855 0)
(0.14020593 -0.0023851998 0)
(0.14089164 0.00045495863 0)
(0.14071551 0.0037184489 0)
(0.1396036 0.0073480614 0)
(0.13744506 0.011271079 0)
(0.13413757 0.015399383 0)
(0.12965942 0.019596188 0)
(0.12402124 0.023712862 0)
(0.11726735 0.027590107 0)
(0.10950605 0.031060277 0)
(0.1008845 0.033928743 0)
(0.091573098 0.036054501 0)
(0.081823079 0.037304476 0)
(0.071912621 0.037596835 0)
(0.062129184 0.036875376 0)
(0.052771277 0.03513929 0)
(0.04410163 0.032427351 0)
(0.036397561 0.028827536 0)
(0.029902251 0.02450799 0)
(0.024826339 0.019618021 0)
(0.021299035 0.014426958 0)
(0.019364269 0.0091773178 0)
(0.018986874 0.0041789787 0)
(0.02005915 -0.00034441593 0)
(0.022428354 -0.0041287034 0)
(0.025782463 -0.0070804131 0)
(0.029747586 -0.0090412044 0)
(0.033974939 -0.0099631991 0)
(0.038112318 -0.0098950736 0)
(0.041844864 -0.0089381986 0)
(0.044909834 -0.0072368958 0)
(0.0471077 -0.0049649072 0)
(0.048318528 -0.0022993194 0)
(0.048482619 0.00058707532 0)
(0.047624844 0.0035082592 0)
(0.045822259 0.0062984362 0)
(0.043165005 0.0088488683 0)
(0.039785618 0.011076893 0)
(0.035827383 0.012921799 0)
(0.031420303 0.014382905 0)
(0.026707667 0.015465284 0)
(0.021844338 0.016159655 0)
(0.016959573 0.016477452 0)
(0.012167418 0.01644677 0)
(0.0075644292 0.016108087 0)
(0.0032337966 0.01549807 0)
(-0.00076060585 0.014656909 0)
(-0.0043605919 0.013627114 0)
(-0.0075181872 0.012443935 0)
(-0.010211771 0.011144655 0)
(-0.012437909 0.0097475174 0)
(-0.014196544 0.0082829087 0)
(-0.015489095 0.0067817837 0)
(-0.016339189 0.0052628365 0)
(-0.016771546 0.0037519858 0)
(-0.016806479 0.0022815761 0)
(-0.016488138 0.0008565309 0)
(-0.015798839 -0.00048973986 0)
(-0.014762865 -0.001762752 0)
(-0.013482333 -0.0028992172 0)
(-0.011980471 -0.0038962184 0)
(-0.010140642 -0.0047367993 0)
(-0.008656927 -0.0054195676 0)
(-0.0059301289 -0.0059190964 0)
(-0.0036214585 -0.0063364895 0)
(0.0062005522 -0.018769849 0)
(0.012129121 -0.0186173 0)
(0.016811057 -0.018500465 0)
(0.020900381 -0.018333477 0)
(0.025469508 -0.018164206 0)
(0.029822995 -0.017965805 0)
(0.034128984 -0.017767592 0)
(0.038411301 -0.017557987 0)
(0.042643382 -0.017349603 0)
(0.046820122 -0.017140771 0)
(0.050950031 -0.016943734 0)
(0.05503585 -0.016750353 0)
(0.059067148 -0.016579099 0)
(0.063058853 -0.016427559 0)
(0.067013615 -0.016303142 0)
(0.070933862 -0.016196533 0)
(0.074829543 -0.016122714 0)
(0.078691834 -0.016083134 0)
(0.082532024 -0.016064418 0)
(0.086361404 -0.016087155 0)
(0.090184471 -0.016137274 0)
(0.09401236 -0.016204264 0)
(0.097850146 -0.016288333 0)
(0.10169835 -0.016370284 0)
(0.10556734 -0.016436116 0)
(0.10945789 -0.016456079 0)
(0.11336249 -0.016396853 0)
(0.11727229 -0.016217248 0)
(0.12116969 -0.015866831 0)
(0.12502518 -0.015299178 0)
(0.12878269 -0.014451704 0)
(0.13237179 -0.01326508 0)
(0.13573845 -0.011671102 0)
(0.13873651 -0.0096180586 0)
(0.14124868 -0.0070658646 0)
(0.14314145 -0.0039865483 0)
(0.14424975 -0.00037491567 0)
(0.14448961 0.0037707456 0)
(0.14371733 0.008395605 0)
(0.14179799 0.013395778 0)
(0.1386374 0.01863432 0)
(0.1341534 0.023973275 0)
(0.12833556 0.029219795 0)
(0.12123313 0.034158305 0)
(0.11291023 0.038570759 0)
(0.10353222 0.04222268 0)
(0.093335524 0.044898793 0)
(0.082577611 0.046455992 0)
(0.071565698 0.0467464 0)
(0.060645788 0.045709326 0)
(0.050161264 0.043357767 0)
(0.040437643 0.039731834 0)
(0.031848115 0.034940868 0)
(0.024666553 0.029143935 0)
(0.019137544 0.022669753 0)
(0.015455929 0.015817857 0)
(0.013720491 0.0089467478 0)
(0.013866228 0.0023924208 0)
(0.015701344 -0.0034770135 0)
(0.018957536 -0.0083926651 0)
(0.023306206 -0.012072489 0)
(0.02839131 -0.01437122 0)
(0.03375184 -0.015257889 0)
(0.038949225 -0.014785628 0)
(0.043603275 -0.013109984 0)
(0.047407148 -0.010450993 0)
(0.050133667 -0.0070623271 0)
(0.05165761 -0.0032122652 0)
(0.051939328 0.00084359625 0)
(0.051006366 0.0048813657 0)
(0.048969627 0.0086899744 0)
(0.045957331 0.012132794 0)
(0.042122139 0.015106204 0)
(0.037659792 0.017531537 0)
(0.032761258 0.019373448 0)
(0.027586467 0.020653684 0)
(0.022281404 0.021394112 0)
(0.016987789 0.02162917 0)
(0.011829888 0.021408487 0)
(0.0069089984 0.020788717 0)
(0.0023021683 0.019826043 0)
(-0.0019235146 0.018575871 0)
(-0.005707208 0.017103564 0)
(-0.0090024892 0.015433378 0)
(-0.011803873 0.013645338 0)
(-0.014105087 0.011758001 0)
(-0.015901414 0.0098077003 0)
(-0.017211324 0.0078363045 0)
(-0.0180494 0.0058711559 0)
(-0.018437709 0.0039460451 0)
(-0.018397963 0.0020847402 0)
(-0.017951617 0.00032550134 0)
(-0.017167607 -0.0013096233 0)
(-0.016068492 -0.0028394599 0)
(-0.014675363 -0.0042361353 0)
(-0.013021816 -0.0054828686 0)
(-0.011001741 -0.0065521497 0)
(-0.0093188435 -0.007419285 0)
(-0.0064360896 -0.0080463977 0)
(-0.0038726568 -0.0086169184 0)
(0.0063017773 -0.023258076 0)
(0.01226442 -0.023064209 0)
(0.016964757 -0.022925362 0)
(0.021086102 -0.022714365 0)
(0.025668762 -0.02250125 0)
(0.030039686 -0.022271612 0)
(0.034360876 -0.022025147 0)
(0.038645394 -0.021770369 0)
(0.042873681 -0.021515454 0)
(0.047048299 -0.021260248 0)
(0.051168835 -0.021011886 0)
(0.055242203 -0.020777905 0)
(0.059254711 -0.020566082 0)
(0.063222394 -0.020371709 0)
(0.067158479 -0.020204528 0)
(0.07105161 -0.020064391 0)
(0.074907688 -0.019967217 0)
(0.078740583 -0.019901917 0)
(0.082549856 -0.019881768 0)
(0.086348749 -0.019888961 0)
(0.090157696 -0.019932639 0)
(0.093959703 -0.020002865 0)
(0.097780577 -0.020104977 0)
(0.10164221 -0.020211771 0)
(0.10553952 -0.020307667 0)
(0.10948664 -0.020361558 0)
(0.11349293 -0.020341234 0)
(0.11755967 -0.020190311 0)
(0.12167089 -0.019849843 0)
(0.12580541 -0.019251213 0)
(0.12991325 -0.018309619 0)
(0.13393095 -0.016959206 0)
(0.13779159 -0.015088886 0)
(0.14134886 -0.012645155 0)
(0.14447628 -0.009544812 0)
(0.14701372 -0.0057554472 0)
(0.14877026 -0.0012345159 0)
(0.14959495 0.0039808342 0)
(0.14931243 0.0098069102 0)
(0.14773483 0.016138997 0)
(0.14472764 0.022800454 0)
(0.14021784 0.029597102 0)
(0.13414455 0.036294631 0)
(0.1265313 0.042618779 0)
(0.11746911 0.04827183 0)
(0.10711161 0.052980847 0)
(0.095716019 0.05645136 0)
(0.083602117 0.058484429 0)
(0.071117539 0.058900063 0)
(0.05871137 0.057620292 0)
(0.046784349 0.054647634 0)
(0.035707284 0.050034716 0)
(0.025868561 0.043868696 0)
(0.017718818 0.036404059 0)
(0.011609957 0.028063626 0)
(0.0076829557 0.019200868 0)
(0.0060212932 0.010290665 0)
(0.006593716 0.0016977197 0)
(0.0092674914 -0.0060330172 0)
(0.013798766 -0.012524026 0)
(0.019744034 -0.017367351 0)
(0.026481922 -0.020275035 0)
(0.033462086 -0.02123201 0)
(0.040148648 -0.020346975 0)
(0.046066095 -0.01786168 0)
(0.050852156 -0.014099933 0)
(0.054257044 -0.0094287972 0)
(0.05615537 -0.0042157903 0)
(0.056528302 0.0011938734 0)
(0.055436435 0.0064665662 0)
(0.053039862 0.011399669 0)
(0.049542915 0.015792836 0)
(0.045142166 0.019528135 0)
(0.040050266 0.022541377 0)
(0.034494555 0.024801619 0)
(0.028676291 0.02631012 0)
(0.022765685 0.027111052 0)
(0.016920593 0.027264994 0)
(0.011276497 0.026845138 0)
(0.0059368426 0.025924416 0)
(0.00098196137 0.024581701 0)
(-0.0035159618 0.022895497 0)
(-0.0075294939 0.020939868 0)
(-0.01099526 0.018783728 0)
(-0.013900617 0.016475467 0)
(-0.016283768 0.014074205 0)
(-0.018120601 0.011601917 0)
(-0.019423914 0.0091386801 0)
(-0.020224356 0.006702074 0)
(-0.020550626 0.0043226137 0)
(-0.020418701 0.0020356617 0)
(-0.01987239 -0.00013350159 0)
(-0.01895292 -0.0021785821 0)
(-0.017679727 -0.0040384883 0)
(-0.016118286 -0.0057163184 0)
(-0.014286127 -0.0072000239 0)
(-0.012068499 -0.0084663492 0)
(-0.010150277 -0.0095356393 0)
(-0.0071037617 -0.010294447 0)
(-0.0042212063 -0.011001811 0)
(0.0064260629 -0.02791002 0)
(0.012438525 -0.027666771 0)
(0.017167574 -0.027497647 0)
(0.021324697 -0.027230757 0)
(0.025913337 -0.026972869 0)
(0.030304018 -0.02668855 0)
(0.034635503 -0.026386569 0)
(0.038926867 -0.026080113 0)
(0.043161821 -0.02576242 0)
(0.047333576 -0.025452454 0)
(0.051443747 -0.025149093 0)
(0.055495081 -0.024860241 0)
(0.059489408 -0.02459589 0)
(0.06343982 -0.024349752 0)
(0.067343574 -0.024137938 0)
(0.071197311 -0.023971319 0)
(0.075021522 -0.023838481 0)
(0.07881079 -0.0237454 0)
(0.082583085 -0.023713763 0)
(0.086352418 -0.023712099 0)
(0.090116509 -0.023765016 0)
(0.093890222 -0.023868121 0)
(0.097695452 -0.023998271 0)
(0.10155212 -0.024151314 0)
(0.10547539 -0.02431713 0)
(0.10948362 -0.024444436 0)
(0.11359448 -0.024500831 0)
(0.11782583 -0.02442569 0)
(0.12217472 -0.024149818 0)
(0.1266392 -0.02358427 0)
(0.13115974 -0.022636462 0)
(0.13569148 -0.021186519 0)
(0.14016312 -0.019122035 0)
(0.14440536 -0.016347394 0)
(0.14828377 -0.012751279 0)
(0.15162251 -0.0082862812 0)
(0.15417868 -0.0029114274 0)
(0.15573952 0.003338781 0)
(0.15609103 0.010408221 0)
(0.15501205 0.018135433 0)
(0.15231777 0.026366501 0)
(0.14786582 0.034857826 0)
(0.1415598 0.043287708 0)
(0.13338467 0.051305866 0)
(0.12341292 0.058526579 0)
(0.11181971 0.064564235 0)
(0.098910736 0.069072019 0)
(0.085064244 0.07174842 0)
(0.070698913 0.072391299 0)
(0.056349916 0.07087253 0)
(0.042499831 0.067179213 0)
(0.029569665 0.061363377 0)
(0.01810373 0.053490851 0)
(0.0087238464 0.044022796 0)
(0.0017743526 0.033356089 0)
(-0.0025007537 0.021940763 0)
(-0.0039853282 0.010402905 0)
(-0.002666365 -0.00063432821 0)
(0.0012722383 -0.010529668 0)
(0.0074089866 -0.018670846 0)
(0.015332288 -0.024683857 0)
(0.024302286 -0.028222245 0)
(0.033462546 -0.02909098 0)
(0.042111328 -0.027523342 0)
(0.049661892 -0.023880586 0)
(0.055677005 -0.018632992 0)
(0.05988257 -0.012299743 0)
(0.062169756 -0.0053774212 0)
(0.06253172 0.0016824541 0)
(0.061133986 0.0084534312 0)
(0.058219794 0.014683571 0)
(0.054010126 0.020146424 0)
(0.04879639 0.024692578 0)
(0.042862554 0.028266165 0)
(0.036462967 0.030866488 0)
(0.029832507 0.032519825 0)
(0.023175009 0.033293421 0)
(0.01666157 0.033276998 0)
(0.010431168 0.032567166 0)
(0.0045899469 0.031262743 0)
(-0.00077882732 0.029457982 0)
(-0.0056130349 0.02726781 0)
(-0.0098623288 0.024747539 0)
(-0.013506205 0.022045854 0)
(-0.016548748 0.019163338 0)
(-0.019010289 0.01618895 0)
(-0.020865003 0.013160102 0)
(-0.022135011 0.010157873 0)
(-0.022886345 0.0072047867 0)
(-0.023122771 0.0043384172 0)
(-0.022870803 0.0015923423 0)
(-0.022180855 -0.0010017453 0)
(-0.021085683 -0.0034160606 0)
(-0.019617854 -0.005633009 0)
(-0.017847719 -0.0076262734 0)
(-0.015778086 -0.0093797625 0)
(-0.013343646 -0.010871342 0)
(-0.011158938 -0.012147135 0)
(-0.007885194 -0.013040034 0)
(-0.0046235747 -0.013892631 0)
(0.0065806087 -0.032522562 0)
(0.012647395 -0.032228762 0)
(0.017405042 -0.03203144 0)
(0.021606804 -0.031713935 0)
(0.026207197 -0.03140887 0)
(0.030625536 -0.03106545 0)
(0.034968759 -0.030709865 0)
(0.039269954 -0.03033709 0)
(0.043503762 -0.029961555 0)
(0.047665978 -0.02958634 0)
(0.051768064 -0.029230899 0)
(0.055806474 -0.028884382 0)
(0.059780986 -0.028563063 0)
(0.063700521 -0.028264704 0)
(0.067561957 -0.028013531 0)
(0.071382424 -0.027803493 0)
(0.075171842 -0.02763872 0)
(0.078909893 -0.027523626 0)
(0.082634685 -0.027465295 0)
(0.086356091 -0.027465866 0)
(0.090067647 -0.027526891 0)
(0.09379931 -0.027650257 0)
(0.097576371 -0.027831349 0)
(0.10140768 -0.028047711 0)
(0.10533511 -0.028298948 0)
(0.10939423 -0.028541177 0)
(0.11360347 -0.028734285 0)
(0.11800033 -0.028814692 0)
(0.12260103 -0.028690356 0)
(0.12741034 -0.028261527 0)
(0.13241095 -0.0274171 0)
(0.137556 -0.025985457 0)
(0.14275217 -0.023839581 0)
(0.14785212 -0.020832553 0)
(0.15268738 -0.016812368 0)
(0.15702825 -0.011686953 0)
(0.16059138 -0.0054178748 0)
(0.16312204 0.0019875687 0)
(0.16432009 0.01043892 0)
(0.16390379 0.019792076 0)
(0.16165804 0.029847823 0)
(0.15734719 0.040311252 0)
(0.15080088 0.050796204 0)
(0.14197199 0.060838002 0)
(0.13091665 0.069946403 0)
(0.11782736 0.077613498 0)
(0.10304817 0.083413989 0)
(0.087033236 0.086936179 0)
(0.07029792 0.087932425 0)
(0.053485472 0.086184855 0)
(0.037197399 0.081708071 0)
(0.021897748 0.074478376 0)
(0.0083749232 0.064711428 0)
(-0.0025751435 0.052932911 0)
(-0.010656055 0.039464269 0)
(-0.015471723 0.024996504 0)
(-0.016779853 0.010272021 0)
(-0.014575614 -0.0038539439 0)
(-0.0090168444 -0.016548166 0)
(-0.00060565464 -0.026970817 0)
(0.0099476128 -0.034445628 0)
(0.021836527 -0.038623845 0)
(0.033926753 -0.039293213 0)
(0.045141536 -0.036714132 0)
(0.054762441 -0.031468443 0)
(0.062268446 -0.024242255 0)
(0.067377114 -0.015756571 0)
(0.070024498 -0.006688964 0)
(0.07026343 0.0023634341 0)
(0.068349861 0.010985036 0)
(0.064642895 0.018719356 0)
(0.059457027 0.025372401 0)
(0.053163066 0.030811595 0)
(0.046124293 0.034981484 0)
(0.038649479 0.037898421 0)
(0.031007446 0.039633326 0)
(0.023432126 0.040290254 0)
(0.016109045 0.039996549 0)
(0.0091832505 0.038886417 0)
(0.0027560079 0.037094759 0)
(-0.0030766926 0.034700455 0)
(-0.0082827242 0.031908795 0)
(-0.012800752 0.02878587 0)
(-0.016621054 0.025426221 0)
(-0.019792451 0.021910093 0)
(-0.022314856 0.018301321 0)
(-0.024171915 0.01468987 0)
(-0.025394153 0.01110154 0)
(-0.026054222 0.00759921 0)
(-0.026169892 0.0042237817 0)
(-0.025762386 0.0010089999 0)
(-0.024881683 -0.0020172519 0)
(-0.023582108 -0.0048289536 0)
(-0.021887964 -0.0074015398 0)
(-0.019862728 -0.0097056871 0)
(-0.017524254 -0.011735183 0)
(-0.014830461 -0.013477669 0)
(-0.012322683 -0.014951359 0)
(-0.0088201765 -0.015963934 0)
(-0.0051175232 -0.017011675 0)
(0.0067617929 -0.037191664 0)
(0.012898709 -0.036839357 0)
(0.017688005 -0.036601941 0)
(0.021944959 -0.036232315 0)
(0.026559342 -0.035860868 0)
(0.031004282 -0.035458972 0)
(0.03536567 -0.035038409 0)
(0.039676965 -0.034597293 0)
(0.043916643 -0.034155772 0)
(0.048070851 -0.033710146 0)
(0.052156095 -0.033281368 0)
(0.056177391 -0.032871116 0)
(0.060128749 -0.032491224 0)
(0.064014509 -0.032145683 0)
(0.067836334 -0.031841327 0)
(0.071610026 -0.03158184 0)
(0.075346707 -0.031382483 0)
(0.079037236 -0.031242714 0)
(0.08270225 -0.031161299 0)
(0.086360153 -0.031156466 0)
(0.090009314 -0.031234408 0)
(0.093671032 -0.031394773 0)
(0.09738998 -0.031625459 0)
(0.10118146 -0.031938106 0)
(0.10508355 -0.03229971 0)
(0.10915292 -0.032706028 0)
(0.11342763 -0.03311259 0)
(0.1179768 -0.033430832 0)
(0.12283707 -0.033569668 0)
(0.12802909 -0.033406359 0)
(0.13356646 -0.032792254 0)
(0.13941191 -0.031540735 0)
(0.14547121 -0.029446232 0)
(0.15160397 -0.026318458 0)
(0.15762114 -0.021959776 0)
(0.16323161 -0.016232149 0)
(0.16808941 -0.0090414285 0)
(0.17184542 -0.00040513437 0)
(0.17415147 0.0095675049 0)
(0.17467321 0.020759909 0)
(0.1730804 0.032949462 0)
(0.16904919 0.045772951 0)
(0.16231133 0.058751761 0)
(0.15274837 0.071320853 0)
(0.14039143 0.082812265 0)
(0.12547296 0.092585554 0)
(0.10840095 0.10006073 0)
(0.089711767 0.10471933 0)
(0.070016957 0.10621746 0)
(0.050106888 0.10432568 0)
(0.030697936 0.099000282 0)
(0.012410637 0.090136902 0)
(-0.0036194594 0.078232115 0)
(-0.01672661 0.063545394 0)
(-0.026390333 0.046579838 0)
(-0.031942537 0.0282384 0)
(-0.033104385 0.0095045979 0)
(-0.029750341 -0.0085555581 0)
(-0.022108426 -0.02478836 0)
(-0.010761021 -0.038128143 0)
(0.0034070776 -0.047514139 0)
(0.019181167 -0.05238541 0)
(0.03509938 -0.052629631 0)
(0.049679541 -0.048499734 0)
(0.061902659 -0.040977902 0)
(0.071188844 -0.031082286 0)
(0.077267417 -0.019794721 0)
(0.080147961 -0.0080071197 0)
(0.080086869 0.0035260666 0)
(0.077384957 0.014256426 0)
(0.072503653 0.023775627 0)
(0.0659953 0.031792229 0)
(0.058295421 0.038181651 0)
(0.049839276 0.042930819 0)
(0.041006564 0.046102017 0)
(0.032118744 0.047819685 0)
(0.023436734 0.048241122 0)
(0.015161175 0.047542948 0)
(0.0074391422 0.045902293 0)
(0.00032161499 0.043485889 0)
(-0.0060377935 0.040429363 0)
(-0.011591537 0.0369224 0)
(-0.016399887 0.033097103 0)
(-0.020427669 0.029007271 0)
(-0.023710994 0.024782784 0)
(-0.026260061 0.020474224 0)
(-0.028087118 0.016214417 0)
(-0.029242449 0.01200345 0)
(-0.029775841 0.0079132014 0)
(-0.029720666 0.0039890561 0)
(-0.029116268 0.00027278183 0)
(-0.028021375 -0.0032164322 0)
(-0.026470206 -0.0064469647 0)
(-0.024494737 -0.0093913689 0)
(-0.022181176 -0.012032306 0)
(-0.019545076 -0.014351901 0)
(-0.016556525 -0.016331548 0)
(-0.013651766 -0.018044824 0)
(-0.0099159517 -0.019167629 0)
(-0.005721064 -0.020431104 0)
(0.0069814383 -0.041924177 0)
(0.013203968 -0.041500396 0)
(0.01801829 -0.041224713 0)
(0.022346457 -0.04078754 0)
(0.026978929 -0.040353319 0)
(0.031450864 -0.039879298 0)
(0.03583413 -0.039382083 0)
(0.040156445 -0.038869047 0)
(0.044397174 -0.038348608 0)
(0.048550373 -0.037837114 0)
(0.052620576 -0.037323303 0)
(0.056615038 -0.036847254 0)
(0.060530325 -0.036397458 0)
(0.064380676 -0.035991131 0)
(0.068163322 -0.035633579 0)
(0.071886008 -0.035323172 0)
(0.075563951 -0.035070575 0)
(0.079192902 -0.034902997 0)
(0.082792671 -0.034802218 0)
(0.086364892 -0.034790967 0)
(0.089920608 -0.034873463 0)
(0.093508159 -0.035064078 0)
(0.097141762 -0.035348284 0)
(0.10084991 -0.03577772 0)
(0.10469021 -0.036287408 0)
(0.10871038 -0.036905386 0)
(0.1130112 -0.037570927 0)
(0.11767795 -0.038220217 0)
(0.12276496 -0.038752526 0)
(0.12833834 -0.039015314 0)
(0.13444721 -0.03881425 0)
(0.14108818 -0.037921261 0)
(0.14817229 -0.036068556 0)
(0.15555326 -0.033005986 0)
(0.1630072 -0.028459853 0)
(0.17020477 -0.022211794 0)
(0.17670222 -0.014084372 0)
(0.18203891 -0.004143864 0)
(0.18580687 0.0075259461 0)
(0.18760383 0.020812693 0)
(0.18697631 0.035480184 0)
(0.18343798 0.051133835 0)
(0.17661687 0.067184221 0)
(0.1662808 0.082896098 0)
(0.15241194 0.097407017 0)
(0.13528526 0.10986976 0)
(0.11536999 0.11950885 0)
(0.093338266 0.12567338 0)
(0.069979563 0.12790363 0)
(0.046235774 0.12593175 0)
(0.022879482 0.1196983 0)
(0.00092730394 0.10908165 0)
(-0.018421564 0.094542462 0)
(-0.034472208 0.076263579 0)
(-0.046223476 0.055093527 0)
(-0.052828139 0.031971966 0)
(-0.053877825 0.0081433284 0)
(-0.049188032 -0.015005526 0)
(-0.038909913 -0.035904653 0)
(-0.02365912 -0.053024993 0)
(-0.0046497823 -0.064964582 0)
(0.016372404 -0.070740608 0)
(0.037487145 -0.070066419 0)
(0.056477098 -0.063562093 0)
(0.071908536 -0.052796888 0)
(0.083219073 -0.039262774 0)
(0.090252798 -0.024319395 0)
(0.093176964 -0.0090976209 0)
(0.092385667 0.0055358176 0)
(0.088473139 0.018771923 0)
(0.082054013 0.030301509 0)
(0.073735638 0.03980979 0)
(0.064172941 0.047168942 0)
(0.053917074 0.052427575 0)
(0.043413776 0.055731522 0)
(0.033026257 0.057277647 0)
(0.023040235 0.057294143 0)
(0.013661954 0.056018427 0)
(0.0050258961 0.053677704 0)
(-0.0028088951 0.050459015 0)
(-0.0097225311 0.046640967 0)
(-0.015687279 0.042295388 0)
(-0.020778037 0.037624407 0)
(-0.024987742 0.032722464 0)
(-0.028368431 0.027700154 0)
(-0.030917653 0.022654702 0)
(-0.03267051 0.017664683 0)
(-0.033717342 0.012780929 0)
(-0.034085513 0.0080600908 0)
(-0.03382203 0.0035503592 0)
(-0.032976139 -0.00070784076 0)
(-0.031606593 -0.0046912112 0)
(-0.029758864 -0.0083555935 0)
(-0.027474354 -0.011699733 0)
(-0.024823735 -0.01469033 0)
(-0.021819677 -0.017319196 0)
(-0.018519766 -0.019534486 0)
(-0.015166417 -0.021505962 0)
(-0.011176719 -0.022736408 0)
(-0.0064367872 -0.024204651 0)
(0.0072412045 -0.046725145 0)
(0.013561722 -0.046215241 0)
(0.018406899 -0.045901799 0)
(0.022814425 -0.045382798 0)
(0.027465977 -0.044878097 0)
(0.031978772 -0.044325806 0)
(0.036380093 -0.043743163 0)
(0.040715835 -0.043145069 0)
(0.044955399 -0.042535353 0)
(0.049107742 -0.041936859 0)
(0.053161533 -0.041348444 0)
(0.057124364 -0.040787685 0)
(0.061012404 -0.040264669 0)
(0.064813101 -0.039783043 0)
(0.068547317 -0.039362506 0)
(0.072224974 -0.039002088 0)
(0.07582887 -0.038708477 0)
(0.079378357 -0.038488135 0)
(0.082897942 -0.038367071 0)
(0.086384028 -0.038341921 0)
(0.089843497 -0.038419572 0)
(0.093315191 -0.038621785 0)
(0.096806247 -0.038972713 0)
(0.10038369 -0.039503184 0)
(0.10410626 -0.040182668 0)
(0.10802772 -0.04105656 0)
(0.11227708 -0.04206405 0)
(0.11696492 -0.043154654 0)
(0.12221974 -0.044226783 0)
(0.12816134 -0.045105755 0)
(0.13487992 -0.045546225 0)
(0.14239889 -0.045262153 0)
(0.1506449 -0.043895534 0)
(0.15948857 -0.04115326 0)
(0.16870852 -0.036644393 0)
(0.17791999 -0.029952699 0)
(0.18649894 -0.020924913 0)
(0.19383495 -0.0096055418 0)
(0.19951026 0.0039049589 0)
(0.20303413 0.019538701 0)
(0.20379611 0.037109529 0)
(0.20112294 0.056188036 0)
(0.19441546 0.07606154 0)
(0.18328525 0.095732566 0)
(0.16765556 0.114082 0)
(0.14783684 0.12996394 0)
(0.12443136 0.1423793 0)
(0.098283625 0.1505125 0)
(0.070367219 0.15380178 0)
(0.041859569 0.15187506 0)
(0.013671562 0.14463803 0)
(-0.012973371 0.13210398 0)
(-0.036691278 0.11434446 0)
(-0.056470714 0.09185314 0)
(-0.071012282 0.065487255 0)
(-0.07925313 0.036390528 0)
(-0.080455796 0.0060811957 0)
(-0.074191059 -0.023664849 0)
(-0.06052901 -0.050724449 0)
(-0.040210857 -0.072938842 0)
(-0.014716127 -0.088292046 0)
(0.013641247 -0.095191824 0)
(0.041876872 -0.09302879 0)
(0.066577253 -0.082744556 0)
(0.085896672 -0.067321142 0)
(0.099404124 -0.048842369 0)
(0.1072049 -0.029144794 0)
(0.10980536 -0.0096449214 0)
(0.10778518 0.0086275809 0)
(0.10199907 0.024981884 0)
(0.093394592 0.038824176 0)
(0.082712661 0.04988696 0)
(0.070762258 0.058182601 0)
(0.058252767 0.063843376 0)
(0.045712122 0.067098112 0)
(0.033543161 0.068249061 0)
(0.022046311 0.067626651 0)
(0.011421709 0.065547345 0)
(0.0017661067 0.062303265 0)
(-0.0068183556 0.058098072 0)
(-0.014292985 0.053311449 0)
(-0.020688021 0.048001172 0)
(-0.026041219 0.042366289 0)
(-0.030409435 0.036547554 0)
(-0.033826323 0.030639739 0)
(-0.036333461 0.024780663 0)
(-0.037991468 0.018998909 0)
(-0.038871064 0.013385308 0)
(-0.039024288 0.0079906598 0)
(-0.038500885 0.0028595163 0)
(-0.03736597 -0.0019675102 0)
(-0.035673649 -0.006471084 0)
(-0.033479286 -0.010601138 0)
(-0.030829649 -0.014359784 0)
(-0.027799173 -0.017707002 0)
(-0.024384359 -0.02065866 0)
(-0.020736577 -0.023134848 0)
(-0.01685862 -0.025350898 0)
(-0.012583549 -0.026696849 0)
(-0.0072533407 -0.028368662 0)
(0.0075538615 -0.051604584 0)
(0.013986212 -0.050986298 0)
(0.018856425 -0.050632335 0)
(0.02336719 -0.050030673 0)
(0.028033666 -0.049435077 0)
(0.032589077 -0.048798278 0)
(0.037019112 -0.048119915 0)
(0.041370322 -0.04742599 0)
(0.045614195 -0.046715962 0)
(0.049750384 -0.046023958 0)
(0.053788011 -0.045347688 0)
(0.057722741 -0.044697804 0)
(0.061566023 -0.04408941 0)
(0.065322433 -0.043533595 0)
(0.068993311 -0.043041382 0)
(0.072599592 -0.042614128 0)
(0.076148922 -0.042266964 0)
(0.079618232 -0.042000486 0)
(0.083036824 -0.041841643 0)