/*--------------------------------*- C++ -*----------------------------------*\
  =========                 |
  \\      /  F ield         | OpenFOAM: The Open Source CFD Toolbox
   \\    /   O peration     | Website:  https://openfoam.org
    \\  /    A nd           | Version:  9
     \\/     M anipulation  |
\*---------------------------------------------------------------------------*/
FoamFile
{
    format      ascii;
    class       volScalarField;
    location    "0.37";
    object      alpha.phase1;
}
// * * * * * * * * * * * * * * * * * * * * * * * * * * * * * * * * * * * * * //

dimensions      [0 0 0 0 0 0 0];

internalField   nonuniform List<scalar> 
10000
(
5.8991305e-98
5.8992649e-98
7.8120412e-98
4.0482107e-96
4.4638614e-94
4.4992913e-92
4.1494234e-90
3.5321428e-88
2.7724836e-86
2.7884344e-84
6.6508033e-82
4.3413303e-79
6.1169279e-77
1.1693473e-75
7.242783e-75
2.5311839e-74
7.1225039e-74
1.9271994e-73
2.3106836e-73
2.4443495e-73
2.824646e-73
2.5823922e-72
1.9208154e-70
1.514835e-68
1.1461309e-66
8.3480275e-65
5.8840115e-63
4.1216041e-61
3.0761236e-59
2.0699187e-57
1.2245037e-55
8.3784478e-54
4.9120838e-52
2.222315e-50
7.563197e-49
1.5960023e-47
1.6849518e-46
2.7602953e-46
3.1542982e-46
3.4777142e-46
7.3956116e-45
1.1876395e-43
1.6289831e-42
1.8831722e-41
1.7527903e-40
1.26961e-39
7.2631057e-39
3.3113403e-38
1.1501357e-37
2.8648671e-37
2.9198247e-37
1.3156315e-37
3.6836399e-38
7.6840379e-39
1.2090509e-39
1.3570769e-40
9.5673533e-42
3.6651127e-43
7.0051202e-45
6.577162e-47
1.3293155e-47
4.548814e-48
4.9681256e-49
1.6671963e-50
4.1404148e-53
6.8235172e-55
7.6439806e-56
4.8666347e-56
2.187654e-56
2.9740848e-57
1.0768378e-58
1.0593261e-60
7.2198688e-63
7.9578943e-65
9.379117e-67
1.0582864e-68
1.1905733e-70
4.9250938e-72
1.9791434e-72
1.1707675e-72
8.9053976e-73
6.3822166e-73
3.416842e-73
1.1561231e-73
4.8195471e-74
1.6450905e-74
4.3590027e-75
8.7750932e-76
5.1449207e-77
4.9529604e-79
1.7385682e-81
6.2498982e-84
1.8753193e-86
4.9324259e-89
1.7170829e-91
9.8543792e-94
5.9422705e-96
1.1534047e-97
9.4988574e-98
9.4988565e-98
6.075218e-98
1.6278227e-96
8.5900353e-96
2.6008492e-95
1.1508572e-93
7.1115019e-92
5.6593826e-90
5.3376849e-88
7.015223e-86
2.0408141e-83
4.9394667e-81
6.1476248e-79
6.135909e-77
1.1530411e-75
7.3482846e-75
2.8149851e-74
7.0487596e-74
2.1539298e-73
9.2318421e-73
3.1297261e-72
3.7363179e-71
3.0208301e-69
2.5220942e-67
2.0075255e-65
1.5298783e-63
1.1217396e-61
7.952961e-60
5.4811507e-58
3.6888308e-56
2.455307e-54
1.7885872e-52
1.2413432e-50
6.9862691e-49
3.1106789e-47
1.1611277e-45
1.7991643e-44
3.8013481e-44
1.8757323e-45
3.2572774e-45
7.0413249e-44
1.2288058e-42
1.7977839e-41
2.2277542e-40
2.3013782e-39
1.8603292e-38
1.0511843e-37
3.8268802e-37
9.4662613e-37
2.0002862e-36
3.5799679e-36
3.615819e-36
2.1684167e-36
1.0017475e-36
3.9182587e-37
1.022302e-37
1.5078694e-38
1.1798352e-39
4.9282232e-41
1.1033775e-42
1.4519939e-44
1.0655329e-46
2.5724721e-47
8.6999897e-46
6.6106864e-47
3.3027396e-51
4.2047815e-53
6.9396409e-55
7.4120122e-54
5.3832739e-55
5.8439562e-57
9.6384898e-59
1.4402069e-60
1.1871234e-62
1.2127585e-64
1.4516252e-66
1.7685377e-68
3.002574e-70
4.0105128e-71
6.4127264e-72
2.9066087e-72
7.3699831e-72
5.7662356e-72
1.3781549e-72
1.7081871e-73
8.1385653e-74
2.0940133e-74
4.9455224e-75
9.0604618e-76
5.4496098e-77
8.0105424e-79
6.3214206e-81
3.0237928e-83
6.3175279e-86
1.1272859e-88
8.3223159e-91
9.215053e-93
1.4522805e-94
2.3043406e-95
2.8930835e-96
9.7815228e-98
4.8351262e-95
1.6355302e-93
1.0998276e-91
8.7679457e-91
2.8495181e-90
2.6774405e-89
1.7945747e-87
2.4208723e-85
6.9289715e-83
3.005134e-80
7.6403405e-78
2.9551831e-76
2.1882983e-75
9.1949102e-75
1.7300707e-73
3.242463e-72
7.1819934e-72
2.0639557e-71
4.5919728e-70
1.6706183e-69
3.2780533e-68
2.7759505e-66
2.3221336e-64
1.8480551e-62
1.4059205e-60
1.0274434e-58
7.2514942e-57
4.9691848e-55
3.3192205e-53
2.1906926e-51
1.5937664e-49
1.0751764e-47
5.8826019e-46
2.5689414e-44
9.3959926e-43
1.3147213e-41
2.3834175e-41
1.7297776e-42
7.7243073e-43
1.1508158e-41
1.9990898e-40
2.7968854e-39
3.3211602e-38
3.3015465e-37
2.5991184e-36
1.4598073e-35
5.3689951e-35
1.3370722e-34
2.7829684e-34
5.0722655e-34
5.1201038e-34
3.0244158e-34
1.4074652e-34
5.472708e-35
1.4140771e-35
2.102488e-36
1.7161521e-37
7.8165409e-39
2.0071935e-40
3.0544942e-42
4.900467e-44
4.4158792e-44
8.0283784e-43
7.6766085e-44
1.3300627e-47
1.8663614e-49
2.482654e-51
6.8517799e-51
5.0309905e-52
3.7284451e-54
3.9280845e-56
9.8435564e-58
1.4074157e-59
1.0942096e-61
1.1115535e-63
1.276927e-65
2.4634919e-67
2.9317361e-68
3.3997222e-69
8.273259e-70
3.3760091e-69
3.3277671e-69
8.326214e-70
4.5539948e-71
2.6786347e-71
4.8338788e-72
7.2299198e-73
8.1425681e-74
6.8806423e-75
4.4426531e-76
8.2238081e-78
5.6362895e-80
2.831187e-82
1.1518095e-84
4.7778479e-87
5.9289895e-89
3.262477e-90
2.3416105e-91
3.0262909e-93
7.5457176e-95
1.645138e-92
7.5326235e-91
6.9261435e-89
4.7076921e-87
8.9725402e-86
2.2717572e-85
2.0022854e-84
2.7535365e-82
6.9028537e-80
2.4690937e-77
5.7927109e-75
2.3597577e-73
1.9354131e-72
1.1350255e-71
4.9570683e-70
4.0823595e-69
3.9259325e-69
9.9273675e-69
1.9179098e-67
6.9371836e-67
2.0993022e-65
1.8212019e-63
1.5252905e-61
1.2122082e-59
9.1923197e-58
6.6826927e-56
4.6838606e-54
3.1811808e-52
2.1015691e-50
1.3698471e-48
9.8482824e-47
6.5434893e-45
3.504457e-43
1.504956e-41
5.4126131e-40
6.8013168e-39
1.0409304e-38
1.0122141e-39
2.6773248e-41
1.4751318e-39
2.4952618e-38
3.3342309e-37
3.7866133e-36
3.6156579e-35
2.7641539e-34
1.5332162e-33
5.651847e-33
1.4110274e-32
2.8992456e-32
5.3578926e-32
5.4064101e-32
3.158343e-32
1.4774084e-32
5.7309423e-33
1.4775788e-33
2.2283528e-34
1.9023388e-35
9.4383246e-37
2.7595272e-38
4.5993915e-40
1.4462511e-41
3.7619963e-41
4.8190297e-40
5.6800216e-41
1.5520059e-43
2.8384516e-46
3.5835344e-48
3.0167128e-48
2.6738345e-49
1.9894514e-51
2.4389751e-53
6.3900038e-55
1.0368617e-56
9.6232434e-59
8.4431494e-61
9.1851197e-63
1.6252916e-64
1.7172452e-65
2.0322206e-66
2.235367e-67
9.390434e-67
1.4901848e-66
4.1611064e-67
2.4974993e-68
1.4722536e-68
3.0022674e-69
5.0538733e-70
7.5957787e-71
6.2271358e-72
3.5290118e-73
6.7626176e-75
6.0324323e-77
4.3266057e-79
3.1520556e-81
2.4578363e-83
2.990937e-85
1.1280199e-86
1.6779792e-88
1.4214663e-90
2.4973248e-92
4.3523466e-90
2.3987474e-88
2.4754023e-86
1.9943454e-84
1.2598246e-82
2.7804426e-81
1.0851095e-80
3.1606545e-79
5.4675143e-77
1.4364473e-74
3.032703e-72
1.2782231e-70
1.1865758e-69
7.9341728e-69
2.5771661e-67
1.8837871e-66
1.564708e-66
5.03016e-66
6.3129142e-65
2.5347664e-64
1.0972849e-62
9.6529132e-61
8.0865144e-59
6.4105532e-57
4.8339088e-55
3.4851513e-53
2.4158623e-51
1.618818e-49
1.0525767e-47
6.7386026e-46
4.7426925e-44
3.0888525e-42
1.6211438e-40
6.8484575e-39
2.4198133e-37
2.7183859e-36
3.4565238e-36
4.1818786e-37
8.8202978e-39
1.5148191e-37
2.4656393e-36
3.1341312e-35
3.393063e-34
3.1024812e-33
2.2971783e-32
1.255379e-31
4.6219844e-31
1.152781e-30
2.3331773e-30
4.3388166e-30
4.3775314e-30
2.5467778e-30
1.2006159e-30
4.6632232e-31
1.2035936e-31
1.8427989e-32
1.6441453e-33
8.8746264e-35
2.9410462e-36
5.3913262e-38
2.0459151e-39
2.0939142e-38
2.1301479e-37
3.0935325e-38
2.0597664e-40
2.4629175e-43
3.1918684e-45
4.6044464e-46
9.1401031e-47
8.4689612e-49
1.1833938e-50
2.9544255e-52
4.8870973e-54
4.9210691e-56
4.7501653e-58
5.0148956e-60
7.8861706e-62
8.1306688e-63
1.0518454e-63
7.5228621e-65
1.8334781e-64
5.1895291e-64
1.4691041e-64
1.0037092e-65
6.1507434e-66
1.4110461e-66
2.5286144e-67
4.4523288e-68
3.5982237e-69
1.985491e-70
3.8525534e-72
3.9560509e-74
3.5367276e-76
2.722548e-78
2.2045529e-80
3.6631839e-82
6.4552042e-84
6.3206092e-86
4.4722096e-88
6.4301663e-90
9.3910695e-88
5.8532413e-86
6.625107e-84
5.757683e-82
4.2408148e-80
2.3380659e-78
4.7508953e-77
3.2605177e-76
3.3184075e-74
6.345211e-72
1.2650279e-69
5.53581e-68
5.3257792e-67
4.6160527e-66
1.1892453e-64
6.29878e-64
4.9914141e-64
1.5054111e-63
1.720555e-62
8.5527758e-62
4.8591179e-60
4.3163462e-58
3.6161833e-56
2.8553954e-54
2.1370702e-52
1.5239301e-50
1.0414799e-48
6.8575979e-47
4.368547e-45
2.7322269e-43
1.8683705e-41
1.1878185e-39
6.1020884e-38
2.5397253e-36
8.7209192e-35
8.7982295e-34
9.2081997e-34
1.3188716e-34
2.4519345e-36
1.2594525e-35
1.9937702e-34
2.3967234e-33
2.4605167e-32
2.1441357e-31
1.5309113e-30
8.2133221e-30
3.0120067e-29
7.4919722e-29
1.4925521e-28
2.7819265e-28
2.8066387e-28
1.6322338e-28
7.7656282e-29
3.0257666e-29
7.829681e-30
1.2187709e-30
1.1383833e-31
6.6945144e-33
2.5118352e-34
5.2259114e-36
6.9074656e-37
8.6136614e-36
7.4016979e-35
1.3316656e-35
1.4411451e-37
1.5336635e-40
2.1037629e-42
3.4158993e-44
3.0929601e-44
5.2587138e-46
5.3014748e-48
1.1388974e-49
1.8603045e-51
2.0324823e-53
2.3741022e-55
2.545025e-57
3.6700596e-59
3.355156e-60
4.4106998e-61
3.3337196e-62
5.2562298e-62
1.5392599e-61
4.2690438e-62
3.308096e-63
2.1108985e-63
5.2388577e-64
9.7216476e-65
1.9366601e-65
1.6069568e-66
8.3810332e-68
1.6433348e-69
1.8979446e-71
1.7391286e-73
1.1032418e-75
1.1017737e-77
2.0526241e-79
2.0639322e-81
1.6888955e-83
1.0754941e-85
1.3492541e-87
1.7067274e-85
1.1639162e-83
1.3969199e-81
1.3173009e-79
1.0252499e-77
7.3126236e-76
3.227857e-74
2.6899586e-73
1.3426724e-71
2.3310914e-69
4.1614077e-67
1.8029338e-65
1.9601508e-64
2.2385351e-63
4.4264873e-62
1.7072115e-61
1.3303854e-61
3.7306431e-61
4.1088797e-60
2.6965201e-59
1.8624962e-57
1.6693054e-55
1.3992586e-53
1.1005064e-51
8.164498e-50
5.7480223e-48
3.8616575e-46
2.4903381e-44
1.5479789e-42
9.4122641e-41
6.2050682e-39
3.8442962e-37
1.9306566e-35
7.9001033e-34
2.5959237e-32
2.3155921e-31
2.1357933e-31
3.3344062e-32
5.5294044e-34
8.8413556e-34
1.3496451e-32
1.5219985e-31
1.4736551e-30
1.2172499e-29
8.3388774e-29
4.3760112e-28
1.5942676e-27
3.9483237e-27
7.7382122e-27
1.4390997e-26
1.4519812e-26
8.4768736e-27
4.0751659e-27
1.5939315e-27
4.1404753e-28
6.567479e-29
6.4365308e-30
4.128723e-31
1.7479055e-32
4.0029876e-34
1.9152427e-34
2.7738627e-33
2.1021367e-32
4.7258382e-33
7.1661231e-35
7.446216e-38
1.0816082e-39
1.7696816e-41
1.1436817e-41
2.0369532e-43
2.2204073e-45
4.5297999e-47
8.143165e-49
9.1105722e-51
1.0656599e-52
1.1350969e-54
1.6565906e-56
1.2106748e-57
1.5713414e-58
1.1038142e-59
1.3317141e-59
3.9005927e-59
1.0635721e-59
9.2791186e-61
6.0118701e-61
1.5920576e-61
3.1240639e-62
6.8035272e-63
5.8094322e-64
2.7598858e-65
5.6256099e-67
7.0684934e-69
5.2342279e-71
4.0189931e-73
6.2329442e-75
5.9977012e-77
4.866453e-79
3.5441588e-81
2.103043e-83
2.3809439e-85
2.6739282e-83
1.9567919e-81
2.4483332e-79
2.4561236e-77
2.047112e-75
1.4594067e-73
9.0535407e-72
3.4080705e-70
4.318527e-69
6.2642116e-67
1.0466772e-64
5.0718494e-63
6.3834324e-62
7.8461761e-61
1.1873057e-59
3.8948709e-59
3.0530388e-59
8.2088061e-59
8.8884363e-58
7.8901476e-57
6.2582789e-55
5.6711864e-53
4.7676749e-51
3.735442e-49
2.7455923e-47
1.9043707e-45
1.2541217e-43
7.8926879e-42
4.7677435e-40
2.8043594e-38
1.7689643e-36
1.0658291e-34
5.2311459e-33
2.1034119e-31
6.4946042e-30
5.1012436e-29
4.3701912e-29
6.9737741e-30
1.0243772e-31
5.520439e-32
7.7968449e-31
8.1307836e-30
7.3732372e-29
5.7379414e-28
3.7515356e-27
1.9175733e-26
6.9191897e-26
1.6990704e-25
3.2605817e-25
6.0203744e-25
6.0779072e-25
3.5778387e-25
1.745554e-25
6.878073e-26
1.7988698e-26
2.9129754e-27
3.001338e-28
2.0997473e-29
9.9721626e-31
2.4596123e-32
4.2294807e-32
7.2703412e-31
5.0032051e-30
1.4188624e-30
3.298598e-32
2.9578617e-35
4.5492526e-37
2.0966648e-38
4.1816832e-39
6.5521877e-41
9.2364226e-43
2.3880012e-44
8.7094333e-46
9.2968354e-48
5.9221232e-50
6.0884063e-52
8.3313841e-54
4.1743746e-55
4.8192911e-56
2.8657268e-57
2.983699e-57
8.5856207e-57
2.3071958e-57
2.2551432e-58
1.4714329e-58
4.1398713e-59
8.4314707e-60
1.9921848e-60
1.7067282e-61
7.9292798e-63
1.6609472e-64
1.9946483e-66
1.3714155e-68
1.7482172e-70
1.7904462e-72
1.298983e-74
9.1981596e-77
6.1719545e-79
3.4692971e-81
3.6149034e-83
3.6748072e-81
2.8504616e-79
3.683337e-77
3.8631006e-75
3.4361217e-73
2.616494e-71
1.8049704e-69
9.1895821e-68
1.5184316e-66
1.2478207e-64
1.9621164e-62
1.2436521e-60
1.8265351e-59
2.3310286e-58
2.6200711e-57
7.7323685e-57
6.1550668e-57
1.6568585e-56
1.7668821e-55
2.1058279e-54
1.8453538e-52
1.699129e-50
1.4371014e-48
1.124096e-46
8.1882995e-45
5.5933016e-43
3.6050635e-41
2.2084153e-39
1.2919561e-37
7.3178932e-36
4.3860704e-34
2.5625417e-32
1.2273119e-30
4.8638213e-29
1.397344e-27
9.6440754e-27
7.819813e-27
1.2322334e-27
1.5999451e-29
3.3321556e-30
3.953778e-29
3.7027166e-28
3.1092613e-27
2.2616096e-26
1.398946e-25
6.9174166e-25
2.4571903e-24
5.9255631e-24
1.1002301e-23
2.0150292e-23
2.0373628e-23
1.210188e-23
6.0460732e-24
2.4255628e-24
6.4262417e-25
1.065394e-25
1.1603033e-26
8.8918882e-28
4.7265352e-29
1.2738135e-30
3.5726017e-30
1.5886771e-28
1.0115446e-27
3.6579198e-28
1.2724329e-29
9.8906047e-33
1.6142622e-34
1.9491906e-35
1.4244154e-36
2.1947602e-38
3.4730746e-40
5.8422819e-42
1.0070644e-43
1.3050327e-45
1.4991339e-47
1.7408504e-49
2.3811773e-51
1.1940193e-52
1.2894008e-53
7.3496918e-55
5.9838397e-55
1.6629003e-54
4.4089381e-55
4.8194276e-56
3.1834383e-56
9.373833e-57
2.0044184e-57
5.1816469e-58
4.329157e-59
1.9932372e-60
4.2767307e-62
4.0741027e-64
4.1440368e-66
5.2486375e-68
3.6881845e-70
2.2870862e-72
1.4667449e-74
9.214456e-77
4.9489237e-79
4.8041865e-81
4.4901982e-79
3.6616606e-77
4.8595798e-75
5.2775115e-73
4.9255722e-71
4.0131794e-69
2.9058091e-67
1.8367299e-65
7.8815148e-64
2.0189933e-62
2.9920825e-60
2.6109793e-58
4.9571875e-57
6.9183708e-56
5.0040582e-55
1.3594185e-54
1.1040226e-54
3.0551038e-54
3.1870127e-53
4.9908881e-52
4.7582181e-50
4.4947988e-48
3.848733e-46
3.0156926e-44
2.1805835e-42
1.4667483e-40
9.243252e-39
5.4999339e-37
3.106812e-35
1.687783e-33
9.5473884e-32
5.3889935e-30
2.5185268e-28
9.8303588e-27
2.6101623e-25
1.5808534e-24
1.2316302e-24
1.8692739e-25
1.8169666e-27
2.1142976e-28
1.8509981e-27
1.4646099e-26
1.1113808e-25
7.4800809e-25
4.3182001e-24
2.0422562e-23
7.1334395e-23
1.7008482e-22
3.0716096e-22
5.6243306e-22
5.6960644e-22
3.3918495e-22
1.721451e-22
6.9890178e-23
1.8701377e-23
3.195515e-24
3.7269999e-25
3.1536883e-26
1.8763473e-27
5.5215864e-29
1.5443754e-28
2.9468685e-26
1.7631645e-25
8.1640006e-26
4.0183478e-27
2.8346084e-30
4.9303108e-32
9.7835809e-33
4.7874873e-34
7.2143476e-36
1.2016098e-37
1.933017e-39
2.9417486e-41
4.1016996e-43
5.1893416e-45
6.0228427e-47
7.6070146e-49
3.1518016e-50
2.7423409e-51
1.5685056e-52
1.0771482e-52
2.8905781e-52
7.5239482e-53
9.1774717e-54
6.2755137e-54
1.9350283e-54
4.2175683e-55
1.1651919e-55
9.7098885e-57
4.3600918e-58
9.1698856e-60
8.8713146e-62
1.2761771e-63
1.047633e-65
6.176237e-68
3.4392462e-70
2.0326925e-72
1.2053756e-74
6.2148902e-77
5.664196e-79
4.9304415e-77
4.2034167e-75
5.7092961e-73
6.3840257e-71
6.1905379e-69
5.3143848e-67
4.1311273e-65
2.959196e-63
1.7198163e-61
3.8511543e-60
4.2339958e-58
5.1937399e-56
1.1938247e-54
1.437099e-53
8.2769181e-53
2.1401886e-52
1.7772351e-52
5.0894192e-52
5.0320515e-51
1.001312e-49
1.0515148e-47
1.0376596e-45
9.0912222e-44
7.1838361e-42
5.1748474e-40
3.4321481e-38
2.1143622e-36
1.220127e-34
6.6394472e-33
3.446211e-31
1.8289375e-29
9.9348782e-28
4.5354851e-26
1.7420099e-24
4.2557118e-23
2.2693251e-22
1.7154237e-22
2.4330073e-23
1.4967938e-25
1.5189174e-26
8.6988577e-26
5.217326e-25
3.3958908e-24
2.0781088e-23
1.1113221e-22
5.0029453e-22
1.754475e-21
4.4087847e-21
8.3119163e-21
1.5144654e-20
1.5294824e-20
9.1988487e-21
4.4682785e-21
1.7121553e-21
4.471541e-22
7.8881165e-23
9.9740799e-24
9.3690103e-25
6.2391992e-26
2.0728842e-27
6.2722479e-27
4.7065785e-24
2.6476927e-23
1.59927e-23
1.0644182e-24
7.0409339e-28
1.3063597e-29
4.5017838e-30
1.4846534e-31
2.1688071e-33
3.759069e-35
6.1907756e-37
9.4736276e-39
1.3255164e-40
1.6713752e-42
1.8805922e-44
2.1627686e-46
7.1897696e-48
5.3141779e-49
3.0095087e-50
1.7700216e-50
4.5356181e-50
1.1597062e-50
1.5839859e-51
1.1941456e-51
4.0152687e-52
8.2689474e-53
2.335047e-53
1.9299154e-54
8.5743451e-56
1.5679217e-57
2.2129278e-59
2.5077226e-61
1.6768047e-63
8.8832753e-66
4.543627e-68
2.4981402e-70
1.4038909e-72
6.9651663e-75
5.9882505e-77
4.9076306e-75
4.3576553e-73
6.0420382e-71
6.9310092e-69
6.9428786e-67
6.2190082e-65
5.1228249e-63
3.9258685e-61
2.8700273e-59
1.6380887e-57
5.9634078e-56
9.579523e-54
2.5890601e-52
2.4156618e-51
1.2072364e-50
3.0411466e-50
2.5854623e-50
7.8452496e-50
6.8899876e-49
1.5624269e-47
1.9190315e-45
2.0500085e-43
1.8739736e-41
1.5092937e-39
1.0900888e-37
7.1527039e-36
4.3127691e-34
2.412848e-32
1.2625894e-30
6.2416974e-29
3.0896887e-27
1.6079505e-25
7.1598944e-24
2.7126953e-22
6.0714567e-21
2.8600584e-20
2.1401646e-20
2.3600112e-21
1.1223388e-23
1.1648227e-24
4.5033757e-24
1.8078068e-23
9.1798707e-23
4.9071429e-22
2.4542166e-21
1.0686439e-20
3.8604382e-20
1.0808374e-19
2.3132125e-19
3.9955577e-19
3.9766503e-19
2.5240937e-19
1.1336936e-19
3.8228204e-20
9.383666e-21
1.6821565e-21
2.2656449e-22
2.3360083e-23
1.7492853e-24
7.4778066e-26
2.7050436e-25
6.5040943e-22
3.4286171e-21
2.7425524e-21
2.4260257e-22
7.5810802e-25
3.0092358e-27
1.2203866e-27
3.962678e-29
5.8520045e-31
1.0564517e-32
1.7838777e-34
2.7639686e-36
3.8548757e-38
4.7344619e-40
5.0027252e-42
4.9668747e-44
1.3747643e-45
8.8935533e-47
5.4482235e-48
2.7419561e-48
6.4493721e-48
1.6359651e-48
2.4683454e-49
2.0495672e-49
7.0870565e-50
1.5751365e-50
4.0718588e-51
3.5357381e-52
1.533274e-53
2.7325221e-55
4.4383729e-57
3.8538855e-59
2.301233e-61
1.1286278e-63
5.3746933e-66
2.7630027e-68
1.4738026e-70
7.0422358e-73
5.7266402e-75
4.460214e-73
4.1146483e-71
5.8119369e-69
6.8233211e-67
7.0345577e-65
6.5347487e-63
5.6504769e-61
4.6465283e-59
3.8850476e-57
3.2921358e-55
1.5508e-53
1.730539e-51
4.6652995e-50
3.4689906e-49
1.571345e-48
3.9243024e-48
3.4888133e-48
1.1191749e-47
7.576381e-47
2.4855348e-45
2.6306861e-43
3.3156742e-41
3.2862702e-39
2.7497915e-37
2.0127203e-35
1.3142331e-33
7.7786322e-32
4.2229293e-30
2.1237936e-28
9.9773221e-27
4.5842285e-25
2.2734796e-23
9.8696389e-22
3.6905687e-20
7.5743546e-19
3.1934652e-18
2.5929317e-18
1.9179293e-19
7.5374362e-22
9.4302081e-23
2.5847575e-22
6.8481347e-22
2.4249273e-21
1.029066e-20
4.6911639e-20
1.9524665e-19
6.9594738e-19
1.9561258e-18
4.5847805e-18
7.5408602e-18
7.4143674e-18
4.8946613e-18
2.2139062e-18
7.2248938e-19
1.7448642e-19
3.1511715e-20
4.4483324e-21
5.0696102e-22
4.352796e-23
3.2197183e-24
1.3315675e-23
7.8022299e-20
3.8803034e-19
4.1388904e-19
4.7225538e-20
2.7112407e-22
6.1569286e-25
2.6402682e-25
9.2315989e-27
1.3890724e-28
2.5999015e-30
4.5348894e-32
7.0927657e-34
9.7351975e-36
1.1337812e-37
1.0548278e-39
7.6148682e-42
1.7019602e-43
1.2329292e-44
9.0685496e-46
3.7769378e-46
8.3280931e-46
2.1443859e-46
3.4459882e-47
2.9925836e-47
1.0320933e-47
2.4545588e-48
6.0497553e-49
5.8510328e-50
2.4938515e-51
5.2693224e-53
6.6262973e-55
5.0420168e-57
2.7945159e-59
1.2904527e-61
5.7711291e-64
2.78228e-66
1.408444e-68
6.4809579e-71
4.9900224e-73
3.7238e-71
3.5637367e-69
5.1204442e-67
6.1405238e-65
6.4986344e-63
6.2368749e-61
5.6263316e-59
4.9154681e-57
4.5076136e-55
4.8991975e-53
5.3782436e-51
3.1754244e-49
6.7008966e-48
4.3452738e-47
1.8369895e-46
4.6147688e-46
4.5974619e-46
1.4492164e-45
8.114077e-45
5.2181292e-43
4.2910138e-41
4.0088999e-39
4.7044771e-37
4.2500223e-35
3.2115769e-33
2.1080316e-31
1.2314784e-29
6.5047019e-28
3.1460699e-26
1.4038415e-24
5.9802518e-23
2.786299e-21
1.1770062e-19
4.3664376e-18
8.2184847e-17
3.0549735e-16
2.1785589e-16
1.3659857e-17
4.5294954e-20
1.342656e-20
1.5547965e-20
3.0368894e-20
7.2559179e-20
2.0967697e-19
7.5484697e-19
2.6884893e-18
8.4829253e-18
2.1123442e-17
4.8673963e-17
8.1885018e-17
8.2632061e-17
5.2728005e-17
2.5164272e-17
8.9838591e-18
2.3306235e-18
4.5333901e-19
7.3596533e-20
1.0101038e-20
1.0578848e-21
2.5878368e-22
6.9308729e-22
8.1264844e-18
4.112215e-17
5.2228856e-17
7.275884e-18
7.1009538e-20
1.1071692e-22
4.9901568e-23
1.8467167e-24
2.8892194e-26
5.619746e-28
1.0020276e-29
1.5620531e-31
2.0604044e-33
2.1449018e-35
1.4967727e-37
1.6598432e-39
2.3949405e-41
1.2699227e-42
1.2391737e-43
4.8892598e-44
9.8880931e-44
2.6255276e-44
4.3472417e-45
3.8191856e-45
1.289922e-45
3.1681113e-46
7.6484072e-47
8.6465297e-48
3.7302673e-49
7.7428084e-51
8.3114646e-53
5.8306179e-55
3.0602206e-57
1.3451048e-59
5.6847395e-62
2.5751239e-64
1.2357396e-66
5.4711015e-69
3.9865775e-71
2.8710441e-69
2.8483654e-67
4.1577765e-65
5.0848535e-63
5.5120616e-61
5.4509384e-59
5.1107028e-57
4.7170915e-55
4.7169726e-53
5.9495265e-51
8.8029607e-49
5.3873556e-47
8.2096286e-46
4.8414662e-45
1.9126653e-44
4.8247222e-44
5.5941351e-44
1.7050511e-43
1.1592885e-42
9.553209e-41
7.8890266e-39
5.8323011e-37
5.090715e-35
5.3956393e-33
4.3583749e-31
2.9244947e-29
1.7012667e-27
8.7861497e-26
4.0958747e-24
1.7396069e-22
6.9282487e-21
2.9356296e-19
1.2074405e-17
4.618244e-16
7.0619042e-15
1.7972215e-14
3.9209591e-15
8.6331312e-16
2.0451715e-18
1.4204575e-18
1.1030516e-18
1.485074e-18
2.6081289e-18
4.7787174e-18
1.1222177e-17
2.9409705e-17
7.5671843e-17
1.7792556e-16
3.1524684e-16
5.2063815e-16
5.4824376e-16
3.650467e-16
1.7934237e-16
6.8675578e-17
2.0094447e-17
4.8291837e-18
1.0389058e-18
1.8063171e-19
3.0970518e-20
1.0121031e-20
3.0942449e-20
7.3637532e-16
1.9133811e-15
5.0422805e-15
8.8978012e-16
1.6337694e-17
8.7659356e-20
8.3200871e-21
2.3761852e-22
5.1713299e-24
1.0547332e-25
1.8957697e-27
2.8866511e-29
3.4856326e-31
2.807354e-33
3.0992994e-35
4.2558848e-37
5.3705977e-39
1.1255251e-40
1.5569801e-41
5.6641171e-42
1.0842578e-41
3.0075347e-42
4.9897469e-43
4.3173366e-43
1.4209924e-43
3.545622e-44
8.4318576e-45
1.0742569e-45
5.0002234e-47
9.352639e-49
9.1741186e-51
6.083874e-53
3.0617519e-55
1.290869e-57
5.1816811e-60
2.2082777e-62
1.0027624e-64
4.2637726e-67
2.9358552e-69
2.0535506e-67
2.1114385e-65
3.12896e-63
3.8974337e-61
4.3193934e-59
4.3892474e-57
4.2650278e-55
4.1440701e-53
4.4872624e-51
6.3144797e-49
1.0845746e-46
6.83825e-45
8.7941245e-44
4.8630656e-43
1.8364142e-42
4.6181171e-42
6.1221467e-42
1.8108558e-41
1.671604e-40
1.5169958e-38
1.2728029e-36
9.3806727e-35
6.1854857e-33
5.0530648e-31
4.6883889e-29
3.315194e-27
1.9492396e-25
9.926753e-24
4.4817417e-22
1.8172779e-20
6.7737224e-19
2.5948218e-17
1.0710738e-15
3.6065398e-14
4.358217e-13
9.9984736e-13
2.6407405e-13
4.7919274e-14
4.2625328e-17
2.0192428e-17
7.6988478e-17
7.4485794e-17
1.1229382e-16
1.5020164e-16
2.3457341e-16
4.1135812e-16
8.6859512e-16
2.8457291e-15
2.2755544e-15
2.5669747e-15
2.4780953e-15
2.7282124e-15
1.4230346e-15
4.745847e-16
1.5700709e-16
5.6722204e-17
1.68009e-17
3.0107706e-18
2.1968522e-18
6.8777971e-20
1.1994398e-18
5.707888e-14
7.1108097e-14
3.3146342e-13
7.8321161e-14
2.5898684e-15
2.8697942e-17
1.2059538e-18
3.4010887e-20
8.0680226e-22
1.6895123e-23
3.0168358e-25
4.3234479e-27
4.2617925e-29
4.3913891e-31
6.8390487e-33
9.4376663e-35
1.1322823e-36
1.519205e-38
1.5282889e-39
5.9492671e-40
1.1020126e-39
3.2090231e-40
5.3155104e-41
4.3455305e-41
1.4035504e-41
3.5231003e-42
8.2638303e-43
1.1403186e-43
5.5655575e-45
9.8660351e-47
9.1271135e-49
5.8069882e-51
2.8260948e-53
1.1497422e-55
4.4027264e-58
1.7670919e-60
7.5765039e-63
3.0856986e-65
2.0026668e-67
1.3681631e-65
1.4581752e-63
2.1922482e-61
2.7787921e-59
3.1442523e-57
3.2768914e-55
3.289184e-53
3.351927e-51
3.9130038e-49
6.0334316e-47
1.1277144e-44
7.2848983e-43
8.4193186e-42
4.4372919e-41
1.6256765e-40
4.0855021e-40
6.0970148e-40
1.8164126e-39
1.7458357e-38
1.8946716e-36
1.6937909e-34
1.2634552e-32
8.2346329e-31
4.8030541e-29
3.6118008e-27
2.8600972e-25
1.7441282e-23
8.8758778e-22
3.912584e-20
1.5240723e-18
5.3336403e-17
1.7938222e-15
6.2981617e-14
2.2364144e-12
2.7958813e-11
5.9649642e-11
1.6228243e-11
2.294767e-12
1.0072844e-15
7.8150106e-17
2.4962743e-15
3.2157784e-15
4.6342775e-15
5.5770395e-15
7.6580725e-15
1.0018224e-14
1.6326551e-14
4.3923661e-14
2.8003098e-14
1.6309738e-14
1.1266435e-14
2.5533353e-14
1.6844058e-14
5.705285e-15
2.1634433e-15
1.1301061e-15
3.9259266e-16
6.5695883e-17
1.0453865e-16
3.3547957e-18
2.4737009e-17
3.4401783e-12
5.0479724e-12
2.2912375e-11
6.5178505e-12
2.8529967e-13
5.1057149e-15
1.4448798e-16
4.1647629e-18
1.0379055e-19
2.1985533e-21
3.7925689e-23
4.7143683e-25
4.6016861e-27
8.1879397e-29
1.3055723e-30
1.7741845e-32
2.0553968e-34
2.226461e-36
1.2497147e-37
5.8382814e-38
1.0421043e-37
3.2036446e-38
5.540566e-39
3.8847389e-39
1.2592158e-39
3.1512544e-40
7.3062511e-41
1.0695336e-41
5.4215e-43
9.3528141e-45
8.3081374e-47
5.1209987e-49
2.4255068e-51
9.5677498e-54
3.5086896e-56
1.3279853e-58
5.3630297e-61
2.0853495e-63
1.2708758e-65
8.5209465e-64
9.4232737e-62
1.4361915e-59
1.8508505e-57
2.1357634e-55
2.2796438e-53
2.3599266e-51
2.5159909e-49
3.1478061e-47
5.2766872e-45
1.0439566e-42
6.8270455e-41
7.3031208e-40
3.7010158e-39
1.327169e-38
3.3377589e-38
5.5543177e-38
1.7796915e-37
1.0573258e-36
1.1511189e-34
1.2973152e-32
1.2076819e-30
8.6789163e-29
4.964194e-27
2.5344439e-25
1.5953032e-23
1.0560669e-21
5.4884128e-20
2.3943043e-18
9.3699344e-17
3.4491107e-15
5.9929028e-14
3.1447372e-13
8.8084228e-11
1.495814e-09
2.9934132e-09
8.3139613e-10
1.0353832e-10
2.6845084e-14
1.7502997e-15
4.8581329e-14
5.490262e-14
7.5530163e-14
8.3094429e-14
9.7102135e-14
1.1051775e-13
1.2109278e-13
1.9889741e-13
1.5824272e-13
9.1924771e-14
6.2552781e-14
1.1610499e-13
9.3835518e-14
4.9641297e-14
2.7829065e-14
1.6913931e-14
6.1869577e-15
1.6079046e-15
8.5119755e-16
5.8333754e-17
1.0406391e-15
1.6203632e-10
2.9593876e-10
1.2758068e-09
4.4499246e-10
1.5736749e-11
3.6994046e-14
8.1522823e-15
4.4188889e-16
9.4005119e-18
1.8734687e-19
2.9497472e-21
3.3288457e-23
6.8612478e-25
1.2762217e-26
2.0136645e-28
2.6869039e-30
2.256913e-32
1.6861166e-34
1.0520387e-35
5.2974757e-36
9.1681435e-36
2.9973491e-36
5.8210457e-37
3.1232096e-37
1.0306878e-37
2.5602573e-38
5.8846811e-39
9.0450858e-40
4.7495459e-41
8.1046751e-43
6.994437e-45
4.2061273e-47
1.9478976e-49
7.4810951e-52
2.6372588e-54
9.4291752e-57
3.5778174e-59
1.323035e-61
7.5331808e-64
4.9772658e-62
5.7175785e-60
8.8295843e-58
1.1561322e-55
1.359295e-53
1.4840096e-51
1.5827607e-49
1.764336e-47
2.3604264e-45
4.2648154e-43
8.8819958e-41
5.7722735e-39
5.7910971e-38
2.8355705e-37
1.0003523e-36
2.5196034e-36
4.6320978e-36
1.6190386e-35
5.0402047e-35
4.57449e-33
5.6842373e-31
5.6834364e-29
4.6461461e-27
3.1692969e-25
1.7658917e-23
7.8403724e-22
4.3308043e-20
2.3739337e-18
1.1011531e-16
3.9649667e-15
6.2156615e-14
5.4914532e-13
1.174479e-11
1.5678703e-09
6.0379328e-08
1.1791803e-07
3.4464641e-08
4.438529e-09
1.0534763e-12
4.7593953e-14
7.5235432e-13
8.1561283e-13
6.6910406e-13
3.4405717e-13
2.8078483e-13
3.0355238e-13
2.0517726e-13
3.6335541e-13
3.6824189e-13
2.6777946e-13
2.8525695e-13
3.0660895e-13
2.4226421e-13
1.6991377e-13
1.4696401e-13
1.2564533e-13
5.7594772e-14
2.7619118e-14
2.1533908e-15
1.4116012e-14
4.4173874e-14
6.5262142e-09
3.6771206e-08
5.3920069e-08
2.5074787e-08
8.2320291e-10
1.910833e-12
9.3751026e-14
1.2436428e-14
6.4269392e-16
1.2623187e-17
1.5909116e-19
3.1981295e-21
6.9626442e-23
1.2953907e-24
1.9516988e-26
1.859231e-28
1.3100293e-30
9.0265318e-33
9.3970278e-34
4.4265173e-34
7.4711736e-34
2.5412714e-34
5.2854846e-35
2.3359798e-35
7.7105449e-36
1.9025096e-36
4.3492609e-37
6.986078e-38
3.8033622e-39
6.4961388e-41
5.4907266e-43
3.2381557e-45
1.4721903e-47
5.5251624e-50
1.8791372e-52
6.3606807e-55
2.2626305e-57
7.9223111e-60
4.1876644e-62
2.7353449e-60
3.2688897e-58
5.1123915e-56
6.7965036e-54
8.1344908e-52
9.0765806e-50
9.9637337e-48
1.1614605e-45
1.6606261e-43
3.2114917e-41
6.949123e-39
4.4580601e-37
4.2283087e-36
2.0047447e-35
6.9722471e-35
1.7587001e-34
3.5300982e-34
1.3181012e-33
2.980211e-33
1.0783807e-31
1.5048412e-29
1.6640121e-27
1.452834e-25
1.029949e-23
6.0620574e-22
2.9887828e-20
1.2943028e-18
7.098259e-17
2.783112e-15
4.598201e-14
9.0758254e-13
1.7738274e-11
3.7259026e-10
7.2277781e-09
7.4118605e-07
1.850513e-05
3.5667426e-05
1.5547592e-05
3.1770535e-11
9.4375268e-13
9.9850993e-12
2.8110364e-11
7.3550987e-11
1.0435371e-11
9.804516e-12
9.2889504e-12
6.3216638e-13
4.1869744e-13
6.5834232e-13
5.141584e-13
1.3518752e-12
1.2749819e-12
5.7687669e-13
3.2261734e-13
4.1765997e-13
5.7126125e-13
5.6784284e-13
1.1220238e-12
3.4253803e-15
2.7188272e-14
1.3855223e-12
7.3368505e-06
1.3314031e-05
8.9071892e-06
1.0749406e-06
2.1564533e-09
1.1254396e-10
5.2372352e-12
2.580324e-13
1.2119526e-14
4.7180297e-16
1.0182598e-17
2.5202248e-19
5.5193918e-21
8.1580462e-23
9.1656002e-25
7.5904521e-27
4.3819478e-29
4.1434385e-31
7.9349263e-32
3.4380374e-32
5.6294041e-32
1.9516229e-32
4.2287037e-33
1.614406e-33
5.298502e-34
1.3001685e-34
2.9661956e-35
4.9733469e-36
2.8151844e-37
4.8595506e-39
4.0476679e-41
2.3505672e-43
1.0524514e-45
3.8716953e-48
1.2752475e-50
4.0977571e-53
1.36461e-55
4.5015647e-58
2.1920334e-60
1.4184647e-58
1.7667446e-56
2.7968144e-54
3.7729804e-52
4.5927489e-50
5.234053e-48
5.9129897e-46
7.2117793e-44
1.1014687e-41
2.2669505e-39
5.0454719e-37
3.1719006e-35
2.8558386e-34
1.3122017e-33
4.5022171e-33
1.1352972e-32
2.4595014e-32
9.5368723e-32
3.4400434e-31
1.4654582e-30
1.9791953e-28
2.5216479e-26
2.419288e-24
1.8194857e-22
1.1058643e-20
5.5394521e-19
2.4258914e-17
1.0744053e-15
2.7769584e-14
7.4911063e-13
1.6755245e-11
3.5411893e-10
6.6151512e-09
3.112332e-07
2.6078954e-05
7.7234627e-05
7.7229318e-05
7.539618e-05
4.1657438e-06
3.2141696e-11
2.3114815e-10
7.6589691e-10
1.9233177e-09
7.4779844e-09
4.5242923e-09
2.5331645e-09
7.0044664e-12
6.578871e-13
3.0532429e-12
1.1689951e-11
2.8179595e-11
2.4816486e-11
8.6079406e-12
3.6351344e-12
8.704605e-12
1.4340524e-11
2.4900741e-11
4.4040391e-11
9.644521e-14
7.5219404e-13
6.4717161e-06
2.3496134e-05
2.3497524e-05
2.3537825e-05
1.4808303e-05
3.5178634e-07
3.748198e-09
1.8804706e-10
8.1868643e-12
3.3049423e-13
1.0503405e-14
2.7619133e-16
6.0365158e-18
1.0629857e-19
1.450601e-21
1.4522666e-23
9.8459929e-26
5.4117048e-28
5.8289647e-29
5.2140012e-30
2.4369447e-30
3.9167874e-30
1.3541015e-30
3.0243699e-31
1.0304103e-31
3.358571e-32
8.2090872e-33
1.8760872e-33
3.2857325e-34
1.9425288e-35
3.4192974e-37
2.8193405e-39
1.6168778e-41
7.1497705e-44
2.5855851e-46
8.2772648e-49
2.5332647e-51
7.8931712e-54
2.441234e-56
1.0851622e-58
6.9607987e-57
9.0547996e-55
1.4502139e-52
1.9838186e-50
2.454254e-48
2.8545174e-46
3.3205508e-44
4.2449474e-42
6.9266682e-40
1.508958e-37