/*--------------------------------*- C++ -*----------------------------------*\
  =========                 |
  \\      /  F ield         | OpenFOAM: The Open Source CFD Toolbox
   \\    /   O peration     | Website:  https://openfoam.org
    \\  /    A nd           | Version:  9
     \\/     M anipulation  |
\*---------------------------------------------------------------------------*/
FoamFile
{
    format      ascii;
    class       volScalarField;
    location    "0.37";
    object      p;
}
// * * * * * * * * * * * * * * * * * * * * * * * * * * * * * * * * * * * * * //

dimensions      [1 -1 -2 0 0 0 0];

internalField   nonuniform List<scalar> 
10000
(
0
0.026758982
0.048269099
0.071842917
0.096467542
0.12173686
0.14768816
0.17418589
0.20123554
0.22862516
0.25623812
0.2838886
0.31126791
0.3381413
0.36417384
0.3889691
0.41219468
0.43343009
0.45218545
0.46802952
0.48047651
0.4889984
0.49314645
0.49247728
0.48648752
0.47470083
0.45671755
0.43201931
0.3998813
0.36064324
0.31442966
0.26336347
0.20515086
0.13913655
0.065965667
-0.013826366
-0.099770933
-0.19129187
-0.28761554
-0.38799884
-0.49171331
-0.59799427
-0.70607373
-0.81518987
-0.92476218
-1.0345794
-1.1444218
-1.2507559
-1.3495293
-1.4429535
-1.5316369
-1.6157446
-1.695438
-1.7708821
-1.8422528
-1.9095139
-1.9720934
-2.0263878
-2.0762388
-2.1251345
-2.1733048
-2.2208707
-2.2687262
-2.308789
-2.3468536
-2.3844745
-2.4174613
-2.4517607
-2.4878971
-2.5251955
-2.5636953
-2.6038798
-2.6451771
-2.6871512
-2.7295274
-2.7720655
-2.8145592
-2.8568309
-2.8986544
-2.9398082
-2.9800851
-3.0192819
-3.0571426
-3.09346
-3.1280131
-3.1606263
-3.1910688
-3.2191345
-3.2445772
-3.2671638
-3.2865586
-3.3022473
-3.3140508
-3.319915
-3.324553
-3.3330703
-3.3421452
-3.3505657
-3.3598099
-3.3755662
-0.015414861
0.012161703
0.033860117
0.057520032
0.082108713
0.10744908
0.13340792
0.16006514
0.18722476
0.21483877
0.24278445
0.27077657
0.29863664
0.32608657
0.35274679
0.37832837
0.40247409
0.42471595
0.44462838
0.46175301
0.47558149
0.48560063
0.49136947
0.49237871
0.4880944
0.47807258
0.46188311
0.43905761
0.40924852
0.37249456
0.32913638
0.27841266
0.22047232
0.15514154
0.082584064
0.003199627
-0.082476293
-0.17379432
-0.27006359
-0.3705251
-0.47431974
-0.58057667
-0.68844169
-0.79708322
-0.90575225
-1.0137873
-1.1203326
-1.2237301
-1.3221048
-1.4154175
-1.5038655
-1.5874928
-1.6665202
-1.7410865
-1.8113366
-1.8771924
-1.9383983
-1.9944241
-2.0467419
-2.0970168
-2.1458666
-2.1935096
-2.23987
-2.2829481
-2.3238608
-2.361525
-2.401665
-2.4412925
-2.4808895
-2.5211278
-2.5622564
-2.6043769
-2.647336
-2.6908574
-2.7347425
-2.7787383
-2.8226061
-2.8661501
-2.9091424
-2.9513462
-2.9925548
-3.0325811
-3.0711993
-3.108185
-3.1433547
-3.1765149
-3.2074702
-3.2360606
-3.2620959
-3.2854111
-3.3058279
-3.3230854
-3.3370968
-3.3477229
-3.3567269
-3.3661824
-3.3758585
-3.3850031
-3.3967498
-3.4131425
-0.025004765
0.003587444
0.025662867
0.049341473
0.073941349
0.099163871
0.12518186
0.1518825
0.17925656
0.20721999
0.23553141
0.26406016
0.29259277
0.32079449
0.34839024
0.37506658
0.4003815
0.42392473
0.44528455
0.46396074
0.47940428
0.49117087
0.49873799
0.50154226
0.49907263
0.49086217
0.4764244
0.45529636
0.42715219
0.39188284
0.34962736
0.29834188
0.24011879
0.17439229
0.10122536
0.020935819
-0.06592477
-0.15867495
-0.25658944
-0.35887638
-0.46460577
-0.57275754
-0.68233131
-0.7923912
-0.90200871
-1.0102547
-1.1161745
-1.2186137
-1.3164995
-1.409443
-1.4974016
-1.5803887
-1.6584755
-1.7317856
-1.8005123
-1.8648222
-1.9247586
-1.9804885
-2.0328586
-2.0828534
-2.1310425
-2.1777572
-2.2230233
-2.2664046
-2.3082067
-2.3484673
-2.3884057
-2.430294
-2.4721726
-2.5145326
-2.5575703
-2.601362
-2.6458157
-2.6907646
-2.7360172
-2.7813395
-2.8264769
-2.8712182
-2.9153317
-2.9586026
-3.0008012
-3.0417155
-3.0811146
-3.1188271
-3.1546158
-3.1883384
-3.2198245
-3.248902
-3.2754816
-3.299386
-3.3205859
-3.3390072
-3.3546746
-3.3679133
-3.3795475
-3.3904811
-3.4010497
-3.4104287
-3.4244962
-3.4400741
-0.037365739
-0.0068665041
0.015370283
0.038924941
0.063301214
0.088501379
0.11452804
0.14138575
0.16908466
0.19742899
0.22632401
0.2556287
0.28506054
0.31434324
0.34321357
0.37129208
0.39819382
0.42352946
0.44681047
0.46751415
0.48515649
0.49922242
0.50913017
0.51432651
0.51428446
0.5084437
0.49623577
0.47716858
0.45082503
0.41679298
0.37450715
0.32515071
0.26732364
0.20133118
0.12735605
0.045791406
-0.042756786
-0.13760962
-0.23796257
-0.34286411
-0.45127862
-0.562101
-0.67419399
-0.78645277
-0.8978048
-1.0072141
-1.1136845
-1.2162565
-1.3141442
-1.4068739
-1.494323
-1.5764423
-1.6533698
-1.7252801
-1.7924214
-1.8550905
-1.9136005
-1.9682983
-2.0198833
-2.0691042
-2.1164898
-2.1624082
-2.2071719
-2.2507933
-2.2936112
-2.3360217
-2.3791608
-2.4213343
-2.4645761
-2.5086488
-2.5535181
-2.5991292
-2.6453295
-2.6919736
-2.7388672
-2.7857825
-2.8324647
-2.8786714
-2.9241666
-2.9687254
-3.0121103
-3.0541076
-3.0945036
-3.1330855
-3.1696892
-3.2041434
-3.2362723
-3.2659579
-3.2931541
-3.3177824
-3.3398285
-3.3593025
-3.3763308
-3.3912495
-3.4045794
-3.416778
-3.4282105
-3.4384548
-3.4523977
-3.4678713
-0.052140593
-0.01625797
0.0045469928
0.027193461
0.051222167
0.076244399
0.10229435
0.12940002
0.15742948
0.18632345
0.21600444
0.24624418
0.27681713
0.30750257
0.33796078
0.36782838
0.39676433
0.42433384
0.45002657
0.4733466
0.49378169
0.51074926
0.52364865
0.53190931
0.53492061
0.53203177
0.52263561
0.50618085
0.4821443
0.45003411
0.40943355
0.36051897
0.30276057
0.23618427
0.16092426
0.077430881
-0.01365283
-0.11159671
-0.21548281
-0.32421476
-0.43658508
-0.55133271
-0.66717408
-0.7828281
-0.89706748
-1.0087555
-1.1168428
-1.2204182
-1.3188017
-1.4115274
-1.498463
-1.579585
-1.6550805
-1.7252351
-1.7903902
-1.8509477
-1.9074115
-1.9602671
-2.0101756
-2.0578531
-2.1038367
-2.1485782
-2.1925593
-2.2360072
-2.2792414
-2.3226042
-2.3664708
-2.4108419
-2.4559971
-2.5020221
-2.5488852
-2.596513
-2.6447369
-2.6933749
-2.7422214
-2.7910335
-2.8395383
-2.8875111
-2.9346844
-2.9808093
-3.025635
-3.0689407
-3.1105169
-3.1501692
-3.187708
-3.2229767
-3.2558317
-3.2862206
-3.3140983
-3.3394168
-3.3622068
-3.3825808
-3.4006964
-3.416806
-3.4312701
-3.4444171
-3.4565643
-3.4670984
-3.4809378
-3.4960204
-0.065316475
-0.026562251
-0.0073443221
0.014336293
0.037867539
0.062688366
0.088816315
0.11614232
0.14462059
0.17422674
0.20480407
0.23617848
0.26817586
0.30051919
0.33287745
0.36494725
0.39634306
0.42659407
0.45522847
0.48174507
0.5055603
0.52605017
0.54260478
0.55458274
0.56127545
0.56196617
0.55598576
0.54267668
0.52138647
0.49155653
0.45274599
0.40444966
0.34664307
0.27917009
0.20211819
0.11600814
0.021505664
-0.080589293
-0.18920481
-0.3030661
-0.42077387
-0.54086177
-0.66183407
-0.78220342
-0.90056654
-1.0156605
-1.1263443
-1.2316801
-1.3310044
-1.4239054
-1.5102928
-1.5902273
-1.6639776
-1.7319475
-1.7946038
-1.8524591
-1.906194
-1.9564407
-2.0038759
-2.0492922
-2.0932698
-2.1363753
-2.1791778
-2.222041
-2.2652847
-2.3092055
-2.3540518
-2.3998678
-2.4467547
-2.4947139
-2.543679
-2.5934868
-2.6439394
-2.6948155
-2.7458732
-2.7968613
-2.8474973
-2.8975113
-2.9466173
-2.994554
-3.0410701
-3.0859176
-3.1288644
-3.1697291
-3.2083121
-3.2444937
-3.2781526
-3.3092311
-3.3377528
-3.3637255
-3.3871726
-3.4082444
-3.4271078
-3.4440083
-3.4592744
-3.4731553
-3.4857997
-3.4957338
-3.5095688
-3.5241457
-0.074661448
-0.040798204
-0.02134177
-0.00026058346
0.022892281
0.047591352
0.073756739
0.10135937
0.13040573
0.16078901
0.19239824
0.22512515
0.25874962
0.29299185
0.32759251
0.36222741
0.39647741
0.42989829
0.46202765
0.49230315
0.5200936
0.5447725
0.56567493
0.58205627
0.59314043
0.59813018
0.59625602
0.58671325
0.56871792
0.54158165
0.50469453
0.45747904
0.39963402
0.33098822
0.25169677
0.16224568
0.063312443
-0.044147072
-0.15887092
-0.27936854
-0.40399997
-0.53103967
-0.65872447
-0.78531573
-0.90919431
-1.0288994
-1.1431604
-1.2509814
-1.3516888
-1.444936
-1.5306931
-1.6091401
-1.6806917
-1.7458949
-1.8054012
-1.8598718
-1.9100941
-1.9569026
-2.0010053
-2.0433131
-2.0845815
-2.1254654
-2.1665554
-2.2083771
-2.2512626
-2.2954893
-2.3411702
-2.388323
-2.4369422
-2.486938
-2.5381268
-2.5902937
-2.6432083
-2.6965938
-2.7501598
-2.8036221
-2.8566746
-2.9090215
-2.9603555
-3.0103695
-3.0587737
-3.1053353
-3.1498128
-3.1920172
-3.2317715
-3.2689127
-3.3033964
-3.3351956
-3.3643209
-3.3908046
-3.4147423
-3.4362876
-3.4556316
-3.4730273
-3.4887945
-3.5033149
-3.5172802
-3.5239053
-3.5385281
-3.5527312
-0.085222069
-0.056525436
-0.037320702
-0.016766343
0.0060916841
0.030618265
0.056846464
0.084803243
0.11443327
0.14567007
0.17846873
0.21268944
0.24811337
0.28453261
0.32168787
0.35922273
0.39675025
0.43385466
0.47001866
0.50463283
0.53706532
0.56664855
0.59263862
0.6142094
0.63049817
0.64062332
0.64364629
0.6386211
0.6246421
0.60082852
0.56633911
0.52043921
0.46262226
0.39261666
0.31059951
0.21697321
0.11245841
-0.0017576375
-0.12415459
-0.25299555
-0.38636571
-0.52221666
-0.65844234
-0.79299279
-0.92395934
-1.0496185
-1.1685092
-1.2795419
-1.3820443
-1.4757127
-1.5606445
-1.6371836
-1.7059518
-1.7676657
-1.8231853
-1.8734187
-1.9192313
-1.9616415
-2.0015363
-2.0398442
-2.0775251
-2.1154589
-2.1542303
-2.1945353
-2.2367602
-2.2810664
-2.3275011
-2.3760054
-2.4264274
-2.4786024
-2.5322287
-2.5870006
-2.642647
-2.69884
-2.7552248
-2.8114729
-2.8672679
-2.9222708
-2.9761114
-3.028465
-3.0790176
-3.1275048
-3.1736926
-3.217339
-3.2583248
-3.296523
-3.3318407
-3.3642683
-3.3938926
-3.4207621
-3.4450031
-3.4667831
-3.486318
-3.5038694
-3.5197319
-3.5341859
-3.5471257
-3.5556745
-3.5689696
-3.5822644
-0.098489198
-0.073916685
-0.055209563
-0.03522675
-0.012759169
0.011584969
0.037915624
0.066200292
0.096427762
0.12861499
0.16268329
0.19849737
0.23592234
0.27476621
0.31474366
0.35553242
0.39678985
0.43807235
0.47880701
0.51837866
0.55615408
0.59139372
0.62326724
0.65088797
0.67329914
0.68947119
0.69831769
0.69873858
0.68965837
0.6699326
0.63843481
0.59426618
0.53668369
0.46525102
0.37995217
0.2811569
0.16976551
0.047235542
-0.084615099
-0.22375759
-0.36795632
-0.51478315
-0.66170244
-0.80623103
-0.94610528
-1.0792584
-1.2039455
-1.3189475
-1.423584
-1.5176118
-1.6013541
-1.6753872
-1.7405775
-1.7979239
-1.8484828
-1.8934178
-1.9338093
-1.9707126
-2.0053209
-2.0386966
-2.0718434
-2.105952
-2.141809
-2.1800702
-2.2212863
-2.2655695
-2.3127846
-2.3626897
-2.4151229
-2.4697033
-2.5260178
-2.5837015
-2.642395
-2.7017076
-2.7612456
-2.8206332
-2.8794978
-2.9374604
-2.9941194
-3.0491029
-3.1020681
-3.1526911
-3.2007365
-3.2459948
-3.2882708
-3.3274879
-3.3636073
-3.3966227
-3.4266071
-3.4536736
-3.4779884
-3.4997427
-3.519172
-3.5365538
-3.5522569
-3.5666813
-3.578204
-3.5878948
-3.6004656
-3.6127412
-0.11497238
-0.093481427
-0.075048303
-0.05583335
-0.033841651
-0.0096848863
0.016672353
0.045250523
0.076113936
0.10925766
0.14462197
0.18214969
0.22174211
0.26319631
0.3062653
0.35068623
0.39609641
0.44201836
0.48789117
0.53309763
0.5769415
0.61862332
0.65724927
0.69185499
0.72137457
0.74463041
0.76039086
0.7673748
0.76424024
0.74957841
0.72198124
0.68018435
0.62318615
0.5502466
0.46107048
0.35605928
0.23636471
0.10372487
-0.039699577
-0.19146327
-0.34892282
-0.50923154
-0.66935574
-0.82626849
-0.97720503
-1.1196291
-1.2514185
-1.3711796
-1.4782094
-1.5724188
-1.654387
-1.7250302
-1.7855707
-1.8374089
-1.881878
-1.9202793
-1.9540337
-1.9842957
-2.012379
-2.0396193
-2.0672346
-2.0965116
-2.1286643
-2.1644486
-2.2043551
-2.2485235
-2.2967107
-2.3483025
-2.4030113
-2.4602914
-2.5196209
-2.5805398
-2.6426274
-2.705425
-2.7684783
-2.831357
-2.8936492
-2.954925
-3.0147382
-3.0726385
-3.12825
-3.1812573
-3.2313377
-3.278272
-3.3218982
-3.3621538
-3.3989855
-3.4324293
-3.4625954
-3.4896511
-3.5137833
-3.5352418
-3.5542785
-3.571093
-3.5862044
-3.5997976
-3.6115955
-3.6210921
-3.63293
-3.64416
-0.13480842
-0.11568592
-0.096793743
-0.078730672
-0.057325758
-0.033477095
-0.0071614893
0.02169442
0.053135999
0.087182758
0.12387419
0.16319579
0.20504387
0.24927471
0.29571262
0.34409899
0.39404891
0.44509127
0.49669053
0.54820372
0.59886519
0.64783289
0.69415903
0.7367691
0.77447905
0.80599129
0.82992049
0.84475265
0.84884415
0.84051772
0.81799087
0.77951779
0.72367283
0.64926199
0.55570958
0.44340699
0.31369648
0.16873484
0.011233034
-0.15584536
-0.32939566
-0.50611056
-0.68242117
-0.85464848
-1.0192471
-1.1730353
-1.3134302
-1.4387904
-1.5483687
-1.6422856
-1.7216057
-1.7876594
-1.8421926
-1.8870241
-1.9239473
-1.9544772
-1.9801738
-2.0024622
-2.022751
-2.0424638
-2.0632151
-2.0866204
-2.114158
-2.1469358
-2.1854256
-2.229602
-2.2790781
-2.3326485
-2.3900468
-2.4504433
-2.5131923
-2.5777353
-2.6435841
-2.7102251
-2.7771816
-2.8439597
-2.9100848
-2.9750484
-3.0383538
-3.0995134
-3.1580729
-3.2136457
-3.2659205
-3.3146494
-3.359646
-3.4008623
-3.4383077
-3.4720098
-3.5021134
-3.5288734
-3.5525546
-3.5734468
-3.5917876
-3.6075125
-3.6218353
-3.6346801
-3.6459878
-3.6551266
-3.6662457
-3.6764119
-0.15715229
-0.13977632
-0.12155927
-0.10444034
-0.083585583
-0.060059093
-0.033818121
-0.0047994289
0.027097664
0.061995075
0.099991128
0.1410892
0.18524711
0.23241253
0.28244129
0.33505979
0.38991746
0.44657881
0.50449062
0.56297146
0.62122555
0.6783735
0.733399
0.7851173
0.8322238
0.87331166
0.90681452
0.93098105
0.94388093
0.94346218
0.92751343
0.89372405
0.83998174
0.76444215
0.66611331
0.5452028
0.40336099
0.24346265
0.068986736
-0.11647938
-0.30937048
-0.50596677
-0.70210299
-0.89320697
-1.0746618
-1.2423924
-1.3931697
-1.5250069
-1.6371586
-1.7299994
-1.8052965
-1.865055
-1.9117672
-1.947798
-1.9753747
-1.9964315
-2.0125811
-2.0253408
-2.0362941
-2.0470142
-2.059357
-2.0755019
-2.0974646
-2.126754
-2.1638306
-2.2083611
-2.2594028
-2.3157295
-2.3764046
-2.4404539
-2.5070883
-2.5756698
-2.6456436
-2.716484
-2.7877249
-2.8588154
-2.9291849
-2.9982508
-3.0654476
-3.1301977
-3.1920002
-3.2504088
-3.3050428
-3.3556329
-3.4019985
-3.4440855
-3.4819442
-3.5156487
-3.5454131
-3.5715612
-3.5944364
-3.6144522
-3.6321777
-3.645487
-3.6591845
-3.6710775
-3.6814949
-3.690022
-3.7003037
-3.7094295
-0.1820636
-0.16614906
-0.14850353
-0.13355793
-0.11282374
-0.089579922
-0.063569233
-0.03458604
-0.0023672107
0.033263806
0.072434241
0.11523435
0.16172966
0.21191734
0.26566498
0.32274837
0.382875
0.44561633
0.51039879
0.57653337
0.64320132
0.70946013
0.7742158
0.83620343
0.8940158
0.9461156
0.99074995
1.0259614
1.0495551
1.0590442
1.0516264
1.0243039
0.97422582
0.89840133
0.79494717
0.66378952
0.50722854
0.32926479
0.13449676
-0.072747717
-0.2886791
-0.50929152
-0.72967915
-0.94406609
-1.1464334
-1.3313657
-1.4946553
-1.6338523
-1.7483241
-1.838877
-1.9082314
-1.9593548
-1.9957436
-2.0206757
-2.0368676
-2.0465468
-2.0514573
-2.0530914
-2.0530105
-2.0529529
-2.0551348
-2.0623399
-2.0775435
-2.1030181
-2.1391081
-2.184708
-2.2381652
-2.2981093
-2.3627727
-2.4310099
-2.5019334
-2.5748771
-2.6493071
-2.7247189
-2.8005933
-2.8763663
-2.9514251
-3.025057
-3.0965829
-3.1653392
-3.2307138
-3.2921888
-3.3493249
-3.4018407
-3.4495263
-3.4923531
-3.5304184
-3.5638336
-3.5928005
-3.6179524
-3.6395344
-3.6580001
-3.6737093
-3.6868076
-3.6985664
-3.7089301
-3.7180357
-3.7256604
-3.7349331
-3.7430038
-0.2097103
-0.19546662
-0.17928438
-0.16428562
-0.14473557
-0.12214448
-0.096661383
-0.067970978
-0.035650105
0.00047048108
0.040612964
0.085004496
0.13376994
0.18694787
0.24448102
0.30623249
0.37194282
0.44118278
0.51338646
0.58787045
0.66379258
0.74011649
0.81567226
0.88913807
0.95901904
1.0236424
1.0811064
1.1292792
1.1657047
1.1874852
1.1911871
1.1727864
1.1287982
1.0541621
0.94543826
0.80212162
0.62753382
0.4275475
0.20875217
-0.023815758
-0.26682264
-0.51627414
-0.76639206
-1.0097571
-1.2383337
-1.4446824
-1.6231358
-1.7705776
-1.8866357
-1.9730069
-2.0334936
-2.0728481
-2.0957956
-2.1066747
-2.1089306
-2.1051094
-2.0969586
-2.0858406
-2.0730538
-2.0602247
-2.049935
-2.0459986
-2.053205
-2.0749201
-2.1109834
-2.159044
-2.2164235
-2.2808461
-2.3502106
-2.4231079
-2.4986368
-2.5761727
-2.6552432
-2.7354661
-2.8163257
-2.8972027
-2.9773915
-3.0560763
-3.132431
-3.2056181
-3.2749137
-3.3397248
-3.3995221
-3.4539728
-3.502898
-3.5462838
-3.5842842
-3.6170875
-3.6445412
-3.668337
-3.6879735
-3.7045495
-3.7183026
-3.7297188
-3.7395
-3.7480058
-3.7554974
-3.7618615
-3.7699471
-3.7769116
-0.24006529
-0.22754842
-0.21260567
-0.19805591
-0.17951573
-0.15794735
-0.13326158
-0.10530586
-0.073227245
-0.036926987
0.0039267458
0.04966722
0.10050743
0.15655314
0.21788002
0.28442928
0.355964
0.43208631
0.51226686
0.59579542
0.68177808
0.76912437
0.85659252
0.94277474
1.026096
1.104789
1.1768592
1.2400382
1.2916723
1.3285126
1.3465577
1.3409818
1.3060865
1.2351354
1.121739
0.96383663
0.76629776
0.53913001
0.2924478
0.03136846
-0.24278439
-0.52661756
-0.81334019
-1.0932129
-1.3550826
-1.5883994
-1.7853915
-1.9420578
-2.0584503
-2.1375611
-2.1847909
-2.2080179
-2.2134153
-2.2066
-2.1918894
-2.1721971
-2.149155
-2.1236601
-2.0964977
-2.0688123
-2.0432988
-2.0251949
-2.02278
-2.0414607
-2.0796695
-2.1325658
-2.1957476
-2.265827
-2.3405826
-2.4184166
-2.4985287
-2.5805711
-2.6643213
-2.7494799
-2.8355511
-2.9219027
-3.0077129
-3.0919714
-3.1737089
-3.2518772
-3.3255679
-3.3939937
-3.4565625
-3.5129322
-3.5629559
-3.6066131
-3.6442044
-3.6763965
-3.7005894
-3.7227081
-3.7403182
-3.7543887
-3.7655689
-3.7745111
-3.7818512
-3.7880922
-3.7935801
-3.7983771
-3.8050276
-3.8108315
-0.27301885
-0.2621214
-0.24840517
-0.23475335
-0.21751999
-0.19714344
-0.17339657
-0.14714921
-0.11553664
-0.079469841
-0.038294941
0.0083935797
0.060969469
0.11969684
0.18471772
0.25607399
0.33360499
0.41696521
0.50563739
0.59887571
0.69572706
0.79505011
0.89553534
0.9956618
1.0937673
1.1880405
1.2764445
1.3566413
1.425934
1.4808772
1.5169436
1.5284462
1.5077213
1.445059
1.3283151
1.1520748
0.92517618
0.6644571
0.38576293
0.094640925
-0.21415139
-0.53873905
-0.87100335
-1.1976597
-1.5026071
-1.7704097
-1.9901914
-2.1569219
-2.2713781
-2.3390125
-2.3667839
-2.3678449
-2.3500858
-2.3208173
-2.2854644
-2.2472383
-2.2075225
-2.1664043
-2.1235033
-2.0788933
-2.0349126
-1.9985741
-1.985117
-2.0030685
-2.0472194
-2.108278
-2.1793694
-2.256452
-2.3368947
-2.419347
-2.5035248
-2.5895698
-2.6775901
-2.7675125
-2.8589372
-2.9511213
-3.0430923
-3.1336523
-3.2214769
-3.3052175
-3.3837601
-3.4561485
-3.5215815
-3.5797956
-3.6306739
-3.6740959
-3.7104487
-3.7402163
-3.7635863
-3.7823441
-3.7967428
-3.807512
-3.815402
-3.8211623
-3.8254815
-3.8289711
-3.8320378
-3.834873
-3.8398238
-3.8443432
-0.30830625
-0.29891556
-0.28666337
-0.27431761
-0.25874532
-0.24013427
-0.218276
-0.19284121
-0.1627462
-0.12776611
-0.086833589
-0.039722378
0.014156795
0.075191378
0.14365377
0.21971737
0.30334176
0.39423847
0.49185012
0.59542457
0.70396888
0.81623683
0.93079829
1.0460392
1.1601845
1.2713913
1.3776402
1.4766212
1.5657158
1.641628
1.699597
1.7329858
1.7332441
1.6862206
1.5709077
1.3738829
1.1063621
0.80269734
0.48977284
0.17066417
-0.17564933
-0.54910741
-0.93920361
-1.3269008
-1.6886655
-2.0016114
-2.2497901
-2.4270429
-2.5355116
-2.5855386
-2.584525
-2.5557627
-2.507288
-2.4493261
-2.3886272
-2.3287957
-2.2707608
-2.2134176
-2.1543636
-2.0911818
-2.024493
-1.9620287
-1.9376871
-1.9629232
-2.0203913
-2.0940371
-2.1750775
-2.2590271
-2.3439004
-2.4293633
-2.5161031
-2.6048547
-2.6962217
-2.7904217
-2.8871611
-2.9855876
-3.0843986
-3.1820152
-3.2767287
-3.3668469
-3.4508954
-3.5276045
-3.5959797
-3.6559779
-3.707402
-3.7497378
-3.7843548
-3.811573
-3.8320871
-3.8470548
-3.8573859
-3.8639704
-3.8677306
-3.8695194
-3.87014
-3.8702773
-3.8704373
-3.8709301
-3.873887
-3.876957
-0.34557212
-0.33772157
-0.32718059
-0.31654214
-0.30309105
-0.28678156
-0.26723699
-0.24381944
-0.21568235
-0.18216863
-0.14247834
-0.095618998
-0.04110258
0.021669876
0.093150282
0.1737076
0.26341791
0.36202082
0.46895539
0.58348703
0.70454502
0.83073528
0.96041617
1.091835
1.2231204
1.3523445
1.4775415
1.5965527
1.7070543
1.8064886
1.8902423
1.9505288
1.9781222
1.9593278
1.859017
1.6335581
1.2929335
0.93971601
0.60419848
0.26497871
-0.11901028
-0.55212658
-1.016553
-1.4845433
-1.9232373
-2.2971619
-2.5811681
-2.7684773
-2.8637948
-2.8843175
-2.8473467
-2.7758726
-2.6865689
-2.5917236
-2.4994785
-2.4141216
-2.3363026
-2.2634694
-2.1899398
-2.1089209
-2.0143202
-1.9115864
-1.8774597
-1.9248387
-2.0114727
-2.1048951
-2.1941518
-2.2817622
-2.3677254
-2.4530143
-2.5393434
-2.628284
-2.7213439
-2.8189997
-2.9208656
-3.0259076
-3.1323928
-3.2381521
-3.3408995
-3.4383888
-3.5287045
-3.6102555
-3.6813691
-3.742985
-3.7941597
-3.8353382
-3.8672622
-3.8908484
-3.9071201
-3.9172421
-3.9224098
-3.9237805
-3.9224398
-3.9193847
-3.9155277
-3.9116562
-3.9083432
-3.9060476
-3.9066967
-3.9080554
-0.3843904
-0.37817221
-0.36963314
-0.36119628
-0.35043464
-0.33704412
-0.32051996
-0.3000755
-0.27481089
-0.24377097
-0.20594497
-0.16030621
-0.10622011
-0.042387093
0.031443031
0.11615067
0.21175622
0.31806211
0.43467916
0.56079793
0.69518001
0.836253
0.98210634
1.1307113
1.2800389
1.4280073
1.5726326
1.7119275
1.8438655
1.9668004
2.0769051
2.166545
2.2282382
2.2427094
2.162944
1.90929
1.4837279
1.0537147
0.71049684
0.38474573
-0.026495854
-0.53551224
-1.099176
-1.6740573
-2.2192714
-2.6771721
-3.0056857
-3.2015401
-3.2739532
-3.2514492
-3.1608639
-3.0334862
-2.8919706
-2.7492314
-2.6159545
-2.4993562
-2.40031
-2.3143865
-2.2309161
-2.1400527
-2.0110649
-1.8766411
-1.852028
-1.943665
-2.0569607
-2.1676861
-2.2598394
-2.3415735
-2.4188
-2.496349
-2.57669
-2.6618377
-2.7539713
-2.8536963
-2.9604476
-3.0726953
-3.1879803
-3.3033385
-3.4156391
-3.5218373
-3.6194977
-3.7070064
-3.7793309
-3.8426952
-3.8933311
-3.9321839
-3.9602641
-3.9788829
-3.9894205
-3.9933258
-3.9920206
-3.986937
-3.979343
-3.9704128
-3.9612067
-3.9526049
-3.9452247
-3.9396401
-3.937626
-3.9370133
-0.42415742
-0.4198208
-0.41366649
-0.40797773
-0.40052675
-0.39080774
-0.37822008
-0.36183955
-0.34055045
-0.31319316
-0.27853421
-0.23532777
-0.18238224
-0.11840916
-0.043663238
0.044812929
0.14593439
0.25969465
0.3863388
0.52471241
0.67327778
0.83020656
0.99332449
1.1601651
1.3283082
1.4953496
1.6591744
1.8179259
1.969833
2.1152824
2.2530959
2.3658768
2.433512
2.4766871
2.4871095
2.5880181
2.484036
1.4440268
0.80161875
0.58967063
0.14890654
-0.4791077
-1.1921266
-1.9097402
-2.5966059
-3.1730107
-3.5571805
-3.7587254
-3.7899324
-3.7015275
-3.5394424
-3.3395928
-3.1322119
-2.9255529
-2.7350268
-2.5770691
-2.4558954
-2.3632184
-2.2826363
-2.2082325
-2.0245747
-1.7373301
-1.5796497
-1.989543
-2.2815596
-2.3699137
-2.4025136
-2.448001
-2.5025543
-2.5638672
-2.63103
-2.7067362
-2.7943649
-2.8944435
-3.0059621
-3.126449
-3.2523113
-3.379341
-3.503147
-3.6196649
-3.7255704
-3.8177143
-3.8952686
-3.9585195
-4.0071831
-4.0421527
-4.0647814
-4.0767146
-4.079743
-4.0756939
-4.0663214
-4.053323
-4.038171
-4.0222083
-4.0066411
-3.9924509
-3.980319
-3.9709333
-3.9659102
-3.9630781
-0.46422853
-0.46214831
-0.45879583
-0.45642432
-0.45301289
-0.44791201
-0.44036104
-0.42924895
-0.41329052
-0.39110159
-0.36117053
-0.32196588
-0.27188257
-0.20942848
-0.13347303
-0.042725744
0.06334829
0.18363243
0.32068624
0.47202972
0.63581014
0.80981909
0.99141845
1.1776053
1.3653151
1.5515359
1.7336658
1.9093561
2.0766592
2.2368702
2.3837687
2.4923505
2.5699142
2.6552416
3.4472474
5.1414075
5.2216266
4.8491529
1.1459006
0.99253629
0.46876807
-0.3705593
-1.3123261
-2.2016242
-3.0763601
-3.8547611
-4.3160477
-4.5044043
-4.4556898
-4.2697307
-4.0104023
-3.708748
-3.4130135
-3.1187257
-2.8472777
-2.6351763
-2.4907601
-2.4052282
-2.3671973
-2.3944241
-2.0907806
-1.3497794
-1.079396
-0.95986466
-1.9942041
-2.7319033
-2.6878152
-2.6417269
-2.6331115
-2.6607654
-2.7041476
-2.7628615
-2.8415991
-2.9402187
-3.0567607
-3.1873068
-3.3265174
-3.4682257
-3.6063329
-3.7353573
-3.8505544
-3.9494143
-4.0302463
-4.0929796
-4.1382265
-4.167383
-4.182398
-4.1854258
-4.1787972
-4.1647101
-4.1453512
-4.1227068
-4.098488
-4.0742033
-4.0511667
-4.0304572
-4.0128054
-3.9990584
-3.990638
-3.9854618
-0.50394618
-0.50444614
-0.5043307
-0.50595486
-0.50747358
-0.50805255
-0.50678067
-0.50239199
-0.49339606
-0.47816871
-0.45490487
-0.42164228
-0.37636235
-0.31713675
-0.24217906
-0.14973631
-0.038025878
0.084963978
0.23382623
0.39903095
0.57920441
0.77180513
0.97354704
1.1805988
1.3888885
1.5945209
1.7939968
1.9837337
2.1604003
2.3253054
2.465672
2.5397575
2.5731421
2.6877115
6.0425226
5.6111541
5.1409557
5.0550585
2.074275
1.7558189
0.99281537
-0.18004757
-1.4467017
-2.5775801
-3.6747483
-4.8623097
-5.402472
-5.519614
-5.3246188
-5.04867
-4.6279016
-4.2011553
-3.8045214
-3.3830014
-2.9709569
-2.6699977
-2.4982986
-2.4368628
-2.5084028
-2.7484923
-2.2692606
-1.8610488
-1.6820279
-1.6478203
-1.6935752
-3.1339928
-3.1003159
-2.9106948
-2.80589
-2.7857444
-2.7936522
-2.8271732
-2.8927118
-2.988581
-3.1113325
-3.2551212
-3.4118712
-3.5726925
-3.7291103
-3.8734169
-4.0002341
-4.1059981
-4.18917
-4.2499156
-4.2895759
-4.3103471
-4.3149364
-4.3062247
-4.2871957
-4.2605981
-4.2290122
-4.1947127
-4.1596915
-4.1256272
-4.0939113
-4.0656457
-4.0416977
-4.0230179
-4.0108175
-4.0031789
-0.54252824
-0.54579945
-0.54946605
-0.55587149
-0.56328702
-0.57071705
-0.57716169
-0.58120555
-0.58114651
-0.57506326
-0.56077674
-0.53591491
-0.49798127
-0.4444779
-0.3730157
-0.28151055
-0.16854299
-0.034588377
0.12207085
0.30134702
0.49920366
0.71229448
0.93642501
1.1666592
1.3975373
1.6237458
1.8405149
2.042921
2.2254204
2.3891909
2.5201488
2.5555989
2.526217
2.604188
5.1312745
5.5368073
4.7047572
3.4402484
2.2496975
2.5870137
1.4272608
0.041469034
-1.5410134
-3.3147288
-4.7814846
-6.1276364
-6.8447021
-6.8356216
-6.3839726
-6.0978563
-5.4787171
-5.0092561
-4.5246398
-3.9024699
-3.2290438
-2.7225462
-2.4804218
-2.4443259
-2.6798758
-3.1545846
-2.6926371
-2.5181419
-3.4427569
-3.7377648
-4.1443863
-4.0801119
-3.7000989
-3.2691505
-3.0332478
-2.9383985
-2.8933807
-2.8930496
-2.9417151
-3.0347782
-3.1669343
-3.329465
-3.5103582
-3.6968701
-3.876993
-4.0406802
-4.1808967
-4.2936954
-4.3778171
-4.4341295
-4.4650359
-4.4738754
-4.4643721
-4.4403592
-4.4055549
-4.3633914
-4.316923
-4.2687151
-4.2209866
-4.1755255
-4.133799
-4.0969245
-4.0657389
-4.0415988
-4.0251719
-4.0146896
-0.57891128
-0.58515967
-0.59325687
-0.60522418
-0.61957268
-0.63519366
-0.65099919
-0.66543964
-0.67659259
-0.68222907
-0.67979981
-0.66646429
-0.63910793
-0.59453013
-0.52956349
-0.44140878
-0.32792305
-0.18786941
-0.020460721
0.17282257
0.39020809
0.62649254
0.87631404
1.1332734
1.3902279
1.639956
1.8759926
2.092416
2.2822873
2.4463282
2.5780193
2.6221896
2.6146347
2.6362525
2.8045389
2.9318431
2.2585064
2.501775
3.1756631
2.2477844
3.1974451
3.3520297
-0.60367217
-5.2422646
-7.0007486
-8.067419
-8.3732736
-7.8153268
-7.5319193
-7.3879718
-7.0236361
-6.3724746
-5.6814439
-4.6681165
-3.4894486
-2.7473217
-2.3785149
-2.3532424
-2.7930155
-3.438051
-2.3521756
-3.3044947
-3.6647168
-4.6770278
-5.1953525
-5.0505591
-4.3290486
-3.6473546
-3.2726785
-3.0909266
-2.984641
-2.9467835
-2.9780134
-3.071348
-3.2194981
-3.4098638
-3.6251682
-3.8468933
-4.0582067
-4.2460239
-4.4015916
-4.5208817
-4.6034932
-4.651582
-4.669162
-4.6611498
-4.6327035
-4.5888194
-4.5341572
-4.4728226
-4.4083694
-4.3437118
-4.2812086
-4.2227017
-4.1695811
-4.1230796
-4.0834654
-4.0537815
-4.0325855
-4.0185962
-0.61134062
-0.62130737
-0.63443856
-0.65285242
-0.67526812
-0.70053734
-0.72751066
-0.75452085
-0.77948411
-0.79992656
-0.81290583
-0.81497098
-0.80228522
-0.77080397
-0.71635141
-0.63508519
-0.5237643
-0.38012057
-0.2031433
0.006310319
0.24490592
0.50803428
0.78841236
1.0774901
1.3660067
1.6445061
1.9044729
2.1391494
2.3418777
2.5142993
2.6645674
2.7626833
2.8420715
3.0385753
3.2408263
3.172132
3.1053378
2.7843646
1.5677884
2.239936
2.4191562
1.4712951
-4.4650668
-9.5669122
-11.363535
-10.759226
-11.368171
-10.829138
-8.8188373
-9.3228235
-9.9761929
-8.3209507
-7.2702603
-5.7388937
-3.4167672
-2.5198842
-2.2234696
-1.9823063
-2.5568938
-3.3468031
-2.3338059
-3.5643918
-4.109634
-4.8687453
-5.2216475
-5.0537687
-4.3994928
-3.7709983
-3.4012342
-3.1807859
-3.0328505
-2.9665091
-2.9861917
-3.0879436
-3.2637499
-3.4967107
-3.7622448
-4.0322201
-4.2846698
-4.5022576
-4.6747944
-4.7987295
-4.8754275
-4.9094266
-4.9071778
-4.8756891
-4.8219485
-4.752444
-4.6729206
-4.5882384
-4.5022525
-4.4182835
-4.3387982
-4.2655953
-4.1999501
-4.1437596
-4.0973674
-4.0592346
-4.0321828
-4.0141122
-0.63864608
-0.65283631
-0.67163233
-0.69735897
-0.72904261
-0.76548084
-0.80555989
-0.84757184
-0.88934718
-0.92820099
-0.96074535
-0.98295013
-0.99020897
-0.97732664
-0.93885375
-0.86952195
-0.76465728
-0.6205803
-0.43544099
-0.20955408
0.054166833
0.34810329
0.66599976
0.99510013
1.3232576
1.6383439
1.9295331
2.1889172
2.4105987
2.5967163
2.7659728
2.9143959
3.0493369
3.2729461
3.4925349
3.6168096
3.4957613
2.2702641
3.0723486
2.0084157
0.7815964
-0.68793089
-5.5719594
-13.871748
-16.135722
-12.947441
-12.016068
-14.91879
-13.020816
-15.252076
-13.589034
-11.1284
-9.5642623
-7.6566579
-4.1974831
-1.74635
-0.8494787
-1.0303693
-2.1387958
-3.6026439
-3.8238483
-3.4908503
-4.3134807
-4.3993846
-4.4131021
-4.2899417
-3.9522716
-3.6212013
-3.3814855
-3.1768333
-3.0137101
-2.9319828
-2.949908
-3.0729511
-3.2948937
-3.5941113
-3.9307771
-4.2681495
-4.5745406
-4.8279876
-5.017635
-5.1417796
-5.2051495
-5.2161866
-5.1848269
-5.1209744
-5.033867
-4.931633
-4.8211738
-4.708251
-4.5967622
-4.4906357
-4.3918633
-4.3026565
-4.2237957
-4.1555434
-4.0989477
-4.0540002
-4.0214901
-3.9992039
-0.65936081
-0.67818584
-0.70322706
-0.73712785
-0.77917193
-0.82829795
-0.88357649
-0.94327386
-1.0051912
-1.0665135
-1.1235663
-1.1718201
-1.2056691
-1.2185865
-1.203567
-1.1533959
-1.0612676
-0.921639
-0.73104438
-0.48870596
-0.19739997
0.13562933
0.49964575
0.87981362
1.2591715
1.6217123
1.9537833
2.2456594
2.4915599
2.6924729
2.8689236
3.0379604
3.1918697
3.3715313
3.6070816
3.9112741
3.9978842
3.2373903
4.4553553
3.3023751
1.3951996
1.9620168
-4.1967212
-15.025113
-15.977323
-12.564921
-11.974698
-8.2093793
-14.942756
-18.992418
-17.973858
-14.512015
-12.488515
-10.414261
-6.6201539
-2.4388602
1.558294
1.2888736
-1.296419
-4.8203557
-5.2408622
-4.5704754
-4.2684958
-3.7251231