/*--------------------------------*- C++ -*----------------------------------*\
  =========                 |
  \\      /  F ield         | OpenFOAM: The Open Source CFD Toolbox
   \\    /   O peration     | Website:  https://openfoam.org
    \\  /    A nd           | Version:  9
     \\/     M anipulation  |
\*---------------------------------------------------------------------------*/
FoamFile
{
    format      ascii;
    class       volVectorField;
    location    "0.37";
    object      U;
}
// * * * * * * * * * * * * * * * * * * * * * * * * * * * * * * * * * * * * * //

dimensions      [0 1 -1 0 0 0 0];

internalField   nonuniform List<vector> 
10000
(
(0.00099361911 0.0012858898 0)
(-0.003547842 0.0014073565 0)
(-0.0070899711 0.0014982319 0)
(-0.01015392 0.0016230102 0)
(-0.013804724 0.001742016 0)
(-0.017549617 0.001893861 0)
(-0.021404112 0.0020557474 0)
(-0.025353092 0.0022286465 0)
(-0.029408757 0.0024079927 0)
(-0.033587462 0.0025913667 0)
(-0.037882048 0.0027802907 0)
(-0.042282641 0.0029692902 0)
(-0.04677942 0.0031550695 0)
(-0.05135761 0.0033286822 0)
(-0.055998962 0.0034855588 0)
(-0.060681934 0.0036193225 0)
(-0.065380493 0.0037267148 0)
(-0.070059062 0.0038034003 0)
(-0.07467936 0.0038408494 0)
(-0.079202687 0.0038298573 0)
(-0.083585543 0.0037709052 0)
(-0.087792854 0.0036567622 0)
(-0.091733925 0.0034988557 0)
(-0.095365749 0.0032680722 0)
(-0.09866431 0.0029887816 0)
(-0.10154889 0.002655387 0)
(-0.10396247 0.0022887052 0)
(-0.10578928 0.0018925634 0)
(-0.10697678 0.0014385175 0)
(-0.10751834 0.00093262268 0)
(-0.10742559 0.00035471437 0)
(-0.10684033 -0.00028417919 0)
(-0.10563641 -0.00086182764 0)
(-0.10368063 -0.0013846109 0)
(-0.10104275 -0.0018638197 0)
(-0.097682858 -0.0022959226 0)
(-0.093664573 -0.0026615725 0)
(-0.089089449 -0.002912984 0)
(-0.083832974 -0.002999231 0)
(-0.077950193 -0.0030351254 0)
(-0.071592741 -0.0029713363 0)
(-0.064729151 -0.0027407355 0)
(-0.05741038 -0.002404918 0)
(-0.049629952 -0.0019580509 0)
(-0.041416602 -0.0014584008 0)
(-0.032852725 -0.00093111516 0)
(-0.024041109 -0.00042208798 0)
(-0.014970025 9.753818e-05 0)
(-0.0055960656 0.00053876765 0)
(0.0039517835 0.00084857175 0)
(0.01352226 0.001024702 0)
(0.023024675 0.0010843224 0)
(0.0323564 0.0010062884 0)
(0.041430707 0.00081096485 0)
(0.050108537 0.00052036086 0)
(0.058343588 0.00020656171 0)
(0.066019428 -0.00015272933 0)
(0.073036141 -0.00045141901 0)
(0.079446017 -0.00064010865 0)
(0.085215155 -0.00075205088 0)
(0.090347589 -0.00066441051 0)
(0.094770045 -0.00052629016 0)
(0.098508532 -0.00021211338 0)
(0.10156685 0.00018502116 0)
(0.10397761 0.00072282937 0)
(0.10580775 0.0013226745 0)
(0.10706474 0.0019187845 0)
(0.10767138 0.0023610808 0)
(0.10748113 0.0027300657 0)
(0.1065701 0.0030262486 0)
(0.10493507 0.0033060056 0)
(0.10260972 0.0035242856 0)
(0.099705194 0.0037550671 0)
(0.096331621 0.0039416948 0)
(0.092568948 0.0040917209 0)
(0.08848231 0.0041951171 0)
(0.084137773 0.0042471373 0)
(0.079600939 0.004247392 0)
(0.074926515 0.0041921582 0)
(0.070163248 0.0040908331 0)
(0.065367882 0.0039459631 0)
(0.060582525 0.0037545038 0)
(0.055839699 0.003526865 0)
(0.051176205 0.0032801071 0)
(0.046629458 0.0030119278 0)
(0.042217551 0.0027276659 0)
(0.037958159 0.0024384977 0)
(0.033867569 0.0021333691 0)
(0.029950915 0.0018355033 0)
(0.026209218 0.0015397735 0)
(0.022657402 0.0012555542 0)
(0.019294163 0.00097544533 0)
(0.016120898 0.000706461 0)
(0.013126275 0.00043487586 0)
(0.010228173 0.00015363779 0)
(0.0073918637 -0.00011783757 0)
(0.0045573986 -0.00034317677 0)
(0.0023490481 -0.00055287847 0)
(-0.001166911 -0.00071155104 0)
(-0.0037629746 -0.00086184779 0)
(0.0011070465 0.0060741659 0)
(-0.003338539 0.0063613445 0)
(-0.0068764462 0.0065683835 0)
(-0.0099140269 0.0068587753 0)
(-0.013539049 0.0071252039 0)
(-0.01724217 0.0074363929 0)
(-0.021077442 0.00776652 0)
(-0.025011074 0.0081112195 0)
(-0.029057846 0.0084699846 0)
(-0.033228174 0.0088359507 0)
(-0.037518013 0.0092014803 0)
(-0.041921898 0.0095476805 0)
(-0.046433486 0.0098839012 0)
(-0.05103914 0.010178628 0)
(-0.055718011 0.010435726 0)
(-0.060446416 0.010638074 0)
(-0.065196841 0.010770016 0)
(-0.069940625 0.010819104 0)
(-0.074644861 0.010773195 0)
(-0.079259818 0.010625334 0)
(-0.083740529 0.01035383 0)
(-0.088041518 0.0099611777 0)
(-0.092095818 0.0094499249 0)
(-0.095847621 0.0087830156 0)
(-0.099250009 0.0079792579 0)
(-0.1022246 0.0070376576 0)
(-0.10470601 0.0059734754 0)
(-0.10662954 0.0047964143 0)
(-0.10793962 0.0034674405 0)
(-0.10861925 0.0019894917 0)
(-0.10867209 0.00034805793 0)
(-0.10809495 -0.0013766885 0)
(-0.10677899 -0.0030369119 0)
(-0.10472676 -0.0046583383 0)
(-0.10200328 -0.0062130235 0)
(-0.098547531 -0.007696384 0)
(-0.094386473 -0.0091100961 0)
(-0.089593886 -0.010383099 0)
(-0.084198581 -0.011470569 0)
(-0.078252928 -0.012472875 0)
(-0.071729642 -0.013337558 0)
(-0.064694794 -0.014074151 0)
(-0.057247294 -0.014642335 0)
(-0.049362863 -0.015027287 0)
(-0.041091496 -0.015295377 0)
(-0.03249338 -0.015424128 0)
(-0.023616617 -0.015418568 0)
(-0.014492023 -0.01528215 0)
(-0.0051660892 -0.015042217 0)
(0.0042926779 -0.014786152 0)
(0.013791565 -0.014509358 0)
(0.02321704 -0.014222795 0)
(0.032467575 -0.013916505 0)
(0.041473302 -0.013549989 0)
(0.050134721 -0.013170794 0)
(0.058353063 -0.012702931 0)
(0.066046942 -0.012169506 0)
(0.073190104 -0.011432515 0)
(0.079716898 -0.010556043 0)
(0.085677984 -0.0095258957 0)
(0.090967521 -0.0082788811 0)
(0.095527551 -0.0069326002 0)
(0.0994422 -0.0053613396 0)
(0.10266011 -0.0037123514 0)
(0.10522924 -0.0019194456 0)
(0.1070929 -0.00011151731 0)
(0.10817886 0.0016865851 0)
(0.10854843 0.0032801509 0)
(0.10820058 0.0047099295 0)
(0.1071863 0.0059707254 0)
(0.10545981 0.0070955871 0)
(0.10307047 0.0080720285 0)
(0.10012199 0.0089428581 0)
(0.096658654 0.0096897382 0)
(0.092808635 0.010305394 0)
(0.088622214 0.010785492 0)
(0.084174324 0.011122308 0)
(0.079532013 0.01131861 0)
(0.074759823 0.011384391 0)
(0.069912449 0.0113239 0)
(0.065032965 0.011153039 0)
(0.060169305 0.010884291 0)
(0.055373243 0.010536419 0)
(0.050670941 0.010112579 0)
(0.046089566 0.0096447822 0)
(0.041659883 0.0091293694 0)
(0.037381558 0.0085810372 0)
(0.033282869 0.0080206262 0)
(0.029375984 0.0074506088 0)
(0.025647537 0.0068779306 0)
(0.022110262 0.0063221374 0)
(0.018759982 0.0057735985 0)
(0.01559208 0.0052408894 0)
(0.012581438 0.0047092291 0)
(0.0096801763 0.0041727793 0)
(0.0068978722 0.0036533338 0)
(0.004123249 0.0031885979 0)
(0.0019749131 0.0027865618 0)
(-0.0014815068 0.0024466937 0)
(-0.0039158769 0.0021170994 0)
(0.0012743348 0.0097535617 0)
(-0.0030701006 0.010119102 0)
(-0.0065933485 0.010402914 0)
(-0.0095966507 0.010765577 0)
(-0.013221306 0.011138093 0)
(-0.016898314 0.011538806 0)
(-0.020717589 0.011959033 0)
(-0.024636386 0.01240116 0)
(-0.028669064 0.012865107 0)
(-0.032839024 0.013324187 0)
(-0.037151937 0.013775577 0)
(-0.041580519 0.014207058 0)
(-0.046128029 0.014614083 0)
(-0.050784339 0.014969653 0)
(-0.05551776 0.015256119 0)
(-0.060326618 0.015459117 0)
(-0.065180076 0.015568351 0)
(-0.070038644 0.01556255 0)
(-0.074857655 0.015419117 0)
(-0.079608445 0.015123415 0)
(-0.084238758 0.014663607 0)
(-0.088688444 0.014023343 0)
(-0.092906779 0.013193809 0)
(-0.096833185 0.012160094 0)
(-0.10040784 0.010931167 0)
(-0.10355354 0.0095131296 0)
(-0.10620054 0.0078962591 0)
(-0.10828626 0.0060959843 0)
(-0.10976331 0.0041121832 0)
(-0.1106009 0.0019720116 0)
(-0.11073385 -0.0002826571 0)
(-0.11014072 -0.0025921834 0)
(-0.10880018 -0.0049115344 0)
(-0.106697 -0.0072113032 0)
(-0.10386723 -0.0094401016 0)
(-0.10029868 -0.011557839 0)
(-0.095988666 -0.013539688 0)
(-0.090994539 -0.01533877 0)
(-0.085368106 -0.016942031 0)
(-0.079168378 -0.018331861 0)
(-0.072458518 -0.01947207 0)
(-0.065230893 -0.020463164 0)
(-0.05752618 -0.021270123 0)
(-0.049445275 -0.021874855 0)
(-0.0410143 -0.022285047 0)
(-0.032256269 -0.022538901 0)
(-0.023294449 -0.022657439 0)
(-0.014135113 -0.022645668 0)
(-0.0048035442 -0.022516551 0)
(0.0046091806 -0.02230113 0)
(0.014042519 -0.022010694 0)
(0.023403922 -0.021656502 0)
(0.032648832 -0.021243692 0)
(0.041642031 -0.020715304 0)
(0.050292852 -0.020108565 0)
(0.05858261 -0.019390319 0)
(0.066470076 -0.018537826 0)
(0.073811288 -0.017451032 0)
(0.080536283 -0.016221454 0)
(0.086727298 -0.014763858 0)
(0.092250843 -0.013112622 0)
(0.097089847 -0.011243288 0)
(0.10122774 -0.0091560027 0)
(0.10460396 -0.0069182434 0)
(0.10725799 -0.0045637217 0)
(0.10916616 -0.0021966123 0)
(0.11026861 0.00015671073 0)
(0.11055223 0.002448289 0)
(0.11006294 0.004647581 0)
(0.10887264 0.006695595 0)
(0.10697474 0.0085316779 0)
(0.10441151 0.010201805 0)
(0.10128942 0.011648618 0)
(0.097666087 0.012909305 0)
(0.093638365 0.013955413 0)
(0.089272259 0.014792747 0)
(0.084642592 0.015414482 0)
(0.079833027 0.015836297 0)
(0.07490022 0.016057296 0)
(0.069899302 0.016115721 0)
(0.064894826 0.016000267 0)
(0.059932112 0.015743964 0)
(0.055035015 0.015361284 0)
(0.050251577 0.014886114 0)
(0.045613413 0.014322675 0)
(0.041121875 0.013692202 0)
(0.036819814 0.01302428 0)
(0.032710677 0.012327671 0)
(0.028784726 0.011609309 0)
(0.025060154 0.01089108 0)
(0.021535202 0.01018238 0)
(0.018197042 0.0094956318 0)
(0.01504221 0.0088395089 0)
(0.012044604 0.008206165 0)
(0.0091597856 0.0075985723 0)
(0.0063984211 0.0070355109 0)
(0.0036848059 0.0065189939 0)
(0.0015965389 0.006096895 0)
(-0.0018290915 0.0056904303 0)
(-0.004100194 0.0053376526 0)
(0.0014789782 0.011973525 0)
(-0.0027116955 0.012463398 0)
(-0.0062338365 0.012827824 0)
(-0.0091897553 0.01327452 0)
(-0.012775985 0.013765085 0)
(-0.016430029 0.014286264 0)
(-0.020224689 0.014840163 0)
(-0.024115585 0.015431268 0)
(-0.028145861 0.016030866 0)
(-0.032328811 0.016637107 0)
(-0.036646481 0.017238914 0)
(-0.041094248 0.017827213 0)
(-0.045680611 0.018361434 0)
(-0.050405321 0.018845592 0)
(-0.055234765 0.019245424 0)
(-0.06013792 0.01953884 0)
(-0.065094355 0.019707668 0)
(-0.070087912 0.019727302 0)
(-0.075078384 0.019580338 0)
(-0.080005927 0.019235433 0)
(-0.084827035 0.018675929 0)
(-0.089492958 0.017881426 0)
(-0.093935967 0.016841726 0)
(-0.098083045 0.015539649 0)
(-0.10186606 0.013980906 0)
(-0.10522553 0.012156912 0)
(-0.10808754 0.010078901 0)
(-0.1103786 0.0077596602 0)
(-0.11203149 0.00521513 0)
(-0.11298753 0.0024856426 0)
(-0.11321851 -0.00037804721 0)
(-0.11271645 -0.0033534439 0)
(-0.11140138 -0.0063932231 0)
(-0.10926951 -0.0094029976 0)
(-0.10637392 -0.012352883 0)
(-0.10268284 -0.015193072 0)
(-0.098219812 -0.017858085 0)
(-0.093066784 -0.020330107 0)
(-0.087273654 -0.022575555 0)
(-0.080866716 -0.024585972 0)
(-0.07393042 -0.026343039 0)
(-0.066533864 -0.027827345 0)
(-0.058661272 -0.029078732 0)
(-0.050338025 -0.030106319 0)
(-0.041675366 -0.030894251 0)
(-0.032752608 -0.031480399 0)
(-0.023594649 -0.031907124 0)
(-0.014230112 -0.032098984 0)
(-0.0047299681 -0.032148704 0)
(0.0048400325 -0.032025675 0)
(0.014413263 -0.031718804 0)
(0.023908422 -0.031223171 0)
(0.033294416 -0.030566461 0)
(0.042470949 -0.029768059 0)
(0.051325419 -0.028779496 0)
(0.059810212 -0.027558305 0)
(0.067907823 -0.02614171 0)
(0.075467725 -0.024479472 0)
(0.082405724 -0.022573538 0)
(0.088819063 -0.020419045 0)
(0.094542684 -0.017989355 0)
(0.099545497 -0.015339059 0)
(0.10382213 -0.012503868 0)
(0.10729415 -0.009484634 0)
(0.10997875 -0.0063738268 0)
(0.11183006 -0.0032362224 0)
(0.11283074 -0.00015879264 0)
(0.11303614 0.0028264307 0)
(0.1124362 0.0056960838 0)
(0.11105102 0.0083808013 0)
(0.10893975 0.01081714 0)
(0.10615653 0.013014364 0)
(0.10279506 0.014928037 0)
(0.098931224 0.016567986 0)
(0.094659219 0.017912212 0)
(0.090051887 0.018978908 0)
(0.085192193 0.019757583 0)
(0.080153856 0.020266359 0)
(0.075022594 0.020522455 0)
(0.069843211 0.020549418 0)
(0.064653076 0.020367066 0)
(0.059526313 0.020001543 0)
(0.054514089 0.019475336 0)
(0.049633598 0.018822972 0)
(0.04489964 0.018061242 0)
(0.04036803 0.017227294 0)
(0.036025843 0.016337081 0)
(0.03187858 0.01540521 0)
(0.02795111 0.014461603 0)
(0.024232773 0.013526827 0)
(0.020726898 0.012611354 0)
(0.017428753 0.011723627 0)
(0.014313121 0.010864194 0)
(0.011349002 0.010064922 0)
(0.0085162665 0.0093252763 0)
(0.0058257885 0.0086518949 0)
(0.0031919576 0.0080448256 0)
(0.0011417286 0.0075345928 0)
(-0.002222982 0.0070703757 0)
(-0.0042823348 0.0066511772 0)
(0.0017728477 0.01551586 0)
(-0.0022397181 0.016163462 0)
(-0.0057839336 0.01659857 0)
(-0.0086712717 0.017144805 0)
(-0.012220713 0.017732333 0)
(-0.01583321 0.01837153 0)
(-0.019583716 0.019059254 0)
(-0.023458099 0.019787806 0)
(-0.027476319 0.020532056 0)
(-0.03164489 0.021295454 0)
(-0.035975558 0.022053011 0)
(-0.040471166 0.022783282 0)
(-0.045121979 0.023456892 0)
(-0.049911963 0.024056607 0)
(-0.054834647 0.024571582 0)
(-0.059872566 0.024951663 0)
(-0.064997931 0.025176162 0)
(-0.07017025 0.025203669 0)
(-0.075351443 0.025022388 0)
(-0.080511572 0.024600192 0)
(-0.085588428 0.023909258 0)
(-0.090515644 0.022924921 0)
(-0.095239511 0.021627687 0)
(-0.099683297 0.020001865 0)
(-0.10377888 0.018029123 0)
(-0.10744373 0.015715426 0)
(-0.11058675 0.013063376 0)
(-0.11313989 0.01009836 0)
(-0.11502737 0.006841632 0)
(-0.1161835 0.0033345885 0)
(-0.11656163 -0.00037305015 0)
(-0.11614263 -0.0042087153 0)
(-0.1148327 -0.0081191813 0)
(-0.11263298 -0.011976258 0)
(-0.10962395 -0.01576039 0)
(-0.10576283 -0.019411657 0)
(-0.1010859 -0.022812664 0)
(-0.095688034 -0.025976349 0)
(-0.089625221 -0.02884506 0)
(-0.082966388 -0.031408609 0)
(-0.075760635 -0.033676949 0)
(-0.068056681 -0.035625033 0)
(-0.059921141 -0.037250621 0)
(-0.051395233 -0.038597942 0)
(-0.042531999 -0.039696704 0)
(-0.033408685 -0.040545703 0)
(-0.024038331 -0.041172549 0)
(-0.014471297 -0.041534824 0)
(-0.0047890286 -0.041679669 0)
(0.0050154098 -0.041600542 0)
(0.014850427 -0.041261034 0)
(0.02460136 -0.040682545 0)
(0.034187727 -0.039849575 0)
(0.043544784 -0.03879939 0)
(0.052642165 -0.037480299 0)
(0.061369167 -0.035871046 0)
(0.069695433 -0.033999293 0)
(0.077511999 -0.031848992 0)
(0.084706873 -0.029370833 0)
(0.091392464 -0.026605076 0)
(0.09738045 -0.02351167 0)
(0.10259377 -0.020140413 0)
(0.10707263 -0.016543604 0)
(0.11070624 -0.012705465 0)
(0.11347384 -0.0087497252 0)
(0.11535336 -0.0047219012 0)
(0.11631113 -0.0007220212 0)
(0.11638989 0.0031974622 0)
(0.11560019 0.0069223057 0)
(0.11397615 0.010406666 0)
(0.11159148 0.013592618 0)
(0.10850851 0.01645214 0)
(0.10483006 0.018949828 0)
(0.10063753 0.021079241 0)
(0.096036461 0.022821464 0)
(0.091105858 0.024188068 0)
(0.085919561 0.025191752 0)
(0.080589176 0.025849832 0)
(0.075177106 0.026191313 0)
(0.069741004 0.026222188 0)
(0.064346786 0.025998863 0)
(0.059042692 0.025551366 0)
(0.053861798 0.024909952 0)
(0.048845872 0.024095676 0)
(0.044027168 0.023162741 0)
(0.03940894 0.022136722 0)
(0.035010674 0.021030246 0)
(0.030849144 0.019891013 0)
(0.026920915 0.018733785 0)
(0.023224171 0.01758666 0)
(0.019745499 0.016467811 0)
(0.016462892 0.015387418 0)
(0.013395677 0.014349063 0)
(0.010516116 0.013383795 0)
(0.0077554077 0.012504052 0)
(0.0051278538 0.011705824 0)
(0.0025774624 0.011002464 0)
(0.00061778272 0.010401039 0)
(-0.00269031 0.0098850289 0)
(-0.0045324874 0.0093913553 0)
(0.0021431265 0.01856627 0)
(-0.0016517932 0.019363425 0)
(-0.0052463179 0.019868599 0)
(-0.0080625288 0.02049883 0)
(-0.011553956 0.021193804 0)
(-0.015105598 0.021960887 0)
(-0.018811478 0.022788195 0)
(-0.022646128 0.023663737 0)
(-0.026640887 0.024582755 0)
(-0.030810239 0.025514641 0)
(-0.035160631 0.026438747 0)
(-0.039691224 0.027337453 0)
(-0.044407011 0.028182097 0)
(-0.049288518 0.02894447 0)
(-0.054335864 0.029588207 0)
(-0.059527582 0.030082014 0)
(-0.064834799 0.03039301 0)
(-0.070231747 0.030483403 0)
(-0.075669434 0.030311785 0)
(-0.081104808 0.029845601 0)
(-0.086485974 0.02905385 0)
(-0.091755377 0.027903092 0)
(-0.09683754 0.02636613 0)
(-0.10165849 0.024419505 0)
(-0.10612825 0.022044145 0)
(-0.11016591 0.019260561 0)
(-0.11367789 0.016037317 0)
(-0.11657208 0.012431181 0)
(-0.11876547 0.0084509826 0)
(-0.12017078 0.0041516764 0)
(-0.12072846 -0.00040243887 0)
(-0.12042415 -0.0051251499 0)
(-0.11912294 -0.009903679 0)
(-0.11685699 -0.014684954 0)
(-0.11373933 -0.019360361 0)
(-0.10964299 -0.023823531 0)
(-0.10467286 -0.028015219 0)
(-0.098976946 -0.031891465 0)
(-0.092582644 -0.035409357 0)
(-0.085580487 -0.038554918 0)
(-0.078036491 -0.041321564 0)
(-0.070007092 -0.043723889 0)
(-0.061550407 -0.045774038 0)
(-0.052722894 -0.047488276 0)
(-0.043587008 -0.048882695 0)
(-0.034213323 -0.049989499 0)
(-0.024586414 -0.050789469 0)
(-0.014748118 -0.051328562 0)
(-0.0048044822 -0.0515553 0)
(0.0052537074 -0.051488794 0)
(0.015328574 -0.05112205 0)
(0.02532955 -0.05046047 0)
(0.035191615 -0.049485027 0)
(0.044850865 -0.04819457 0)
(0.054253644 -0.04653987 0)
(0.063271827 -0.044549006 0)
(0.071885912 -0.042208645 0)
(0.080030278 -0.039567465 0)
(0.087563209 -0.036496097 0)
(0.094573485 -0.033070097 0)
(0.10089218 -0.029322622 0)
(0.10639117 -0.025179503 0)
(0.11113365 -0.020754347 0)
(0.11497377 -0.016019275 0)
(0.11786712 -0.011149121 0)
(0.11978249 -0.0061780968 0)
(0.12069076 -0.00124079 0)
(0.12062902 0.0036041021 0)
(0.11959871 0.0082122837 0)
(0.11767768 0.012522762 0)
(0.11494383 0.016463152 0)
(0.1114747 0.019983677 0)
(0.1073844 0.023049104 0)
(0.10276669 0.025645056 0)
(0.097733466 0.027766725 0)
(0.092389379 0.029405958 0)
(0.086822019 0.030604364 0)
(0.081123457 0.031375096 0)
(0.075367769 0.031748453 0)
(0.069625888 0.031761974 0)
(0.063960664 0.031461027 0)
(0.058418947 0.030881159 0)
(0.053042944 0.03006368 0)
(0.047874013 0.029064127 0)
(0.042931492 0.027907656 0)
(0.038229013 0.02663618 0)
(0.033776299 0.025291672 0)
(0.029580686 0.023900412 0)
(0.025646836 0.022496855 0)
(0.021968042 0.02109779 0)
(0.018529635 0.019738684 0)
(0.015312639 0.018435115 0)
(0.012312813 0.017212817 0)
(0.0095072475 0.016065316 0)
(0.0068415846 0.015018859 0)
(0.0043302461 0.01408671 0)
(0.0018945178 0.013284511 0)
(1.5541101e-05 0.012615236 0)
(-0.0032079598 0.012023567 0)
(-0.0047941559 0.0114901 0)
(0.0025893133 0.021649813 0)
(-0.00096367017 0.022527475 0)
(-0.0046414213 0.023099699 0)
(-0.0073540876 0.023820163 0)
(-0.010765067 0.024636024 0)
(-0.014243167 0.025533736 0)
(-0.017886153 0.026510593 0)
(-0.021669289 0.027554541 0)
(-0.025631014 0.02864685 0)
(-0.029794284 0.029774866 0)
(-0.034157534 0.030893977 0)
(-0.038731294 0.031988791 0)
(-0.043516401 0.033026851 0)
(-0.04850546 0.033975111 0)
(-0.053694662 0.034786281 0)
(-0.059062665 0.035434808 0)
(-0.064587854 0.035863545 0)
(-0.070239669 0.036039668 0)
(-0.075974407 0.035912689 0)
(-0.081751134 0.035440014 0)
(-0.087508788 0.034581111 0)
(-0.093177728 0.033291786 0)
(-0.098694282 0.03153616 0)
(-0.10397393 0.029296299 0)
(-0.10890336 0.026540619 0)
(-0.11341445 0.023265297 0)
(-0.11737859 0.019474297 0)
(-0.12068828 0.01518559 0)
(-0.12326852 0.010436117 0)
(-0.12499864 0.0052888942 0)
(-0.12580156 -0.00018308201 0)
(-0.12560621 -0.0058794078 0)
(-0.12435043 -0.011635503 0)
(-0.12204511 -0.017436658 0)
(-0.11870947 -0.023108468 0)
(-0.11434414 -0.028441868 0)
(-0.10906199 -0.033489445 0)
(-0.10297744 -0.038127367 0)
(-0.09617846 -0.042321664 0)
(-0.088765466 -0.046057594 0)
(-0.080812658 -0.049342978 0)
(-0.072387763 -0.052187289 0)
(-0.063562468 -0.054613503 0)
(-0.054385859 -0.056647627 0)
(-0.044923167 -0.058341616 0)
(-0.035218216 -0.059707379 0)
(-0.025293063 -0.060700082 0)
(-0.015169262 -0.061390861 0)
(-0.0049022169 -0.061726108 0)
(0.0054652234 -0.061755179 0)
(0.015856723 -0.061385101 0)
(0.026192457 -0.060628409 0)
(0.036391788 -0.059479324 0)
(0.046411781 -0.057922094 0)
(0.05619057 -0.055958518 0)
(0.065591268 -0.053622801 0)
(0.074555341 -0.050819234 0)
(0.083098166 -0.047662028 0)
(0.091074253 -0.044015849 0)
(0.098435262 -0.039921821 0)
(0.10514574 -0.035468172 0)
(0.11104005 -0.030506371 0)
(0.11611612 -0.02515445 0)
(0.12021069 -0.019503172 0)
(0.12323389 -0.013592114 0)
(0.1251971 -0.0075855866 0)
(0.12603856 -0.0015818336 0)
(0.12579106 0.0042778401 0)
(0.12446852 0.0098529401 0)
(0.12217799 0.015057925 0)
(0.11900494 0.019801529 0)
(0.11504902 0.024016611 0)
(0.11044721 0.027665576 0)
(0.10531242 0.030728883 0)
(0.099756392 0.033214668 0)
(0.093904439 0.035119452 0)
(0.087852717 0.036479841 0)
(0.081700183 0.037327055 0)
(0.075535078 0.037703644 0)
(0.069428815 0.037646955 0)
(0.063444911 0.037220707 0)
(0.057628041 0.03646917 0)
(0.052031419 0.035450919 0)
(0.046680913 0.034211053 0)
(0.04159343 0.032799511 0)
(0.0367909 0.031258511 0)
(0.032275992 0.029635619 0)
(0.028057294 0.02797061 0)
(0.024122974 0.02629851 0)
(0.020471654 0.024644273 0)
(0.017089248 0.02304051 0)
(0.013943962 0.021507449 0)
(0.011033319 0.020071635 0)
(0.0083289329 0.0187405 0)
(0.0057833542 0.017530265 0)
(0.0034028096 0.016448718 0)
(0.0011164798 0.015504432 0)
(-0.00065147212 0.014804068 0)
(-0.0037860258 0.014129162 0)
(-0.0050857648 0.01353787 0)
(0.0030429128 0.024695529 0)
(-0.00022978618 0.025573736 0)
(-0.003944225 0.026232356 0)
(-0.0065331746 0.027053084 0)
(-0.0098456935 0.027996397 0)
(-0.013233611 0.029037152 0)
(-0.016793798 0.030177515 0)
(-0.02051387 0.03140904 0)
(-0.024423842 0.032702163 0)
(-0.028565563 0.034037515 0)
(-0.032948106 0.035386933 0)
(-0.037558446 0.036707634 0)
(-0.042418596 0.03797528 0)
(-0.047524521 0.039144385 0)
(-0.052868507 0.040170984 0)
(-0.058439753 0.041011217 0)
(-0.064216048 0.041605612 0)
(-0.070165116 0.041912755 0)
(-0.076247509 0.041874872 0)
(-0.082411049 0.041428827 0)
(-0.088604767 0.040536242 0)
(-0.094766724 0.039142083 0)
(-0.10079605 0.03720316 0)
(-0.1066142 0.034682274 0)
(-0.11211672 0.031556824 0)
(-0.117188 0.027785396 0)
(-0.121711 0.023404069 0)
(-0.12556209 0.018390438 0)
(-0.12861272 0.012809725 0)
(-0.13074027 0.0067309877 0)
(-0.13184805 0.00024280562 0)
(-0.13182585 -0.0065491292 0)
(-0.13062592 -0.013451703 0)
(-0.12827055 -0.020359605 0)
(-0.1246722 -0.027071896 0)
(-0.11993203 -0.033439369 0)
(-0.11424553 -0.039378886 0)
(-0.10768442 -0.04481146 0)
(-0.10038839 -0.049685749 0)
(-0.092482549 -0.053985413 0)
(-0.084052277 -0.057746127 0)
(-0.075167373 -0.061012169 0)
(-0.065904582 -0.063812418 0)
(-0.05634931 -0.066152994 0)
(-0.046548284 -0.068116846 0)
(-0.036480179 -0.069723378 0)
(-0.026185459 -0.070941681 0)
(-0.015703727 -0.07179362 0)
(-0.0051156826 -0.072274381 0)
(0.0056110346 -0.072377876 0)
(0.016421744 -0.072005133 0)
(0.027174933 -0.071161284 0)
(0.037822678 -0.069856129 0)
(0.048282693 -0.06805405 0)
(0.058452216 -0.065774846 0)
(0.068306102 -0.063069184 0)
(0.077733821 -0.059818383 0)
(0.086717563 -0.05610995 0)
(0.095184512 -0.051946742 0)
(0.10299764 -0.047199751 0)
(0.11017663 -0.041956573 0)
(0.11657027 -0.036212178 0)
(0.1220016 -0.029882177 0)
(0.12641709 -0.023203942 0)
(0.1296845 -0.016163443 0)
(0.13171214 -0.0090036176 0)
(0.13248293 -0.0017884259 0)
(0.13199753 0.0051993461 0)
(0.13031484 0.011850351 0)
(0.12756364 0.018039496 0)
(0.12384149 0.023650374 0)
(0.11927947 0.028606372 0)
(0.11403924 0.032866197 0)
(0.10826078 0.036409012 0)
(0.10207183 0.039243423 0)
(0.095605188 0.041387257 0)
(0.088983539 0.042874961 0)
(0.082304565 0.043761589 0)
(0.075649527 0.044089994 0)
(0.069108946 0.043922779 0)
(0.06275399 0.043322243 0)
(0.056625084 0.042351195 0)
(0.050765999 0.041074363 0)
(0.045208552 0.039543714 0)
(0.039969059 0.037826384 0)
(0.035058693 0.035972989 0)
(0.030484949 0.034036085 0)
(0.026242826 0.032062698 0)
(0.022321819 0.030084983 0)
(0.018712893 0.028149341 0)
(0.015396803 0.026272887 0)
(0.012348682 0.024490102 0)
(0.0095516418 0.022826571 0)
(0.0069714591 0.021291198 0)
(0.0045552837 0.019904608 0)
(0.0023131125 0.018672663 0)
(0.00026037077 0.017594737 0)
(-0.001369669 0.016822686 0)
(-0.0044422977 0.01608445 0)
(-0.0054078163 0.015433559 0)
(0.0034926633 0.027616519 0)
(0.0005431991 0.02848518 0)
(-0.003151463 0.029242155 0)
(-0.0055970098 0.030168559 0)
(-0.0087860053 0.031235585 0)
(-0.012064047 0.032435561 0)
(-0.015516548 0.033758919 0)
(-0.01914734 0.035191395 0)
(-0.023004554 0.036720116 0)
(-0.027110105 0.038283438 0)
(-0.031486919 0.039896608 0)
(-0.036140538 0.041483031 0)
(-0.041075183 0.043015591 0)
(-0.04630236 0.044453709 0)
(-0.051816712 0.045741253 0)
(-0.057613363 0.046823602 0)
(-0.063667904 0.047636107 0)
(-0.069947482 0.048125046 0)
(-0.076430682 0.048221956 0)
(-0.083056724 0.047873681 0)
(-0.089757585 0.046995246 0)
(-0.096468701 0.045542281 0)
(-0.10310786 0.043459619 0)
(-0.1095698 0.040680524 0)
(-0.11574721 0.037182659 0)
(-0.12151006 0.032930101 0)
(-0.12671403 0.027917652 0)
(-0.13122101 0.022152638 0)
(-0.13486401 0.015679626 0)
(-0.13750097 0.0085650041 0)
(-0.13901693 0.00093292986 0)
(-0.13923424 -0.0070732826 0)
(-0.13809313 -0.015278556 0)
(-0.1355916 -0.023458092 0)
(-0.13170154 -0.031365639 0)
(-0.12654545 -0.038893912 0)
(-0.12030146 -0.04583334 0)
(-0.11312926 -0.052068981 0)
(-0.1051913 -0.057600554 0)
(-0.096669029 -0.062442201 0)
(-0.087690423 -0.06663076 0)
(-0.078313435 -0.070255619 0)
(-0.068573985 -0.073399681 0)
(-0.058571713 -0.076045354 0)
(-0.048385552 -0.078253369 0)
(-0.037946294 -0.0800848 0)
(-0.027277963 -0.08151328 0)
(-0.016430042 -0.082561572 0)
(-0.0054342424 -0.08320947 0)
(0.0057460739 -0.08337596 0)
(0.017032347 -0.083010806 0)
(0.028274937 -0.082118646 0)
(0.039421338 -0.080665301 0)
(0.050399515 -0.078654588 0)
(0.061069842 -0.076075509 0)
(0.071431875 -0.072937907 0)
(0.081387351 -0.069292322 0)
(0.090833291 -0.065063074 0)
(0.099837732 -0.060333796 0)
(0.10826885 -0.055012988 0)
(0.11596622 -0.04899315 0)
(0.12294072 -0.042372041 0)
(0.12895651 -0.0351012 0)
(0.13378316 -0.027190097 0)
(0.13731638 -0.018896423 0)
(0.13947217 -0.010370964 0)
(0.14015179 -0.001848272 0)
(0.13934602 0.0064362139 0)
(0.13722802 0.014309564 0)
(0.13389923 0.021585681 0)
(0.12949497 0.028137972 0)
(0.12419019 0.033875665 0)
(0.11817748 0.038761464 0)
(0.11161978 0.042783492 0)
(0.10466845 0.04595015 0)
(0.097473692 0.048300214 0)
(0.090169288 0.049878322 0)
(0.082863046 0.050743506 0)
(0.075649539 0.050963918 0)
(0.06861939 0.050623641 0)
(0.0618375 0.049786942 0)
(0.055350311 0.048531715 0)
(0.049200047 0.046933157 0)
(0.043414478 0.045061682 0)
(0.038009286 0.042985263 0)
(0.03299122 0.040771393 0)
(0.028359679 0.038475234 0)
(0.024103102 0.036147955 0)
(0.020208902 0.033836623 0)
(0.016660844 0.031581165 0)
(0.013432744 0.029409452 0)
(0.010502138 0.027349182 0)
(0.0078402835 0.025441712 0)
(0.005412848 0.023684665 0)
(0.0031706147 0.022112245 0)
(0.0011021122 0.020728854 0)
(-0.00072195358 0.019543163 0)
(-0.0021719783 0.018629791 0)
(-0.0051410446 0.01783595 0)
(-0.0057613165 0.017146511 0)
(0.0039398671 0.030364871 0)
(0.00136309 0.031231421 0)
(-0.0022495326 0.032111573 0)
(-0.0045471292 0.033136036 0)
(-0.0075838005 0.034336951 0)
(-0.01071195 0.03570919 0)
(-0.014039775 0.037235972 0)
(-0.017554307 0.038894899 0)
(-0.021333097 0.040670577 0)
(-0.025388528 0.042516624 0)
(-0.029746224 0.044411032 0)
(-0.03443511 0.046307254 0)
(-0.039440808 0.048157308 0)
(-0.044788552 0.049910187 0)
(-0.050484225 0.051518246 0)
(-0.056526146 0.052895957 0)
(-0.062890818 0.053991908 0)
(-0.069550176 0.054729216 0)
(-0.076464118 0.055028638 0)
(-0.083597263 0.054830287 0)
(-0.090889158 0.054040568 0)
(-0.09824935 0.052588574 0)
(-0.10559989 0.050402599 0)
(-0.11282766 0.047412373 0)
(-0.11979896 0.043565476 0)
(-0.12638021 0.038831677 0)
(-0.13241233 0.033176344 0)
(-0.1377204 0.02661295 0)
(-0.14211759 0.019168001 0)
(-0.14540335 0.010905989 0)
(-0.14740207 0.0019915903 0)
(-0.14795017 -0.0074076648 0)
(-0.14692315 -0.017134668 0)
(-0.14426076 -0.026791093 0)
(-0.1400042 -0.036160108 0)
(-0.13427786 -0.044942515 0)
(-0.12726565 -0.052931118 0)
(-0.11926168 -0.060004902 0)
(-0.1105515 -0.066179379 0)
(-0.10130339 -0.071529942 0)
(-0.09166812 -0.076119102 0)
(-0.081748264 -0.080052304 0)
(-0.071518608 -0.083456722 0)
(-0.061041404 -0.086345927 0)
(-0.050439922 -0.088771417 0)
(-0.039611468 -0.090814197 0)
(-0.028554597 -0.092458072 0)
(-0.017312852 -0.09372998 0)
(-0.0058691471 -0.094543405 0)
(0.0058215234 -0.094863856 0)
(0.017631047 -0.094562289 0)
(0.029440966 -0.09362485 0)
(0.041186869 -0.092029024 0)
(0.052753825 -0.08979711 0)
(0.06403501 -0.08690604 0)
(0.074938007 -0.083351101 0)
(0.085444114 -0.079280031 0)
(0.095494434 -0.074608507 0)
(0.1050414 -0.069309799 0)
(0.11413329 -0.06339198 0)
(0.12259979 -0.056718923 0)
(0.13024088 -0.049171772 0)
(0.13697901 -0.040821171 0)
(0.14244878 -0.031656992 0)
(0.14636543 -0.021870408 0)
(0.14864003 -0.011781733 0)
(0.14918202 -0.0017157166 0)
(0.14805043 0.00808544 0)
(0.14536161 0.017358484 0)
(0.14129122 0.025851437 0)
(0.13603329 0.033432358 0)
(0.1298082 0.039997551 0)
(0.1228559 0.045522687 0)
(0.11536229 0.05000743 0)
(0.10750614 0.053474337 0)
(0.099456265 0.055979352 0)
(0.091355444 0.057585234 0)
(0.083325605 0.058367657 0)
(0.075471887 0.058416661 0)
(0.067881102 0.057821226 0)
(0.060618693 0.056668941 0)
(0.053735219 0.055054432 0)
(0.047266861 0.053064424 0)
(0.041237907 0.050782129 0)
(0.035661598 0.048285292 0)
(0.030536336 0.045654008 0)
(0.025853156 0.042944427 0)
(0.021599253 0.040217673 0)
(0.017753062 0.037529887 0)
(0.014286021 0.034922652 0)
(0.011166992 0.032429123 0)
(0.0083852395 0.030072373 0)
(0.0058933708 0.027902618 0)
(0.0036484222 0.02591089 0)
(0.0016059611 0.024143098 0)
(-0.00024569688 0.022592033 0)
(-0.0018258639 0.021278933 0)
(-0.0030863866 0.020237229 0)
(-0.0058893356 0.019374386 0)
(-0.0061234118 0.018650875 0)
(0.0043902053 0.032906857 0)
(0.002253707 0.03380074 0)
(-0.0012353297 0.034794768 0)
(-0.003380181 0.035915342 0)
(-0.0062185845 0.037271698 0)
(-0.0091663196 0.038826532 0)
(-0.012332326 0.040579026 0)
(-0.015714176 0.042488539 0)
(-0.01938289 0.044545904 0)
(-0.023368043 0.046705663 0)
(-0.027692315 0.048922617 0)
(-0.032387843 0.051175422 0)
(-0.037462721 0.05339556 0)
(-0.042927706 0.055525274 0)
(-0.048812928 0.057508297 0)
(-0.055116688 0.059253502 0)
(-0.061805502 0.060704242 0)
(-0.068874955 0.061766276 0)