/*--------------------------------*- C++ -*----------------------------------*\
  =========                 |
  \\      /  F ield         | OpenFOAM: The Open Source CFD Toolbox
   \\    /   O peration     | Website:  https://openfoam.org
    \\  /    A nd           | Version:  9
     \\/     M anipulation  |
\*---------------------------------------------------------------------------*/
FoamFile
{
    format      ascii;
    class       volVectorField;
    location    "7";
    object      gradT;
}
// * * * * * * * * * * * * * * * * * * * * * * * * * * * * * * * * * * * * * //

dimensions      [0 -1 0 1 0 0 0];

internalField   nonuniform List<vector> 10((2.8154151e-06 0 0) (9.5512396e-06 0 0) (3.7215581e-05 0 0) (0.00014201982 0 0) (0.00032941785 0 0) (0.0016798489 0 0) (0.031646425 0 0) (0.092013789 0 0) (1.2204179 0 0) (-0 0 0));

boundaryField
{
    inlet
    {
        type            extrapolatedCalculated;
        value           uniform (2.8154151e-06 0 0);
    }
    outlet
    {
        type            extrapolatedCalculated;
        value           uniform (-25.010555 0 0);
    }
    bottom
    {
        type            extrapolatedCalculated;
        value           nonuniform List<vector> 10((2.8154151e-06 0 0) (9.5512396e-06 0 0) (3.7215581e-05 0 0) (0.00014201982 0 0) (0.00032941785 0 0) (0.0016798489 0 0) (0.031646425 0 0) (0.092013789 0 0) (1.2204179 0 0) (0 0 0));
    }
    top
    {
        type            extrapolatedCalculated;
        value           nonuniform List<vector> 10((2.8154151e-06 0 0) (9.5512396e-06 0 0) (3.7215581e-05 0 0) (0.00014201982 0 0) (0.00032941785 0 0) (0.0016798489 0 0) (0.031646425 0 0) (0.092013789 0 0) (1.2204179 0 0) (0 0 0));
    }
    frontAndBack
    {
        type            empty;
    }
}


// ************************************************************************* //
