/*--------------------------------*- C++ -*----------------------------------*\
  =========                 |
  \\      /  F ield         | OpenFOAM: The Open Source CFD Toolbox
   \\    /   O peration     | Website:  https://openfoam.org
    \\  /    A nd           | Version:  9
     \\/     M anipulation  |
\*---------------------------------------------------------------------------*/
FoamFile
{
    format      ascii;
    class       volScalarField;
    location    "7";
    object      my_laplacianT;
}
// * * * * * * * * * * * * * * * * * * * * * * * * * * * * * * * * * * * * * //

dimensions      [0 -2 0 1 0 0 0];

internalField   nonuniform List<scalar> 10(1.9602047e-05 0.00013832171 0.0010072293 0.00045378201 0.0067521553 0.16446031 0.28720939 6.0395672 11.409086 -268.01427);

boundaryField
{
    inlet
    {
        type            extrapolatedCalculated;
        value           uniform 1.9602047e-05;
    }
    outlet
    {
        type            extrapolatedCalculated;
        value           uniform -268.01427;
    }
    bottom
    {
        type            extrapolatedCalculated;
        value           nonuniform List<scalar> 10(1.9602047e-05 0.00013832171 0.0010072293 0.00045378201 0.0067521553 0.16446031 0.28720939 6.0395672 11.409086 -268.01427);
    }
    top
    {
        type            extrapolatedCalculated;
        value           nonuniform List<scalar> 10(1.9602047e-05 0.00013832171 0.0010072293 0.00045378201 0.0067521553 0.16446031 0.28720939 6.0395672 11.409086 -268.01427);
    }
    frontAndBack
    {
        type            empty;
    }
}


// ************************************************************************* //
