/*--------------------------------*- C++ -*----------------------------------*\
  =========                 |
  \\      /  F ield         | OpenFOAM: The Open Source CFD Toolbox
   \\    /   O peration     | Website:  https://openfoam.org
    \\  /    A nd           | Version:  9
     \\/     M anipulation  |
\*---------------------------------------------------------------------------*/
FoamFile
{
    format      ascii;
    class       volScalarField;
    location    "4.5";
    object      gradTx;
}
// * * * * * * * * * * * * * * * * * * * * * * * * * * * * * * * * * * * * * //

dimensions      [0 -1 0 1 0 0 0];

internalField   nonuniform List<scalar> 10(6.2475154e-06 3.0662247e-05 0.00012426184 0.00050824828 0.002110112 0.0098739686 0.036140181 0.17141099 1.1948887 -0);

boundaryField
{
    inlet
    {
        type            calculated;
        value           uniform 6.2475154e-06;
    }
    outlet
    {
        type            calculated;
        value           uniform -24.999759;
    }
    bottom
    {
        type            calculated;
        value           nonuniform List<scalar> 10(6.2475154e-06 3.0662247e-05 0.00012426184 0.00050824828 0.002110112 0.0098739686 0.036140181 0.17141099 1.1948887 0);
    }
    top
    {
        type            calculated;
        value           nonuniform List<scalar> 10(6.2475154e-06 3.0662247e-05 0.00012426184 0.00050824828 0.002110112 0.0098739686 0.036140181 0.17141099 1.1948887 0);
    }
    frontAndBack
    {
        type            empty;
    }
}


// ************************************************************************* //
