/*--------------------------------*- C++ -*----------------------------------*\
  =========                 |
  \\      /  F ield         | OpenFOAM: The Open Source CFD Toolbox
   \\    /   O peration     | Website:  https://openfoam.org
    \\  /    A nd           | Version:  9
     \\/     M anipulation  |
\*---------------------------------------------------------------------------*/
FoamFile
{
    format      ascii;
    class       surfaceScalarField;
    location    "0.68";
    object      alphaPhi0.phase1;
}
// * * * * * * * * * * * * * * * * * * * * * * * * * * * * * * * * * * * * * //

dimensions      [0 3 -1 0 0 0 0];

internalField   nonuniform List<scalar> 
19800
(
-4.9907029e-88
5.968848e-88
-3.6976331e-87
6.8960916e-88
-5.7475393e-85
3.4981798e-86
-1.5392391e-84
4.8967399e-85
-1.2925927e-84
7.1141652e-85
-4.4888516e-85
3.4033542e-85
-1.1587299e-85
9.4287758e-86
-1.3672347e-85
3.2288095e-86
-1.5798531e-85
3.3051245e-86
-1.5378562e-84
1.3025455e-85
-2.6647984e-82
1.3815167e-83
-1.5159867e-80
1.1094195e-81
-3.2714461e-79
3.4656563e-80
-1.3774032e-77
1.0861993e-78
-1.1188749e-75
7.4795427e-77
-9.5664878e-74
5.9526112e-75
-7.7152585e-72
4.5081473e-73
-5.8508403e-70
3.2155736e-71
-4.1859897e-68
2.165663e-69
-2.834466e-66
1.3810888e-67
-1.821578e-64
8.3566375e-66
-1.1136889e-62
4.8056749e-64
-6.4907601e-61
2.6336839e-62
-3.6124867e-59
1.3756826e-60
-1.9224639e-57
6.8561391e-59
-9.7603405e-56
3.2549571e-57
-4.6926501e-54
1.4694643e-55
-2.2363213e-52
6.3211197e-54
-1.3700371e-50
2.6806495e-52
-9.9199046e-49
1.1566745e-50
-2.2867945e-47
2.9392393e-49
-1.1101508e-46
2.2481881e-48
-2.9078004e-46
6.1100324e-48
-1.8351885e-45
1.5638239e-47
-6.1926402e-44
6.5413915e-47
-2.7157227e-42
-3.7402009e-44
-1.0932401e-40
-3.5379577e-42
-3.9201111e-39
-2.1037279e-40
-1.2356393e-37
-9.5730087e-39
-3.304487e-36
-3.4016943e-37
-6.2010136e-35
-8.9179416e-36
-6.2223669e-34
-1.5124068e-34
-3.8610739e-33
-2.3227561e-33
-2.4013167e-32
-2.3907476e-32
-2.2469814e-31
-1.8916508e-31
-2.7791642e-30
-4.5794772e-30
-1.2998191e-29
-1.2923107e-28
1.2995689e-27
-4.7952065e-27
9.7902103e-26
-1.9083111e-25
5.7583435e-24
-8.7367962e-24
4.0146749e-22
-5.2151688e-22
2.5011154e-20
-3.1102594e-20
6.3881813e-19
-8.0654899e-19
3.9725917e-18
-6.8576139e-18
1.2113181e-17
-2.4368137e-17
1.6301993e-17
-5.3059783e-17
4.065148e-18
-3.2491076e-18
7.4017465e-19
-6.3284141e-19
7.1136465e-20
-6.8042848e-20
3.8110045e-21
-2.8541772e-21
2.0810574e-22
-2.3262741e-23
1.5725825e-23
2.9330127e-24
1.0276863e-24
4.2487255e-25
6.1817665e-26
4.0159802e-26
3.5325656e-27
3.129039e-27
1.8982896e-28
2.142116e-28
9.5201933e-30
1.31673e-29
4.4412399e-31
7.333884e-31
1.9230505e-32
3.7179725e-32
7.7129745e-34
1.7195971e-33
2.8598678e-35
7.2650253e-35
9.7842262e-37
2.8057267e-36
3.0826745e-38
9.9092343e-38
8.9271261e-40
3.2011137e-39
2.3715914e-41
9.4576894e-41
5.7685688e-43
2.5543154e-42
1.2821147e-44
6.3007159e-44
2.5984183e-46
1.4179998e-45
4.7912589e-48
2.9068759e-47
8.0187139e-50
5.4238185e-49
1.2150047e-51
9.1835205e-51
1.6620953e-53
1.4090501e-52
2.0464202e-55
1.9537201e-54
2.2600414e-57
2.4412462e-56
2.2303657e-59
2.7405207e-58
1.9583646e-61
2.7554399e-60
1.5224802e-63
2.4710827e-62
1.0420329e-65
1.9676006e-64
6.2361605e-68
1.3838152e-66
3.2361309e-70
8.5472447e-69
1.441377e-72
4.6066846e-71
5.4419357e-75
2.1484048e-73
1.7137401e-77
8.5719616e-76
4.406893e-80
2.8910648e-78
9.0954078e-83
8.1037073e-81
1.2339023e-84
1.894099e-83
8.3927559e-85
5.8025393e-85
5.0007987e-85
5.0684322e-85
2.6855783e-85
4.8540079e-85
4.5770626e-85
-6.0884446e-88
1.1125754e-87
-7.8434991e-86
3.3334614e-86
-5.6180698e-84
1.5813382e-84
-1.8130966e-83
1.4933676e-83
-2.1191294e-83
2.4055888e-83
-1.9440654e-83
2.1095258e-83
-1.1268896e-83
1.4621435e-83
-2.0503867e-84
6.1415487e-84
-1.4371851e-84
1.1806987e-84
-1.1886777e-83
2.3392294e-84
-9.8143761e-82
2.3263863e-82
-1.1207291e-79
2.567498e-80
-1.182113e-77
2.6021859e-78
-1.1769849e-75
2.4259163e-76
-1.0946833e-73
2.1061148e-74
-9.493478e-72
1.7082939e-72
-7.70625e-70
1.2995539e-70
-5.8793602e-68
9.302291e-69
-4.2316391e-66
6.2893003e-67
-2.882514e-64
4.0267181e-65
-1.8635449e-62
2.4465962e-63
-1.1461948e-60
1.4139064e-61
-6.720394e-59
7.7853625e-60
-3.7627803e-57
4.0859067e-58
-2.0118817e-55
2.0446381e-56
-1.0200198e-53
9.7397024e-55
-4.9597066e-52
4.4127057e-53
-2.7754395e-50
1.9387578e-51
-2.243508e-48
8.894373e-50
-8.161541e-47
3.1602337e-48
-6.0244208e-46
3.8394442e-47
-2.1890674e-45
1.639559e-46
-1.6476284e-44
6.9368045e-46
-4.9458744e-43
9.7612688e-45
-2.1446433e-41
4.9536356e-44
-9.3092865e-40
-1.8088436e-41
-3.7041825e-38
-1.6759282e-39
-1.3163367e-36
-9.8920983e-38
-4.1186085e-35
-4.4670545e-36
-1.1050331e-33
-1.5670399e-34
-2.1060585e-32
-4.0079636e-33
-1.9447693e-31
-6.3989174e-32
-9.1586969e-31
-5.802031e-31
-4.4061258e-30
-4.0654739e-30
-4.1236886e-29
-4.7253327e-29
-5.5248755e-28
-1.0893608e-27
-4.0523025e-27
-2.8955673e-26
1.3195101e-25
-7.6760855e-25
1.089654e-23
-2.3688635e-23
6.0780591e-22
-8.3938975e-22
4.0099985e-20
-4.4755905e-20
2.3798169e-18
-2.5193734e-18
5.5761419e-17
-5.7585282e-17
2.6975893e-16
-2.3695039e-16
6.6963431e-16
-4.7710266e-16
8.5864214e-16
-2.8400786e-16
4.5555117e-16
-3.6335881e-17
1.0797027e-16
-6.3838109e-17
1.044192e-17
-1.0387131e-17
6.031733e-19
-5.3566863e-19
3.3519201e-20
-1.8050286e-21
2.4829184e-21
1.5367897e-21
1.6262694e-22
2.0668022e-22
9.8202307e-24
1.8989768e-23
5.5544965e-25
1.4443803e-24
2.9288998e-26
9.6176449e-26
1.4335146e-27
5.7266858e-27
6.4998885e-29
3.0804095e-28
2.7271616e-30
1.50544e-29
1.0576069e-31
6.7072582e-31
3.7862878e-33
2.7299006e-32
1.2496395e-34
1.0162195e-33
3.796448e-36
3.4620933e-35
1.0599259e-37
1.0796443e-36
2.7146915e-39
3.0812219e-38
6.3668143e-41
8.0427838e-40
1.3647108e-42
1.9184641e-41
2.6680359e-44
4.1767706e-43
4.746654e-46
8.2885132e-45
7.6661755e-48
1.4971166e-46
1.1210141e-49
2.4553238e-48
1.4798465e-51
3.6489654e-50
1.7580057e-53
4.9008539e-52
1.8726567e-55
5.9321608e-54
1.7814508e-57
6.4498834e-56
1.5065297e-59
6.2780106e-58
1.1267674e-61
5.4462572e-60
7.4080894e-64
4.1922909e-62
4.2508257e-66
2.8472896e-64
2.1112582e-68
1.6951512e-66
8.9840532e-71
8.7929578e-69
3.2342051e-73
3.9382625e-71
9.6851001e-76
1.5075043e-73
2.3588464e-78
4.8643545e-76
4.5539989e-81
1.2990578e-78
1.8749388e-83
2.8379116e-81
5.2075623e-84
2.4407891e-83
1.4806878e-84
9.0179112e-84
2.5689166e-85
8.4545516e-85
7.7105679e-85
-7.7299147e-85
2.8111648e-84
-1.4946386e-82
7.2734398e-83
-5.8726745e-81
2.8988405e-81
-1.3626616e-80
1.8581472e-80
-1.5493232e-80
2.5106069e-80
-1.3309345e-80
2.0414336e-80
-7.4139973e-81
1.3137296e-80
-1.4864137e-81
5.3782242e-81
-7.3256139e-82
1.0703231e-81
-5.1864413e-81
1.9983938e-81
-6.7143071e-79
2.3111022e-79
-8.0458089e-77
2.5501822e-77
-8.8036924e-75
2.5825768e-75
-8.8628546e-73
2.4150862e-73
-8.262535e-71
2.0975045e-71
-7.1730719e-69
1.701032e-69
-5.8267275e-67
1.2926761e-67
-4.4480244e-65
9.2481094e-66
-3.2026915e-63
6.2472921e-64
-2.1821134e-61
3.9960096e-62
-1.4108443e-59
2.425981e-60
-8.6766708e-58
1.4007821e-58
-5.0862366e-56
7.7084903e-57
-2.8467771e-54
4.0421707e-55
-1.5212633e-52
2.0218071e-53
-7.7074583e-51
9.6231785e-52
-3.7482441e-49
4.3568638e-50
-2.086451e-47
1.9120904e-48
-1.6295744e-45
8.7171266e-47
-6.0211311e-44
3.0880136e-45
-5.0221583e-43
3.9181999e-44
-1.8733179e-42
1.7785599e-43
-9.1357263e-42
5.9139743e-43
-1.3586176e-40
4.2205811e-42
-4.6892397e-39
2.3589639e-41
-1.9603499e-37
-4.2610297e-39
-7.7338213e-36
-4.218499e-37
-2.7289868e-34
-2.5198134e-35
-8.5001438e-33
-1.1358387e-33
-2.2841064e-31
-3.9514512e-32
-4.3095718e-30
-9.8792354e-31
-3.7310933e-29
-1.486493e-29
-1.5181518e-28
-1.1953941e-28
-5.9120471e-28
-6.9065594e-28
-4.7410147e-27
-6.4806322e-27
-6.6323262e-26
-1.3957875e-25
-6.557613e-25
-3.6144074e-24
5.2050924e-24
-9.0489269e-23
7.0841099e-22
-2.4905698e-21
4.0014483e-20
-8.3056759e-20
2.5412625e-18
-3.8261119e-18
1.4147105e-16
-1.5590835e-16
3.1648664e-15
-3.382113e-15
1.5471676e-14
-1.3749474e-14
4.1212877e-14
-3.0190811e-14
5.57505e-14
-2.1145608e-14
2.986012e-14
0
7.2629185e-15
0
8.3712741e-16
-3.8523876e-17
5.8664478e-17
-4.1290799e-17
3.4033323e-18
2.4624155e-19
2.4688782e-19
2.2838501e-19
1.6521288e-20
2.8972515e-20
1.0157066e-21
2.637802e-21
5.7894523e-23
2.0000566e-22
3.0570142e-24
1.3258457e-23
1.4911337e-25
7.8384668e-25
6.7087294e-27
4.1741822e-26
2.7815757e-28
2.0137447e-27
1.062019e-29
8.8323501e-29
3.7310097e-31
3.5301767e-30
1.2050254e-32
1.287744e-31
3.5743574e-34
4.2912593e-33
9.7254673e-36
1.3069799e-34
2.4239981e-37
3.6383267e-36
5.5256975e-39
9.253517e-38
1.1500141e-40
2.1488556e-39
2.1809502e-42
4.5505641e-41
3.7604888e-44
8.7782853e-43
5.8816336e-46
1.5397278e-44
8.3217586e-48
2.4513774e-46
1.0619883e-49
3.5330508e-48
1.2184257e-51
4.5986309e-50
1.2521428e-53
5.389689e-52
1.1477723e-55
5.6692669e-54
9.3409681e-58
5.331518e-56
6.7130019e-60
4.464253e-58
4.2345956e-62
3.3111099e-60
2.3283441e-64
2.163787e-62
1.1057983e-66
1.2388243e-64
4.4865585e-69
6.1660351e-67
1.5339388e-71
2.643751e-69
4.3437074e-74
9.6504725e-72
9.9564284e-77
2.9582093e-74
2.0065611e-79
7.4754664e-77
1.4613734e-80
1.970193e-79
7.4332032e-81
3.4046215e-80
2.1968456e-81
1.7154481e-80
3.3968847e-82
4.1353344e-81
2.8202883e-81
-5.609923e-82
1.8557068e-81
-1.5242822e-79
8.0371144e-80
-3.5195141e-78
2.7508901e-78
-6.7615056e-78
1.2721243e-77
-7.6478127e-78
1.5595359e-77
-6.4222666e-78
1.2494877e-77
-3.4921723e-78
7.8406123e-78
-7.0603043e-79
3.1515677e-78
-3.6779418e-79
6.4198319e-79
-2.9422811e-78
1.4200858e-78
-3.7926053e-76
1.6228035e-76
-4.5513404e-74
1.7917376e-74
-4.9850261e-72
1.8143627e-72
-5.021637e-70
1.6959264e-70
-4.6826499e-68
1.471944e-68
-4.0649158e-66
1.1922765e-66
-3.3011253e-64
9.0511298e-65
-2.5185105e-62
6.4651299e-63
-1.8119594e-60
4.3594979e-61
-1.2335178e-58
2.7844731e-59
-7.9679878e-57
1.6881895e-57
-4.8950916e-55
9.7364081e-56
-2.8657839e-53
5.3474812e-54
-1.6017998e-51
2.8017361e-52
-8.5453201e-50
1.3994007e-50
-4.3216178e-48
6.6556875e-49
-2.1002057e-46
3.0109704e-47
-1.1646403e-44
1.3213084e-45
-8.7094259e-43
5.9919465e-44
-3.1016908e-41
2.100265e-42
-2.8229342e-40
2.7685921e-41
-1.3392048e-39
1.424205e-40
-7.2765709e-39
5.4901759e-40
-4.9567201e-38
2.6553598e-39
-8.3600223e-37
1.0769802e-38
-3.0427841e-35
-5.7104072e-37
-1.1853674e-33
-6.8292068e-35
-4.1589413e-32
-4.2378034e-33
-1.2921724e-30
-1.9303677e-31
-3.4949044e-29
-6.7041432e-30
-6.5388174e-28
-1.649057e-28
-5.3015257e-27
-2.3430866e-27
-1.8757494e-26
-1.6728754e-26
-5.9081981e-26
-7.9746183e-26
-3.9353224e-25
-5.8662318e-25
-5.648296e-24
-1.1687131e-23
-7.0918566e-23
-2.9577719e-22
-2.4811051e-22
-7.194464e-21
2.643815e-20
-1.7736825e-19
1.7361956e-18
-6.6329729e-18
1.1385793e-16
-1.8922048e-16
6.3905738e-15
-7.4664354e-15
1.3411204e-13
-1.4683986e-13
6.4538914e-13
-5.8690918e-13
1.7949544e-12
-1.4050276e-12
2.5609914e-12
-1.1719344e-12
1.466926e-12
0
3.8245477e-13
0
4.6324438e-14
0
3.7843948e-15
0
2.5831584e-16
9.9893691e-17
1.8812217e-17
2.5075259e-17
1.2896068e-18
2.9499051e-18
8.0628473e-20
2.6690768e-19
4.6249733e-21
2.0227255e-20
2.4379095e-22
1.3356277e-21
1.1796169e-23
7.8285414e-23
5.2376229e-25
4.1147459e-24
2.1341037e-26
1.951678e-25
7.9788918e-28
8.3884907e-27
2.7365251e-29
3.2764619e-28
8.6059112e-31
1.1652447e-29
2.4800469e-32
3.7781376e-31
6.5435707e-34
1.1176952e-32
1.5790074e-35
3.0177276e-34
3.479996e-37
7.4348794e-36
6.9937016e-39
1.6705613e-37
1.2792776e-40
3.4197028e-39
2.1251505e-42
6.3710252e-41
3.1981357e-44
1.0782327e-42
4.3487837e-46
1.6540032e-44
5.3269554e-48
2.2949848e-46
5.8574879e-50
2.8723734e-48
5.7600978e-52
3.2322755e-50
5.0430021e-54
3.2603325e-52
3.9116109e-56
2.9344826e-54
2.6732152e-58
2.3468086e-56
1.5989321e-60
1.6592694e-58
8.3033103e-63
1.0310227e-60
3.7084651e-65
5.5922901e-63
1.4084688e-67
2.6261459e-65
4.6124988e-70
1.0574999e-67
1.2830053e-72
3.6091776e-70
3.3731378e-75
1.0285004e-72
1.9325406e-77
2.4485707e-75
1.0792461e-77
4.471053e-77
6.5289835e-78
3.4059037e-77
1.5762345e-78
1.7344898e-77
1.9642212e-79
4.7004333e-78
2.5015676e-78
-2.6644095e-79
8.8933252e-79
-8.3173485e-77
4.8723061e-77
-1.509739e-75
1.5669483e-75
-2.5789629e-75
6.1977035e-75
-2.9112362e-75
7.147327e-75
-2.4126364e-75
5.6917229e-75
-1.2914348e-75
3.5152854e-75
-2.6498412e-76
1.3973152e-75
-1.4596569e-76
2.9257685e-76
-1.3990708e-75
8.0896395e-76
-1.8044905e-73
9.2324784e-74
-2.1676615e-71
1.0196746e-71
-2.3753231e-69
1.0320965e-69
-2.3928112e-67
9.6395761e-68
-2.2303995e-65
8.3568875e-66
-1.9346831e-63
6.7579573e-64
-1.5695035e-61
5.1210328e-62
-1.1959575e-59
3.6509491e-60
-8.5921139e-58
2.4565632e-58
-5.8394908e-56
1.5655197e-56
-3.7652102e-54
9.4712346e-55
-2.3089137e-52
5.4506842e-53
-1.3493972e-50
2.9897496e-51
-7.5281705e-49
1.5638291e-49
-4.0082186e-47
7.8047961e-48
-2.0225955e-45
3.7101709e-46
-9.8198644e-44
1.6781185e-44
-5.4471536e-42
7.3679747e-43
-3.9539894e-40
3.3394434e-41
-1.3301804e-38
1.1576048e-39
-1.2356102e-37
1.5542802e-38
-7.6172417e-37
8.9180897e-38
-5.8219609e-36
4.3817698e-37
-2.7188182e-35
2.1018488e-36
-1.6422288e-34
5.2154596e-36
-3.7827082e-33
-4.1203211e-35
-1.4255272e-31
-7.7271596e-33
-4.9821678e-30
-5.1745586e-31
-1.5498778e-28
-2.4177957e-29
-4.2427788e-27
-8.4654714e-28
-7.8867795e-26
-2.0619072e-26
-5.9697196e-25
-2.7731762e-25
-1.8446378e-24
-1.7561371e-24
-4.6832499e-24
-6.8760881e-24
-2.4706844e-23
-3.8251259e-23
-3.5419616e-22
-7.0309831e-22
-5.2954514e-21
-1.7580634e-20
-4.8112189e-20
-4.2013634e-19
3.3495496e-19
-9.6112517e-18
5.1216996e-17
-2.0473235e-16
7.0052308e-15
-8.5257941e-15
2.7219916e-13
-3.1801173e-13
4.1028182e-12
-4.5934052e-12
1.9264087e-11
-1.8032921e-11
5.6958206e-11
-4.7744571e-11
8.7898986e-11
-4.8101875e-11
5.524397e-11
0
1.5767701e-11
0
1.5963362e-12
0
1.1472601e-13
0
1.0865303e-14
3.2519559e-14
9.8919043e-16
2.6221747e-15
7.2824206e-17
2.0862066e-16
4.6118333e-18
1.8649749e-17
2.656282e-19
1.4175952e-18
1.3967879e-20
9.3437207e-20
6.6931619e-22
5.4338336e-21
2.9235308e-23
2.8163431e-22
1.1654863e-24
1.3100335e-23
4.2446582e-26
5.4965869e-25
1.4129851e-27
2.0878746e-26
4.2999533e-29
7.1985538e-28
1.1960324e-30
2.2568566e-29
3.0391241e-32
6.4415186e-31
7.0487867e-34
1.6747335e-32
1.4904818e-35
3.9665004e-34
2.8692567e-37
8.5535134e-36
5.0190251e-39
1.6782696e-37
7.9605206e-41
2.992064e-39
1.1420966e-42
4.838419e-41
1.4779715e-44
7.082371e-43
1.7196099e-46
9.3611633e-45
1.7924349e-48
1.1140236e-46
1.6666563e-50
1.1898674e-48
1.3761221e-52
1.1360892e-50
1.0035973e-54
9.6565497e-53
6.4258424e-57
7.2700134e-55
3.5865169e-59
4.8227077e-57
1.7805476e-61
2.80041e-59
7.6230794e-64
1.4136091e-61
2.7730568e-66
6.1477518e-64
8.456677e-69
2.2782031e-66
2.1271197e-71
7.0991393e-69
3.8284866e-74
1.8349822e-71
6.4351186e-75
5.844809e-74
5.8961756e-75
2.8210527e-74
3.7109564e-75
2.4669368e-74
7.3576357e-76
1.2299117e-74
6.1849132e-77
3.4827927e-75
1.6014859e-75
-9.3266601e-77
3.3365394e-76
-3.1251384e-74
2.0478011e-74
-5.0242541e-73
6.3995237e-73
-7.9673054e-73
2.3303882e-72
-9.0000626e-73
2.5854347e-72
-7.407012e-73
2.0536048e-72
-3.9256619e-73
1.2568053e-72
-8.1622548e-74
4.9604089e-73
-4.8490442e-74
1.0706728e-73
-5.7334606e-73
3.8618202e-73
-7.4014149e-71
4.4083433e-71
-8.8962905e-69
4.8673946e-69
-9.7499918e-67
4.9236539e-67
-9.8167734e-65
4.5930531e-65
-9.140913e-63
3.9746071e-63
-7.9172539e-61
3.2067358e-61
-6.4107873e-59
2.4238462e-59
-4.8742105e-57
1.7228991e-57
-3.4933626e-55
1.15591e-55
-2.3680067e-53
7.3420654e-54
-1.52284e-51
4.4291181e-52
-9.3137129e-50
2.5420417e-50
-5.4288978e-48
1.3910021e-48
-3.0210441e-46
7.2639183e-47
-1.6041221e-44
3.6199151e-45
-8.0722412e-43
1.7193093e-43
-3.9155732e-41
7.7814204e-42
-2.1802865e-39
3.4269845e-40
-1.5551779e-37
1.5588698e-38
-4.9460264e-36
5.3523143e-37
-4.5320017e-35
7.2106107e-36
-3.3962556e-34
4.4735105e-35
-3.61051e-33
2.7371994e-34
-1.5573745e-32
1.4582201e-33
-4.5275299e-32
3.0117572e-33
-4.2244684e-31
5.73803e-34
-1.4149452e-29
-6.1409568e-31
-4.9221029e-28
-4.7928681e-29
-1.5390737e-26
-2.3528427e-27
-4.2915457e-25
-8.4186738e-26
-7.924717e-24
-2.0473725e-24
-5.5675e-23
-2.6110279e-23
-1.5078091e-22
-1.4696754e-22
-3.0759455e-22
-4.7522137e-22
-1.2087529e-21
-1.9663868e-21
-1.6740629e-20
-3.2801679e-20
-2.8896015e-19
-8.5977809e-19
-5.0276639e-18
-2.0991784e-17
-1.8855149e-17
-3.5501369e-16
1.5225375e-15
-1.3623996e-15
2.6954247e-13
-3.1260912e-13
5.6508924e-12
-7.0473685e-12
8.8120715e-11
-1.0556888e-10
4.5160779e-10
-4.4419883e-10
1.4556654e-09
-1.295125e-09
2.432608e-09
-1.5119292e-09
1.7368028e-09
0
5.4358123e-10
0
5.2348862e-11
0
2.852133e-12
-1.271631e-12
3.238736e-13
2.3483442e-12
1.594247e-14
3.1891992e-13
2.1130232e-15
1.1481795e-14
1.8988399e-16
7.2393158e-16
9.0786704e-18
5.6922809e-17
4.5604999e-19
3.6732543e-18
2.1666801e-20
2.1092551e-19
9.290257e-22
1.0753745e-20
3.6055555e-23
4.8871054e-22
1.2717273e-24
1.9917454e-23
4.0830112e-26
7.314486e-25
1.1942622e-27
2.4288417e-26
3.1835288e-29
7.3105286e-28
7.7332184e-31
1.9978193e-29
1.7108592e-32
4.9617008e-31
3.4438544e-34
1.1202595e-32
6.2986097e-36
2.2986468e-34
1.0447426e-37
4.2835641e-36
1.5681953e-39
7.2394373e-38
2.124764e-41
1.1076423e-39
2.5909037e-43
1.5308445e-41
2.8333247e-45
1.9063081e-43
2.7678391e-47
2.131774e-45
2.4046663e-49
2.1333169e-47
1.8485242e-51
1.9023913e-49
1.270087e-53
1.5045519e-51
7.6759676e-56
1.0499023e-53
4.0274049e-58
6.4230634e-56
1.8189477e-60
3.4190991e-58
6.9941322e-63
1.5708473e-60
2.2586097e-65
6.1630722e-63
6.0537113e-68
2.0386751e-65
2.3663202e-70
5.6005697e-68
2.8993538e-72
1.4967101e-70
2.1473209e-72
1.0763962e-71
2.4274261e-72
1.5610194e-71
1.4182579e-72
1.3747672e-71
2.2393975e-73
6.6144657e-72
-1.1716594e-75
1.9014193e-72
7.8969023e-73
-2.6007359e-74
1.0319051e-73
-9.0851314e-72
6.641363e-72
-1.3685234e-70
2.0498692e-70
-2.0695836e-70
7.1184185e-70
-2.339938e-70
7.7047059e-70
-1.9204556e-70
6.1178476e-70
-1.011639e-70
3.7273425e-70
-2.1352259e-71
1.4667868e-70
-1.4297024e-71
3.3080058e-71
-2.0387309e-70
1.5714977e-70
-2.6230991e-68
1.7841926e-68
-3.1514998e-66
1.965819e-66
-3.4524824e-64
1.9863955e-64
-3.4718988e-62
1.84944e-62
-3.2270223e-60
1.5962773e-60
-2.7885245e-58
1.2838822e-58
-2.2516822e-56
9.6711739e-57
-1.7066119e-54
6.8476054e-55
-1.2190311e-52
4.5759866e-53
-8.234605e-51
2.8952291e-51
-5.2763195e-49
1.7393534e-49
-3.2154861e-47
9.9470625e-48
-1.867845e-45
5.4264138e-46
-1.0360904e-43
2.8271562e-44
-5.4856014e-42
1.4070628e-42
-2.7530617e-40
6.6828835e-41
-1.334212e-38
3.0282638e-39
-7.4705698e-37
1.3387239e-37
-5.2814948e-35
6.127425e-36
-1.5997399e-33
2.0893519e-34
-1.4261788e-32
2.8000937e-33
-1.1990144e-31
1.8234961e-32
-1.6050124e-30
1.315949e-31
-7.37175e-30
7.9285415e-31
-1.4885453e-29
1.6521623e-30
-5.2569268e-29
1.536269e-30
-1.1976681e-27
-2.944455e-29
-4.119465e-26
-3.3802908e-27
-1.3020753e-24
-1.8248648e-25
-3.7273876e-23
-6.8075003e-24
-6.8093596e-22
-1.6666019e-22
-4.3925927e-21
-2.0285715e-21
-1.0603417e-20
-1.0574549e-20
-1.7488483e-20
-3.3988707e-20
-4.7282236e-20
-9.240044e-20
-5.8365392e-19
-1.1030799e-18
-1.2144583e-17
-3.0924534e-17
-1.9825094e-16
-8.0679514e-16
-1.9668774e-16
-1.0179048e-14
-4.3704691e-15
-3.5708125e-14
9.6974597e-13
-2.418505e-12
9.8314834e-11
-1.3910799e-10
2.1518425e-09
-2.5561624e-09
1.4201697e-08
-3.1628268e-08
6.8499498e-08
-1.6341876e-07
1.1180852e-07
-2.8591021e-07
8.2981675e-08
-2.5907343e-07
1.1509721e-08
-5.3471744e-08
6.4755059e-10
0
1.2777548e-10
4.3462599e-10
1.5719782e-11
1.1126078e-10
1.0330191e-12
1.4588026e-11
4.9256757e-14
9.4915245e-13
2.3326421e-15
4.3841025e-14
2.0048891e-16
1.4843708e-15
1.0733969e-17
9.255573e-17
4.424292e-19
5.1959966e-18
1.7967689e-20
2.5258312e-19
6.7182916e-22
1.1017959e-20
2.2685278e-23
4.3006606e-22
6.939616e-25
1.50662e-23
1.9284003e-26
4.7565547e-25
4.8720774e-28
1.3575139e-26
1.1193148e-29
3.5096559e-28
2.3374431e-31
8.2296193e-30
4.4329504e-33
1.7512954e-31
7.6239662e-35
3.3809521e-33
1.1867733e-36
5.916638e-35
1.6682773e-38
9.3708491e-37
2.1118617e-40
1.3407794e-38
2.3994596e-42
1.7286756e-40
2.4374927e-44
2.0024232e-42
2.2038919e-46
2.0763448e-44
1.7796348e-48
1.9189284e-46
1.269029e-50
1.5731868e-48
7.9045986e-53
1.1378711e-50
4.2660244e-55
7.2130906e-53
1.9754099e-57
3.976001e-55
7.7551993e-60
1.8888784e-57
2.5386513e-62
7.6555938e-60
6.7852806e-65
2.6100892e-62
1.642301e-67
7.3619719e-65
7.801607e-70
1.9029139e-67
4.9583348e-70
2.695954e-69
9.0717619e-70
5.0677368e-69
7.4439307e-70
7.0397388e-69
3.7740404e-70
6.1382489e-69
3.4845624e-71
2.823604e-69
-8.9952542e-72
8.0941227e-70
3.1625544e-70
-6.0429668e-72
2.7332522e-71
-2.1600177e-69
1.7563814e-69
-3.1484981e-68
5.4032101e-68
-4.6254264e-68
1.8291747e-67
-5.243254e-68
1.948974e-67
-4.3064189e-68
1.5504322e-67
-2.2631603e-68
9.4365331e-68
-4.9301776e-69
3.7185963e-68
-3.6863342e-69
8.8898571e-69
-6.1955971e-68
5.3732434e-68
-7.9626302e-66
6.0908394e-66
-9.5619782e-64
6.6973738e-64
-1.0466256e-61
6.7566259e-62
-1.050743e-59
6.2755728e-60
-9.7422625e-58
5.3983879e-58
-8.3920533e-56
4.3250967e-56
-6.7509188e-54
3.2429289e-54
-5.0952536e-52
2.2847939e-52
-3.6229239e-50
1.518842e-50
-2.4357281e-48
9.5585702e-49
-1.5533521e-46
5.7131803e-47
-9.4224946e-45
3.2517363e-45
-5.4492266e-43
1.766725e-43
-3.0102354e-41
9.1744505e-42
-1.5877785e-39
4.5574664e-40
-7.941574e-38
2.1635221e-38
-3.8435432e-36
9.8182368e-37
-2.1630178e-34
4.3591151e-35
-1.5203717e-32
2.0120541e-33
-4.4267215e-31
6.8389125e-32
-3.8652933e-30
9.1518455e-31
-3.5367815e-29
6.2112424e-30
-5.5376567e-28
5.1072009e-29
-2.7260869e-27
3.4005108e-28
-4.5154135e-27
7.3499821e-28
-8.4565927e-27
7.0200565e-28
-9.0035229e-26
-2.0426068e-29
-2.9744998e-24
-1.7034992e-25
-9.5772383e-23
-1.1320897e-23
-2.842545e-21
-4.5713435e-22
-5.1020158e-20
-1.1650248e-20
-2.9644372e-19
-1.406905e-19
-6.8148814e-19
-6.6805484e-19
-8.8424166e-19
-3.0329146e-18
-1.4679874e-18
-3.001739e-18
-1.2831788e-17
-1.9232149e-17
-2.1533067e-16
-4.6923418e-16
-1.3819203e-15
-1.1823113e-14
-2.202477e-14
-2.8071471e-13
0
-6.5494225e-12
-1.2024177e-13
-2.526318e-11
8.5685848e-09
-9.2200855e-09
1.4784741e-07
-3.0489789e-07
4.7929131e-07
-5.1503205e-07
5.5509593e-07
-4.7527026e-07
6.4241208e-07
-3.5597459e-07
6.820799e-07
-2.5968922e-07
2.9351571e-07
-1.4511335e-07
4.6771785e-08
7.1684159e-09
6.5507495e-09
3.9468626e-08
7.8983151e-10
5.7595348e-09
4.888788e-11
7.4482529e-10
2.9341423e-12
4.6148229e-11
1.6312376e-13
2.7588154e-12
3.9216741e-15
1.5560925e-13
1.3646036e-16
3.4590663e-15
6.7373936e-18
9.8537497e-17
2.6068803e-19
4.5322789e-18
8.9686181e-21
1.8618334e-19
2.8372091e-22
6.8246055e-21
8.1420005e-24
2.2452132e-22
2.1169601e-25
6.6436968e-24
4.9946855e-27
1.7738313e-25
1.0698547e-28
4.2840439e-27
2.1184301e-30
9.3715051e-29
3.785844e-32
1.8600982e-30
6.1125754e-34
3.3461306e-32
8.9093489e-36
5.4480734e-34
1.1693394e-37
8.0150666e-36
1.3774964e-39
1.0631387e-37
1.4506179e-41
1.2676374e-39
1.3593681e-43
1.353678e-41
1.1274024e-45
1.289214e-43
8.2227329e-48
1.0895895e-45
5.2342386e-50
8.1253027e-48
2.8818098e-52
5.3110593e-50
1.3574337e-54
3.0193783e-52
5.3966249e-57
1.4794819e-54
1.7779734e-59
6.1836961e-57
4.7215577e-62
2.1754948e-59
1.0718905e-64
6.3414376e-62
2.8838417e-66
1.5168831e-64
1.2817224e-67
8.1052954e-67
1.4848868e-67
1.011287e-66
2.3834052e-67
2.0553452e-66
1.6156079e-67
2.6350873e-66
5.5040086e-68
2.254909e-66
-5.3394821e-69
9.8795441e-67
-5.8936167e-69
2.8029233e-67
1.0495494e-67
-1.2085026e-69
6.3984113e-69
-4.3516184e-67
3.9270375e-67
-6.2778107e-66
1.211531e-65
-9.0643222e-66
4.0535357e-65
-1.0314036e-65
4.2786932e-65
-8.5018411e-66
3.4168149e-65
-4.5075515e-66
2.0838121e-65
-1.0249374e-66
8.2694305e-66
-6.5249983e-67
1.9503606e-66
-1.5272786e-65
1.4393202e-65
-2.0030973e-63
1.6943808e-63
-2.4057715e-61
1.8627815e-61
-2.6291715e-59
1.8747042e-59
-2.6330948e-57
1.735181e-57
-2.4334228e-55
1.4864659e-55
-2.0875162e-53
1.1849361e-53
-1.6711378e-51
8.83299e-52
-1.2543991e-49
6.183747e-50
-8.8666037e-48
4.0827792e-48
-5.9246371e-46
2.5517029e-46
-3.7551647e-44
1.515092e-44
-2.2640315e-42
8.5693391e-43
-1.3016991e-40
4.6289869e-41
-7.1524686e-39
2.3933539e-39
-3.7543606e-37
1.1852925e-37
-1.8700859e-35
5.6203093e-36
-9.0308664e-34
2.5532703e-34
-5.0839564e-32
1.1385352e-32
-3.528096e-30
5.2869596e-31
-1.0017529e-28
1.8046885e-29
-8.9100535e-28
2.4677872e-28
-9.047741e-27
1.789709e-27
-1.5276162e-25
1.6482578e-26
-7.6190944e-25
1.1478872e-25
-1.1485606e-24
2.538588e-25
-1.5826809e-24
2.4953908e-25
-6.6361345e-24
2.6945218e-25
-1.8760533e-22
-4.5412725e-24
-6.207802e-21
-5.4372975e-22
-1.9641743e-19
-2.6263793e-20
-3.6224232e-18
-7.3569227e-19
-1.9448198e-17
-7.3960472e-18
-2.8413529e-17
-2.3046315e-17
-2.6164738e-17
-3.0666224e-17
-2.9364045e-17
-4.9873586e-17
-1.5344946e-16
-2.0229016e-16
-9.0454368e-16
-2.908519e-15
0
-4.0136734e-14
0
-1.1209204e-12
0
-6.2127894e-11
9.5559204e-09
-9.7918208e-09
2.1405041e-07
-3.5163582e-07
4.3423273e-07
-5.5697976e-07
6.2630771e-07
-6.2384071e-07
7.4264774e-07
-5.4788065e-07
8.3979046e-07
-4.1988366e-07
8.7328921e-07
-2.4056923e-07
8.5961593e-07
-8.5945005e-08
8.3931076e-07
7.6417611e-08
3.3321506e-07
2.1065859e-07
3.6742096e-08
1.0736476e-07
2.012724e-09
3.5306488e-08
1.154677e-10
1.9291464e-09
6.9134676e-12
1.1022667e-10
2.9436474e-13
6.6997129e-12
7.2654525e-15
2.8389458e-13
2.7453459e-16
6.6790149e-15
1.0393691e-17
2.3801763e-16
3.5091071e-19
9.0141354e-18
1.0958574e-20
3.0761634e-19
3.1017897e-22
9.4303122e-21
7.6455641e-24
2.5930011e-22
1.6985829e-25
6.4109231e-24
3.4168677e-27
1.4315779e-25
6.2172201e-29
2.8913263e-27
1.0226377e-30
5.2830032e-29
1.5182628e-32
8.7297226e-31
2.0301148e-34
1.3027325e-32
2.4378972e-36
1.7521048e-34
2.6191571e-38
2.1182229e-36
2.505969e-40
2.2934219e-38
2.1238587e-42
2.2140544e-40
1.5841155e-44
1.8960744e-42
1.0319755e-46
1.4314698e-44
5.8191302e-49
9.4600021e-47
2.8084576e-51
5.4260455e-49
1.1440231e-53
2.6729672e-51
3.8621873e-56
1.1168662e-53
1.0516752e-58
3.8964755e-56
2.2813897e-61
1.1097477e-58
2.1523616e-63
2.5302747e-61
2.8739799e-65
8.2566571e-64
2.1035515e-65
2.0399176e-64
3.9290823e-65
3.8133444e-64
4.1075949e-65
7.0197829e-64
1.6771001e-65
8.3246217e-64
-4.7720154e-66
6.9529504e-64
-5.5793417e-66
2.8945805e-64
-2.4567111e-66
8.110402e-65
2.9380178e-65
-2.1357892e-67
1.3612337e-66
-7.5971897e-65
7.6167381e-65
-1.1024459e-63
2.3627633e-63
-1.5790444e-63
7.8946507e-63
-1.8064161e-63
8.2957088e-63
-1.4978921e-63
6.6593113e-63
-8.0347269e-64
4.0767209e-63
-1.8096895e-64
1.6309109e-63
-1.0285919e-64
3.7337522e-64
-1.2797333e-63
1.3496432e-63
-1.7994938e-61
1.5385013e-61
-2.0056768e-59
1.6835943e-59
-2.1472048e-57
1.6840989e-57
-2.1426808e-55
1.5507872e-55
-1.9718552e-53
1.3214317e-53
-1.6826925e-51
1.0467825e-51
-1.3386992e-49
7.7465788e-50
-9.9783067e-48
5.3794302e-48
-6.9996458e-46
3.5212394e-46
-4.639364e-44
2.1810267e-44
-2.9157521e-42
1.2830695e-42
-1.7431349e-40
7.1932725e-41
-9.9384009e-39
3.8536598e-39
-5.4156764e-37
1.9772084e-37
-2.8227638e-35
9.7333974e-36
-1.4019645e-33
4.5982326e-34
-6.6779937e-32
2.0821137e-32
-3.3033197e-30
9.1338316e-31
-1.8026352e-28
3.993826e-29
-6.7824005e-27
1.5418609e-27
-1.5503019e-25
3.7003172e-26
-3.8717255e-24
6.0239782e-25
-5.4514978e-23
7.7160888e-24
-1.9028169e-22
4.0803903e-23
-2.4819771e-22
7.3988079e-23
-2.6891284e-22
6.9506154e-23
-5.2481079e-22
5.9108683e-23
-1.0531125e-20
1.9075318e-22
-3.6347672e-19
-1.6699389e-20
-1.3059771e-17
-1.1724206e-18
-2.3586166e-16
-2.9216198e-17
-8.1769092e-16
-1.7538461e-16
-7.7595374e-16
-1.2100542e-16
-3.8883628e-16
-1.9297641e-16
-4.3178147e-16
-4.9698793e-16
-1.3233912e-15
-1.5709888e-15
-1.1253847e-15
-1.1554497e-14
0
-1.0914602e-14
0
-6.7376871e-12
0
-3.3430033e-12
1.0646518e-07
-2.9336334e-07
4.2429e-07
-6.1265469e-07
5.235377e-07
-6.3199995e-07
5.0413129e-07
-4.7363903e-07
3.4106375e-07
-1.0561206e-07
2.7924451e-07
-4.7237657e-08
3.5573577e-07
-2.2112916e-08
8.2011305e-07
-5.9351887e-09
8.6720929e-07
8.6934986e-08
8.1561592e-07
3.0642461e-07
5.1666994e-07
4.4148553e-07
4.3702407e-08
2.8692016e-07
1.5747822e-09
4.3145698e-08
9.3707952e-11
1.4982824e-09
4.7588493e-12
8.9308422e-11
2.0558585e-13
4.4482378e-12
8.072274e-15
1.8136559e-13
2.8451069e-16
6.9006959e-15
8.6896439e-18
2.481388e-16
2.40323e-19
7.7901834e-18
5.9702511e-21
2.1704319e-19
1.3324713e-22
5.4089944e-21
2.6780523e-24
1.2111952e-22
4.8505339e-26
2.4430838e-24
7.9155103e-28
4.4433989e-26
1.162301e-29
7.2875534e-28
1.5317753e-31
1.0767227e-29
1.8058019e-33
1.429874e-31
1.8943792e-35
1.7018722e-33
1.7575364e-37
1.8069334e-35
1.4296805e-39
1.702164e-37
1.0075959e-41
1.4121337e-39
6.0483277e-44
1.021495e-41
3.1791289e-46
6.3550484e-44
1.5001135e-48
3.3318928e-46
5.9716923e-51
1.516628e-48
1.9678947e-53
6.4726831e-51
5.2916794e-56
2.3188048e-53
1.1315357e-58
6.86094e-56
2.0341603e-61
1.6427924e-58
5.121735e-63
4.4728376e-61
3.5626977e-63
4.4623846e-62
5.0570024e-63
7.0361737e-62
5.0559836e-63
1.2193939e-61
1.5336325e-63
2.0464618e-61
-4.3414263e-63
2.2487031e-61
-5.3721378e-63
1.8245555e-61
-2.3926338e-63
7.2222552e-62
-7.8730956e-64
1.9928285e-62
7.0377693e-63
-3.4121811e-65
2.7000391e-64
-1.1681201e-62
1.3071274e-62
-1.7279915e-61
4.0774485e-61
-2.4748171e-61
1.3716042e-60
-2.8489863e-61
1.4396803e-60
-2.3808513e-61
1.1631587e-60
-1.2855121e-61
7.1574758e-61
-3.0841946e-62
2.8863045e-61
-1.7901738e-62
6.9744477e-62
-4.1964072e-61
4.7954619e-61
-5.9179136e-59
5.6527869e-59
-6.6176731e-57
6.1985077e-57
-7.1982804e-55
6.1895558e-55
-7.1668983e-53
5.6809187e-53
-6.5693773e-51
4.8164531e-51
-5.5760118e-49
3.7905285e-49
-4.4077208e-47
2.7837751e-47
-3.2618012e-45
1.917064e-45
-2.2702276e-43
1.2435891e-43
-1.4924534e-41
7.6320671e-42
-9.3025043e-40
4.448708e-40
-5.5167336e-38
2.4725907e-38
-3.1224385e-36
1.3148652e-36
-1.6910355e-34
6.7092608e-35
-8.767305e-33
3.2929383e-33
-4.3292647e-31
1.5547514e-31
-2.0660982e-29
7.0744929e-30
-1.0899973e-27
3.1594759e-28
-6.8569292e-26
1.4559916e-26
-2.2542026e-24
5.4607287e-25
-3.1613086e-23
9.9484752e-24
-5.1457018e-22
1.086723e-22
-7.142465e-21
1.1770886e-21
-2.6130392e-20
6.6454649e-21
-3.3067867e-20
1.286769e-20
-3.191818e-20
1.2772652e-20
-4.2902301e-20
9.4629066e-21
-5.3991213e-19
3.97295e-20
-1.9392211e-17
-3.3491562e-20
-6.4820954e-16
-3.9718555e-17
-1.0493885e-14
0