/*--------------------------------*- C++ -*----------------------------------*\
  =========                 |
  \\      /  F ield         | OpenFOAM: The Open Source CFD Toolbox
   \\    /   O peration     | Website:  https://openfoam.org
    \\  /    A nd           | Version:  9
     \\/     M anipulation  |
\*---------------------------------------------------------------------------*/
FoamFile
{
    format      ascii;
    class       surfaceScalarField;
    location    "0.68";
    object      phi;
}
// * * * * * * * * * * * * * * * * * * * * * * * * * * * * * * * * * * * * * //

dimensions      [0 3 -1 0 0 0 0];

internalField   nonuniform List<scalar> 
19800
(
-9.2681508e-05
0.00013215138
-0.00016007529
0.00013240259
-0.00022749711
0.00013288948
-0.0002949156
0.00013356908
-0.00036235492
0.00013424992
-0.00042974095
0.00013493965
-0.00049704321
0.00013559301
-0.00056419631
0.00013619487
-0.000631129
0.00013667385
-0.00069774019
0.00013701906
-0.00076398227
0.00013721286
-0.00082971642
0.00013716747
-0.00089484864
0.00013695266
-0.00095925447
0.00013643489
-0.0010228382
0.00013565577
-0.0010854556
0.00013456402
-0.0011470033
0.00013318861
-0.0012073983
0.0001315138
-0.0012665323
0.00012952933
-0.0013242853
0.00012723665
-0.0013805485
0.00012458781
-0.001435201
0.00012154766
-0.0014881082
0.00011823559
-0.0015390901
0.00011452228
-0.0015879443
0.00011043353
-0.0016344131
0.00010579485
-0.0016781408
0.00010054091
-0.0017186786
9.4477856e-05
-0.0017554369
8.736401e-05
-0.001787748
7.8903805e-05
-0.0018148427
6.8668715e-05
-0.0018358589
5.6228586e-05
-0.0018498285
4.11066e-05
-0.0018558234
2.2967616e-05
-0.0018537748
2.8909967e-06
-0.0018394002
-2.005025e-05
-0.0018091158
-4.5628561e-05
-0.0017608553
-7.4352803e-05
-0.0016923118
-0.00010661494
-0.0016011242
-0.0001426929
-0.0014849147
-0.00018266784
-0.0013414266
-0.00022647954
-0.0011685478
-0.00027407593
-0.00096433825
-0.00032541623
-0.00072664998
-0.00038068748
-0.0004531339
-0.00043989568
-0.00014158142
-0.00050352532
0.00020816363
-0.00056894806
0.00059900471
-0.00064074168
0.0010307601
-0.00071320478
0.0015018991
-0.00078342058
0.0020074993
-0.00084544347
0.0025378787
-0.00089096115
0.0030761604
-0.00090807408
0.0035979919
-0.0008846757
0.0040750409
-0.00081405403
0.0044801775
-0.00069774127
0.0047924086
-0.00054541755
0.0050002232
-0.00037246709
0.0051014426
-0.00019475806
0.0051064496
-3.0660599e-05
0.0050333273
0.00012252286
0.0049016333
0.0002570768
0.0047257469
0.00037018784
0.0045188367
0.00046093388
0.0042923116
0.0005302718
0.0040553496
0.00058012506
0.0038148346
0.00061256536
0.0035756089
0.00062966393
0.0033409047
0.00063355116
0.0031128303
0.00062643286
0.0028927095
0.00061053432
0.0026813946
0.00058805886
0.0024794367
0.00056103014
0.0022872036
0.00053118498
0.0021048889
0.00049986632
0.0019325218
0.00046805459
0.0017700301
0.00043651698
0.0016172198
0.00040566575
0.0014738086
0.00037617998
0.0013395587
0.00034786363
0.0012140722
0.00032109488
0.0010969723
0.00029582669
0.00098788439
0.00027206656
0.00088642403
0.00024979678
0.00079215891
0.00022905994
0.00070472449
0.00020974575
0.00062369694
0.00019176328
0.00054863134
0.00017503399
0.0004790757
0.0001595561
0.00041465718
0.000145385
0.00035505616
0.00013247313
0.00029987806
0.00012064139
0.00024881765
0.00010999578
0.00020148496
0.00010049609
0.00015743922
9.2032604e-05
0.00011627367
8.4658367e-05
7.7629858e-05
7.8381056e-05
4.0863385e-05
7.3689951e-05
6.9099002e-05
-9.185581e-05
0.0001992572
-0.0001590822
0.00019961415
-0.00022635321
0.00020016768
-0.00029370131
0.00020091207
-0.0003611253
0.00020167843
-0.0004285192
0.00020232671
-0.0004958649
0.00020294302
-0.00056311215
0.00020343758
-0.00063017029
0.00020373101
-0.0006969799
0.00020382645
-0.00076343578
0.00020366239
-0.00082941787
0.00020315271
-0.00089480364
0.0002023398
-0.00095950312
0.00020113704
-0.0010233687
0.00019953044
-0.0010863148
0.00019751308
-0.0011482377
0.00019511178
-0.0012089661
0.00019224504
-0.0012684393
0.0001890008
-0.0013265357
0.00018533235
-0.001383129
0.00018118849
-0.0014381866
0.00017661023
-0.0014915712
0.0001716196
-0.0015431242
0.00016607976
-0.0015926402
0.00015995774
-0.0016399262
0.00015308353
-0.0016846701
0.00014528586
-0.0017265113
0.00013632479
-0.0017649605
0.00012581639
-0.0017994225
0.0001133607
-0.001829171
9.8412743e-05
-0.0018533499
8.041026e-05
-0.0018709909
5.8750431e-05
-0.0018809318
3.2905233e-05
-0.0018807124
2.666737e-06
-0.0018682725
-3.2491205e-05
-0.0018411865
-7.2714293e-05
-0.0017967931
-0.00011874835
-0.0017323624
-0.00017104719
-0.0016453911
-0.00022966371
-0.0015334114
-0.00029465177
-0.0013940474
-0.00036585112
-0.0012251189
-0.00044300837
-0.001024764
-0.00052577344
-0.00079118832
-0.00061426335
-0.00052215555
-0.00070892746
-0.00021600332
-0.00080967925
0.00012973385
-0.0009146858
0.0005188705
-0.0010298773
0.00095332543
-0.0011476586
0.0014339853
-0.0012640833
0.0019584031
-0.0013698631
0.0025203017
-0.0014528587
0.0031020975
-0.0014898692
0.003673835
-0.0014564116
0.0041991958
-0.0013394119
0.0046430116
-0.0011415546
0.004978734
-0.00088114091
0.0051943903
-0.00058812493
0.0052942093
-0.00029457667
0.0052854867
-2.1939814e-05
0.0051960073
0.00021200157
0.0050422694
0.0004108134
0.0048415781
0.00057088342
0.0046092277
0.00069328675
0.0043580951
0.00078140709
0.0040984724
0.00083975152
0.0038380052
0.00087303406
0.0035819455
0.00088572754
0.0033336126
0.00088188487
0.0030949265
0.00086511543
0.0028668939
0.00083856393
0.0026499786
0.00080497212
0.0024443397
0.00076667142
0.002249968
0.00072555998
0.002066735
0.00068309881
0.0018943838
0.00064040731
0.0017326314
0.00059827066
0.001581009
0.00055728859
0.0014391692
0.00051801876
0.0013066096
0.000480417
0.0011829351
0.00044476201
0.0010677115
0.00041104686
0.00096046425
0.00037931006
0.00086076221
0.00034949484
0.0007681797
0.00032164217
0.00068234247
0.00029557981
0.00060279811
0.00027130204
0.00052915411
0.0002486766
0.00046111774
0.00022759459
0.00039826365
0.00020824101
0.00034026017
0.00019047687
0.00028660519
0.00017429663
0.00023696123
0.00015963834
0.00019104535
0.00014640864
0.00014844067
0.00013463772
0.00010868914
0.00012441718
7.1552621e-05
0.00011552774
3.6508981e-05
0.00010874374
0.00010179031
-9.1412108e-05
0.00026618223
-0.0001586382
0.00026684747
-0.00022592585
0.00026745042
-0.00029328252
0.0002682737
-0.00036055788
0.00026894909
-0.00042797172
0.00026974608
-0.00049544052
0.00027041149
-0.00056288278
0.0002708839
-0.00063013566
0.00027098653
-0.00069719559
0.00027088123
-0.0007639401
0.00027040726
-0.00083022624
0.00026943615
-0.00089598304
0.00026809264
-0.00096105923
0.00026621615
-0.0010253194
0.00026379102
-0.0010887216
0.00026091448
-0.0011509993
0.00025739297
-0.0012121695
0.00025341499
-0.0012720791
0.00024890857
-0.0013306056
0.00024386404
-0.0013876763
0.00023826462
-0.0014431874
0.00023212087
-0.0014970925
0.00022552675
-0.0015492066
0.0002181999
-0.0015994775
0.00021023005
-0.0016476723
0.00020127702
-0.0016935899
0.00019120747
-0.0017369087
0.00017964911
-0.0017772299
0.00016613622
-0.0018140399
0.00015016611
-0.0018466456
0.00013101897
-0.0018741089
0.0001078772
-0.001895376
8.0016749e-05
-0.0019090368
4.656192e-05
-0.0019131845
6.8130223e-06
-0.0019057631
-3.9911824e-05
-0.0018840493
-9.4429039e-05
-0.001845273
-0.00015752823
-0.0017868107
-0.00022951182
-0.0017057084
-0.00031076478
-0.0015996178
-0.00040074417
-0.0014661086
-0.00049936644
-0.0013032269
-0.00060589118
-0.001109125
-0.00071987331
-0.00088189098
-0.00084149729
-0.00061947427
-0.00097134545
-0.00031927505
-0.0011098815
2.1897027e-05
-0.0012558605
0.00040827767
-0.0014162606
0.00084503739
-0.0015844192
0.0013384782
-0.0017575251
0.0018897798
-0.0019211635
0.0024993779
-0.0020624518
0.0031475814
-0.0021380693
0.0037952191
-0.0021040496
0.0043934775
-0.0019376721
0.004893696
-0.0016417733
0.0052584657
-0.0012459122
0.0054736211
-0.00080328188
0.0055492388
-0.00037019469
0.0055091578
1.8142177e-05
0.0053834767
0.00033768532
0.0051934129
0.00060087976
0.0049588994
0.00080539741
0.0046963472
0.00095583883
0.0044187147
0.0010590455
0.0041359758
0.0011224896
0.0038554899
0.0011535224
0.0035823867
0.0011588236
0.0033200061
0.0011442658
0.0030702536
0.0011148676
0.0028339965
0.0010748247
0.0026114164
0.0010275511
0.0024022895
0.00097579151
0.002206172
0.00092167968
0.0020225117
0.0008667604
0.001850658
0.0008122589
0.0016900658
0.00075886193
0.0015400273
0.0007073255
0.0014001302
0.00065791292
0.0012696123
0.00061093153
0.0011480823
0.00056628776
0.0010349961
0.00052412934
0.00092987665
0.00048442824
0.00083222369
0.00044714477
0.00074167628
0.00041218348
0.00065775681
0.00037949605
0.00058017434
0.00034888433
0.00050854195
0.00032030954
0.00044226811
0.00029386644
0.00038103687
0.00026947168
0.0003244583
0.0002470564
0.00027227567
0.00022647841
0.00022411072
0.00020780322
0.0001795969
0.00019092026
0.0001383093
0.00017592092
0.00010008692
0.0001626342
6.4446969e-05
0.00015115923
3.1223951e-05
0.00014197144
0.00013172311
-9.0939259e-05
0.00033297181
-0.00015796366
0.00033386682
-0.00022507239
0.0003345641
-0.00029240475
0.00033560076
-0.0003599361
0.00033648565
-0.00042754009
0.00033734782
-0.00049517233
0.0003380441
-0.00056275927
0.00033847306
-0.00063037539
0.00033859953
-0.00069778098
0.00033828956
-0.00076489171
0.00033751859
-0.00083165244
0.00033619311
-0.00089788502
0.00033432554
-0.00096345274
0.00033178205
-0.0010282564
0.00032859113
-0.0010921075
0.00032476728
-0.0011549586
0.00032024414
-0.0012166177
0.00031507125
-0.0012769397
0.00030923406
-0.0013359273
0.00030285831
-0.0013935157
0.00029585454
-0.0014496593
0.00028826593
-0.0015040954
0.00027996803
-0.001556989
0.00027109478
-0.0016081201
0.0002613575
-0.0016574945
0.00025065238
-0.001704932
0.00023865058
-0.0017503138
0.00022503203
-0.0017932459
0.00020906413
-0.0018332684
0.0001901869
-0.0018697994
0.00016755187
-0.0019020675
0.00014014537
-0.0019289934
0.00010694038
-0.0019491246
6.6692667e-05
-0.0019606461
1.8336071e-05
-0.0019612641
-3.9294684e-05
-0.0019481353
-0.00010756122
-0.0019182797
-0.00018738607
-0.0018686931
-0.0002790987
-0.0017964843
-0.00038297182
-0.001698602
-0.0004986259
-0.0015729239
-0.00062504839
-0.0014174394
-0.00076137756
-0.0012305287
-0.00090678306
-0.0010111173
-0.0010609099
-0.00075755083
-0.0012249151
-0.00046730005
-0.0014001359
-0.00013457247
-0.0015885899
0.00024286702
-0.0017937018
0.00067839172
-0.0020199435
0.0011877676
-0.0022668999
0.0017668379
-0.0025002322
0.00243078
-0.0027263912
0.0031691574
-0.0028764454
0.0039328978
-0.0028677912
0.0046517842
-0.0026565621
0.0052501092
-0.0022400983
0.0056695829
-0.0016653855
0.0058871011
-0.0010207984
0.0059258569
-0.00040894958
0.0058344912
0.00010950788
0.0056487298
0.00052344591
0.0054000901
0.0008495186
0.0051114048
0.0010940838
0.0048012094
0.0012660335
0.0044835353
0.0013767214
0.0041683731
0.0014376497
0.0038623987
0.0014594962
0.0035697735
0.001451453
0.0032927985
0.0014212365
0.0030324684
0.0013751987
0.0027888839
0.0013184075
0.0025616028
0.0012548288
0.0023498629
0.0011875337
0.0021527448
0.0011187955
0.0019692708
0.0010502314
0.0017985279
0.00098300389
0.0016396167
0.00091776913
0.0014916512
0.00085528579
0.0013538846
0.00079567849
0.0012258378
0.00073897598
0.0011067492
0.00068537223
0.00099606542
0.00063481163
0.00089335052
0.0005871416
0.00079798678
0.00054250461
0.00070964731
0.00050052073
0.00062793206
0.00046120988
0.00055235131
0.00042446593
0.00048247591
0.00039018495
0.00041798747
0.00035835477
0.0003585763
0.00032888272
0.00030390129
0.00030172877
0.00025356633
0.00027681462
0.00020721745
0.00025415655
0.00016451672
0.00023362278
0.00012504212
0.0002153975
8.8629078e-05
0.00019904765
5.4884598e-05
0.00018490016
2.3374693e-05
0.00017348137
0.00016044209
-9.0258507e-05
0.00039959696
-0.00015719472
0.00040080748
-0.00022434213
0.00040170664
-0.00029164005
0.00040290375
-0.00035914384
0.00040399002
-0.00042687729
0.00040508303
-0.00049471551
0.00040588353
-0.00056270813
0.00040646078
-0.0006306759
0.00040656832
-0.00069856056
0.00040617522
-0.00076621997
0.00040517451
-0.00083356154
0.0004035342
-0.00090038343
0.0004011452
-0.00096657138
0.00039796539
-0.0010319976
0.00039401819
-0.0010964703
0.00038924103
-0.0011598931
0.00038366414
-0.0012221587
0.00037733886
-0.0012831108
0.00037019322
-0.0013426856
0.00036243634
-0.0014008343
0.000354005
-0.0014574566
0.00034489363
-0.0015126881
0.00033520217
-0.0015663602
0.00032476229
-0.0016186063
0.00031360071
-0.001669406
0.00030145564
-0.0017186743
0.00028792113
-0.0017662343
0.00027258811
-0.0018120535
0.00025487953
-0.0018558
0.00023393387
-0.001897109
0.00020886086
-0.0019351022
0.00017813616
-0.0019688784
0.0001407166
-0.0019969655
9.4783376e-05
-0.0020174863
3.8858597e-05
-0.0020282627
-2.8521287e-05
-0.0020262461
-0.00010958041
-0.0020081831
-0.00020544682
-0.0019704695
-0.00031681061
-0.001909714
-0.00044372959
-0.0018226873
-0.00058565513
-0.0017068542
-0.00074088362
-0.001560558
-0.00090767441
-0.0013829631
-0.0010843776
-0.0011733608
-0.0012705139
-0.00093138628
-0.0014668927
-0.00065490833
-0.0016766168
-0.00033929899
-0.0019041998
2.2900314e-05
-0.0021559027
0.0004487012
-0.0024457454
0.00095563378
-0.0027738314
0.0015035339
-0.00304813
0.0022009887
-0.0034238439
0.0030772227
-0.0037526794
0.0040427714
-0.0038333404
0.004971031
-0.0035848234
0.0057231696
-0.0029922361
0.0062170581
-0.0021592749
0.0064347071
-0.0012384492
0.0064189028
-0.00039314677
0.0062480208
0.00028038834
0.0059774802
0.00079398909
0.0056474693
0.0011795324
0.0052871013
0.0014544472
0.0049163205
0.0016368176
0.0045488455
0.0017441941
0.0041940681
0.0017924303
0.0038576001
0.0017959592
0.0035423072
0.0017667442
0.0032491259
0.0017144142
0.0029777386
0.0016465835
0.0027270996
0.0015690473
0.0024957863
0.0014861426
0.0022822511
0.0014010666
0.0020849774
0.0013160665
0.001902509
0.0012327003
0.0017336494
0.0011518636
0.0015770609
0.0010743537
0.0014318385
0.0010005053
0.0012971301
0.00093038445
0.0011720707
0.00086403392
0.0010560012
0.00080143895
0.00094833685
0.00074247224
0.00084840043
0.00068707534
0.00075587484
0.00063502641
0.00067019654
0.00058619713
0.00059104101
0.00054036137
0.00051794311
0.00049756015
0.00045052798
0.00045759896
0.00038847316
0.00042040793
0.0003313966
0.00038595837
0.00027899643
0.00035413098
0.00023091051
0.00032490239
0.00018676345
0.00029830097
0.00014621422
0.00027416865
0.00010899251
0.00025262033
7.45341e-05
0.0002335089
4.2807223e-05
0.00021662836
1.3083769e-05
0.00020320537
0.00018706779
-8.9372878e-05
0.00046599949
-0.00015614361
0.00046757099
-0.00022309983
0.00046866795
-0.00029041321
0.00047021463
-0.00035813258
0.00047171109
-0.00042605745
0.00047301091
-0.00049426824
0.00047409026
-0.00056260356
0.00047479699
-0.00063106502
0.00047503167
-0.0006995151
0.00047462293
-0.00076782278
0.00047348221
-0.00083584464
0.00047155446
-0.00090342284
0.00046871833
-0.00097040226
0.00046494458
-0.0010366085
0.00046022604
-0.0011018554
0.00045448578
-0.0011660493
0.0004478592
-0.0012289933
0.00044028949
-0.0012906578
0.00043186154
-0.0013508351
0.00042261505
-0.0014095961
0.00041277126
-0.0014668989
0.00040220104
-0.0015227852
0.00039108536
-0.0015773841
0.00037935619
-0.0016306525
0.0003668699
-0.0016826647
0.00035346995
-0.0017336424
0.00033889597
-0.0017837461
0.00032268702
-0.0018329298
0.00030406185
-0.0018810222
0.00028202641
-0.0019277464
0.00025558364
-0.0019726842
0.00022307337
-0.0020147605
0.00018279637
-0.00205288
0.00013290658
-0.0020850409
7.1018782e-05
-0.0021088233
-4.7417708e-06
-0.0021209607
-9.7442494e-05
-0.0021178822
-0.0002085216
-0.0020951633
-0.00033952925
-0.0020486456
-0.00049025322
-0.001974621
-0.00065968468
-0.0018704444
-0.00084506062
-0.0017345846
-0.0010435338
-0.0015669173
-0.0012520465
-0.0013684299
-0.0014690026
-0.0011401422
-0.0016951797
-0.00088239348
-0.0019343654
-0.00059156608
-0.0021950282
-0.00025844893
-0.0024890234
0.00012378017
-0.0028279774
0.00055675933
-0.0032068109
0.001004656
-0.0034960257
0.0018755908
-0.004294777
0.0031367748
-0.0050138625
0.0045167832
-0.0052133462
0.0057626298
-0.004830669
0.0066623378
-0.0038919449
0.0071219129
-0.0026188532
0.0072020302
-0.0013185708
0.0070379214
-0.00022903988
0.0067435344
0.00057477431
0.0063616713
0.0011758526
0.0059283463
0.0016128626
0.0054776258
0.0019051629
0.0050317371
0.002082708
0.0046045122
0.0021714193
0.0042040038
0.0021929346
0.0038336562
0.00216631
0.0034942179
0.0021061752
0.0031846524
0.0020239745
0.002902822
0.0019284152
0.0026461722
0.0018256923
0.0024121119
0.0017202003
0.0021981763
0.0016150029
0.002002136
0.0015121029
0.0018220237
0.001412808
0.0016561388
0.0013177468
0.0015029989
0.0012274934
0.0013614477
0.0011420561
0.0012304516
0.0010613791
0.0011091412
0.00098534297
0.00099669958
0.00091387871
0.00089252632
0.00084664251
0.00079605808
0.00078354269
0.0007067899
0.0007242954
0.00062427008
0.00066871466
0.00054804903
0.00061658058
0.00047783332
0.00056777631
0.00041329977
0.00052213281
0.00035398033
0.00047972837
0.00029957708
0.00044036484
0.00024976559
0.00040394488
0.00020426352
0.00037040432
0.00016269864
0.00033986353
0.00012467039
0.0003121958
8.9867037e-05
0.00028742149
5.7893778e-05
0.00026548285
2.8328817e-05
0.00024619297
6.8652582e-08
0.00023146815
0.00021051004
-8.8280464e-05
0.00053212865
-0.00015486165
0.0005341558
-0.00022182803
0.00053563352
-0.00028913397
0.00053752087
-0.00035687348
0.00053945186
-0.00042503624
0.00054116953
-0.0004935903
0.00054264477
-0.00056243129
0.00054363979
-0.00063150976
0.00054410879
-0.00070065456
0.00054376954
-0.00076974624
0.00054257486
-0.00083861429
0.00054041914
-0.00090710402
0.00053720794
-0.0009749996
0.000532842
-0.001042121
0.00052734529
-0.0011082594
0.00052062408
-0.0011733119
0.00051291741
-0.001237053
0.00050403388
-0.0012994217
0.00049422988
-0.0013603493
0.00048354617
-0.0014196883
0.00047211606
-0.0014775494
0.00046006152
-0.0015340191
0.00044755042
-0.0015892306
0.00043456714
-0.0016433857
0.00042102719
-0.0016967976
0.00040688032
-0.0017496842
0.00039177899
-0.0018023077
0.00037530961
-0.0018548107
0.00035656513
-0.0019074999
0.00033471393
-0.0019601615
0.00030824428
-0.0020127645
0.00027567884
-0.0020646151
0.0002346506
-0.0021145249
0.00018281706
-0.0021608107
0.00011730287
-0.0022006047
3.5051598e-05
-0.0022309693
-6.7076982e-05
-0.0022469766
-0.0001925151
-0.00224325
-0.00034325893
-0.0022145973
-0.00051890898
-0.0021563215
-0.00071796157
-0.0020650336
-0.00093634806
-0.0019398563
-0.0011687117
-0.0017816886
-0.001410218
-0.0015936875
-0.0016570065
-0.001380052
-0.0019088149
-0.0011439105
-0.0021705079
-0.00088810102
-0.002450839
-0.00062519262
-0.0027519319
-0.0003619829
-0.0030911862
2.1374061e-05
-0.0035901672
0.0007992006
-0.0042738529
0.0023953955
-0.0058909721
0.0044083702
-0.0070268382
0.0063604835
-0.0071654609
0.0079259503
-0.006396137
0.0088109143
-0.0047769101
0.0090081782
-0.0028161186
0.0085738219
-0.00088421343
0.0079522353
0.00039255297
0.0073554247
0.001171585
0.0067891404
0.0017421409
0.0062237776
0.0021782205
0.0056672411
0.0024616958
0.005133063
0.0026168846
0.0046367383
0.0026677461
0.0041858496
0.0026438222
0.003780324
0.0025718327
0.0034174416
0.0024690546
0.003093227
0.0023481874
0.0028031786
0.0022184594
0.0025429272
0.0020859445
0.0023084753
0.0019546546
0.0020963035
0.0018271713
0.001903407
0.0017049958
0.0017273141
0.0015889001
0.0015658798
0.0014791781
0.0014174177
0.0013759525
0.001280632
0.0012788381
0.0011543119
0.0011876938
0.0010374938
0.0011021559
0.00092939247
0.0010219763
0.00082926644
0.00094676537
0.00073664393
0.00087616011
0.00065105016
0.0008098843
0.00057206976
0.00074769225
0.00049923324
0.00068941446
0.00043226839
0.00063473938
0.00037086262
0.00058353951
0.00031456751
0.00053602287
0.00026315556
0.00049177667
0.00021631154
0.00045079105
0.00017368166
0.00041303352
0.0001350272
0.00037851693
9.9935265e-05
0.00034728835
6.8063059e-05
0.00031929301
3.8885837e-05
0.00029465985
1.2238217e-05
0.00027284332
-1.2344903e-05
0.00025605256
0.00023338625
-8.6885301e-05
0.00059788479
-0.00015322077
0.00060048626
-0.00021990653
0.00060232335
-0.00028730004
0.00060491704
-0.00035518318
0.00060733025
-0.00042363621
0.00060962295
-0.00049259867
0.00061160832
-0.00056203338
0.00061307235
-0.00063183317
0.00061391065
-0.00070181848
0.0006137579
-0.00077186768
0.00061262332
-0.00084176653
0.00061031957
-0.00091130088
0.00060674526
-0.0009803221
0.0006018614
-0.0010485283
0.00059555038
-0.0011157781
0.00058787852
-0.001181816
0.00057895807
-0.0012464996
0.00056871499
-0.0013096758
0.00055740647
-0.0013712379
0.00054511333
-0.0014311804
0.00053206031
-0.0014895413
0.00051841942
-0.0015464864
0.00050449501
-0.0016021787
0.00049026249
-0.0016570224
0.00047587143
-0.0017113961
0.00046125186
-0.0017657812
0.00044616441
-0.0018205533
0.00043008434
-0.0018764032
0.00041241491
-0.0019335941
0.00039190203
-0.001992641
0.00036729137
-0.0020537283
0.00033676875
-0.0021164749
0.0002973974
-0.0021800829
0.00024642278
-0.0022431083
0.0001803275
-0.002302769
9.471387e-05
-0.0023554456
-1.4399809e-05
-0.0023952458
-0.00015271793
-0.0024155665
-0.00032294254
-0.0024090044
-0.00052547207
-0.0023691133
-0.00075785258
-0.002292022
-0.0010134405
-0.002176718
-0.0012840155
-0.0020256056
-0.0015613314
-0.0018441835
-0.0018384321
-0.0016401011
-0.0021128999
-0.0014246457
-0.0023859656
-0.0012275531
-0.0026479332
-0.0011126644
-0.0028668202
-0.00098095051
-0.0032228978
5.0781116e-07
-0.0045716228
0.002149369
-0.0064227146
0.0049438364
-0.0086854415
0.0073879996
-0.0094710029
0.0096124791
-0.0093899419
0.011291127
-0.0080747854
0.01234923
-0.0058350118
0.012321057
-0.0027879435
0.011065758
0.00037108527
0.0095695919
0.0018887262
0.008267519
0.0024736513
0.0072809264
0.0027287364
0.006496562
0.0029625842
0.0058227863
0.0031354718
0.0051991922
0.0032404837
0.0046299676
0.0032369629
0.0041261299
0.0031476589
0.0036861675
0.0030117963
0.0033029469
0.0028522713
0.0029681156
0.0026830177
0.0026739988
0.0025125773
0.0024140068
0.0023459357
0.002182563
0.0021860933
0.0019750711
0.0020346602
0.0017878081
0.0018922616
0.0016177465
0.0017589618
0.0014624542
0.0016344683
0.001320173
0.0015182315
0.0011893316
0.0014096766
0.0010686402
0.0013083802
0.00095705767
0.0012137349
0.00085387639
0.0011251552
0.00075844535
0.0010421933
0.00067022896
0.00096437749
0.00058876199
0.0008913513
0.00051362935
0.00082282278
0.00044453822
0.00075850347
0.00038117502
0.00069810011
0.00032310235
0.00064161188
0.00027021019
0.00058891625
0.00022215429
0.00053983332
0.00017864269
0.00049430119
0.00013929034
0.0004523812
0.00010384131
0.00041396367
7.1961347e-05
0.00037916586
4.3285291e-05
0.00034797096
1.7493802e-05
0.00032045421
-6.3137312e-06
0.00029665289
-2.7480062e-05
0.00027721838
0.00025378135
-8.5108359e-05
0.00066313298
-0.0001510704
0.00066644801
-0.00021760372
0.00066886048
-0.00028491389
0.00067222524
-0.00035291352
0.00067533103
-0.00042168961
0.00067839972
-0.00049118287
0.00068109845
-0.00056130762
0.00068319801
-0.00063193982
0.00068454592
-0.00070295337
0.00068477235
-0.00077410877
0.00068378241
-0.00084523904
0.00068145472
-0.00091608067
0.00067758617
-0.00098637971
0.00067215922
-0.001055908
0.00066508328
-0.0011244148
0.0006563887
-0.0011916434
0.00064618368
-0.0012573837
0.0006344533
-0.0013214201
0.0006214465
-0.0013836522
0.00060734788
-0.0014441358
0.00059254244
-0.0015028913
0.000577175
-0.0015599898
0.00056159716
-0.0016158976
0.0005461725
-0.0016709877
0.00053096107
-0.0017258617
0.00051612686
-0.0017811822
0.00050148833
-0.0018378406
0.00048674445
-0.0018965282
0.00047110074
-0.0019580868
0.00045345877
-0.002023474
0.00043267971
-0.0020930327
0.00040632899
-0.0021675933
0.00037195555
-0.0022466217
0.00032544727
-0.0023289514
0.00026265652
-0.0024125362
0.00017830012
-0.0024924991
6.5565047e-05
-0.0025627156
-8.2500291e-05
-0.0026138693
-0.00027179127
-0.0026348648
-0.00050447967
-0.0026169207
-0.00077579889
-0.0025544915
-0.0010758735
-0.0024463578
-0.0013921507
-0.0022964179
-0.0017112705
-0.0021117197
-0.0020231311
-0.0019041277
-0.0023204926
-0.0017047013
-0.0025853917
-0.0015891557
-0.0027634793
-0.0015874798
-0.002868496
-0.0011768879
-0.0036334893
0.0013352239
-0.0070837356
0.0050503322
-0.010137826
0.0083018967
-0.011937009
0.01120565
-0.012374753
0.013275966
-0.011460253
0.01466281
-0.0094616255
0.015265062
-0.0064372644
0.015282476
-0.0028053604
0.014399489
0.0012540706
0.012203944
0.0040842706
0.010104728
0.004572872
0.0081692116
0.0046642598
0.0068282429
0.0043035509
0.0059156588
0.0040480519
0.0051879022
0.0039682378
0.0045552785
0.0038695882
0.0040056558
0.0036972785
0.0035375137
0.0034799324
0.0031410349
0.0032487512
0.0028026462
0.003021405
0.0025107769
0.0028044413
0.0022564349
0.0026002738
0.0020324887
0.0024100381
0.0018333845
0.0022337642
0.0016547
0.0020709471
0.001493136
0.0019205237
0.0013460409
0.0017815633
0.0012114213
0.0016528495
0.0010877047
0.0015333878
0.00097358429
0.0014224978
0.00086813032
0.0013191876
0.00077059906
0.001222683
0.00068036813
0.0011324226
0.00059696389
0.0010477817
0.00052000016
0.00096831284
0.00044914122
0.00089367925
0.00038410173
0.0008235401
0.00032460798
0.00075759321
0.00027032235
0.00069589811
0.00022107675
0.00063816143
0.00017661815
0.00058429282
0.00013664756
0.00053427156
0.00010090161
0.00048812708
6.9040501e-05
0.00044582323
4.078518e-05
0.00040742093
1.5752337e-05
0.00037300175
-6.3652267e-06
0.00034257082
-2.6425936e-05
0.00031671338
-4.4129995e-05
0.00029492066
0.00027065784
-8.2852153e-05
0.00072769732
-0.0001483069
0.00073190322
-0.00021451995
0.00073507101
-0.00028164626
0.00073935619
-0.00034985452
0.00074354047
-0.00041903453
0.00074757576
-0.00048914518
0.00075120854
-0.00056009212
0.00075414623
-0.00063173773
0.00075619192
-0.00070391705
0.00075695648
-0.0007764157
0.00075628797
-0.00084896486
0.00075400493
-0.00092133065
0.00074995141
-0.00099320611
0.00074403999
-0.0010642793
0.00073616183
-0.0011342714
0.00072637963
-0.0012028728
0.00071478333
-0.0012697874
0.00070137115
-0.0013348334
0.00068649545
-0.0013978623
0.00067037567
-0.0014587483
0.00065342826
-0.001517652
0.00063608209
-0.001574766
0.00061871359
-0.0016303062
0.00060171206
-0.0016849668
0.00058562274
-0.0017396704
0.00057083492
-0.0017952169
0.00055703743
-0.0018527884
0.0005443139
-0.0019136035
0.00053191352
-0.0019787457
0.00051860156
-0.0020493198
0.00050325577
-0.0021274242
0.00048443449
-0.0022141527
0.00045868251
-0.0023097436
0.00042103564
-0.0024142193
0.00036713229
-0.0025259762
0.00029005751
-0.0026405254
0.00018011337
-0.0027496413
2.6616309e-05
-0.0028405047
-0.00018092829
-0.0028967867
-0.00044819933
-0.0029046445
-0.00076794056
-0.0028564498
-0.0011240704
-0.0027513106
-0.0014972929
-0.0025951582
-0.0018674231
-0.0023963659
-0.0022219237
-0.0021748536
-0.0025420075
-0.001988587
-0.0027716592
-0.0019028114
-0.0028492519
-0.0016465796
-0.0031247241
-2.4480118e-05
-0.0052555888
0.0034338569
-0.010542077
0.0072028457
-0.013906816
0.010275555
-0.015009717
0.012639635
-0.014738832
0.014579151
-0.013399767
0.01601369
-0.010896167
0.016615645
-0.0070392165
0.016329447
-0.0025191687
0.015674873
0.0019086501
0.014369886
0.0053892568
0.011956358
0.0069863988
0.0094504776
0.0071701451
0.0074785073
0.0062755184
0.0060916463
0.0054349182
0.0051214998
0.0049383829
0.0043921319
0.0045989507
0.0038041319
0.0042852727
0.003320525
0.0039635373
0.0029222608
0.0036470128
0.0025905822
0.0033530763
0.0023097185
0.0030853025
0.0020681163
0.0028418757
0.0018573025
0.0026208506
0.0016708889
0.0024201781
0.0015042442
0.0022375927
0.0013538048
0.0020709611
0.0012169032
0.001918458
0.0010916664
0.0017780817
0.00097622462
0.0016488282
0.00086975019
0.0015289709
0.00077122225
0.001417715
0.00067991757
0.001313987
0.0005954047
0.001216937
0.00051724709
0.0011259386
0.00044512258
0.0010404337
0.00037885531
0.00095994527
0.00031813127
0.00088426643
0.00026275519
0.0008129706
0.00021252372
0.00074612641
0.0001672008
0.00068348271
0.00012659898
0.00062489274
9.0485147e-05
0.00057038249
5.8614103e-05
0.00051999869
3.070982e-05
0.0004737269
6.3836132e-06
0.00043174699
-1.4680225e-05
0.00039406371
-3.2878581e-05
0.00036076727
-4.8614336e-05
0.00033244929
-6.2103338e-05
0.00030840747
0.00028331448
-7.996887e-05
0.00079131857
-0.00014473498
0.00079666748
-0.00021053942
0.00080087947
-0.0002775642
0.00080638401
-0.0003458913
0.00081186466
-0.0004154644
0.00081714765
-0.00048625759
0.00082200076
-0.00055816656
0.00082605337
-0.00063097148
0.00082900075
-0.00070455903
0.00083055162
-0.00077861783
0.00083034932
-0.00085288984
0.00082827739
-0.00092707027
0.00082413777
-0.001000786
0.00081776267
-0.0010737333
0.00080911057
-0.001145485
0.00079813177
-0.0012156623
0.00078496526
-0.0012840035
0.0007697165
-0.0013501636
0.00075265455
-0.0014139682
0.00073417889
-0.0014752334
0.0007146957
-0.0015339989
0.00069484945
-0.0015905213
0.00067523414
-0.0016452731
0.00065646214
-0.0016990113
0.00063936385
-0.0017523815
0.00062420969
-0.0018070102
0.00061166666
-0.0018642623
0.00060156357
-0.0019259187
0.00059357028
-0.0019933417
0.00058602818
-0.0020680706
0.00057798631
-0.0021532966
0.00056965988
-0.002251555
0.00055694078
-0.0023643344
0.00053381553
-0.0024931243
0.00049592478
-0.0026383147
0.00043524933
-0.002796007
0.00033780063
-0.0029559693
0.00018657442
-0.0030990055
-3.7892507e-05
-0.0032024589
-0.00034474642
-0.0032436
-0.00072679702
-0.0032125855
-0.0011550811
-0.0031083615
-0.0016015141
-0.0029391947
-0.00203659
-0.002726129
-0.0024349928
-0.0025005293
-0.0027676121
-0.0023163181
-0.0029558715
-0.0020759532
-0.0030896145
-0.0011217749
-0.0040789023
0.0017693392
-0.008146701
0.0050214975
-0.013794233
0.0073610887
-0.016246405
0.0092870603
-0.016935687
0.011235954
-0.016687729
0.013116939
-0.015280753
0.01458705
-0.012366282
0.015613917
-0.0080660794
0.015963406
-0.0028686587
0.015548732
0.0023233298
0.014375618
0.0065623666
0.01233067
0.0090313483
0.010290684
0.0092101308
0.00809072
0.0084754822
0.0062419445
0.0072836899
0.0049307414
0.0062495875
0.0040872588
0.0054424377
0.003487785
0.0048847444
0.0030168594
0.0044344578
0.0026372943
0.0040265745
0.0023273171