/*--------------------------------*- C++ -*----------------------------------*\
  =========                 |
  \\      /  F ield         | OpenFOAM: The Open Source CFD Toolbox
   \\    /   O peration     | Website:  https://openfoam.org
    \\  /    A nd           | Version:  9
     \\/     M anipulation  |
\*---------------------------------------------------------------------------*/
FoamFile
{
    format      ascii;
    class       volScalarField;
    location    "20";
    object      p;
}
// * * * * * * * * * * * * * * * * * * * * * * * * * * * * * * * * * * * * * //

dimensions      [0 2 -2 0 0 0 0];

internalField   nonuniform List<scalar> 
1000
(
1.6755989
1.554521
1.4585406
1.3948845
1.3463749
1.3039029
1.2663677
1.2341959
1.2067955
1.182958
1.1615636
1.1417998
1.1231227
1.1051831
1.0877678
1.0707536
1.0540727
1.0376886
1.0215804
1.0057345
0.99013947
0.97478436
0.95965767
0.94474743
0.93004142
0.91552743
0.90119346
0.88702796
0.8730199
0.8591589
0.84543519
0.83183964
0.81836374
0.80499956
0.79173972
0.77857735
0.76550605
0.75251985
0.73961318
0.72678086
0.71401806
0.70132025
0.6886832
0.67610298
0.66357589
0.65109849
0.63866756
0.62628008
0.61393323
0.60162438
0.58935105
0.57711095
0.56490191
0.55272192
0.54056909
0.52844165
0.51633794
0.50425643
0.49219566
0.48015428
0.46813104
0.45612474
0.44413428
0.43215862
0.42019681
0.40824793
0.39631114
0.38438564
0.37247071
0.36056564
0.34866978
0.33678255
0.32490336
0.3130317
0.30116708
0.28930902
0.2774571
0.26561092
0.25377009
0.24193427
0.23010313
0.21827637
0.20645368
0.1946348
0.18281948
0.17100751
0.15919866
0.14739272
0.13558947
0.12378874
0.11199039
0.10019428
0.088400244
0.076608141
0.064817839
0.053029218
0.041242216
0.029456648
0.017672701
0.0058897212
1.5583792
1.5034502
1.4424977
1.39093
1.3476599
1.3086916
1.2731054
1.2413327
1.2133718
1.188594
1.1661921
1.1454907
1.1260091
1.1074211
1.0895075
1.0721227
1.0551709
1.0385895
1.0223368
1.0063833
0.99070629
0.97528675
0.9601079
0.94515424
0.93041118
0.91586496
0.90150255
0.88731168
0.87328084
0.85939926
0.8456569
0.83204439
0.81855303
0.80517474
0.79190199
0.77872778
0.7656456
0.7526494
0.73973352
0.72689272
0.71412207
0.70141701
0.68877326
0.67618683
0.66365398
0.65117125
0.63873536
0.62634327
0.61399214
0.60167931
0.58940228
0.57715873
0.56494649
0.55276351
0.54060789
0.52847786
0.51637174
0.50428797
0.4922251
0.48018177
0.46815669
0.45614869
0.44415664
0.4321795
0.42021631
0.40826613
0.39632814
0.38440152
0.37248553
0.36057948
0.34868271
0.33679462
0.32491464
0.31304223
0.30117691
0.28931821
0.27746568
0.26561893
0.25377757
0.24194126
0.23010966
0.21828246
0.20645937
0.19464011
0.18282445
0.17101215
0.159203
0.14739677
0.13559324
0.12379227
0.11199369
0.10019737
0.088403126
0.076610822
0.064820334
0.053031515
0.04124437
0.029458524
0.017674383
0.0058905644
1.497558
1.4713829
1.4329861
1.3918532
1.3527679
1.3161771
1.2818794
1.2501619
1.2213058
1.1952047
1.1714507
1.1495607
1.1291109
1.10977
1.0912898
1.0734888
1.0562369
1.0394414
1.0230353
1.0069702
0.99120979
0.9757261
0.96049623
0.94550073
0.93072246
0.91614597
0.90175715
0.88754297
0.87349143
0.85959136
0.84583244
0.83220506
0.81870033
0.80530996
0.7920263
0.77884222
0.76575108
0.75274673
0.73982344
0.72697586
0.71419902
0.70148829
0.68883934
0.67624813
0.66371089
0.65122409
0.63878447
0.62638893
0.6140346
0.60171882
0.58943905
0.57719297
0.56497838
0.55279322
0.54063558
0.52850366
0.51639578
0.50431039
0.49224601
0.48020126
0.46817488
0.45616565
0.44417247
0.43219427
0.42023009
0.408279
0.39634014
0.38441272
0.37249599
0.36058924
0.34869182
0.33680312
0.32492258
0.31304965
0.30118384
0.28932467
0.27747172
0.26562456
0.25378283
0.24194617
0.23011424
0.21828675
0.20646337
0.19464385
0.18282794
0.17101543
0.15920606
0.14739961
0.13559587
0.12379473
0.111996
0.10019955
0.088405147
0.076612687
0.064822028
0.053033079
0.04124573
0.0294597
0.017675076
0.0058910366
1.4681495
1.4526514
1.4257815
1.3918576
1.3560566
1.3211053
1.2878033
1.2564503
1.2273196
1.2005281
1.1759406
1.1532484
1.1320965
1.1121678
1.0932096
1.0750299
1.0574841
1.0404631
1.0238845
1.0076865
0.99182254
0.97625679
0.96096082
0.94591114
0.93108771
0.91647297
0.90205133
0.8878087
0.87373225
0.85981024
0.84603187
0.83238717
0.81886695
0.8054627
0.79216654
0.77897117
0.76586982
0.75285621
0.73992449
0.72706924
0.7142854
0.70156826
0.68891344
0.67631683
0.66377463
0.65128328
0.63883944
0.62644002
0.61408211
0.601763
0.58948017
0.57723124
0.56501401
0.55282641
0.5406665
0.52853247
0.51642264
0.50433542
0.49226934
0.48022302
0.46819517
0.45618458
0.44419013
0.43221075
0.42024546
0.40829334
0.39635353
0.38442521
0.37250764
0.36060012
0.34870198
0.33681261
0.32493144
0.31305792
0.30119156
0.28933188
0.27747844
0.26563085
0.2537887
0.24195165
0.23011936
0.21829151
0.20646782
0.19464803
0.18283186
0.17101908
0.15920943
0.14740275
0.13559881
0.12379751
0.1119986
0.10020198
0.088407364
0.07661476
0.064823889
0.053034851
0.041247191
0.029461097
0.017675913
0.0058920586
1.4554179
1.4434646
1.4212302
1.3909426
1.3570815
1.3230859
1.2903883
1.2593827
1.2302854
1.2032735
1.1783464
1.1552969
1.1338153
1.1135977
1.0943941
1.0760119
1.058303
1.0411525
1.0244717
1.0081926
0.99226357
0.97664501
0.96130549
0.94621933
0.93136487
0.91672339
0.90227841
0.88801521
0.87392052
0.85998223
0.84618927
0.83253144
0.81899937
0.80558441
0.79227853
0.77907434
0.76596497
0.75294405
0.74000566
0.72714431
0.71435488
0.70163261
0.68897308
0.67637215
0.66382597
0.65133095
0.63888372
0.62648117
0.61412037
0.60179859
0.58951329
0.57726207
0.56504272
0.55285314
0.54069139
0.52855567
0.51644425
0.50435557
0.49228813
0.48024054
0.46821151
0.45619982
0.44420434
0.43222401
0.42025783
0.40830489
0.3963643
0.38443526
0.37251702
0.36060887
0.34871015
0.33682024
0.32493856
0.31306457
0.30119776
0.28933767
0.27748385
0.2656359
0.25379342
0.24195606
0.23012346
0.21829534
0.20647141
0.19465141
0.18283502
0.17102199
0.15921211
0.14740526
0.1356012
0.12379978
0.11200069
0.10020391
0.088409124
0.076616437
0.064825397
0.053036302
0.041248384
0.029462293
0.017676719
0.0058930625
1.4554179
1.4434646
1.4212302
1.3909426
1.3570815
1.3230859
1.2903883
1.2593827
1.2302854
1.2032735
1.1783464
1.1552969
1.1338153
1.1135977
1.0943941
1.0760119
1.058303
1.0411525
1.0244717
1.0081926
0.99226357
0.97664501
0.9613055
0.94621933
0.93136487
0.91672339
0.90227841
0.88801521
0.87392052
0.85998223
0.84618927
0.83253144
0.81899937
0.80558441
0.79227853
0.77907434
0.76596497
0.75294405
0.74000566
0.72714431
0.71435488
0.70163262
0.68897308
0.67637215
0.66382597
0.65133094
0.63888372
0.62648117
0.61412037
0.60179859
0.58951329
0.57726207
0.56504272
0.55285314
0.54069139
0.52855567
0.51644425
0.50435557
0.49228813
0.48024054
0.46821151
0.45619982
0.44420434
0.43222401
0.42025783
0.40830489
0.3963643
0.38443526
0.37251702
0.36060887
0.34871015
0.33682024
0.32493856
0.31306457
0.30119776
0.28933767
0.27748385
0.2656359
0.25379342
0.24195605
0.23012345
0.21829534
0.20647142
0.19465142
0.18283502
0.17102197
0.15921209
0.14740526
0.13560122
0.1237998
0.1120007
0.1002039
0.088409108
0.076616427
0.064825398
0.053036311
0.041248392
0.029462295
0.017676717
0.0058930616
1.4681495
1.4526514
1.4257815
1.3918576
1.3560566
1.3211053
1.2878033
1.2564503
1.2273196
1.2005281
1.1759406
1.1532484
1.1320965
1.1121678
1.0932096
1.0750299
1.0574841
1.0404631
1.0238845
1.0076865
0.99182254
0.97625679
0.96096082
0.94591114
0.9310877
0.91647297
0.90205133
0.8878087
0.87373225
0.85981024
0.84603187
0.83238717
0.81886695
0.8054627
0.79216653
0.77897116
0.76586982
0.75285621
0.73992449
0.72706925
0.7142854
0.70156826
0.68891344
0.67631683
0.66377463
0.65128327
0.63883944
0.62644001
0.61408211
0.601763
0.58948017
0.57723125
0.56501402
0.55282641
0.54066649
0.52853247
0.51642263
0.50433542
0.49226934
0.48022302
0.46819517
0.45618459
0.44419013
0.43221075
0.42024546
0.40829334
0.39635352
0.38442521
0.37250764
0.36060012
0.34870198
0.33681261
0.32493144
0.31305792
0.30119155
0.28933187
0.27747844
0.26563085
0.2537887
0.24195164
0.23011934
0.21829152
0.20646785
0.19464806
0.18283185
0.17101902
0.15920938
0.14740276
0.13559887
0.12379756
0.1119986
0.10020194
0.088407327
0.076614757
0.064823908
0.053034871
0.041247199
0.029461096
0.017675909
0.0058920572
1.497558
1.4713829
1.4329861
1.3918532
1.3527679
1.3161771
1.2818794
1.2501619
1.2213058
1.1952047
1.1714507
1.1495607
1.1291109
1.10977
1.0912898
1.0734888
1.0562369
1.0394414
1.0230353
1.0069702
0.99120979
0.9757261
0.96049623
0.94550073
0.93072246
0.91614597
0.90175714
0.88754297
0.87349143
0.85959137
0.84583244
0.83220507
0.81870033
0.80530996
0.7920263
0.77884222
0.76575108
0.75274673
0.73982344
0.72697586
0.71419903
0.7014883
0.68883934
0.67624813
0.66371089
0.65122409
0.63878446
0.62638892
0.6140346
0.60171882
0.58943906
0.57719298
0.56497838
0.55279322
0.54063557
0.52850366
0.51639578
0.50431039
0.492246
0.48020126
0.46817488
0.45616566
0.44417247
0.43219428
0.42023009
0.40827899
0.39634014
0.38441272
0.37249598
0.36058924
0.34869182
0.33680313
0.32492258
0.31304965
0.30118383
0.28932467
0.27747172
0.26562456
0.25378283
0.24194616
0.23011424
0.21828676
0.2064634
0.19464387
0.18282793
0.17101539
0.15920603
0.14739962
0.13559591
0.12379476
0.11199599
0.10019952
0.088405123
0.076612685
0.06482204
0.053033091
0.041245735
0.0294597
0.017675074
0.0058910362
1.5583792
1.5034502
1.4424977
1.39093
1.3476599
1.3086916
1.2731054
1.2413327
1.2133718
1.188594
1.1661921
1.1454907
1.1260091
1.1074211
1.0895075
1.0721227
1.0551709
1.0385895
1.0223368
1.0063833
0.99070629
0.97528675
0.9601079
0.94515423
0.93041118
0.91586496
0.90150255
0.88731168
0.87328084
0.85939926
0.8456569
0.83204439
0.81855303
0.80517474
0.79190199
0.77872777
0.7656456
0.75264939
0.73973352
0.72689272
0.71412207
0.70141701
0.68877326
0.67618683
0.66365398
0.65117124
0.63873535
0.62634327
0.61399214
0.60167931
0.58940228
0.57715873
0.56494649
0.55276351
0.54060789
0.52847786
0.51637173
0.50428797
0.4922251
0.48018176
0.46815669
0.45614869
0.44415664
0.43217951
0.42021631
0.40826613
0.39632813
0.38440151
0.37248553
0.36057948
0.34868271
0.33679462
0.32491464
0.31304223
0.30117691
0.28931821
0.27746568
0.26561892
0.25377757
0.24194125
0.23010966
0.21828247
0.20645938
0.19464011
0.18282444
0.17101215
0.15920301
0.14739678
0.13559324
0.12379226
0.11199368
0.10019737
0.088403127
0.07661082
0.064820329
0.053031512
0.041244371
0.029458527
0.017674385
0.0058905653
1.6755989
1.554521
1.4585406
1.3948845
1.3463749
1.3039029
1.2663677
1.2341959
1.2067955
1.182958
1.1615636
1.1417998
1.1231227
1.1051831
1.0877678
1.0707536
1.0540727
1.0376886
1.0215804
1.0057345
0.99013947
0.97478437
0.95965767
0.94474743
0.93004142
0.91552743
0.90119346
0.88702796
0.8730199
0.8591589
0.84543519
0.83183964
0.81836374
0.80499956
0.79173972
0.77857735
0.76550605
0.75251984
0.73961318
0.72678087
0.71401806
0.70132025
0.6886832
0.67610298
0.66357589
0.65109849
0.63866756
0.62628008
0.61393323
0.60162438
0.58935105
0.57711095
0.56490191
0.55272192
0.54056909
0.52844164
0.51633794
0.50425642
0.49219566
0.48015428
0.46813104
0.45612474
0.44413428
0.43215863
0.42019681
0.40824793
0.39631114
0.38438564
0.37247071
0.36056563
0.34866978
0.33678255
0.32490336
0.31303171
0.30116708
0.28930902
0.2774571
0.26561091
0.25377009
0.24193427
0.23010314
0.21827637
0.20645368
0.19463479
0.18281948
0.17100752
0.15919868
0.14739272
0.13558945
0.12378873
0.1119904
0.1001943
0.088400253
0.076608135
0.064817825
0.053029208
0.041242216
0.029456652
0.017672705
0.0058897227
)
;

boundaryField
{
    top
    {
        type            zeroGradient;
    }
    inlet
    {
        type            zeroGradient;
    }
    outlet
    {
        type            fixedValue;
        value           uniform 0;
    }
    bottom
    {
        type            zeroGradient;
    }
    back
    {
        type            empty;
    }
    front
    {
        type            empty;
    }
}


// ************************************************************************* //
