/*--------------------------------*- C++ -*----------------------------------*\
  =========                 |
  \\      /  F ield         | OpenFOAM: The Open Source CFD Toolbox
   \\    /   O peration     | Website:  https://openfoam.org
    \\  /    A nd           | Version:  9
     \\/     M anipulation  |
\*---------------------------------------------------------------------------*/
FoamFile
{
    format      ascii;
    class       surfaceScalarField;
    location    "20";
    object      phi;
}
// * * * * * * * * * * * * * * * * * * * * * * * * * * * * * * * * * * * * * //

dimensions      [0 3 -1 0 0 0 0];

internalField   nonuniform List<scalar> 
1890
(
0.0093061957
0.00069380425
0.0082843931
0.0010218027
0.0073298986
0.00095449448
0.0064869553
0.00084294334
0.0057695845
0.0007173708
0.00518986
0.00057972443
0.004738168
0.00045169204
0.00439519
0.00034297801
0.0041390268
0.00025616318
0.003949107
0.00018991984
0.003807888
0.00014121898
0.0037013782
0.0001065098
0.003619058
8.2320217e-05
0.0035534117
6.5646233e-05
0.0034992845
5.4127239e-05
0.0034532445
4.6040034e-05
0.0034130502
4.0194285e-05
0.0033772574
3.5792756e-05
0.0033449387
3.2318764e-05
0.0033154894
2.9449287e-05
0.0032885008
2.6988581e-05
0.0032636805
2.4820302e-05
0.003240805
2.2875479e-05
0.0032196926
2.1112416e-05
0.0032001879
1.9504654e-05
0.0031821539
1.8034014e-05
0.0031654672
1.6686724e-05
0.0031500159
1.5451362e-05
0.003135698
1.4317862e-05
0.0031224209
1.3277074e-05
0.0031101003
1.2320596e-05
0.0030986596
1.1440724e-05
0.0030880292
1.0630435e-05
0.0030781458
9.8833623e-06
0.0030689521
9.193766e-06
0.0030603956
8.5564913e-06
0.0030524286
7.9669183e-06
0.0030450077
7.4209087e-06
0.003038093
6.9147551e-06
0.0030316479
6.4451321e-06
0.0030256388
6.0090548e-06
0.003020035
5.6038379e-06
0.0030148079
5.227059e-06
0.0030099314
4.8765248e-06
0.0030053811
4.5502433e-06
0.0030011347
4.2464018e-06
0.0029971714
3.9633482e-06
0.0029934718
3.6995731e-06
0.0029900181
3.4536937e-06
0.0029867937
3.2244364e-06
0.002983783
3.0106259e-06
0.0029809719
2.8111751e-06
0.0029783468
2.62508e-06
0.0029758954
2.4514161e-06
0.0029736061
2.2893324e-06
0.002971468
2.1380435e-06
0.0029694712
1.9968204e-06
0.0029676062
1.8649833e-06
0.0029658643
1.7418988e-06
0.0029642373
1.6269756e-06
0.0029627177
1.5196649e-06
0.0029612982
1.4194546e-06
0.0029599724
1.3258691e-06
0.0029587339
1.2384634e-06
0.0029575771
1.156824e-06
0.0029564965
1.0805672e-06
0.0029554872
1.0093397e-06
0.0029545443
9.4281376e-07
0.0029536636
8.8068726e-07
0.002952841
8.2266972e-07
0.0029520725
7.6848971e-07
0.0029513546
7.1788054e-07
0.002950684
6.7059771e-07
0.0029500576
6.264117e-07
0.0029494725
5.8512771e-07
0.0029489259
5.4655693e-07
0.0029484154
5.1054185e-07
0.0029479385
4.7690473e-07
0.002947493
4.4550661e-07
0.0029470768
4.1615559e-07
0.002946688
3.8875021e-07
0.0029463248
3.6311984e-07
0.0029459857
3.3925104e-07
0.0029456689
3.1692443e-07
0.0029453728
2.9609278e-07
0.0029450962
2.7643793e-07
0.0029448379
2.5816468e-07
0.0029445969
2.4101839e-07
0.0029443717
2.2539684e-07
0.0029441612
2.1060494e-07
0.0029439641
1.9703049e-07
0.0029437803
1.8369499e-07
0.0029436085
1.717456e-07
0.0029434484
1.600993e-07
0.0029432981
1.5022892e-07
0.0029431576
1.4049749e-07
0.0029430254
1.3223896e-07
0.0029429003
1.2517424e-07
0.0029427808
1.1947567e-07
1.2579522e-07
0.010339525
0.00035427932
0.010570754
0.00079057334
0.010606301
0.0009189482
0.010547573
0.00090167137
0.010422317
0.00084262623
0.010244356
0.00075768559
0.010039421
0.00065662744
0.0098287427
0.00055365587
0.009625135
0.00045977084
0.0094353013
0.00037975355
0.0092624277
0.00031409259
0.0091075332
0.00026140426
0.008970154
0.00021969947
0.0088489024
0.00018689785
0.0087419716
0.000161058
0.0086474927
0.00014051893
0.008563694
0.00012399296
0.0084890108
0.000110476
0.0084221097
9.9219874e-05
0.0083618776
8.9681405e-05
0.0083073955
8.1470666e-05
0.0082579079
7.4307842e-05
0.0082127929
6.7990494e-05
0.0081715353
6.2369989e-05
0.008133705
5.7335014e-05
0.0080989388
5.2800182e-05
0.0080669273
4.8698262e-05
0.0080374037
4.4974952e-05
0.0080101362
4.1585392e-05
0.0079849214
3.8491852e-05
0.0079615799
3.5662161e-05
0.007939952
3.3068614e-05
0.0079198952
3.0687169e-05
0.0079012818
2.8496842e-05
0.0078839963
2.6479233e-05
0.0078679346
2.461814e-05
0.0078530023
2.2899247e-05
0.0078391134
2.1309858e-05
0.0078261895
1.9838676e-05
0.007814159
1.8475619e-05
0.0078029564
1.7211665e-05
0.0077925215
1.6038712e-05
0.0077827991
1.4949464e-05
0.0077737383
1.3937325e-05
0.0077652922
1.2996315e-05
0.0077574176
1.2121006e-05
0.0077500745
1.1306457e-05
0.0077432259
1.0548159e-05
0.0077368376
9.8419848e-06
0.0077308779
9.1841454e-06
0.0077253174
8.5711562e-06
0.0077201288
7.9998087e-06
0.0077152867
7.4671475e-06
0.0077107677
6.9704525e-06
0.0077065498
6.5072165e-06
0.0077026127
6.0751241e-06
0.0076989375
5.6720292e-06
0.0076955065
5.2959377e-06
0.0076923034
4.9449993e-06
0.0076893129
4.6174967e-06
0.0076865208
4.3118371e-06
0.0076839137
4.0265372e-06
0.0076814793
3.7602174e-06
0.0076792062
3.5115915e-06
0.0076770836
3.2794681e-06
0.0076751014
3.062739e-06
0.0076732503
2.860381e-06
0.0076715217
2.6714411e-06
0.0076699074
2.4950366e-06
0.0076683997
2.3303287e-06
0.0076669917
2.1765359e-06
0.0076656767
2.0329081e-06
0.0076644485
1.8987648e-06
0.0076633014
1.7734585e-06
0.0076622301
1.6564344e-06
0.0076612295
1.5471299e-06
0.007660295
1.4450824e-06
0.0076594221
1.3497542e-06
0.0076586069
1.2607625e-06
0.0076578454
1.1776013e-06
0.0076571342
1.0999886e-06
0.0076564699
1.0274008e-06
0.0076558495
9.5976684e-07
0.0076552699
8.9649279e-07
0.0076547285
8.3752037e-07
0.0076542228
7.8193536e-07
0.0076537506
7.3034474e-07
0.0076533097
6.8192945e-07
0.0076528976
6.3774753e-07
0.0076525128
5.9552813e-07
0.0076521528
5.5688303e-07
0.0076518174
5.1894406e-07
0.0076515032
4.8582934e-07
0.0076512109
4.5251013e-07
0.0076509358
4.2540847e-07
0.0076506809
3.9535017e-07
0.0076504388
3.7437783e-07
0.0076502167
3.4722773e-07
0.0076500001
3.361293e-07
3.1080812e-07
0.010188704
0.00016557515
0.010530487
0.00044879099
0.010851453
0.00059798177
0.011124174
0.00062895024
0.011350581
0.00061621886
0.011524486
0.00058378056
0.01164633
0.00053478422
0.011724155
0.00047583051
0.011767999
0.00041592667
0.011786639
0.000361114
0.011787114
0.00031361712
0.011775058
0.00027346025
0.011754861
0.00023989717
0.011729768
0.00021199029
0.011702054
0.00018877259
0.011673239
0.00016933387
0.011644339
0.00015289296
0.011616003
0.00013881183
0.011588629
0.00012659379
0.011562446
0.00011586444
0.011537572
0.00010634493
0.011514052
9.7826998e-05
0.01149189
9.0153361e-05
0.011471056
8.3203363e-05
0.011451509
7.6882606e-05
0.011433193
7.1115552e-05
0.011416051
6.5840288e-05
0.011400021
6.1004911e-05
0.011385042
5.6565079e-05
0.011371051
5.2482349e-05
0.01135799
4.8723035e-05
0.011345801
4.5257389e-05
0.01133443
4.2058988e-05
0.011323822
3.910426e-05
0.011313929
3.6372111e-05
0.011304704
3.3843603e-05
0.011296101
3.1501695e-05
0.01128808
2.9331024e-05
0.011280601
2.7317706e-05
0.011273628
2.5449179e-05
0.011267125
2.3714047e-05
0.011261062
2.2101951e-05
0.011255408
2.0603456e-05
0.011250135
1.920995e-05
0.011245218
1.7913566e-05
0.011240632
1.6707107e-05
0.011236355
1.5583977e-05
0.011232365
1.4538114e-05
0.011228643
1.356394e-05
0.011225171
1.2656314e-05
0.011221931
1.1810496e-05
0.011218909
1.1022108e-05
0.011216089
1.0287118e-05
0.011213458
9.6017986e-06
0.011211002
8.9627026e-06
0.011208711
8.366631e-06
0.011206572
7.8106146e-06
0.011204576
7.2919009e-06
0.011202713
6.8079368e-06
0.011200974
6.3563524e-06
0.011199351
5.9349441e-06
0.011197836
5.5416607e-06
0.011196422
5.1745942e-06
0.011195101
4.8319684e-06
0.011193869
4.5121359e-06
0.011192718
4.2135661e-06
0.011191643
3.9348447e-06
0.01119064
3.6746463e-06
0.011189703
3.4317369e-06
0.011188829
3.2049468e-06
0.011188012
2.9931927e-06
0.01118725
2.7954433e-06
0.011186538
2.6107825e-06
0.011185873
2.4383297e-06
0.011185252
2.2773204e-06
0.011184672
2.1269626e-06
0.01118413
1.986589e-06
0.011183625
1.8554479e-06
0.011183153
1.7330081e-06
0.011182712
1.618553e-06
0.0111823
1.5118104e-06
0.011181915
1.4121014e-06
0.011181556
1.3192213e-06
0.01118122
1.2319933e-06
0.011180907
1.1506124e-06
0.011180615
1.0741682e-06
0.011180341
1.0038721e-06
0.011180086
9.3761002e-07
0.011179847
8.7674036e-07
0.011179625
8.1770259e-07
0.011179417
7.6475084e-07
0.011179223
7.124219e-07
0.01117904
6.6823786e-07
0.011178872
6.2123316e-07
0.011178712
5.8537907e-07
0.011178567
5.4121054e-07
0.011178426
5.1519625e-07
0.0111783
4.7217478e-07
0.011178177
4.5906324e-07
4.1616626e-07
0.010097182
6.8393555e-05
0.010346961
0.00019901112
0.010662469
0.00028247387
0.010982753
0.00030866649
0.011290229
0.00030874343
0.011575251
0.0002987579
0.011829022
0.00028101348
0.012047865
0.00025698757
0.012233272
0.00023051983
0.01238924
0.00020514589
0.012520295
0.00018256235
0.012630755
0.00016299956
0.012724428
0.00014622489
0.012804515
0.00013190311
0.012873613
0.00011967425
0.012933772
0.0001091746
0.012986596
0.00010006907
0.013033332
9.2076361e-05
0.01307495
8.4975247e-05
0.013112216
7.8598608e-05
0.013145739
7.2822299e-05
0.013176012
6.7553935e-05
0.013203441
6.2723919e-05
0.013228366
5.8278886e-05
0.013251071
5.4176976e-05
0.013271803
5.0384424e-05
0.01329077
4.6873163e-05
0.013308155
4.3619187e-05
0.013324119
4.0601472e-05
0.0133388
3.7801291e-05
0.013352321
3.5201758e-05
0.013364791
3.2787529e-05
0.013376306
3.0544585e-05
0.01338695
2.846008e-05
0.0133968
2.6522215e-05
0.013405923
2.4720135e-05
0.013414381
2.3043846e-05
0.013422228
2.1484146e-05
0.013429513
2.0032558e-05
0.013436281
1.8681267e-05
0.013442572
1.7423061e-05
0.013448423
1.625128e-05
0.013453866
1.5159765e-05
0.013458933
1.414283e-05
0.013463652
1.3195217e-05
0.013468047
1.2312064e-05
0.013472142
1.1488866e-05
0.013475959
1.0721443e-05
0.013479517
1.0005919e-05
0.013482834
9.3386979e-06
0.013485928
8.7164421e-06
0.013488814
8.1360609e-06
0.013491507
7.594688e-06
0.013494019
7.0896604e-06
0.013496363
6.6184995e-06
0.013498551
6.1788958e-06
0.013500593
5.7687018e-06
0.013502499
5.3859219e-06
0.013504278
5.0287051e-06
0.013505939
4.6953212e-06
0.01350749
4.3841615e-06
0.013508938
4.0937257e-06
0.01351029
3.8226183e-06
0.013511552
3.5695386e-06
0.013512731
3.3332817e-06
0.013513832
3.1127252e-06
0.01351486
2.9068288e-06
0.01351582
2.71461e-06
0.013516717
2.5351527e-06
0.013517554
2.3675876e-06
0.013518336
2.2111172e-06
0.013519066
2.064993e-06
0.013519749
1.9285513e-06
0.013520386
1.8011459e-06
0.013520981
1.6822089e-06
0.013521537
1.5711342e-06
0.013522056
1.4674273e-06
0.013522541
1.3705106e-06
0.013522994
1.2800178e-06
0.013523417
1.1954706e-06
0.013523812
1.1167278e-06
0.013524181
1.0431234e-06
0.013524526
9.7437576e-07
0.013524848
9.0964104e-07
0.013525149
8.495629e-07
0.01352543
7.9344922e-07
0.013525693
7.4191722e-07
0.013525937
6.9263809e-07
0.013526166
6.4730715e-07
0.01352638
6.0336158e-07
0.013526581
5.6485084e-07
0.013526768
5.2615316e-07
0.013526941
4.9395789e-07
0.013527103
4.5837861e-07
0.013527256
4.3260689e-07
0.0135274
3.9893626e-07
0.013527535
3.8077952e-07
0.013527659
3.4705161e-07
0.013527779
3.3804545e-07
3.0571949e-07
0.010068394
1.1214693e-12
0.010267405
4.7522853e-12
0.010549879
1.0631051e-11
0.010858545
1.7588339e-11
0.011167288
2.2575391e-11
0.011466046
2.3809728e-11
0.01174706
2.0653177e-11
0.012004047
1.3048286e-11
0.012234567
4.3572343e-12
0.012439713
-6.1204275e-12
0.012622275
-1.4995473e-11
0.012785275
-1.8594362e-11
0.0129315
-1.573799e-11
0.013063403
-1.0617397e-11
0.013183077
-5.2406958e-12
0.013292252
-2.2064475e-12
0.013392321
-2.6909787e-12
0.013484397
-5.4437837e-12
0.013569373
-7.6630131e-12
0.013647971
-9.1452005e-12
0.013720794
-8.3703442e-12
0.013788347
-8.6190714e-12
0.013851071
-1.0400136e-11
0.01390935
-1.0494353e-11
0.013963527
-6.9106297e-12
0.014013912
-1.5171584e-12
0.014060785
5.8826981e-12
0.014104404
9.8208771e-12
0.014145006
7.6664685e-12
0.014182807
2.1644444e-12
0.014218009
-5.1195595e-12
0.014250796
-1.1770795e-11
0.014281341
-1.3031757e-11
0.014309801
-8.8187407e-12
0.014336323
-3.4100135e-12
0.014361043
1.5273667e-12
0.014384087
6.4229066e-12
0.014405571
5.7637868e-12
0.014425604
3.0994623e-12
0.014444285
1.6430824e-12
0.014461708
7.7955262e-13
0.014477959
-9.8672302e-13
0.014493119
-4.7456612e-12
0.014507262
-9.3972996e-12
0.014520457
-1.1175803e-11
0.014532769
-7.3883881e-12
0.014544258
-1.2327632e-12
0.01455498
7.8571306e-12
0.014564985
1.3240149e-11
0.014574324
1.0681439e-11
0.014583041
2.4471248e-12
0.014591177
-7.7608052e-12
0.014598771
-1.5781571e-11
0.014605861
-1.5558598e-11
0.01461248
-9.1461403e-12
0.014618658
-3.4196465e-12
0.014624427
7.9855188e-13
0.014629813
6.1267878e-12
0.014634842
8.2590521e-12
0.014639537
8.8612485e-12
0.014643921
7.1912287e-12
0.014648015
2.9035967e-12
0.014651838
-4.4379215e-12
0.014655407
-1.3623689e-11
0.01465874
-1.8471943e-11
0.014661853
-1.3392906e-11
0.01466476
-2.6983997e-12
0.014667475
1.3187046e-11
0.01467001
2.5877778e-11
0.014672377
2.4531168e-11
0.014674588
9.4009189e-12
0.014676653
-7.4056735e-12
0.014678582
-2.2313763e-11
0.014680383
-2.0944381e-11
0.014682065
-4.2866904e-12
0.014683637
1.1101896e-11
0.014685104
1.5292607e-11
0.014686474
2.880282e-12
0.014687755
-1.258094e-11
0.01468895
1.3177439e-12
0.014690067
4.9750305e-11
0.01469111
7.5756964e-11
0.014692084
2.9525094e-12
0.014692993
-1.2810288e-10
0.014693843
-1.5862571e-10
0.014694638
-3.2158833e-11
0.01469538
1.5606733e-10
0.014696071
2.1106841e-10
0.014696717
5.4071691e-11
0.014697321
-1.5434223e-10
0.014697888
-2.2934335e-10
0.014698415
-1.0660179e-10
0.014698907
9.0093245e-11
0.014699364
1.7563385e-10
0.014699796
1.2153701e-10
0.014700197
4.3899353e-12
0.01470058
-6.4138275e-11
0.014700926
-6.1683667e-11
0.014701262
-1.3695672e-11
2.2089466e-12
0.010068394
-6.8393553e-05
0.010267405
-0.00019901111
0.010549879
-0.00028247385
0.010858545
-0.00030866646
0.011167288
-0.00030874339
0.011466046
-0.00029875787
0.01174706
-0.00028101345
0.012004047
-0.00025698755
0.012234567
-0.00023051982
0.012439713
-0.0002051459
0.012622275
-0.00018256237
0.012785275
-0.00016299958
0.0129315
-0.00014622492
0.013063403
-0.00013190313
0.013183077
-0.00011967427
0.013292252
-0.00010917461
0.013392321
-0.00010006907
0.013484397
-9.2076372e-05
0.013569373
-8.4975259e-05
0.013647971
-7.8598619e-05
0.013720794
-7.2822312e-05
0.013788347
-6.755395e-05
0.013851071
-6.2723935e-05
0.01390935
-5.8278901e-05
0.013963527
-5.4176983e-05
0.014013912
-5.0384421e-05
0.014060785
-4.6873153e-05
0.014104404
-4.3619175e-05
0.014145006
-4.0601464e-05
0.014182807
-3.7801291e-05
0.014218009
-3.5201766e-05
0.014250796
-3.2787541e-05
0.014281341
-3.0544598e-05
0.014309801
-2.846009e-05
0.014336323
-2.6522219e-05
0.014361043
-2.4720133e-05
0.014384087
-2.3043842e-05
0.014405571
-2.1484142e-05
0.014425604
-2.0032554e-05
0.014444285
-1.8681265e-05
0.014461708
-1.7423061e-05
0.014477959
-1.6251283e-05
0.014493119
-1.5159775e-05
0.014507262
-1.4142845e-05
0.014520457
-1.3195232e-05
0.014532769
-1.2312073e-05
0.014544258
-1.1488863e-05
0.01455498
-1.0721432e-05
0.014564986
-1.0005906e-05
0.014574324
-9.3386907e-06
0.014583041
-8.7164456e-06
0.014591177
-8.1360733e-06
0.014598771
-7.5947029e-06
0.014605861
-7.0896743e-06
0.01461248
-6.618509e-06
0.014618658
-6.1788993e-06
0.014624427
-5.7686994e-06
0.014629813
-5.3859163e-06
0.014634842
-5.0286939e-06
0.014639537
-4.6953081e-06
0.014643921
-4.3841515e-06
0.014648015
-4.0937243e-06
0.014651838
-3.8226284e-06
0.014655407
-3.5695582e-06
0.01465874
-3.333302e-06
0.014661853
-3.112737e-06
0.01466476
-2.9068239e-06
0.014667475
-2.7145892e-06
0.01467001
-2.5351263e-06
0.014672377
-2.3675683e-06
0.014674588
-2.2111166e-06
0.014676653
-2.0650085e-06
0.014678582
-1.9285675e-06
0.014680383
-1.801148e-06
0.014682065
-1.6821968e-06
0.014683637
-1.5711197e-06
0.014685104
-1.4674277e-06
0.014686474
-1.3705301e-06
0.014687755
-1.2800297e-06
0.01468895
-1.1954289e-06
0.014690067
-1.116633e-06
0.01469111
-1.0430704e-06
0.014692084
-9.7448176e-07
0.014692993
-9.099102e-07
0.014693844
-8.4971928e-07
0.014694638
-7.9323073e-07
0.014695379
-7.4153094e-07
0.014696071
-6.925546e-07
0.014696718
-6.476638e-07
0.014697322
-6.0378387e-07
0.014697888
-5.6489642e-07
0.014698414
-5.2586683e-07
0.014698907
-4.9373333e-07
0.014699364
-4.5838928e-07
0.014699797
-4.3273823e-07
0.014700198
-3.9898307e-07
0.01470058
-3.8074577e-07
0.014700925
-3.4702007e-07
0.014701262
-3.3802571e-07
-3.0570491e-07
0.010097182
-0.00016557515
0.010346961
-0.00044879098
0.010662469
-0.00059798175
0.010982753
-0.00062895023
0.011290229
-0.00061621885
0.011575251
-0.00058378055
0.011829022
-0.0005347842
0.012047865
-0.0004758305
0.012233272
-0.00041592666
0.01238924
-0.000361114
0.012520295
-0.00031361712
0.012630755
-0.00027346026
0.012724428
-0.00023989719
0.012804515
-0.00021199031
0.012873613
-0.00018877261
0.012933772
-0.00016933389
0.012986596
-0.00015289297
0.013033332
-0.00013881183
0.01307495
-0.00012659379
0.013112216
-0.00011586445
0.013145739
-0.00010634494
0.013176012
-9.7827005e-05
0.013203441
-9.0153366e-05
0.013228366
-8.3203365e-05
0.013251071
-7.6882609e-05
0.013271803
-7.1115556e-05
0.01329077
-6.5840291e-05
0.013308155
-6.1004912e-05
0.013324119
-5.6565076e-05
0.0133388
-5.2482343e-05
0.013352321
-4.8723029e-05
0.013364791
-4.5257385e-05
0.013376306
-4.2058987e-05
0.01338695
-3.9104265e-05
0.0133968
-3.6372119e-05
0.013405923
-3.384361e-05
0.013414381
-3.1501699e-05
0.013422228
-2.9331023e-05
0.013429513
-2.7317702e-05
0.013436281
-2.5449175e-05
0.013442572
-2.3714046e-05
0.013448423
-2.2101954e-05
0.013453866
-2.0603459e-05
0.013458933
-1.9209952e-05
0.013463652
-1.7913568e-05
0.013468047
-1.6707113e-05
0.013472142
-1.5583985e-05
0.013475959
-1.4538124e-05
0.013479517
-1.3563948e-05
0.013482834
-1.2656317e-05
0.013485928
-1.1810491e-05
0.013488814
-1.1022101e-05
0.013491507
-1.0287114e-05
0.013494019
-9.6018009e-06
0.013496363
-8.9627097e-06
0.013498551
-8.3666388e-06
0.013500593
-7.8106201e-06
0.013502499
-7.2919026e-06
0.013504278
-6.8079357e-06
0.013505939
-6.3563501e-06
0.01350749
-5.9349416e-06
0.013508938
-5.5416574e-06
0.01351029
-5.174589e-06
0.013511552
-4.8319612e-06
0.013512731
-4.5121302e-06
0.013513832
-4.2135662e-06
0.01351486
-3.9348525e-06
0.01351582
-3.6746603e-06
0.013516717
-3.4317515e-06
0.013517554
-3.2049523e-06
0.013518336
-2.9931827e-06
0.013519066
-2.7954212e-06
0.013519749
-2.6107597e-06
0.013520386
-2.4383205e-06
0.013520981
-2.2773314e-06
0.013521537
-2.1269823e-06
0.013522056
-1.9865996e-06
0.013522541
-1.8554247e-06
0.013522994
-1.732957e-06
0.013523417
-1.6185435e-06
0.013523812
-1.5119003e-06
0.013524181
-1.4122191e-06
0.013524526
-1.3191923e-06
0.013524848
-1.2317861e-06
0.013525149
-1.1504686e-06
0.01352543
-1.0743348e-06
0.013525692
-1.0042187e-06
0.013525937
-9.3774772e-07
0.013526166
-8.7654329e-07
0.01352638
-8.1744314e-07
0.01352658
-7.6471452e-07
0.013526767
-7.1259602e-07
0.013526941
-6.6839987e-07
0.013527104
-6.212553e-07
0.013527257
-5.8531206e-07
0.013527399
-5.4114421e-07
0.013527534
-5.1515039e-07
0.013527658
-4.7215169e-07
0.013527779
-4.5904689e-07
-4.1613527e-07
0.010188704
-0.00035427931
0.010530487
-0.00079057334
0.010851453
-0.0009189482
0.011124174
-0.00090167136
0.011350581
-0.00084262623
0.011524487
-0.00075768559
0.01164633
-0.00065662744
0.011724155
-0.00055365586
0.011767999
-0.00045977084
0.011786639
-0.00037975354
0.011787114
-0.00031409259
0.011775058
-0.00026140425
0.011754861
-0.00021969948
0.011729768
-0.00018689786
0.011702054
-0.00016105803
0.011673239
-0.00014051895
0.011644339
-0.00012399297
0.011616003
-0.000110476
0.011588629
-9.921987e-05
0.011562446
-8.96814e-05
0.011537572
-8.1470663e-05
0.011514052
-7.430784e-05
0.01149189
-6.7990491e-05
0.011471056
-6.2369986e-05
0.011451509
-5.7335015e-05
0.011433193
-5.280019e-05
0.011416051
-4.8698275e-05
0.011400021
-4.4974964e-05
0.011385042
-4.1585396e-05
0.011371051
-3.8491845e-05
0.01135799
-3.5662146e-05
0.011345801
-3.3068596e-05
0.01133443
-3.0687156e-05
0.011323822
-2.8496839e-05
0.011313929
-2.647924e-05
0.011304704
-2.4618154e-05
0.011296101
-2.2899262e-05
0.01128808
-2.1309866e-05
0.011280601
-1.9838676e-05
0.011273628
-1.8475615e-05
0.011267125
-1.7211661e-05
0.011261062
-1.6038709e-05
0.011255408
-1.4949459e-05
0.011250135
-1.3937317e-05
0.011245218
-1.2996309e-05
0.011240632
-1.2121008e-05
0.011236355
-1.1306471e-05
0.011232365
-1.0548182e-05
0.011228643
-9.842008e-06
0.011225171
-9.1841578e-06
0.011221931
-8.5711517e-06
0.011218909
-7.9997899e-06
0.011216089
-7.4671252e-06
0.011213458
-6.9704376e-06
0.011211002
-6.5072148e-06
0.011208711
-6.075133e-06
0.011206572
-5.6720427e-06
0.011204576
-5.2959512e-06
0.011202713
-4.945011e-06
0.011200974
-4.617505e-06
0.011199351
-4.3118393e-06
0.011197836
-4.0265301e-06
0.011196422
-3.7601994e-06
0.011195101
-3.5115665e-06
0.011193869
-3.279445e-06
0.011192718
-3.0627298e-06
0.011191643
-2.8603949e-06
0.01119064
-2.6714763e-06
0.011189703
-2.4950786e-06
0.011188829
-2.3303553e-06
0.011188012
-2.17653e-06
0.01118725
-2.0328702e-06
0.011186538
-1.8987172e-06
0.011185873
-1.7734289e-06
0.011185252
-1.6564367e-06
0.011184672
-1.5471561e-06
0.01118413
-1.4451013e-06
0.011183625
-1.3497454e-06
0.011183153
-1.2607414e-06
0.011182712
-1.1776208e-06
0.0111823
-1.1000829e-06
0.011181915
-1.0275047e-06
0.011181556
-9.5972238e-07
0.01118122
-8.9624317e-07
0.011180907
-8.3728908e-07
0.011180615
-7.820403e-07
0.011180341
-7.3078839e-07
0.011180086
-6.8230529e-07
0.011179847
-6.3765034e-07
0.011179625
-5.9506919e-07
0.011179417
-5.5655516e-07
0.011179223
-5.1902923e-07
0.01117904
-4.8615881e-07
0.011178872
-4.5273992e-07
0.011178712
-4.2540031e-07
0.011178566
-3.9521807e-07
0.011178425
-3.742636e-07
0.0111783
-3.4717149e-07
0.011178177
-3.3608794e-07
-3.1077028e-07
0.010339525
-0.00069380425
0.010570754
-0.0010218027
0.010606301
-0.00095449448
0.010547573
-0.00084294334
0.010422317
-0.0007173708
0.010244356
-0.00057972444
0.010039421
-0.00045169204
0.0098287427
-0.00034297801
0.009625135
-0.00025616318
0.0094353013
-0.00018991983
0.0092624277
-0.00014121897
0.0091075332
-0.00010650979
0.008970154
-8.2320218e-05
0.0088489023
-6.5646242e-05
0.0087419716
-5.4127254e-05
0.0086474927
-4.604005e-05
0.008563694
-4.0194294e-05
0.0084890108
-3.5792758e-05
0.0084221097
-3.231876e-05
0.0083618775
-2.944928e-05
0.0083073955
-2.6988573e-05
0.0082579079
-2.4820295e-05
0.0082127929
-2.2875473e-05
0.0081715353
-2.1112412e-05
0.008133705
-1.9504655e-05
0.0080989388
-1.8034022e-05
0.0080669273
-1.6686735e-05
0.0080374037
-1.5451372e-05
0.0080101362
-1.4317867e-05
0.0079849214
-1.3277069e-05
0.0079615799
-1.2320583e-05
0.007939952
-1.1440708e-05
0.0079198952
-1.0630422e-05
0.0079012818
-9.8833566e-06
0.0078839963
-9.1937701e-06
0.0078679347
-8.5565026e-06
0.0078530023
-7.9669309e-06
0.0078391134
-7.4209174e-06
0.0078261895
-6.9147579e-06
0.007814159
-6.4451307e-06
0.0078029564
-6.0090512e-06
0.0077925215
-5.6038325e-06
0.0077827991
-5.2270512e-06
0.0077737383
-4.8765158e-06
0.0077652922
-4.5502371e-06
0.0077574176
-4.2464031e-06
0.0077500745
-3.9633594e-06
0.0077432259
-3.6995919e-06
0.0077368376
-3.4537128e-06
0.0077308779
-3.2244473e-06
0.0077253174
-3.0106227e-06
0.0077201288
-2.8111593e-06
0.0077152867
-2.6250596e-06
0.0077107677
-2.4514006e-06
0.0077065498
-2.2893271e-06
0.0077026127
-2.1380482e-06
0.0076989375
-1.9968316e-06
0.0076955065
-1.8649974e-06
0.0076923034
-1.7419121e-06
0.0076893129
-1.6269851e-06
0.0076865207
-1.5196672e-06
0.0076839137
-1.4194478e-06
0.0076814793
-1.3258527e-06
0.0076792062
-1.2384409e-06
0.0076770836
-1.1568037e-06
0.0076751014
-1.0805594e-06
0.0076732504
-1.0093517e-06
0.0076715217
-9.4284367e-07
0.0076699073
-8.8072203e-07
0.0076683997
-8.2269223e-07
0.0076669917
-7.6848636e-07
0.0076656767
-7.1785188e-07
0.0076644485
-6.7056118e-07
0.0076633014
-6.2638744e-07
0.0076622301
-5.8512705e-07
0.0076612295
-5.4657129e-07
0.007660295
-5.1055546e-07
0.0076594222
-4.7690387e-07
0.007658607
-4.4550579e-07
0.0076578454
-4.1618831e-07
0.0076571341
-3.8882619e-07
0.0076564697
-3.6316996e-07
0.0076558494
-3.3917465e-07
0.0076552701
-3.1672831e-07
0.0076547287
-2.9597372e-07
0.0076542229
-2.7656425e-07
0.0076537504
-2.5846058e-07
0.0076533095
-2.4120793e-07
0.0076528974
-2.2531175e-07
0.0076525128
-2.1034107e-07
0.007652153
-1.9683718e-07
0.0076518175
-1.8371032e-07
0.0076515032
-1.7191138e-07
0.0076512107
-1.6026398e-07
0.0076509357
-1.5028856e-07
0.007650681
-1.4044545e-07
0.0076504388
-1.3214094e-07
0.0076502167
-1.2509513e-07
0.0076500001
-1.1943027e-07
-1.2577514e-07
0.0093061957
0.0082843931
0.0073298986
0.0064869553
0.0057695845
0.00518986
0.004738168
0.00439519
0.0041390268
0.003949107
0.003807888
0.0037013782
0.003619058
0.0035534117
0.0034992845
0.0034532444
0.0034130501
0.0033772574
0.0033449386
0.0033154894
0.0032885008
0.0032636805
0.003240805
0.0032196926
0.003200188
0.0031821539
0.0031654672
0.0031500158
0.003135698
0.0031224209
0.0031101003
0.0030986596
0.0030880292
0.0030781458
0.0030689521
0.0030603956
0.0030524286
0.0030450077
0.003038093
0.0030316478
0.0030256388
0.003020035
0.0030148079
0.0030099314
0.0030053812
0.0030011348
0.0029971714
0.0029934718
0.0029900181
0.0029867936
0.002983783
0.0029809719
0.0029783468
0.0029758954
0.0029736061
0.002971468
0.0029694712
0.0029676062
0.0029658643
0.0029642373
0.0029627176
0.0029612982
0.0029599724
0.0029587339
0.0029575771
0.0029564966
0.0029554872
0.0029545443
0.0029536636
0.0029528409
0.0029520725
0.0029513546
0.002950684
0.0029500576
0.0029494725
0.0029489259
0.0029484154
0.0029479385
0.0029474929
0.0029470766
0.0029466878
0.0029463248
0.0029459859
0.0029456691
0.0029453728
0.002945096
0.0029448377
0.0029445969
0.0029443718
0.0029441612
0.0029439641
0.0029437803
0.0029436086
0.0029434484
0.0029432981
0.0029431576
0.0029430254
0.0029429003
0.0029427809
)
;

boundaryField
{
    top
    {
        type            calculated;
        value           uniform 0;
    }
    inlet
    {
        type            calculated;
        value           nonuniform List<scalar> 10(-0.01 -0.01 -0.01 -0.01 -0.01 -0.01 -0.01 -0.01 -0.01 -0.01);
    }
    outlet
    {
        type            calculated;
        value           nonuniform List<scalar> 10(0.002942655 0.007649815 0.011178072 0.013527889 0.014701567 0.014701567 0.01352789 0.011178072 0.0076498151 0.0029426551);
    }
    bottom
    {
        type            calculated;
        value           uniform 0;
    }
    back
    {
        type            empty;
        value           nonuniform List<scalar> 0();
    }
    front
    {
        type            empty;
        value           nonuniform List<scalar> 0();
    }
}


// ************************************************************************* //
