/*--------------------------------*- C++ -*----------------------------------*\
  =========                 |
  \\      /  F ield         | OpenFOAM: The Open Source CFD Toolbox
   \\    /   O peration     | Website:  https://openfoam.org
    \\  /    A nd           | Version:  9
     \\/     M anipulation  |
\*---------------------------------------------------------------------------*/
FoamFile
{
    format      ascii;
    class       volVectorField;
    location    "20";
    object      U;
}
// * * * * * * * * * * * * * * * * * * * * * * * * * * * * * * * * * * * * * //

dimensions      [0 1 -1 0 0 0 0];

internalField   nonuniform List<vector> 
1000
(
(0.91890839 0.035821913 0)
(0.86271384 0.062195638 0)
(0.7870597 0.06251009 0)
(0.69536033 0.054550395 0)
(0.61089745 0.044531651 0)
(0.54411592 0.034015971 0)
(0.49343012 0.024187539 0)
(0.45479414 0.01614423 0)
(0.42544583 0.010265786 0)
(0.40347313 0.0063041459 0)
(0.38715767 0.0037976301 0)
(0.3749622 0.0023103385 0)
(0.36566192 0.0014930146 0)
(0.35836272 0.0010851174 0)
(0.35244268 0.00090607131 0)
(0.34748201 0.00084105092 0)
(0.34320348 0.0008237238 0)
(0.33942726 0.00081931061 0)
(0.33603793 0.00081185254 0)
(0.33296114 0.00079580182 0)
(0.33014778 0.00077081188 0)
(0.32756384 0.00073870965 0)
(0.3251842 0.00070188925 0)
(0.32298902 0.00066256546 0)
(0.32096172 0.00062249922 0)
(0.31908785 0.00058295697 0)
(0.31735449 0.00054477107 0)
(0.31574996 0.0005084338 0)
(0.31426361 0.00047419161 0)
(0.31288575 0.00044212501 0)
(0.31160756 0.00041221011 0)
(0.31042102 0.00038436222 0)
(0.30931883 0.0003584652 0)
(0.30829439 0.00033439003 0)
(0.30734165 0.00031200597 0)
(0.30645516 0.00029118673 0)
(0.30562992 0.00027181361 0)
(0.30486137 0.00025377661 0)
(0.30414536 0.00023697471 0)
(0.30347808 0.00022131552 0)
(0.30285602 0.00020671485 0)
(0.30227597 0.00019309594 0)
(0.30173497 0.00018038867 0)
(0.3012303 0.00016852866 0)
(0.30075943 0.00015745668 0)
(0.30032003 0.00014711824 0)
(0.29990994 0.00013746319 0)
(0.29952716 0.00012844529 0)
(0.29916984 0.00012002172 0)
(0.29883625 0.00011215256 0)
(0.29852479 0.00010480055 0)
(0.29823398 9.7930854e-05 0)
(0.29796242 9.1511118e-05 0)
(0.29770883 8.5511501e-05 0)
(0.29747201 7.9904551e-05 0)
(0.29725085 7.4664838e-05 0)
(0.2970443 6.9768559e-05 0)
(0.29685139 6.5193231e-05 0)
(0.29667121 6.0917734e-05 0)
(0.29650292 5.6922251e-05 0)
(0.29634573 5.3188353e-05 0)
(0.29619891 4.9698774e-05 0)
(0.29606177 4.6437447e-05 0)
(0.29593367 4.3389302e-05 0)
(0.29581401 4.0540308e-05 0)
(0.29570225 3.7877516e-05 0)
(0.29559785 3.5389055e-05 0)
(0.29550033 3.3063945e-05 0)
(0.29540923 3.0892024e-05 0)
(0.29532414 2.886325e-05 0)
(0.29524466 2.6968094e-05 0)
(0.29517041 2.5196995e-05 0)
(0.29510105 2.3541228e-05 0)
(0.29503625 2.1992893e-05 0)
(0.29497573 2.0545553e-05 0)
(0.2949192 1.919308e-05 0)
(0.29486639 1.7930291e-05 0)
(0.29481706 1.6751092e-05 0)
(0.29477098 1.5650648e-05 0)
(0.29472794 1.4621644e-05 0)
(0.29468772 1.3659994e-05 0)
(0.29465016 1.2759824e-05 0)
(0.29461508 1.192254e-05 0)
(0.29458231 1.114039e-05 0)
(0.29455169 1.0409007e-05 0)
(0.29452309 9.7149095e-06 0)
(0.29449636 9.0690915e-06 0)
(0.29447142 8.4676476e-06 0)
(0.29444812 7.9259817e-06 0)
(0.29442637 7.4129191e-06 0)
(0.294406 6.9355371e-06 0)
(0.29438698 6.4616967e-06 0)
(0.29436921 6.0361611e-06 0)
(0.29435262 5.6344687e-06 0)
(0.29433717 5.2935398e-06 0)
(0.29432251 4.9831072e-06 0)
(0.2943092 4.6986743e-06 0)
(0.2942957 4.5439878e-06 0)
(0.29428502 4.4079532e-06 0)
(0.29426874 5.0573246e-06 0)
(1.0016583 0.05381943 0)
(1.0359761 0.10128444 0)
(1.0597199 0.11073663 0)
(1.0628947 0.10592202 0)
(1.0515569 0.096228728 0)
(1.0340529 0.08393406 0)
(1.0142795 0.070327062 0)
(0.99360703 0.056981333 0)
(0.97292577 0.04510748 0)
(0.9531074 0.035236751 0)
(0.93479539 0.027401651 0)
(0.91829012 0.021387228 0)
(0.90362379 0.016884499 0)
(0.89068067 0.013569708 0)
(0.87928175 0.011147747 0)
(0.86923242 0.0093736573 0)
(0.86034424 0.0080569272 0)
(0.85244667 0.0070571273 0)
(0.84539242 0.0062752388 0)
(0.83905793 0.0056438292 0)
(0.83334127 0.0051180915 0)
(0.82815884 0.0046686724 0)
(0.82344213 0.004276417 0)
(0.81913467 0.0039287382 0)
(0.81518962 0.0036172028 0)
(0.81156765 0.0033359695 0)
(0.80823544 0.003080803 0)
(0.80516441 0.0028484681 0)
(0.8023298 0.0026363689 0)
(0.79971 0.0024423387 0)
(0.79728598 0.0022645195 0)
(0.79504087 0.0021012907 0)
(0.79295964 0.0019512258 0)
(0.79102881 0.0018130629 0)
(0.78923628 0.0016856829 0)
(0.78757111 0.0015680915 0)
(0.78602339 0.0014594049 0)
(0.78458413 0.0013588355 0)
(0.78324512 0.0012656806 0)
(0.7819989 0.0011793123 0)
(0.78083862 0.0010991676 0)
(0.779758 0.0010247414 0)
(0.77875129 0.00095557855 0)
(0.77781319 0.00089126788 0)
(0.77693882 0.00083143664 0)
(0.77612369 0.00077574622 0)
(0.77536364 0.00072388837 0)
(0.77465482 0.00067558175 0)
(0.77399369 0.00063056881 0)
(0.77337695 0.00058861292 0)
(0.77280155 0.00054949619 0)
(0.77226466 0.0005130176 0)
(0.77176365 0.00047899172 0)
(0.77129608 0.00044724764 0)
(0.77085968 0.00041762785 0)
(0.77045235 0.00038998695 0)
(0.77007213 0.00036419023 0)
(0.76971719 0.0003401124 0)
(0.76938582 0.00031763691 0)
(0.76907646 0.0002966552 0)
(0.76878762 0.00027706644 0)
(0.76851793 0.00025877669 0)
(0.76826611 0.00024169853 0)
(0.76803098 0.00022575039 0)
(0.76781141 0.00021085656 0)
(0.76760637 0.0001969467 0)
(0.7674149 0.00018395587 0)
(0.7672361 0.00017182361 0)
(0.76706911 0.00016049409 0)
(0.76691317 0.0001499141 0)
(0.76676753 0.000140034 0)
(0.76663152 0.00013080577 0)
(0.76650448 0.00012218551 0)
(0.76638584 0.00011413146 0)
(0.76627503 0.00010660779 0)
(0.76617154 9.9578913e-05 0)
(0.76607487 9.3015412e-05 0)
(0.7659846 8.6884026e-05 0)
(0.76590027 8.1160053e-05 0)
(0.76582152 7.5811291e-05 0)
(0.76574795 7.0819412e-05 0)
(0.76567926 6.6150745e-05 0)
(0.76561506 6.1797639e-05 0)
(0.76555514 5.7724263e-05 0)
(0.76549912 5.3928777e-05 0)
(0.76544686 5.0356769e-05 0)
(0.76539797 4.7035279e-05 0)
(0.76535241 4.3913526e-05 0)
(0.76530973 4.1056795e-05 0)
(0.76526999 3.8350026e-05 0)
(0.76523273 3.586957e-05 0)
(0.76519806 3.3449314e-05 0)
(0.7651656 3.1288387e-05 0)
(0.76513521 2.9163998e-05 0)
(0.76510715 2.7370107e-05 0)
(0.76508 2.5532043e-05 0)
(0.76505666 2.408263e-05 0)
(0.76503059 2.256671e-05 0)
(0.76501448 2.1607831e-05 0)
(0.76498347 2.0997927e-05 0)
(1.0014244 0.026824854 0)
(1.0291272 0.062791352 0)
(1.0654292 0.077736552 0)
(1.098962 0.080597199 0)
(1.1253149 0.07828517 0)
(1.145053 0.073153899 0)
(1.1594858 0.066111278 0)
(1.1694287 0.058162064 0)
(1.1755354 0.050296755 0)
(1.1785738 0.043150709 0)
(1.1793571 0.036972826 0)
(1.1785949 0.031771632 0)
(1.1768304 0.027451839 0)
(1.1744518 0.023886766 0)
(1.1717287 0.020947618 0)
(1.1688444 0.018515779 0)
(1.1659195 0.016488084 0)
(1.1630317 0.014779502 0)
(1.1602295 0.013322985 0)
(1.1575415 0.012067132 0)
(1.1549828 0.010973001 0)
(1.1525601 0.010011061 0)
(1.1502747 0.0091587465 0)
(1.1481246 0.0083986038 0)
(1.1461059 0.0077169499 0)
(1.1442134 0.0071028872 0)
(1.1424414 0.0065475909 0)
(1.1407838 0.0060437948 0)
(1.1392344 0.0055854262 0)
(1.1377869 0.0051673452 0)
(1.1364353 0.0047851578 0)
(1.1351738 0.0044350768 0)
(1.1339968 0.0041138168 0)
(1.1328987 0.0038185123 0)
(1.1318746 0.0035466521 0)
(1.1309195 0.0032960263 0)
(1.1300289 0.0030646827 0)
(1.1291985 0.0028508906 0)
(1.1284242 0.0026531105 0)
(1.1277023 0.0024699687 0)
(1.1270291 0.0023002355 0)
(1.1264014 0.0021428067 0)
(1.1258161 0.001996688 0)
(1.1252703 0.0018609807 0)
(1.1247612 0.0017348711 0)
(1.1242865 0.0016176207 0)
(1.1238437 0.0015085573 0)
(1.1234308 0.0014070679 0)
(1.1230455 0.0013125917 0)
(1.1226862 0.0012246147 0)
(1.1223509 0.0011426647 0)
(1.1220381 0.0010663077 0)
(1.1217463 0.00099514429 0)
(1.1214739 0.00092880678 0)
(1.1212198 0.00086695613 0)
(1.1209827 0.00080927907 0)
(1.1207614 0.00075548567 0)
(1.1205548 0.00070530732 0)
(1.1203621 0.00065849511 0)
(1.1201821 0.00061481812 0)
(1.1200142 0.00057406209 0)
(1.1198574 0.00053602782 0)
(1.1197111 0.00050053017 0)
(1.1195745 0.00046739678 0)
(1.1194469 0.00043646781 0)
(1.1193279 0.0004075947 0)
(1.1192167 0.00038064012 0)
(1.1191129 0.00035547591 0)
(1.119016 0.00033198318 0)
(1.1189255 0.00031004948 0)
(1.118841 0.0002895706 0)
(1.1187621 0.00027044705 0)
(1.1186885 0.00025258904 0)
(1.1186197 0.00023591053 0)
(1.1185554 0.00022033668 0)
(1.1184955 0.00020579157 0)
(1.1184394 0.00019221176 0)
(1.1183871 0.00017952594 0)
(1.1183383 0.00016768252 0)
(1.1182927 0.00015661451 0)
(1.11825 0.00014628888 0)
(1.1182103 0.00013663775 0)
(1.1181731 0.00012764236 0)
(1.1181384 0.00011921245 0)
(1.1181059 0.00011135629 0)
(1.1180758 0.00010397368 0)
(1.1180474 9.7142741e-05 0)
(1.1180211 9.0708446e-05 0)
(1.1179962 8.4805775e-05 0)
(1.1179734 7.914785e-05 0)
(1.1179517 7.4024794e-05 0)
(1.1179319 6.8988939e-05 0)
(1.1179128 6.463304e-05 0)
(1.1178955 6.0137737e-05 0)
(1.117879 5.6576606e-05 0)
(1.1178636 5.2437566e-05 0)
(1.1178501 4.9748497e-05 0)
(1.1178349 4.5809928e-05 0)
(1.1178261 4.4325151e-05 0)
(1.1178083 4.0581859e-05 0)
(1.0007347 0.011814721 0)
(1.0178472 0.030860926 0)
(1.0462163 0.041434441 0)
(1.0799018 0.045193569 0)
(1.1132664 0.045502351 0)
(1.143782 0.044080308 0)
(1.1708941 0.041439983 0)
(1.1945687 0.037973679 0)
(1.2148582 0.03419573 0)
(1.2319652 0.030536887 0)
(1.2462683 0.027222045 0)
(1.2582339 0.024313919 0)
(1.2683135 0.021797887 0)
(1.2768875 0.019633658 0)
(1.2842554 0.017773825 0)
(1.2906479 0.016169651 0)
(1.296243 0.01477559 0)
(1.3011791 0.013552297 0)
(1.3055645 0.012467863 0)
(1.3094838 0.011497465 0)
(1.3130042 0.010622161 0)
(1.3161792 0.0098275127 0)
(1.3190526 0.0091024105 0)
(1.3216607 0.0084381761 0)
(1.3240343 0.007827903 0)
(1.3261995 0.0072659736 0)
(1.3281786 0.0067477082 0)
(1.3299913 0.0062691169 0)
(1.3316544 0.0058267283 0)
(1.3331829 0.0054174743 0)
(1.3345896 0.0050386129 0)
(1.3358862 0.0046876736 0)
(1.3370827 0.0043624186 0)
(1.3381883 0.0040608133 0)
(1.3392108 0.0037810031 0)
(1.3401576 0.0035212944 0)
(1.3410349 0.0032801386 0)
(1.3418486 0.0030561181 0)
(1.3426038 0.0028479345 0)
(1.3433052 0.0026543977 0)
(1.3439569 0.0024744158 0)
(1.3445629 0.0023069859 0)
(1.3451267 0.0021511857 0)
(1.3456513 0.0020061667 0)
(1.3461398 0.0018711476 0)
(1.3465947 0.0017454088 0)
(1.3470185 0.0016282868 0)
(1.3474135 0.0015191687 0)
(1.3477816 0.0014174879 0)
(1.3481249 0.0013227202 0)
(1.3484449 0.0012343804 0)
(1.3487435 0.0011520195 0)
(1.349022 0.0010752221 0)
(1.3492818 0.0010036035 0)
(1.3495242 0.00093680694 0)
(1.3497505 0.00087450088 0)
(1.3499617 0.00081637733 0)
(1.3501588 0.0007621501 0)
(1.3503427 0.00071155364 0)
(1.3505145 0.00066434103 0)
(1.3506748 0.00062028264 0)
(1.3508245 0.0005791646 0)
(1.3509643 0.00054078792 0)
(1.3510949 0.00050496723 0)
(1.3512167 0.00047153052 0)
(1.3513306 0.00044031766 0)
(1.3514368 0.00041118047 0)
(1.3515361 0.00038398011 0)
(1.3516288 0.00035858747 0)
(1.3517154 0.00033488022 0)
(1.3517962 0.0003127455 0)
(1.3518717 0.00029207596 0)
(1.3519422 0.00027277572 0)
(1.3520081 0.00025475232 0)
(1.3520696 0.0002379255 0)
(1.3521271 0.00022221168 0)
(1.3521808 0.00020754201 0)
(1.3522309 0.00019383694 0)
(1.3522777 0.00018104224 0)
(1.3523215 0.00016908325 0)
(1.3523623 0.00015793179 0)
(1.3524005 0.00014751002 0)
(1.352436 0.00013780004 0)
(1.3524695 0.00012868326 0)
(1.3525004 0.00012019239 0)
(1.3525297 0.00011221392 0)
(1.3525565 0.00010487261 0)
(1.3525822 9.7925926e-05 0)
(1.3526054 9.156531e-05 0)
(1.3526281 8.5392325e-05 0)
(1.352648 7.9893291e-05 0)
(1.3526685 7.4405547e-05 0)
(1.352685 6.9808938e-05 0)
(1.3527036 6.4843265e-05 0)
(1.3527169 6.113174e-05 0)
(1.3527349 5.6446715e-05 0)
(1.3527448 5.3741103e-05 0)
(1.352763 4.9138137e-05 0)
(1.3527683 4.7704374e-05 0)
(1.3527888 4.2964615e-05 0)
(1.0005903 0.0034629159 0)
(1.0136865 0.0093660198 0)
(1.0370283 0.013046806 0)
(1.0674202 0.014563262 0)
(1.1000315 0.014854526 0)
(1.1316428 0.014564993 0)
(1.1610745 0.01388834 0)
(1.1880674 0.012919247 0)
(1.2125205 0.011806507 0)
(1.2343939 0.010696427 0)
(1.2538077 0.009672741 0)
(1.2710339 0.0087628203 0)
(1.286401 0.0079659717 0)
(1.3002112 0.007272213 0)
(1.3127102 0.0066688076 0)
(1.3240903 0.0061419249 0)
(1.3345036 0.005678072 0)
(1.3440716 0.0052653206 0)
(1.3528927 0.0048939345 0)
(1.3610463 0.004556395 0)
(1.3685975 0.0042470689 0)
(1.3756004 0.0039617751 0)
(1.3821012 0.0036973968 0)
(1.3881402 0.0034515816 0)
(1.3937533 0.0032225177 0)
(1.3989728 0.0030087693 0)
(1.403828 0.002809158 0)
(1.4083456 0.0026226798 0)
(1.4125503 0.0024484505 0)
(1.4164646 0.0022856712 0)
(1.4201095 0.0021336073 0)
(1.423504 0.0019915752 0)
(1.4266661 0.0018589349 0)
(1.4296121 0.0017350846 0)
(1.4323573 0.0016194579 0)
(1.4349159 0.0015115215 0)
(1.4373007 0.0014107737 0)
(1.4395241 0.0013167429 0)
(1.441597 0.0012289868 0)
(1.4435301 0.0011470907 0)
(1.4453329 0.0010706664 0)
(1.4470143 0.00099934973 0)
(1.4485827 0.00093280019 0)
(1.4500459 0.00087069932 0)
(1.451411 0.00081274986 0)
(1.4526847 0.0007586743 0)
(1.4538731 0.00070821335 0)
(1.4549822 0.00066112464 0)
(1.4560172 0.00061718164 0)
(1.4569831 0.00057617282 0)
(1.4578847 0.00053790091 0)
(1.4587262 0.00050218238 0)
(1.4595117 0.00046884631 0)
(1.460245 0.00043773353 0)
(1.4609295 0.00040869517 0)
(1.4615685 0.00038159196 0)
(1.4621651 0.00035629385 0)
(1.4627222 0.00033267977 0)
(1.4632422 0.00031063696 0)
(1.4637278 0.00029006028 0)
(1.4641812 0.00027085162 0)
(1.4646045 0.0002529193 0)
(1.4649998 0.00023617791 0)
(1.4653689 0.00022054783 0)
(1.4657136 0.00020595524 0)
(1.4660355 0.00019233133 0)
(1.4663361 0.00017961217 0)
(1.4666168 0.00016773734 0)
(1.466879 0.00015665043 0)
(1.4671238 0.00014629761 0)
(1.4673524 0.00013662967 0)
(1.467566 0.00012760029 0)
(1.4677654 0.00011916876 0)
(1.4679516 0.00011129541 0)
(1.4681256 0.0001039458 0)
(1.4682881 9.7082367e-05 0)
(1.4684398 9.0674553e-05 0)
(1.4685815 8.4686521e-05 0)
(1.4687138 7.9095535e-05 0)
(1.4688375 7.3870046e-05 0)
(1.4689529 6.9001238e-05 0)
(1.4690608 6.4451084e-05 0)
(1.4691614 6.0207171e-05 0)
(1.4692557 5.6212322e-05 0)
(1.4693433 5.2497957e-05 0)
(1.4694257 4.9016226e-05 0)
(1.469502 4.5829483e-05 0)
(1.4695743 4.2796815e-05 0)
(1.4696402 4.001412e-05 0)
(1.4697037 3.7289805e-05 0)
(1.4697606 3.4894026e-05 0)
(1.4698174 3.2487721e-05 0)
(1.4698655 3.0513324e-05 0)
(1.4699166 2.8322399e-05 0)
(1.4699558 2.6728995e-05 0)
(1.4700044 2.4636137e-05 0)
(1.4700343 2.3485597e-05 0)
(1.4700834 2.1417459e-05 0)
(1.4701 2.081384e-05 0)
(1.4701556 1.8657546e-05 0)
(1.0005903 -0.0034629156 0)
(1.0136865 -0.0093660189 0)
(1.0370283 -0.013046804 0)
(1.0674202 -0.014563259 0)
(1.1000315 -0.014854522 0)
(1.1316428 -0.014564988 0)
(1.1610745 -0.013888336 0)
(1.1880674 -0.012919244 0)
(1.2125205 -0.011806506 0)
(1.2343939 -0.010696428 0)
(1.2538077 -0.0096727435 0)
(1.2710339 -0.0087628238 0)
(1.286401 -0.0079659752 0)
(1.3002112 -0.0072722157 0)
(1.3127102 -0.0066688091 0)
(1.3240903 -0.0061419255 0)
(1.3345036 -0.0056780725 0)
(1.3440716 -0.0052653215 0)
(1.3528927 -0.0048939357 0)
(1.3610463 -0.0045563965 0)
(1.3685975 -0.0042470705 0)
(1.3756004 -0.0039617768 0)
(1.3821012 -0.0036973987 0)
(1.3881402 -0.0034515836 0)
(1.3937533 -0.0032225191 0)
(1.3989728 -0.0030087697 0)
(1.403828 -0.0028091571 0)
(1.4083456 -0.0026226781 0)
(1.4125503 -0.0024484489 0)
(1.4164646 -0.0022856705 0)
(1.4201095 -0.0021336079 0)
(1.423504 -0.001991577 0)
(1.4266661 -0.0018589372 0)
(1.4296121 -0.0017350865 0)
(1.4323573 -0.0016194589 0)
(1.4349159 -0.0015115214 0)
(1.4373007 -0.0014107728 0)
(1.4395241 -0.0013167418 0)
(1.441597 -0.001228986 0)
(1.4435301 -0.0011470903 0)
(1.4453329 -0.0010706662 0)
(1.4470143 -0.00099934988 0)
(1.4485827 -0.00093280097 0)
(1.4500459 -0.0008707009 0)
(1.451411 -0.00081275189 0)
(1.4526847 -0.00075867594 0)
(1.4538731 -0.00070821378 0)
(1.4549822 -0.00066112356 0)
(1.4560172 -0.00061717952 0)
(1.4569831 -0.00057617077 0)
(1.4578847 -0.00053790014 0)
(1.4587262 -0.00050218337 0)
(1.4595117 -0.00046884871 0)
(1.460245 -0.00043773625 0)
(1.4609295 -0.00040869724 0)
(1.4615685 -0.00038159293 0)
(1.4621651 -0.00035629382 0)
(1.4627222 -0.00033267889 0)
(1.4632422 -0.00031063552 0)
(1.4637278 -0.00029005857 0)
(1.4641812 -0.00027085006 0)
(1.4646045 -0.0002529185 0)
(1.4649998 -0.00023617847 0)
(1.4653689 -0.00022054996 0)
(1.4657136 -0.00020595835 0)
(1.4660355 -0.0001923341 0)
(1.4663361 -0.00017961308 0)
(1.4666168 -0.00016773559 0)
(1.466879 -0.00015664644 0)
(1.4671238 -0.00014629324 0)
(1.4673524 -0.00013662721 0)
(1.467566 -0.000127601 0)
(1.4677654 -0.00011917192 0)
(1.4679516 -0.00011129877 0)
(1.4681256 -0.00010394704 0)
(1.4682881 -9.7081049e-05 0)
(1.4684398 -9.0672368e-05 0)
(1.4685815 -8.468579e-05 0)
(1.4687138 -7.9097136e-05 0)
(1.4688375 -7.3869998e-05 0)
(1.4689529 -6.8994293e-05 0)
(1.4690608 -6.4438968e-05 0)
(1.4691614 -6.0205158e-05 0)
(1.4692557 -5.6231885e-05 0)
(1.4693433 -5.2526428e-05 0)
(1.4694257 -4.902444e-05 0)
(1.469502 -4.5804663e-05 0)
(1.4695742 -4.2762399e-05 0)
(1.4696402 -4.0006234e-05 0)
(1.4697037 -3.7315993e-05 0)
(1.4697607 -3.4928608e-05 0)
(1.4698174 -3.250218e-05 0)
(1.4698654 -3.0500706e-05 0)
(1.4699165 -2.8298791e-05 0)
(1.4699559 -2.6712154e-05 0)
(1.4700045 -2.4633579e-05 0)
(1.4700343 -2.3492305e-05 0)
(1.4700833 -2.1425784e-05 0)
(1.4701 -2.0816803e-05 0)
(1.4701556 -1.8657419e-05 0)
(1.0007347 -0.011814721 0)
(1.0178472 -0.030860925 0)
(1.0462163 -0.041434439 0)
(1.0799018 -0.045193567 0)
(1.1132664 -0.045502348 0)
(1.143782 -0.044080306 0)
(1.1708941 -0.041439981 0)
(1.1945687 -0.037973678 0)
(1.2148582 -0.03419573 0)
(1.2319652 -0.030536888 0)
(1.2462683 -0.027222046 0)
(1.2582339 -0.024313921 0)
(1.2683135 -0.021797889 0)
(1.2768875 -0.01963366 0)
(1.2842554 -0.017773826 0)
(1.2906479 -0.016169652 0)
(1.296243 -0.01477559 0)
(1.3011791 -0.013552298 0)
(1.3055645 -0.012467864 0)
(1.3094838 -0.011497466 0)
(1.3130042 -0.010622162 0)
(1.3161792 -0.0098275138 0)
(1.3190526 -0.0091024117 0)
(1.3216607 -0.0084381771 0)
(1.3240343 -0.0078279036 0)
(1.3261995 -0.0072659736 0)
(1.3281786 -0.0067477077 0)
(1.3299913 -0.0062691162 0)
(1.3316544 -0.0058267276 0)
(1.3331829 -0.005417474 0)
(1.3345896 -0.0050386131 0)
(1.3358862 -0.0046876742 0)
(1.3370827 -0.0043624194 0)
(1.3381883 -0.0040608141 0)
(1.3392108 -0.0037810036 0)
(1.3401576 -0.0035212946 0)
(1.3410349 -0.0032801384 0)
(1.3418486 -0.0030561177 0)
(1.3426038 -0.002847934 0)
(1.3433052 -0.0026543973 0)
(1.3439569 -0.0024744157 0)
(1.3445629 -0.0023069862 0)
(1.3451267 -0.0021511864 0)
(1.3456513 -0.0020061677 0)
(1.3461398 -0.0018711487 0)
(1.3465947 -0.0017454097 0)
(1.3470185 -0.0016282872 0)
(1.3474135 -0.0015191685 0)
(1.3477816 -0.0014174874 0)
(1.3481249 -0.0013227197 0)
(1.348445 -0.0012343804 0)
(1.3487435 -0.00115202 0)
(1.349022 -0.001075223 0)
(1.3492818 -0.0010036045 0)
(1.3495242 -0.00093680784 0)
(1.3497505 -0.00087450147 0)
(1.3499617 -0.00081637743 0)
(1.3501588 -0.00076214977 0)
(1.3503427 -0.00071155291 0)
(1.3505145 -0.00066434009 0)
(1.3506748 -0.00062028181 0)
(1.3508245 -0.00057916421 0)
(1.3509643 -0.0005407882 0)
(1.3510949 -0.00050496812 0)
(1.3512167 -0.00047153166 0)
(1.3513305 -0.00044031854 0)
(1.3514368 -0.00041118065 0)
(1.3515361 -0.00038397941 0)
(1.3516288 -0.00035858627 0)
(1.3517154 -0.00033487907 0)
(1.3517962 -0.00031274493 0)
(1.3518717 -0.0002920761 0)
(1.3519422 -0.00027277618 0)
(1.3520081 -0.00025475246 0)
(1.3520696 -0.00023792522 0)
(1.3521271 -0.00022221126 0)
(1.3521808 -0.00020754196 0)
(1.3522309 -0.00019383721 0)
(1.3522777 -0.0001810416 0)
(1.3523215 -0.00016908079 0)
(1.3523623 -0.00015792868 0)
(1.3524005 -0.00014751006 0)
(1.3524361 -0.00013780492 0)
(1.3524695 -0.00012869106 0)
(1.3525004 -0.00012019766 0)
(1.3525297 -0.00011221167 0)
(1.3525566 -0.00010486535 0)
(1.3525823 -9.7922009e-05 0)
(1.3526054 -9.1570582e-05 0)
(1.3526281 -8.5404505e-05 0)
(1.352648 -7.9902749e-05 0)
(1.3526684 -7.4405216e-05 0)
(1.352685 -6.9802169e-05 0)
(1.3527037 -6.4836782e-05 0)
(1.352717 -6.113032e-05 0)
(1.3527349 -5.6448446e-05 0)
(1.3527447 -5.374241e-05 0)
(1.3527628 -4.9138035e-05 0)
(1.3527683 -4.7702269e-05 0)
(1.3527888 -4.2961897e-05 0)
(1.0014244 -0.026824854 0)
(1.0291272 -0.062791351 0)
(1.0654292 -0.077736551 0)
(1.098962 -0.080597198 0)
(1.1253149 -0.07828517 0)
(1.145053 -0.073153899 0)
(1.1594858 -0.066111278 0)
(1.1694287 -0.058162064 0)
(1.1755354 -0.050296755 0)
(1.1785738 -0.043150709 0)
(1.1793571 -0.036972826 0)
(1.1785949 -0.031771632 0)
(1.1768304 -0.027451839 0)
(1.1744518 -0.023886768 0)
(1.1717287 -0.02094762 0)
(1.1688444 -0.018515781 0)
(1.1659195 -0.016488085 0)
(1.1630317 -0.014779503 0)
(1.1602295 -0.013322985 0)
(1.1575415 -0.012067133 0)
(1.1549828 -0.010973001 0)
(1.1525601 -0.010011062 0)
(1.1502747 -0.0091587467 0)
(1.1481246 -0.0083986037 0)
(1.1461059 -0.0077169497 0)
(1.1442134 -0.0071028873 0)
(1.1424414 -0.0065475914 0)
(1.1407838 -0.0060437955 0)
(1.1392344 -0.0055854266 0)
(1.1377869 -0.0051673452 0)
(1.1364353 -0.0047851573 0)
(1.1351738 -0.0044350759 0)
(1.1339968 -0.0041138159 0)
(1.1328987 -0.0038185118 0)
(1.1318746 -0.0035466522 0)
(1.1309195 -0.003296027 0)
(1.1300289 -0.0030646835 0)
(1.1291985 -0.0028508912 0)
(1.1284242 -0.0026531107 0)
(1.1277023 -0.0024699686 0)
(1.1270291 -0.0023002354 0)
(1.1264014 -0.0021428068 0)
(1.1258161 -0.0019966881 0)
(1.1252703 -0.0018609805 0)
(1.1247612 -0.0017348709 0)
(1.1242865 -0.0016176206 0)
(1.1238437 -0.0015085578 0)
(1.1234308 -0.001407069 0)
(1.1230455 -0.0013125932 0)
(1.1226862 -0.001224616 0)
(1.1223509 -0.0011426652 0)
(1.1220381 -0.0010663072 0)
(1.1217462 -0.00099514322 0)
(1.1214739 -0.00092880582 0)
(1.1212198 -0.00086695575 0)
(1.1209827 -0.0008092793 0)
(1.1207614 -0.00075548623 0)
(1.1205548 -0.00070530793 0)
(1.1203621 -0.00065849563 0)
(1.1201821 -0.00061481853 0)
(1.1200142 -0.00057406238 0)
(1.1198574 -0.00053602784 0)
(1.1197111 -0.0005005297 0)
(1.1195745 -0.00046739569 0)
(1.1194469 -0.00043646635 0)
(1.1193279 -0.00040759349 0)
(1.1192167 -0.00038063993 0)
(1.1191129 -0.00035547714 0)
(1.119016 -0.00033198556 0)
(1.1189255 -0.00031005185 0)
(1.118841 -0.00028957154 0)
(1.1187621 -0.00027044577 0)
(1.1186885 -0.00025258611 0)
(1.1186197 -0.00023590763 0)
(1.1185554 -0.00022033557 0)
(1.1184955 -0.00020579264 0)
(1.1184394 -0.00019221364 0)
(1.1183871 -0.00017952613 0)
(1.1183383 -0.00016767968 0)
(1.1182927 -0.0001566121 0)
(1.11825 -0.00014629329 0)
(1.1182103 -0.00013664941 0)
(1.1181731 -0.00012764884 0)
(1.1181384 -0.00011920096 0)
(1.1181059 -0.00011133434 0)
(1.1180758 -0.00010396731 0)
(1.1180474 -9.7165891e-05 0)
(1.1180211 -9.0741549e-05 0)
(1.1179962 -8.4815891e-05 0)
(1.1179734 -7.9127804e-05 0)
(1.1179517 -7.3998729e-05 0)
(1.1179319 -6.8981943e-05 0)
(1.1179128 -6.4646277e-05 0)
(1.1178955 -6.0154197e-05 0)
(1.117879 -5.6583153e-05 0)
(1.1178636 -5.2434087e-05 0)
(1.1178501 -4.9741248e-05 0)
(1.1178349 -4.5803948e-05 0)
(1.1178262 -4.4320221e-05 0)
(1.1178083 -4.0577636e-05 0)
(1.0016583 -0.05381943 0)
(1.0359761 -0.10128443 0)
(1.0597199 -0.11073663 0)
(1.0628947 -0.10592202 0)
(1.0515569 -0.096228728 0)
(1.0340529 -0.083934061 0)
(1.0142795 -0.070327063 0)
(0.99360703 -0.056981334 0)
(0.97292577 -0.045107479 0)
(0.9531074 -0.03523675 0)
(0.93479538 -0.02740165 0)
(0.91829012 -0.021387227 0)
(0.90362379 -0.016884498 0)
(0.89068067 -0.013569709 0)
(0.87928174 -0.011147749 0)
(0.86923242 -0.0093736593 0)
(0.86034423 -0.0080569287 0)
(0.85244667 -0.0070571278 0)
(0.84539242 -0.0062752385 0)
(0.83905793 -0.0056438285 0)
(0.83334127 -0.0051180907 0)
(0.82815884 -0.0046686717 0)
(0.82344212 -0.0042764163 0)
(0.81913467 -0.0039287376 0)
(0.81518962 -0.0036172025 0)
(0.81156766 -0.00333597 0)
(0.80823544 -0.0030808042 0)
(0.80516441 -0.0028484696 0)
(0.8023298 -0.0026363698 0)
(0.79971 -0.0024423386 0)
(0.79728598 -0.0022645182 0)
(0.79504087 -0.0021012887 0)
(0.79295964 -0.0019512239 0)
(0.79102881 -0.0018130618 0)
(0.78923628 -0.001685683 0)
(0.78757111 -0.0015680927 0)
(0.78602339 -0.0014594065 0)
(0.78458413 -0.0013588367 0)
(0.78324512 -0.0012656812 0)
(0.7819989 -0.0011793122 0)
(0.78083862 -0.0010991673 0)
(0.779758 -0.001024741 0)
(0.77875129 -0.00095557783 0)
(0.77781319 -0.0008912668 0)
(0.77693882 -0.00083143559 0)
(0.77612369 -0.0007757459 0)
(0.77536364 -0.00072388932 0)
(0.77465482 -0.00067558395 0)
(0.77399369 -0.00063057149 0)
(0.77337695 -0.0005886149 0)
(0.77280155 -0.00054949648 0)
(0.77226465 -0.00051301605 0)
(0.77176364 -0.00047898918 0)
(0.77129608 -0.00044724537 0)
(0.77085968 -0.00041762675 0)
(0.77045236 -0.00038998718 0)
(0.77007213 -0.00036419139 0)
(0.76971719 -0.00034011401 0)
(0.76938582 -0.00031763855 0)
(0.76907646 -0.00029665657 0)
(0.76878762 -0.00027706718 0)
(0.76851793 -0.00025877642 0)
(0.76826611 -0.00024169696 0)
(0.76803097 -0.0002257477 0)
(0.76781141 -0.00021085361 0)
(0.76760637 -0.00019694482 0)
(0.7674149 -0.00018395635 0)
(0.7672361 -0.00017182679 0)
(0.76706911 -0.00016049877 0)
(0.76691317 -0.00014991802 0)
(0.76676753 -0.00014003488 0)
(0.76663151 -0.00013080285 0)
(0.76650448 -0.00012218049 0)
(0.76638584 -0.00011412729 0)
(0.76627503 -0.00010660673 0)
(0.76617154 -9.9580794e-05 0)
(0.76607487 -9.3017809e-05 0)
(0.7659846 -8.6884031e-05 0)
(0.76590027 -8.115818e-05 0)
(0.76582153 -7.5812761e-05 0)
(0.76574795 -7.0829108e-05 0)
(0.76567924 -6.6163014e-05 0)
(0.76561504 -6.1796055e-05 0)
(0.76555513 -5.7700016e-05 0)
(0.76549914 -5.3901829e-05 0)
(0.76544689 -5.0359653e-05 0)
(0.76539798 -4.7074043e-05 0)
(0.76535238 -4.3953918e-05 0)
(0.76530969 -4.1059656e-05 0)
(0.76526998 -3.8314378e-05 0)
(0.76523276 -3.5832254e-05 0)
(0.76519808 -3.3442153e-05 0)
(0.76516559 -3.1310056e-05 0)
(0.76513519 -2.9190341e-05 0)
(0.76510714 -2.7381696e-05 0)
(0.76508 -2.5527026e-05 0)
(0.76505667 -2.4070265e-05 0)
(0.7650306 -2.2555827e-05 0)
(0.76501447 -2.1600495e-05 0)
(0.76498348 -2.0994079e-05 0)
(0.91890839 -0.035821912 0)
(0.86271384 -0.062195638 0)
(0.7870597 -0.06251009 0)
(0.69536033 -0.054550395 0)
(0.61089745 -0.044531651 0)
(0.54411592 -0.034015972 0)
(0.49343012 -0.024187539 0)
(0.45479413 -0.016144229 0)
(0.42544582 -0.010265785 0)
(0.40347313 -0.0063041452 0)
(0.38715767 -0.0037976294 0)
(0.3749622 -0.0023103381 0)
(0.36566193 -0.0014930148 0)
(0.35836272 -0.0010851183 0)
(0.35244268 -0.00090607248 0)
(0.34748201 -0.00084105192 0)
(0.34320348 -0.00082372425 0)
(0.33942726 -0.00081931043 0)
(0.33603793 -0.00081185199 0)
(0.33296114 -0.00079580123 0)
(0.33014778 -0.00077081138 0)
(0.32756384 -0.00073870921 0)
(0.3251842 -0.00070188887 0)
(0.32298902 -0.00066256525 0)
(0.32096172 -0.00062249942 0)
(0.31908785 -0.00058295765 0)
(0.31735449 -0.000544772 0)
(0.31574996 -0.00050843454 0)
(0.31426361 -0.00047419174 0)
(0.31288575 -0.00044212443 0)
(0.31160756 -0.000412209 0)
(0.31042102 -0.00038436101 0)
(0.30931884 -0.00035846436 0)
(0.30829439 -0.0003343899 0)
(0.30734166 -0.00031200655 0)
(0.30645516 -0.00029118771 0)
(0.30562992 -0.0002718145 0)
(0.30486137 -0.00025377707 0)
(0.30414536 -0.00023697471 0)
(0.30347807 -0.00022131529 0)
(0.30285601 -0.00020671454 0)
(0.30227597 -0.00019309553 0)
(0.30173497 -0.00018038806 0)
(0.3012303 -0.00016852798 0)
(0.30075943 -0.00015745629 0)
(0.30032003 -0.00014711852 0)
(0.29990994 -0.00013746424 0)
(0.29952716 -0.00012844679 0)
(0.29916984 -0.00012002301 0)
(0.29883625 -0.00011215301 0)
(0.29852479 -0.00010479987 0)
(0.29823397 -9.792937e-05 0)
(0.29796242 -9.1509576e-05 0)
(0.29770883 -8.5510596e-05 0)
(0.29747202 -7.990452e-05 0)
(0.29725085 -7.4665483e-05 0)
(0.2970443 -6.9769516e-05 0)
(0.29685139 -6.5194241e-05 0)
(0.29667121 -6.0918598e-05 0)
(0.29650292 -5.6922787e-05 0)
(0.29634573 -5.318833e-05 0)
(0.29619891 -4.9698053e-05 0)
(0.29606177 -4.6436051e-05 0)
(0.29593367 -4.3387591e-05 0)
(0.29581402 -4.0538993e-05 0)
(0.29570225 -3.7877367e-05 0)
(0.29559785 -3.5390473e-05 0)
(0.29550033 -3.306653e-05 0)
(0.29540923 -3.0894552e-05 0)
(0.29532414 -2.8864366e-05 0)
(0.29524465 -2.6967019e-05 0)
(0.2951704 -2.5194232e-05 0)
(0.29510105 -2.3538475e-05 0)
(0.29503626 -2.1991713e-05 0)
(0.29497573 -2.0546383e-05 0)
(0.2949192 -1.9194709e-05 0)
(0.29486639 -1.7931132e-05 0)
(0.29481707 -1.6750449e-05 0)
(0.29477099 -1.5650468e-05 0)
(0.29472793 -1.4624999e-05 0)
(0.29468771 -1.3666644e-05 0)
(0.29465015 -1.2762576e-05 0)
(0.29461508 -1.191336e-05 0)
(0.29458233 -1.112306e-05 0)
(0.29455171 -1.0402293e-05 0)
(0.29452309 -9.7309091e-06 0)
(0.29449633 -9.0956105e-06 0)
(0.2944714 -8.478365e-06 0)
(0.29444812 -7.9105796e-06 0)
(0.29442639 -7.3873604e-06 0)
(0.29440601 -6.9236989e-06 0)
(0.29438698 -6.4704626e-06 0)
(0.29436921 -6.0537095e-06 0)
(0.29435262 -5.6459207e-06 0)
(0.29433717 -5.2935671e-06 0)
(0.29432251 -4.9755569e-06 0)
(0.2943092 -4.6904247e-06 0)
(0.2942957 -4.5392092e-06 0)
(0.29428502 -4.4064321e-06 0)
(0.29426874 -5.0571427e-06 0)
)
;

boundaryField
{
    top
    {
        type            fixedValue;
        value           uniform (0 0 0);
    }
    inlet
    {
        type            fixedValue;
        value           uniform (1 0 0);
    }
    outlet
    {
        type            zeroGradient;
    }
    bottom
    {
        type            fixedValue;
        value           uniform (0 0 0);
    }
    back
    {
        type            empty;
    }
    front
    {
        type            empty;
    }
}


// ************************************************************************* //
