/*--------------------------------*- C++ -*----------------------------------*\
  =========                 |
  \\      /  F ield         | OpenFOAM: The Open Source CFD Toolbox
   \\    /   O peration     | Website:  https://openfoam.org
    \\  /    A nd           | Version:  9
     \\/     M anipulation  |
\*---------------------------------------------------------------------------*/
FoamFile
{
    format      ascii;
    class       volScalarField;
    location    "0.82";
    object      p;
}
// * * * * * * * * * * * * * * * * * * * * * * * * * * * * * * * * * * * * * //

dimensions      [1 -1 -2 0 0 0 0];

internalField   nonuniform List<scalar> 
10000
(
0
-0.01503622
-0.032867088
-0.05531338
-0.083187029
-0.11551407
-0.15239166
-0.19355801
-0.23875854
-0.28761706
-0.33985478
-0.39498791
-0.45253928
-0.51206981
-0.57294231
-0.63462636
-0.69696105
-0.75865937
-0.81856804
-0.87605704
-0.93016611
-0.97984286
-1.0239495
-1.0612678
-1.0907768
-1.1116533
-1.1231704
-1.1246496
-1.1156099
-1.0958749
-1.0655514
-1.0250805
-0.97539126
-0.91788609
-0.85422351
-0.786336
-0.71644394
-0.64690121
-0.57990409
-0.51721326
-0.45989534
-0.40799816
-0.36018503
-0.31336977
-0.26143925
-0.19250859
-0.093236714
0.039057093
0.20396901
0.39403884
0.5991202
0.81171715
0.94170132
0.90304675
0.6086319
0.069376436
-0.53486661
-1.0410576
-1.4119878
-1.6603844
-1.7752967
-1.8009686
-1.7703439
-1.7397253
-1.7347761
-1.7583597
-1.8072181
-1.8789714
-1.9708912
-2.0794662
-2.2014376
-2.3338258
-2.473777
-2.6187372
-2.766421
-2.9147559
-3.0618639
-3.2061263
-3.3461514
-3.4807606
-3.6089801
-3.7300651
-3.8434192
-3.948616
-4.0457894
-4.134932
-4.2158786
-4.2885503
-4.353005
-4.4096305
-4.4586695
-4.4996815
-4.5314067
-4.5538005
-4.5698372
-4.5816076
-4.5890474
-4.5923726
-4.591529
-4.5815577
0.014146768
-0.0008764217
-0.018799421
-0.041574868
-0.06983251
-0.10261702
-0.14002531
-0.18184667
-0.22771591
-0.27742527
-0.33055308
-0.38663584
-0.44532717
-0.50603156
-0.56817506
-0.63129734
-0.69498002
-0.75835224
-0.8198691
-0.87892653
-0.93451477
-0.98564369
-1.0312102
-1.0700289
-1.10107
-1.123419
-1.1361747
-1.138569
-1.1301092
-1.1105587
-1.0799594
-1.0387725
-0.98794193
-0.92882995
-0.86319794
-0.79324037
-0.7214975
-0.65064685
-0.58325946
-0.5215603
-0.46711984
-0.42042046
-0.38038307
-0.34406253
-0.306065
-0.25508291
-0.17409475
-0.042429093
0.11308701
0.26297154
0.43902606
0.63243846
0.8174677
0.85984214
0.57964613
-0.13608912
-0.88846672
-1.3584602
-1.7674403
-2.0021737
-2.0948092
-2.0570392
-1.9759593
-1.9222614
-1.9026008
-1.9094701
-1.9407421
-1.9952959
-2.0709256
-2.164911
-2.2743567
-2.3961503
-2.527205
-2.6646864
-2.8060507
-2.9490237
-3.0915299
-3.231803
-3.3683941
-3.5000695
-3.6257719
-3.7446415
-3.8560851
-3.9597137
-4.0553091
-4.1428047
-4.2221264
-4.2933044
-4.3563701
-4.4112523
-4.4578432
-4.4960545
-4.5279054
-4.552427
-4.5707162
-4.5836176
-4.5916551
-4.5952914
-4.5945864
-4.584491
0.035045466
0.019847067
0.0015502921
-0.021722713
-0.050499091
-0.083953325
-0.12218546
-0.16487024
-0.21183508
-0.26273872
-0.31715454
-0.37478554
-0.43511094
-0.49759669
-0.56177874
-0.62700635
-0.69266838
-0.75885215
-0.82284415
-0.88445607
-0.94269978
-0.9965247
-1.0447424
-1.0861914
-1.1197941
-1.1444548
-1.159119
-1.1629319
-1.1552591
-1.1356862
-1.1041519
-1.0610744
-1.0073499
-0.94435961
-0.87405991
-0.79898967
-0.72212871
-0.64670527
-0.5760009
-0.51306452
-0.46036442
-0.41933384
-0.38982131
-0.36998507
-0.35672073
-0.33985084
-0.28742293
-0.1730203
-0.024972789
0.043982363
0.16840405
0.23229134
0.52130279
0.58992802
0.32234836
0.0091725294
-0.23518078
-1.1864741
-2.2118274
-2.3990691
-2.4837141
-2.3319755
-2.1610197
-2.0664256
-2.0320137
-2.0274739
-2.0454579
-2.0867191
-2.1502772
-2.2339069
-2.3348402
-2.4496349
-2.5748654
-2.7074538
-2.84466
-2.9840509
-3.1233979
-3.2608754
-3.3949631
-3.5242749
-3.6478298
-3.7647901
-3.8745251
-3.9766413
-4.0708668
-4.157098
-4.2352216
-4.3052506
-4.3672415
-4.4212874
-4.4676759
-4.5072584
-4.538807
-4.5634624
-4.5819672
-4.5949358
-4.6028586
-4.6063486
-4.6055448
-4.5952031
0.059363232
0.043907483
0.025191706
0.00137024
-0.028015733
-0.0622975
-0.10142564
-0.14524883
-0.19350304
-0.24582198
-0.30194969
-0.36145548
-0.42384644
-0.48870208
-0.55546309
-0.62343798
-0.69202237
-0.76120616
-0.82880281
-0.89404525
-0.95605212
-1.0136703
-1.0656887
-1.1109247
-1.1481411
-1.1760543
-1.1934754
-1.199369
-1.1928503
-1.1732921
-1.1404812
-1.0946878
-1.036705
-0.96796469
-0.89066638
-0.80776373
-0.72283195
-0.63992192
-0.56333794
-0.49730632
-0.44564079
-0.4113874
-0.39599557
-0.39919891
-0.42462899
-0.47810331
-0.50210277
-0.37449275
-0.075398013
-0.074614356
0.19079735
0.57324736
0.87351892
0.79197519
0.087930005
-0.90870786
-1.5562369
-2.249357
-2.4689895
-2.4049764
-3.0321861
-2.8285373
-2.4111072
-2.2396286
-2.1844537
-2.1622564
-2.1586333
-2.1786598
-2.2244749
-2.29563
-2.3882826
-2.4974596
-2.6188183
-2.7486578
-2.8838168
-3.0216652
-3.1595178
-3.2956186
-3.4282282
-3.5561487
-3.6783337
-3.7939624
-3.9023945
-4.003245
-4.0962297
-4.181214
-4.2581099
-4.3269467
-4.3878474
-4.440988
-4.4865901
-4.5247002
-4.5556811
-4.580051
-4.5983729
-4.6111425
-4.6187764
-4.6218702
-4.6207206
-4.6099245
0.089573904
0.073863876
0.054650085
0.030167612
-5.0795583e-05
-0.035265793
-0.075597711
-0.12082301
-0.1706276
-0.22481524
-0.28304192
-0.34485956
-0.40991428
-0.4777226
-0.5476777
-0.6191773
-0.6915934
-0.76426711
-0.83672464
-0.90673463
-0.97365448
-1.0362818
-1.0934025
-1.1437075
-1.1857632
-1.2181226
-1.2394001
-1.2482619
-1.2435074
-1.224237
-1.1899539
-1.1406425
-1.0769352
-1.0003166
-0.91323855
-0.81913636
-0.72236944
-0.62809004
-0.54197228
-0.46980031
-0.41719237
-0.38948861
-0.39046354
-0.42180952
-0.50013203
-0.67659428
-0.88211845
-0.61788716
-0.016636307
0.19523016
0.13815576
-0.74848303
-0.90732362
-1.1199246
-1.6413382
-1.9802414
-2.3563006
-4.4078007
-4.4027758
-4.0945816
-4.696028
-3.7755661
-2.9791757
-2.5692581
-2.4105287
-2.3350551
-2.2949633
-2.2876043
-2.3102199
-2.3654191
-2.4484637
-2.5518173
-2.6695596
-2.7970643
-2.9306186
-3.0678382
-3.2046396
-3.339533
-3.4710302
-3.5977714
-3.7186882
-3.8329906
-3.9400394
-4.0394453
-4.1309344
-4.2143738
-4.2897081
-4.356991
-4.4163819
-4.4680748
-4.5122918
-4.5492732
-4.5793508
-4.6029795
-4.6206558
-4.6328243
-4.639884
-4.6423939
-4.6406818
-4.6292644
0.12548342
0.10940079
0.089636529
0.064389247
0.033287294
-0.0031036255
-0.044836152
-0.091636927
-0.14335383
-0.19972542
-0.26037501
-0.32500379
-0.3932227
-0.46449886
-0.53830506
-0.61408451
-0.69107655
-0.76851361
-0.84604214
-0.92239768
-0.99544326
-1.064389
-1.1279917
-1.1847656
-1.2331035
-1.271362
-1.2978451
-1.3108402
-1.3087734
-1.2903399
-1.2545791
-1.2010476
-1.1301084
-1.0431927
-0.94294276
-0.83333131
-0.71970799
-0.6086597
-0.50762488
-0.42437454
-0.3667193
-0.34265384
-0.35925307
-0.42275223
-0.56498275
-0.91026344
-1.4394866
-0.59156365
-0.2129572
-0.84486731
-1.5061031
-1.7731408
-1.9077931
-2.5371086
-3.5396997
-4.7131533
-6.1325143
-7.1273342
-7.1138422
-7.1721436
-6.6806821
-5.3698908
-3.5792587
-3.2007851
-2.7722983
-2.5411776
-2.4344597
-2.3976586
-2.398172
-2.4383927
-2.5129414
-2.6116547
-2.7267728
-2.8525885
-2.9843895
-3.1232011
-3.258438
-3.3923922
-3.522945
-3.6486419
-3.7683648
-3.8813346
-3.9869405
-4.0848024
-4.1746546
-4.2563912
-4.3299865
-4.3955195
-4.4531731
-4.5031711
-4.5458101
-4.5813123
-4.6100588
-4.6324977
-4.6490752
-4.6602429
-4.6663786
-4.6680895
-4.6655644
-4.6533488
0.16717401
0.15065845
0.13024642
0.10418781
0.072055777
0.034336131
-0.0089147835
-0.057585837
-0.11147268
-0.17027055
-0.2337493
-0.30161335
-0.37341481
-0.4487139
-0.52704089
-0.60775226
-0.69014291
-0.773408
-0.85654506
-0.94104214
-1.0212989
-1.0979244
-1.169493
-1.2343385
-1.2906742
-1.3365665
-1.3699276
-1.3886231
-1.3906004
-1.3739578
-1.3370732
-1.2788953
-1.1993086
-1.0994734
-0.98211955
-0.85178961
-0.71501201
-0.58015947
-0.45694313
-0.35563818
-0.28639417
-0.25938558
-0.28482696
-0.37317677
-0.56156106
-1.000889
-1.6923938
-0.33635233
-0.47398975
-1.4859829
-2.1526645
-2.7438909
-3.1577026
-4.5611378
-6.3956584
-8.1629558
-8.7797423
-9.7747743
-11.524345
-11.074834
-9.9837152
-8.1079151
-5.9178283
-4.0739728
-3.1725892
-2.744902
-2.5523497
-2.489134
-2.4763432
-2.5080031
-2.5776086
-2.6741628
-2.7884823
-2.914287
-3.0470511
-3.1836814
-3.319741
-3.453681
-3.5838054
-3.7087708
-3.8275105
-3.939263
-4.0434513
-4.1397106
-4.2278104
-4.3076727
-4.3793018
-4.4428304
-4.4984893
-4.5465124
-4.587151
-4.620775
-4.6477887
-4.668586
-4.6836729
-4.6934301
-4.6983133
-4.6989406
-4.6953597
-4.6821774
0.21484888
0.19779191
0.17675598
0.14975485
0.11645491
0.077347483
0.032345439
-0.018390523
-0.074610528
-0.13615426
-0.20281244
-0.27423562
-0.35007494
-0.42996836
-0.51340162
-0.59976849
-0.68843393
-0.77867261
-0.8695602
-0.96043895
-1.0506756
-1.1365396
-1.2177522
-1.2925311
-1.3588624
-1.4144542
-1.4568055
-1.4833004
-1.4912452
-1.4779369
-1.4408702
-1.3781113
-1.2887179
-1.1732331
-1.0342535
-0.87687588
-0.70894674
-0.54107957
-0.38600718
-0.25738768
-0.16767059
-0.12792629
-0.14844772
-0.23586095
-0.40904616
-0.8120258
-1.1525893
-1.2253728
-1.6400085
-1.8952161
-2.6848524
-3.5084197
-4.4255976
-6.9374315
-9.0456114
-11.241992
-12.767423
-13.481269
-13.417039
-14.704418
-13.588028
-11.177193
-8.2424968
-4.0697752
-3.3858697
-2.8756846
-2.6369732
-2.5603885
-2.5464963
-2.5760574
-2.6441085
-2.7407514
-2.8556376
-2.9825483
-3.1164618
-3.2534852
-3.3902652
-3.5245696
-3.6546389
-3.779113
-3.8969771
-4.0075245
-4.1102302
-4.2047402
-4.2908812
-4.3686105
-4.4379917
-4.4991826
-4.5524531
-4.5980785
-4.6363669
-4.6677267
-4.6925811
-4.7113033
-4.7244465
-4.7324411
-4.7357094
-4.7349224
-4.7300582
-4.7157387
0.26870789
0.2511276
0.22932281
0.20132201
0.16682649
0.12614422
0.079258823
0.026366312
-0.032425879
-0.09698473
-0.16705635
-0.24239228
-0.32273703
-0.40769754
-0.49679698
-0.58954631
-0.68534125
-0.78339457
-0.88287966
-0.98285128
-1.0823128
-1.1796846
-1.2724836
-1.3593169
-1.4379409
-1.5057138
-1.5597193
-1.5967648
-1.6133458
-1.6057562
-1.570326
-1.5038306
-1.4040084
-1.2702787
-1.1046649
-0.91263898
-0.70346899
-0.49063733
-0.29094799
-0.12335066
-0.0029272918
0.059262854
0.054856013
-0.017373927
-0.13198527
-0.4248096
-0.27674251
-0.91272237
-1.5702963
-2.0670722
-3.0089689
-3.9810526
-5.2220942
-9.2140733
-12.09055
-14.902258
-16.798237
-17.431438
-17.535671
-18.477375
-16.751592
-13.814023
-10.216455
-4.7603498
-2.8927952
-3.0489649
-2.7368348
-2.6449611
-2.6258505
-2.6503625
-2.7168555
-2.8142684
-2.9304803
-3.0592808
-3.1950224
-3.333449
-3.4713175
-3.6062356
-3.7364269
-3.8605277
-3.977537
-4.0867862
-4.1878337
-4.2803693
-4.3642892
-4.4395933
-4.5063844
-4.5648827
-4.6153662
-4.6581608
-4.6936525
-4.7222838
-4.7444832
-4.7607148
-4.7714841
-4.777277
-4.7785472
-4.776046
-4.769692
-4.7539243
0.32901115
0.31077374
0.28821086
0.25921422
0.22336706
0.18103746
0.13224101
0.077025281
0.015470538
-0.052251133
-0.12598784
-0.20559536
-0.2908023
-0.38125278
-0.47659418
-0.57639171
-0.68004865
-0.7868353
-0.89591924
-1.006357
-1.1168803
-1.2265081
-1.3332025
-1.4344392
-1.5279973
-1.6109187
-1.6798596
-1.7309807
-1.7598487
-1.7615359
-1.7308361
-1.6626577
-1.552729
-1.3986807
-1.2012628
-0.96576268
-0.70290092
-0.42976832
-0.16788877
0.05375717
0.21522167
0.30588045
0.32080343
0.25830354
0.18983936
0.10796387
0.31835633
-0.44339182
-1.4178717
-1.9779609
-2.1709285
-4.2769154
-4.640429
-10.76459
-14.523394
-18.614336
-21.174522
-22.281494
-22.564035
-21.799298
-19.43731
-15.773227
-11.385194
-5.93698
-2.2150673
-3.3821177
-2.9546738
-2.7846779
-2.7267387
-2.736517
-2.7988186
-2.8959494
-3.0144558
-3.1458783
-3.2840309
-3.4244217
-3.5637437
-3.699526
-3.8299686
-3.9537212
-4.0698359
-4.17766
-4.2768392
-4.3671537
-4.4485257
-4.5210384
-4.5848464
-4.6402301
-4.6875036
-4.726995
-4.7591969
-4.7846034
-4.8036851
-4.8168975
-4.8248488
-4.8280047
-4.8268585
-4.8222828
-4.814222
-4.7966441
0.39592407
0.37698238
0.35365326
0.32359013
0.28638719
0.24243351
0.19161754
0.13396258
0.069582429
-0.0014579631
-0.07911474
-0.16323359
-0.25358597
-0.34995122
-0.45205155
-0.55946952
-0.67168304
-0.78808783
-0.90786313
-1.0299993
-1.1533503
-1.2764912
-1.3988875
-1.5172766
-1.6288403
-1.7303792
-1.8181676
-1.8877844
-1.933845
-1.9499549
-1.9288979
-1.862986
-1.74492
-1.5694673
-1.335208
-1.0465048
-0.7135581
-0.35922947
-0.0095144806
0.28150517
0.49640417
0.61832926
0.64965523
0.54844042
0.52037934
0.48531147
0.56879576
-0.014986638
-1.0307945
0.96187228
3.3396093
-3.0172364
-5.3388248
-10.87928
-15.768613
-20.141505
-23.484563
-25.375301
-25.636661
-24.309417
-21.211271
-16.762007
-11.783662
-6.4941666
-2.8752474
-3.8368594
-3.2228439
-2.9419206
-2.8336952
-2.8284586
-2.8882075
-2.9867069
-3.1083498
-3.2431909
-3.3844504
-3.5273387
-3.6684786
-3.8053585
-3.9361533
-4.0595546
-4.1746786
-4.280919
-4.3779625
-4.4657059
-4.5441446
-4.6134246
-4.6738013
-4.725586
-4.7691209
-4.8048603
-4.8332526
-4.8548727
-4.8702733
-4.8799947
-4.8846036
-4.8846403
-4.8806532
-4.8736733
-4.8635406
-4.8437928
0.46977722
0.45016982
0.42594518
0.39473105
0.35623429
0.31063132
0.25774723
0.19766572
0.13038574
0.055868394
-0.025833576
-0.11461515
-0.21038953
-0.31302636
-0.42227767
-0.53782455
-0.65927817
-0.78610222
-0.91756014
-1.0526961
-1.1904158
-1.3293819
-1.46779
-1.606553
-1.7398855
-1.8639668
-1.9751053
-2.0686513
-2.1383965
-2.1762379
-2.1723195
-2.1155255
-1.9944133
-1.7989106
-1.5234087
-1.170459
-0.74863994
-0.28946757
0.17959508
0.57009335
0.85769767
1.0049715
1.0042071
0.83870489
0.80681889
0.83694389
0.83165852
0.020750614
0.28635097
4.6708032
3.7915287
-2.8447214
-6.5560846
-11.281643
-15.272799
-20.202458
-23.919163
-26.01168
-26.218539
-24.580722
-21.15153
-16.508379
-11.588053
-6.2596072
-3.424358
-3.848624
-3.2641253
-3.0121966
-2.9150491
-2.9169173
-2.9820671
-3.0858602
-3.2125897
-3.3520908
-3.4973055
-3.6432885
-3.7866279
-3.9247975
-4.055992
-4.1789717
-4.2929238
-4.3973095
-4.4918901
-4.5766587
-4.6517428
-4.7173254
-4.7737269
-4.8213717
-4.8606002
-4.8920143
-4.9160319
-4.933353
-4.9444678
-4.9501003
-4.9508366
-4.9472573
-4.9399087
-4.9301416
-4.9175511
-4.8951817
0.55078383
0.53040479
0.50536584
0.47312898
0.43321833
0.38589446
0.33107203
0.26856976
0.19832192
0.12030806
0.034528916
-0.059053867
-0.16045055
-0.26957458
-0.38628647
-0.51041423
-0.64168406
-0.77963462
-0.92367815
-1.0730475
-1.2266994
-1.3833262
-1.5412244
-1.6979931
-1.8600436
-2.0108901
-2.1502708
-2.274163
-2.3758046
-2.4453001
-2.4696901
-2.4334069
-2.31918
-2.1097939
-1.7920082
-1.3597064
-0.82264277
-0.21624444
0.42200557
0.95706416
1.3342664
1.5010312
1.4462149
1.1621171
0.85455939
0.66447211
0.56996439
-0.0097812268
1.0275776
4.9880573
3.8758201
-0.76651257
-4.3799213
-9.9030492
-13.922902
-18.664158
-22.126041
-24.033298
-24.056705
-22.251658
-18.91247
-14.750428
-10.140611
-5.8240017
-3.9640173
-3.6096289
-3.2075311
-3.035937
-2.9790006
-3.0020876
-3.0803106
-3.1935626
-3.3278251
-3.4734887
-3.6236328
-3.7733762
-3.9193126
-4.0589396
-4.1905474
-4.3129519
-4.425457
-4.5276302
-4.6193545
-4.7007111
-4.7719068
-4.833272
-4.8851755
-4.9280557
-4.9624057
-4.9888427
-5.0078832
-5.020238
-5.0265221
-5.0274346
-5.0236818
-5.0158753
-5.0046487
-4.9916004
-4.9761919
-4.9507278
0.63908305
0.61798672
0.59220732
0.55891145
0.51767135
0.46873493
0.41194436
0.34708279
0.27393594
0.19249476
0.10262069
0.0041799256
-0.10288893
-0.21861437
-0.3430158
-0.47605489
-0.61756298
-0.76724658
-0.92470336
-1.0893652
-1.2603601
-1.436521
-1.6164011
-1.7981755
-1.9796416
-2.1694179
-2.3418482
-2.5032155
-2.646831
-2.7610333
-2.8295817
-2.8315921
-2.7421494
-2.5332529
-2.1796706
-1.6633901
-0.98684407
-0.18716636
0.67268128
1.4134257
1.9303168
2.1322667
1.9917054
1.507826
1.0675944
0.44446494
0.38229706
0.31277069
0.27087372
4.7836943
0.40485415
0.27291709
-2.7419907
-7.3465618
-11.87121
-15.465097
-18.374943
-19.921814
-19.768951
-17.933825
-14.994345
-11.840256
-7.8654465
-5.1905212
-4.0587357
-3.4894966
-3.1911102
-3.0687992
-3.0452102
-3.0909284
-3.1853811
-3.3109048
-3.4548839
-3.6082686
-3.7644553
-3.9186936
-4.0676398
-4.2089053
-4.3408955
-4.4625319
-4.5732697
-4.6728329
-4.7611878
-4.8385796
-4.9053172
-4.9618353
-5.0086108
-5.0461185
-5.0749831
-5.0957505
-5.1091489
-5.1158576
-5.1166092
-5.1121293
-5.1032491
-5.0905353
-5.0748925
-5.0580922
-5.0393407
-5.0102849
0.73491156
0.71315375
0.68660765
0.65236005
0.6099425
0.55948164
0.50073756
0.43372094
0.35780133
0.27301842
0.17912063
0.075920079
-0.036760039
-0.15911494
-0.29130348
-0.43340135
-0.58542233
-0.74731026
-0.91885504
-1.0996792
-1.2891734
-1.4864595
-1.6903763
-1.8994989
-2.1122611
-2.3273368
-2.5453351
-2.7521035
-2.9497286
-3.1254005
-3.2599857
-3.3264121
-3.290433
-3.109888
-2.736979
-2.1512774
-1.3179641
-0.2264527
0.98665422
2.0695296
2.8033798
3.0133203
2.7534667
2.0480516
1.2176862
0.77738054
0.97293592
1.3885933
1.6201977
1.547965
2.0630578
0.88203866
-0.72561791
-4.1302103
-8.6295868
-11.317427
-13.802862
-14.898411
-14.325412
-13.260871
-11.370636
-8.6382043
-6.5044933
-4.8766549
-3.8589537
-3.4046304
-3.1850939
-3.1073426
-3.1149838
-3.1851733
-3.2983912
-3.4387645
-3.5946208
-3.7574035
-3.9208693
-4.0804337
-4.2328444
-4.3758816
-4.508152
-4.6287834
-4.7373399
-4.8337744
-4.918208
-4.9910025
-5.0526223
-5.1036341
-5.1445709
-5.1760013
-5.1986529
-5.2131265
-5.2201418
-5.2205265
-5.2150276
-5.2044584
-5.1897323
-5.1714362
-5.150672
-5.1296013
-5.1069177
-5.0736816
0.83844261
0.81600239
0.78881976
0.753792
0.71029542
0.65841074
0.59790195
0.52849695
0.45037445
0.3624727
0.26478312
0.15702941
0.038881349
-0.089986377
-0.22985628
-0.38099069
-0.54364629
-0.71799856
-0.9040609
-1.1016906
-1.3106163
-1.5302867
-1.7597644
-1.9979844
-2.2437139
-2.4957865
-2.7528593
-3.0134766
-3.2790374
-3.5373705
-3.7667779
-3.933149
-3.993536
-3.893724
-3.5592481
-2.9421467
-1.9238807
-0.36194199
1.4329546
3.0938266
4.1017693
4.2104604
3.7620353
2.750868
1.8906218
1.7462176
2.2862151
3.0490578
3.2232569
3.1481619
2.940147
2.0187571
1.5233954
-0.88308527
-3.6127894
-5.3601513
-9.6341209
-10.473053
-9.7615028
-8.82971
-7.4711817
-6.974791
-5.3516721
-4.2550605
-3.6437634
-3.3219333
-3.1763776
-3.1432731
-3.1858264
-3.2840077
-3.4194194
-3.577683
-3.7479494
-3.922099
-4.0942167
-4.2599621
-4.4162909
-4.5612319
-4.6935958
-4.8128046
-4.9186368
-5.0113099
-5.091154
-5.1586517
-5.2144386
-5.259204
-5.2935787
-5.3182368
-5.3339201
-5.3413744
-5.3413003
-5.3345944
-5.3220713
-5.3046849
-5.2833139
-5.2586994
-5.2321196
-5.2061519
-5.1788972
-5.1408623
0.94974523
0.92676697
0.89911086
0.86339515
0.81896433
0.76592902
0.70397062
0.63274176
0.55200066
0.46152784
0.36036749
0.24834107
0.12501706
-0.010048971
-0.15732392
-0.31730845
-0.49048976
-0.67728536
-0.87800427
-1.092847
-1.3218551
-1.5648171
-1.8210686
-2.0896451
-2.3697214
-2.6606267
-2.9629515
-3.2817659
-3.6218809
-3.9887157
-4.3494582
-4.6597141
-4.8741242
-4.9419771
-4.7733069
-4.2466928
-3.1204739
-0.86166717
1.8841204
4.3404553
5.6727464
6.1201193
5.0355109
3.8782138
2.7670202
2.8816041
3.8225443
4.6601384
4.582477
4.0502923
3.3542176
2.5897189
2.5824822
1.2121182
-1.3535437
-4.5567244
-6.2780384
-6.949066
-6.5578082
-6.4905461
-6.4536015
-5.3258605
-4.432076
-3.7984384
-3.4225077
-3.2270954
-3.1563114
-3.1737159
-3.2567157
-3.3872115
-3.5489316
-3.7286084
-3.9161553
-4.1038512
-4.2860961
-4.4589149
-4.619541
-4.7663542
-4.8984822
-5.0157215
-5.1181738
-5.2062889
-5.2807225
-5.3421587
-5.3913548
-5.4290983
-5.4561857
-5.4733299
-5.481333
-5.4809705
-5.473063
-5.4584792
-5.4381343
-5.4131312
-5.3843362
-5.3525239
-5.3193711
-5.2878187
-5.2552147
-5.2117033
1.0689521
1.045607
1.0175647
0.9813355
0.93626557
0.88234633
0.81918346
0.7464073
0.66370952
0.57095217
0.46657188
0.35069156
0.22267451
0.081889746
-0.072350676
-0.24076771
-0.42407719
-0.62299229
-0.83821053
-1.0703218
-1.3197461
-1.5865956
-1.8705273
-2.1706128
-2.4858065
-2.8155113
-3.1603223
-3.5379173
-3.9672532
-4.4560855
-4.9926355
-5.4960934
-5.9417259
-6.3242302
-6.6379441
-6.7441733
-5.8644662
-3.334127
0.60797687
4.5089112
6.4909702
6.5267021
5.6973027
8.7232933
7.2730138
7.2513481
5.7538675
5.8683871
5.4053011
4.5846075
3.8323355
3.1751801
2.1719937
0.86629413
-1.073847
-2.9405449
-4.2158484
-5.1105918
-5.4650163
-5.2829282
-4.8018001
-4.2195633
-3.751271
-3.4123951
-3.2066082
-3.1190163
-3.1226014
-3.1973065
-3.3267377
-3.495085
-3.687969
-3.8931461
-4.1011667
-4.3047438
-4.4985975
-4.6792226
-4.8443081
-4.9927326
-5.1241235
-5.2386459
-5.336874
-5.4195688
-5.487652
-5.5421332
-5.5839211
-5.613883
-5.6328615
-5.6417121
-5.6413059
-5.6324081
-5.6159043
-5.5926947
-5.5637772
-5.5302826
-5.4931675
-5.4532224
-5.4126153
-5.3747154
-5.3358852
-5.2860991
1.1960705
1.1725173
1.1442843
1.1078425
1.0623904
1.0078561
0.94383384
0.86989711
0.78555195
0.69009664
0.58389742
0.46492372
0.3328652
0.18698928
0.026436333
-0.14971564
-0.3424577
-0.55285748
-0.78203075
-1.0310443
-1.3007894
-1.5918885
-1.9043253
-2.2371074
-2.5880606
-2.9558223
-3.3306534
-3.7568115
-4.2815825
-4.9222081
-5.6579707
-6.4132643
-7.1778602
-8.0788894
-9.3667636
-11.038238
-11.461877
-9.2384078
-3.6351398
2.7575162
5.8588058
5.5279282
3.7072695
3.1493273
6.5519218
7.1021567
6.3205026
6.1380832
5.4318178
5.0555503
4.1006004
3.7464424
2.7761384
1.2667833
-0.48997274
-1.9907986
-3.0118906
-3.7690971
-4.125459
-3.9992077
-3.6889688
-3.3970436
-3.1868983
-3.0486145
-2.9858465
-2.9978045
-3.0777053
-3.2149707
-3.3967225
-3.6090134
-3.838527
-4.0738096
-4.3057882
-4.5276292
-4.7344882
-4.9234197
-5.0928472
-5.2422835
-5.3720249
-5.4827996
-5.5756963
-5.6519031
-5.7126292
-5.7591377
-5.7925438
-5.8139112
-5.8240946
-5.8239228
-5.8143448
-5.796229
-5.7704312
-5.7378521
-5.6995822
-5.6567735
-5.6103718
-5.5613047
-5.5122838
-5.4671223
-5.4209735
-5.3639791
1.3309442
1.3075671
1.2794082
1.2429852
1.1974388
1.1426734
1.0782639
1.0036801
0.91834648
0.82162814
0.71307538
0.5919194
0.45655628
0.3063857
0.14041988
-0.042503227
-0.24367566
-0.46454821
-0.7066723
-0.97166328
-1.2611375
-1.5764756
-1.9182914
-2.2855961
-2.6740432
-3.0849578
-3.46368
-3.9192106
-4.5471652
-5.3603869
-6.3227852
-7.3638138
-8.4996585
-10.101761
-12.81917
-17.04141
-20.019559
-18.631377
-11.291678
-1.8767782
2.883302
2.5321237
0.42623071
-0.58591194
0.72889897
4.4533711
5.1181736
4.3985756
4.3211181
4.7641306
4.2760734
4.0124137
3.16
1.6912216
0.068294938
-1.1290715
-2.341991
-3.4273445
-3.6238878
-3.1475237
-2.7524816
-2.7025528
-2.704434
-2.7133334
-2.7659284
-2.8676896
-3.0240557
-3.2283027
-3.4686483
-3.7315665
-4.0038678
-4.2743069
-4.5339326
-4.7763161
-4.9972674
-5.1946222
-5.3677794
-5.5171297
-5.6438453
-5.7494251
-5.8355459
-5.903911
-5.9561009
-5.9935852
-6.0176931
-6.0295753
-6.0301723
-6.020366
-6.0010388
-5.9730656
-5.9373352
-5.8947203
-5.8463504
-5.7934023
-5.7367358
-5.677463
-5.6189681
-5.5654909
-5.5106644
-5.4453368
1.4734682
1.4508326
1.4229253
1.3867691
1.3415242
1.287006
1.2227082
1.1480177
1.0623199
0.96491809
0.85510338
0.73251589
0.59464481
0.44116407
0.27091146
0.082448005
-0.12582796
-0.35570482
-0.60922159
-0.8886648
-1.1964931
-1.5353274
-1.9073026
-2.3123671
-2.7408374
-3.2190547
-3.569484
-4.0167147
-4.777902
-5.7746886
-6.9540381
-8.2672367
-9.7880651
-12.057617
-16.072165
-22.486625
-27.586675
-26.19474
-19.079571
-8.6525361
-3.8298423
-4.6322472
-6.6389846
-6.8728745
-4.8561542
-0.50109797
3.2338784
1.1164758
2.6892565
4.1972388
4.4123422
4.1092649
3.0780938
1.2834716
-0.44368772
-1.0830326
-2.2610406
-3.549291
-3.6408644
-2.457228
-1.7456043
-2.0427467
-2.303985
-2.4176299
-2.554156
-2.731373
-2.9624251
-3.2381822
-3.5446624
-3.8663634
-4.1888533
-4.5001259
-4.7911419
-5.0559809
-5.2914491
-5.4965096
-5.6719295
-5.8193847
-5.9410846
-6.0394866
-6.1170184
-6.1759504
-6.2182518
-6.2456367
-6.2595784
-6.2611661
-6.2515044
-6.2314654
-6.2019084
-6.1636028
-6.117391
-6.0641543
-6.0050249
-5.9411399
-5.8732727
-5.8026974
-5.7335749
-5.6704942
-5.6052927
-5.530264
1.623617
1.6021831
1.5747672
1.539234
1.4947397
1.4409509
1.3773149
1.303179
1.2178444
1.1204738
1.010124
0.88566608
0.74780577
0.59224893
0.41906461
0.22656218
0.012884278
-0.22407797
-0.48684768
-0.77838623
-1.1021801
-1.4624671
-1.8646854
-2.3157787
-2.786756
-3.4379257
-3.7392786
-4.244725
-5.2810915
-6.3684081
-7.5866009
-9.0248983
-10.818329
-13.455868
-17.838813
-24.330158
-28.955479
-28.950484
-23.696017
-16.683008
-16.445738
-18.794519
-20.984821
-19.432262
-13.78157
-7.4837508
-0.88334842
-0.57976041
1.8563483
3.6722737
4.1000095
3.5486606
2.1387341
-0.098242993
-2.7010208
-3.7368836
-2.1952593
-3.3443506
-3.6236129
-1.8567913
-0.66916717
-1.4492801
-2.0312553
-2.1645051
-2.3510477
-2.5842664
-2.8885458
-3.2429899
-3.6268672
-4.0185074
-4.4004399
-4.7589388
-5.0849799
-5.3734426
-5.6226861
-5.8335576
-6.0086184
-6.1512614
-6.2651412
-6.3538084
-6.4205035
-6.4681908
-6.4991452
-6.5151964
-6.5180288
-6.5088265
-6.4884241
-6.457744
-6.4175504
-6.36857
-6.3115131
-6.2472504
-6.1768745
-6.1013767
-6.0214194
-5.9384293
-5.8573977
-5.7830603
-5.7052353
-5.6187834
1.7813595
1.761437
1.7348583
1.700339
1.6570489
1.6045399
1.5422352
1.4694114
1.3852397
1.2887952
1.1790743
1.0549601
0.91532613
0.76029136
0.58584122
0.3910914
0.17404988
-0.067668163
-0.33697577
-0.63745382
-0.97341859
-1.3504118
-1.7781135
-2.2783215
-2.7627372
-3.9520831
-4.0009251
-3.8306871
-6.0387662
-7.2108423
-8.3288087
-9.5952021
-11.363541
-13.888501
-17.600568
-23.631649
-27.276206
-28.076082
-26.390947
-26.827406
-33.212275
-35.421546
-38.333213
-35.556776
-24.51184
-15.840935
-4.8567298
-0.92144952
1.0486864
3.2415923
3.748727
2.745184
0.94909315
-1.6278054
-4.442148
-2.116321
-0.10957247
-2.895066
-5.3224712
-3.647476
-1.0026463
-1.7230182
-2.1134183
-1.9719237
-2.1286669
-2.4037663
-2.786382
-3.238272
-3.7180632
-4.1956092
-4.6486834
-5.0615206
-5.4255689
-5.7374306
-5.9980041
-6.2109455
-6.3814119
-6.515027
-6.6171755
-6.6927627
-6.7459634
-6.7802595
-6.798338
-6.8021116
-6.7931052
-6.7724966
-6.7411031
-6.6996331
-6.6486667
-6.5888434
-6.5207991
-6.4453146
-6.3634044
-6.2758594
-6.1831066
-6.0866954
-5.9923865
-5.9046842
-5.8111674
-5.7108729
1.946695
1.9283616
1.9030127
1.8698986
1.828337
1.7777818
1.717555
1.6468338
1.5646999
1.4701716
1.3621968
1.2396238
1.1011501
0.94566008
0.77204306
0.57706644
0.35888534
0.1150374
-0.15763088
-0.46324263
-0.80687598
-1.1952621
-1.6427905
-2.1744967
-2.7871787
-3.4368044
3.1320142
3.1269591
-5.7775749
-7.6694739
-8.8731595
-9.8683509
-11.328243
-13.322613
-16.378971
-20.314604
-23.065878
-24.453218
-23.959025
-31.230193
-39.104153
-7.7687657
-26.415753
-39.071434
-31.753827
-19.026677
-7.6866737
-0.27011355
0.010067215
2.7306118
3.5769728
2.5204328
0.53280803
-5.627638
-14.278609
-14.060057
-7.3208739
-7.5063776
-13.191733
-13.388916
-7.7634064
-4.0135285
-2.324077
-1.6957682
-1.8204814
-2.1392213
-2.6304088
-3.2181848
-3.824161
-4.4102011
-4.94931
-5.42346
-5.8265604
-6.1589362
-6.4256798
-6.6344029
-6.7937971
-6.9124082
-6.9977456
-7.0561064
-7.0926538
-7.1113442
-7.1149563
-7.10551
-7.0842372
-7.052088
-7.0097049
-6.9575095
-6.8959638
-6.8254386
-6.7465062
-6.6598994
-6.5664741
-6.4667878
-6.3609095
-6.2504293
-6.1415408
-6.0377101
-5.9240924
-5.8062442
2.1194385
2.1026049
2.0788345
2.0476671
2.0084446
1.9605725
1.9032252
1.83548
1.7563692
1.6648249
1.5597038
1.4398017
1.3038167
1.1503215
0.97781956
0.78508764
0.5681953
0.32501495
0.052515468
-0.25371388
-0.59886168
-0.9882866
-1.4308166
-1.9114945
-2.3592088
-1.8841832
2.9744912
3.2075657
-5.8142334
-8.2452698
-9.10356
-9.7575618
-10.775122
-12.176012
-14.193165
-17.19661
-19.699549
-20.802679
-16.873555
-20.081363
8.9947744
45.17859
-44.502312
-45.503867
-30.201012
-17.969113
-10.792012
-4.9747408
-0.78251838
3.001647
4.0709351
3.2720252
0.53026298
-14.635594
-52.030156
-54.8129
-28.774303
-15.605599
-21.376822
-32.351308
-25.380633
-10.07192
-3.2012195
-0.84936511
-1.3310779
-1.704221
-2.3796462
-3.1768528
-3.9583268
-4.6850237
-5.3270578
-5.8668689
-6.3062827
-6.6518761
-6.9153103
-7.1098649
-7.2488459
-7.3443545
-7.4063669
-7.4426223
-7.4590738
-7.4598876
-7.4477601
-7.4243796
-7.3907908
-7.347417
-7.2944648
-7.2319775
-7.1602391
-7.0794721
-6.9900795
-6.8927716
-6.7882977
-6.6768611
-6.5581263
-6.4337675
-6.3096298
-6.1860342
-6.0453696
-5.9043591
2.2991006
2.2836529
2.2618558
2.2332561
2.1970649
2.1526685
2.0991152
2.0353731
1.9603553
1.8728902
1.7717493
1.6557043
1.5234725
1.3736246
1.2046262
1.0144516
0.80193115
0.56246573
0.29369131
-0.009002149
-0.3515153
-0.74040341
-1.1846186
-1.6437006
-2.0221613
-2.2299578
3.0964902
3.4488911
-6.3121238
-8.268106
-8.8664433
-9.2574498
-9.8653582
-10.60849
-11.935492
-14.723216
-18.284498
-20.504337
-15.63682
-10.648338
30.744637
11.613538
-0.83553721
-30.299128
-19.752468
-15.249025
-9.5897063
-4.9163428
0.06873368
5.0177422
7.5989923
8.3767435
5.6234859
-17.687714
-52.90828
-34.20479
5.3577922
10.586997
19.19565
-13.114009
-44.121038
-16.25433
-4.90493
-0.4386276
-0.51609697
-0.97851745
-2.0215044
-3.1454656
-4.156243
-5.0588778
-5.8185003
-6.4217301
-6.8878098
-7.2326757
-7.4773281
-7.6428113
-7.7484678
-7.8103889
-7.8410785
-7.8496577
-7.8424111
-7.8233423
-7.7946669
-7.7574233
-7.7119921
-7.6582609
-7.5955189
-7.5236848
-7.4425619
-7.3522562
-7.2531145
-7.1458749
-7.0313049
-6.9092013
-6.7788169
-6.6421986
-6.5037323
-6.3559905
-6.1770658
-6.0047443
2.484915
2.4709376
2.4514735
2.4260726
2.393701
2.3537252
2.3050814
2.2464954
2.1767049
2.0944527
1.9984641
1.8874759
1.7602482
1.6154128
1.4514779
1.2666717
1.058993
0.82667293
0.56523985
0.27005264
-0.066110026
-0.45430709
-0.90921362
-1.4254692
-1.9807448
-2.7304703
-2.0889311
0.22580541
-5.2892042
-7.1642294
-7.9806195
-8.5452136
-9.0054886
-9.401896
-10.215319
-12.298596
-16.286372
-21.319843
-33.751104
62.600513
26.425107
16.06895
-14.382843
-9.1380239
-15.251166
-9.4682034
-4.0446271
-5.819406
-1.1409548
8.980768
12.664843
10.185772
8.3956052
15.523994
9.5576919
0.44474912
-16.016128
2.5165424
35.634553
-5.5445002
-41.21983
-10.165253
-1.4159199
1.3993501
1.4149813
0.1838346
-1.5024072
-3.151274
-4.4694562