/*--------------------------------*- C++ -*----------------------------------*\
  =========                 |
  \\      /  F ield         | OpenFOAM: The Open Source CFD Toolbox
   \\    /   O peration     | Website:  https://openfoam.org
    \\  /    A nd           | Version:  9
     \\/     M anipulation  |
\*---------------------------------------------------------------------------*/
FoamFile
{
    format      ascii;
    class       volScalarField;
    location    "0.09";
    object      p_rgh;
}
// * * * * * * * * * * * * * * * * * * * * * * * * * * * * * * * * * * * * * //

dimensions      [1 -1 -2 0 0 0 0];

internalField   nonuniform List<scalar> 
10000
(
0
-0.021503981
-0.070185423
-0.14119887
-0.23599353
-0.35477666
-0.49782661
-0.66543162
-0.85790595
-1.0755946
-1.3188444
-1.587977
-1.8832795
-2.2050008
-2.5533366
-2.92841
-3.3302319
-3.7586595
-4.2133781
-4.6939019
-5.199559
-5.7294559
-6.2824306
-6.8570208
-7.4514456
-8.0635999
-8.6910504
-9.3310336
-9.9804593
-10.635898
-11.293837
-11.952127
-12.605975
-13.250076
-13.879048
-14.488873
-15.075892
-15.636324
-16.166512
-16.663058
-17.122891
-17.543316
-17.922003
-18.256994
-18.546721
-18.789968
-18.985802
-19.133543
-19.232712
-19.283017
-19.284427
-19.236927
-19.14054
-18.995557
-18.802438
-18.561821
-18.274667
-17.942213
-17.565991
-17.147998
-16.690539
-16.196281
-15.668307
-15.109937
-14.524841
-13.916821
-13.289449
-12.646904
-11.994513
-11.337657
-10.681122
-10.027045
-9.3788777
-8.7400487
-8.1136799
-7.5025205
-6.9090467
-6.3353214
-5.7831163
-5.2539611
-4.7490414
-4.2692854
-3.8152888
-3.3875439
-2.9864107
-2.6119903
-2.2642127
-1.9430114
-1.6482133
-1.379554
-1.1367635
-0.91952726
-0.72751268
-0.56036655
-0.41781409
-0.29958285
-0.20540051
-0.13510576
-0.087436702
-0.067537314
0.01506678
-0.0054186257
-0.053703654
-0.12452504
-0.21917149
-0.33781951
-0.48072808
-0.64817674
-0.84049425
-1.0580389
-1.3011623
-1.5701822
-1.865406
-2.1870968
-2.5354736
-2.9106832
-3.3127525
-3.7415406
-4.1967588
-4.6779573
-5.1844952
-5.7154918
-6.2698067
-6.8459921
-7.4422795
-8.0565738
-8.6864506
-9.3291597
-9.9816248
-10.640483
-11.302205
-11.963191
-12.619236
-13.265523
-13.897267
-14.510095
-15.099928
-15.662837
-16.195119
-16.693371
-17.15453
-17.575909
-17.955226
-18.290586
-18.58049
-18.8238
-19.019637
-19.167374
-19.266573
-19.316932
-19.31835
-19.270819
-19.174418
-19.029435
-18.836329
-18.595664
-18.308314
-17.975496
-17.598656
-17.179712
-16.720941
-16.224956
-15.694858
-15.134014
-14.546099
-13.935093
-13.304965
-12.660224
-12.005661
-11.346106
-10.68577
-10.028269
-9.3770802
-8.7355396
-8.1067447
-7.4934213
-6.8980548
-6.322749
-5.7692421
-5.2390163
-4.733194
-4.2527001
-3.7981989
-3.3701282
-2.9687457
-2.5941767
-2.2463659
-1.925172
-1.6304176
-1.3618918
-1.1192493
-0.90215534
-0.71028402
-0.54326594
-0.40082688
-0.28270171
-0.18861432
-0.11842263
-0.070783914
-0.050864208
0.058715351
0.038692505
-0.0091921656
-0.079578477
-0.17378683
-0.29195276
-0.43432985
-0.60122038
-0.79297179
-1.009949
-1.2525134
-1.5210243
-1.8158111
-2.1371865
-2.4854204
-2.8606967
-3.2630756
-3.6924872
-4.1487026
-4.6313284
-5.1397752
-5.6732229
-6.2305653
-6.8103941
-7.4109754
-8.030239
-8.6657726
-9.314815
-9.9742661
-10.64073
-11.310571
-11.979988
-12.6439
-13.298224
-13.938187
-14.559219
-15.156967
-15.727301
-16.266373
-16.770685
-17.237111
-17.662946
-18.04593
-18.384213
-18.676348
-18.921281
-19.11825
-19.266722
-19.366338
-19.416855
-19.418271
-19.3706
-19.273821
-19.128106
-18.933852
-18.691581
-18.402024
-18.066313
-17.685844
-17.262439
-16.798377
-16.296318
-15.759386
-15.191103
-14.595298
-13.976091
-13.337808
-12.685018
-12.02261
-11.354643
-10.686205
-10.021098
-9.3629048
-8.7150231
-8.0805538
-7.4622834
-6.8626464
-6.2836835
-5.7271108
-5.1943983
-4.6866916
-4.2048158
-3.7493058
-3.3205762
-2.9188749
-2.5442258
-2.1965476
-1.8756799
-1.5813494
-1.3133144
-1.0712149
-0.85467761
-0.66338076
-0.49692032
-0.35495998
-0.23724876
-0.14349972
-0.073561499
-0.026119307
-0.0063501283
0.12480257
0.10499536
0.057482767
-0.012391947
-0.10599542
-0.2234609
-0.36505927
-0.53111295
-0.72198592
-0.93806622
-1.1797534
-1.4474443
-1.7415233
-2.0623623
-2.4102896
-2.7855506
-3.1882858
-3.6185087
-4.0760787
-4.5606861
-5.0718241
-5.6087458
-6.1704193
-6.7554958
-7.3622891
-7.9887633
-8.6325224
-9.2907971
-9.960436
-10.637919
-11.319375
-12.000526
-12.677281
-13.344361
-13.99703
-14.630551
-15.240329
-15.822004
-16.371526
-16.885242
-17.359941
-17.792871
-18.181771
-18.524853
-18.82077
-19.068587
-19.26768
-19.417626
-19.518171
-19.569142
-19.570557
-19.522421
-19.424732
-19.277563
-19.08119
-18.836069
-18.542791
-18.202301
-17.815932
-17.385457
-16.913118
-16.401669
-15.854283
-15.274624
-14.666784
-14.035083
-13.38418
-12.718689
-12.043443
-11.363741
-10.683668
-10.007532
-9.3391705
-8.6821104
-8.0394086
-7.4138597
-6.8079426
-6.2237158
-5.6628292
-5.1266686
-4.6162675
-4.1324008
-3.6755178
-3.2459609
-2.8438706
-2.4692285
-2.1218751
-1.8015317
-1.5078826
-1.2406343
-0.99940707
-0.78376987
-0.59334195
-0.42770757
-0.28650726
-0.16945857
-0.076227669
-0.0066570347
0.040557105
0.060177158
0.21351795
0.19392586
0.14683468
0.077596727
-0.01520307
-0.13171664
-0.27224044
-0.43711868
-0.62674315
-0.84154174
-1.081962
-1.3484571
-1.64148
-1.9614733
-2.308844
-2.6839322
-3.0869825
-3.5181187
-3.9773164
-4.4643817
-4.9789226
-5.5203037
-6.0875942
-6.6795328
-7.2945083
-7.9305455
-8.5852797
-9.2559235
-9.939253
-10.631626
-11.329008
-12.026992
-12.720924
-13.405557
-14.075812
-14.726625
-15.353067
-15.950462
-16.514482
-17.041262
-17.527455
-17.970235
-18.367334
-18.717052
-19.018187
-19.269971
-19.471957
-19.623885
-19.725651
-19.777212
-19.778627
-19.729894
-19.630976
-19.481868
-19.282639
-19.033569
-18.735119
-18.388032
-17.993484
-17.553207
-17.069396
-16.544888
-15.982994
-15.387629
-14.763138
-14.114134
-13.445629
-12.762663
-12.07031
-11.373794
-10.677787
-9.9867201
-9.3046395
-8.6352002
-7.9815225
-7.3464199
-6.7322949
-6.141169
-5.5746932
-5.0340965
-4.5202794
-4.0339271
-3.5753798
-3.1448998
-2.742491
-2.3680033
-2.021184
-1.7016594
-1.4090512
-1.14296
-0.90297948
-0.6886222
-0.49942526
-0.33496001
-0.19482251
-0.078679139
0.013782923
0.08278341
0.12968326
0.14916414
0.32484966
0.30548684
0.25890185
0.19045707
0.098677244
-0.016612201
-0.15573351
-0.31906017
-0.50702686
-0.72011209
-0.95882315
-1.2236856
-1.5152327
-1.8339941
-2.1804801
-2.5551515
-2.9583825
-3.3904351
-3.8514339
-4.3413381
-4.8599094
-5.4066568
-5.980783
-6.5811524
-7.2062678
-7.854238
-8.5227343
-9.2089529
-9.9095971
-10.62089
-11.338607
-12.058095
-12.77429
-13.481665
-14.174727
-14.847972
-15.496024
-16.113793
-16.696597
-17.240273
-17.741273
-18.196677
-18.604223
-18.962328
-19.269991
-19.526676
-19.732192
-19.886525
-19.989767
-20.042036
-20.043477
-19.994066
-19.89368
-19.742206
-19.539486
-19.285506
-18.980524
-18.625096
-18.220151
-17.76727
-17.268658
-16.727289
-16.14661
-15.530856
-14.884745
-14.213381
-13.52209
-12.816364
-12.10175
-11.383772
-10.66744
-9.9574156
-9.2579814
-8.5729253
-7.9055132
-7.2585382
-6.6343228
-6.0347291
-5.4614064
-4.9154436
-4.397627
-3.9084154
-3.4480205
-3.0165796
-2.6139659
-2.2398718
-1.8938894
-1.5755897
-1.2844684
-1.0200092
-0.78173614
-0.56908186
-0.38150892
-0.21856392
-0.079805617
0.035141935
0.12661072
0.19484803
0.24132043
0.26063824
0.45845616
0.43935572
0.39338904
0.32591164
0.2353856
0.12162033
-0.01573568
-0.17709714
-0.36294984
-0.57383388
-0.81033046
-1.0730478
-1.3626106
-1.6796576
-2.0248255
-2.398717
-2.8018627
-3.2346948
-3.6975253
-4.1905078
-4.7135921
-5.2664698
-5.8485241
-6.4587961
-7.0959432
-7.758184
-8.4432428
-9.1483134
-9.8700356
-10.60449
-11.34722
-12.093269
-12.837184
-13.572908
-14.294445
-14.995715
-15.670765
-16.31397
-16.920174
-17.484815
-18.004064
-18.474888
-18.895056
-19.263149
-19.578449
-19.840763
-20.050266
-20.207285
-20.312167
-20.365217
-20.366703
-20.316591
-20.214614
-20.060476
-19.85379
-19.594199
-19.281566
-18.916134
-18.498592
-18.030316
-17.513464
-16.951161
-16.347121
-15.705929
-15.032819
-14.333442
-13.613693
-12.879616
-12.137208
-11.392656
-10.651344
-9.9181762
-9.1976779
-8.4937433
-7.809747
-7.1484925
-6.5123053
-5.9028599
-5.3215726
-4.7694426
-4.2471684
-3.754925
-3.2927114
-2.8604639
-2.4578775
-2.0845045
-1.7397738
-1.4231631
-1.134021
-0.87171108
-0.63566568
-0.42520593
-0.23972057
-0.078719328
0.05828283
0.17173475
0.26200357
0.32931723
0.37521175
0.39428538
0.6139754
0.5951815
0.54996915
0.48364787
0.39463838
0.28273384
0.14754592
-0.011387483
-0.1946115
-0.40274001
-0.63643739
-0.89640385
-1.1833707
-1.4981043
-1.8413879
-2.2139873
-2.6166208
-3.0499299
-3.514449
-4.0105631
-4.5384523
-5.0980428
-5.68896
-6.3104765
-6.9614465
-7.6402373
-8.344668
-9.0719594
-9.8186959
-10.580802
-11.353563
-12.131664
-12.909243
-13.679473
-14.435742
-15.171229
-15.879258
-16.553493
-17.188142
-17.778116
-18.319216
-18.808267
-19.243116
-19.62259
-19.946378
-20.214781
-20.428476
-20.588246
-20.69478
-20.748609
-20.750137
-20.699328
-20.59577
-20.438929
-20.228091
-19.962472
-19.641392
-19.264566
-18.832324
-18.345819
-17.807168
-17.219535
-16.587124
-15.914904
-15.20876
-14.475144
-13.720671
-12.952095
-12.176014
-11.399345
-10.627972
-9.8672015
-9.1217107
-8.3955659
-7.6922366
-7.014456
-6.3643923
-5.7437659
-5.1536441
-4.5947847
-4.0676661
-3.5722881
-3.1083855
-2.6756012
-2.2734745
-1.9013636
-1.5585284
-1.2442235
-0.95766127
-0.69809505
-0.46482132
-0.25709875
-0.074244245
0.084341924
0.21919412
0.33081931
0.4196388
0.48585054
0.53100612
0.54976878
0.79100207
0.77257009
0.7282485
0.66330074
0.57610705
0.46643992
0.33387055
0.17788268
-0.0021379344
-0.20688419
-0.43710738
-0.69361133
-0.9772524
-1.2889377
-1.6296131
-2.0002349
-2.4017431
-2.8350245
-3.3008699
-3.7999342
-4.3326838
-4.8993472
-5.4998593
-6.1337815
-6.8002192
-7.4977494
-8.2243489
-8.9773153
-9.7531947
-10.547752
-11.355976
-12.172109
-12.989657
-13.801485
-14.599543
-15.376237
-16.123997
-16.835548
-17.504238
-18.124295
-18.69106
-19.201173
-19.652598
-20.044543
-20.377286
-20.651832
-20.869546
-21.03182
-21.13979
-21.194265
-21.19581
-21.144406
-21.03949
-20.880261
-20.665527
-20.39386
-20.06389
-19.674663
-19.225899
-18.718244
-18.153905
-17.536161
-16.869721
-16.160266
-15.414397
-14.639493
-13.843192
-13.032981
-12.216931
-11.402229
-10.595368
-9.8021581
-9.0275475
-8.2758016
-7.5503148
-6.8537996
-6.1882365
-5.5551779
-4.955435
-4.3895336
-3.857557
-3.3591808
-2.8939402
-2.4611568
-2.0601135
-1.6899538
-1.3497351
-1.038473
-0.75521818
-0.49909663
-0.26927116
-0.064915949
0.11474606
0.27041431
0.40268813
0.51211474
0.59914508
0.66400513
0.70828586
0.72670092
0.98904791
0.97103607
0.92776118
0.86443243
0.77938872
0.67237971
0.5429285
0.39045692
0.2142802
0.013626902
-0.2123484
-0.46456348
-0.74401003
-1.0517505
-1.3889135
-1.7566748
-2.1562258
-2.5887288
-3.0552683
-3.5568179
-4.0942016
-4.6680265
-5.2786014
-5.9258433
-6.6091909
-7.3275204
-8.0790431
-8.8611899
-9.6705151
-10.502647
-11.352265
-12.213123
-13.07807
-13.939196
-14.786971
-15.612854
-16.408079
-17.16412
-17.873189
-18.52862
-19.125155
-19.659176
-20.12882
-20.53386
-20.875438
-21.155566
-21.376582
-21.540694
-21.649623
-21.704488
-21.706032
-21.654291
-21.548541
-21.387605
-21.169713
-20.892623
-20.55394
-20.151634
-19.684682
-19.153142
-18.558996
-17.905804
-17.198872
-16.444871
-15.651583
-14.827506
-13.981453
-13.121946
-12.2585
-11.399055
-10.550776
-9.7199845
-8.9118921
-8.1309302
-7.3805302
-6.6632324
-5.9808492
-5.3345345
-4.7247744
-4.1517109
-3.6150411
-3.1141135
-2.6481282
-2.2161083
-1.816973
-1.4496351
-1.1129002
-0.80556609
-0.52651537
-0.27469795
-0.049127822
0.15113982
0.32699113
0.4791992
0.60842179
0.7152289
0.80012202
0.86337384
0.90661843
0.9246256
1.2075369
1.1900078
1.1479621
1.0865245
1.003999
0.90010713
0.77431624
0.62598834
0.45437336
0.25861859
0.037775947
-0.20919281
-0.48341878
-0.78613524
-1.1186796
-1.482473
-1.8789791
-2.3096621
-2.7759473
-3.2791929
-3.8206531
-4.4013855
-5.022146
-5.6832994
-6.3847289
-7.1257191
-7.9048097
-8.7196502
-9.5668825
-10.442049
-11.33954
-12.252579
-13.173313
-14.092785
-14.999239
-15.883565
-16.735276
-17.544181
-18.301
-18.997848
-19.628629
-20.18938
-20.67848
-21.096528
-21.44592
-21.730166
-21.953032
-22.117839
-22.227006
-22.281971
-22.283569
-22.231853
-22.125984
-21.964442
-21.744806
-21.4637
-21.117296
-20.702093
-20.2157
-19.657441
-19.028998
-18.334356
-17.579634
-16.77271
-15.922898
-15.040365
-14.135599
-13.217679
-12.298444
-11.386852
-10.490741
-9.6168652
-8.7708914
-7.9572795
-7.1793597
-6.4394171
-5.738969
-5.0787221
-4.4587549
-3.8787832
-3.3379837
-2.8353101
-2.3695537
-1.9393371
-1.543239
-1.1798568
-0.84770284
-0.54535834
-0.2715165
-0.024955576
0.19546773
0.39084891
0.56218189
0.71028972
0.83590003
0.93963544
1.0220549
1.0834429
1.1254616
1.1429864
1.4458056
1.4288335
1.3882127
1.3289674
1.2493573
1.1490701
1.027526
0.88403575
0.71778461
0.52783465
0.31313316
0.072519044
-0.19528753
-0.49170731
-0.81830602
-1.1767687
-1.5688478
-1.9963379
-2.4610633
-2.9648407
-3.5094175
-4.0963714
-4.7270026
-5.4022471
-6.1225634
-6.8877725
-7.6968782
-8.5478914
-9.4376561
-10.361689
-11.314073
-12.287452
-13.273251
-14.262619
-15.237408
-16.191194
-17.110191
-17.981975
-18.7953
-19.5406
-20.210598
-20.800837
-21.310013
-21.73989
-22.094745
-22.380367
-22.602679
-22.766532
-22.87509
-22.929904
-22.931625
-22.880229
-22.775047
-22.614502
-22.395447
-22.113018
-21.761214
-21.334307
-20.827936
-20.240274
-19.572569
-18.829473
-18.018222
-17.148364
-16.231224
-15.27924
-14.306261
-13.318236
-12.333891
-11.36198
-10.411044
-9.4883124
-8.5997992
-7.7500165
-6.9420785
-6.1779352
-5.4586163
-4.7842329
-4.1543739
-3.5681595
-3.0242356
-2.5209947
-2.0567451
-1.6296605
-1.2379807
-0.87994007
-0.55373038
-0.25767264
0.0097545918
0.24996255
0.46427619
0.65390561
0.81991064
0.9632025
1.0845995
1.184784
1.2643475
1.3235731
1.3641638
1.3811287
1.7031025
1.6867656
1.6477883
1.5910496
1.5147685
1.4186066
1.3019494
1.1640618
1.0040624
0.82092729
0.61350439
0.38051041
0.12050246
-0.16814534
-0.48723279
-0.83871164
-1.2246483
-1.6472076
-2.1086663
-2.6113624
-3.1575981
-3.7495565
-4.3892063
-5.078196
-5.8177089
-6.6082729
-7.4495466
-8.3400796
-9.277063
-10.256101
-11.271027
-12.313764
-13.374105
-14.438986
-15.501257
-16.538991
-17.538524
-18.485343
-19.36573
-20.167864
-20.882788
-21.505219
-22.034145
-22.472988
-22.828933
-23.111339
-23.329463
-23.490302
-23.597547
-23.652108
-23.653894
-23.602881
-23.499093
-23.341623
-23.126803
-22.84763
-22.494806
-22.05896
-21.532937
-20.913252
-20.200762
-19.400832
-18.522498
-17.577591
-16.579824
-15.543746
-14.482937
-13.419771
-12.360882
-11.319599
-10.306151
-9.3285101
-8.3928166
-7.503515
-6.6633968
-5.8738444
-5.1353056
-4.4471284
-3.8082108
-3.2169481
-2.6713308
-2.1691668
-1.7081532
-1.2859779
-0.90044035
-0.54938036
-0.23068667
0.057597582
0.31724177
0.54986877
0.7569691
0.93984289
1.0996319
1.2373542
1.3538988
1.4500063
1.5262857
1.5830249
1.6219791
1.6383109
1.9785837
1.96297
1.9258606
1.8719493
1.7994301
1.7079538
1.5968778
1.4654217
1.3126406
1.1374335
0.93855414
0.71459393
0.46394051
0.18475768
-0.12498921
-0.46751517
-0.84522511
-1.2607084
-1.7167326
-2.2161976
-2.7620379
-3.3571517
-4.0043121
-4.7060341
-5.4644087
-6.2808876
-7.1560183
-8.0891301
-9.0779952
-10.118524
-11.204508
-12.327364
-13.475955
-14.636789
-15.795567
-16.93179
-18.027389
-19.064015
-20.024447
-20.893762
-21.660487
-22.317805
-22.864779
-23.307124
-23.656565
-23.928306
-24.136993
-24.2926
-24.39858
-24.453534
-24.455313
-24.403947
-24.301523
-24.149411
-23.944168
-23.67569
-23.329457
-22.890116
-22.346141
-21.691615
-20.927467
-20.060403
-19.101989
-18.067295
-16.9735
-15.838982
-14.681793
-13.522624
-12.375521
-11.254084
-10.169471
-9.1302933
-8.142698
-7.2108256
-6.3368166
-5.5213305
-4.7638568
-4.0629119
-3.4164596
-2.8220101
-2.2767818
-1.7778599
-1.3222789
-0.9071813
-0.52985931
-0.18774811
0.12160761
0.40046013
0.65080285
0.87445753
1.073075
1.248074
1.400704
1.5320552
1.6430627
1.734512
1.8070417
1.8609616
1.8980728
1.9136899
2.2713099
2.2565145
2.2214909
2.1707385
2.102441
2.0162459
1.9114869
1.7873413
1.642812
1.4767386
1.287785
1.0744116
0.83484032
0.56704404
0.26875936
-0.062508435
-0.42952116
-0.83532311
-1.2832069
-1.7766723
-2.3193753
-2.9150513
-3.5674138
-4.280016
-5.0560797
-5.89825
-6.8082508
-7.7864861
-8.8316557
-9.9403517
-11.106594
-12.32139
-13.57248
-14.844507
-16.11971
-17.373789
-18.584965
-19.729903
-20.786831
-21.736579
-22.563847
-23.258992
-23.820402
-24.25671
-24.586783
-24.835739
-25.027396
-25.176178
-25.283536
-25.341853
-25.343631
-25.288938
-25.185248
-25.040101
-24.852097
-24.606598
-24.279787
-23.846489
-23.287983
-22.595612
-21.770983
-20.82365
-19.768775
-18.625706
-17.41639
-16.16408
-14.890556
-13.620165
-12.370634
-11.157266
-9.9923293
-8.8848778
-7.8409013
-6.8639176
-5.9550333
-5.1138123
-4.3385903
-3.6267094
-2.9750441
-2.3800324
-1.8379699
-1.3450412
-0.8975885
-0.49217849
-0.12554776
0.20531366
0.50322752
0.77074365
1.0100762
1.2232313
1.4120067
1.5779386
1.7223699
1.8464631
1.9512096
2.0373994
2.1057037
2.1564646
2.1915137
2.2063178
2.5802321
2.5663477
2.5336365
2.486384
2.4227872
2.3424911
2.2448081
2.128889
1.9937042
1.8380473
1.6604986
1.4593944
1.2328108
0.97855519
0.6941471
0.37679309
0.023359137
-0.36965375
-0.80608616
-1.2900944
-1.8261397
-2.4189062
-3.0731889
-3.7937806
-4.5852926
-5.4518548
-6.396716
-7.421794
-8.5272068
-9.7106985
-10.966907
-12.286693
-13.656667
-15.058951
-16.4711
-17.869365
-19.220922
-20.497687
-21.672289
-22.719963
-23.619757
-24.356759
-24.926545
-25.340815
-25.629625
-25.835433
-25.998935
-26.14214
-26.260375
-26.330648
-26.332585
-26.266129
-26.151646
-26.012234
-25.8525
-25.650442
-25.365046
-24.953828
-24.386804
-23.652448
-22.755164
-21.709997
-20.537644
-19.262694
-17.912879
-16.516342
-15.105986
-13.705368
-12.336958
-11.018646
-9.7637706
-8.5814496
-7.4771586
-6.4532459
-5.5095
-4.6439003
-3.8531991
-3.1332994
-2.4797011
-1.8876338
-1.3522537
-0.86876073
-0.43273266
-0.040088104
0.31300611
0.63000622
0.91408333
1.1680894
1.3945057
1.5955013
1.7729779
1.9285819
2.0637179
2.1796167
2.2773214
2.35763
2.4212421
2.4685111
2.5012508
2.5151432
2.9041814
2.8913019
2.8611369
2.8177362
2.7593215
2.6855464
2.5957098
2.4889596
2.3642586
2.2203596
2.0557727
1.8687382
1.6572224
1.4188903
1.1510471
0.8506029
0.51406286
0.13748611
-0.28353692
-0.75387857
-1.2788661
-1.8642235
-2.5159845
-3.2404013
-4.0437417
-4.93195
-5.9102449
-6.982648
-8.1513402
-9.4158333
-10.772036
-12.211274
-13.719363
-15.275969
-16.854757
-18.424953
-19.947051
-21.385325
-22.704885
-23.874146
-24.864301
-25.650686
-26.220481
-26.586333
-26.795569
-26.922418
-27.040843
-27.187411
-27.342208
-27.445972
-27.448169
-27.348675
-27.197817
-27.055103
-26.940561
-26.817617
-26.612172
-26.249638
-25.682584
-24.898561
-23.910588
-22.743543
-21.426206
-19.989869
-18.469405
-16.900761
-15.323675
-13.768914
-12.262509
-10.824816
-9.4699314
-8.2066155
-7.0390238
-5.9677652
-4.9905348
-4.1033081
-3.3008106
-2.5771046
-1.9260201
-1.341359
-0.81702981
-0.34718072
0.073484381
0.44973972
0.78599233
1.0861672
1.3537765
1.5919388
1.8033682
1.9903807
2.1549832
2.2989162
2.4236337
2.5304
2.620264
2.6940655
2.7525155
2.7959509
2.8261364
2.8390287
3.2418755
3.2300958
3.2027034
3.1635024
3.1107452
3.0441028
2.962888
2.8662687
2.7532131
2.6224489
2.4724449
2.3013874
2.1071706
1.8873365
1.6389937
1.358788
1.0428926
0.68694432
0.28595634
-0.16568959
-0.67422691
-1.2465033
-1.8899487
-2.6124777
-3.4222789
-4.3275125
-5.3359269
-6.4543212
-7.6877276
-9.0383741
-10.504493
-12.078828
-13.746999
-15.486151
-17.264651
-19.042798
-20.776599
-22.414294
-23.91356
-25.236579
-26.345577
-27.198479
-27.760101
-28.034581
-28.095143
-28.076465
-28.121581
-28.298314
-28.552167
-28.740879
-28.743273
-28.55917
-28.309667
-28.137035
-28.095998
-28.118776
-28.062301
-27.791517
-27.232827
-26.382049
-25.274742
-23.953392
-22.455997
-20.820241
-19.088137
-17.311533
-15.534534
-13.79721
-12.130908
-10.558252
-9.093486
-7.7440259
-6.511768
-5.3945338
-4.3871961
-3.4829551
-2.6740262
-1.9522403
-1.3094941
-0.7378871
-0.22995136
0.22126517
0.62196602
0.97764669
1.2933027
1.5733318
1.8215597
2.0413475
2.2355958
2.4067253
2.5568195
2.6876717
2.8008135
2.8975003
2.978753
3.045435
3.098244
3.137495
3.1649107
3.1767227
3.5919252
3.581333
3.556917
3.522241
3.4755955
3.4166852
3.3448651
3.2593393
3.1590919
3.0428527
2.9090912
2.755995
2.5814174
2.3827992
2.1571009
1.9007734
1.6096969
1.2790987
0.90344453
0.47639387
-0.0092180733
-0.56144042
-1.189217
-1.9022898
-2.7110523
-3.6263377
-4.6590366
-5.8194733
-7.1165461
-8.556548
-10.141532
-11.867149
-13.720112
-15.675831
-17.696967
-19.733722
-21.72727
-23.610667
-25.331499
-26.850357
-28.125488
-29.086122
-29.641442
-29.756512
-29.539321
-29.243243
-29.161089
-29.433599
-29.93409
-30.327357
-30.329772
-29.941167
-29.445374
-29.177419
-29.26415
-29.56474
-29.786346
-29.675327
-29.123101
-28.164475
-26.890549
-25.372729
-23.653281
-21.771612
-19.779763
-17.744634
-15.725026
-13.771009
-11.920002
-10.196202
-8.6127437
-7.173985
-5.8781189
-4.7189068
-3.6873337
-2.7730622
-1.9651586
-1.2528501
-0.62578842
-0.074189182
0.41090894
0.83762345
1.2130814
1.5434985
1.834413
2.0906602
2.3163624
2.5150695
2.6898052
2.8430703
2.9769953
3.0933815
3.1937927
3.2794403
3.3513375
3.4103057
3.4570117
3.4917435
3.5161948
3.5268376
3.9528546
3.9435074
3.9222385
3.8923776
3.8522676
3.8016706
3.7399971
3.6664987
3.5801934
3.4798536
3.3640022
3.2308746
3.0783207
2.9037331
2.7039998
2.4754471
2.2137306
1.9137097
1.5693657
1.1736948
0.71860444
0.19481327
-0.40818474
-1.1020964
-1.899808
-2.8152583
-3.8630747
-5.057981
-6.4140153
-7.9432468
-9.6536259
-11.546082
-13.610965
-15.823833
-18.141573
-20.500406
-22.818319
-25.00691
-26.994074
-28.755911
-30.274578
-31.442793
-32.036953
-31.889741
-31.141003
-30.288977
-29.958988
-30.476371
-31.569443
-32.438796
-32.44123
-31.576605
-30.488113
-29.975353
-30.310758
-31.168039
-31.921771
-32.073501
-31.482606
-30.316201
-28.798158
-27.036603
-25.050212
-22.863198
-20.546982
-18.189721
-15.873597
-13.662559
-11.59973
-9.7092534
-8.0006247
-6.4728287
-5.1180716
-3.9244173
-2.8777719
-1.9633597
-1.1664832
-0.47331171
0.12899175
0.65222044
1.1069135
1.5023582
1.8466019
2.1465503
2.4082122
2.6367948
2.8366586
3.0114566
3.1642725
3.2976693
3.4137748
3.514357
3.6008997
3.6745653
3.7363649
3.7870617
3.8272631
3.8571949
3.8785221
3.8879236
4.3231858
4.3150199
4.2970115
4.2722203
4.2390382
4.1972977
4.1464717
4.0858667
4.0145706
3.9314542
3.8351426
3.7239521
3.5957876
3.4480872
3.2777563
3.081064
2.853528
2.5897586
2.2833431
1.9266879
1.5108321
1.0253222
0.45811045
-0.20457904
-0.97833919
-1.8805302
-2.9300695
-4.1470759
-5.5521725
-7.1651266
-9.0025614
-11.07448
-13.379272
-15.896944
-18.580653
-21.3496
-24.086531
-26.653428
-28.938745
-30.966515
-32.843261
-34.460474
-35.278563
-34.72351
-32.921501
-30.921428
-30.075171
-31.169742
-33.638586
-35.649606
-35.65198
-33.646396
-31.181866
-30.090955
-30.943464
-32.949595
-34.757699
-35.318506
-34.503792
-32.887698
-31.010584
-28.982069
-26.696826
-24.131279
-21.396266
-18.629157
-15.947313
-13.431685
-11.12908
-9.0592647
-7.2237627
-5.612444
-4.2087744
-2.9930614
-1.944707
-1.0435712
-0.27064831
0.39133986
0.95791068
1.4429544
1.8585754
2.2151432
2.5215526
2.7853599
3.0129684
3.2098092
3.3803914
3.5284036
3.6569244
3.7684911
3.8651613
3.9486253
4.0202229
4.0810701
4.1320902
4.1739919
4.2073076
4.2321964
4.2502949
4.2585147
4.7012645
4.6941275
4.679461
4.6599623
4.6340593
4.6016547
4.562287
4.5153418
4.4600255
4.3953576
4.3201052
4.2327132
4.1312347
4.0132497
3.8757771
3.7151237
3.5267826
3.3052822
3.0439407
2.7346887
2.3678534
1.9319565
1.4134759
0.79657369
0.062908989
-0.80847869
-1.8412714
-3.0618611
-4.498865
-6.1819601
-8.1399086
-10.396986
-12.966555
-15.841087
-18.978224
-22.282945
-25.58708
-28.643033
-31.221734
-33.41264
-35.754195
-38.381822
-40.00906
-38.924736
-34.997371
-30.594457
-28.592418
-30.943689
-36.608481
-41.540912
-41.543982
-36.618696
-30.957092
-28.607115
-30.616598
-35.025411
-38.960535
-40.053813
-38.430326
-35.802127
-33.458582
-31.265217
-28.686098
-25.63161
-22.329643
-19.02704
-15.892073
-13.019904
-10.452681
-8.1978158
-6.2419503
-4.5606906
-3.1252993
-1.9060907
-0.87447043
-0.0041250864
0.72869918
1.3449448
1.8628756
2.298432
2.6651759
2.9744813
3.2359519
3.4576171
3.6461483
3.8070621
3.9449044
4.063316
4.1652656
4.2531476
4.3288639
4.3939596
4.4496486
4.4969452
4.5366088
4.5692536
4.5953238
4.6149552
4.629744
4.6369409
5.0850201
5.0788949
5.0676886
5.0536914
5.0353525
5.0126709
4.9852543
4.9526088
4.9141081
4.8689543
4.8161
4.7542013
4.6815607
4.5959902
4.4947224
4.3742481
4.2301955
4.0571661
3.8483983
3.5955451
3.2884666
2.9148814
2.4599582
1.9059851
1.2320362
0.41354097
-0.5781988
-1.7763668
-3.218659
-4.9468435
-7.0056494
-9.4400807
-12.288627
-15.57031
-19.264957
-23.281954
-27.406701
-31.198621
-34.027604
-35.853872
-38.42768
-43.293622
-47.569178
-46.3687
-37.882218
-27.990101
-23.244564
-28.272044
-40.827196
-48.661971
-48.66635
-40.839036
-28.286638
-23.260409
-28.017015
-37.907376
-46.404337
-47.620325
-43.350366
-38.48014
-35.901166
-34.069507
-31.24019
-27.450738
-23.328746
-19.314145
-15.621976
-12.342976
-9.4969962
-7.0649447
-5.0083724
-3.2821833
-1.8416798
-0.6450187
0.345546
1.1630728
1.8362319
2.3895942
2.8440613
3.2174391
3.5245579
3.7775933
3.9866282
4.1599536
4.3043233
4.4251963
4.5269692
4.6131123
4.6863561
4.7488513
4.8022707
4.8479215
4.8868847
4.9199868
4.9478121
4.970821
4.9893746
5.0035568
5.014909
5.0211122
5.472343
5.4673014
5.4596897
5.4513922
5.4408254
5.4281295
5.4130211
5.3951606
5.3741237
5.3493291
5.3199791
5.2850376
5.2431314
5.1924107
5.1304383
5.0540776
4.9592977
4.8409255
4.6923707
4.5053196
4.2694636
3.9720129
3.5971786
3.1257601
2.5345934
1.7957662
0.87576182
-0.26536769
-1.6748664
-3.4080042
-5.5286782
-8.1095617
-11.227514
-14.948538
-19.304931
-24.261719
-29.643293
-34.807765
-38.074575
-37.886073
-38.638886
-48.179393
-61.033327
-61.884971
-40.139505
-17.932431
-8.2043062
-19.856795
-44.685876
-61.375478
-61.383201
-44.68921
-19.863732
-8.249744
-17.982595
-40.15072
-61.9139
-61.091011
-48.24831
-38.701107
-37.9349
-38.110353
-34.845988
-29.686612
-24.308706
-19.354603
-15.001052
-11.28298
-8.1678573
-5.5895727
-3.4713046
-1.7403177
-0.33275305
0.80678422
1.7256408
2.4635945
3.0540339
3.5248766
3.8993442
4.1967235
4.4327644
4.6201296
4.7690711
4.8878732
4.983139
5.0600785
5.1227078
5.1741516
5.2167964
5.2524446
5.2824618
5.3078622
5.3294743
5.3478693
5.3634717
5.3765688
5.3874339
5.3959843
5.4037718
5.4089186
5.8612908
5.8572365
5.853398
5.8509647
5.8482805
5.8457074
5.8431027
5.8403264
5.8371676
5.8333052
5.8282715
5.8214064
5.8117445
5.7978955
5.7779115
5.7492096
5.7083101
5.6505173
5.5696994
5.4579531
5.305164
5.0984466
4.8215952
4.4544909
3.9722828
3.3443627
2.5331839
1.4928005
0.1669956
-1.5128433
-3.6307102
-6.2914591
-9.6240241
-13.767993
-18.84923
-24.95999
-32.18771
-40.208297
-45.381313
-39.987487
-30.345799
-46.690075
-85.249272
-94.975746
-52.502204
9.2175909
31.419976
13.709705
-41.144104
-74.726726
-74.76134
-41.177333
13.669
31.371245
9.1904006
-52.494583
-95.005577
-85.324541
-46.77538
-30.43139
-40.03422
-45.414546
-40.244002
-32.231
-25.007531
-18.899868
-13.821762
-9.6808423
-6.3513221
-3.6934467
-1.5781756
0.099371203
1.4231341
2.4618924
3.2719629
3.8990574
4.3805834
4.7471814
5.0237864
5.2305628
5.3836727
5.4958884
5.577239
5.6356237
5.6772154
5.7066877
5.7274923
5.742227
5.7527822
5.7604885
5.7662979
5.7709051
5.7747664
5.7781665
5.7813292
5.7843636
5.7874358
5.7901692
5.794213
5.7984007
6.2500475
6.2464307
6.2467762
6.2502804
6.2554487
6.2630061
6.2729345
6.2853098
6.3001651
6.3174854
6.3371917
6.359063
6.3826347
6.4071099
6.4312293
6.4531265
6.4700694
6.4781948
6.4721894
6.4449354
6.3869731
6.2859025
6.1257518
5.8862242
5.5416203
5.0596446
4.4000275
3.5125189
2.3339823
0.78481479
-1.2358048
-3.8620517
-7.283015
-11.741666
-17.500888
-24.826458
-34.339118
-47.846717
-60.735746
-49.267412
-10.805652
-3.8306183
-78.326877
-137.7856
-97.592803
34.174314
177.62027
163.50167
40.554497
49.364289
49.284076
40.366161
163.3246
177.54349
34.256002
-97.623863
-137.82059
-78.274529
-3.9361032
-10.928147
-49.243408
-60.760295
-47.881412
-34.383609
-24.875161
-17.553354
-11.7971
-7.3414122
-3.9236856
-1.3005959
0.71719179
2.2638998
3.4403094
4.3261725
4.9846853
5.4658671
5.8098499
6.0489691
6.2090204
6.310325
6.3687759
6.3966763
6.4033906
6.3960505
6.3800267
6.3591219
6.3360203
6.3126098
6.2901153
6.2692523
6.2504568
6.2340151
6.2199761
6.2083311
6.1990242
6.1919831
6.187255
6.1840831
6.1839646
6.187746
6.635818
6.6332355
6.6380438
6.647064
6.6600428
6.6775908
6.6998829
6.7272149
6.7598937
6.7982598
6.842673
6.8933937
6.9505441
7.0140784
7.0835884
7.1581292
7.2359813
7.3144265
7.3894005
7.4550001
7.5029949
7.5221735
7.4975625
7.4095487
7.232671
6.934259
6.4729997
5.7968453
4.8393266
3.5147252
1.7135199
-0.71314193
-4.0030818
-8.5183049
-14.696766
-22.995666
-34.187153
-54.879866
-89.208435
-84.634856
37.114921
150.39313
146.30312
-74.467877
321.85412
42.416238
-155.8554
-177.93547
1732.8917
6873.6677
6874.2417
1733.6787
-177.54481
-155.90788
42.307567
321.78304
-74.482755
146.19124
150.23927
36.921136
-84.747709
-89.389115
-54.923883
-34.238145
-23.049981
-14.75277
-8.5757127
-4.0632058
-0.77672857
1.6464711
3.4444905
4.7663835
5.7217199
6.3962354
6.8563633
7.1540228
7.3303893
7.4181238
7.4427959
7.4240646
7.3767794
7.3120447
7.2380049
7.1605856
7.0838925
7.010602
6.942361
6.8800869
6.8241892
6.7746536
6.7313319
6.6939812
6.6622299
6.6357279
6.614136
6.5971638
6.584644
6.5759883
6.5714263
6.5741973
7.0161205
7.0161931
7.0248834
7.0393493
7.0598563
7.0870492
7.1212883
7.1630808
7.2130283
7.2718576
7.3403755
7.4193983
7.5097372
7.6121849
7.7273489
7.8554111
7.9959797
8.1478027
8.3084858
8.4738815
8.6376634
8.7906011
8.9196114
9.0067706
9.0280616
8.9518738
8.7375928
8.3340215
7.6759492
6.6787398
5.2360473
3.2162369
0.39527575
-3.6907678