/*--------------------------------*- C++ -*----------------------------------*\
  =========                 |
  \\      /  F ield         | OpenFOAM: The Open Source CFD Toolbox
   \\    /   O peration     | Website:  https://openfoam.org
    \\  /    A nd           | Version:  9
     \\/     M anipulation  |
\*---------------------------------------------------------------------------*/
FoamFile
{
    format      ascii;
    class       volVectorField;
    location    "0.09";
    object      U;
}
// * * * * * * * * * * * * * * * * * * * * * * * * * * * * * * * * * * * * * //

dimensions      [0 1 -1 0 0 0 0];

internalField   nonuniform List<vector> 
10000
(
(-0.0081315998 0.0082665157 0)
(-0.017393961 0.0082489788 0)
(-0.021849936 0.0082847279 0)
(-0.027675938 0.0083141038 0)
(-0.033387981 0.0083544051 0)
(-0.039135855 0.0083991362 0)
(-0.044920008 0.0084465323 0)
(-0.050744063 0.0084954265 0)
(-0.056608472 0.0085434043 0)
(-0.062512958 0.0085855821 0)
(-0.068455823 0.0086187927 0)
(-0.074432021 0.0086400545 0)
(-0.080436578 0.0086431296 0)
(-0.086460894 0.0086262985 0)
(-0.092486817 0.0085861131 0)
(-0.098500455 0.0085135057 0)
(-0.1044868 0.0084047266 0)
(-0.11042045 0.0082565825 0)
(-0.11627273 0.0080621719 0)
(-0.12201409 0.0078142989 0)
(-0.1276115 0.0075084314 0)
(-0.1330245 0.0071407123 0)
(-0.13820936 0.0067043875 0)
(-0.14311971 0.0061944623 0)
(-0.14770416 0.0056077485 0)
(-0.15190591 0.0049431003 0)
(-0.15566385 0.0041981742 0)
(-0.1589124 0.0033708591 0)
(-0.16157904 0.0024610378 0)
(-0.1635747 0.0014665067 0)
(-0.16480269 0.00036978602 0)
(-0.16533298 -0.00086885115 0)
(-0.16515269 -0.0021472101 0)
(-0.1640622 -0.0034620641 0)
(-0.16196107 -0.0048254206 0)
(-0.15880614 -0.0062403401 0)
(-0.15457157 -0.007696979 0)
(-0.14923209 -0.0091778738 0)
(-0.14276876 -0.010663897 0)
(-0.13517618 -0.012134673 0)
(-0.12646398 -0.013567257 0)
(-0.11665746 -0.014935919 0)
(-0.10579877 -0.016216248 0)
(-0.093949303 -0.017386035 0)
(-0.081190638 -0.018426046 0)
(-0.067623095 -0.019318149 0)
(-0.053365568 -0.02004214 0)
(-0.038546823 -0.020582438 0)
(-0.023304998 -0.020934285 0)
(-0.0077955647 -0.021101227 0)
(0.007822414 -0.021101119 0)
(0.023331828 -0.020933925 0)
(0.038572996 -0.020581862 0)
(0.053390883 -0.020041435 0)
(0.067646848 -0.019317368 0)
(0.081212545 -0.018424743 0)
(0.093969618 -0.017384992 0)
(0.1058173 -0.016215018 0)
(0.1166743 -0.014934389 0)
(0.12647933 -0.013565643 0)
(0.13518994 -0.012133006 0)
(0.1427812 -0.010662414 0)
(0.14924291 -0.0091766329 0)
(0.15458063 -0.007695818 0)
(0.15881374 -0.0062395191 0)
(0.16196658 -0.0048248027 0)
(0.16406544 -0.0034615541 0)
(0.16515373 -0.0021466632 0)
(0.16533188 -0.00086805366 0)
(0.16479987 0.00037097482 0)
(0.1635704 0.0014679526 0)
(0.16157347 0.0024622957 0)
(0.15890551 0.0033713246 0)
(0.15565509 0.0041977822 0)
(0.15189411 0.0049429793 0)
(0.14769033 0.0056088303 0)
(0.14310625 0.0061958838 0)
(0.13819663 0.0067045585 0)
(0.1330108 0.0071392735 0)
(0.12759545 0.0075065929 0)
(0.12199677 0.0078131288 0)
(0.11625636 0.008061378 0)
(0.11040559 0.0082557421 0)
(0.10447238 0.0084032542 0)
(0.098486246 0.0085112143 0)
(0.09247205 0.0085830439 0)
(0.086446339 0.008623475 0)
(0.08042434 0.0086402099 0)
(0.074421942 0.0086364796 0)
(0.068447585 0.0086146094 0)
(0.062507286 0.0085809098 0)
(0.05660616 0.008537861 0)
(0.050745799 0.0084889839 0)
(0.044926837 0.0084390721 0)
(0.03914896 0.0083896105 0)
(0.033408256 0.0083421589 0)
(0.027705665 0.0082984535 0)
(0.021877405 0.0082621006 0)
(0.017451219 0.0082258628 0)
(0.0081779072 0.0082212611 0)
(-0.0081546361 0.017409037 0)
(-0.017383895 0.017395247 0)
(-0.02178836 0.017463765 0)
(-0.027605233 0.017527801 0)
(-0.033298793 0.017611543 0)
(-0.039036796 0.017709022 0)
(-0.044814244 0.017815579 0)
(-0.050635302 0.017925862 0)
(-0.056504027 0.018034166 0)
(-0.062420804 0.018134784 0)
(-0.068381873 0.018220533 0)
(-0.074385473 0.018283305 0)
(-0.080425259 0.018315809 0)
(-0.086489825 0.018309385 0)
(-0.092568184 0.018253841 0)
(-0.098646841 0.018137288 0)
(-0.1047052 0.017951462 0)
(-0.11072099 0.017682838 0)
(-0.11666949 0.017319924 0)
(-0.12251914 0.016851619 0)
(-0.12823377 0.01626467 0)
(-0.13377538 0.015546382 0)
(-0.13910154 0.014685371 0)
(-0.14416271 0.013670471 0)
(-0.14890385 0.012491458 0)
(-0.15326745 0.011138478 0)
(-0.15719348 0.0096037832 0)
(-0.16061407 0.0078819756 0)
(-0.16345627 0.0059679167 0)
(-0.16564645 0.0038562326 0)
(-0.16712053 0.0015230603 0)
(-0.16782303 -0.0010705196 0)
(-0.16770528 -0.0038078337 0)
(-0.16668544 -0.0066549771 0)
(-0.16466939 -0.0096161028 0)
(-0.16159291 -0.01268783 0)
(-0.15741057 -0.015848723 0)
(-0.15208846 -0.019065346 0)
(-0.14560505 -0.022298757 0)
(-0.13795152 -0.02550452 0)
(-0.12913353 -0.028634604 0)
(-0.1191756 -0.031639467 0)
(-0.1081228 -0.034469167 0)
(-0.096040586 -0.03707286 0)
(-0.08301433 -0.039401674 0)
(-0.069145299 -0.04141132 0)
(-0.054554946 -0.043064169 0)
(-0.039384731 -0.044325976 0)
(-0.02379075 -0.045175894 0)
(-0.0079506958 -0.045603238 0)
(0.0079795674 -0.045602945 0)
(0.023819596 -0.045174992 0)
(0.039412845 -0.044324611 0)
(0.05458208 -0.043062607 0)
(0.069171173 -0.041409627 0)
(0.083037969 -0.039399575 0)
(0.096062306 -0.037070462 0)
(0.10814303 -0.034466353 0)
(0.11919385 -0.031636283 0)
(0.12914991 -0.028631357 0)
(0.13796587 -0.025501184 0)
(0.14561771 -0.022295425 0)
(0.15209961 -0.019062246 0)
(0.15741985 -0.015845663 0)
(0.16160053 -0.012685137 0)
(0.16467497 -0.0096136091 0)
(0.16668887 -0.0066524772 0)
(0.16770684 -0.0038052951 0)
(0.16782273 -0.0010677419 0)
(0.16711846 0.0015257393 0)
(0.1656424 0.0038588576 0)
(0.1634499 0.0059704956 0)
(0.1606058 0.0078843558 0)
(0.15718443 0.0096058133 0)
(0.15325738 0.011140228 0)
(0.14889183 0.012493197 0)
(0.14414878 0.013671568 0)
(0.13908644 0.014685121 0)
(0.13375987 0.015545073 0)
(0.12821782 0.016263314 0)
(0.12250259 0.016850587 0)
(0.11665319 0.017318594 0)
(0.11070505 0.017680221 0)
(0.10468853 0.017947725 0)
(0.098629806 0.01813309 0)
(0.092551359 0.018249172 0)
(0.086473858 0.018304847 0)
(0.080410831 0.018310744 0)
(0.074372755 0.018277084 0)
(0.068371237 0.018213052 0)
(0.062412615 0.018125853 0)
(0.056498779 0.018023614 0)
(0.050633674 0.017913085 0)
(0.044815994 0.017800147 0)
(0.039042249 0.017690622 0)
(0.033308955 0.017589057 0)
(0.02761914 0.01749978 0)
(0.021800265 0.0174287 0)
(0.017406788 0.017359774 0)
(0.0081722636 0.017346837 0)
(-0.0081528204 0.022018122 0)
(-0.017347968 0.022034834 0)
(-0.021718433 0.022116197 0)
(-0.027523303 0.022205399 0)
(-0.033196721 0.022318355 0)
(-0.03891809 0.022450515 0)
(-0.044686056 0.022596424 0)
(-0.050505446 0.022749279 0)
(-0.056377469 0.022901515 0)
(-0.062303403 0.023046782 0)
(-0.068283365 0.023176635 0)
(-0.074312738 0.023279826 0)
(-0.080387266 0.023348389 0)
(-0.086500315 0.023370087 0)
(-0.092637692 0.023330813 0)
(-0.098783724 0.023217885 0)
(-0.10492446 0.023020508 0)
(-0.11103752 0.022720208 0)
(-0.11709244 0.022302793 0)
(-0.12306127 0.021753822 0)
(-0.12891184 0.021057184 0)
(-0.13460192 0.020195591 0)
(-0.14008649 0.019154664 0)
(-0.14531747 0.017919953 0)
(-0.15024166 0.016477453 0)
(-0.15479935 0.014812974 0)
(-0.15892486 0.012915981 0)
(-0.16254974 0.010778827 0)
(-0.16560132 0.0083928666 0)
(-0.16801054 0.0057509042 0)
(-0.16971691 0.0028468607 0)
(-0.17064858 -0.00031614157 0)
(-0.17071895 -0.0037236665 0)
(-0.16984958 -0.0073412365 0)
(-0.16797081 -0.011146213 0)
(-0.16501392 -0.015117093 0)
(-0.16092296 -0.019220914 0)
(-0.15565514 -0.023417125 0)
(-0.14918046 -0.027656346 0)
(-0.14148437 -0.031881357 0)
(-0.1325713 -0.03602898 0)
(-0.12246452 -0.040033181 0)
(-0.11120501 -0.043827384 0)
(-0.09885533 -0.047340027 0)
(-0.085503817 -0.050503016 0)
(-0.071261517 -0.053251337 0)
(-0.056257394 -0.055529237 0)
(-0.040636769 -0.057288112 0)
(-0.024562475 -0.058489944 0)
(-0.0082129591 -0.059106313 0)
(0.0082438565 -0.059105804 0)
(0.02459332 -0.058488625 0)
(0.040666853 -0.057286096 0)
(0.056286477 -0.055526746 0)
(0.071289351 -0.05324853 0)
(0.085529886 -0.050499937 0)
(0.098879628 -0.047336268 0)
(0.11122738 -0.043823442 0)
(0.1224845 -0.040028923 0)
(0.13258905 -0.036024451 0)
(0.14150003 -0.031876812 0)
(0.14919416 -0.027651537 0)
(0.15566697 -0.023412191 0)
(0.1609327 -0.019215814 0)
(0.16502186 -0.015111998 0)
(0.16797689 -0.011141187 0)
(0.16985343 -0.0073364531 0)
(0.17072074 -0.0037192506 0)
(0.17064804 -0.00031161798 0)
(0.16971415 0.0028513416 0)
(0.16800646 0.0057553908 0)
(0.1655959 0.0083970902 0)
(0.16254282 0.010782535 0)
(0.15891594 0.012919276 0)
(0.15478762 0.014815661 0)
(0.15022748 0.016479803 0)
(0.14530244 0.017922026 0)
(0.14007181 0.019156285 0)
(0.13458726 0.020196519 0)
(0.12889584 0.021057212 0)
(0.12304349 0.021753028 0)
(0.11707384 0.022301281 0)
(0.11101922 0.022717414 0)
(0.10490682 0.023016882 0)
(0.098766312 0.023214114 0)
(0.092620113 0.023326278 0)
(0.086483002 0.023364798 0)
(0.080371202 0.023342115 0)
(0.074298317 0.023272191 0)
(0.068270616 0.023167379 0)
(0.062292854 0.023035741 0)
(0.056369535 0.022888578 0)
(0.050500176 0.022733951 0)
(0.044683989 0.022578542 0)
(0.038919334 0.022429745 0)
(0.033200898 0.022294002 0)
(0.027531352 0.022177221 0)
(0.021726651 0.022084607 0)
(0.017362224 0.022002754 0)
(0.0081640444 0.021975795 0)
(-0.0081375417 0.027545171 0)
(-0.017284052 0.027584474 0)
(-0.021614213 0.027691005 0)
(-0.027396501 0.027817097 0)
(-0.033044383 0.027975423 0)
(-0.038746879 0.028156754 0)
(-0.044501186 0.02835646 0)
(-0.050313686 0.028568601 0)
(-0.056187843 0.028783622 0)
(-0.062124873 0.028991011 0)
(-0.068126017 0.029181388 0)
(-0.074188755 0.029342283 0)
(-0.080308044 0.029460288 0)
(-0.086478354 0.029522222 0)
(-0.092689122 0.029513029 0)
(-0.098923398 0.029414386 0)
(-0.1051668 0.029209034 0)
(-0.11140014 0.028880067 0)
(-0.11759485 0.028406996 0)
(-0.12372138 0.027767734 0)
(-0.12974665 0.026943562 0)
(-0.13563095 0.025913384 0)
(-0.14132924 0.02465535 0)
(-0.14679173 0.023148654 0)
(-0.15196349 0.021373688 0)
(-0.15678359 0.019312817 0)
(-0.16118543 0.016949189 0)
(-0.16509928 0.014267597 0)
(-0.1684515 0.0112569 0)
(-0.17116488 0.0079086717 0)
(-0.17316249 0.0042207327 0)
(-0.17436721 0.00020459565 0)
(-0.17469749 -0.0041269257 0)
(-0.17406932 -0.0087536634 0)
(-0.17240099 -0.013646719 0)
(-0.16961832 -0.01877043 0)
(-0.16565697 -0.02408002 0)
(-0.1604667 -0.029520658 0)
(-0.15400922 -0.035027387 0)
(-0.14626207 -0.040526796 0)
(-0.13722269 -0.045937238 0)
(-0.12691222 -0.051169859 0)
(-0.11537014 -0.05613233 0)
(-0.10265961 -0.06073297 0)
(-0.088872271 -0.064881712 0)
(-0.074122503 -0.068492234 0)
(-0.058548298 -0.071485149 0)
(-0.04230772 -0.073794048 0)
(-0.025577175 -0.075367145 0)
(-0.0085522172 -0.076168488 0)
(0.0085858863 -0.076167637 0)
(0.025610617 -0.075364882 0)
(0.04234032 -0.073790423 0)
(0.058579691 -0.071480269 0)
(0.074152533 -0.0684865 0)
(0.088900473 -0.064875359 0)
(0.10268571 -0.060726092 0)
(0.11539425 -0.056125429 0)
(0.12693418 -0.051162872 0)
(0.13724208 -0.045929884 0)
(0.14627905 -0.040519461 0)
(0.15402413 -0.035020106 0)
(0.16047952 -0.029513491 0)
(0.16566753 -0.024072823 0)
(0.16962681 -0.018763173 0)
(0.1724072 -0.013639946 0)
(0.17407298 -0.0087469004 0)
(0.17469938 -0.004120113 0)
(0.17436744 0.00021115672 0)
(0.17316083 0.0042271708 0)
(0.17116101 0.0079154134 0)
(0.16844486 0.011263491 0)
(0.16509052 0.014273173 0)
(0.16117561 0.016953787 0)
(0.15677274 0.019317153 0)
(0.15195106 0.021378524 0)
(0.1467774 0.023153592 0)
(0.14131334 0.02465932 0)
(0.13561397 0.025915753 0)
(0.12972868 0.026944075 0)
(0.12370261 0.027767076 0)
(0.11757566 0.028405732 0)
(0.11138097 0.028878094 0)
(0.10514782 0.029205882 0)
(0.098903871 0.029409797 0)
(0.092669081 0.02950689 0)
(0.086459041 0.029514806 0)
(0.080289843 0.029451506 0)
(0.074171919 0.029331787 0)
(0.068111091 0.029169104 0)
(0.06211222 0.028977083 0)
(0.056177561 0.02876751 0)
(0.050306254 0.028550127 0)
(0.044496174 0.028337724 0)
(0.038743908 0.028134068 0)
(0.033044483 0.027947967 0)
(0.027399751 0.02778776 0)
(0.021617982 0.027657239 0)
(0.017291436 0.027548393 0)
(0.0081435169 0.027499181 0)
(-0.0081101684 0.033114141 0)
(-0.017194383 0.033179746 0)
(-0.021477456 0.033313683 0)
(-0.027228108 0.033477408 0)
(-0.032844014 0.033681291 0)
(-0.038521962 0.03391666 0)
(-0.044256978 0.034176705 0)
(-0.050058895 0.03445351 0)
(-0.055933827 0.034736074 0)
(-0.061882865 0.035011697 0)
(-0.067907654 0.035271034 0)
(-0.074008094 0.035497927 0)
(-0.080180444 0.035676729 0)
(-0.086419204 0.035790589 0)
(-0.092715807 0.035821756 0)
(-0.099056919 0.035749625 0)
(-0.10542659 0.035550664 0)
(-0.1118059 0.035205251 0)
(-0.11817015 0.034687718 0)
(-0.12448925 0.033972121 0)
(-0.13072976 0.033035231 0)
(-0.13685305 0.031849534 0)
(-0.14281398 0.030388689 0)
(-0.14856212 0.028626745 0)
(-0.15404102 0.026538452 0)
(-0.15918811 0.024100392 0)
(-0.16393531 0.021290802 0)
(-0.16820822 0.018090495 0)
(-0.17192737 0.014484568 0)
(-0.17501489 0.010463308 0)
(-0.17738966 0.0060243662 0)
(-0.17896386 0.0011703607 0)
(-0.17963799 -0.0040867143 0)
(-0.17932344 -0.0097248649 0)
(-0.17793525 -0.015711354 0)
(-0.17538886 -0.022001696 0)
(-0.17160945 -0.028541644 0)
(-0.16653424 -0.035262911 0)
(-0.16011482 -0.042086047 0)
(-0.15232007 -0.048918639 0)
(-0.14313926 -0.055658787 0)
(-0.13258514 -0.062195652 0)
(-0.12069544 -0.068410812 0)
(-0.10753497 -0.074187007 0)
(-0.093197205 -0.079406427 0)
(-0.07780395 -0.083957444 0)
(-0.061503773 -0.08773816 0)
(-0.04446912 -0.09066099 0)
(-0.026893805 -0.092656697 0)
(-0.0089936939 -0.093676394 0)
(0.0090312719 -0.093675208 0)
(0.026930965 -0.092653341 0)
(0.044505038 -0.090655513 0)
(0.061537953 -0.087730727 0)
(0.077836109 -0.083948461 0)
(0.093227166 -0.079396491 0)
(0.10756255 -0.074176364 0)
(0.12072063 -0.068399771 0)
(0.1326083 -0.062184707 0)
(0.14315994 -0.055647893 0)
(0.15233806 -0.048907948 0)
(0.16013042 -0.042075679 0)
(0.16654759 -0.035253227 0)
(0.17162056 -0.028532378 0)
(0.17539753 -0.021992553 0)
(0.17794188 -0.015702723 0)
(0.1793282 -0.0097161834 0)
(0.17964036 -0.0040777482 0)
(0.17896341 0.0011791113 0)
(0.1773876 0.006032746 0)
(0.17501138 0.010471444 0)
(0.17192131 0.014492921 0)
(0.16819989 0.018099109 0)
(0.16392569 0.021298866 0)
(0.15917701 0.024107471 0)
(0.15402772 0.026544606 0)
(0.14854653 0.02863194 0)
(0.14279696 0.030392492 0)
(0.136835 0.03185217 0)
(0.13071046 0.03303682 0)
(0.12446907 0.033972483 0)
(0.11814929 0.034686627 0)
(0.11178453 0.035202533 0)
(0.10540491 0.03554623 0)
(0.099034844 0.035743264 0)
(0.09269354 0.035814072 0)
(0.086397496 0.035781593 0)
(0.080159723 0.035666245 0)
(0.073988913 0.03548578 0)
(0.067890604 0.035257102 0)
(0.061867955 0.034996202 0)
(0.055920936 0.034717429 0)
(0.050050618 0.034432387 0)
(0.044250234 0.03415332 0)
(0.038513576 0.03389078 0)
(0.032840611 0.03365255 0)
(0.027228598 0.03344591 0)
(0.021477465 0.033278283 0)
(0.017196394 0.033142013 0)
(0.008112143 0.033070555 0)
(-0.0080663101 0.038590291 0)
(-0.017073135 0.038682344 0)
(-0.02130477 0.038847514 0)
(-0.027015559 0.039054051 0)
(-0.032590004 0.039309027 0)
(-0.038234359 0.039605625 0)
(-0.043945185 0.039934454 0)
(-0.049733152 0.040284916 0)
(-0.055606663 0.040645595 0)
(-0.061565201 0.041004164 0)
(-0.067613649 0.041346389 0)
(-0.073755476 0.041654763 0)
(-0.0799864 0.041911672 0)
(-0.086303043 0.042097162 0)
(-0.092698373 0.042189404 0)
(-0.09916141 0.042164916 0)
(-0.10567665 0.041997513 0)
(-0.11222719 0.04166089 0)
(-0.11879075 0.041126684 0)
(-0.12533527 0.040364459 0)
(-0.13182948 0.039343525 0)
(-0.13823672 0.038032051 0)
(-0.14451044 0.036397887 0)
(-0.15059997 0.03440915 0)
(-0.15644784 0.032034376 0)
(-0.1619896 0.029243683 0)
(-0.16715442 0.026009586 0)
(-0.17186571 0.022308033 0)
(-0.1760403 0.018116728 0)
(-0.17958823 0.013419959 0)
(-0.18241992 0.0082164873 0)
(-0.18444171 0.0025071394 0)
(-0.18554908 -0.0036948581 0)
(-0.18564324 -0.010377405 0)
(-0.18462027 -0.017501134 0)
(-0.18238462 -0.025015187 0)
(-0.17884852 -0.032853513 0)
(-0.17393662 -0.040936163 0)
(-0.16758684 -0.04916857 0)
(-0.15975429 -0.05743693 0)
(-0.15041816 -0.065616696 0)
(-0.13958293 -0.073571208 0)
(-0.12728144 -0.081155682 0)
(-0.11357773 -0.088221591 0)
(-0.098568736 -0.094621199 0)
(-0.082384441 -0.10021284 0)
(-0.065186716 -0.10486668 0)
(-0.047166028 -0.10847047 0)
(-0.028538262 -0.11093464 0)
(-0.0095454322 -0.11219538 0)
(0.0095879036 -0.11219397 0)
(0.028580051 -0.11093059 0)
(0.047205982 -0.10846387 0)
(0.065224303 -0.10485791 0)
(0.082419206 -0.10020207 0)
(0.098600527 -0.094608857 0)
(0.11360676 -0.088208298 0)
(0.12730765 -0.081141754 0)
(0.13960665 -0.073557076 0)
(0.15043928 -0.065602801 0)
(0.15977273 -0.057423542 0)
(0.16760267 -0.049155804 0)
(0.17395004 -0.040924249 0)
(0.17885986 -0.032842007 0)
(0.1823936 -0.025004173 0)
(0.184627 -0.017490576 0)
(0.18564798 -0.010367269 0)
(0.1855517 -0.0036847774 0)
(0.18444187 0.0025171811 0)
(0.18241808 0.0082267749 0)
(0.17958481 0.013430261 0)
(0.17603467 0.018127053 0)
(0.17185728 0.022318461 0)
(0.16714378 0.026019003 0)
(0.16197732 0.029251378 0)
(0.15643362 0.032040415 0)
(0.15058323 0.034414354 0)
(0.14449194 0.036402276 0)
(0.13821736 0.03803502 0)
(0.13180874 0.03934505 0)
(0.12531304 0.040364703 0)
(0.11876745 0.041125484 0)
(0.11220341 0.041658106 0)
(0.10565254 0.04199318 0)
(0.099136928 0.042158845 0)
(0.092673971 0.042181727 0)
(0.086279344 0.04208784 0)
(0.079963797 0.041900686 0)
(0.073734344 0.041641709 0)
(0.067594981 0.041331397 0)
(0.061547827 0.040986963 0)
(0.055590846 0.040625411 0)
(0.049721145 0.040262033 0)
(0.043935516 0.039907132 0)
(0.038225918 0.039577138 0)
(0.032584627 0.039279509 0)
(0.027012695 0.039020303 0)
(0.021303317 0.038810783 0)
(0.017074871 0.038641624 0)
(0.0080682596 0.038547361 0)
(-0.0080105356 0.044008957 0)
(-0.016923249 0.044126087 0)
(-0.021091209 0.044328535 0)
(-0.026750942 0.044582846 0)
(-0.032275251 0.044896854 0)
(-0.037877544 0.045261822 0)
(-0.043556808 0.045667797 0)
(-0.04932492 0.046103137 0)
(-0.055189832 0.04655669 0)
(-0.061155495 0.047014015 0)
(-0.067228839 0.047455743 0)
(-0.07341297 0.047864529 0)
(-0.07970663 0.048218429 0)
(-0.086108535 0.048497824 0)
(-0.092613536 0.048675077 0)
(-0.099212708 0.048723869 0)
(-0.10589297 0.048614716 0)
(-0.11263764 0.048315483 0)
(-0.11942599 0.047794493 0)
(-0.12623012 0.047016762 0)
(-0.13301835 0.045943258 0)
(-0.13975357 0.044537921 0)
(-0.14639065 0.042762286 0)
(-0.15287856 0.040577661 0)
(-0.15915888 0.037945787 0)
(-0.16516515 0.034829792 0)
(-0.17082351 0.031194532 0)
(-0.17605443 0.027008639 0)
(-0.18077013 0.022247064 0)
(-0.18487164 0.016889963 0)
(-0.18826084 0.010924897 0)
(-0.19083298 0.0043504675 0)
(-0.19247417 -0.0028299434 0)
(-0.19307353 -0.010596192 0)
(-0.19250942 -0.018907344 0)
(-0.19067068 -0.027708054 0)
(-0.18745382 -0.036925096 0)
(-0.1827675 -0.04646555 0)
(-0.17652979 -0.056215196 0)
(-0.16867967 -0.066041907 0)
(-0.1591835 -0.07579545 0)
(-0.14803384 -0.08531026 0)
(-0.13525641 -0.094409628 0)
(-0.12091295 -0.1029106 0)
(-0.10510369 -0.11062983 0)
(-0.087968129 -0.11739022 0)
(-0.069684055 -0.1230284 0)
(-0.050463972 -0.12740208 0)
(-0.030551384 -0.13039703 0)
(-0.010221553 -0.13193114 0)
(0.010269242 -0.13192953 0)
(0.030598279 -0.13039248 0)
(0.050508566 -0.12739481 0)
(0.069725777 -0.1230189 0)
(0.08800668 -0.11737872 0)
(0.10513861 -0.11061647 0)
(0.12094413 -0.10289575 0)
(0.13528416 -0.094394038 0)
(0.14805851 -0.085294403 0)
(0.15920504 -0.075779868 0)
(0.16869821 -0.06602668 0)
(0.17654572 -0.056200709 0)
(0.18278129 -0.046451569 0)
(0.18746538 -0.036911744 0)
(0.19067946 -0.027695532 0)
(0.19251599 -0.018895272 0)
(0.1930786 -0.010584437 0)
(0.192477 -0.0028179434 0)
(0.1908331 0.0043629914 0)
(0.18825919 0.01093723 0)
(0.18486842 0.016901693 0)
(0.18076454 0.022258354 0)
(0.17604556 0.027019807 0)
(0.17081168 0.031205222 0)
(0.16515123 0.034839392 0)
(0.15914329 0.03795376 0)
(0.15286098 0.040584316 0)
(0.14637089 0.04276847 0)
(0.13973213 0.044542918 0)
(0.13299562 0.045946419 0)
(0.12620626 0.047018175 0)
(0.11940103 0.047794221 0)
(0.11261196 0.048313624 0)
(0.10586677 0.048611124 0)
(0.099185937 0.048718384 0)
(0.092586849 0.048667709 0)
(0.086082687 0.048488502 0)
(0.07968184 0.048207432 0)
(0.073389855 0.047850494 0)
(0.067208126 0.047439167 0)
(0.061136152 0.046994516 0)
(0.055172087 0.046535123 0)
(0.049310243 0.046079109 0)
(0.043544985 0.045640346 0)
(0.037867837 0.045231857 0)
(0.032267684 0.0448645 0)
(0.026745785 0.044546898 0)
(0.021086759 0.044289432 0)
(0.016922749 0.04408256 0)
(0.0080128941 0.043961977 0)
(-0.007940779 0.049353739 0)
(-0.016737898 0.049501759 0)
(-0.020831468 0.04974715 0)
(-0.02642938 0.050054672 0)
(-0.031891755 0.050435935 0)
(-0.037442483 0.050878488 0)
(-0.043081093 0.051372786 0)
(-0.048819681 0.051906928 0)
(-0.054669283 0.05246794 0)
(-0.060637829 0.053038171 0)
(-0.066732859 0.053598178 0)
(-0.072960653 0.054128515 0)
(-0.079319161 0.05460437 0)
(-0.085810815 0.055001247 0)
(-0.092435028 0.055290641 0)
(-0.099182809 0.055441965 0)
(-0.10604454 0.055422128 0)
(-0.11300531 0.055194331 0)
(-0.12004553 0.054720611 0)
(-0.12714075 0.053962114 0)
(-0.13426078 0.052873645 0)
(-0.14136844 0.051412303 0)
(-0.14841985 0.049533973 0)
(-0.15536421 0.047191255 0)
(-0.16214232 0.044338853 0)
(-0.16868678 0.040931841 0)
(-0.17492128 0.036927127 0)
(-0.1807592 0.032284592 0)
(-0.18610607 0.026970826 0)
(-0.19085951 0.020959894 0)
(-0.19491141 0.014231518 0)
(-0.19814912 0.0067784392 0)
(-0.20044293 -0.0013945382 0)
(-0.20165885 -0.010280725 0)
(-0.20166236 -0.019833082 0)
(-0.2003251 -0.029993835 0)
(-0.1975222 -0.040682016 0)
(-0.19313743 -0.051790981 0)
(-0.18706915 -0.063188695 0)
(-0.17923699 -0.074721904 0)
(-0.16958676 -0.086212161 0)
(-0.15809636 -0.097461319 0)
(-0.14478108 -0.10825592 0)
(-0.12969821 -0.11837289 0)
(-0.11295053 -0.12758652 0)
(-0.094687981 -0.13567695 0)
(-0.075107037 -0.14244001 0)
(-0.054446915 -0.14769621 0)
(-0.032985452 -0.15130096 0)
(-0.011039759 -0.15314957 0)
(0.011093216 -0.15314744 0)
(0.033037942 -0.15129497 0)
(0.054497068 -0.14768684 0)
(0.075153991 -0.14242776 0)
(0.094731406 -0.13566246 0)
(0.11299011 -0.12757078 0)
(0.12973316 -0.11835578 0)
(0.14481134 -0.10823806 0)
(0.15812258 -0.097443328 0)
(0.16960941 -0.086194939 0)
(0.17925641 -0.074705341 0)
(0.18708574 -0.0631731 0)
(0.19315154 -0.051775736 0)
(0.19753365 -0.040667293 0)
(0.20033401 -0.029979608 0)
(0.20166918 -0.019818983 0)
(0.2016642 -0.010267052 0)
(0.20044693 -0.0013811622 0)
(0.19814996 0.0067916931 0)
(0.19490896 0.01424549 0)
(0.19085513 0.020973796 0)
(0.18609996 0.026983959 0)
(0.18075039 0.032297199 0)
(0.17490945 0.036939848 0)
(0.16867239 0.040944312 0)
(0.16212568 0.044350335 0)
(0.15534571 0.047200923 0)
(0.14839925 0.049542294 0)
(0.14134547 0.051419161 0)
(0.13423588 0.052879112 0)
(0.12711445 0.053965627 0)
(0.12001821 0.054721667 0)
(0.11297729 0.055193349 0)
(0.10601597 0.055418976 0)
(0.099153898 0.055436475 0)
(0.092406387 0.055282822 0)
(0.08578351 0.054991048 0)
(0.079292353 0.054591808 0)
(0.072934896 0.05411331 0)
(0.06671002 0.053580207 0)
(0.060616913 0.053017393 0)
(0.054650446 0.052444576 0)
(0.048803313 0.0518809 0)
(0.043066828 0.051343542 0)
(0.037430504 0.050846064 0)
(0.031882113 0.050400252 0)
(0.026421975 0.050016009 0)
(0.020825395 0.04970529 0)
(0.016735626 0.049457592 0)
(0.0079415896 0.04930459 0)
(-0.0078531133 0.054609957 0)
(-0.016512385 0.054794996 0)
(-0.020520003 0.055085929 0)
(-0.026042409 0.055454189 0)
(-0.031430321 0.055909545 0)
(-0.036917942 0.056442092 0)
(-0.042503771 0.057038495 0)
(-0.048203352 0.057686355 0)
(-0.054030314 0.058369837 0)
(-0.059995033 0.059071006 0)
(-0.06610621 0.059770173 0)
(-0.072372541 0.060444514 0)
(-0.078797572 0.061068932 0)
(-0.085383973 0.061611709 0)
(-0.092132714 0.062043957 0)
(-0.099039337 0.062331075 0)
(-0.10609692 0.062435764 0)
(-0.11329359 0.062317512 0)
(-0.12061056 0.061932289 0)
(-0.12802733 0.061234391 0)
(-0.13551624 0.0601749 0)
(-0.1430392 0.058703124 0)
(-0.15055556 0.056766788 0)
(-0.1580155 0.05431146 0)
(-0.16535842 0.051283042 0)
(-0.17251583 0.047627446 0)
(-0.17940911 0.043292693 0)
(-0.18594898 0.03822892 0)
(-0.19203347 0.032389867 0)
(-0.19755122 0.025739566 0)
(-0.20238578 0.018252463 0)
(-0.20640468 0.009916715 0)
(-0.20947589 0.00073321749 0)
(-0.21144459 -0.0093098588 0)
(-0.21214635 -0.020161781 0)
(-0.21143548 -0.031764801 0)
(-0.20915958 -0.044027613 0)
(-0.20517627 -0.05683323 0)
(-0.19935716 -0.070033245 0)
(-0.19159521 -0.083448645 0)
(-0.18181181 -0.096870838 0)
(-0.16996447 -0.11006478 0)
(-0.15605394 -0.12277468 0)
(-0.14012964 -0.13473041 0)
(-0.12229502 -0.14565499 0)
(-0.10271113 -0.1552767 0)
(-0.081595918 -0.16334072 0)
(-0.059220798 -0.16962148 0)
(-0.035906297 -0.17393621 0)
(-0.012022225 -0.17615185 0)
(0.012083136 -0.17614868 0)
(0.035965998 -0.17392713 0)
(0.059278045 -0.16960742 0)
(0.081649523 -0.1633225 0)
(0.10275994 -0.15525564 0)
(0.12233908 -0.14563298 0)
(0.14016877 -0.13470812 0)
(0.15608777 -0.12275269 0)
(0.16999303 -0.1100432 0)
(0.18183557 -0.096850364 0)
(0.19161522 -0.083429477 0)
(0.19937449 -0.070015712 0)
(0.20519163 -0.056816852 0)
(0.20917234 -0.044011851 0)
(0.21144543 -0.031749052 0)
(0.21215376 -0.020145645 0)
(0.21144987 -0.0092935695 0)
(0.20947909 0.00074910263 0)
(0.20640602 0.0099322429 0)
(0.20238545 0.018268583 0)
(0.19754794 0.025756081 0)
(0.19202714 0.032406138 0)
(0.1859401 0.038244346 0)
(0.17939765 0.043307617 0)
(0.17250145 0.047641833 0)
(0.16534082 0.051296631 0)
(0.15799519 0.054323648 0)
(0.15053298 0.05677725 0)
(0.14301455 0.058711785 0)
(0.13548976 0.060181803 0)
(0.1279987 0.061239228 0)
(0.12058084 0.061934578 0)
(0.11326336 0.062317238 0)
(0.10606575 0.062432849 0)
(0.099007736 0.06232546 0)
(0.092101494 0.062035468 0)
(0.085353991 0.06160007 0)
(0.07876871 0.061053759 0)
(0.072345239 0.060427246 0)
(0.066081467 0.059750215 0)
(0.059972097 0.059047942 0)
(0.05400919 0.058343848 0)
(0.048184764 0.057657144 0)
(0.042487526 0.05700623 0)
(0.036903652 0.056406908 0)
(0.031418547 0.055871855 0)
(0.026033421 0.055413177 0)
(0.020513152 0.055041907 0)
(0.016508757 0.05474865 0)
(0.0078523302 0.054559098 0)
(-0.0077445962 0.059763902 0)
(-0.016243043 0.059990052 0)
(-0.020152092 0.060332351 0)
(-0.025584167 0.060769191 0)
(-0.030881057 0.061308274 0)
(-0.036289285 0.061940834 0)
(-0.041810654 0.062652148 0)
(-0.047460306 0.063428316 0)
(-0.053254594 0.064252621 0)
(-0.059205371 0.065106899 0)
(-0.065325207 0.065968673 0)
(-0.071625414 0.066811745 0)
(-0.078113338 0.067611015 0)
(-0.084794966 0.068332495 0)
(-0.091672728 0.068942374 0)
(-0.098746085 0.069402728 0)
(-0.1060111 0.069672204 0)
(-0.11345954 0.069706554 0)
(-0.12107702 0.069455317 0)
(-0.1288441 0.0688653 0)
(-0.13673537 0.067886282 0)
(-0.14471709 0.066456427 0)
(-0.15274934 0.064515247 0)
(-0.16078322 0.062001174 0)
(-0.1687594 0.058850163 0)
(-0.1766084 0.054997858 0)
(-0.18424965 0.050381004 0)
(-0.19159107 0.044939384 0)
(-0.19852455 0.03861743 0)
(-0.20492728 0.031364588 0)
(-0.21066788 0.023139669 0)
(-0.21560613 0.013916768 0)
(-0.2196071 0.0036823344 0)
(-0.22248053 -0.0075430152 0)
(-0.2240346 -0.019756822 0)
(-0.22409931 -0.032887606 0)
(-0.22249072 -0.04684213 0)
(-0.21903557 -0.061492175 0)
(-0.21357058 -0.07667144 0)
(-0.20595511 -0.09217499 0)
(-0.19607913 -0.10776047 0)
(-0.1838733 -0.12315182 0)
(-0.16931775 -0.13804381 0)
(-0.15244881 -0.15211009 0)
(-0.13336755 -0.16501259 0)
(-0.11224587 -0.1764159 0)
(-0.089326051 -0.18600174 0)
(-0.064918568 -0.19348686 0)
(-0.03939672 -0.19863934 0)
(-0.013196886 -0.20128967 0)
(0.013267867 -0.20128542 0)
(0.039466049 -0.19862712 0)
(0.064984574 -0.19346781 0)
(0.089386927 -0.18597724 0)
(0.1123002 -0.17638813 0)
(0.13341547 -0.16498283 0)
(0.15249055 -0.15208016 0)
(0.16935387 -0.1380152 0)
(0.18390412 -0.12312507 0)
(0.19610458 -0.10773533 0)
(0.20597588 -0.092151717 0)
(0.21358824 -0.076650088 0)
(0.21905153 -0.061472594 0)
(0.22250479 -0.046823796 0)
(0.22411128 -0.0328698 0)
(0.2240441 -0.019738802 0)
(0.2224875 -0.0075242537 0)
(0.21961186 0.0037012617 0)
(0.21560857 0.013936432 0)
(0.21066771 0.023159197 0)
(0.20492452 0.031384286 0)
(0.19851878 0.038637298 0)
(0.19158197 0.044958956 0)
(0.18423762 0.050399564 0)
(0.17659347 0.055015229 0)
(0.16874143 0.058866277 0)
(0.16076226 0.06201597 0)
(0.15272555 0.064528123 0)
(0.14469041 0.066467166 0)
(0.13670628 0.067894373 0)
(0.12881289 0.068870747 0)
(0.12104449 0.069458129 0)
(0.11342639 0.069706401 0)
(0.10597716 0.069669221 0)
(0.098711645 0.069397017 0)
(0.091638535 0.068933607 0)
(0.084761884 0.068320148 0)
(0.078082107 0.067594777 0)
(0.071596261 0.066792452 0)
(0.065298072 0.06594606 0)
(0.05918015 0.065080974 0)
(0.053231453 0.064223876 0)
(0.047439555 0.063396257 0)
(0.041792506 0.062616878 0)
(0.036273901 0.061902837 0)
(0.030867693 0.061267923 0)
(0.025572897 0.060725633 0)
(0.020143826 0.060285938 0)
(0.016238022 0.059940834 0)
(0.0077428499 0.059711046 0)
(-0.007614192 0.064799264 0)
(-0.015923828 0.065070783 0)
(-0.0197191 0.065470879 0)
(-0.025043282 0.06598398 0)
(-0.030234216 0.066618141 0)
(-0.035548231 0.067360446 0)
(-0.040988638 0.068200205 0)
(-0.046573276 0.069121086 0)
(-0.052320023 0.070105759 0)
(-0.058245 0.071134733 0)
(-0.064365136 0.072183242 0)
(-0.070691506 0.0732252 0)
(-0.077235776 0.07423037 0)
(-0.08400919 0.075164413 0)
(-0.091016702 0.075990013 0)
(-0.098261396 0.076665506 0)
(-0.10574247 0.077144714 0)
(-0.11345704 0.077378645 0)
(-0.12139567 0.077313078 0)
(-0.12953728 0.076888677 0)
(-0.13786295 0.076045648 0)
(-0.14634477 0.07471688 0)
(-0.15494204 0.072833367 0)
(-0.16360867 0.07032367 0)
(-0.17228695 0.067113467 0)
(-0.18090757 0.063127059 0)
(-0.1893879 0.05828945 0)
(-0.19763145 0.052526731 0)
(-0.20552722 0.045766483 0)
(-0.21294979 0.037942582 0)
(-0.21975713 0.029001805 0)
(-0.22578936 0.018903683 0)
(-0.23086524 0.0076259273 0)
(-0.23480514 -0.0048061668 0)
(-0.23740214 -0.01845029 0)
(-0.23842175 -0.033202228 0)
(-0.23765555 -0.048976403 0)
(-0.23488826 -0.065635503 0)
(-0.22991493 -0.08299617 0)
(-0.22255252 -0.10082711 0)