/*--------------------------------*- C++ -*----------------------------------*\
  =========                 |
  \\      /  F ield         | OpenFOAM: The Open Source CFD Toolbox
   \\    /   O peration     | Website:  https://openfoam.org
    \\  /    A nd           | Version:  9
     \\/     M anipulation  |
\*---------------------------------------------------------------------------*/
FoamFile
{
    format      ascii;
    class       volScalarField;
    location    "0.003";
    object      mag(U);
}
// * * * * * * * * * * * * * * * * * * * * * * * * * * * * * * * * * * * * * //

dimensions      [0 1 -1 0 0 0 0];

internalField   nonuniform List<scalar> 
100
(
1.42956e-12
2.66948e-13
9.4234e-13
3.26756e-13
0
1.26034e-12
8.75238e-15
1.2691e-12
2.59753e-34
0
4.37619e-13
4.37619e-13
0
1.50397e-31
3.20921e-14
3.48636e-13
3.29673e-12
1.82312e-11
1.10948e-10
6.63658e-10
3.82627e-09
2.13636e-08
1.14567e-07
5.92841e-07
2.93641e-06
1.39773e-05
6.34306e-05
0.000275229
0.00113287
0.00442948
0.0163208
0.0566228
0.183368
0.551793
1.525
3.8226
8.47823
16.3927
28.0087
43.2451
61.4006
81.4456
102.635
124.066
145.718
166.85
187.376
207.041
225.473
242.631
257.45
269.837
280.105
287.962
293.198
296.454
298.815
299.228
296.96
293.142
289.164
285.893
283.301
280.692
276.285
265.497
233.243
142.59
35.7906
5.69222
0.823634
0.114107
0.0154709
0.00206347
0.000271047
3.50931e-05
4.48422e-06
5.66222e-07
7.076e-08
8.76196e-09
1.07641e-09
1.3079e-10
1.54874e-11
1.75631e-12
1.06487e-13
9.09007e-31
0
0
0
0
0
3.85734e-32
0
0
0
0
3.85734e-32
0
0
0
)
;

boundaryField
{
    sides
    {
        type            calculated;
        value           nonuniform List<scalar> 2(0 1.42956e-12);
    }
    empty
    {
        type            empty;
    }
}


// ************************************************************************* //
