/*--------------------------------*- C++ -*----------------------------------*\
  =========                 |
  \\      /  F ield         | OpenFOAM: The Open Source CFD Toolbox
   \\    /   O peration     | Website:  https://openfoam.org
    \\  /    A nd           | Version:  9
     \\/     M anipulation  |
\*---------------------------------------------------------------------------*/
FoamFile
{
    format      ascii;
    class       surfaceScalarField;
    location    "0.003";
    object      phi;
}
// * * * * * * * * * * * * * * * * * * * * * * * * * * * * * * * * * * * * * //

dimensions      [1 0 -1 0 0 0 0];

internalField   nonuniform List<scalar> 
99
(
3.73035e-12
-1.53477e-12
-2.59348e-12
-6.03961e-13
2.37321e-12
2.78533e-12
-2.7498e-12
-2.40874e-12
0
8.02913e-13
7.10543e-15
-8.52651e-13
7.10543e-15
4.26326e-14
6.32383e-13
5.92593e-12
3.55556e-11
2.12601e-10
1.28203e-09
7.47654e-09
4.21799e-08
2.29088e-07
1.1994e-06
6.02514e-06
2.90634e-05
0.000134001
0.000590438
0.00247476
0.0098536
0.0370869
0.131558
0.437313
1.35477
3.87978
10.1634
23.9784
49.6873
87.7979
136.683
191.896
247.87
300.251
346.769
385.732
419.098
444.384
461.93
479.313
489.651
491.106
490.658
496.938
497.878
494.764
489.503
481.214
457.925
398.263
352.531
327.601
314.592
306.436
294.946
288.308
280.113
261.922
221.045
48.5638
9.16969
1.35559
0.190135
0.0260984
0.0035203
0.000467409
6.11369e-05
7.88469e-06
1.00393e-06
1.26369e-07
1.57486e-08
1.94542e-09
2.38384e-10
2.88169e-11
3.39018e-12
3.5838e-13
1.73195e-14
0
0
0
0
0
8.88178e-16
0
0
0
0
0
-8.88178e-16
0
0
)
;

boundaryField
{
    sides
    {
        type            calculated;
        value           nonuniform List<scalar> 2(0 -5.35685e-12);
    }
    empty
    {
        type            empty;
        value           nonuniform List<scalar> 0();
    }
}


// ************************************************************************* //
