/*--------------------------------*- C++ -*----------------------------------*\
  =========                 |
  \\      /  F ield         | OpenFOAM: The Open Source CFD Toolbox
   \\    /   O peration     | Website:  https://openfoam.org
    \\  /    A nd           | Version:  9
     \\/     M anipulation  |
\*---------------------------------------------------------------------------*/
FoamFile
{
    format      ascii;
    class       volVectorField;
    location    "0.003";
    object      U;
}
// * * * * * * * * * * * * * * * * * * * * * * * * * * * * * * * * * * * * * //

dimensions      [0 1 -1 0 0 0 0];

internalField   nonuniform List<vector> 
100
(
(1.42956e-12 0 0)
(2.66948e-13 0 0)
(-9.4234e-13 0 0)
(-3.26756e-13 0 0)
(0 0 0)
(1.26034e-12 0 0)
(8.75238e-15 0 0)
(-1.2691e-12 0 0)
(2.59753e-34 0 0)
(0 0 0)
(4.37619e-13 0 0)
(-4.37619e-13 0 0)
(0 0 0)
(-1.50397e-31 0 0)
(3.20921e-14 0 0)
(3.48636e-13 0 0)
(3.29673e-12 0 0)
(1.82312e-11 0 0)
(1.10948e-10 0 0)
(6.63658e-10 0 0)
(3.82627e-09 0 0)
(2.13636e-08 0 0)
(1.14567e-07 0 0)
(5.92841e-07 0 0)
(2.93641e-06 0 0)
(1.39773e-05 0 0)
(6.34306e-05 0 0)
(0.000275229 0 0)
(0.00113287 0 0)
(0.00442948 0 0)
(0.0163208 0 0)
(0.0566228 0 0)
(0.183368 0 0)
(0.551793 0 0)
(1.525 0 0)
(3.8226 0 0)
(8.47823 0 0)
(16.3927 0 0)
(28.0087 0 0)
(43.2451 0 0)
(61.4006 0 0)
(81.4456 0 0)
(102.635 0 0)
(124.066 0 0)
(145.718 0 0)
(166.85 0 0)
(187.376 0 0)
(207.041 0 0)
(225.473 0 0)
(242.631 0 0)
(257.45 0 0)
(269.837 0 0)
(280.105 0 0)
(287.962 0 0)
(293.198 0 0)
(296.454 0 0)
(298.815 0 0)
(299.228 0 0)
(296.96 0 0)
(293.142 0 0)
(289.164 0 0)
(285.893 0 0)
(283.301 0 0)
(280.692 0 0)
(276.285 0 0)
(265.497 0 0)
(233.243 0 0)
(142.59 0 0)
(35.7906 0 0)
(5.69222 0 0)
(0.823634 0 0)
(0.114107 0 0)
(0.0154709 0 0)
(0.00206347 0 0)
(0.000271047 0 0)
(3.50931e-05 0 0)
(4.48422e-06 0 0)
(5.66222e-07 0 0)
(7.076e-08 0 0)
(8.76196e-09 0 0)
(1.07641e-09 0 0)
(1.3079e-10 0 0)
(1.54874e-11 0 0)
(1.75631e-12 0 0)
(1.06487e-13 0 0)
(9.09007e-31 0 0)
(0 0 0)
(0 0 0)
(0 0 0)
(0 0 0)
(0 0 0)
(-3.85734e-32 0 0)
(0 0 0)
(0 0 0)
(0 0 0)
(0 0 0)
(3.85734e-32 0 0)
(0 0 0)
(0 0 0)
(0 0 0)
)
;

boundaryField
{
    sides
    {
        type            zeroGradient;
    }
    empty
    {
        type            empty;
    }
}


// ************************************************************************* //
