/*--------------------------------*- C++ -*----------------------------------*\
  =========                 |
  \\      /  F ield         | OpenFOAM: The Open Source CFD Toolbox
   \\    /   O peration     | Website:  https://openfoam.org
    \\  /    A nd           | Version:  9
     \\/     M anipulation  |
\*---------------------------------------------------------------------------*/
FoamFile
{
    format      ascii;
    class       volScalarField;
    location    "5";
    object      p;
}
// * * * * * * * * * * * * * * * * * * * * * * * * * * * * * * * * * * * * * //

dimensions      [0 2 -2 0 0 0 0];

internalField   nonuniform List<scalar> 
918
(
0.40825652
1.7244215
0.011453811
0.36378337
0.00073914375
1.6950848
-1.1130353
1.141115
0.46133893
-0.17079415
0.028793909
0.75477337
1.5664242
1.3289005
-0.99226627
0.025652147
1.0575432
-1.1293456
0.50440003
0.016496329
1.3956804
0.382468
0.40806257
0.36748293
0.86853024
1.3532056
1.428762
-0.00054373887
-0.0011279947
0.0011267274
6.7499232e-05
-0.0017372846
0.012433165
1.5716109
1.6254079
1.649104
0.7143645
-0.050737978
-0.80201272
-0.9657719
-0.90041237
-1.2790584
1.1097319
1.1208796
-0.47226427
1.1408243
1.1750828
0.70030436
0.46613939
0.45533246
0.3827381
0.42544091
0.43046605
0.38854479
-0.20030526
-0.30209824
-0.10932565
-0.073620223
0.11486166
0.021438883
0.026069236
0.034168641
0.039560177
0.64929164
0.74902341
0.74558818
0.76570781
0.77774318
1.6616043
1.6243277
1.6520828
1.5989261
1.5894159
1.5466612
1.509848
1.3656904
1.3733106
1.3263836
1.293993
-1.5561322
-2.6540833
-0.37634923
-0.035370013
0.0014242475
0.03344826
0.040406905
1.0229181
1.0395623
1.0452625
1.0721803
0.97519168
-0.99524266
-1.3874425
0.55160395
0.62452273
0.41382304
0.39357681
0.40334302
0.46113793
0.021086236
0.027608751
-0.0015181639
0.014633122
0.013775191
1.3387992
1.3087293
0.40816628
0.55968527
0.79060022
0.82668431
0.80747607
0.37751802
0.89592749
0.94523162
1.0767581
1.3046493
1.3371964
1.3094437
1.4137144
1.3687402
1.4753559
1.5007061
0.011028665
0.00020226515
0.02547074
0.016857182
0.021859483
0.70428995
0.69884992
0.74209237
0.71718312
0.72233055
-0.051606565
-0.11185746
0.0061302015
0.13880304
-0.63296811
-0.75326039
-1.1029042
-1.0479565
-1.4033139
1.109653
1.0902338
1.1025473
-0.47385432
-0.34033328
-0.58978723
-0.27017172
-0.39604971
0.72629482
0.70442031
0.72893246
0.50738829
0.65079375
0.63451128
0.38883136
0.4193963
0.42260385
0.4234065
0.48838579
0.33712279
0.29494058
-0.635933
-0.34356476
-0.64198582
-0.043977876
-0.020367245
0.12959243
0.14506683
0.10896417
0.097780661
-0.0034217018
0.012928531
0.010743889
0.03689563
0.03588523
0.63619676
0.62198944
0.66175831
0.67448047
0.73334507
0.73320817
0.73956158
0.7340787
1.4366582
1.4597941
1.5036565
1.4668621
-4.0866932
-6.7614776
0.3319618
0.5442905
0.00047047363
-0.0026739457
0.0044491429
0.00063996699
0.0048585497
0.0019223077
0.064307195
0.058181133
0.046075373
0.052537547
1.0044841
1.0113653
0.94189189
1.0357992
0.85418351
0.85452316
0.74688008
0.73573547
0.65992815
0.72717116
0.032114602
0.028186666
0.032844797
1.1818928
1.2492242
1.2290874
0.28782056
0.14402927
0.45412674
0.50409974
0.98106188
0.95806468
0.98929329
1.1553487
1.1969869
1.4922787
1.5041106
1.5403574
1.5377075
1.5862636
1.578217
1.536853
0.67961537
0.69209614
0.68874267
0.74297647
0.74047284
0.74545148
0.73209906
0.73388808
0.73395447
-0.19898275
-0.47198483
0.80254636
0.57294545
0.25832959
0.47075824
1.087093
1.1645313
1.0575594
1.0750667
1.0883824
-0.14123742
-0.25741494
0.26132421
0.23459615
0.54298173
0.59796531
0.57042529
1.4105486
1.4101401
1.4562114
1.4189887
1.3619714
1.3839046
-0.47278119
-1.6163654
-0.97933328
0.99997477
0.75301649
0.87444014
0.084373948
0.069314989
0.073448674
1.0090421
1.0979675
0.53274778
0.71247443
0.69155924
1.2583712
1.2840598
1.3473353
1.2672015
1.2982597
1.3307116
1.3148218
1.0026673
0.84540888
1.0054515
1.1066903
1.1481829
0.080480657
-0.017589572
-0.10066208
0.16240273
0.20656264
0.18059379
1.0589513
1.0937023
1.1397441
0.44069878
0.41119261
0.011281366
0.017787514
0.39735413
0.38793267
0.0087865572
0.0115683
0.84765534
-0.7897727
0.13250552
0.68053648
0.71744937
0.48016863
-0.13732297
0.36349096
0.039630574
0.11410604
0.080036125
0.74172379
0.65896508
0.61632147
0.003149994
0.034596634
0.024719177
-0.43643787
0.501665
0.53242652
0.47909995
0.41800087
0.45469556
0.011188499
0.01088843
0.0037096342
0.02208754
0.017342534
0.02139936
0.69978469
0.72917848
-0.26182322
0.47434529
0.42150521
0.44613177
0.5655876
0.49264656
0.53733406
0.033268511
0.020828608
0.023481994
0.35290378
0.52106203
1.2165576
1.431213
1.1993647
0.78386725
0.40563664
1.041642
1.1614034
0.99671336
1.2186968
1.0390484
1.0912859
0.21735566
0.011279949
0.21593989
0.17168665
0.65006064
0.73950602
0.68107791
0.72857031
0.58854055
0.66689476
0.51740329
0.59230322
0.49173033
0.47271429
-0.069699964
-0.084329346
-0.15528511
-0.25818082
0.38467289
0.48677049
0.30358981
0.32116972
0.19207125
0.053996692
0.041422279
0.035793467
0.035813463
0.083354836
0.084582779
0.09882374
0.10533636
0.071313396
0.067058059
0.086821949
0.079573249
0.092321167
0.73649093
0.73891749
0.74990236
0.75725325
0.66794957
0.67923653
0.63071222
0.66076311
0.63819778
0.54426882
0.61602341
0.56692989
0.01193627
0.0082731741
0.01085065
0.033562226
0.04599049
0.031023548
0.01951079
0.022114422
0.01843445
0.014608881
0.028944782
0.030928422
-0.38167872
-0.56336198
0.90099233
0.73729664
0.40664189
0.67547534
0.58714769
0.66726216
0.57817257
0.52037261
0.46926547
0.50771158
0.57374072
0.72699092
0.74042053
0.72632622
0.72828541
-0.13942632
-0.43139345
-0.18577838
-0.22878016
-0.081778308
0.93701042
0.52955585
0.41313915
0.41236745
0.75867705
1.3276988
1.2556127
1.4055377
1.3901229
-0.39895843
0.18294511
-0.14494059
0.53932924
0.73709723
1.1727361
1.2454923
1.2497175
1.2213972
1.1405455
-0.32228595
0.62987778
-0.11261
-0.096209382
0.18381088
0.031851431
1.2015352
1.0168142
1.0316451
1.0785684
1.1349311
1.0297517
0.97633745
0.98845422
1.0621083
1.065838
0.69940329
0.39258605
0.26754662
0.26716162
0.99548153
0.76558458
0.85414907
0.71708649
0.73158545
0.70330329
0.74503553
0.70215505
0.70412011
0.7170184
0.71730269
0.72959684
0.69947464
0.64121295
0.74125018
0.68219353
-0.038697309
-0.023306945
-0.037203436
-0.29150804
-0.2799071
-0.39065866
-0.16423177
0.16924643
0.13844997
0.38790886
0.53376819
0.08563719
-0.1852036
-0.10337675
-0.0051403739
0.22093569
0.21806371
0.14446188
0.20717917
0.22336165
0.1814387
0.25824614
0.25039823
0.059576763
0.070551211
0.047258723
0.037436853
0.1270433
0.16548779
0.15140054
0.070442419
0.072104079
0.045944184
0.043649084
0.10994741
0.062706517
0.077622193
0.090405997
0.026928786
0.033816562
0.042839783
0.063692883
0.056880054
0.063938537
0.72964059
0.73209142
0.73392719
0.75395396
0.76408813
0.79570017
0.7539882
0.69538362
0.6848336
0.69144932
0.65757368
0.68490051
0.66623563
0.68705938
0.70622185
0.72412992
0.7192862
0.72309211
0.70625862
0.70880506
0.69457373
0.69994813
0.66239111
0.63907056
0.60741638
0.021443365
0.016898696
0.02377002
0.020736608
0.016256194
0.016903471
0.061700208
0.048773054
0.055794544
0.049793329
0.057919747
0.029685835
0.037630007
-0.15938116
0.046656694
-0.40219161
-0.46262311
-0.56214665
0.89251864
0.97788854
0.75622469
0.65001527
0.68272464
0.8062841
0.8483619
0.53531828
0.63640923
0.63949569
1.0259809
1.0445948
0.60890019
0.60598194
0.65823603
0.66923239
0.64661678
0.053085795
0.21356296
0.069773311
0.2099487
0.079021113
0.049416639
0.63521282
0.58533477
0.79405054
0.60360364
0.92896593
0.95741174
0.85831998
0.90894627
0.91070805
0.60689244
0.73815777
0.8481391
0.75146686
0.84142589
0.86104659
0.8048174
0.84939319
0.77699497
0.70246602
0.70146436
0.61260272
0.62726932
0.60100808
0.56490055
0.73797748
0.69683511
0.70691691
0.69666838
0.73993453
0.78901387
0.77540816
0.8009104
0.83060153
0.71597017
0.65137095
0.66067466
0.71067516
0.65144309
0.67204522
0.69396257
0.1521312
0.20316312
0.012292585
-0.28704437
-0.20311047
-0.25192203
-0.34249726
-0.27033894
0.04090256
-0.74410442
-0.52611362
-0.8738025
0.43845824
1.3441302
1.1572826
1.1772893
1.1425258
1.0890841
1.0807226
1.1861892
1.1842396
0.97685168
1.0100025
1.016165
0.89998192
0.95199202
1.0405736
1.0250067
0.63978744
0.4927398
0.40727292
0.44339396
0.2178668
0.28707772
0.62061959
0.50996166
0.37509459
0.38446276
0.68355858
0.49384017
0.59062517
0.67288253
0.56341037
0.49125592
0.80559259
0.92562205
0.9001721
0.86410797
0.69973012
0.73117572
0.79240501
0.86094893
0.88978726
0.95364588
0.7102051
0.70659796
0.72443059
0.71378898
0.72068455
0.7187641
0.72428201
0.72397956
0.70259066
0.70305671
0.73301315
0.0239515
0.031384793
0.0059091067
0.013398392
0.018249351
-0.010227631
0.089511729
0.049007397
0.061576494
0.06303875
0.015201591
-0.011212187
0.025537514
0.043874274
0.21333069
0.25579921
0.238569
0.18824898
0.3288844
0.46511089
0.54019579
0.47341426
0.27141385
0.30964725
0.37333693
0.1225818
0.12520495
0.10696729
0.15144644
0.13618631
0.047288799
0.046884383
0.042410055
0.061890466
0.059053959
0.03455302
0.035078901
0.033686451
0.034326813
0.044806254
0.038425079
0.70130142
0.69592214
0.69416535
0.68497993
0.68365251
0.70839782
0.70837788
0.71509924
0.71811588
0.7253641
0.71617132
0.7207942
0.72166195
0.049132552
0.033526029
0.041120604
0.036173577
0.026783247
0.032479808
0.032631314
0.39145194
0.21848128
0.31626566
0.11148845
-0.2436862
-0.1043474
0.65191216
0.90714358
0.89476484
0.99175534
0.83568272
0.81863555
0.94140311
1.0452345
0.57726436
0.74676374
0.67570817
0.95669878
0.95097001
1.0176465
0.7991726
0.24117847
0.17361745
0.35956795
0.115705
0.053908724
0.33254637
0.21898467
0.28546641
0.2861264
0.35787846
0.23639386
0.31306627
0.40322753
0.56340724
0.37390817
0.53686801
0.25412005
0.36542562
0.4258003
0.27043993
0.32631892
0.92431795
0.95412187
0.98145978
0.92966037
0.98095919
0.84482595
0.83726612
0.85840069
0.88002108
0.85683275
-0.78831919
-0.99606134
-1.2266961
-0.65093538
-0.12677101
0.41273237
0.26305698
0.97476159
0.77290733
1.08421
1.028824
0.96767489
0.87986302
0.83566133
0.93747568
0.51113101
0.66024354
0.63512842
0.62431756
0.47236439
0.37143356
0.8785073
0.86808752
0.92556806
0.9549972
0.91280388
0.97179891
0.71698093
0.71987966
0.69958007
0.70840734
0.69377969
0.69499425
0.13210113
0.097967256
0.17009016
0.15696872
0.08497256
0.049863318
0.057972546
0.046021283
0.041628575
0.039469294
0.053317499
0.058437819
0.36185337
0.32761167
0.14919314
0.32464848
-0.0026658757
-0.1088038
-0.18242354
0.086396191
0.19193838
0.1784102
0.64265142
0.8204094
0.73301638
0.73922381
0.59741551
0.65255959
0.74791085
0.5282641
0.65207906
0.61051765
0.66023578
-0.21003909
-0.77575808
-0.42536152
1.0900592
0.90920301
0.4411828
0.12814352
0.25480774
0.73808366
0.71977583
0.61012065
0.70750179
0.80280507
0.8016048
-0.21356565
-0.15908238
-0.12957552
0.04599695
0.025034559
-0.112759
-0.08622446
-0.19426685
-0.077688017
)
;

boundaryField
{
    wall-4
    {
        type            zeroGradient;
    }
    velocity-inlet-5
    {
        type            zeroGradient;
    }
    velocity-inlet-6
    {
        type            zeroGradient;
    }
    pressure-outlet-7
    {
        type            fixedValue;
        value           uniform 0;
    }
    wall-8
    {
        type            zeroGradient;
    }
    frontAndBackPlanes
    {
        type            empty;
    }
}


// ************************************************************************* //
