/*--------------------------------*- C++ -*----------------------------------*\
  =========                 |
  \\      /  F ield         | OpenFOAM: The Open Source CFD Toolbox
   \\    /   O peration     | Website:  https://openfoam.org
    \\  /    A nd           | Version:  9
     \\/     M anipulation  |
\*---------------------------------------------------------------------------*/
FoamFile
{
    format      ascii;
    class       volVectorField;
    location    "5";
    object      U;
}
// * * * * * * * * * * * * * * * * * * * * * * * * * * * * * * * * * * * * * //

dimensions      [0 1 -1 0 0 0 0];

internalField   nonuniform List<vector> 
918
(
(0.42725353 -0.029448349 0)
(0.0090326356 2.9576711 0)
(0.0016288917 2.0565163 0)
(0.2848712 0.00047555695 0)
(-0.0038279335 2.0190264 4.9546963e-22)
(-0.011738821 2.9485522 -3.3237651e-18)
(1.2037342 1.887598 9.1877855e-19)
(0.7098645 0.40158273 -2.3790245e-20)
(1.9880896 0.007227348 0)
(0.0093341094 1.9525668 0)
(-0.0021372009 1.9781991 0)
(1.2147619 0.012621001 0)
(0.012806625 2.9163039 0)
(0.01237888 2.7938351 0)
(0.10853222 3.2543195 5.4971776e-19)
(-0.00088569615 1.9898828 -2.506864e-20)
(0.89688715 0.21249822 1.5552617e-18)
(0.27554231 2.2902377 8.308315e-19)
(0.48639909 -0.046515912 0)
(-0.004730925 1.98542 0)
(0.24735963 0.38659781 -1.355546e-18)
(1.0314089 -0.011370346 0)
(0.47240349 -0.024177624 0)
(0.27751614 0.061659836 0)
(1.1403694 0.014803956 0)
(0.02787999 2.6021405 0)
(-0.0095005887 2.9068969 1.2204613e-18)
(-0.0032567655 2.0668295 0)
(-0.0018153155 2.1074969 0)
(-0.00075141714 2.0774406 0)
(0.0036274712 2.142764 0)
(-0.0036007273 2.0325381 -3.8847511e-22)
(-0.0067866754 1.9729298 0)
(-0.018142542 2.9814497 -1.2365038e-22)
(-0.018349738 3.0070609 2.5805219e-18)
(0.0008647933 3.0016744 0)
(1.2506192 0.011120228 0)
(0.29008167 0.48475549 -3.5052095e-20)
(1.2633039 1.8053831 -9.707792e-19)
(1.3625712 1.6742833 1.1206355e-18)
(1.0785854 2.0299457 -2.1379459e-19)
(1.0149069 2.1244249 1.2813922e-18)
(0.7901165 0.43557004 2.3113447e-20)
(0.76245221 0.38235292 0)
(1.6078647 0.90522545 0)
(0.7390734 0.45290862 1.0719151e-19)
(0.6601012 0.41684556 -1.1164733e-19)
(0.98599455 0.073117366 0)
(1.9809265 -0.002256112 0)
(1.9859997 -0.0080496586 0)
(1.3788324 0.010982079 0)
(1.8658859 0.0096914096 0)
(1.7337702 0.0038224931 0)
(0.021992999 1.8977736 -6.8191911e-19)
(0.030187628 2.0539335 0)
(0.045651882 2.0010406 0)
(-0.00035367833 2.0392977 0)
(-0.0020127377 1.9427107 0)
(-0.0014448465 1.9771068 0)
(-0.0057130686 2.0410752 0)
(-0.0059937733 1.9738821 0)
(-0.00020891982 2.0429105 0)
(0.0017774703 1.9715108 0)
(1.3006889 0.0065735521 0)
(1.2717842 0.015594435 0)
(1.2375766 0.008644562 0)
(1.2454857 0.016188175 0)
(1.1933624 0.0095180617 0)
(0.016735604 3.0144665 1.2719967e-18)
(0.012287843 3.0102791 0)
(0.0079051262 3.0039641 0)
(0.013376454 3.000305 1.3544169e-23)
(0.010566166 2.947705 -1.8166411e-18)
(0.016672943 2.9849813 0)
(0.013311183 2.8940393 0)
(0.01693142 2.9238875 2.9138818e-24)
(0.013217594 2.8204364 0)
(0.016343579 2.9111877 0)
(0.0090249398 2.7579725 0)
(0.2536583 3.7219367 0)
(0.18294519 3.6586519 0)
(0.14469737 3.376361 -5.1490061e-19)
(0.057931109 3.0628698 0)
(-0.00970713 2.101849 0)
(6.7958411e-05 2.0482231 2.4733175e-20)
(-0.00025469773 1.9902298 -3.5732158e-20)
(0.97477686 0.21221211 -5.3544581e-19)
(0.91951488 0.16764962 -5.2118354e-19)
(0.95537767 0.25849357 -1.6066585e-18)
(0.88347873 0.26441366 -1.0643118e-18)
(0.19255929 1.607651 0)
(0.41140493 2.3832803 -9.1782276e-19)
(0.53348036 2.3735893 1.5401095e-18)
(0.73712455 -0.12796603 0)
(0.72144065 -0.084711395 0)
(1.2177077 0.0050844047 0)
(0.72456491 -0.010440636 0)
(0.70554296 -0.055719686 -2.0975152e-18)
(0.63721815 -0.053424287 1.6571881e-18)
(-0.0043113398 2.0370984 0)
(-0.0016540617 1.9784939 0)
(-0.004740572 2.0782177 0)
(-0.007515717 2.048895 0)
(-0.0021047884 1.9990284 0)
(0.39089881 0.47123152 4.0845045e-19)
(0.46006552 0.39869849 0)
(0.60527599 0.18169105 0)
(0.4472107 0.10694895 0)
(1.2216535 0.0069542503 0)
(1.2032039 0.0091625602 0)
(1.1852894 -0.00069264862 0)
(1.4583332 0.045174484 0)
(1.1469869 0.045257515 0)
(1.0380121 0.051842513 2.2004484e-18)
(0.005565201 2.8750747 1.0254593e-18)
(0.021218882 2.9016523 0)
(0.040254394 2.8755201 0)
(0.014778625 2.7025155 0)
(-0.009547493 2.985763 1.1772714e-18)
(-0.008169928 2.893298 0)
(-0.011357304 2.9904088 -3.6196047e-18)
(-0.0094388741 2.9166171 1.2386117e-18)
(0.0052834143 2.1238924 0)
(0.0038736689 2.1071162 0)
(-0.0028351544 2.048639 -6.6028848e-22)
(-0.0072071374 2.0369867 0)
(-0.0044299589 1.9817856 0)
(1.3084123 0.0097067222 0)
(1.2650124 0.0082516823 0)
(1.2373536 -0.0082224544 0)
(1.2862843 0.020992856 0)
(1.2104747 0.021783521 0)
(0.46413078 0.93661358 3.9101198e-20)
(0.38093691 0.83247207 0)
(0.53631014 0.82426869 -2.0049424e-21)
(0.25840193 0.33360402 0)
(1.3871555 1.5667504 -3.1019887e-19)
(1.4599975 1.4143581 6.1194376e-19)
(0.65592755 2.3642133 0)
(0.88306389 2.2377405 0)
(0.79476575 2.3056316 0)
(0.53945459 1.1475305 -4.6641628e-19)
(0.85105505 0.40404597 0)
(0.81902537 0.34929402 3.0124988e-19)
(1.4687239 1.3211753 0)
(1.5550624 1.0558013 0)
(1.5211315 1.1482541 -4.8850741e-19)
(1.6653321 0.82885285 0)
(1.7045911 0.72035162 1.0436333e-19)
(1.2269583 0.0401492 0)
(1.1319361 0.075206953 0)
(1.1234175 0.037332025 0)
(0.78706433 0.16418823 0)
(0.96850055 0.12778942 0)
(0.76939661 0.095026967 0)
(1.5197591 0.00466208 0)
(1.8709612 -0.016446077 0)
(1.7307891 -0.0062448816 0)
(0.031358243 1.9264771 3.6714474e-19)
(0.032307717 1.8405954 0)
(0.025656701 1.9831241 5.9941523e-19)
(0.011021735 1.9523947 -5.0824475e-19)
(0.18646145 2.2604297 -6.7998587e-19)
(0.07435123 2.1196313 0)
(0.11214016 2.134314 0)
(-0.005280018 2.0398375 0)
(-0.0021452505 1.9500736 0)
(-0.00065390276 2.0332914 -1.5451609e-21)
(0.0012980983 1.9730054 0)
(-0.00040769294 2.0363198 -8.175899e-20)
(-0.00059754944 1.9800399 1.5344675e-19)
(-0.0048068102 2.0409878 0)
(-0.0084121942 2.0407833 0)
(-0.0042745549 1.9597261 0)
(0.00035243544 2.0368423 0)
(-0.0016744582 1.972624 0)
(1.3604775 0.0090612267 0)
(1.3151766 0.0070655694 0)
(1.3454885 0.0078857567 0)
(1.2910672 0.0073033066 0)
(1.2365483 0.00070847205 0)
(1.2908685 -0.0021723098 0)
(1.2925111 0.003464658 0)
(1.2478391 -0.00057676719 0)
(0.0036838466 3.0703403 -1.0882888e-20)
(0.010611698 3.0628202 0)
(0.015990807 2.968932 0)
(0.013089282 2.8685723 0)
(0.71893094 4.3206098 0)
(1.1947705 3.3239173 9.6221873e-19)
(0.083891017 3.1750357 0)
(0.036066945 2.9419002 0)
(0.0061599584 2.0841245 0)
(-0.011286275 2.0882859 0)
(-0.0081489493 2.0890799 0)
(-0.0067576289 2.1321908 4.13444e-21)
(-0.0081932906 2.1230501 0)
(0.0033331385 2.1199927 0)
(0.0024854981 1.9824428 4.4468118e-21)
(0.0025690753 2.0455649 4.8497908e-20)
(0.00041362611 2.0481591 3.654076e-20)
(0.00051831661 1.9874533 0)
(1.0046388 0.16199454 8.0430746e-19)
(0.95416471 0.11889945 -7.847408e-19)
(0.24795622 1.6943714 0)
(0.26936949 1.5487094 -2.9782671e-19)
(0.16411896 1.7406409 -8.6416388e-19)
(0.11489517 1.6738815 8.6572971e-19)
(1.1057463 -0.042262595 0)
(1.1084281 -0.069387541 0)
(0.95334082 -0.12727911 0)
(0.94480499 -0.064674954 0)
(-0.0028608493 2.0367906 0)
(-0.00082427939 2.0359431 0)
(-0.0014534409 1.9768232 0)
(0.67244185 0.47285332 9.8533397e-19)
(0.56774321 0.48017284 -1.2112114e-18)
(0.58282919 0.42172544 0)
(1.6127707 0.1075679 3.3411579e-20)
(1.603032 0.11651099 0)
(1.48914 0.052816132 0)
(1.3862794 0.026903164 0)
(1.0246524 0.11254468 0)
(1.0620176 0.083250451 -3.5391685e-18)
(0.97423407 0.083918045 1.345346e-18)
(0.0068291136 2.9912627 1.045082e-18)
(-0.00065313981 2.8761874 5.1148634e-20)
(0.0035913025 3.0518996 -2.2785552e-20)
(0.012455578 3.0489639 8.2061944e-19)
(-0.009398428 2.9947999 4.0281571e-20)
(-0.0085193827 2.9365312 -1.6171234e-22)
(-0.013130957 3.0200651 -7.5935159e-19)
(0.0017216393 3.0257738 5.4732288e-19)
(0.006688401 3.0381669 -8.2120202e-19)
(1.3365352 0.0079765766 0)
(1.3256899 0.0090367733 0)
(1.277863 0.0078623366 0)
(1.2153462 -0.046638817 0)
(1.2760956 -0.022175143 0)
(1.2014794 -0.026610255 0)
(1.2894088 0.0016001916 0)
(1.2890946 -0.0024879805 0)
(1.2387181 -7.2700237e-05 0)
(0.56776317 1.2317887 2.2319197e-19)
(0.6430568 1.3139439 0)
(0.43552714 0.6853454 1.0801146e-19)
(0.66508712 0.96952662 6.5414897e-19)
(0.62121248 0.84990354 -2.5633688e-19)
(0.3290286 0.43257578 4.6222491e-19)
(0.61318347 1.4123162 2.2612821e-18)
(0.50962836 1.3021882 4.7029857e-19)
(0.92879646 0.31583262 1.1386131e-18)
(0.89433509 0.36031247 2.8050403e-19)
(0.85098227 0.3099988 5.7199125e-19)
(1.6962146 0.62408628 2.1787853e-19)
(1.7186064 0.48625371 2.1781464e-19)
(0.0039607893 2.0188195 2.3444457e-19)
(-0.0020032567 1.962341 0)
(1.4187057 0.033091909 0)
(1.3751347 0.01769164 0)
(1.345732 0.018167743 0)
(0.0099394521 3.0773003 0)
(0.016620541 2.9386202 1.5995088e-18)
(0.016307572 2.9537413 0)
(0.01324288 2.8448705 -1.5966747e-18)
(0.009704319 3.0910749 3.6653163e-19)
(0.0042504314 3.0873053 0)
(0.74404667 1.6592746 -1.5725929e-19)
(1.0672048 2.3577583 2.1862736e-19)
(0.74271437 1.8077764 -1.0002168e-18)
(0.020035548 3.0103741 -9.4076482e-19)
(0.044687339 3.0609715 0)
(0.016567249 2.8936917 0)
(-0.0011717193 2.0346517 -9.361505e-21)
(0.0030313914 2.0395387 -1.1026163e-19)
(0.0011997589 1.9802555 -5.9579895e-21)
(0.32040668 1.6423723 9.372933e-19)
(0.33215505 1.4959651 -6.4883622e-19)
(0.035294997 1.8703785 5.7926829e-19)
(0.089265557 1.8031109 -7.1039762e-19)
(0.054962549 1.7472838 8.9007392e-20)
(0.015359512 3.1092089 -2.4243171e-18)
(0.017145212 3.1167504 2.7441144e-18)
(-0.0067374722 2.9812389 1.1205381e-18)
(-0.0022773793 2.9802746 -1.0918122e-18)
(-0.0058024056 2.882062 -1.1413114e-18)
(0.0058975778 3.1034821 -2.8518491e-18)
(0.010239097 3.1022287 2.8319825e-18)
(0.65413171 1.2679917 0)
(0.67299907 1.1128755 -1.9066759e-18)
(0.52085558 0.94954891 8.673261e-19)
(0.54109131 1.5103855 1.2790846e-18)
(0.46129079 1.4010605 -2.0064913e-18)
(1.711765 0.2202733 6.6226219e-20)
(1.7082812 0.39056386 0)
(1.7095965 0.26593426 4.2322841e-20)
(0.0030873122 2.0270199 -1.9826387e-21)
(-0.0035885922 2.0203668 0)
(0.0001484174 1.961295 0)
(0.38991428 1.608979 -3.331073e-19)
(0.46481202 1.5774403 -8.0489104e-19)
(0.39415059 1.4481538 1.4761635e-18)
(1.2122449 0.11727495 0)
(1.3040795 0.035330456 3.7336814e-19)
(0.0063365477 2.1242346 0)
(-0.0044983672 2.1425736 0)
(1.5242876 -0.00055064936 -2.0454598e-20)
(1.1882605 -0.068225389 7.8499491e-19)
(-0.011122708 2.1354239 -5.4057809e-21)
(-0.011363615 2.1312436 0)
(0.078858438 3.1899793 7.1876968e-19)
(0.57187177 3.641142 0)
(1.4945976 0.87712092 -7.1158721e-20)
(1.2518125 -0.25436348 4.3058221e-20)
(1.2850594 0.17469859 0)
(1.9798041 -0.0045821586 -2.409633e-21)
(0.055093126 2.224349 0)
(0.09207582 2.0268401 0)
(0.0051044756 2.1509293 0)
(0.012059699 2.1199552 1.0369487e-19)
(0.0016036862 2.1187945 5.4980285e-20)
(1.3380181 0.030772888 6.6452621e-21)
(1.3996942 0.014632388 0)
(1.4203479 0.034311945 0)
(-0.0011845678 2.0819882 0)
(0.003453942 2.1172008 0)
(-0.0081197834 2.1317805 0)
(0.30590197 2.3284206 -3.2585919e-19)
(1.191358 0.16495745 0)
(1.0873368 0.23872017 0)
(1.9471184 -0.0005146373 5.4149867e-19)
(1.6379504 0.04208396 -5.5909204e-19)
(1.9037884 0.023874658 0)
(0.01339942 2.0600559 0)
(0.0072626017 2.1086818 0)
(0.012626259 2.0831083 0)
(-0.010774623 2.1383886 0)
(-0.0081190766 2.1343468 0)
(-0.011956105 2.1397032 0)
(1.3700597 0.020763662 0)
(1.3565251 0.00082406005 -3.2919751e-22)
(0.96878284 1.819221 4.8294306e-19)
(1.9362198 -0.0060148435 -5.3851318e-19)
(1.7134213 -0.037281457 5.5003244e-19)
(1.8970176 -0.027154169 0)
(1.272748 -0.2645847 6.9368874e-19)
(1.142865 -0.20431773 -6.1901076e-19)
(1.0195722 -0.24058249 0)
(0.0022877203 2.1237902 0)
(-0.0063927749 2.1319663 2.3682524e-20)
(-0.0045455069 2.1238489 -1.8012352e-20)
(1.5376124 0.34727458 8.2723401e-19)
(1.475136 0.10092165 0)
(0.11079799 3.0509871 -1.439299e-18)
(0.060186468 2.838682 -1.0492315e-19)
(0.22239876 3.1881842 2.1504105e-18)
(0.19558741 3.2563094 -3.082754e-19)
(0.19420242 3.3185379 0)
(0.037216053 3.1307641 3.9622795e-19)
(0.10299941 3.1709577 1.4149237e-18)
(0.10031844 3.2050352 -7.4044709e-19)
(0.061153775 3.1019382 0)
(0.91239586 0.48322391 0)
(0.80612943 0.52930769 0)
(1.4301009 0.91219703 1.558945e-19)
(1.4129175 1.1369087 -1.2086634e-19)
(1.4899755 0.75496688 0)
(1.5452163 0.75427801 0)
(1.2732294 -0.23851024 -1.4820118e-18)
(1.2464104 -0.17372195 1.9501809e-18)
(1.3124336 0.15297922 0)
(1.3156158 0.10275172 0)
(1.8676473 -0.016165162 0)
(1.6740945 -0.1087298 0)
(1.8994169 -0.051126848 0)
(1.5875684 -0.17890545 0)
(1.6230029 -0.14174594 0)
(1.7801776 -0.071888041 0)
(0.036405737 2.2126326 0)
(0.0084985659 2.215139 0)
(0.10360001 2.2514819 0)
(0.097250342 2.2743248 0)
(0.10036935 2.007716 0)
(0.075312988 1.9770486 -3.8000943e-19)
(0.093254019 2.0479306 0)
(0.06594174 2.0463278 1.9613049e-19)
(0.0057416368 2.0881147 -2.0759407e-19)
(0.0078066225 2.1523365 0)
(0.0075236959 2.1500529 0)
(0.0062519405 2.1590534 0)
(-0.00010685324 2.1836116 0)
(0.017250652 2.101686 -6.5989288e-20)
(0.00063594657 2.122021 7.4588947e-20)
(0.0082258485 2.125005 9.5581087e-20)
(0.0039568709 2.1265885 0)
(0.0033291499 2.1239005 -1.2626533e-19)
(0.0064748726 2.1242151 -7.7036375e-20)
(0.0085665837 2.0991987 5.0384148e-20)
(-0.00056210749 2.1083186 -9.6964954e-20)
(0.0043886323 2.1135155 -1.1956505e-19)
(1.3437836 0.02764187 1.5934767e-18)
(1.3472203 0.013469565 -2.0210131e-18)
(1.3405738 0.035574347 -1.6175328e-18)
(1.3195691 0.022420991 2.0795482e-18)
(1.3949969 0.021683397 0)
(1.4042224 0.009777685 0)
(1.423587 0.030515315 0)
(1.4039188 0.016977354 0)
(1.430982 0.016723403 0)
(1.4623777 0.094530738 0)
(1.4322066 0.049729012 0)
(1.4581162 0.050490354 0)
(-0.006364919 2.1347746 -2.1493631e-21)
(0.0020821867 2.1025782 0)
(-0.010498873 2.1227936 0)
(0.0023375231 2.1211806 2.0012598e-20)
(0.0033281197 2.1255422 -1.0566674e-21)
(0.021452376 2.0661143 2.7678829e-20)
(0.014027778 2.0690235 -2.7830691e-20)
(-0.0090388947 2.1224068 0)
(-0.0067406702 2.117553 0)
(-0.00011766195 2.110554 0)
(-0.0017193702 2.1372859 0)
(0.0011256275 2.1253082 0)
(0.47518093 2.3035684 5.5073304e-19)
(0.4780262 2.3456682 2.7496029e-19)
(0.33987366 1.8698328 -2.2331796e-19)
(0.17369 1.9014682 5.5375998e-19)
(0.31780861 1.9777838 1.4238215e-19)
(1.2749851 0.22526792 0)
(1.2055689 0.24907637 0)
(1.1262632 0.21257403 0)
(1.8691066 0.048259235 0)
(1.8957047 0.051421263 0)
(1.7022397 0.067746578 0)
(1.5417013 0.13825342 0)
(1.5025584 0.17485294 0)
(1.3562146 -0.01475894 1.5759871e-18)
(1.3451099 -0.036868758 -2.0157797e-18)
(1.3578467 0.0038410935 -1.5680575e-18)
(1.3566206 -0.00020159388 1.9977426e-18)
(0.91036614 1.8579675 0)
(0.81834327 2.1081226 4.4119093e-19)
(1.0576664 1.6337789 1.6600415e-19)
(1.13873 1.6383271 -2.2155913e-19)
(1.0592043 2.5639757 -2.1065765e-19)
(1.1113737 0.15394119 8.3785326e-19)
(1.4695842 0.1312334 0)
(1.5126672 0.22762555 -6.3987204e-19)
(1.5414581 0.19975497 -2.3989912e-20)
(1.2918646 0.13863223 0)
(0.29972534 2.9485139 7.5346943e-19)
(0.15361304 2.8187003 -2.0807511e-18)
(0.073527386 2.333164 1.3649274e-18)
(0.14275475 0.28312849 -6.6465004e-19)
(0.4178112 3.5404341 -1.2132655e-19)
(0.27432027 3.4144484 0)
(0.27063254 3.4868148 1.7179475e-19)
(0.33897698 3.1269849 -1.9687119e-18)
(0.47489227 3.2462254 0)
(0.014580632 3.1098265 7.3249285e-20)
(0.020893806 3.1286506 -7.9835434e-19)
(0.036251844 3.1152302 1.240568e-18)
(0.046001159 3.1447767 0)
(0.04503804 3.153398 0)
(1.1722003 2.7890089 0)
(0.71090732 0.99228379 -5.8967641e-19)
(1.2947347 1.3932037 -2.8244865e-20)
(1.1877058 1.4240127 0)
(1.0160048 1.2891885 -1.1474341e-19)
(1.3299983 1.1849897 3.597037e-20)
(0.530768 0.6534406 -1.5056861e-18)
(0.95629852 0.45631227 -4.01606e-20)
(0.96565095 0.41302016 5.9952065e-19)
(0.79886508 0.57564696 4.5419774e-20)
(0.7289869 0.56448754 -1.9009548e-18)
(0.90813597 0.51669132 0)
(0.90527166 0.57230706 9.8988496e-19)
(0.91640857 0.54573688 0)
(0.84779579 0.53850432 0)
(0.85443787 0.50534275 0)
(1.007724 0.77001158 5.4834559e-19)
(1.5176141 0.36153507 -6.9189286e-19)
(1.5340523 0.56603352 0)
(1.5710748 0.52302333 0)
(1.0500674 0.30134822 9.1258361e-19)
(1.0214268 0.68039375 -5.4792917e-19)
(0.94088283 0.64217767 9.6514838e-19)
(1.1762024 0.52846525 -1.0208429e-18)
(1.3362968 -0.084764022 1.0750302e-18)
(1.3027219 -0.14793099 -1.0608623e-18)
(1.3022172 -0.10279924 0)
(1.3676216 0.034007804 0)
(1.3430694 0.086601239 -1.0089196e-18)
(1.3636918 0.044124316 9.9711791e-19)
(1.3685068 -0.0062726608 0)
(1.358339 -0.022868906 0)
(1.6221757 -0.13397027 0)
(1.4652685 -0.20603758 0)
(1.5210433 -0.034120781 0)
(1.6040855 -0.034676325 0)
(0.00041944476 2.2091656 0)
(-0.0014423647 2.2042493 0)
(0.1577786 2.2058267 -7.02862e-21)
(0.28065225 2.3096952 1.6590988e-19)
(0.15229251 2.3077439 3.7649688e-19)
(0.15901942 2.325773 -6.0228965e-19)
(0.1917522 2.2503762 0)
(0.1695631 2.1058976 -1.2878334e-19)
(0.15023839 2.1127155 0)
(0.28216156 1.9832459 -1.980745e-19)
(0.23090436 1.9219892 6.9515011e-19)
(0.20124899 2.1366614 1.1552522e-19)
(0.28221307 2.256229 7.1591633e-20)
(0.2261732 2.2301922 -5.8482072e-20)
(0.32553998 2.1680487 -9.8216569e-20)
(0.24855659 2.0798903 0)
(0.26195074 2.0773054 1.0010437e-19)
(0.034010472 2.091416 -5.7213912e-20)
(0.005746299 2.0811862 0)
(0.049064131 2.059885 2.2363361e-19)
(0.025384887 2.0637426 0)
(0.047387511 2.068811 -2.1812206e-19)
(0.013252967 2.0791342 0)
(0.010512324 2.0960867 -4.4963241e-20)
(0.016058901 2.0964189 0)
(0.017718386 2.1151143 0)
(0.014809221 2.101692 5.0929868e-20)
(0.02037537 2.1135258 5.012063e-21)
(0.015289552 2.0974666 2.4923182e-19)
(0.016009138 2.1133816 1.6700004e-21)
(-0.0045141805 2.0899699 4.5936985e-20)
(-0.0053906763 2.0908312 2.8401727e-20)
(0.010831908 2.1483797 0)
(0.0034887146 2.1404424 0)
(0.035859889 2.1074174 1.4046225e-19)
(0.022187291 2.0950955 8.9964663e-20)
(0.025952216 2.0977048 -1.285097e-19)
(0.045822989 2.1194281 0)
(0.01145168 2.0977571 -6.9782155e-20)
(-0.0054173474 2.1032179 2.9729441e-20)
(-0.0057687851 2.1012409 -1.0474627e-20)
(-0.0025333456 2.0914197 -5.4389659e-20)
(0.0066134752 2.1101645 -1.8724522e-20)
(0.0054934676 2.1130747 8.8319284e-20)
(1.3586418 -0.0037826491 -1.0655927e-18)
(1.3535947 -0.0018696583 1.0755148e-18)
(1.3535121 -0.0099486244 0)
(1.3264917 0.091905432 1.5282558e-18)
(1.3120343 0.042174761 -1.6997131e-18)
(1.2708765 0.021209867 1.9047678e-18)
(1.3216752 0.11894349 -2.0748603e-19)
(1.3792849 0.018811002 0)
(1.3878357 0.018192879 9.7302033e-19)
(1.3922901 0.014280609 -9.6501564e-19)
(1.3653198 0.035556251 -5.7731849e-20)
(1.3648828 0.024575804 5.0295158e-19)
(1.3353473 0.045538775 0)
(1.3169028 0.035828088 -1.8079473e-19)
(1.346193 0.016999476 0)
(1.3373761 0.021993817 0)
(1.3672492 -0.0060181272 0)
(1.3642595 -0.0037072238 0)
(1.3435055 0.015931911 3.6875223e-19)
(1.3418703 0.024760874 -8.0537036e-19)
(1.328558 0.031427427 -3.9692096e-19)
(1.320956 0.01569422 -4.3408285e-19)
(1.3283863 0.071445258 8.2831179e-19)
(1.3842737 0.063439123 0)
(1.3974326 0.10954388 0)
(0.023099645 2.1080227 -2.5222698e-20)
(0.022124857 2.0980351 -2.4802656e-21)
(0.031098663 2.0851307 0)
(0.016107119 2.1211131 2.6057329e-20)
(-0.00024608732 2.1312094 4.4283585e-21)
(0.01065292 2.1301451 -5.3840518e-21)
(0.007785444 2.1266919 6.7395054e-20)
(-0.0020976893 2.1133166 -3.9632296e-21)
(0.0036379504 2.1133255 1.9311895e-20)
(0.00428854 2.1250892 -3.5236831e-20)
(0.006341443 2.126251 4.2373125e-20)
(0.0033895236 2.1116435 -9.73737e-22)
(0.017802472 2.0926321 3.9884238e-20)
(0.4718431 2.1760385 -2.373675e-19)
(0.38895812 2.1353344 1.2200501e-19)
(0.80087819 2.1286305 -4.2926239e-19)
(0.65738774 2.2717541 -2.6518168e-19)
(0.66134592 2.2824951 0)
(0.39120005 1.8702363 2.2861343e-19)
(0.41084966 1.8622599 3.3475367e-19)
(0.23336392 1.8946921 5.1581095e-20)
(0.23973627 1.8817527 -8.0162468e-19)
(0.30259893 1.8850654 6.4378838e-19)
(0.32013351 1.89024 0)
(0.24968415 1.8952991 -4.9317121e-19)
(0.090555965 1.9552053 9.7540013e-19)
(0.14868056 1.933005 -4.482174e-20)
(0.087843411 1.932559 -1.3323091e-18)
(0.87111268 1.7713817 1.2496688e-18)
(0.63422734 1.8104569 0)
(1.7683035 0.084508578 2.7485488e-20)
(1.4892123 0.19858683 -2.3578432e-20)
(1.4552729 0.22037558 -4.5834594e-19)
(1.5773268 0.14793663 4.6303371e-19)
(1.7186415 0.07961422 0)
(0.69921739 1.7961891 0)
(0.57530567 1.6513384 0)
(0.87806375 1.4857027 0)
(0.65446421 1.4950918 0)
(1.057246 2.5150095 1.1820223e-19)
(1.0862505 2.2686388 0)
(0.58906276 2.4229983 8.5324804e-21)
(0.62855681 2.0072733 0)
(0.75774634 2.0216833 -8.4756924e-19)
(0.76242308 2.1472076 5.7195898e-19)
(1.1286041 0.18083162 0)
(1.0904482 0.21934108 2.3376219e-19)
(1.2154665 0.16492939 1.3015058e-18)
(1.1508349 0.15068028 -4.8678452e-19)
(1.1297002 0.12799963 -1.5219066e-18)
(1.3383871 0.26439483 -1.195659e-18)
(1.2255881 0.37786264 -2.0252572e-20)
(1.1532262 0.35035675 1.2219429e-18)
(1.2500202 0.27661157 1.0123968e-18)
(1.2444241 0.18798477 -1.7274777e-18)
(1.2170661 0.20272428 2.1742684e-19)
(1.2259809 0.27382713 -4.6496347e-19)
(1.2209719 0.24021921 0)
(1.2885025 0.18436374 8.5177319e-19)
(1.3012203 0.20218131 0)
(1.2965529 0.25040817 0)
(1.3926611 0.13486303 3.9535411e-19)
(1.3296108 0.18524088 -1.9533701e-20)
(1.3445761 0.25089829 -2.155544e-19)
(1.4108548 0.22308259 0)
(1.343535 0.039484936 8.2867767e-19)
(1.3470804 0.053426475 1.0355182e-18)
(1.3492421 0.03141651 -7.9787744e-19)
(1.3510089 0.07959682 -6.9978884e-19)
(1.3427167 0.077766828 -1.0945688e-18)
(1.2580531 0.12385284 0)
(1.2731402 0.099961087 0)
(1.2509812 0.055418549 -6.8876756e-19)
(1.2163772 0.06781736 2.711419e-19)
(1.3427573 0.12061671 9.776571e-19)
(1.3327998 0.14148184 -1.1348453e-18)
(1.344575 0.15111048 1.0118504e-18)
(1.3403421 0.15671195 0)
(1.3472198 0.12731705 0)
(1.3292109 0.10492393 -4.6972643e-19)
(1.3503598 0.11701386 -8.0588847e-19)
(0.30334054 1.8154811 1.3179645e-19)
(0.45442574 2.4015067 -1.9509482e-19)
(0.920371 3.0346666 -3.3590492e-21)
(1.1253056 3.3789298 -4.3809864e-20)
(1.1187298 2.7513796 2.8777473e-19)
(1.2054277 2.8855949 -2.0017656e-19)
(1.0434161 2.3911743 1.9635707e-20)
(1.1217065 3.2087441 1.0974566e-19)
(1.1183926 3.1835194 -7.0024636e-20)
(1.1649459 3.5044738 -2.2050461e-19)
(1.2941596 3.1792363 2.3194436e-19)
(1.3425539 3.079105 0)
(0.71097264 1.022692 -3.8425425e-20)
(0.41431151 1.3629603 7.8709404e-19)
(0.6318065 0.82816026 9.8741105e-19)
(0.42854034 0.50067709 1.1965072e-18)
(0.71757592 0.59398376 1.0607344e-18)
(0.73805018 0.64714773 -1.7232454e-18)
(0.70088999 0.70986472 1.3985118e-18)
(0.6523994 0.65145001 -5.7180285e-19)
(0.63970081 0.60219386 1.2872418e-18)
(1.0563114 0.34642827 -5.1156618e-19)
(1.002118 0.39785459 0)
(1.0056788 0.3713684 2.2479617e-20)
(0.90249575 0.65669766 5.2732603e-19)
(0.8829712 0.62798558 -1.9203427e-18)
(0.77829446 0.66270103 4.4699643e-20)
(0.82595645 0.61991082 0)
(0.80919218 0.94223822 4.873263e-19)
(1.0212041 0.99659643 4.3127764e-19)
(0.93564623 1.0968238 -5.0085931e-19)
(1.0732865 0.9935319 -1.9899366e-19)
(1.1993298 1.1103994 -4.1399304e-20)
(1.139646 1.1063323 4.1800119e-20)
(1.0670699 0.78141523 -9.251723e-19)
(1.1392651 0.8820716 1.8665329e-19)
(1.260934 0.91365334 0)
(1.2878381 0.85489055 -2.6119649e-19)
(1.256517 0.39767723 3.0650799e-19)
(1.4187771 0.36962468 4.0668861e-19)
(1.3216615 0.33888674 4.9756747e-19)
(1.2379616 0.46908119 -6.173521e-19)
(1.3091479 0.51858976 0)
(1.3682636 0.50698822 0)
(1.1281305 0.46869114 1.5549023e-20)
(1.0855477 0.37776557 0)
(1.114316 0.36158286 5.8910702e-19)
(1.1321144 0.36114519 -2.0621827e-20)
(1.1613335 0.56524812 2.6856122e-18)
(1.0886889 0.64566774 7.3500004e-19)
(1.0816254 0.58856733 -8.201971e-19)
(1.0166257 0.56582426 8.8449042e-19)
(0.97966473 0.56676941 5.3016679e-19)
(0.93502688 0.53351741 -5.1910027e-19)
(1.3641723 0.083850856 8.3822368e-19)
(1.4490409 0.017758219 0)
(1.4826589 0.10945444 5.6877083e-19)
(1.377448 0.11565135 -1.2706095e-18)
(1.4097715 0.00043503095 6.1255154e-19)
(1.413021 -0.037065288 -1.2897559e-18)
(1.3757673 -0.045550426 0)
(1.3724559 -0.0903262 -2.662908e-19)
(1.4548676 -0.077449428 6.5283581e-19)
(1.4262851 -0.15237058 -3.3282029e-19)
(1.3795778 -0.12202698 2.5128919e-19)
(0.001361037 2.188619 0)
(0.014892082 2.1286762 0)
(-0.00296287 2.2006305 0)
(-0.0025711827 2.1991508 0)
(0.040027421 2.1541809 1.8734187e-20)
(0.05321033 2.1729869 7.2197711e-21)
(0.12179346 2.1292007 -4.6760687e-20)
(0.120499 2.1578505 -1.4170934e-21)
(0.021744327 2.1078018 -8.7786729e-20)
(0.021911494 2.1127146 6.6553685e-20)
(0.027013363 2.1453812 -1.7280718e-20)
(0.010620173 2.1639241 1.0745983e-21)
(0.0084794991 2.146505 -1.292214e-21)
(0.0121367 2.1311773 -8.9016282e-21)
(0.073746591 2.0659461 -2.397272e-19)
(0.10469035 2.0658367 0)
(0.12535169 2.0750412 1.3995351e-19)
(0.12447109 2.0941846 9.5722123e-20)
(0.20026134 2.0264876 -1.0397203e-19)
(0.13723837 1.9589371 0)
(0.15282837 1.9286691 -7.1387151e-19)
(0.19408503 1.9413756 5.0943972e-19)
(0.18653448 2.0540614 -2.7820654e-19)
(0.15035494 2.0505348 1.590789e-19)
(0.12117581 2.0070163 0)
(0.036627871 2.0990368 -1.7746354e-19)
(0.028819315 2.1012928 -2.1770404e-19)
(0.030042772 2.1031686 0)
(0.034215507 2.0980106 -6.7588583e-21)
(0.037927238 2.0937414 8.725043e-20)
(0.0074656513 2.1244554 7.8744996e-21)
(0.013929268 2.1356765 -1.2298562e-19)
(0.0055027388 2.1248881 2.9883213e-20)
(-0.0093109852 2.0896604 4.9579641e-20)
(0.0046688982 2.0955157 0)
(0.0044060773 2.1371505 0)
(0.0017404676 2.1358148 3.6616479e-20)
(0.0049974548 2.1405444 -1.1117293e-20)
(0.006133409 2.1390799 0)
(0.0033954662 2.1405132 3.1267354e-20)
(-0.0010740345 2.129218 -5.9253544e-20)
(1.3435001 0.022191291 0)
(1.3501513 0.021364225 -9.0287442e-20)
(1.3530286 0.024978119 -6.5483493e-19)
(1.36052 0.035581263 0)
(1.3448573 0.040580753 0)
(1.3489255 0.016516682 -9.8932448e-21)
(1.3568275 0.008928801 1.0339603e-18)
(1.3525252 0.016346854 1.2857096e-18)
(1.3659913 -0.0011424945 0)
(1.3626219 0.0015537476 0)
(1.3414409 0.026430549 6.6029257e-19)
(1.3400914 0.014897511 0)
(1.3551204 0.011832879 0)
(-0.0066147049 2.0744684 0)
(0.019035453 2.0945458 7.1140847e-22)
(0.012622529 2.0853853 1.5696805e-20)
(0.0033553995 2.1370898 0)
(0.0031116931 2.114386 2.0041961e-20)
(0.0032429582 2.1298996 -1.2076338e-20)
(-0.0040897026 2.144366 0)
(0.44588406 1.9819245 0)
(0.36981786 2.0705242 -3.1318654e-19)
(0.36190958 2.016078 0)
(0.48750066 2.0529586 1.9738318e-19)
(0.58044068 2.1542322 0)
(0.52793652 2.1302837 -1.7028811e-20)
(0.89727243 2.0506114 -2.4913493e-20)
(0.92448254 1.8119715 -1.4518878e-18)
(0.99525618 1.7575977 1.5700918e-18)
(0.71060166 1.8227688 3.647895e-19)
(0.70594292 1.8941908 0)
(0.7847405 1.9065306 0)
(0.83721569 1.8058543 0)
(0.76051284 1.7773701 -1.3427227e-18)
(0.4761395 1.9427112 -6.8027865e-19)
(0.62311906 1.8944008 -1.6659815e-19)
(0.60476572 1.9406508 1.3315533e-19)
(0.46918722 1.8611717 0)
(0.59235107 1.8572252 0)
(0.50588146 1.8508283 -3.9764706e-19)
(0.56965712 1.8836022 0)
(0.57740185 1.3570907 0)
(0.55167402 1.0499158 -1.2159305e-19)
(0.66545015 1.0487324 -9.4998976e-21)
(0.38480269 1.374518 0)
(0.42459552 1.381744 1.7063071e-19)
(0.93918181 1.1528593 -1.254059e-19)
(0.91146788 1.3041369 0)
(0.9508409 1.255737 1.9163308e-19)
(0.74567497 1.2556762 0)
(0.76657101 1.151561 0)
(0.98977807 2.6900403 -1.1269449e-19)
(0.91059812 2.9521061 -1.9554326e-19)
(0.63357568 2.7164848 3.3681805e-19)
(0.62687364 2.5322644 -1.7702909e-19)
(1.0205338 2.4650744 0)
(0.93299775 2.3836946 2.2815777e-19)
(1.0753712 2.2078783 -1.8042789e-19)
(1.102525 2.0062795 -2.4730723e-21)
(0.44118397 2.1158215 0)
(0.33906668 1.8207417 -1.1633957e-19)
(0.45034942 1.8197227 0)
(1.1546414 0.2592784 0)
(1.0998834 0.24365049 0)
(1.0558783 0.25803889 0)
(1.1462313 0.289687 -9.1157426e-19)
(1.0824365 0.28009457 5.4022047e-19)
(1.2090787 0.084266451 -5.3310378e-19)
(1.2167835 0.12411812 0)
(1.2108475 0.14457198 2.384306e-19)
(1.1746273 0.11677486 9.6786049e-19)
(1.1796481 0.094092318 -6.1069962e-19)
(1.2676299 3.6084887 -4.9554648e-19)
(1.2117144 3.5838938 0)
(1.3068715 3.5416959 -1.0539577e-18)
(0.5609037 3.6357937 1.0213809e-18)
(0.82165097 3.2400715 -2.276008e-20)
(0.72016478 1.0268954 4.4284577e-19)
(0.57187929 1.0400382 0)
(0.64550125 0.75928921 -2.1077431e-19)
(0.67099135 0.91708963 9.7359187e-19)
(0.64771265 0.79496932 -3.2408822e-19)
(0.65208581 0.75856132 3.4060946e-19)
(0.78721534 0.71248005 7.2044629e-19)
(0.85691019 0.71065465 0)
(0.79746177 0.83313143 0)
(0.70896836 0.78561566 0)
(1.2219199 0.74824446 1.0452357e-19)
(1.1099801 0.68497143 -7.0180288e-19)
(1.1175804 0.73113582 5.3961451e-19)
(1.1549785 0.67125355 -5.473282e-19)
(1.3106659 0.64813315 0)
(1.3348005 0.71138559 -1.2951602e-19)
(1.0343591 0.51649066 -1.2156417e-18)
(1.0547204 0.50461567 -1.467962e-18)
(0.99005187 0.49743468 9.4650423e-19)
(0.98510253 0.46888495 -9.7030555e-19)
(1.0578884 0.42411516 -7.5559879e-19)
(1.012534 0.42360148 9.3796477e-19)
(1.3880282 0.0050853092 -6.5257107e-19)
(1.3873365 0.0017782514 1.3251421e-18)
(1.3612877 0.047951824 8.0544409e-19)
(1.3481884 0.041598115 -9.6148866e-19)
(1.3332379 0.031865607 0)
(1.3653981 0.012731679 -1.6658886e-18)
(0.051852141 2.1197337 3.2155293e-20)
(0.050590399 2.1260479 0)
(0.066819805 2.092542 3.140632e-19)
(0.088815379 2.1056547 -2.8218001e-19)
(0.086244775 2.1306318 8.2492056e-20)
(0.065583028 2.1370151 0)
(-0.0046472061 2.0793548 0)
(-0.0011195013 2.118043 -1.3302568e-20)
(0.0007136773 2.1263092 1.2047107e-20)
(-0.0017172354 2.1174997 7.3832696e-21)
(-0.0056412749 2.0768576 -2.4248263e-20)
(-0.0029339353 2.0809726 1.5059735e-20)
(0.5031949 2.0670574 -6.4851922e-19)
(0.53382233 2.0161201 6.7942581e-19)
(0.50574358 2.02403 -1.4826171e-19)
(0.51990878 2.0078177 2.9276336e-20)
(0.65434852 1.892484 0)
(0.60678797 2.0617547 1.7403113e-19)
(0.66393516 2.0289309 -1.7042668e-19)
(0.51014775 2.0212643 1.4735288e-19)
(0.52591072 1.9782256 0)
(0.51909939 1.9357976 0)
(0.45179992 1.9098433 1.0097895e-18)
(0.46012921 1.8647394 1.5662269e-18)
(0.50863594 1.8847108 -1.107405e-18)
(0.40581915 1.8829312 -1.9747025e-19)
(0.36441395 1.9101648 3.4349021e-19)
(0.30874165 1.8819502 -8.5933703e-19)