/*--------------------------------*- C++ -*----------------------------------*\
  =========                 |
  \\      /  F ield         | OpenFOAM: The Open Source CFD Toolbox
   \\    /   O peration     | Website:  https://openfoam.org
    \\  /    A nd           | Version:  9
     \\/     M anipulation  |
\*---------------------------------------------------------------------------*/
FoamFile
{
    format      ascii;
    class       volScalarField;
    location    "0.004";
    object      rho;
}
// * * * * * * * * * * * * * * * * * * * * * * * * * * * * * * * * * * * * * //

dimensions      [1 -3 0 0 0 0 0];

internalField   nonuniform List<scalar> 
1000
(
0.997574
0.997574
0.997574
0.997574
0.997574
0.997574
0.997574
0.997574
0.997574
0.997574
0.997574
0.997574
0.997574
0.997574
0.997574
0.997574
0.997574
0.997574
0.997574
0.997574
0.997574
0.997574
0.997574
0.997574
0.997574
0.997574
0.997574
0.997574
0.997574
0.997574
0.997574
0.997574
0.997574
0.997574
0.997574
0.997574
0.997574
0.997574
0.997574
0.997574
0.997574
0.997574
0.997574
0.997574
0.997574
0.997574
0.997574
0.997574
0.997574
0.997574
0.997574
0.997574
0.997574
0.997574
0.997574
0.997574
0.997574
0.997574
0.997574
0.997574
0.997574
0.997574
0.997574
0.997574
0.997574
0.997574
0.997574
0.997574
0.997574
0.997574
0.997574
0.997574
0.997574
0.997574
0.997574
0.997574
0.997574
0.997574
0.997574
0.997574
0.997574
0.997574
0.997574
0.997574
0.997574
0.997574
0.997574
0.997574
0.997574
0.997574
0.997574
0.997574
0.997574
0.997574
0.997574
0.997574
0.997574
0.997574
0.997574
0.997574
0.997574
0.997574
0.997574
0.997574
0.997574
0.997574
0.997574
0.997574
0.997574
0.997574
0.997574
0.997574
0.997574
0.997574
0.997574
0.997574
0.997574
0.997574
0.997574
0.997574
0.997574
0.997574
0.997574
0.997574
0.997574
0.997574
0.997574
0.997574
0.997574
0.997574
0.997574
0.997574
0.997574
0.997574
0.997574
0.997574
0.997574
0.997574
0.997574
0.997574
0.997574
0.997574
0.997574
0.997574
0.997574
0.997574
0.997574
0.997574
0.997574
0.997574
0.997574
0.997574
0.997574
0.997574
0.997574
0.997574
0.997574
0.997574
0.997574
0.997574
0.997574
0.997574
0.997574
0.997574
0.997574
0.997574
0.997574
0.997574
0.997574
0.997574
0.997574
0.997574
0.997574
0.997574
0.997574
0.997574
0.997574
0.997574
0.997574
0.997574
0.997574
0.997574
0.997574
0.997574
0.997574
0.997574
0.997574
0.997574
0.997574
0.997574
0.997574
0.997574
0.997574
0.997574
0.997574
0.997574
0.997574
0.997574
0.997574
0.997574
0.997574
0.997574
0.997574
0.997574
0.997574
0.997574
0.997574
0.997574
0.997574
0.997574
0.997574
0.997574
0.997574
0.997574
0.997574
0.997574
0.997574
0.997574
0.997574
0.997574
0.997574
0.997574
0.997574
0.997574
0.997574
0.997574
0.997574
0.997574
0.997574
0.997574
0.997574
0.997574
0.997574
0.997574
0.997574
0.997574
0.997574
0.997574
0.997574
0.997574
0.997574
0.997574
0.997574
0.997574
0.997574
0.997574
0.997574
0.997574
0.997574
0.997574
0.997574
0.997574
0.997574
0.997574
0.997574
0.997574
0.997574
0.997574
0.997574
0.997574
0.997574
0.997574
0.997574
0.997574
0.997574
0.997574
0.997574
0.997574
0.997574
0.997574
0.997574
0.997574
0.997574
0.997574
0.997574
0.997574
0.997574
0.997574
0.997574
0.997574
0.997574
0.997574
0.997574
0.997574
0.997574
0.997574
0.997574
0.997574
0.997574
0.997574
0.997574
0.997574
0.997574
0.997574
0.997574
0.997574
0.997574
0.997574
0.997574
0.997574
0.997574
0.997574
0.997574
0.997574
0.997574
0.997574
0.997574
0.997574
0.997574
0.997574
0.997574
0.997574
0.997573
0.997573
0.997572
0.997571
0.997569
0.997566
0.997562
0.997556
0.997547
0.997535
0.997517
0.997492
0.997458
0.997411
0.997347
0.997262
0.997148
0.996998
0.996805
0.996557
0.996244
0.995852
0.995368
0.994779
0.994069
0.993224
0.992231
0.991077
0.989751
0.988245
0.986552
0.984669
0.982593
0.980327
0.977873
0.975237
0.972425
0.969448
0.966313
0.963033
0.959616
0.956074
0.952417
0.948656
0.944799
0.940858
0.936839
0.932752
0.928604
0.924401
0.920149
0.915855
0.911524
0.90716
0.902767
0.898349
0.89391
0.889453
0.88498
0.880495
0.875999
0.871495
0.866984
0.862469
0.857951
0.853432
0.848912
0.844394
0.839879
0.835367
0.830859
0.826358
0.821863
0.817375
0.812895
0.808425
0.803964
0.799514
0.795075
0.790647
0.786231
0.781828
0.777438
0.773061
0.768699
0.76435
0.760016
0.755697
0.751394
0.747106
0.742833
0.738577
0.734337
0.730113
0.725906
0.721716
0.717543
0.713387
0.709248
0.705127
0.701023
0.696937
0.692869
0.688819
0.684786
0.680772
0.676776
0.672798
0.668838
0.664897
0.660974
0.657071
0.653181
0.649322
0.645456
0.64166
0.637786
0.634101
0.630158
0.626651
0.622581
0.619274
0.615129
0.61187
0.607894
0.604406
0.600809
0.597055
0.593656
0.589974
0.586439
0.582988
0.579402
0.575946
0.572507
0.569025
0.565607
0.562223
0.558822
0.555448
0.552128
0.548796
0.545484
0.542216
0.538955
0.535716
0.532498
0.529309
0.526143
0.522988
0.519869
0.51677
0.513694
0.510644
0.507617
0.504624
0.501649
0.498708
0.495791
0.492908
0.490054
0.487229
0.484442
0.481684
0.478968
0.476285
0.473643
0.471042
0.468485
0.465975
0.46351
0.4611
0.458739
0.45644
0.454198
0.452022
0.449911
0.447873
0.44591
0.444025
0.442226
0.44051
0.438888
0.437358
0.435928
0.434595
0.433366
0.432239
0.431215
0.430294
0.429471
0.428748
0.428116
0.427574
0.427111
0.426726
0.426405
0.426146
0.425937
0.425773
0.425645
0.425547
0.425474
0.425418
0.425378
0.425346
0.425323
0.425304
0.425291
0.425278
0.42527
0.425258
0.425251
0.42524
0.425234
0.425221
0.425216
0.425203
0.425199
0.425184
0.425181
0.425165
0.425162
0.425144
0.425142
0.425123
0.42512
0.4251
0.425098
0.425077
0.425075
0.425052
0.42505
0.425027
0.425024
0.425
0.424997
0.424971
0.424969
0.424941
0.424939
0.42491
0.424907
0.424876
0.424874
0.424841
0.424838
0.424803
0.4248
0.424762
0.42476
0.424719
0.424716
0.424673
0.424669
0.424623
0.424619
0.424569
0.424565
0.424509
0.424506
0.424444
0.424441
0.424372
0.42437
0.424294
0.424291
0.424206
0.424203
0.424111
0.424105
0.424001
0.423995
0.423876
0.423871
0.423732
0.423728
0.423559
0.423556
0.423362
0.423361
0.423125
0.42312
0.422842
0.422832
0.422509
0.422498
0.422146
0.422128
0.421799
0.421756
0.421244
0.420587
0.41908
0.416616
0.41299
0.408068
0.401797
0.394219
0.385475
0.375789
0.365451
0.354781
0.344099
0.333704
0.323846
0.314718
0.306454
0.299125
0.29275
0.287307
0.28274
0.278972
0.275913
0.273469
0.271546
0.270057
0.268922
0.268069
0.267439
0.266981
0.266652
0.266421
0.26626
0.266151
0.266077
0.266028
0.265996
0.265976
0.265962
0.265953
0.265947
0.265943
0.26594
0.265937
0.265935
0.265932
0.26593
0.265928
0.265925
0.265923
0.265921
0.265918
0.265916
0.265913
0.265911
0.265909
0.265907
0.265905
0.265903
0.265901
0.2659
0.265898
0.265897
0.265896
0.265895
0.265894
0.265893
0.265893
0.265892
0.265892
0.265891
0.265891
0.265891
0.26589
0.265889
0.265889
0.265888
0.265888
0.265887
0.265887
0.265886
0.265886
0.265885
0.265884
0.265884
0.265883
0.265883
0.265882
0.265881
0.26588
0.265879
0.265878
0.265878
0.265877
0.265877
0.265876
0.265876
0.265875
0.265875
0.265874
0.265873
0.265872
0.26587
0.265867
0.265865
0.265861
0.265853
0.265839
0.265813
0.265753
0.265642
0.265413
0.264937
0.263902
0.261582
0.256063
0.243429
0.218184
0.185245
0.15505
0.136298
0.128216
0.125628
0.124931
0.124755
0.124711
0.1247
0.124697
0.124697
0.124697
0.124697
0.124697
0.124697
0.124697
0.124697
0.124697
0.124697
0.124697
0.124697
0.124697
0.124697
0.124697
0.124697
0.124697
0.124697
0.124697
0.124697
0.124697
0.124697
0.124697
0.124697
0.124697
0.124697
0.124697
0.124697
0.124697
0.124697
0.124697
0.124697
0.124697
0.124697
0.124697
0.124697
0.124697
0.124697
0.124697
0.124697
0.124697
0.124697
0.124697
0.124697
0.124697
0.124697
0.124697
0.124697
0.124697
0.124697
0.124697
0.124697
0.124697
0.124697
0.124697
0.124697
0.124697
0.124697
0.124697
0.124697
0.124697
0.124697
0.124697
0.124697
0.124697
0.124697
0.124697
0.124697
0.124697
0.124697
0.124697
0.124697
0.124697
0.124697
0.124697
0.124697
0.124697
0.124697
0.124697
0.124697
0.124697
0.124697
0.124697
0.124697
0.124697
0.124697
0.124697
0.124697
0.124697
0.124697
0.124697
0.124697
0.124697
0.124697
0.124697
0.124697
0.124697
0.124697
0.124697
0.124697
0.124697
0.124697
0.124697
0.124697
0.124697
0.124697
0.124697
0.124697
0.124697
0.124697
0.124697
0.124697
0.124697
0.124697
0.124697
0.124697
0.124697
0.124697
0.124697
0.124697
0.124697
0.124697
0.124697
0.124697
0.124697
0.124697
0.124697
0.124697
0.124697
0.124697
0.124697
0.124697
0.124697
0.124697
0.124697
0.124697
0.124697
0.124697
0.124697
0.124697
0.124697
0.124697
0.124697
0.124697
0.124697
0.124697
0.124697
0.124697
0.124697
0.124697
0.124697
0.124697
0.124697
0.124697
0.124697
0.124697
0.124697
0.124697
0.124697
0.124697
0.124697
0.124697
0.124697
0.124697
0.124697
0.124697
0.124697
0.124697
0.124697
0.124697
0.124697
0.124697
0.124697
0.124697
0.124697
0.124697
0.124697
0.124697
0.124697
0.124697
0.124697
0.124697
0.124697
0.124697
0.124697
0.124697
0.124697
0.124697
0.124697
0.124697
0.124697
0.124697
0.124697
0.124697
0.124697
0.124697
0.124697
0.124697
0.124697
0.124697
0.124697
0.124697
0.124697
0.124697
0.124697
0.124697
0.124697
0.124697
0.124697
0.124697
0.124697
0.124697
0.124697
0.124697
0.124697
0.124697
0.124697
0.124697
0.124697
0.124697
0.124697
0.124697
0.124697
0.124697
0.124697
0.124697
0.124697
0.124697
0.124697
0.124697
0.124697
0.124697
0.124697
0.124697
0.124697
0.124697
0.124697
0.124697
0.124697
0.124697
0.124697
0.124697
0.124697
0.124697
0.124697
0.124697
0.124697
0.124697
0.124697
0.124697
0.124697
0.124697
0.124697
0.124697
0.124697
0.124697
0.124697
0.124697
0.124697
0.124697
0.124697
0.124697
0.124697
0.124697
0.124697
0.124697
0.124697
0.124697
0.124697
0.124697
)
;

boundaryField
{
    sides
    {
        type            calculated;
        value           nonuniform List<scalar> 2(0.124697 0.997574);
    }
    empty
    {
        type            empty;
    }
}


// ************************************************************************* //
