/*--------------------------------*- C++ -*----------------------------------*\
  =========                 |
  \\      /  F ield         | OpenFOAM: The Open Source CFD Toolbox
   \\    /   O peration     | Website:  https://openfoam.org
    \\  /    A nd           | Version:  9
     \\/     M anipulation  |
\*---------------------------------------------------------------------------*/
FoamFile
{
    format      ascii;
    class       volScalarField;
    location    "0.04";
    object      p;
}
// * * * * * * * * * * * * * * * * * * * * * * * * * * * * * * * * * * * * * //

dimensions      [1 -1 -2 0 0 0 0];

internalField   nonuniform List<scalar> 
10000
(
0
0.046046686
0.10711271
0.18857194
0.29107017
0.41490322
0.56028223
0.72731402
0.91607392
1.1265806
1.3587989
1.6126912
1.8881521
2.1849832
2.5029333
2.841688
3.2008266
3.579827
3.978098
4.3949392
4.8294837
5.2807122
5.7474781
6.2285097
6.7223953
7.2275852
7.7424457
8.2655726
8.7944148
9.3248569
9.8572073
10.388439
10.915611
11.435956
11.946648
12.444787
12.927428
13.391604
13.834315
14.252598
14.643587
15.004526
15.332811
15.625995
15.881816
16.098306
16.273767
16.406799
16.496322
16.541586
16.542227
16.498219
16.409913
16.27809
16.103794
15.888444
15.633762
15.341749
15.014671
14.654907
14.26514
13.848078
13.406592
12.943645
12.462218
11.965287
11.455831
10.936717
10.410796
9.8808148
9.3497343
8.8205772
8.2930171
7.7711269
7.257465
6.7534713
6.2607381
5.7808582
5.3152247
4.8650884
4.4316486
4.015909
3.6187571
3.240894
2.8828944
2.5452709
2.2284512
1.9327841
1.6584946
1.4057759
1.1748172
0.9657043
0.77850777
0.61318384
0.469715
0.34808892
0.24826544
0.17020762
0.11402195
0.075443965
-0.031366242
0.010301163
0.069486815
0.15015596
0.25216036
0.37565427
0.52074972
0.68755559
0.8761398
1.0865061
1.3186682
1.5726133
1.8482099
2.1452859
2.4636387
2.8029692
3.1628489
3.542813
3.942312
4.3606389
4.7969202
5.2501723
5.7192733
6.2029681
6.6998605
7.2084232
7.7269792
8.2537295
8.7865025
9.3223106
9.8595409
10.395693
10.928037
11.453763
11.969992
12.473766
12.962067
13.431858
13.880081
14.303708
14.699814
15.065575
15.398315
15.695537
15.954917
16.174438
16.352369
16.487269
16.578029
16.623881
16.624507
16.579905
16.490366
16.35668
16.179929
15.961559
15.703335
15.407287
15.075759
14.711172
14.316265
13.893841
13.446843
12.978297
12.491229
11.988676
11.473677
10.949167
10.41807
9.8831597
9.3471841
8.8126417
8.281135
7.7556333
7.2382907
6.730934
6.235197
5.752622
5.2846489
4.8325126
4.3973493
3.9801325
3.5817629
3.2029226
2.8441519
2.5059466
2.1887036
1.8927611
1.6183359
1.365584
1.1346813
0.92567692
0.73859748
0.57342341
0.43013644
0.30868519
0.20903429
0.13111782
0.075043123
0.036499786
-0.083237626
-0.043329141
0.01459351
0.094358093
0.19572974
0.31874247
0.46347691
0.63000805
0.8183682
1.0286123
1.2607823
1.514829
1.7906663
2.088176
2.4071754
2.7473713
3.1084027
3.4898358
3.8911349
4.3116042
4.7504072
5.2065746
5.6790204
6.1665092
6.6676611
7.1809319
7.7045916
8.2366937
8.7749335
9.3175751
9.8617538
10.405093
10.944913
11.478371
12.002529
12.514369
13.010788
13.48866
13.944852
14.376252
14.779841
15.152679
15.491973
15.795159
16.059862
16.283967
16.46564
16.603376
16.69604
16.742847
16.743456
16.697891
16.606464
16.469952
16.289483
16.066566
15.803052
15.501057
15.162957
14.791289
14.388893
13.958701
13.503718
13.027089
12.531909
12.021296
11.498359
10.966108
10.427524
9.8854111
9.3424608
8.8010433
8.2640395
7.7331637
7.2107259
6.6986541
6.1986797
5.7123197
5.2409819
4.7859488
4.3482871
3.9289292
3.5287562
3.1484461
2.7884871
2.4493951
2.1315112
1.8351046
1.5603919
1.3075439
1.0766085
0.86766326
0.68071167
0.51570695
0.37260986
0.25134806
0.1518882
0.074150565
0.018214242
-0.020273237
-0.15865286
-0.11945109
-0.062425761
0.016565093
0.1172773
0.23974513
0.38403947
0.55020506
0.73831348
0.9484472
1.1806348
1.4348507
1.711071
2.0092313
2.3291611
2.6706126
3.0332918
3.4168043
3.8206191
4.2440725
4.6863742
5.1465936
5.6236641
6.1163759
6.6233621
7.1430719
7.6737611
8.2135074
8.7602579
9.3113833
9.8648659
10.418043
10.968139
11.51223
12.047293
12.570226
13.077832
13.566863
14.034066
14.476197
14.890094
15.272695
15.621075
15.932542
16.204602
16.435015
16.621846
16.763499
16.8588
16.906945
16.907572
16.860677
16.766612
16.626182
16.440568
16.211381
15.940524
15.630258
15.283074
14.901643
14.48891
14.047986
13.58201
13.094208
12.587845
12.066148
11.532287
10.989412
10.440559
9.888591
9.336307
8.7863907
8.240832
7.7023007
7.1728313
6.6542781
6.1484372
5.656888
5.1809428
4.7218583
4.2806967
3.8583655
3.4556661
3.0732597
2.7116513
2.3712595
2.0524144
1.7553525
1.4802146
1.2271469
0.99614482
0.7872514
0.60045368
0.43566681
0.2928269
0.17180628
0.072555271
-0.0049371707
-0.060663335
-0.099040363
-0.25677992
-0.21805308
-0.16168735
-0.083385397
0.016682017
0.13856951
0.28233202
0.4480606
0.63587119
0.84584792
1.0780315
1.3324665
1.6091929
1.9081711
2.229276
2.5723395
2.9371232
3.3232585
3.7302493
4.1574874
4.6042331
5.0695949
5.5525376
6.0518759
6.5662544
7.0941266
7.6337465
8.1831779
8.7403019
9.3027869
9.8682339
10.433984
10.9972
11.554888
12.103927
12.641096
13.163071
13.666445
14.147808
14.603747
15.030922
15.426115
15.786232
16.108396
16.389946
16.628496
16.821994
16.968742
17.06748
17.117362
17.118022
17.069413
16.971905
16.826381
16.634086
16.396771
16.116441
15.795482
15.436543
15.042522
14.616505
14.161733
13.681595
13.179452
12.658714
12.122811
11.575013
11.01856
10.456573
9.8920296
9.3277782
8.7664962
8.2105707
7.662344
7.1239195
6.5971839
6.0839123
5.5857172
5.103897
4.6396507
4.1940146
3.7678801
3.362004
2.9769546
2.6132386
2.2712235
1.9511693
1.653282
1.3776291
1.1242886
0.89322298
0.68440609
0.49777005
0.33323296
0.19072486
0.070038911
-0.028900684
-0.10616449
-0.16161133
-0.19977459
-0.37726704
-0.33891419
-0.28313664
-0.20547985
-0.1060691
0.01515237
0.15829359
0.32350552
0.51092299
0.72064824
0.95278983
1.2074691
1.4847591
1.7846648
2.1071521
2.4521286
2.8193939
3.2086274
3.6194015
4.0511767
4.5032648
4.9748207
5.4648487
5.9721922
6.4955154
7.0332894
7.5837812
8.1450534
8.7149682
9.2911797
9.8712119
10.45232
11.031593
11.605955
12.172158
12.726825
13.266468
13.787504
14.286327
14.759328
15.202942
15.61373
15.988384
16.323809
16.617144
16.865808
17.067597
17.220699
17.323745
17.375786
17.376457
17.325706
17.223903
17.072032
16.871442
16.623994
16.331871
15.997655
15.624164
15.214514
14.772068
14.300233
13.802604
13.282815
12.744432
12.191037
11.626097
11.053019
10.475001
9.8951094
9.3162843
8.7412831
8.1725589
7.6124737
7.0631544
6.5265114
6.0042773
5.4980103
5.0090707
4.5386334
4.0876709
3.6569736
3.2472578
2.8590655
2.4928369
2.1489288
1.8274941
1.5286518
1.2524272
0.99877902
0.76764182
0.55898747
0.3726406
0.20844813
0.066278682
-0.05396095
-0.15244558
-0.2293541
-0.28451811
-0.32244436
-0.51988374
-0.48191294
-0.42670982
-0.34970811
-0.25104073
-0.13058547
0.011833424
0.17639971
0.36327618
0.5726358
0.80467109
1.0595461
1.3373818
1.6382777
1.9622927
2.309391
2.679429
3.0721725
3.487284
3.924292
4.3825693
4.861326
5.3596152
5.8763234
6.4101498
6.9595885
7.5229171
8.098189
8.6832368
9.2756641
9.8729639
10.472312
11.070695
11.664916
12.251582
12.827138
13.387914
13.93012
14.449916
14.943444
15.406869
15.836475
16.228692
16.58015
16.887748
17.148672
17.360513
17.521316
17.629611
17.684302
17.684956
17.631566
17.524548
17.364961
17.154327
16.894636
16.588231
16.237936
15.846878
15.418405
14.956163
14.463864
13.94528
13.404306
12.844771
12.270476
11.685106
11.092204
10.495116
9.8969961
9.3008576
8.7096147
8.1257991
7.5517493
6.9895684
6.4412089
5.9084381
5.3927736
4.895548
4.4178799
3.9607021
3.524761
3.1106885
2.7189837
2.349948
2.0038799
1.6809151
1.3810368
1.1042056
0.85032674
0.61923306
0.41080643
0.22486336
0.061225936
-0.080433131
-0.20013435
-0.29805154
-0.37444617
-0.42921807
-0.46693662
-0.68445576
-0.64690981
-0.59230256
-0.51605489
-0.41823873
-0.29866811
-0.15712827
0.0066015397
0.19276102
0.40161123
0.63339488
0.88832663
1.1666283
1.4685058
1.79409
2.1434164
2.5164414
2.9130402
3.3329712
3.7758388
4.2410853
4.7279939
5.2356873
5.76311
6.3090008
6.8718698
7.4499913
8.0414037
8.6439104
9.255127
9.8724774
10.493045
11.11369
11.73107
12.34164
12.941666
13.527259
14.094383
14.63891
15.15668
15.643548
16.095468
16.508539
16.879055
17.20361
17.479146
17.702997
17.872984
17.987504
18.045353
18.046005
17.989456
17.876231
17.707459
17.48481
17.210512
16.88716
16.517802
16.105915
15.655159
15.169483
14.652973
14.109688
13.543821
12.959488
12.360698
11.751403
11.135325
10.515962
9.8966384
9.280469
8.6703911
8.0690566
7.4788527
6.9018797
6.3400982
5.7952554
5.2688546
4.7621944
4.276348
3.8121654
3.3703326
2.9514214
2.5558434
2.1838087
1.8354521
1.5108624
1.2099701
0.93262703
0.67863356
0.44774446
0.23974231
0.054371416
-0.10855126
-0.24937044
-0.36833823
-0.46562934
-0.54141434
-0.59563544
-0.63299323
-0.87077319
-0.83371539
-0.77981955
-0.70443377
-0.60759845
-0.48909163
-0.34865577
-0.18598907
-0.00076103748
0.20734432
0.43862609
0.69340379
0.97201301
1.2747486
1.6018257
1.9533947
2.3295425
2.7302579
3.1553983
3.6046592
4.0775772
4.573537
5.0917468
5.6312091
6.1906937
6.768725
7.3635824
7.9732988
8.5956557
9.2282284
9.868514
10.513374
11.159541
11.803543
12.441667
13.069973
13.684314
14.280367
14.853676
15.399724
15.913993
16.392028
16.829541
17.222442
17.566947
17.859689
18.097705
18.27853
18.40035
18.461879
18.462558
18.402324
18.281763
18.102169
17.865385
17.573891
17.230627
16.83892
16.402617
15.925765
15.412696
14.867919
14.295903
13.701143
13.088074
12.460999
11.82409
11.18131
10.536395
9.892773
9.2537031
8.6222841
8.0010295
7.3924506
6.7987314
6.2218066
5.663387
5.1249741
4.6077824
4.1128219
3.6409187
3.1926606
2.7685053
2.3687424
1.9935369
1.6428989
1.3167648
1.0149636
0.73726843
0.4833752
0.25291121
0.045606386
-0.13889611
-0.3009068
-0.44069776
-0.55862492
-0.65503462
-0.73005906
-0.78368038
-0.82057614
-1.0786045
-1.0421372
-0.98906987
-0.91468646
-0.81903106
-0.70183864
-0.56277128
-0.40143894
-0.21745535
-0.010444886
0.21999958
0.47432359
0.75296152
1.056302
1.3846895
1.7384234
2.1177275
2.5227073
2.9533296
3.4094166
3.890636
4.3964887
4.9262703
5.4790339
6.053584
6.6484791
7.2620235
7.8922437
8.5368624
9.1933429
9.8595909
10.53193
11.207032
11.88131
12.550864
13.211507
13.858809
14.488115
15.094598
15.673327
16.219333
16.727679
17.193603
17.612584
17.980374
18.293183
18.547709
18.741216
18.871631
18.937465
18.938123
18.87357
18.744451
18.552214
18.298949
17.987393
17.620885
17.203158
16.738446
16.2313
15.68654
15.109074
14.503865
13.875845
13.229815
12.570414
11.902092
11.229
10.555103
9.8839645
9.2188964
8.5635569
7.9200352
7.2908996
6.6784614
6.084684
5.5112113
4.9595057
4.4307713
3.9259096
3.4456254
2.9904668
2.5607969
2.1567238
1.7782944
1.4254405
1.0979402
0.79546598
0.51766673
0.26415897
0.034509841
-0.17173156
-0.35499062
-0.51572533
-0.65427902
-0.77096502
-0.8662142
-0.94027998
-0.99309851
-1.0294619
-1.3076912
-1.2719081
-1.2198035
-1.1466381
-1.052433
-0.93684594
-0.7994613
-0.6398389
-0.45753217
-0.25205576
-0.022873997
0.23056709
0.50881074
0.81238473
1.1417949
1.4974951
1.8798496
2.2890987
2.7253533
3.1886024
3.6786675
4.195166
4.737476
5.3047169
5.8957557
6.509207
7.1434093
7.7963835
8.4657467
9.1484321
9.8440715
10.54717
11.254751
11.963136
12.668213
13.365531
14.050337
14.717595
15.362048
15.978273
16.560797
17.104135
17.602923
18.05209
18.446865
18.782979
19.056689
19.264919
19.405334
19.476214
19.476853
19.407242
19.268179
19.061262
18.788848
18.45401
18.060474
17.612588
17.115069
16.572989
15.991736
15.376765
14.733548
14.067518
13.383955
12.687887
11.984056
11.276864
10.570439
9.8684956
9.1740148
8.4924478
7.8241769
7.1722923
6.5391815
5.9268257
5.3368684
4.7706752
4.2294019
3.7139237
3.2248022
2.7623955
2.3269865
1.9186014
1.5371026
1.1822262
0.85360653
0.55082247
0.27339371
0.020712924
-0.20769251
-0.41247502
-0.5941141
-0.75311712
-0.88995443
-1.0051243
-1.0989704
-1.1718917
-1.2237555
-1.259402
-1.5576936
-1.5227111
-1.4717806
-1.4000963
-1.3076392
-1.1939995
-1.0587185
-0.90129975
-0.72119085
-0.51777975
-0.29041794
-0.038435294
0.23886089
0.54217201
0.87217609
1.2294813
1.6146084
2.0279801
2.4698989
2.9405298
3.4398563
3.9676183
4.5232977
5.1061177
5.7150329
6.3487151
7.0055382
7.6835767
8.3806749
9.0947468
9.8205004
10.55729
11.30098
12.047488
12.792432
13.531062
14.25827
14.968598
15.656299
16.315379
16.939746
17.523282
18.059923
18.54391
18.969855
19.33295
19.628924
19.854215
20.006158
20.082847
20.083521
20.00812
19.857523
19.633549
19.338871
18.977092
18.552392
18.069707
17.534383
16.95217
16.329062
15.671181
14.984641
14.275499
13.549535
12.812198
12.068506
11.323174
10.580628
9.8449829
9.1203744
8.4074102
7.7114023
7.034435
6.3786806
5.7460857
5.1382656
4.5564945
4.00181
3.4750014
2.9766226
2.5068682
2.0657327
1.6530874
1.2687417
0.91223993
0.58300362
0.28042608
0.0038785627
-0.24736956
-0.47398695
-0.67670713
-0.85619443
-1.0130803
-1.1477942
-1.2609917
-1.353115
-1.4245609
-1.4753379
-1.5102457
-1.828236
-1.7942276
-1.7447032
-1.6747808
-1.5844165
-1.4731672
-1.3405195
-1.1858773
-1.0085738
-0.80789158
-0.58306086
-0.33325069
-0.057588226
0.24480256
0.57477657
0.9331287
1.3205746
1.7377645
2.1852217
2.6632912
3.1721231
3.7116157
4.2814002
4.8808289
5.5089461
6.1644714
6.8457982
7.5510032
8.2778442
9.0237317
9.7852072
10.559736
11.343548
12.132461
12.921888
13.706787
14.48169
15.240685
15.977468
16.685395
17.3576
17.987193
18.567322
19.091431
19.553353
19.947576
20.269249
20.514295
20.679624
20.763038
20.763671
20.681531
20.517577
20.273923
19.95359
19.560664
19.100006
18.577225
17.998412
17.370119
16.699177
15.992529
15.256949
14.499115
13.72536
12.941658
12.153502
11.365844
10.583238
9.8098666
9.0494823
8.3046395
7.5788756
6.8747658
6.1945054
5.5400236
4.9129492
4.3145558
3.7457831
3.2072267
2.6992737
2.2220436
1.775379
1.3588814
0.97213597
0.61451648
0.28528124
-0.016386472
-0.29139653
-0.54049426
-0.76463188
-0.96462831
-1.1412846
-1.2954053
-1.4275928
-1.5384281
-1.6285113
-1.6981805
-1.7474989
-1.7814463
-2.1188945
-2.0860485
-2.0381595
-1.97032
-1.8824879
-1.7741642
-1.6447432
-1.4935321
-1.3197724
-1.1226325
-0.90118332
-0.6544073
-0.38124509
-0.080638887
0.24845879
0.60708257
0.99620778
1.4167182
1.8693684
2.3547147
2.8731072
3.4246551
4.0091708
4.6261391
5.274694
5.9536151
6.6613313
7.3959238
8.1550972
8.936134
9.7359981
10.551943
11.37995
12.215711
13.054478
13.890959
14.719318
15.533143
16.325488
17.088961
17.815801
18.498155
19.128211
19.698471
20.201865
20.632013
20.98332
21.251134
21.431903
21.523146
21.523741
21.433753
21.254334
20.987896
20.638004
20.209235
19.707165
19.138237
18.509528
17.828498
17.102934
16.340734
15.549581
14.736917
13.909721
13.074421
12.2369
11.402406
10.575629
9.760853
8.9621053
8.1821246
7.4239824
6.6904303
5.9837653
5.3058888
4.6583382
4.0423348
3.4587663
2.9081251
2.3905917
1.906037
1.4541397
1.0343462
0.64590285
0.28793892
-0.040489377
-0.34038213
-0.61289311
-0.85901471
-1.0798298
-1.2763611
-1.4495646
-1.6002094
-1.7291348
-1.8370263
-1.9245488
-1.9921713
-2.0399389
-2.0727244
-2.4291305
-2.3976153
-2.3516411
-2.2862869
-2.201494
-2.0966778
-1.9711508
-1.8241507
-1.6548217
-1.4621762
-1.2451042
-1.0024073
-0.73284061
-0.43512985
-0.10797897
0.24991922
0.63983382
1.0629098
1.520141
2.0123603
2.5401814
3.103948
3.7036712
4.3389834
5.0091339
5.71299
6.4490053
7.2152236
8.009308
8.8284993
9.6696881
10.53088
11.40721
12.294369
13.187565
14.081307
14.96939
15.844867
16.700043
17.526626
18.315816
19.058592
19.745976
20.369305
20.920448
21.392021
21.777525
22.07164
22.27022
22.370464
22.371058
22.272021
22.074759
21.782031
21.397957
20.927852
20.378109
19.75611
19.070073
18.328634
17.540772
16.715481
15.861535
14.987256
14.100331
13.20774
12.315737
11.42982
10.554731
9.6947271
8.8546548
8.0365152
7.2434486
6.4782679
5.7433085
5.0404758
4.3712921
3.7368766
3.138028
2.5750984
2.0480959
1.5566688
1.100183
0.67782221
0.28856882
-0.068698905
-0.39521379
-0.69230641
-0.9612114
-1.2033157
-1.4197787
-1.6118174
-1.780624
-1.9271175
-2.0521642
-2.1566126
-2.2411088
-2.3062348
-2.3521013
-2.3835852
-2.7582717
-2.7282854
-2.6845651
-2.6221483
-2.5409314
-2.440269
-2.3194248
-2.1775543
-2.0136694
-1.8266136
-1.615102
-1.3777584
-1.1131261
-0.81966832
-0.49579068
-0.1398827
0.24962474
0.67418271
1.1350972
1.6335386
2.1704297
2.7463682
3.3615926
4.0159343
4.7087803
5.4390679
6.2052649
7.0053787
7.8370288
8.6973061
9.5821453
10.49308
11.421818
12.364985
13.317893
14.27493
15.229538
16.174205
17.10039
17.998686
18.859032
19.671019
20.424263
21.108686
21.714812
22.234137
22.65914
22.983676
23.202932
23.313629
23.314259
23.204807
22.986856
22.663691
22.240055
21.722156
21.11744
20.434452
19.682636
18.87199
18.012956
17.115951
16.191071
15.247695
14.294275
13.338369
12.386586
11.444615
10.517073
9.6072819
8.7235925
7.8643704
7.0337235
6.2346443
5.4695046
4.7402306
4.0483324
3.3948457
2.7804497
2.205316
1.6691731
1.1714453
0.71125743
0.28742949
-0.1014
-0.45669246
-0.77994166
-1.0728489
-1.3368538
-1.5736273
-1.7845614
-1.9711196
-2.1345275
-2.2759244
-2.3962588
-2.4965384
-2.5774602
-2.6396906
-2.6833032
-2.7132577
-3.1055543
-3.0773456
-3.0362279
-2.9772045
-2.9001597
-2.8044083
-2.6891589
-2.5534554
-2.3961606
-2.2159678
-2.0114221
-1.7809496
-1.5228384
-1.2352475
-0.91626422
-0.56396212
-0.1764254
0.24818523
0.71157637
1.2152854
1.7605907
2.3484034
2.9792438
3.6531754
4.3697243
5.1278687
5.9260842
6.762377
7.6343689
8.5395413
9.475838
10.435448
11.419701
12.423373
13.44141
14.468098
15.496586
16.518753
17.525121
18.504954
19.446651
20.338064
21.167032
21.921836
22.591448
23.166005
23.636751
23.99648
24.239662
24.362515
24.363226
24.241749
23.999851
23.641391
23.171986
22.598842
21.930637
21.177294
20.349794
19.459791
18.519451
17.540909
16.535847
15.514993
14.487766
13.462254
12.445319
11.442801
10.459723
9.5012758
8.566014
7.6618622
6.7908442
5.9555701
5.158393
4.4012501
3.6856058
3.0124588
2.3823645
1.7953348
1.2507767
0.74775539
0.2850687
-0.13883846
-0.52570384
-0.87740815
-1.1958068
-1.4828219
-1.7403603
-1.9703071
-2.1742774
-2.3539705
-2.5108037
-2.6460796
-2.7608948
-2.8562369
-2.9329871
-2.9918682
-3.0329341
-3.0610949
-3.470112
-3.4439206
-3.4057517
-3.3506206
-3.2784329
-3.1884556
-3.0798092
-2.9514238
-2.8020325
-2.6301824
-2.4342354
-2.2123847
-1.9626371
-1.6828397
-1.370745
-1.0240531
-0.6404422
-0.21759526
0.24666624
0.7543038
1.3070162
1.9061259
2.5524888
3.2464048
3.9875385
4.7748976
5.6069265
6.4815566
7.3962555
8.3482066
9.3344267
10.350653
11.395359
12.464348
13.553027
14.655921
15.766125
16.874982
17.971961
19.044721
20.079657
21.062453
21.978741
22.814837
23.55792
24.196419
24.720149
25.120714
25.391663
25.528577
25.52934
25.393899
25.124292
24.724983
24.202566
23.565463
22.823859
21.989268
21.074455
20.093111
19.059535
17.988062
16.892358
15.784761
14.675835
13.574191
12.486677
11.418813
10.375224
9.3600984
8.3749278
7.4239906
6.5102462
5.6365621
4.8054879
4.0190802
3.2788132
2.5856318
1.9399478
1.3415631
0.78958132
0.28264465
-0.18091276
-0.60307049
-0.98601634
-1.3320732
-1.6436352
-1.9228926
-2.1721137
-2.3934173
-2.5888632
-2.7602412
-2.9092005
-3.0371166
-3.1453825
-3.2349946
-3.3068839
-3.3618521
-3.3999819
-3.4261446
-3.8508976
-3.8269414
-3.792109
-3.7414453
-3.6748735
-3.5915989
-3.4906556
-3.370877
-3.2308793
-3.0690533
-2.8835578
-2.6723256
-2.433087
-2.1633808
-1.8605899
-1.5219551
-1.1446478
-0.72584409
-0.26282136
0.24692844
0.80563305
1.4151172
2.0766231
2.790719
3.5572168
4.3751542
5.2428495
6.158042
7.1179868
8.1196075
9.1595495
10.234356
11.343309
12.481898
13.646373
14.831961
16.032134
17.237894
18.437498
19.61657
20.758835
21.847185
22.864536
23.794716
24.622798
25.335356
25.920593
26.368637
26.671882
26.825117
26.825862
26.674137
26.372297
25.925575
25.341713
24.630577
23.803996
22.875397
21.8596
20.772701
19.631771
18.454017
17.25568
16.051133
14.85217
13.667785
12.504514
11.367087
10.259233
9.1855149
8.146612
7.1459608
6.186937
5.2726156
4.4057672
3.5886753
2.8229902
2.1096182
1.4487924
0.84001408
0.28200725
-0.22706026
-0.68939215
-1.1074981
-1.4841418
-1.8221564
-2.1243737
-2.393521
-2.6323129
-2.8430241
-3.0280923
-3.1894684
-3.3290521
-3.4484126
-3.5489305
-3.631866
-3.6981847
-3.7487019
-3.7834745
-3.8073946
-4.2466883
-4.2252026
-4.1941335
-4.1485534
-4.0883964
-4.0128141
-3.9207801
-3.8110427
-3.6820954
-3.5321577
-3.359181
-3.1608575
-2.9346449
-2.6777458
-2.3871046
-2.0594555
-1.691384
-1.2794783
-0.82038015
-0.31088885
0.25188695
0.87036629
1.5462733
2.2805173
3.073106
3.9230582
4.8284692
5.7867225
6.79467
7.8488588
8.9455732
10.080283
11.257432
12.46886
13.713382
14.987798
16.28655
17.600594
18.916791
20.218132
21.484735
22.695586
23.830095
24.869217
25.795745
26.594255
27.251046
27.754443
28.09536
28.267643
28.268378
28.097592
27.758125
27.256147
26.600799
25.803768
24.878747
23.841188
22.708278
21.498946
20.233723
18.933707
17.618782
16.305957
15.008364
13.735079
12.491736
11.281459
10.105369
8.9717925
7.8760847
6.8228269
5.8157589
4.8583415
3.9537261
3.1045224
2.3126355
1.5790722
0.90385147
0.28607674
-0.27600533
-0.78482167
-1.2432173
-1.6544385
-2.0218222
-2.3488811
-2.6389985
-2.8953459
-3.121097
-3.3189042
-3.4914304
-3.6410022
-3.769541
-3.8789057
-3.9705536
-4.0458051
-4.1057442
-4.1512019
-4.182194
-4.2036304
-4.6561109
-4.6373521
-4.6104784
-4.5706056
-4.5176943
-4.4508683
-4.3690534
-4.2709179
-4.1548225
-4.0188151
-3.860673
-3.6778822
-3.4676132
-3.226671
-2.9515104
-2.6383254
-2.2830819
-1.8816246
-1.4298247
-0.92364795
-0.35937538
0.26614663
0.9552843
1.709415
2.5287833
3.412355
4.357857
5.3620856
6.4211178
7.5309599
8.6882029
9.8911863
11.132041
12.416811
13.744021
15.112418
16.518292
17.95327
19.402702
20.845807
22.257444
23.611129
24.881782
26.047139
27.087777
27.986259
28.726565
29.294713
29.679741
29.874289
29.875031
29.681968
29.298455
28.731818
27.993059
27.096133
26.056985
24.893107
23.624014
22.271838
20.861612
19.419868
17.971759
16.538088
15.133428
13.766162
12.440081
11.156402
9.9166983
8.7146963
7.5583989
6.4494239
5.3912196
4.3878442
3.443179
2.5603092
1.7415191
0.98794105
0.29942773
-0.32540358
-0.88898274
-1.3945051
-1.845611
-2.2463934
-2.6009815
-2.9135522
-3.1881828
-3.4286055
-3.6383419
-3.8206547
-3.9783056
-4.1139256
-4.2297106
-4.3275135
-4.4089958
-4.475516
-4.5282308
-4.5679919
-4.5947863
-4.6134933
-5.0776269
-5.0618256
-5.0395756
-5.0060516
-4.9612602
-4.9043188
-4.8341161
-4.7492332
-4.6479103
-4.5280769
-4.387377
-4.223095
-4.0320672
-3.8106864
-3.5549008
-3.2603159
-2.9222182
-2.5355721
-2.09529
-1.5963614
-1.0340238
-0.40411879
0.29656361
1.0700394
1.9168796
2.8359683
3.8244409
4.8780363
5.9916784
7.1601427
8.3789961
9.645183
10.955925
12.315109
13.725724
15.191113
16.711836
18.281695
19.884539
21.49398
23.076717
24.598115
26.027235
27.338706
28.5115
29.526471
30.364685
31.008958
31.445663
31.666185
31.666925
31.447907
31.012794
30.370171
29.533625
28.520268
27.348982
26.038943
24.611259
23.091276
21.509937
19.90194
18.300511
16.732003
15.212554
13.748304
12.338767
10.980607
9.670872
8.4056915
7.1877998
6.0202031
4.9073634
3.8545849
2.8669352
1.9484999
1.1021524
0.32912975
-0.37102947
-1.0002849
-1.5619469
-2.0601975
-2.4998064
-2.8857746
-3.2232101
-3.5172014
-3.7724476
-3.9933722
-4.1838548
-4.3476408
-4.4878823
-4.6072699
-4.7082689
-4.7928769
-4.8628088
-4.9194825
-4.9640692
-4.9974543
-5.0196251
-5.0353996
-5.5094891
-5.4968435
-5.4796353
-5.4531116
-5.4173582
-5.3714735
-5.3143195
-5.2444085
-5.1599143
-5.0587133
-4.9383366
-4.7958441
-4.6277373
-4.4300159
-4.198141
-3.9270595
-3.6112563
-3.2447527
-2.8212829
-2.334622
-1.7787113
-1.1480453
-0.43820676
0.35372457
1.2287974
2.1857535
3.2208293
4.3282148
5.5009444
6.7317705
8.014564
9.3453527
10.723116
12.153009
13.64298
15.203987
16.844884
18.564768
20.346367
22.154643
23.942753
25.662839
27.276153
28.755611
30.080742
31.231802
32.185707
32.920286
33.417721
33.668417
33.669152
33.419998
32.924267
32.191476
31.239273
30.089783
28.766195
27.28828
25.676376
23.95766
22.170937
20.364107
18.583975
16.865456
15.225838
13.665909
12.176947
10.748123
9.3713674
8.0415674
6.7597132
5.5297392
4.3577763
3.2511206
2.2167638
1.2604159
0.38581648
-0.40569775
-1.1151096
-1.7452027
-2.3004608
-2.7864172
-3.2091869
-3.5750386
-3.8901733
-4.1606416
-4.3919459
-4.5892129
-4.7568494
-4.8988345
-5.0187678
-5.1195571
-5.2036947
-5.2733226
-5.3302579
-5.3759403
-5.4114906
-5.4378488
-5.4549589
-5.4675835
-5.9497038
-5.9403829
-5.9286266
-5.9097631
-5.8839689
-5.8503359
-5.8076863
-5.7545326
-5.6890621
-5.6091303
-5.5121618
-5.3950019
-5.2538946
-5.0844706
-4.8817218
-4.639905
-4.3525562
-4.01265
-3.6126199
-3.1446679
-2.6010567
-1.9745241
-1.2589447
-0.45001629
0.45402151
1.4518172
2.5384524
3.7058451
4.9439005
6.2421374
7.5918962
8.9875861
10.427778
11.919383
13.477026
15.123925
16.884581
18.770211
20.764123
22.81707
24.857909
26.815732
28.641281
30.310331
31.809165
33.120413
34.213535
35.056871
35.625629
35.91076
35.911541
35.628029
35.061012
34.219447
33.128001
31.818343
30.321053
28.653656
26.829671
24.873245
22.833806
20.782327
18.789952
16.905684
15.146209
13.500375
11.943711
10.45317
9.014006
7.61933
6.2704637
4.9729631
3.7355649
2.5688108
1.4828047
0.48556269
-0.41801466
-1.2264924
-1.9416401
-2.5676963
-3.1107125
-3.5779773
-3.9773215
-4.3165423
-4.6032193
-4.8444197
-5.0465801
-5.2154727
-5.3561786
-5.4728966
-5.569442
-5.6489977
-5.7141022
-5.7669236
-5.8093357
-5.8427894
-5.8683956
-5.8870973
-5.8987549
-5.9080525
-6.3960018
-6.3901274
-6.3842343
-6.3737091
-6.358786
-6.3385687
-6.3118997
-6.2773392
-6.2331613
-6.1772339
-6.1069007
-6.0188953
-5.9092697
-5.7733325
-5.6056113
-5.3996979
-5.1481703
-4.842725
-4.4743349
-4.0333507
-3.5097963
-2.8940557
-2.1776809
-1.3542433
-0.42063244
0.62190544
1.7670934
3.0035456
4.3162488
5.6894882
7.1103253
8.570624
10.067751
11.605787
13.206994
14.91391
16.781189
18.846889
21.099963
23.467045
25.830709
28.076331
30.140336
32.014547
33.707403
35.210477
36.477011
37.454659
38.105495
38.427083
38.427954
38.108075
37.458931
36.482945
35.218052
33.716701
32.025445
30.152842
28.090512
25.846385
23.484193
21.118601
18.86705
16.802872
14.936843
13.231024
11.630765
10.093574
8.5974809
7.1382087
5.7182292
4.3456324
3.0334751
1.7975986
0.65296148
-0.38912384
-1.3223498
-2.1453421
-2.8612667
-3.4765836
-3.9996273
-4.4399696
-4.8076667
-5.1123703
-5.3632112
-5.5684981
-5.7356354
-5.8710095
-5.9802045
-6.0678509
-6.137797
-6.1933557
-6.2371454
-6.2713647
-6.2977765
-6.3177882
-6.3325177
-6.3428767
-6.3486779
-6.3545405
-6.8457679
-6.8434686
-6.8438771
-6.8423643
-6.8392102
-6.8335402
-6.8242943
-6.8101664
-6.7895419
-6.7603612
-6.7199965
-6.6651712
-6.5918474
-6.4951186
-6.3690789
-6.2066696
-5.9995792
-5.7381488
-5.4116047
-5.0080782
-4.5148453
-3.9190979
-3.209127
-2.3753416
-1.4121214
-0.31974765
0.89397473
2.2129386
3.6145372
5.0742641
6.5725487
8.0985303
9.6458928
11.210953
12.813424
14.52428
16.456734
18.709008
21.290541
24.08603
26.885396
29.484663
31.800207
33.873782
35.775302
37.517648
39.013742
40.164014
40.902968
41.254118
41.25508
40.905748
40.168445
39.019746
37.525234
35.784576
33.88481
31.812875
29.499001
26.901353
24.103569
21.309691
18.729655
16.478963
14.547904
12.838178
11.236679
9.6724757
8.1259905
6.6008892
5.1033613
3.6442483
2.2431749
0.92469928
-0.28857777
-1.3806385
-2.3436065
-3.1770343
-3.8865389
-4.4818152
-4.9745498
-5.3774921
-5.703363
-5.9640308
-6.1704079
-6.3321782
-6.4576349
-6.5538292
-6.6266507
-6.6811054
-6.7211565
-6.7499784
-6.7701907
-6.7839612
-6.7929285
-6.7983827
-6.8013397
-6.8026725
-6.8021654
-6.8044522
-7.2958789
-7.297504
-7.3047599
-7.3129304
-7.3223838
-7.3323324
-7.3418796
-7.3499156
-7.3550069
-7.3552628
-7.3482037
-7.3306782
-7.2987188
-7.2473382
-7.1703446
-7.060117
-6.9074436
-6.7014259
-6.4293422
-6.0766975
-5.6273159
-5.0644176
-4.3715997
-3.5344158
-2.5429591
-1.3947452
-0.098231103
1.3240856
2.8368916
4.4002223
5.9846813
7.5808889
9.1808315
10.755486
12.290986
13.891059
15.783669
18.203812
21.222099
24.651602
28.08723
31.128314
33.664327
35.87147
37.979346
40.046647
41.879906
43.267184
44.081591
44.423661
44.424589
44.084367
43.27167
41.885926
40.054232
37.988533
35.882413
33.677043
31.142794
28.103585
24.669726
21.241944
18.225296
15.806656
13.915415
12.316443
10.781925
9.2082729
7.6092095
6.0137424
4.4298558
2.8669569
1.3546049
-0.067265681
-1.3634668
-2.5115727
-3.502886
-4.3397485
-5.0321538
-5.5945333
-6.0433609
-6.3954423
-6.6668734
-6.8721368
-7.0240883
-7.133656
-7.2100817
-7.2609712
-7.2924425
-7.309518
-7.3162604
-7.3156467
-7.3101623
-7.30175
-7.2918745
-7.2816871
-7.2720363
-7.2637075
-7.2563577
-7.2547038
-7.7429873
-7.7492206
-7.763937
-7.7824332
-7.8052451
-7.8317558
-7.8613077
-7.8930516
-7.9258255
-7.9580293
-7.9875003
-8.0113714
-8.0259354
-8.0263457
-8.0063143
-7.9578913
-7.87116
-7.7339938
-7.5316881
-7.2468623
-6.8594489
-6.3473918
-5.6878742
-4.8591415
-3.8440307
-2.6340278
-1.2351836
0.32330986
1.9845316
3.6780683
5.3557825
7.0270713
8.705918
10.307896
11.682782
12.943894
14.547109
17.047762
20.680402
25.143767
29.606909
33.213788
35.819171
37.940475
40.200619
42.773585
45.181102
46.917396
47.723215
47.929344
47.930155
47.725835
46.921923
45.187337
42.781353
40.209745
37.951079
35.831641
33.228399
29.623793
25.162775
20.701169
17.07021
14.571108
12.969304
11.709154
10.33498
8.7342189
7.0563815
5.3857968
3.7084165
2.0150656
0.35417321
-1.2039606
-2.6027063
-3.8127796
-4.8278589
-5.6563639
-6.315496
-6.8270123
-7.2138112
-7.4979904
-7.6996613
-7.836156
-7.9221857
-7.9699453
-7.9893816
-7.9884637
-7.9734308
-7.949093
-7.9192229
-7.8866502
-7.8535213
-7.8213987
-7.7914757
-7.7646636
-7.7416262
-7.7230094
-7.7082265
-7.7019698
-8.1840714
-8.1956875
-8.2184436
-8.247792
-8.2845531
-8.3283665
-8.3788814
-8.4355956
-8.4977284
-8.5640915
-8.6330273
-8.7021953
-8.7683428
-8.8270152
-8.8721789
-8.8959542
-8.8881068
-8.8353949
-8.7212793
-8.5255325
-8.2238559
-7.7879358
-7.1861551
-6.3861199
-5.3585325
-4.0834225
-2.5574418
-0.81129411
1.0661004
2.9362041
4.696741
6.4222717
8.2536741
10.026119
11.172366
11.654426
12.387824
14.694195
19.220466
25.522842