/*--------------------------------*- C++ -*----------------------------------*\
  =========                 |
  \\      /  F ield         | OpenFOAM: The Open Source CFD Toolbox
   \\    /   O peration     | Website:  https://openfoam.org
    \\  /    A nd           | Version:  9
     \\/     M anipulation  |
\*---------------------------------------------------------------------------*/
FoamFile
{
    format      ascii;
    class       volVectorField;
    location    "0.04";
    object      U;
}
// * * * * * * * * * * * * * * * * * * * * * * * * * * * * * * * * * * * * * //

dimensions      [0 1 -1 0 0 0 0];

internalField   nonuniform List<vector> 
10000
(
(-0.0042457041 0.0043318678 0)
(-0.010535491 0.0043013682 0)
(-0.014849805 0.0042891695 0)
(-0.019367356 0.0042622294 0)
(-0.023893405 0.0042356409 0)
(-0.028399806 0.0042023766 0)
(-0.032883839 0.0041619325 0)
(-0.037340369 0.0041160409 0)
(-0.04176207 0.0040651552 0)
(-0.046140872 0.0040059084 0)
(-0.05046944 0.0039338924 0)
(-0.05473753 0.0038543157 0)
(-0.058933371 0.0037598819 0)
(-0.063047509 0.0036514576 0)
(-0.067059107 0.0035331327 0)
(-0.070950905 0.0033995323 0)
(-0.074711337 0.0032449801 0)
(-0.078319348 0.0030756749 0)
(-0.081750784 0.0028902181 0)
(-0.0849815 0.0026850891 0)
(-0.087990616 0.0024552009 0)
(-0.09075268 0.0022085105 0)
(-0.093240053 0.0019404531 0)
(-0.095426868 0.0016495624 0)
(-0.097286605 0.0013343948 0)
(-0.098791333 0.00099749895 0)
(-0.099911625 0.0006413775 0)
(-0.10061436 0.00025958044 0)
(-0.1009329 -0.00015799791 0)
(-0.10086914 -0.00057170065 0)
(-0.10032082 -0.00097476305 0)
(-0.099251512 -0.0013848954 0)
(-0.097678534 -0.0018088333 0)
(-0.095601599 -0.002237984 0)
(-0.093017985 -0.0026680997 0)
(-0.089927021 -0.0030951553 0)
(-0.086334233 -0.003516302 0)
(-0.082248566 -0.0039256989 0)
(-0.07768208 -0.0043196393 0)
(-0.072653317 -0.0046942698 0)
(-0.067186022 -0.0050501466 0)
(-0.061308159 -0.005379118 0)
(-0.05504988 -0.005676265 0)
(-0.048444576 -0.0059385399 0)
(-0.041530437 -0.0061686055 0)
(-0.034349463 -0.006369573 0)
(-0.026951229 -0.0065331793 0)
(-0.019381014 -0.0066539347 0)
(-0.011681766 -0.0067336772 0)
(-0.003905587 -0.0067728434 0)
(0.0038997002 -0.0067728012 0)
(0.011675944 -0.0067336876 0)
(0.019374947 -0.0066539173 0)
(0.026945229 -0.0065330777 0)
(0.034343248 -0.0063695774 0)
(0.041523637 -0.0061682196 0)
(0.048437515 -0.0059389296 0)
(0.055042372 -0.0056764157 0)
(0.061300426 -0.005379185 0)
(0.067178081 -0.0050502208 0)
(0.072644995 -0.0046941718 0)
(0.077673634 -0.0043193957 0)
(0.082239888 -0.0039254085 0)
(0.08632563 -0.0035160249 0)
(0.089918183 -0.0030951604 0)
(0.093008456 -0.0026679206 0)
(0.095592303 -0.0022376662 0)
(0.097669761 -0.0018085137 0)
(0.099243116 -0.001384765 0)
(0.10031253 -0.00097490639 0)
(0.10086057 -0.00057206989 0)
(0.10092404 -0.00015851488 0)
(0.10060571 0.00025897942 0)
(0.099903705 0.00064056158 0)
(0.09878424 0.00099652866 0)
(0.097280501 0.0013333239 0)
(0.09542172 0.0016485049 0)
(0.093235652 0.0019395287 0)
(0.090749122 0.0022075524 0)
(0.087987884 0.002454122 0)
(0.084979451 0.0026839406 0)
(0.081749867 0.0028888665 0)
(0.078319654 0.0030746125 0)
(0.07471272 0.0032435896 0)
(0.070953546 0.0033978937 0)
(0.067061713 0.0035310011 0)
(0.063051157 0.003650132 0)
(0.05893962 0.0037584148 0)
(0.054745685 0.0038522926 0)
(0.050479475 0.0039310297 0)
(0.046152623 0.0040022189 0)
(0.041775546 0.0040603666 0)
(0.037356252 0.0041113755 0)
(0.032903527 0.0041571561 0)
(0.028424115 0.0041952357 0)
(0.023922715 0.0042261761 0)
(0.01940262 0.0042494977 0)
(0.014873032 0.0042669675 0)
(0.010577932 0.0042815551 0)
(0.0042827061 0.0042968998 0)
(-0.0042787499 0.010641818 0)
(-0.010582718 0.010592528 0)
(-0.014890786 0.010570766 0)
(-0.019420963 0.010523246 0)
(-0.023952124 0.010465593 0)
(-0.028471392 0.010398474 0)
(-0.03296722 0.010319423 0)
(-0.037433551 0.01022531 0)
(-0.041868052 0.010112881 0)
(-0.046267548 0.0099804451 0)
(-0.050616065 0.0098265419 0)
(-0.054906327 0.0096445974 0)
(-0.059130876 0.0094357734 0)
(-0.063268828 0.0091958528 0)
(-0.067305555 0.008921245 0)
(-0.071233602 0.0086037957 0)
(-0.075029826 0.0082487474 0)
(-0.078668913 0.007847142 0)
(-0.082136369 0.0073953874 0)
(-0.085411765 0.0068939915 0)
(-0.088462751 0.006341961 0)
(-0.091263377 0.0057323387 0)
(-0.093795404 0.0050663335 0)
(-0.096029855 0.0043434848 0)
(-0.097936199 0.0035646274 0)
(-0.099482434 0.002729061 0)
(-0.10064804 0.0018340096 0)
(-0.10141238 0.00087929376 0)
(-0.10176254 -0.00014381527 0)
(-0.10168368 -0.001186774 0)
(-0.10113122 -0.0022296021 0)
(-0.10008219 -0.0032960111 0)
(-0.098527697 -0.0043863259 0)
(-0.096456496 -0.0054909683 0)
(-0.093870408 -0.0065998812 0)
(-0.090770141 -0.0077028769 0)
(-0.087159476 -0.008790261 0)
(-0.083046496 -0.0098502296 0)
(-0.078445279 -0.010873389 0)
(-0.073378425 -0.011850335 0)
(-0.06786554 -0.012768636 0)
(-0.06192929 -0.013621285 0)
(-0.05560482 -0.014401685 0)
(-0.048932883 -0.015102394 0)
(-0.04195761 -0.015713699 0)
(-0.034710541 -0.016229196 0)
(-0.027232818 -0.016649351 0)
(-0.01957946 -0.01696603 0)
(-0.011799306 -0.017178238 0)
(-0.0039442356 -0.0172845 0)
(0.0039382738 -0.017284418 0)
(0.011793343 -0.017178258 0)
(0.019573396 -0.016966143 0)
(0.027226699 -0.016649415 0)
(0.034704506 -0.016229563 0)
(0.041950321 -0.015714035 0)
(0.048925187 -0.015102819 0)
(0.055597488 -0.014402028 0)
(0.061921474 -0.013621576 0)
(0.067857583 -0.012768902 0)
(0.073370231 -0.011850395 0)
(0.078436856 -0.010873184 0)
(0.083037703 -0.0098497822 0)
(0.087150421 -0.0087895688 0)
(0.090761015 -0.0077023972 0)
(0.093861031 -0.0065991504 0)
(0.096447188 -0.0054904175 0)
(0.098518587 -0.0043860645 0)
(0.10007322 -0.0032961888 0)
(0.10112233 -0.0022303081 0)
(0.10167465 -0.0011877603 0)
(0.10175338 -0.00014482917 0)
(0.10140337 0.00087826335 0)
(0.10063967 0.0018327379 0)
(0.099474946 0.0027274205 0)
(0.097929799 0.003562711 0)
(0.096024597 0.0043412515 0)
(0.09379078 0.0050641126 0)
(0.091259229 0.0057302773 0)
(0.088459268 0.006339712 0)
(0.085408787 0.0068915883 0)
(0.082134799 0.0073930832 0)
(0.078668373 0.0078442826 0)
(0.075029758 0.008245631 0)
(0.071234563 0.008600556 0)
(0.067307497 0.0089177099 0)
(0.063272153 0.0091928782 0)
(0.059135462 0.0094322922 0)
(0.054912152 0.0096402363 0)
(0.050623463 0.0098206986 0)
(0.046276313 0.0099732042 0)
(0.041879351 0.010104896 0)
(0.037448083 0.010215692 0)
(0.032982912 0.010307706 0)
(0.028489227 0.010384304 0)
(0.02397372 0.010446912 0)
(0.019440833 0.010497864 0)
(0.014903178 0.010538684 0)
(0.010606552 0.010566108 0)
(0.0042976279 0.010595922 0)
(-0.0042973854 0.014967877 0)
(-0.010611819 0.014923251 0)
(-0.014922092 0.014892623 0)
(-0.019473649 0.014842253 0)
(-0.024017796 0.01477588 0)
(-0.028544499 0.014696901 0)
(-0.033054582 0.014602563 0)
(-0.037543684 0.01448795 0)
(-0.042003047 0.01434789 0)
(-0.046422916 0.014180231 0)
(-0.050800679 0.013984999 0)
(-0.055123456 0.013750918 0)
(-0.059377338 0.01347987 0)
(-0.063557231 0.013165181 0)
(-0.067646338 0.012798652 0)
(-0.071618696 0.012371933 0)
(-0.075463475 0.011891887 0)
(-0.079168306 0.011343328 0)
(-0.082699696 0.010722384 0)
(-0.086030942 0.010027116 0)
(-0.089148549 0.0092584847 0)
(-0.092024795 0.0084046675 0)
(-0.094625692 0.0074672711 0)
(-0.09692568 0.00644632 0)
(-0.098898523 0.0053431034 0)
(-0.10051969 0.0041557761 0)
(-0.10175919 0.0028819868 0)
(-0.10258972 0.0015303252 0)
(-0.102996 0.00010416834 0)
(-0.10295114 -0.0013788064 0)
(-0.10242545 -0.0029013576 0)
(-0.10140286 -0.0044654845 0)
(-0.099867424 -0.0060572015 0)
(-0.097808481 -0.007670378 0)
(-0.095222699 -0.0092887654 0)
(-0.092109785 -0.010902375 0)
(-0.088473687 -0.012492925 0)
(-0.084323638 -0.014046083 0)
(-0.079674092 -0.015547416 0)
(-0.074540568 -0.016982572 0)
(-0.06894916 -0.018333094 0)
(-0.062933729 -0.019586961 0)
(-0.056523947 -0.020739667 0)
(-0.049750088 -0.021776449 0)
(-0.042651435 -0.022682859 0)
(-0.035280075 -0.023445627 0)
(-0.027683881 -0.024065388 0)
(-0.019906558 -0.024536119 0)
(-0.011997791 -0.024853127 0)
(-0.004010906 -0.02501317 0)
(0.0040047367 -0.025013167 0)
(0.011991438 -0.024853145 0)
(0.019900165 -0.024536245 0)
(0.027677387 -0.024065576 0)
(0.035273383 -0.023446115 0)
(0.042644373 -0.022683851 0)
(0.04974284 -0.021776631 0)
(0.056516385 -0.020740078 0)
(0.06292586 -0.019587302 0)
(0.068941209 -0.018333265 0)
(0.07453241 -0.016982515 0)
(0.079665859 -0.015547183 0)
(0.084315149 -0.014045719 0)
(0.088464864 -0.012492269 0)
(0.092100716 -0.010901638 0)
(0.095212928 -0.0092877247 0)
(0.097798405 -0.0076703476 0)
(0.099857625 -0.006057331 0)
(0.10139325 -0.0044660189 0)
(0.10241614 -0.0029024869 0)
(0.10294212 -0.0013800134 0)
(0.10298699 0.00010287823 0)
(0.10258068 0.0015292162 0)
(0.10175046 0.0028808649 0)
(0.10051168 0.0041543306 0)
(0.098891445 0.0053413948 0)
(0.096919732 0.0064441678 0)
(0.094620839 0.0074646166 0)
(0.092020426 0.0084019208 0)
(0.089144497 0.009255609 0)
(0.086027719 0.010024122 0)
(0.082697112 0.010719541 0)
(0.079166494 0.01133968 0)
(0.075463075 0.011888167 0)
(0.071619425 0.012368271 0)
(0.067647714 0.01279446 0)
(0.063559472 0.013160984 0)
(0.059380777 0.013475096 0)
(0.055127908 0.013745547 0)
(0.050806478 0.013978561 0)
(0.046431028 0.014172709 0)
(0.042012505 0.014339458 0)
(0.037553966 0.014477423 0)
(0.033067523 0.014589965 0)
(0.028559271 0.014682206 0)
(0.024032838 0.014757487 0)
(0.019491641 0.014820073 0)
(0.014939278 0.014870134 0)
(0.010633798 0.014904259 0)
(0.0043122758 0.01493989 0)
(-0.0043232027 0.019538747 0)
(-0.010657943 0.019484647 0)
(-0.014971005 0.019438643 0)
(-0.019535988 0.019377202 0)
(-0.024094874 0.019302735 0)
(-0.028641275 0.019207394 0)
(-0.033172002 0.019090014 0)
(-0.037683409 0.01894967 0)
(-0.042170429 0.018781045 0)
(-0.046624657 0.018576946 0)
(-0.051039298 0.018332141 0)
(-0.055405132 0.018043974 0)
(-0.059710184 0.017701594 0)
(-0.063943542 0.017299844 0)
(-0.068092321 0.016834689 0)
(-0.072133888 0.016297951 0)
(-0.076052031 0.015677227 0)
(-0.079832118 0.01497234 0)
(-0.083446483 0.01417766 0)
(-0.086869778 0.01328201 0)
(-0.090079537 0.012280399 0)
(-0.093049216 0.011173662 0)
(-0.095748743 0.0099552642 0)
(-0.098149401 0.0086230605 0)
(-0.10022257 0.00717559 0)
(-0.10193982 0.0056153529 0)
(-0.10327011 0.0039477845 0)
(-0.10418681 0.0021766188 0)
(-0.10466795 0.00030827184 0)
(-0.10468468 -0.0016373383 0)
(-0.10421258 -0.0036515427 0)
(-0.10323201 -0.0057259298 0)
(-0.10172591 -0.0078420208 0)
(-0.099680894 -0.009985534 0)
(-0.097094837 -0.012138797 0)
(-0.09396645 -0.01428356 0)
(-0.090295187 -0.016399417 0)
(-0.086092971 -0.018466206 0)
(-0.081373838 -0.020463809 0)
(-0.076156297 -0.022372109 0)
(-0.070462369 -0.024175152 0)
(-0.064328697 -0.025852115 0)
(-0.0577877 -0.027385037 0)
(-0.050870031 -0.028758629 0)
(-0.04362124 -0.029963065 0)
(-0.036088087 -0.030987901 0)
(-0.028319077 -0.031819184 0)
(-0.020363702 -0.032449004 0)
(-0.01227359 -0.032872167 0)
(-0.0041032656 -0.033085281 0)
(0.004096834 -0.033085372 0)
(0.012267069 -0.032872161 0)
(0.020357113 -0.032448885 0)
(0.028312295 -0.031819048 0)
(0.036081002 -0.030987756 0)
(0.043614051 -0.02996306 0)
(0.050862742 -0.028758494 0)
(0.057780041 -0.027384955 0)
(0.064320936 -0.025851759 0)
(0.070454623 -0.024174682 0)
(0.076148253 -0.022371362 0)
(0.081365448 -0.020462944 0)
(0.086084287 -0.018465541 0)
(0.090286245 -0.016398827 0)
(0.09395746 -0.014283061 0)
(0.097084465 -0.012138536 0)
(0.099670112 -0.0099852519 0)
(0.10171596 -0.0078418535 0)
(0.10322181 -0.0057260507 0)
(0.1042028 -0.0036523737 0)
(0.1046753 -0.0016381039 0)
(0.10465874 0.00030704225 0)
(0.10417779 0.0021751679 0)
(0.10326113 0.0039462362 0)
(0.10193141 0.0056135749 0)
(0.10021506 0.0071735512 0)
(0.098142662 0.0086207834 0)
(0.095742856 0.0099523911 0)
(0.093044089 0.011170234 0)
(0.090074947 0.012276775 0)
(0.086865877 0.013278343 0)
(0.083443246 0.014173752 0)
(0.079829657 0.014968316 0)
(0.076050885 0.01567287 0)
(0.072133287 0.01629306 0)
(0.068092634 0.016829239 0)
(0.063945293 0.017294345 0)
(0.059712689 0.017695509 0)
(0.055408501 0.018037134 0)
(0.051043846 0.018324478 0)
(0.046630684 0.018568152 0)
(0.042177873 0.018769792 0)
(0.037692806 0.018937254 0)
(0.033182374 0.019079481 0)
(0.028652062 0.019192149 0)
(0.024107594 0.019283526 0)
(0.019550206 0.019358172 0)
(0.014984781 0.019415175 0)
(0.010674257 0.019459869 0)
(0.0043328247 0.019504048 0)
(-0.0043505286 0.02412575 0)
(-0.010709665 0.024071783 0)
(-0.015027414 0.024018046 0)
(-0.019606882 0.023949967 0)
(-0.02418427 0.02386512 0)
(-0.028753317 0.023759305 0)
(-0.033307805 0.023628785 0)
(-0.037847533 0.023469248 0)
(-0.042370118 0.023274874 0)
(-0.04686589 0.023036307 0)
(-0.051327418 0.022752206 0)
(-0.05574756 0.022412187 0)
(-0.060114966 0.022007775 0)
(-0.064417542 0.021531129 0)
(-0.068641547 0.020974035 0)
(-0.072769552 0.020329093 0)
(-0.076782564 0.019581439 0)
(-0.080661347 0.018728002 0)
(-0.084383629 0.017759834 0)
(-0.087922052 0.01666403 0)
(-0.091250885 0.015439329 0)
(-0.094344126 0.01407863 0)
(-0.097170778 0.012576873 0)
(-0.099700159 0.01093157 0)
(-0.10190138 0.0091417442 0)
(-0.10374302 0.0072095063 0)
(-0.10519371 0.0051397939 0)
(-0.10622508 0.0029375989 0)
(-0.10680552 0.00061377104 0)
(-0.10690574 -0.0018171996 0)
(-0.10650802 -0.0043412946 0)
(-0.10558659 -0.0069414805 0)
(-0.10411966 -0.0095988366 0)
(-0.10209738 -0.01229236 0)
(-0.099512458 -0.015002854 0)
(-0.096361862 -0.017701571 0)
(-0.092647616 -0.02036595 0)
(-0.088379283 -0.022969127 0)
(-0.083571356 -0.025486398 0)
(-0.078243455 -0.027893112 0)
(-0.072420982 -0.030164793 0)
(-0.066135856 -0.032280947 0)
(-0.059423242 -0.034214081 0)
(-0.05232144 -0.035948855 0)
(-0.044874561 -0.03746855 0)
(-0.037130682 -0.038758543 0)
(-0.029140169 -0.039805693 0)
(-0.020955429 -0.040599959 0)
(-0.012630649 -0.041134011 0)
(-0.0042227924 -0.041402951 0)
(0.0042160895 -0.041403025 0)
(0.012624066 -0.041134012 0)
(0.02094875 -0.040599829 0)
(0.029133308 -0.039805389 0)
(0.037123475 -0.038757933 0)
(0.044867102 -0.037467651 0)
(0.052313889 -0.035947886 0)
(0.05941553 -0.03421315 0)
(0.066128032 -0.032279721 0)
(0.072413046 -0.030163439 0)
(0.078235299 -0.027891709 0)
(0.083562607 -0.025484831 0)
(0.088370076 -0.022967788 0)
(0.092638273 -0.020364703 0)
(0.096352169 -0.01770072 0)
(0.099502214 -0.015002686 0)
(0.10208693 -0.012291448 0)
(0.10410918 -0.009598227 0)
(0.10557569 -0.0069411435 0)
(0.10649784 -0.0043413102 0)
(0.10689607 -0.0018179094 0)
(0.10679558 0.0006124463 0)
(0.10621546 0.0029358098 0)
(0.10518431 0.0051378902 0)
(0.10373407 0.0072074308 0)
(0.10189329 0.0091391615 0)
(0.099692753 0.010928525 0)
(0.097164041 0.012573464 0)
(0.09433821 0.014074805 0)
(0.091245708 0.015435126 0)
(0.087917554 0.016659371 0)
(0.084379623 0.017754976 0)
(0.080657984 0.018723088 0)
(0.076780157 0.019576364 0)
(0.07276807 0.020323233 0)
(0.068641173 0.020968016 0)
(0.064418086 0.021524457 0)
(0.060116102 0.022000479 0)
(0.055749572 0.022403893 0)
(0.051330524 0.022743228 0)
(0.046869737 0.02302685 0)
(0.042375181 0.023262218 0)
(0.037857695 0.023455504 0)
(0.033317019 0.023613636 0)
(0.028758502 0.023743352 0)
(0.024194809 0.023847212 0)
(0.019619908 0.023929888 0)
(0.015038242 0.023995431 0)
(0.010720571 0.024047879 0)
(0.0043561022 0.024096918 0)
(-0.0043756395 0.02872562 0)
(-0.010761992 0.028669138 0)
(-0.015089392 0.028608761 0)
(-0.019685254 0.028537352 0)
(-0.024281476 0.028446218 0)
(-0.02887303 0.02833396 0)
(-0.033456924 0.028194194 0)
(-0.038031649 0.028020075 0)
(-0.04259727 0.027805235 0)
(-0.047140877 0.027543526 0)
(-0.051656743 0.027226111 0)
(-0.056142692 0.026842804 0)
(-0.060584208 0.026384435 0)
(-0.064970182 0.025841388 0)
(-0.069287232 0.025202266 0)
(-0.073519401 0.024456352 0)
(-0.077646097 0.023591479 0)
(-0.081646763 0.022596683 0)
(-0.085503644 0.021462406 0)
(-0.089183611 0.02017789 0)
(-0.092658426 0.018733811 0)
(-0.095905401 0.017123693 0)
(-0.098889781 0.015341496 0)
(-0.10157877 0.01338397 0)
(-0.10393916 0.011249453 0)
(-0.10593667 0.0089397421 0)
(-0.10753715 0.0064596596 0)
(-0.10870804 0.0038172678 0)
(-0.10941769 0.0010276972 0)
(-0.10963391 -0.0019048345 0)
(-0.10933023 -0.0049555666 0)
(-0.10848222 -0.0081000113 0)
(-0.10706884 -0.011318497 0)
(-0.10507644 -0.014586239 0)
(-0.10249522 -0.017874706 0)
(-0.099320484 -0.021153721 0)
(-0.095553551 -0.024392501 0)
(-0.091204242 -0.027555478 0)
(-0.086288792 -0.030619525 0)
(-0.080825919 -0.033548547 0)
(-0.074841762 -0.036313371 0)
(-0.068369981 -0.038886136 0)
(-0.061448052 -0.041239964 0)
(-0.054117456 -0.043351773 0)
(-0.046424453 -0.045201148 0)
(-0.038419343 -0.046770209 0)
(-0.030155197 -0.048043785 0)
(-0.021687328 -0.049009948 0)
(-0.013072479 -0.049659917 0)
(-0.0043706174 -0.049987341 0)
(0.004363694 -0.049987281 0)
(0.013065731 -0.04965985 0)
(0.021680559 -0.049009913 0)
(0.03014837 -0.048043383 0)
(0.038412266 -0.046769522 0)
(0.046416983 -0.045200134 0)
(0.054109537 -0.043350452 0)
(0.061439968 -0.041238375 0)
(0.068362034 -0.038884348 0)
(0.074833567 -0.036311311 0)
(0.080817471 -0.033546483 0)
(0.086279686 -0.030617571 0)
(0.091194605 -0.02755376 0)
(0.095543584 -0.024389974 0)
(0.099310001 -0.021151932 0)
(0.10248458 -0.017873523 0)
(0.10506578 -0.014585346 0)
(0.10705798 -0.011317927 0)
(0.10847102 -0.0080997629 0)
(0.10931909 -0.0049553629 0)
(0.10962294 -0.0019056151 0)
(0.10940707 0.0010262153 0)
(0.10869808 0.0038150672 0)
(0.10752749 0.0064569233 0)
(0.10592709 0.008936874 0)
(0.10393009 0.011246256 0)
(0.10157051 0.013380224 0)
(0.098882311 0.015337287 0)
(0.095898601 0.017119107 0)
(0.09265204 0.018728842 0)
(0.089178027 0.020172444 0)
(0.08549907 0.021456612 0)
(0.081642957 0.022590836 0)
(0.077642812 0.023585467 0)
(0.073516698 0.024449974 0)
(0.06928562 0.025195412 0)
(0.06496957 0.025833782 0)
(0.060584155 0.026376423 0)
(0.056143587 0.026833638 0)
(0.051659413 0.027216422 0)
(0.047142642 0.027532925 0)
(0.04259986 0.027793372 0)
(0.038037943 0.028006724 0)
(0.033464504 0.028176431 0)
(0.028880567 0.028317431 0)
(0.024289851 0.02842983 0)
(0.019694868 0.028516842 0)
(0.015099757 0.028586629 0)
(0.010773323 0.02864287 0)
(0.0043814146 0.028699297 0)
(-0.0044052174 0.033342275 0)
(-0.010822021 0.033276271 0)
(-0.015154821 0.033218456 0)
(-0.019764989 0.03314448 0)
(-0.024382926 0.033051966 0)
(-0.029000169 0.032935915 0)
(-0.033616035 0.032790185 0)
(-0.038230379 0.032607581 0)
(-0.042840152 0.03238206 0)
(-0.04743812 0.03210622 0)
(-0.052020984 0.031764295 0)
(-0.05658185 0.031349429 0)
(-0.061108817 0.030845447 0)
(-0.065592042 0.030247178 0)
(-0.070018889 0.02953715 0)
(-0.074372666 0.028702635 0)
(-0.078634588 0.027730526 0)
(-0.08278285 0.02660514 0)
(-0.086794998 0.025314488 0)
(-0.090643313 0.023850125 0)
(-0.094297917 0.022194337 0)
(-0.097729503 0.020340526 0)
(-0.10090378 0.018281986 0)
(-0.10378569 0.016013349 0)
(-0.10633934 0.013532276 0)
(-0.10852688 0.010840082 0)
(-0.11031048 0.0079417104 0)
(-0.11165149 0.0048455228 0)
(-0.1125219 0.001564235 0)
(-0.11288257 -0.001878746 0)
(-0.11269597 -0.0054710231 0)
(-0.1119416 -0.009184444 0)
(-0.11059732 -0.012990703 0)
(-0.10864451 -0.016859724 0)
(-0.10607055 -0.020756439 0)
(-0.10287005 -0.024645098 0)
(-0.099039723 -0.028487568 0)
(-0.094596679 -0.032248032 0)
(-0.089554952 -0.035887487 0)
(-0.083928124 -0.039367405 0)
(-0.077749742 -0.042652755 0)
(-0.071054017 -0.045709698 0)
(-0.063880901 -0.048506836 0)
(-0.056275121 -0.051016154 0)
(-0.048286016 -0.053213134 0)
(-0.039966879 -0.055076698 0)
(-0.03137398 -0.056589145 0)
(-0.022566143 -0.057736228 0)
(-0.013603133 -0.058507773 0)
(-0.0045480953 -0.058896601 0)
(0.0045411382 -0.058896473 0)
(0.013596106 -0.058507544 0)
(0.02255929 -0.057736054 0)
(0.03136717 -0.056588641 0)
(0.039959587 -0.055076084 0)
(0.048278452 -0.053212458 0)
(0.056267355 -0.051015243 0)
(0.063872809 -0.048505229 0)
(0.071045842 -0.045707801 0)
(0.077741304 -0.042650622 0)
(0.083919146 -0.039365153 0)
(0.089545106 -0.035885436 0)
(0.09458727 -0.032245776 0)
(0.099029703 -0.028485306 0)
(0.1028584 -0.02464298 0)
(0.10605892 -0.020754762 0)
(0.10863304 -0.016858719 0)
(0.11058574 -0.01299036 0)
(0.11192988 -0.0091845562 0)
(0.11268431 -0.0054712281 0)
(0.11287079 -0.0018796069 0)
(0.11251008 0.001562859 0)
(0.11164011 0.0048433609 0)
(0.1102999 0.0079385071 0)
(0.1085169 0.010836299 0)
(0.10632965 0.013528225 0)
(0.10377642 0.016008856 0)
(0.10089526 0.01827694 0)
(0.097721783 0.020334976 0)
(0.094290768 0.022188716 0)
(0.090636868 0.023844284 0)
(0.086789446 0.025308196 0)
(0.082778091 0.02659872 0)
(0.078630463 0.027723688 0)
(0.074369192 0.028695576 0)
(0.070016319 0.029529924 0)
(0.065590557 0.030239434 0)
(0.061107606 0.03083769 0)
(0.05658159 0.031339559 0)
(0.05202222 0.031753841 0)
(0.047439419 0.032094251 0)
(0.042842168 0.032370728 0)
(0.038234338 0.03259526 0)
(0.033621822 0.032775433 0)
(0.02900671 0.032918834 0)
(0.024389666 0.033033601 0)
(0.019772777 0.033124137 0)
(0.015160895 0.033195761 0)
(0.010830427 0.033249481 0)
(0.0044119235 0.033312834 0)
(-0.0044398923 0.037966123 0)
(-0.010880735 0.037896067 0)
(-0.015216213 0.037843276 0)
(-0.019846645 0.03777008 0)
(-0.024484681 0.037680872 0)
(-0.029129074 0.037566973 0)
(-0.03377909 0.037422821 0)
(-0.038433242 0.037241164 0)
(-0.043091696 0.037014116 0)
(-0.047751359 0.036729517 0)
(-0.052405942 0.03637468 0)
(-0.05705366 0.035939048 0)
(-0.061678353 0.035407244 0)
(-0.0662703 0.034764598 0)
(-0.070823544 0.033996948 0)
(-0.075317753 0.033087825 0)
(-0.079735336 0.032021006 0)
(-0.084054629 0.030779794 0)
(-0.088250576 0.029345982 0)
(-0.09229578 0.027709408 0)
(-0.096160216 0.025852495 0)
(-0.099810111 0.023761754 0)
(-0.10320945 0.021432781 0)
(-0.10632114 0.018854961 0)
(-0.10910529 0.016025921 0)
(-0.1115204 0.012946305 0)
(-0.1135251 0.0096212554 0)
(-0.11507912 0.0060601584 0)
(-0.11613551 0.0022759161 0)
(-0.11666215 -0.0017049221 0)
(-0.1166281 -0.0058661566 0)
(-0.11599333 -0.010172657 0)
(-0.11473497 -0.014601059 0)
(-0.11283255 -0.019105169 0)
(-0.11027066 -0.02364545 0)
(-0.10704152 -0.028180356 0)
(-0.1031463 -0.032666821 0)
(-0.098594055 -0.037062229 0)
(-0.093398219 -0.041312998 0)
(-0.087581474 -0.045379649 0)
(-0.081174679 -0.049219441 0)
(-0.074215079 -0.052791951 0)
(-0.066745965 -0.056060568 0)
(-0.058815652 -0.058992381 0)
(-0.050477353 -0.061558442 0)
(-0.041788207 -0.063734026 0)
(-0.032808055 -0.065499386 0)
(-0.023599719 -0.066837952 0)
(-0.014227065 -0.067737785 0)
(-0.0047568408 -0.0681912 0)
(0.0047499094 -0.068191205 0)
(0.014219957 -0.067737507 0)
(0.023592748 -0.066837377 0)
(0.032801116 -0.06549868 0)
(0.041780708 -0.063733266 0)
(0.050469594 -0.061557714 0)
(0.058807976 -0.058991587 0)
(0.066738097 -0.056059316 0)
(0.074206847 -0.052790327 0)
(0.081166114 -0.049217644 0)
(0.087572341 -0.045377752 0)
(0.093388502 -0.041311077 0)
(0.098583895 -0.037059978 0)
(0.10313536 -0.032665443 0)
(0.1070296 -0.028178714 0)
(0.11025818 -0.023643708 0)
(0.11281999 -0.019103916 0)
(0.11472246 -0.014600569 0)
(0.11598107 -0.010173132 0)
(0.11661565 -0.0058663865 0)
(0.1166494 -0.0017061793 0)
(0.11612297 0.002273878 0)
(0.11506678 0.0060576803 0)
(0.11351334 0.0096180133 0)
(0.11150942 0.012942092 0)
(0.10909475 0.016020986 0)
(0.10631093 0.018849478 0)
(0.10319992 0.021426694 0)
(0.09980165 0.023754861 0)
(0.096152338 0.025846343 0)
(0.092288318 0.027702646 0)
(0.088244228 0.029338656 0)
(0.084049078 0.030772722 0)
(0.079730305 0.032013806 0)
(0.075313655 0.033080339 0)
(0.070820431 0.033989082 0)
(0.066268555 0.034756192 0)
(0.061675647 0.035398109 0)
(0.057051416 0.035929406 0)
(0.0524063 0.036364104 0)
(0.047752168 0.036718193 0)
(0.043093917 0.037001813 0)
(0.038436189 0.037227975 0)
(0.033782021 0.037408163 0)
(0.029133251 0.037549758 0)
(0.024490218 0.037660957 0)
(0.019852625 0.037748821 0)
(0.0152213 0.037819735 0)
(0.010887118 0.037872263 0)
(0.0044440444 0.037937135 0)
(-0.0044735001 0.04259791 0)
(-0.010939195 0.042530449 0)
(-0.015275289 0.042477207 0)
(-0.019921742 0.042411292 0)
(-0.024580114 0.042328537 0)
(-0.029251979 0.042226594 0)
(-0.033935237 0.04209431 0)
(-0.038632117 0.041923636 0)
(-0.043344465 0.041703334 0)
(-0.048069876 0.041421628 0)
(-0.052803426 0.041066944 0)
(-0.057540997 0.040623007 0)
(-0.062274734 0.040078254 0)
(-0.066993682 0.03940817 0)
(-0.071686896 0.038598623 0)
(-0.07633976 0.037631011 0)
(-0.080933758 0.036485665 0)
(-0.085449049 0.035143291 0)
(-0.089856624 0.033583811 0)
(-0.094128152 0.031788412 0)
(-0.098237009 0.029741274 0)
(-0.10214073 0.027426185 0)
(-0.10580216 0.024831544 0)
(-0.10918431 0.021947597 0)
(-0.11223991 0.018769871 0)
(-0.11492375 0.015297879 0)
(-0.11718905 0.011536636 0)
(-0.11898957 0.0074970817 0)
(-0.12027979 0.0031961438 0)
(-0.121017 -0.0013509763 0)
(-0.12115527 -0.0061119455 0)
(-0.12066733 -0.011052188 0)
(-0.11952005 -0.016134137 0)
(-0.11767873 -0.021313518 0)
(-0.11513523 -0.026537321 0)
(-0.11188077 -0.031766899 0)
(-0.10791087 -0.036943603 0)
(-0.10323219 -0.042013262 0)
(-0.097861791 -0.046922025 0)
(-0.091824213 -0.05161824 0)
(-0.085152018 -0.056052674 0)
(-0.077885493 -0.060177749 0)
(-0.07007211 -0.063950691 0)
(-0.061764234 -0.06733406 0)
(-0.053019342 -0.070294065 0)
(-0.04389996 -0.072801519 0)
(-0.034470503 -0.074835571 0)
(-0.024797509 -0.076377578 0)
(-0.014949713 -0.077413864 0)
(-0.0049986312 -0.077935708 0)
(0.0049915883 -0.077935593 0)
(0.014942896 -0.077413339 0)
(0.024790669 -0.076376695 0)
(0.034463419 -0.074834477 0)
(0.043892248 -0.072799825 0)
(0.053011445 -0.07029304 0)
(0.061756585 -0.067332732 0)
(0.070064399 -0.063949258 0)
(0.077877283 -0.060175859 0)
(0.085143304 -0.0560507 0)
(0.091814927 -0.05161643 0)
(0.097851917 -0.046920263 0)
(0.10322172 -0.042011546 0)
(0.10789952 -0.036942028 0)
(0.1118686 -0.031765261 0)
(0.11512236 -0.026535643 0)
(0.11766528 -0.021312129 0)
(0.11950618 -0.016133348 0)
(0.12065439 -0.011052149 0)
(0.12114228 -0.0061127445 0)
(0.12100282 -0.0013524368 0)
(0.12026611 0.0031938557 0)
(0.11897647 0.0074942064 0)
(0.11717635 0.011533139 0)
(0.11491158 0.015293503 0)
(0.11222826 0.018764655 0)
(0.10917299 0.021941844 0)
(0.10579127 0.024825191 0)
(0.10213185 0.02741913 0)
(0.098228779 0.029733967 0)
(0.094119298 0.031781239 0)
(0.089849575 0.033576288 0)
(0.085443243 0.035135194 0)
(0.080928149 0.036477494 0)
(0.076334734 0.037622768 0)
(0.071682671 0.038589767 0)
(0.066990418 0.039398384 0)
(0.062271938 0.040067248 0)
(0.057538946 0.040613145 0)
(0.052802766 0.041056155 0)
(0.048069456 0.041409683 0)
(0.043344709 0.041690324 0)
(0.038633971 0.041908726 0)
(0.033937302 0.042078591 0)
(0.029253655 0.042209979 0)
(0.024583356 0.042310494 0)
(0.019926637 0.04239033 0)
(0.015280077 0.042454172 0)
(0.010944055 0.04250594 0)
(0.0044759387 0.042570091 0)
(-0.0045053249 0.047235882 0)
(-0.010995253 0.047169458 0)
(-0.015329242 0.047124376 0)
(-0.019989048 0.04706924 0)
(-0.024662938 0.047000943 0)
(-0.029356668 0.046916234 0)
(-0.034075036 0.046803596 0)
(-0.038816865 0.046652539 0)
(-0.043585996 0.046451527 0)
(-0.048379652 0.046188887 0)
(-0.053196191 0.045849727 0)
(-0.05803367 0.045413832 0)
(-0.062884303 0.044868189 0)
(-0.067740875 0.044190432 0)
(-0.072591436 0.043358835 0)
(-0.077421314 0.04235201 0)
(-0.08221361 0.041147702 0)
(-0.086947034 0.039723372 0)
(-0.091595988 0.038057647 0)
(-0.09612892 0.036117658 0)
(-0.10051304 0.033896988 0)
(-0.10471039 0.031370249 0)
(-0.10867866 0.028518917 0)
(-0.1123736 0.025333959 0)
(-0.11574594 0.021807968 0)
(-0.11874485 0.017938668 0)
(-0.12131735 0.013730357 0)
(-0.12341143 0.0091942129 0)
(-0.12497551 0.0043471689 0)
(-0.12596202 -0.00078413871 0)
(-0.12632022 -0.0061765302 0)
(-0.12600588 -0.011790308 0)
(-0.12498602 -0.017568717 0)
(-0.12322499 -0.023468113 0)
(-0.12071293 -0.029434117 0)
(-0.11743648 -0.035407721 0)
(-0.11338131 -0.04132529 0)
(-0.10856112 -0.047124886 0)
(-0.102992 -0.052743324 0)
(-0.096701168 -0.058119666 0)
(-0.089723564 -0.063194993 0)
(-0.082102852 -0.06791543 0)
(-0.073892429 -0.072230214 0)
(-0.065149645 -0.076098063 0)
(-0.055935891 -0.079479584 0)
(-0.046321201 -0.082343405 0)
(-0.036376005 -0.084664021 0)
(-0.026170231 -0.086422159 0)
(-0.01577767 -0.087603521 0)
(-0.0052752627 -0.088198405 0)
(0.0052686508 -0.088198023 0)
(0.015770964 -0.087602632 0)
(0.026163393 -0.086421059 0)
(0.036369399 -0.084662557 0)
(0.046313222 -0.082341617 0)
(0.055927477 -0.079477628 0)
(0.06514215 -0.076095774 0)
(0.073884923 -0.072227867 0)
(0.082094769 -0.06791247 0)
(0.089714448 -0.06319207 0)
(0.096691435 -0.058117096 0)
(0.10298192 -0.052741097 0)
(0.10855049 -0.047122969 0)
(0.11336979 -0.041323634 0)
(0.11742397 -0.035406045 0)
(0.12069943 -0.029432517 0)
(0.12321078 -0.023466609 0)
(0.12497152 -0.017567625 0)
(0.12599147 -0.011789593 0)
(0.12630578 -0.0061774287 0)
(0.12594733 -0.00078551124 0)
(0.12496103 0.0043450806 0)
(0.12339738 0.0091917435 0)
(0.12130367 0.013727117 0)
(0.11873162 0.017934634 0)
(0.11573333 0.021803134 0)
(0.11236145 0.025328538 0)
(0.10866692 0.028513006 0)
(0.10469993 0.031363888 0)
(0.10050395 0.033889084 0)
(0.0961201 0.036109919 0)
(0.091587618 0.038049985 0)
(0.086939777 0.039714731 0)
(0.082207396 0.041138492 0)
(0.077415648 0.042342474 0)
(0.072586073 0.043348898 0)
(0.06773641 0.0441799 0)
(0.062881105 0.044857035 0)
(0.058031292 0.04540251 0)
(0.053194149 0.045837617 0)
(0.048378121 0.046175848 0)
(0.0435853 0.04643829 0)
(0.038817269 0.046637815 0)
(0.034076613 0.046787219 0)
(0.029358835 0.046898924 0)
(0.024664623 0.046983015 0)
(0.019990869 0.047048904 0)
(0.015332105 0.047101957 0)
(0.010998668 0.047144531 0)
(0.0045071471 0.047208545 0)
(-0.0045377963 0.051875209 0)
(-0.011043977 0.051811732 0)
(-0.015368825 0.051778623 0)
(-0.020038401 0.051740416 0)
(-0.024726201 0.051695652 0)
(-0.02944221 0.05163404 0)
(-0.034191517 0.051549922 0)
(-0.038976459 0.05143035 0)
(-0.043800046 0.051262398 0)
(-0.048663242 0.051033124 0)
(-0.05356975 0.050723573 0)
(-0.058513545 0.05031716 0)
(-0.06348891 0.04979198 0)
(-0.06849355 0.049125061 0)
(-0.073515586 0.048292781 0)
(-0.078540957 0.047270846 0)
(-0.083552364 0.046030905 0)