/*--------------------------------*- C++ -*----------------------------------*\
  =========                 |
  \\      /  F ield         | OpenFOAM: The Open Source CFD Toolbox
   \\    /   O peration     | Website:  https://openfoam.org
    \\  /    A nd           | Version:  9
     \\/     M anipulation  |
\*---------------------------------------------------------------------------*/
FoamFile
{
    format      ascii;
    class       volScalarField;
    location    "10";
    object      gradTx;
}
// * * * * * * * * * * * * * * * * * * * * * * * * * * * * * * * * * * * * * //

dimensions      [0 -1 0 1 0 0 0];

internalField   nonuniform List<scalar> 10(9.5020544e-07 5.0298248e-06 2.4737498e-05 0.00012351056 0.00034720169 0.0016616094 0.042594789 0.12723204 1.2041234 -0);

boundaryField
{
    inlet
    {
        type            calculated;
        value           uniform 9.5020544e-07;
    }
    outlet
    {
        type            calculated;
        value           uniform -24.989059;
    }
    bottom
    {
        type            calculated;
        value           nonuniform List<scalar> 10(9.5020544e-07 5.0298248e-06 2.4737498e-05 0.00012351056 0.00034720169 0.0016616094 0.042594789 0.12723204 1.2041234 0);
    }
    top
    {
        type            calculated;
        value           nonuniform List<scalar> 10(9.5020544e-07 5.0298248e-06 2.4737498e-05 0.00012351056 0.00034720169 0.0016616094 0.042594789 0.12723204 1.2041234 0);
    }
    frontAndBack
    {
        type            empty;
    }
}


// ************************************************************************* //
