/*--------------------------------*- C++ -*----------------------------------*\
  =========                 |
  \\      /  F ield         | OpenFOAM: The Open Source CFD Toolbox
   \\    /   O peration     | Website:  https://openfoam.org
    \\  /    A nd           | Version:  9
     \\/     M anipulation  |
\*---------------------------------------------------------------------------*/
FoamFile
{
    format      ascii;
    class       volScalarField;
    location    "9";
    object      p;
}
// * * * * * * * * * * * * * * * * * * * * * * * * * * * * * * * * * * * * * //

dimensions      [1 -1 -2 0 0 0 0];

internalField   nonuniform List<scalar> 
5250
(
1.00001
1.00004
1.00011
1.00029
1.00069
1.00182
1.00416
1.01114
1.02549
1.06761
1.16319
1.43512
2.18727
4.44024
10.3679
11.2299
11.1009
11.0816
11.1729
11.3975
11.6146
11.7542
11.864
11.9507
12.0176
1.00001
1.00004
1.00011
1.00028
1.0007
1.00175
1.00423
1.01077
1.02572
1.06593
1.16281
1.42828
2.17465
4.39623
10.2817
11.2245
11.0957
11.0732
11.1643
11.3886
11.6052
11.7453
11.8568
11.9448
12.0132
1.00001
1.00003
1.00011
1.00026
1.00072
1.00161
1.00439
1.00989
1.02652
1.06202
1.16227
1.41412
2.1479
4.30233
10.0888
11.2117
11.0807
11.0459
11.1342
11.3541
11.5676
11.7057
11.8163
11.9035
11.9716
1.00001
1.00003
1.00011
1.00025
1.00069
1.00156
1.00423
1.00956
1.02554
1.0599
1.1563
1.39852
2.10218
4.164
9.7848
11.1979
11.0595
10.9999
11.0827
11.2937
11.5017
11.6352
11.7423
11.8268
11.8952
1.00001
1.00003
1.0001
1.00025
1.00062
1.00159
1.00374
1.00979
1.02277
1.05965
1.14465
1.38212
2.03733
3.9836
9.36333
11.1885
11.0345
10.9366
11.0119
11.2105
11.4108
11.5374
11.6387
11.7195
11.789
1.00001
1.00003
1.00009
1.00025
1.00056
1.00153
1.00343
1.00929
1.02113
1.05615
1.13448
1.35682
1.96104
3.75746
8.81378
11.1911
11.0087
10.8558
10.9212
11.1027
11.2917
11.407
11.4978
11.5706
11.6403
1.00001
1.00003
1.00008
1.00022
1.00053
1.00138
1.00318
1.00849
1.01937
1.05156
1.12307
1.32549
1.87177
3.48967
8.12608
11.208
10.9846
10.758
10.811
10.9699
11.1421
11.2392
11.3112
11.3666
11.4302
1
1.00003
1.00008
1.00019
1.0005
1.00116
1.00309
1.00701
1.01885
1.04344
1.1144
1.28479
1.77498
3.18284
7.29997
11.2434
10.9626
10.6441
10.6819
10.8109
10.9587
11.0277
11.0673
11.0859
11.1233
1
1.00002
1.00006
1.00018
1.00041
1.00109
1.00254
1.00655
1.01574
1.03943
1.09789
1.24991
1.66376
2.86041
6.36912
11.2505
10.9331
10.5214
10.5375
10.6255
10.7384
10.7653
10.7523
10.6963
10.6443
1
1.00002
1.00006
1.00015
1.00037
1.00093
1.0022
1.00571
1.0132
1.03478
1.08211
1.21417
1.55477
2.53823
5.38101
11.1428
10.8504
10.4015
10.3712
10.4166
10.4755
10.4527
10.358
10.1399
9.821
1
1.00002
1.00005
1.00013
1.00031
1.00082
1.00192
1.00492
1.01183
1.02947
1.07302
1.18412
1.48007
2.32234
4.78968
10.6455
10.5907
10.301
10.1736
10.1841
10.1758
10.0933
9.84927
9.28496
7.85119
1
1.00001
1.00004
1.00011
1.00029
1.00069
1.00171
1.00427
1.01015
1.02609
1.06256
1.16059
1.41294
2.13377
4.23122
9.64443
10.3118
10.1622
9.97678
9.9417
9.87342
9.70457
9.326
8.56762
7.11142
1
1.00001
1.00004
1.00009
1.00025
1.00058
1.00152
1.00346
1.00927
1.02104
1.05625
1.13359
1.35508
1.95124
3.7067
8.47778
10.1472
10.0397
9.80848
9.70026
9.5809
9.33703
8.86863
8.11151
6.98337
1
1.00001
1.00003
1.00008
1.00019
1.00052
1.00118
1.00316
1.00712
1.0192
1.04408
1.11625
1.28832
1.78438
3.19336
7.1771
10.0479
9.94038
9.67083
9.47307
9.29916
9.01233
8.53788
7.85216
6.96952
1
1.00001
1.00003
1.00006
1.00017
1.00039
1.00105
1.00236
1.00631
1.01445
1.03781
1.09038
1.23465
1.61238
2.69993
5.77746
9.89858
9.82945
9.56683
9.26946
9.04411
8.74297
8.29406
7.68475
6.94715
1
1.00001
1.00002
1.00005
1.00013
1.00033
1.00078
1.00203
1.00463
1.01231
1.02814
1.07384
1.17856
1.47155
2.27075
4.52825
9.46799
9.64901
9.46047
9.09342
8.8243
8.51999
8.10141
7.55639
6.91579
1
1.00001
1.00002
1.00004
1.00011
1.00025
1.00066
1.00151
1.00402
1.00905
1.02429
1.05586
1.1471
1.36768
2.0058
3.79962
8.39981
9.38918
9.26104
8.95277
8.64064
8.33104
7.94114
7.45079
6.88517
1
1
1.00001
1.00003
1.00009
1.0002
1.00052
1.00121
1.00309
1.00746
1.01837
1.04571
1.11306
1.28932
1.77129
3.14116
6.85932
9.14592
9.07851
8.8469
8.49561
8.17205
7.80512
7.36253
6.85969
1
1
1.00001
1.00003
1.00006
1.00016
1.00037
1.001
1.00223
1.00599
1.01343
1.03598
1.08362
1.21942
1.5634
2.54386
5.22723
8.87187
8.93732
8.77313
8.40985
8.04723
7.6917
7.29015
6.8415
1
1
1.00001
1.00002
1.00005
1.00011
1.0003
1.00068
1.00183
1.00409
1.01093
1.02478
1.0653
1.15568
1.4095
2.08427
3.94948
8.19664
8.80065
8.6664
8.33958
7.94896
7.60055
7.234
6.83471
1
1
1.00001
1.00002
1.00003
1.00009
1.00021
1.00056
1.00126
1.00333
1.00763
1.0198
1.04677
1.11945
1.29923
1.79967
3.18438
6.782
8.55436
8.49505
8.27775
7.88018
7.53261
7.19405
6.83736
1
1
1
1.00001
1.00003
1.00006
1.00017
1.00038
1.00097
1.00236
1.00569
1.01432
1.03416
1.08674
1.21476
1.56333
2.51648
5.07947
8.2173
8.34694
8.20781
7.87563
7.50244
7.17739
6.84934
1
1
1
1.00001
1.00002
1.00005
1.00012
1.00028
1.00068
1.00172
1.00397
1.01037
1.02372
1.06184
1.14777
1.38455
2.00741
3.6861
7.46302
8.22034
8.12449
7.86699
7.50535
7.18343
6.88039
1
1
1
1.00001
1.00001
1.00003
1.00008
1.0002
1.00051
1.00115
1.00303
1.00685
1.01816
1.04148
1.10877
1.26476
1.70645
2.88948
5.94717
7.99541
7.9853
7.84854
7.5331
7.21131
6.94653
1
1
1
1
1.00001
1.00002
1.00005
1.00015
1.00033
1.00086
1.00194
1.0051
1.01168
1.03004
1.07122
1.18138
1.45878
2.21006
4.14538
7.53036
7.92645
7.8323
7.5958
7.28609
7.07501
1
1
1
1
1.00001
1.00002
1.00004
1.00009
1.00024
1.00056
1.00141
1.00344
1.00819
1.02073
1.04902
1.1248
1.31014
1.81753
3.1664
6.44321
7.78571
7.7783
7.67596
7.44595
7.28307
1
1
1
1
1
1.00001
1.00003
1.00007
1.00016
1.00041
1.00093
1.00241
1.00557
1.01419
1.03373
1.08462
1.2089
1.5427
2.43027
4.7287
7.44197
7.77413
7.74448
7.65506
7.60362
1
1
1
1
1
1.00001
1.00002
1.00005
1.0001
1.00028
1.00062
1.00164
1.0037
1.00964
1.02225
1.0567
1.13656
1.35015
1.90412
3.35592
6.63997
7.72652
7.89345
7.92699
7.99759
1
1
1
1
1
1.00001
1.00001
1.00003
1.00007
1.00018
1.00042
1.00111
1.00249
1.00658
1.01473
1.03913
1.09025
1.23524
1.59504
2.57864
5.05526
7.53082
8.16439
8.36875
8.57712
1
1
1
1
1
1
1.00001
1.00002
1.00005
1.00012
1.0003
1.0007
1.00174
1.00424
1.01011
1.02537
1.06044
1.15219
1.38173
1.99199
3.55677
6.9819
8.50594
9.01738
9.30689
1
1
1
1
1
1
1.00001
1.00001
1.00004
1.00008
1.00021
1.00047
1.00125
1.00281
1.00734
1.01693
1.04321
1.10399
1.26547
1.68531
2.83015
5.74462
8.85093
9.86371
10.0852
1
1
1
1
1
1
1
1.00001
1.00003
1.00006
1.00015
1.00034
1.00086
1.00208
1.00501
1.01256
1.02978
1.07543
1.18454
1.47815
2.2638
4.35332
8.87253
10.7755
10.8056
1
1
1
1
1
1
1
1.00001
1.00002
1.00004
1.00011
1.00026
1.00068
1.00155
1.00408
1.00949
1.02424
1.05873
1.14867
1.38071
2.03185
3.88331
8.65177
11.4727
11.4045
1
1
1
1
1
1
1
1.00001
1.00002
1.00003
1.00009
1.00021
1.00056
1.0013
1.00335
1.00806
1.02013
1.05011
1.12549
1.32463
1.88194
3.5211
8.13122
11.9926
11.7733
1
1
1
1
1
1
1
1.00001
1.00001
1.00003
1.00007
1.0002
1.00045
1.00122
1.00275
1.00745
1.01705
1.04553
1.10934
1.29059
1.77978
3.25854
7.63559
12.3906
11.9349
1
1
1
1
1
1
1
1
1.00001
1.00003
1.00007
1.00016
1.00044
1.00101
1.00272
1.00624
1.01672
1.03945
1.10324
1.26167
1.71631
3.06842
7.21577
12.6099
11.8905
1
1
1
1
1
1
1
1
1.00001
1.00003
1.00007
1.00015
1.00041
1.00093
1.00254
1.00577
1.01566
1.03636
1.09682
1.24158
1.6634
2.90562
6.76414
12.7001
11.8036
1
1
1
1
1
1
1
1
1.00001
1.00003
1.00006
1.00016
1.00036
1.00097
1.00221
1.006
1.01359
1.03695
1.08704
1.23204
1.61263
2.75929
6.28304
12.6929
11.7507
1
1
1
1
1
1
1
1
1.00001
1.00002
1.00006
1.00015
1.00036
1.00092
1.00214
1.00574
1.01306
1.03537
1.08338
1.22129
1.58163
2.65491
5.91218
12.5979
11.7179
1
1
1
1
1
1
1
1
1.00001
1.00002
1.00005
1.00015
1.00034
1.0009
1.0021
1.0054
1.01318
1.03289
1.08262
1.21062
1.56012
2.57911
5.67103
12.3628
11.6607
1
1
1
1
1
1
1
1
1.00001
1.00002
1.00006
1.00013
1.00036
1.00081
1.00218
1.00497
1.01332
1.03107
1.08152
1.20171
1.54306
2.51667
5.47403
12.1225
11.5939
1
1
1
1
1
1
1
1
1.00001
1.00002
1.00005
1.00014
1.00032
1.00086
1.00196
1.00529
1.01196
1.0324
1.07583
1.20061
1.52164
2.46706
5.30396
11.8918
11.5102
1
1
1
1
1
1
1
1
1.00001
1.00002
1.00005
1.00013
1.00034
1.00078
1.00208
1.00474
1.01277
1.02931
1.07813
1.19013
1.51226
2.41899
5.15834
11.6704
11.4056
1
1
1
1
1
1
1
1
1.00001
1.00002
1.00005
1.00014
1.00031
1.00082
1.00191
1.00495
1.01192
1.02991
1.07441
1.18897
1.49653
2.38253
5.03387
11.4675
11.3035
1
1
1
1
1
1
1
1
1.00001
1.00002
1.00005
1.00013
1.0003
1.00081
1.00188
1.00485
1.01175
1.02929
1.0731
1.18504
1.4858
2.34994
4.93141
11.2907
11.211
1
1
1
1
1
1
1
1
1.00001
1.00002
1.00005
1.00012
1.00033
1.00074
1.00199
1.0045
1.01211
1.02786
1.07355
1.17921
1.47918
2.32102
4.84974
11.1475
11.1321
1
1
1
1
1
1
1
1
1.00001
1.00002
1.00005
1.00013
1.0003
1.00077
1.0019
1.00456
1.01171
1.02783
1.07176
1.17757
1.46956
2.29907
4.78311
11.0259
11.0967
1
1
1
1
1
1
1
1
1.00001
1.00002
1.00005
1.00012
1.00032
1.00073
1.0019
1.00455
1.01136
1.0282
1.06974
1.17685
1.46293
2.28166
4.73015
10.9271
11.0822
1
1
1
1
1
1
1
1
1.00001
1.00002
1.00005
1.00013
1.00029
1.00078
1.00177
1.00478
1.01077
1.02906
1.06758
1.17798
1.45645
2.27277
4.69264
10.855
11.0792
1
1
1
1
1
1
1
1
1.00001
1.00002
1.00005
1.00012
1.0003
1.00076
1.0018
1.00469
1.01085
1.0287
1.06771
1.17683
1.45525
2.26704
4.67416
10.8181
11.0785
3.7887
3.27547
4.26732
4.29235
4.0549
3.96214
3.91366
3.82975
3.73002
3.6426
3.5726
3.5079
3.46407
3.44579
3.44181
3.46095
3.5097
3.58076
3.66641
3.75807
3.85116
3.9432
4.03329
4.12097
4.20604
4.28854
4.36808
4.4447
4.51855
4.5891
4.65501
4.71499
4.7693
4.8181
4.86168
4.89989
4.93326
4.96398
4.98926
5.00728
5.01972
5.02735
5.03032
5.02954
5.02575
5.01689
5.00313
4.98637
4.96699
4.94466
4.91972
4.89206
4.86218
4.82996
4.79574
4.75948
4.72143
4.68161
4.64024
4.59729
4.55304
4.50744
4.46076
4.41293
4.36422
4.31458
4.26425
4.21323
4.16168
4.1097
4.0574
4.0049
3.95232
3.89978
3.8474
3.79527
3.7435
3.69216
3.64133
3.59106
3.54142
3.49243
3.44415
3.3966
3.3498
3.3038
3.25863
3.21433
3.17092
3.12849
3.0871
3.04682
3.00778
2.97028
2.93454
2.90098
2.87019
2.8431
2.82083
2.80647
4.69812
4.22546
4.37175
4.25188
4.02689
3.99018
3.96663
3.84632
3.7223
3.62017
3.5514
3.50578
3.46435
3.44317
3.43764
3.45479
3.50209
3.57335
3.66052
3.75301
3.84635
3.93822
4.02791
4.11515
4.19973
4.28168
4.36064
4.43625
4.50981
4.58089
4.6474
4.70769
4.76248
4.81158
4.85541
4.89395
4.92788
4.95798
4.98303
5.00157
5.01442
5.02218
5.02527
5.02468
5.02165
5.01376
4.99914
4.98206
4.96278
4.94075
4.91591
4.88843
4.85855
4.82641
4.79221
4.75602
4.71801
4.67825
4.63692
4.59406
4.54986
4.50436
4.45773
4.41002
4.36137
4.31186
4.2616
4.2107
4.15926
4.10738
4.0552
4.00281
3.95034
3.89792
3.84564
3.79362
3.74195
3.69071
3.63997
3.58979
3.54021
3.4913
3.44306
3.39556
3.34877
3.30283
3.25772
3.21343
3.16999
3.12759
3.08625
3.04602
3.00711
2.9696
2.93384
2.90022
2.86933
2.84206
2.81946
2.80492
5.51717
4.79683
4.53604
4.28971
4.06977
3.99246
3.91668
3.81817
3.71146
3.61928
3.55581
3.50985
3.46553
3.43148
3.41861
3.44165
3.49229
3.56161
3.64983
3.74156
3.8356
3.92801
4.01803
4.10581
4.19109
4.27376
4.3536
4.43039
4.5045
4.57532
4.64167
4.70219
4.75711
4.8064
4.85038
4.88915
4.9231
4.95262
4.97721
4.99593
5.00893
5.01672
5.0196
5.01908
5.01653
5.00971
4.99561
4.9774
4.95751
4.9355
4.91082
4.88343
4.85355
4.82139
4.78715
4.75094
4.71291
4.67315
4.63181
4.58899
4.54482
4.49939
4.45282
4.40521
4.35666
4.30726
4.25712
4.20635
4.15504
4.10332
4.05128
3.99907
3.94677
3.89453
3.84242
3.79059
3.73907
3.68801
3.6374
3.58737
3.53791
3.48911
3.44099
3.39359
3.34679
3.301
3.25604
3.21191
3.16875
3.1264
3.08511
3.04494
3.00606
2.9686
2.93286
2.8992
2.86821
2.84075
2.81772
2.80294
5.87959
5.10103
4.65983
4.37142
4.15318
4.01814
3.9251
3.82579
3.72268
3.62965
3.56123
3.50662
3.46686
3.44292
3.43791
3.45043
3.49098
3.56238
3.6465
3.73597
3.82831
3.92031
4.01052
4.09861
4.18414
4.26697
4.34677
4.42339
4.49687
4.56688
4.63265
4.693
4.74781
4.79699
4.84082
4.87943
4.91312
4.94213
4.96623
4.98491
4.99806
5.00593
5.00872
5.00825
5.00609
5.00027
4.98772
4.96862
4.9479
4.92564
4.90112
4.87394
4.84423
4.81216
4.77799
4.74183
4.70387
4.6642
4.62296
4.58027
4.53624
4.49096
4.44457
4.39714
4.34879
4.2996
4.24968
4.19913
4.14807
4.09657
4.0448
3.99283
3.94081
3.88884
3.83703
3.78547
3.73425
3.68345
3.63312
3.58333
3.53412
3.48547
3.43759
3.39041
3.34418
3.29842
3.25355
3.2095
3.16644
3.12424
3.08313
3.0431
3.00438
2.96705
2.93145
2.89788
2.8669
2.83936
2.81599
2.801
6.06315
5.32145
4.81971
4.48775
4.25278
4.08308
3.96678
3.86631
3.76986
3.68563
3.62276
3.57364
3.53617
3.50865
3.49576
3.49966
3.51997
3.56893
3.64629
3.7307
3.81998
3.91148
4.0026
4.09167
4.17797
4.26121
4.34102
4.41735
4.49004
4.55906
4.62372
4.68337
4.73754
4.78627
4.82955
4.8677
4.90084
4.92923
4.95277
4.97124
4.98441
4.99239
4.99511
4.99468
4.99277
4.9877
4.97667
4.95764
4.93629
4.91352
4.88888
4.86183
4.8323
4.8004
4.76633
4.73027
4.6924
4.65284
4.61173
4.56918
4.52531
4.48023
4.43405
4.38684
4.33874
4.2898
4.24016
4.18989
4.13911
4.08793
4.03647
3.98485
3.93317
3.88157
3.83012
3.77893
3.72809
3.67765
3.6276
3.57812
3.52925
3.48109
3.43351
3.38662
3.34048
3.29504
3.25039
3.20658
3.1637
3.12177
3.08089
3.04113
3.00265
2.96562
2.9303
2.89703
2.86626
2.83891
2.81543
2.80038
6.17778
5.50552
4.99416
4.62987
4.37205
4.18646
4.05514
3.95616
3.87442
3.80859
3.75738
3.71604
3.67881
3.64432
3.61761
3.60299
3.60417
3.61613
3.65072
3.72175
3.80407
3.89841
3.99406
4.08639
4.17482
4.25843
4.33738
4.41188
4.48246
4.54928
4.612
4.67029
4.72355
4.77153
4.81418
4.8517
4.88423
4.91198
4.93498
4.95311
4.96623
4.9743
4.97709
4.9767
4.975
4.97052
4.9608
4.94261
4.92119
4.89799
4.87304
4.84598
4.81661
4.78493
4.75107
4.7152
4.6775
4.63811
4.59719
4.55486
4.51122
4.46639
4.42048
4.37356
4.32576
4.27715
4.22782
4.1779
4.12746
4.07666
4.02557
3.97437
3.92309
3.87195
3.82092
3.77015
3.71976
3.6699
3.62048
3.57159
3.52319
3.47538
3.42814
3.38156
3.33568
3.29054
3.24621
3.2027
3.16013
3.11851
3.07799
3.03862
3.00058
2.96402
2.92923
2.89653
2.86633
2.83953
2.81638
2.80184
6.25606
5.65652
5.16179
4.78538
4.50922
4.31285
4.17699
4.08856
4.02968
3.98869
3.95693
3.92633
3.89107
3.84881
3.80001
3.75031
3.7085
3.69208
3.69869
3.72431
3.78298
3.8713
3.97379
4.07379
4.16716
4.25286
4.33176
4.40451
4.47297
4.53747
4.59815
4.65471
4.70675
4.75375
4.79565
4.83252
4.86441
4.89152
4.91396
4.93168
4.94463
4.95273
4.9556
4.95525
4.95371
4.94967
4.94094
4.92397
4.90307
4.87976
4.85451
4.82729
4.79798
4.76649
4.73289
4.69728
4.65983
4.62069
4.58004
4.53797
4.49463
4.45011
4.40454
4.35797
4.31054
4.2623
4.21337
4.16385
4.11384
4.06347
4.01284
3.96214
3.91134
3.86075
3.8104
3.7605
3.71079
3.6615
3.61258
3.56413
3.51613
3.46868
3.42182
3.37559
3.33009
3.28531
3.24138
3.19827
3.15614
3.11498
3.07497
3.03616
2.99878
2.96296
2.92903
2.8972
2.86791
2.84224
2.82006
2.80686
6.31343
5.78032
5.31611
4.94469
4.66439
4.46582
4.33622
4.26743
4.23827
4.22549
4.21527
4.19744
4.16513
4.11187
4.02925
3.93242
3.84297
3.78165
3.76378
3.77062
3.79538
3.85243
3.9443
4.04814
4.14862
4.23988
4.32144
4.39453
4.46145
4.52366
4.58195
4.63635
4.68671
4.73253
4.77354
4.80973
4.84095
4.86747
4.88939
4.90683
4.91965
4.92786
4.93078
4.93043
4.92894
4.92514
4.91698
4.90131
4.88132
4.85829
4.83292
4.8055
4.77611
4.74472
4.71134
4.67601
4.63889
4.60006
4.55974
4.51799
4.47501
4.43084
4.38566
4.33949
4.29247
4.24465
4.19616
4.14708
4.09754
4.04769
3.99758
3.94748
3.89753
3.84779
3.79823
3.74898
3.69993
3.6512
3.6028
3.55485
3.50735
3.46039
3.41403
3.36828
3.32328
3.27898
3.23557
3.19298
3.15144
3.1109
3.07162
3.0336
2.99716
2.96243
2.92968
2.8992
2.87151
2.84782
2.8275
2.81676
6.36091
5.88661
5.46057
5.10867
4.84012
4.65392
4.54702
4.51197
4.51372
4.5211
4.52063
4.51253
4.48456
4.41864
4.28455
4.12988
3.99491
3.8974
3.84417
3.83965
3.84749
3.87282
3.92959
4.01773
4.11412
4.20952
4.29647
4.37334
4.44185
4.50383
4.56074
4.61332
4.66192
4.70643
4.74654
4.78217
4.81275
4.83891
4.86047
4.87767
4.89027
4.8986
4.90164
4.90133
4.89995
4.89642
4.88888
4.8745
4.85573
4.83347
4.8084
4.78101
4.75161
4.72029
4.68712
4.6521
4.61534
4.57691
4.53699
4.49566
4.4531
4.40938
4.36463
4.31892
4.27234
4.225
4.17696
4.12838
4.07933
4.03008
3.9808
3.93164
3.88255
3.83364
3.7848
3.7362
3.68777
3.63966
3.59186
3.54449
3.49758
3.45118
3.40539
3.3602
3.31576
3.27205
3.22925
3.18733
3.14652
3.10679
3.06845
3.03152
2.99639
2.96308
2.93192
2.9035
2.87828
2.85754
2.8401
2.8329
6.40718
5.98596
5.60328
5.28421
5.04501
4.88978
4.82629
4.82875
4.84196
4.87158
4.87059
4.85805
4.81571
4.71574
4.52217
4.32857
4.16536
4.04349
3.96461
3.92695
3.92732
3.9343
3.95612
4.00517
4.08222
4.16617
4.25317
4.33472
4.40847
4.47404
4.53235
4.58479
4.6324
4.67577
4.71493
4.74981
4.78015
4.80599
4.82746
4.84457
4.85729
4.86583
4.86923
4.86895
4.86767
4.86439
4.85739
4.84414
4.82661
4.80537
4.78094
4.75386
4.72457
4.69333
4.66031
4.62554
4.58914
4.55112
4.51166
4.47081
4.42873
4.3855
4.34124
4.29601
4.24992
4.20305
4.1555
4.10748
4.0592
4.0109
3.96255
3.91428
3.86599
3.81782
3.76968
3.72177
3.67403
3.6266
3.57949
3.53279
3.48654
3.44081
3.39568
3.35116
3.30743
3.26444
3.22242
3.18134
3.14147
3.10282
3.06572
3.03026
2.9968
2.96528
2.93647
2.9109
2.8891
2.87234
2.85918
2.85625
6.45805
6.08866
5.75694
5.48613
5.29487
5.19016
5.18354
5.19426
5.22325
5.25016
5.24247
5.20967
5.126
4.95303
4.73325
4.5268
4.35404
4.21875
4.12002
4.05557
4.02266
4.0159
4.01988
4.03499
4.07072
4.135
4.20071
4.27822
4.3559
4.42742
4.49073
4.54629
4.59527
4.63878
4.67751
4.71182
4.74183
4.76755
4.78915
4.80644
4.81958
4.82862
4.83267
4.83244
4.8313
4.82833
4.82198
4.80978
4.79348
4.77344
4.75001
4.72361
4.69473
4.66374
4.63095
4.59645
4.56041
4.52285
4.48389
4.44357
4.40205
4.35937
4.31564
4.27093
4.22535
4.17896
4.13206
4.08492
4.03762
3.99026
3.94278
3.89531
3.8478
3.80038
3.75302
3.70586
3.65888
3.61219
3.56583
3.51986
3.47437
3.42936
3.385
3.34126
3.29834
3.25622
3.21516
3.17513
3.13647
3.09921
3.06375
3.03029
2.99881
2.96994
2.94443
2.92278
2.90582
2.89426
2.88757
2.88791
6.52019
6.20895
5.93869
5.73268
5.60658
5.57219
5.58042
5.60493
5.63864
5.63396
5.60645
5.53003
5.36818
5.14713
4.92677
4.72672
4.5565
4.41484
4.30093
4.21391
4.15214
4.11441
4.09525
4.09629
4.10403
4.12618
4.17294
4.22415
4.29125
4.36325
4.43168
4.49303
4.54658
4.59287
4.6329
4.66758
4.69762
4.72343
4.74527
4.76317
4.77695
4.78678
4.79191
4.7918
4.79092
4.78842
4.78293
4.77186
4.75675
4.73797
4.71574
4.69032
4.66217
4.63168
4.59926
4.56511
4.52946
4.49235
4.45391
4.41416
4.37323
4.33113
4.28796
4.24378
4.19871
4.1531
4.10712
4.06095
4.01457
3.96808
3.92144
3.87479
3.8281
3.7815
3.73497
3.68863
3.64248
3.59661
3.55108
3.50592
3.46126
3.41711
3.37363
3.33081
3.28888
3.24784
3.20795
3.16929
3.13216
3.09674
3.06349
3.03213
3.00349
2.97826
2.95709
2.94067
2.93021
2.9251
2.92538
2.92729
6.60742
6.36436
6.17045
6.04448
5.99468
5.99925
6.01576
6.04491
6.04005
6.01109
5.93176
5.76611
5.5476
5.32601
5.11968
4.9343
4.76768
4.62182
4.49619
4.39048
4.30493
4.23947
4.19325
4.16482
4.15544
4.15832
4.17038
4.19923
4.23991
4.29386
4.35887
4.42352
4.48237
4.53379
4.57771
4.61488
4.64633
4.673
4.69554
4.71414
4.72898
4.73946
4.74604
4.74668
4.74605
4.74402
4.73938
4.72994
4.71609
4.69863
4.67773
4.65354
4.62642
4.59674
4.56495
4.53132
4.49615
4.45955
4.42166
4.3825
4.34218
4.30068
4.25806
4.21447
4.17023
4.12558
4.08059
4.03536
3.98988
3.94427
3.8985
3.85272
3.80691
3.76117
3.71553
3.67005
3.6248
3.5798
3.53517
3.49093
3.4472
3.40402
3.36154
3.31983
3.27906
3.23935
3.20093
3.16399
3.12885
3.09591
3.06504
3.03675
3.01206
2.99164
2.97617
2.96686
2.96457
2.96565
2.96931
2.97886
6.73974
6.57887
6.47476
6.43291
6.43747
6.45365
6.47269
6.4652
6.42976
6.33811
6.1531
5.93502
5.71494
5.50804
5.31768
5.14263
4.98076
4.83221
4.69739
4.57681
4.47195
4.38363
4.31262
4.25845
4.22198
4.19994
4.19942
4.20376
4.21816
4.2479
4.28878
4.34595
4.40425
4.45938
4.50836
4.55023
4.58542
4.6148
4.63918
4.65912
4.67508
4.68664
4.69451
4.69693
4.6965
4.69494
4.69127
4.68368
4.67132
4.65529
4.63584
4.61308
4.58727
4.55872
4.52786
4.49498
4.46048
4.42448
4.38721
4.34866
4.30895
4.26801
4.22604
4.18333
4.14009
4.09645
4.05243
4.00813
3.96358
3.91888
3.87405
3.82918
3.7843
3.73948
3.69477
3.65024
3.60593
3.56191
3.51826
3.47505
3.43238
3.39033
3.34906
3.30865
3.26933
3.23126
3.19473
3.16001
3.12757
3.09735
3.06965
3.04575
3.02624
3.01232
3.00398
3.0042
3.00616
3.01188
3.02471
3.05134
6.94306
6.87289
6.86584
6.87718
6.90668
6.92224
6.91116
6.86576
6.75466
6.54452
6.31682
6.09479
5.88798
5.6969
5.51905
5.35123
5.19151
5.0401
4.89767
4.76547
4.64557
4.53922
4.44776
4.37154
4.31122
4.2661
4.23754
4.22352
4.22471
4.23164
4.24792
4.27967
4.32407
4.37551
4.4257
4.47177
4.51223
4.54639
4.57448
4.59703
4.61481
4.62802
4.63718
4.64189
4.64175
4.64082
4.63826
4.63271
4.62206
4.60758
4.58971
4.56855
4.5443
4.51716
4.48754
4.45572
4.42211
4.38689
4.35033
4.31245
4.27333
4.23306
4.192
4.15031
4.10813
4.0655
4.02249
3.97918
3.93562
3.89189
3.84805
3.80415
3.76026
3.71642
3.67271
3.62919
3.58591
3.54297
3.50042
3.45838
3.41692
3.3762
3.33635
3.29754
3.26002
3.22404
3.18993
3.15818
3.12883
3.10197
3.07898
3.06075
3.04828
3.04249
3.04313
3.04624
3.05467
3.07293
3.10166
3.14404
7.24319
7.25558
7.29682
7.37266
7.39053
7.37585
7.31955
7.18528
6.95184
6.70428
6.47246
6.26163
6.06931
5.89051
5.72078
5.55688
5.3976
5.24233
5.09339
4.9523
4.82095
4.70073
4.59302
4.49861
4.41819
4.35188
4.30031
4.26332
4.24034
4.23255
4.23456
4.2422
4.26028
4.29647
4.33753
4.38292
4.42673
4.46593
4.49914
4.52598
4.54698
4.56288
4.57393
4.58081
4.5824
4.58187
4.58013
4.57611
4.56791
4.55518
4.53904
4.51965
4.49716
4.47171
4.44361
4.41315
4.38069
4.34649
4.3108
4.27366
4.23527
4.19594
4.15593
4.11534
4.07423
4.03267
3.99073
3.94847
3.90597
3.86328
3.82048
3.77761
3.73477
3.69199
3.64937
3.60694
3.56482
3.52306
3.48176
3.44105
3.40102
3.36188
3.32377
3.28696
3.25172
3.2184
3.18756
3.1593
3.13347
3.11174
3.09491
3.08425
3.0811
3.08227
3.08669
3.09781
3.12094
3.15913
3.19825
3.24605
7.62823
7.70179
7.82502
7.87207
7.85616
7.79238
7.63886
7.37529
7.10404
6.85559
6.63493
6.43768
6.2568
6.08574
5.92001
5.75719
5.59651
5.43802
5.28388
5.13584
4.99552
4.86449
4.74388
4.63479
4.53782
4.45354
4.38212
4.32425
4.27979
4.24913
4.23141
4.22771
4.22932
4.2373
4.25627
4.29308
4.3328
4.37368
4.41121
4.44332
4.46939
4.48948
4.5041
4.51344
4.5181
4.51791
4.51686
4.51415
4.50839
4.49763
4.48341
4.46599
4.44546
4.42195
4.39565
4.36684
4.33583
4.3029
4.26827
4.23207
4.19472
4.15654
4.11768
4.07823
4.03826
3.99785
3.95703
3.91592
3.87453
3.83297
3.79128
3.74955
3.70784
3.66622
3.62479
3.58359
3.54275
3.50233
3.46249
3.42332
3.38502
3.34778
3.31184
3.27754
3.24522
3.21551
3.18857
3.16407
3.14367
3.12902
3.11964
3.11972
3.12155
3.12758
3.14185
3.17104
3.2118
3.26039
3.30299
3.3481
8.13996
8.28847
8.36364
8.34942
8.28268
8.11629
7.81965
7.51943
7.24987
7.01459
6.80809
6.62182
6.4478
6.28003
6.11497
5.95105
5.78807
5.62645
5.46809
5.31451
5.16714
5.02762
4.89684
4.77603
4.6656
4.56637
4.47858
4.40268
4.33893
4.28781
4.24927
4.22452
4.21222
4.20569
4.20831
4.21829
4.24054
4.27538
4.31186
4.34755
4.37922
4.4052
4.42503
4.43877
4.44703
4.44914
4.44863
4.4469
4.44294
4.43489
4.42266
4.40728
4.38888
4.36749
4.34325
4.31636
4.28709
4.25572
4.2224
4.1875
4.15152
4.11465
4.07707
4.03886
4.00013
3.96093
3.92133
3.88142
3.84124
3.8009
3.76042
3.71993
3.67946
3.63913
3.59901
3.55921
3.51982
3.48097
3.44282
3.40552
3.36931
3.33443
3.30126
3.27017
3.24179
3.21646
3.19352
3.17485
3.16226
3.15603
3.15669
3.15992
3.16871
3.18762
3.22282
3.26726
3.31624
3.36612
3.40498
3.4415
8.7799
8.88032
8.86682
8.79488
8.61186
8.28373
7.9526
7.65867
7.4058
7.18654
6.99158
6.81163
6.63977
6.47153
6.30453
6.13798
5.97205
5.80711
5.64519
5.48718
5.33436
5.18819
5.04947
4.91927
4.79805
4.68658
4.58506
4.49409
4.41389
4.34498
4.28755
4.24226
4.20977
4.1903
4.17419
4.1726
4.17623
4.18737
4.21105
4.24334
4.27699
4.30783
4.33369
4.3535
4.36698
4.37421
4.37491
4.37416
4.37186
4.36679
4.35683
4.34349
4.32719
4.30801
4.286
4.26129
4.23407
4.20452
4.1729
4.13976
4.1054
4.07005
4.0339
3.99706
3.95968
3.92179
3.88352
3.8449
3.80605
3.76701
3.72787
3.68873
3.64966
3.61078
3.57216
3.53396
3.49627
3.45928
3.42316
3.38815
3.35454
3.32268
3.29305
3.26629
3.24273
3.22176
3.20509
3.19466
3.19218
3.19353
3.19846
3.21071
3.23599
3.27511
3.32258
3.37367
3.42247
3.46576
3.49528
3.52077
9.44144
9.42724
9.34419
9.13246
8.76555
8.40087
8.08176
7.81024
7.57706
7.37114
7.18252
7.0039
6.8302
6.65866
6.4879
6.31777
6.14851
5.98111
5.81541
5.65355
5.49637
5.34489
5.19991
5.06219
4.93238
4.81086
4.69821
4.59471
4.50077
4.41669
4.34288
4.27978
4.22802
4.18846
4.16135
4.13904
4.12541
4.12647
4.13175
4.14469
4.17089
4.19998
4.22926
4.25483
4.27476
4.28845
4.29529
4.29547
4.29461
4.29195
4.28606
4.27494
4.26056
4.24345
4.22369
4.20134
4.17644
4.14913
4.11966
4.08856
4.05609
4.02251
3.98798
3.9527
3.91679
3.88036
3.84351
3.80632
3.7689
3.7313
3.69366
3.65603
3.61855
3.58131
3.54444
3.5081
3.47244
3.43769
3.40407
3.37192
3.34162
3.31366
3.28882
3.26736
3.2484
3.23454
3.22647
3.22687
3.22943
3.23701
3.25371
3.28645
3.32925
3.37893
3.43053
3.47929
3.5201
3.55195
3.56979
3.58537
10.0638
9.95569
9.68952
9.2681
8.86274
8.51602
8.22614
7.97959
7.76256
7.5642
7.37667
7.19518
7.01681
6.84016
6.66468
6.49043
6.31771
6.14713
5.97867
5.81385
5.65315
5.49742
5.34737
5.20362
5.06675
4.93714
4.81534
4.70145
4.59609
4.49928
4.41158
4.33322
4.2649
4.20718
4.16055
4.1271
4.09684
4.07505
4.06934
4.07108
4.07764
4.09254
4.1179
4.14405
4.16888
4.18918
4.20347
4.21067
4.21131
4.21042
4.20758
4.20128
4.18935
4.17422
4.15657
4.13652
4.11405
4.08917
4.0623
4.03363
4.00339
3.97184
3.93918
3.90565
3.87139
3.83657
3.80128
3.76568
3.72983
3.69386
3.65788
3.62198
3.5863
3.55097
3.51616
3.48203
3.44884
3.41683
3.38636
3.35786
3.33187
3.30915
3.29016
3.27364
3.26221
3.25867
3.25984
3.26438
3.27584
3.29965
3.33754
3.38425
3.43584
3.4875
3.53491
3.57388
3.60257
3.62175
3.62919
3.6373
10.6772
10.3393
9.8102
9.33898
8.95772
8.64955
8.39162
8.16517
7.95724
7.76013
7.56923
7.38203
7.1974
7.01486
6.83441
6.65609
6.48008
6.30662
6.13577
5.96823
5.80458
5.6454
5.49123
5.3426
5.19998
5.06375
4.93433
4.81193
4.69684
4.58935
4.48989
4.39879
4.31635
4.24324
4.18005
4.12715
4.08655
4.04963
4.02169
4.00557
4.00482
4.00703
4.01434
4.03038
4.05378
4.07712
4.09761
4.11256
4.12131
4.12253
4.1217
4.11897
4.11283
4.10057
4.08527
4.0674
4.04728
4.025
4.00082
3.97478
3.94706
3.91784
3.88735
3.85581
3.82344
3.79042
3.75691
3.72306
3.68899
3.65484
3.62074
3.58683
3.55325
3.52017
3.48781
3.45639
3.42624
3.39768
3.37123
3.34747
3.32728
3.31075
3.2976
3.28869
3.28904
3.29153
3.29905
3.3155
3.34766
3.39003
3.44005
3.49296
3.54431
3.58988
3.62645
3.6526
3.66874
3.67661
3.67773
3.68029
11.0852
10.4298
9.84441
9.40336
9.07197
8.80573
8.57393
8.35936
8.15345
7.95241
7.755
7.56083
7.36985
7.18197
6.99706
6.81511
6.63611
6.46005
6.28709
6.117
5.95087
5.78885
5.63128
5.47858
5.33116
5.18935
5.05351
4.92389
4.80079
4.68445
4.57516
4.47318
4.3789
4.29268
4.21495
4.14648
4.08801
4.04083
3.99855
3.96338
3.94152
3.93085
3.93123
3.93427
3.94269
3.96011
3.98114
4.00141
4.01722
4.02705
4.02959
4.02896
4.02677
4.02112
4.00991
3.99468
3.97683
3.957
3.93541
3.91209
3.88709
3.86049
3.83246
3.80322
3.77301
3.74205
3.71054
3.67867
3.64661
3.61454
3.5826
3.55099
3.51987
3.48949
3.4601
3.43203
3.40567
3.38157
3.36026
3.34305
3.32934
3.31908
3.31531
3.31667
3.32148
3.33368
3.35858
3.39641
3.44346
3.49592
3.54963
3.6001
3.64372
3.67779
3.70133
3.71494
3.72064
3.72042
3.71914
3.71896
11.1341
10.3988
9.86229
9.49183
9.21477
8.98024
8.76206
8.54964
8.34001
8.13298
7.92911
7.72899
7.53298
7.34094
7.15266
6.9679
6.78642
6.6081
6.43287
6.26063
6.09217
5.92758
5.76704
5.6108
5.45923
5.31262
5.17128
5.03548
4.90549
4.78153
4.66387
4.55276
4.44852
4.35144
4.26201
4.1806
4.10783
4.0441
3.99102
3.94302
3.90219
3.87316
3.85616
3.84986
3.8508
3.85497
3.86488
3.88349
3.90195
3.91807
3.92912
3.93406
3.93374
3.93201
3.92746
3.91792
3.90331
3.886
3.8668
3.84603
3.82374
3.7999
3.7746
3.74799
3.72028
3.6917
3.66251
3.63292
3.60318
3.57348
3.54406
3.51513
3.48695
3.45982
3.43409
3.41021
3.38867
3.37031
3.35598
3.34597
3.33863
3.33911
3.34201
3.35072
3.36912
3.40297
3.4463
3.49714
3.55163
3.60549
3.65466
3.69587
3.72746
3.74842
3.76004
3.76344
3.76289
3.76085
3.75585
3.75286
11.0077
10.3273
9.8995
9.60832
9.37163
9.15186
8.93585
8.72066
8.50687
8.29591
8.08852
7.88529
7.68638
7.49185
7.30131
7.11449
6.93102
6.75072
6.57345
6.39926
6.22804
6.06083
5.89749
5.73808
5.58281
5.43198
5.28582
5.14466
5.00872
4.87826
4.75352
4.63472
4.52211
4.41595
4.31654
4.22424
4.13949
4.06281
3.99473
3.93647
3.88381
3.83793
3.80343
3.78072
3.76706
3.76476
3.76634
3.77176
3.78367
3.80106
3.81741
3.82975
3.83705
3.83735
3.83641
3.83325
3.82615
3.81234
3.79598
3.77767
3.75786
3.73665
3.71411
3.69032
3.66541
3.63957
3.61305
3.58612
3.55907
3.53217
3.50571
3.47999
3.45537
3.43226
3.4111
3.39254
3.37714
3.36668
3.35936
3.35767
3.35943
3.36526
3.37969
3.40823
3.44746
3.49591
3.55
3.60595
3.65958
3.70719
3.74606
3.775
3.79371
3.80358
3.80532
3.80461
3.80231
3.79706
3.78644
3.782
10.8435
10.2772
9.96038
9.72735
9.51103
9.29488
9.07809
8.86217
8.64836
8.43751
8.23045
8.02751
7.82859
7.6335
7.44211
7.25402
7.06903
6.88692
6.70763
6.53106
6.35734
6.18728
6.02108
5.85864
5.69998
5.54538
5.39499
5.24918
5.10813
4.97213
4.84139
4.71612
4.5965
4.48276
4.37513
4.27387
4.17934
4.09193
4.01216
3.94045
3.87799
3.82104
3.77084
3.73186
3.70344
3.68592
3.6768
3.67721
3.67991
3.68694
3.70132
3.71698
3.7305
3.73937
3.74224
3.7417
3.73963
3.73427
3.72332
3.70837
3.69098
3.67212
3.65216
3.63117
3.60919
3.58636
3.56288
3.53904
3.51513
3.49152
3.46857
3.44676
3.42646
3.40838
3.39291
3.38108
3.37399
3.37119
3.3722
3.37667
3.38772
3.41079
3.44662
3.49199
3.54464
3.60132
3.65814
3.71113
3.75694
3.79353
3.82007
3.83709
3.84551
3.84584
3.84501
3.84252
3.83682
3.82717
3.81352
3.80826
10.7629
10.2732
10.0198
9.81673
9.60966
9.39714
9.1844
8.97355
8.76499
8.55893
8.35574
8.1556
7.9585
7.76432
7.57301
7.38431
7.19824
7.01459
6.83347
6.65483