/*--------------------------------*- C++ -*----------------------------------*\
  =========                 |
  \\      /  F ield         | OpenFOAM: The Open Source CFD Toolbox
   \\    /   O peration     | Website:  https://openfoam.org
    \\  /    A nd           | Version:  9
     \\/     M anipulation  |
\*---------------------------------------------------------------------------*/
FoamFile
{
    format      ascii;
    class       surfaceScalarField;
    location    "9";
    object      phi;
}
// * * * * * * * * * * * * * * * * * * * * * * * * * * * * * * * * * * * * * //

dimensions      [1 0 -1 0 0 0 0];

internalField   nonuniform List<scalar> 
10325
(
0.00840002
4.15374e-11
0.0084
7.44624e-10
0.00840004
9.18962e-10
0.00839994
7.08875e-09
0.00840022
9.04749e-09
0.00839916
3.93219e-08
0.00840192
7.20222e-08
0.00839458
2.0982e-07
0.00840926
4.94367e-07
0.0083823
1.21585e-06
0.00841185
3.1851e-06
0.00837105
9.26925e-06
0.00836521
3.00629e-05
0.00822644
0.000123194
0.00763318
0.000587585
0.00702026
0.000613679
0.00641188
0.000608966
0.00578058
0.000631318
0.00511684
0.000663699
0.00440637
0.000710294
0.00363893
0.000767335
0.00281404
0.000824733
0.00193584
0.000878173
0.00100134
0.000934393
0.00100113
0.00840002
4.5366e-11
0.00840003
1.52828e-09
0.00839998
1.92992e-09
0.00840007
1.53086e-08
0.00839991
1.40887e-08
0.00839991
9.88205e-08
0.00840001
8.67296e-08
0.00839853
5.69801e-07
0.00840011
6.4993e-07
0.0083966
3.06596e-06
0.00839247
5.71194e-06
0.00838799
1.98368e-05
0.00835298
6.04664e-05
0.00822696
0.000248257
0.00762688
0.00117861
0.00700911
0.00123188
0.00640969
0.00120896
0.00578376
0.00125727
0.00512258
0.00132483
0.00440547
0.00142721
0.00363011
0.0015426
0.00279669
0.001658
0.00190655
0.00176828
0.000966688
0.00187414
0.00196759
0.00840001
2.33433e-10
0.00840005
1.42785e-09
0.00839992
5.10684e-09
0.00840027
1.4017e-08
0.00839945
3.81173e-08
0.0084014
9.29591e-08
0.00839694
2.41361e-07
0.00840706
5.77281e-07
0.00838553
1.49432e-06
0.00842076
3.69005e-06
0.00836705
9.89733e-06
0.00841034
2.82289e-05
0.00833729
9.22204e-05
0.00823711
0.000366354
0.00764512
0.00175832
0.00702457
0.00185273
0.0064331
0.00180096
0.00581557
0.00187478
0.00515938
0.001981
0.00444498
0.0021414
0.00366708
0.00232039
0.00282799
0.00249693
0.00192665
0.00266962
0.000974235
0.00282644
0.0029416
0.00840001
4.37759e-10
0.00840005
1.32393e-09
0.00839992
8.52194e-09
0.00840025
1.31815e-08
0.00839948
6.25077e-08
0.00840132
9.36368e-08
0.00839711
3.84523e-07
0.00840655
6.30455e-07
0.00838636
2.25102e-06
0.00841942
4.45555e-06
0.00836811
1.38413e-05
0.00841002
3.65662e-05
0.00833902
0.000122492
0.00824829
0.000475028
0.00768025
0.00231373
0.00706352
0.00246993
0.00648244
0.00238262
0.00587632
0.00248086
0.00523027
0.00262694
0.00452406
0.00284749
0.00375163
0.0030927
0.00290891
0.00333952
0.00199535
0.00358306
0.00101471
0.00380701
0.00395607
0.00840002
3.46906e-10
0.00840001
2.38102e-09
0.00840002
8.12658e-09
0.0084
2.33672e-08
0.00840006
5.97919e-08
0.00839959
1.63605e-07
0.0084008
3.6602e-07
0.00839662
1.05366e-06
0.00840468
2.25329e-06
0.00838876
6.5735e-06
0.00840368
1.57927e-05
0.0083783
4.70018e-05
0.00836297
0.000149112
0.00825491
0.000573839
0.00773697
0.00282413
0.00712667
0.00308141
0.00655544
0.00295465
0.0059638
0.00307247
0.0053331
0.00325757
0.00464143
0.00353904
0.00387803
0.00385598
0.00303525
0.00418209
0.0021034
0.00451497
0.0010828
0.00482744
0.00503867
0.00840003
4.81277e-10
0.0084
2.93242e-09
0.00840009
1.01562e-08
0.00839984
2.86484e-08
0.00840047
7.6618e-08
0.00839887
1.82878e-07
0.0084027
4.96842e-07
0.00839385
1.10772e-06
0.00841212
3.10998e-06
0.0083775
7.07046e-06
0.00842077
1.98557e-05
0.00836257
5.42439e-05
0.00837489
0.00017529
0.00827043
0.00065604
0.00783933
0.00325031
0.00722902
0.00369363
0.00666292
0.0035217
0.00608705
0.00364833
0.00547556
0.00386904
0.00480528
0.00420916
0.00405649
0.00460474
0.00321617
0.00502234
0.00226557
0.00546553
0.00118815
0.00590472
0.00622656
0.00840002
3.55158e-10
0.00840001
3.80743e-09
0.00840003
9.09565e-09
0.00839998
3.74272e-08
0.00840012
6.94419e-08
0.00839946
2.47976e-07
0.00840126
4.45095e-07
0.00839589
1.53568e-06
0.00840715
2.86484e-06
0.00838508
9.27299e-06
0.00841159
2.05818e-05
0.00837455
6.32654e-05
0.00837883
0.000192907
0.00830331
0.000715862
0.00802997
0.00351745
0.00739858
0.00432693
0.00682678
0.00409467
0.00626135
0.00421384
0.00567058
0.00445986
0.0050257
0.00485403
0.00429846
0.00533192
0.00346619
0.00585449
0.00249967
0.00643199
0.00135408
0.00705021
0.00758039
0.00840002
5.91803e-10
0.00840003
3.13557e-09
0.0084
1.27303e-08
0.00840006
3.09782e-08
0.00839983
9.57838e-08
0.00840047
2.12978e-07
0.00839847
6.00135e-07
0.00840351
1.36715e-06
0.00839156
3.65245e-06
0.00841249
8.87121e-06
0.00838061
2.35684e-05
0.00840828
6.47845e-05
0.00837329
0.000203308
0.00837013
0.000729866
0.00835914
0.00351569
0.00770515
0.00498345
0.00708434
0.00471667
0.00651628
0.00478211
0.00594478
0.00503152
0.00532369
0.00547508
0.00462338
0.00603239
0.00380978
0.00666803
0.00284234
0.00739947
0.00162753
0.00826495
0.00920763
0.00840003
6.06987e-10
0.00840001
3.14515e-09
0.00840007
1.23826e-08
0.00839992
3.11061e-08
0.00840028
9.18048e-08
0.00839952
2.06783e-07
0.00840114
5.97871e-07
0.00839792
1.26892e-06
0.00840374
3.78427e-06
0.00839338
8.11005e-06
0.00841121
2.38839e-05
0.00838846
6.11529e-05
0.00842265
0.000193377
0.0084636
0.000674961
0.00890234
0.00306892
0.00820752
0.00567972
0.00747474
0.0054505
0.00689792
0.00535938
0.00631681
0.00561304
0.00572423
0.0060678
0.00505287
0.00670392
0.00430161
0.00741922
0.00339111
0.00830989
0.0021069
0.00954907
0.0113142
0.00840003
4.01731e-10
0.00840002
3.096e-09
0.00840002
9.35178e-09
0.00840003
3.03362e-08
0.00840006
7.02297e-08
0.0083999
2.0278e-07
0.00840059
4.3321e-07
0.00839857
1.27729e-06
0.00840467
2.61978e-06
0.00839399
7.87431e-06
0.00841793
1.73341e-05
0.00840912
5.06424e-05
0.00847445
0.000142987
0.0086543
0.000483884
0.00966239
0.00206026
0.00898786
0.00635126
0.00801103
0.00642692
0.00743934
0.00593135
0.006832
0.00622067
0.0062565
0.0066434
0.00565585
0.00730476
0.00500174
0.00807344
0.00415991
0.00915169
0.00294191
0.0107668
0.0142557
0.00840003
4.47486e-10
0.00840002
2.56713e-09
0.00840006
9.26999e-09
0.00839996
2.53271e-08
0.00840022
6.8632e-08
0.0083997
1.62074e-07
0.00840085
4.44032e-07
0.00839884
9.54364e-07
0.00840275
2.78211e-06
0.00839673
5.82778e-06
0.00841161
1.70059e-05
0.00839784
4.09934e-05
0.00844239
0.000123399
0.00851271
0.000399339
0.00892485
0.00164651
0.0089109
0.0063604
0.00855482
0.00678018
0.00788327
0.00660312
0.0073597
0.00674438
0.0068541
0.00714898
0.0063934
0.00776543
0.00589435
0.00857236
0.00544819
0.00959762
0.00538838
0.0108263
0.011364
0.00827916
0.00840003
3.31867e-10
0.00840003
2.60698e-09
0.00840001
7.76814e-09
0.00840008
2.5553e-08
0.00839994
5.75523e-08
0.00840016
1.71453e-07
0.00839996
3.53345e-07
0.0083996
1.07093e-06
0.00840108
2.14994e-06
0.00839818
6.49363e-06
0.00840324
1.40305e-05
0.00840428
4.07838e-05
0.00841129
0.000110146
0.00845078
0.000363404
0.00868989
0.00140236
0.00880738
0.0062364
0.00853608
0.0070507
0.00810126
0.00703785
0.00771737
0.00712824
0.00732762
0.00753863
0.00698308
0.00810995
0.00670605
0.00884937
0.0065945
0.00970882
0.00696882
0.0104513
0.0104742
0.00785712
0.00840003
4.29411e-10
0.00840003
2.03305e-09
0.00840002
8.87144e-09
0.00840004
2.0112e-08
0.00839995
6.56922e-08
0.00840026
1.36553e-07
0.00839927
4.12649e-07
0.00840212
8.57157e-07
0.00839514
2.49322e-06
0.00841132
5.40008e-06
0.00838223
1.52257e-05
0.00842549
3.68588e-05
0.00838631
0.000107802
0.00844566
0.000336493
0.00856995
0.00125682
0.00889725
0.00590502
0.00861948
0.0073289
0.00829187
0.00736586
0.0080072
0.00741315
0.00775486
0.00779076
0.00752769
0.00833672
0.0074142
0.00896233
0.00755778
0.00956527
0.00799713
0.0100111
0.00994605
0.00852342
0.00840003
3.01244e-10
0.00840002
2.40534e-09
0.00840004
6.95009e-09
0.00839999
2.35581e-08
0.00840013
5.26155e-08
0.00839975
1.54725e-07
0.00840082
3.39006e-07
0.00839809
9.43039e-07
0.0084051
2.14608e-06
0.00839039
5.70601e-06
0.00841923
1.38377e-05
0.00837786
3.66181e-05
0.00843155
0.00010033
0.00841503
0.000313413
0.00856596
0.00112381
0.00927608
0.00518169
0.00896648
0.00763943
0.00859549
0.0077374
0.00833248
0.00767639
0.00815742
0.00796543
0.00805175
0.00844236
0.00806803
0.00894563
0.00825341
0.00937858
0.00862734
0.00963694
0.0095101
0.00906143
0.00840003
3.46051e-10
0.00840004
1.81519e-09
0.00840001
7.2474e-09
0.00840009
1.79619e-08
0.0083999
5.37757e-08
0.0084004
1.20629e-07
0.00839936
3.3817e-07
0.00840203
7.60233e-07
0.00839668
2.05654e-06
0.0084094
4.8076e-06
0.00838781
1.26589e-05
0.00842922
3.16928e-05
0.00839407
8.73163e-05
0.00848998
0.00026093
0.00868504
0.000902477
0.0100608
0.00380194
0.00954819
0.00815215
0.00912938
0.00815669
0.0087706
0.00803567
0.00858154
0.00815452
0.00852444
0.00849873
0.00858337
0.00888641
0.00877618
0.00918545
0.0090934
0.00931844
0.00915148
0.00945048
0.00840003
2.18182e-10
0.00840003
1.74534e-09
0.00840003
5.14271e-09
0.00840003
1.70565e-08
0.00840005
3.85663e-08
0.00839999
1.12472e-07
0.00840034
2.41998e-07
0.00839942
6.91928e-07
0.00840276
1.47863e-06
0.00839656
4.16508e-06
0.00841384
9.21509e-06
0.00839792
2.5346e-05
0.00844858
6.29254e-05
0.0085
0.00018567
0.00881927
0.000596933
0.0102252
0.0023845
0.0101338
0.00824149
0.0097719
0.0085181
0.00927033
0.00853681
0.00903768
0.00838746
0.0089743
0.00856196
0.00902812
0.00883189
0.00919108
0.0090213
0.00945148
0.00905712
0.00886449
0.00973712
0.00840003
2.27905e-10
0.00840003
1.29644e-09
0.00840003
4.83969e-09
0.00840004
1.27128e-08
0.00840001
3.60883e-08
0.00840014
8.37783e-08
0.00839979
2.28272e-07
0.00840105
5.10056e-07
0.00839814
1.39189e-06
0.00840688
3.08562e-06
0.00839077
8.46807e-06
0.00842817
1.95716e-05
0.00839105
5.37856e-05
0.00848076
0.000145876
0.00856506
0.000468813
0.00919955
0.00177036
0.0101784
0.00724784
0.00998142
0.00871375
0.00969689
0.00882078
0.00944381
0.00863995
0.00936446
0.00864122
0.00941066
0.00878513
0.0095424
0.00888909
0.00974185
0.0088559
0.00864129
0.00996294
0.00840003
1.9031e-10
0.00840003
1.09842e-09
0.00840002
4.13431e-09
0.00840006
1.08639e-08
0.00839999
3.05183e-08
0.00840017
7.33519e-08
0.00839985
1.89557e-07
0.0084006
4.60072e-07
0.00839951
1.13831e-06
0.00840178
2.86254e-06
0.00839931
6.92031e-06
0.00840801
1.79079e-05
0.00840341
4.51898e-05
0.00844292
0.000125726
0.00850609
0.000385477
0.00889962
0.00138543
0.0102523
0.00588266
0.0102045
0.00876141
0.0100037
0.00902174
0.00977478
0.00886965
0.00969896
0.00871616
0.00973193
0.00875114
0.00983641
0.00878291
0.00998871
0.00870268
0.00847184
0.0101558
0.00840003
1.33098e-10
0.00840003
1.0166e-09
0.00840003
3.05659e-09
0.00840002
9.97517e-09
0.00840007
2.30369e-08
0.00839995
6.55336e-08
0.00840034
1.46703e-07
0.00839948
3.97547e-07
0.00840216
9.11845e-07
0.00839694
2.38688e-06
0.00841176
5.65247e-06
0.00838827
1.4616e-05
0.00843998
3.64174e-05
0.00841294
9.89194e-05
0.00855591
0.000289477
0.00892669
0.000984859
0.0109079
0.00389717
0.0106818
0.00898662
0.0105275
0.00917677
0.0102451
0.00915199
0.0100625
0.00889875
0.0100399
0.00877305
0.0101046
0.00871671
0.0102117
0.00859249
0.00834831
0.0103327
0.00840003
1.28267e-10
0.00840003
6.94766e-10
0.00840003
2.72462e-09
0.00840004
6.83281e-09
0.00840001
2.00254e-08
0.00840012
4.56797e-08
0.0083999
1.24086e-07
0.00840068
2.84275e-07
0.00839915
7.37552e-07
0.00840417
1.74812e-06
0.00839563
4.37657e-06
0.00842075
1.07739e-05
0.00839245
2.69516e-05
0.00847255
7.00045e-05
0.00851399
0.000196941
0.00890124
0.000625814
0.0104085
0.00237655
0.011162
0.00823035
0.0109597
0.00937788
0.01067
0.00944076
0.010435
0.00913314
0.0103465
0.00886004
0.0103652
0.00869665
0.0104311
0.00852457
0.00825828
0.0105154
0.00840003
8.65593e-11
0.00840003
6.083e-10
0.00840003
1.92712e-09
0.00840002
5.95093e-09
0.00840006
1.45129e-08
0.00839998
3.85619e-08
0.00840024
9.26484e-08
0.00839977
2.31986e-07
0.00840116
5.73827e-07
0.00839883
1.37172e-06
0.00840586
3.53256e-06
0.00839535
8.25846e-06
0.0084241
2.18068e-05
0.0084042
5.35494e-05
0.00849383
0.000150301
0.00862248
0.000457755
0.00934907
0.00166713
0.0110718
0.00649205
0.0111444
0.00930353
0.0110046
0.0095791
0.0107499
0.00938665
0.0106355
0.00897299
0.0106129
0.00871595
0.0106418
0.00849224
0.00819731
0.0106984
0.00840003
7.32382e-11
0.00840003
4.39979e-10
0.00840003
1.58463e-09
0.00840004
4.35795e-09
0.00840002
1.17378e-08
0.00840008
2.90768e-08
0.00839999
7.341e-08
0.00840024
1.79192e-07
0.00840005
4.42936e-07
0.00840055
1.09379e-06
0.00840137
2.66287e-06
0.00840188
6.67774e-06
0.00840841
1.64117e-05
0.00842001
4.2261e-05
0.00845258
0.000111581
0.00858821
0.000329377
0.00913325
0.00111565
0.0114009
0.00421294
0.0114939
0.0092072
0.011424
0.00964806
0.0112122
0.00959735
0.0109691
0.00921432
0.0108805
0.00880148
0.010874
0.00849256
0.00818091
0.0108841
0.00840003
4.94018e-11
0.00840003
3.42737e-10
0.00840003
1.13003e-09
0.00840004
3.36374e-09
0.00840003
8.40393e-09
0.00840005
2.23919e-08
0.00840005
5.19996e-08
0.00840009
1.38011e-07
0.0084003
3.1086e-07
0.00840002
8.31835e-07
0.00840252
1.86838e-06
0.00839924
4.98942e-06
0.00841481
1.14077e-05
0.00840861
3.03736e-05
0.00846761
7.50662e-05
0.00856044
0.00021451
0.00902074
0.00066884
0.0107573
0.00246344
0.0118625
0.00809786
0.0117732
0.00973435
0.0115426
0.00982506
0.0112822
0.00947201
0.0111731
0.00890639
0.0111224
0.00853821
0.00820665
0.0110875
0.00840003
4.24931e-11
0.00840003
2.39653e-10
0.00840003
9.0686e-10
0.00840003
2.35744e-09
0.00840003
6.72031e-09
0.00840004
1.55931e-08
0.00840003
4.19551e-08
0.00840014
9.54407e-08
0.00839995
2.52345e-07
0.00840094
5.78836e-07
0.00839921
1.49743e-06
0.00840603
3.52888e-06
0.00839609
8.97605e-06
0.00842939
2.19421e-05
0.00840773
5.67553e-05
0.0085173
0.000151819
0.00867891
0.000462483
0.00952516
0.00163813
0.011703
0.00590031
0.0119208
0.00951249
0.0119165
0.00982537
0.0117159
0.00966886
0.0114598
0.00915688
0.0113603
0.00862942
0.00824853
0.0113045
0.00840003
2.61776e-11
0.00840003
1.85453e-10
0.00840003
5.88463e-10
0.00840003
1.82226e-09
0.00840004
4.40235e-09
0.00840002
1.189e-08
0.00840009
2.78745e-08
0.00839998
7.13409e-08
0.0084004
1.70338e-07
0.00839979
4.20348e-07
0.00840208
1.0363e-06
0.0083991
2.46822e-06
0.00841067
6.29709e-06
0.00839986
1.48596e-05
0.00844803
3.87791e-05
0.00845791
9.81745e-05
0.00867975
0.000282644
0.00937558
0.000913206
0.0119883
0.00327629
0.0124025
0.00909331
0.0122884
0.00993472
0.0120372
0.00991483
0.011787
0.00940031
0.0116322
0.00877303
0.00829572
0.0115655
0.00840003
2.096e-11
0.00840003
1.21527e-10
0.00840003
4.53996e-10
0.00840003
1.19691e-09
0.00840003
3.34098e-09
0.00840005
7.97632e-09
0.00840002
2.05229e-08
0.00840012
4.93142e-08
0.00840002
1.21403e-07
0.00840038
2.99407e-07
0.00840036
7.1081e-07
0.008401
1.81465e-06
0.00840374
4.19612e-06
0.00840469
1.09768e-05
0.00842218
2.57135e-05
0.00844705
6.86896e-05
0.00854693
0.000181924
0.00889336
0.000565259
0.010151
0.00201304
0.0123021
0.00693051
0.0123721
0.00985699
0.0124223
0.0098566
0.0122019
0.00960887
0.0119606
0.008996
0.00835267
0.011876
0.00840003
1.39098e-11
0.00840003
9.01014e-11
0.00840003
3.07657e-10
0.00840003
8.85441e-10
0.00840003
2.28986e-09
0.00840003
5.81152e-09
0.00840006
1.43307e-08
0.00840001
3.5187e-08
0.0084002
8.63934e-08
0.00839995
2.09347e-07
0.00840093
5.1825e-07
0.00839979
1.24306e-06
0.00840456
3.10116e-06
0.00839993
7.46042e-06
0.00842251
1.88447e-05
0.00841671
4.68036e-05
0.00851152
0.000124473
0.00867621
0.000359317
0.00949374
0.0012153
0.012153
0.00424709
0.0126928
0.00930505
0.0125015
0.0100331
0.0124448
0.00964971
0.0122734
0.00914373
0.00845181
0.0121335
0.00840003
9.39011e-12
0.00840003
6.32832e-11
0.00840003
2.07831e-10
0.00840003
6.21328e-10
0.00840003
1.54539e-09
0.00840003
4.04393e-09
0.00840005
9.70783e-09
0.00840002
2.42792e-08
0.00840015
5.87645e-08
0.00839996
1.43015e-07
0.00840075
3.51785e-07
0.00839977
8.40898e-07
0.00840404
2.10443e-06
0.00839921
4.97107e-06
0.00842022
1.26496e-05
0.00840965
3.04621e-05
0.00849285
7.98182e-05
0.00859013
0.000216503
0.00915406
0.000676143
0.0110079
0.00237666
0.0127851
0.00750352
0.0127292
0.0100682
0.0125956
0.00975452
0.0125432
0.00916183
0.00836933
0.0125807
0.00840003
6.32293e-12
0.00840003
4.26431e-11
0.00840003
1.42294e-10
0.00840003
4.19146e-10
0.00840003
1.05569e-09
0.00840003
2.76541e-09
0.00840003
6.53051e-09
0.00840004
1.67927e-08
0.00840007
3.90234e-08
0.00840005
9.99349e-08
0.00840037
2.32858e-07
0.00839994
5.89716e-07
0.00840254
1.39401e-06
0.00839898
3.48454e-06
0.00841546
8.43314e-06
0.00839924
2.09932e-05
0.00846793
5.2841e-05
0.00848859
0.000140195
0.00880085
0.000411513
0.009719
0.00141893
0.0124362
0.0047634
0.0129888
0.00948552
0.0129339
0.00976159
0.0129166
0.00912074
0.00819478
0.0130228
0.00840003
4.27198e-12
0.00840003
2.74104e-11
0.00840003
9.52248e-11
0.00840003
2.68638e-10
0.00840003
7.04132e-10
0.00840003
1.76264e-09
0.00840003
4.33199e-09
0.00840005
1.07094e-08
0.00840002
2.566e-08
0.00840015
6.36461e-08
0.00840005
1.50658e-07
0.00840056
3.77031e-07
0.00840062
8.83137e-07
0.00840196
2.2291e-06
0.00840519
5.21377e-06
0.00841136
1.32683e-05
0.00843202
3.19833e-05
0.00849064
8.3551e-05
0.00866276
0.000228801
0.0093534
0.000725357
0.0115705
0.00252335
0.0131165
0.0078881
0.0133013
0.00950072
0.0133575
0.00897906
0.00794125
0.013539
0.00840003
2.8647e-12
0.00840003
1.73406e-11
0.00840003
6.19085e-11
0.00840003
1.70567e-10
0.00840003
4.57791e-10
0.00840003
1.11425e-09
0.00840003
2.84277e-09
0.00840004
6.67816e-09
0.00840002
1.69098e-08
0.00840013
3.95088e-08
0.00839998
9.94785e-08
0.0084006
2.32471e-07
0.00839981
5.83377e-07
0.00840315
1.37505e-06
0.00839935
3.42661e-06
0.00841539
8.2125e-06
0.00840473
2.05482e-05
0.00846982
5.1534e-05
0.00850749
0.000138251
0.00885716
0.000414421
0.00987153
0.00145611
0.0127771
0.00491195
0.0134108
0.00872206
0.0136938
0.00859881
0.00756129
0.014029
0.00840003
1.67603e-12
0.00840003
1.08657e-11
0.00840003
3.74152e-11
0.00840003
1.065e-10
0.00840003
2.75683e-10
0.00840003
6.94024e-10
0.00840003
1.68691e-09
0.00840004
4.17057e-09
0.00840003
9.84812e-09
0.00840009
2.44865e-08
0.00840003
5.69913e-08
0.00840027
1.42589e-07
0.00840026
3.28735e-07
0.0084009
8.26268e-07
0.00840232
1.90027e-06
0.00840423
4.77613e-06
0.00841475
1.12059e-05
0.00843391
2.83983e-05
0.00849351
7.18578e-05
0.00869794
0.000204321
0.00946487
0.00066251
0.0118482
0.00244354
0.0130455
0.00731637
0.0138088
0.00774646
0.00684848
0.014497
0.00840003
1.03433e-12
0.00840003
6.46855e-12
0.00840003
2.2795e-11
0.00840003
6.3362e-11
0.00840003
1.6805e-10
0.00840003
4.10358e-10
0.00840003
1.0318e-09
0.00840004
2.44032e-09
0.00840002
6.07066e-09
0.00840008
1.42265e-08
0.00839999
3.51571e-08
0.00840031
8.21487e-08
0.00839982
2.0223e-07
0.00840148
4.74378e-07
0.00839913
1.15757e-06
0.00840676
2.73328e-06
0.0083985
6.69359e-06
0.00842844
1.6235e-05
0.00842204
4.12511e-05
0.00853853
0.000112432
0.00879025
0.000349169
0.00983111
0.00133172
0.0117867
0.00508957
0.0131668
0.00633157
0.00585513
0.0141476
0.00840003
7.26438e-13
0.00840003
3.47641e-12
0.00840003
1.49508e-11
0.00840003
3.42363e-11
0.00840003
1.08752e-10
0.00840003
2.25522e-10
0.00840003
6.65099e-10
0.00840004
1.35464e-09
0.00840002
3.87095e-09
0.00840006
8.03497e-09
0.00839999
2.20717e-08
0.00840021
4.82432e-08
0.00839984
1.24261e-07
0.00840081
2.88888e-07
0.00839936
7.00354e-07
0.00840276
1.74001e-06
0.00839867
3.99315e-06
0.00841105
1.04386e-05
0.00840348
2.50769e-05
0.00845241
6.96266e-05
0.0085345
0.00021034
0.00899247
0.000775597
0.0103542
0.00334735
0.0119295
0.00480207
0.00478593
0.0130418
0.00840003
2.77409e-13
0.00840003
2.70014e-12
0.00840003
6.96125e-12
0.00840003
2.62368e-11
0.00840003
5.19209e-11
0.00840003
1.70071e-10
0.00840003
3.11782e-10
0.00840003
1.02953e-09
0.00840004
1.85079e-09
0.00840001
6.02751e-09
0.00840009
1.11423e-08
0.00839991
3.44975e-08
0.00840043
6.86599e-08
0.00839923
1.95848e-07
0.00840238
4.21016e-07
0.00839559
1.11445e-06
0.00841097
2.60236e-06
0.00838307
6.5133e-06
0.00842586
1.64684e-05
0.00838383
4.45849e-05
0.00845808
0.000135073
0.00860642
0.000489476
0.00923311
0.00227657
0.0105179
0.00363328
0.00406278
0.0113384
0.00840003
2.47924e-13
0.00840003
1.32771e-12
0.00840003
5.28223e-12
0.00840003
1.31605e-11
0.00840003
3.79641e-11
0.00840003
8.81794e-11
0.00840003
2.2952e-10
0.00840003
5.44524e-10
0.00840002
1.32387e-09
0.00840005
3.26655e-09
0.00839998
7.74119e-09
0.00840017
1.97065e-08
0.00839971
4.56095e-08
0.00840082
1.18811e-07
0.00839826
2.74973e-07
0.0084042
7.32247e-07
0.00839079
1.6959e-06
0.00841345
4.50543e-06
0.00837406
1.11278e-05
0.00841031
3.15687e-05
0.00837042
9.60039e-05
0.00838813
0.000354272
0.00848998
0.00170278
0.00936987
0.00289257
0.00335134
0.0101841
0.00840003
1.80713e-13
0.00840003
8.72592e-13
0.00840003
3.44084e-12
0.00840003
8.52658e-12
0.00840003
2.61215e-11
0.00840003
5.24086e-11
0.00840003
1.74261e-10
0.00840003
2.81973e-10
0.00840003
1.12435e-09
0.00840004
1.51193e-09
0.00839999
6.89691e-09
0.00840014
8.76763e-09
0.00839971
4.09803e-08
0.00840082
5.54594e-08
0.00839805
2.41371e-07
0.00840457
3.67666e-07
0.00838921
1.42612e-06
0.008417
2.66146e-06
0.00836472
8.69393e-06
0.00841269
2.18107e-05
0.00834764
7.23622e-05
0.00831672
0.000269944
0.00823653
0.00133412
0.00872374
0.00250468
0.00280676
0.00935433
0.00840003
8.53431e-14
0.00840003
7.94713e-13
0.00840003
2.10484e-12
0.00840003
7.62914e-12
0.00840003
1.57094e-11
0.00840003
4.78624e-11
0.00840003
9.90421e-11
0.00840003
2.91233e-10
0.00840003
5.87674e-10
0.00840003
1.7593e-09
0.00840004
3.61742e-09
0.00839997
1.00914e-08
0.00840015
2.30462e-08
0.00839949
5.86078e-08
0.00840119
1.4307e-07
0.00839637
3.48013e-07
0.00840676
9.08954e-07
0.00838373
2.1907e-06
0.00841404
5.96367e-06
0.00836815
1.60931e-05
0.0083878
5.04664e-05
0.00833499
0.000185086
0.00835352
0.000907295
0.00852507
0.00236191
0.00249337
0.00890192
0.00840003
1.3187e-13
0.00840003
2.85852e-13
0.00840003
2.58001e-12
0.00840003
2.82995e-12
0.00840003
1.85211e-11
0.00840003
2.15952e-11
0.00840003
1.05577e-10
0.00840003
1.57441e-10
0.00840003
5.67666e-10
0.00840004
1.14433e-09
0.00840002
2.87774e-09
0.00840001
8.38289e-09
0.00840005
1.50187e-08
0.00839969
5.75183e-08
0.0084007
8.09053e-08
0.00839699
3.87141e-07
0.00840512
4.64774e-07
0.00838621
2.41307e-06
0.00841067
3.54529e-06
0.0083734
1.43088e-05
0.00838802
3.76065e-05
0.0083575
0.000140701
0.00840147
0.000660235
0.00847947
0.00214881
0.00229206
0.00870483
0.00840003
2.28612e-14
0.00840003
6.71076e-13
0.00840003
8.97838e-13
0.00840003
6.49986e-12
0.00840003
6.73346e-12
0.00840003
4.22623e-11
0.00840003
3.15716e-11
0.00840003
2.56846e-10
0.00840004
1.77349e-10
0.00840001
1.47355e-09
0.00840007
1.35634e-09
0.00839994
8.13661e-09
0.00840022
1.09461e-08
0.00839959
4.41208e-08
0.00840064
8.3843e-08
0.00839828
2.37611e-07
0.00840126
6.3611e-07
0.00839328
1.34565e-06
0.00840322
4.28123e-06
0.00837691
9.927e-06
0.00838907
3.30035e-05
0.00836313
0.000114084
0.00833705
0.000534112
0.00842393
0.00190138
0.00210078
0.00861754
0.00840003
6.82721e-14
0.00840003
3.44055e-13
0.00840003
1.30781e-12
0.00840003
3.29759e-12
0.00840003
9.86952e-12
0.00840003
1.89619e-11
0.00840003
7.06827e-11
0.00840003
1.00126e-10
0.00840002
4.85983e-10
0.00840004
5.35221e-10
0.00839999
3.21209e-09
0.00840013
2.4705e-09
0.00839975
2.02283e-08
0.00840067
1.05514e-08
0.00839844
1.21789e-07
0.00840357
8.38394e-08
0.00839153
7.12807e-07
0.00841387
8.18204e-07
0.00837336
3.88544e-06
0.00841676
8.14428e-06
0.00836328
2.80809e-05
0.00837299
9.62565e-05
0.00833348
0.000446674
0.00841051
0.00168565
0.00193881
0.00857749
0.00840003
6.72748e-14
0.00840003
1.95664e-13
0.00840003
1.35687e-12
0.00840003
2.03793e-12
0.00840003
9.57598e-12
0.00840003
1.68493e-11
0.00840003
4.92448e-11
0.00840003
1.36628e-10
0.00840003
2.35923e-10
0.00840003
1.06838e-09
0.00840003
9.46829e-10
0.00839999
7.48225e-09
0.00840009
3.62967e-09
0.00839962
4.99881e-08
0.00840087
1.81357e-08
0.00839709
3.10114e-07
0.00840562
8.35608e-08
0.00838664
1.76832e-06
0.00841334
1.58458e-06
0.00837659
9.09147e-06
0.0083963
2.18301e-05
0.00836524
8.26471e-05
0.00834572
0.000374833
0.00842277
0.00147537
0.00173192
0.00859624
0.00840003
6.72641e-14
0.00840003
1.53982e-13
0.00840003
1.21883e-12
0.00840003
1.54869e-12
0.00840003
8.5405e-12
0.00840003
9.83286e-12
0.00840003
5.64274e-11
0.00840003
5.90728e-11
0.00840003
3.77674e-10
0.00840003
3.20768e-10
0.00840001
2.33914e-09
0.00840007
1.45424e-09
0.00839985
1.40322e-08
0.00840043
1.10028e-08
0.00839871
7.94161e-08
0.00840291
9.88721e-08
0.00839259
4.41247e-07
0.00841306
8.36234e-07
0.00837639
2.49647e-06
0.00841665
6.36787e-06
0.00837255
2.01156e-05
0.00837825
6.92929e-05
0.00835599
0.0003128
0.00843969
0.00126825
0.00149461
0.0086328
0.00840003
2.49979e-14
0.00840003
1.48312e-13
0.00840003
5.25073e-13
0.00840003
1.49113e-12
0.00840003
3.84464e-12
0.00840003
1.00544e-11
0.00840003
2.42972e-11
0.00840003
6.43225e-11
0.00840004
1.56946e-10
0.00840001
4.12116e-10
0.00840007
1.00852e-09
0.00839994
2.74301e-09
0.00840023
6.7435e-09
0.00839959
1.80006e-08
0.00840085
4.38721e-08
0.00839817
1.19827e-07
0.00840249
2.93037e-07
0.00839341
7.90734e-07
0.00840737
2.04754e-06
0.00838103
5.71879e-06
0.00840212
1.74583e-05
0.00836988
5.97055e-05
0.00836562
0.000259396
0.00844718
0.00107151
0.00124657
0.00864355
0.00840003
-3.4067e-14
0.00840003
2.72072e-13
0.00840003
-2.81122e-13
0.00840003
2.63839e-12
0.00840003
-1.3492e-12
0.00840003
1.8267e-11
0.00840003
-9.32929e-12
0.00840003
1.22504e-10
0.00840004
-6.0941e-11
0.00840001
7.58403e-10
0.00840007
-2.93996e-10
0.00839994
4.31075e-09
0.00840022
4.81824e-10
0.00839962
2.44502e-08
0.00840074
2.19478e-08
0.0083984
1.27293e-07
0.00840189
2.5746e-07
0.00839429
6.97939e-07
0.00840609
2.00962e-06
0.00838321
4.80256e-06
0.00840277
1.57e-05
0.00837264
5.16125e-05
0.00836871
0.000213917
0.00844759
0.000891349
0.00098557
0.00865392
0.00840003
5.0134e-14
0.00840003
-5.04269e-14
0.00840003
7.29493e-13
0.00840003
-4.59374e-13
0.00840003
5.07042e-12
0.00840003
-2.89863e-12
0.00840003
3.89677e-11
0.00840003
-2.0923e-11
0.00840003
2.69869e-10
0.00840004
-9.72862e-11
0.00839999
1.62088e-09
0.00840012
-1.07483e-10
0.00839979
9.13611e-09
0.00840064
6.60716e-09
0.00839857
4.45066e-08
0.00840357
7.9038e-08
0.00839233
2.50311e-07
0.00841488
6.65035e-07
0.00837587
1.52212e-06
0.0084225
4.74965e-06
0.00837542
1.26093e-05
0.00838399
4.41665e-05
0.00836639
0.000174146
0.00844941
0.000729952
0.000721184
0.00866786
0.00840003
-2.86471e-14
0.00840003
1.54408e-13
0.00840003
-3.64532e-13
0.00840003
1.68053e-12
0.00840003
-2.30362e-12
0.00840003
1.03932e-11
0.00840003
-1.13585e-11
0.00840003
6.21953e-11
0.00840004
-3.27115e-11
0.00840002
3.70261e-10
0.00840006
1.80331e-11
0.00839998
2.12617e-09
0.0084001
3.73047e-09
0.00839993
9.80341e-09
0.00839984
4.22736e-08
0.00840033
3.72076e-08
0.00839808
3.34068e-07
0.00840152
2.28096e-07
0.00839655
1.96592e-06
0.0083971
2.35577e-06
0.0083968
1.1151e-05
0.00838825
3.26028e-05
0.00837257
0.000132746
0.00847802
0.000553376
0.000512824
0.00865307
0.00840003
4.12237e-14
0.00840003
-2.44403e-14
0.00840003
4.06087e-13
0.00840003
-1.65657e-13
0.00840003
3.18629e-12
0.00840003
-2.68481e-12
0.00840003
2.84188e-11
0.00840003
-3.12126e-11
0.00840002
2.20421e-10
0.00840005
-2.26854e-10
0.0084
1.45961e-09
0.00840011
-1.35718e-09
0.00839987
8.70795e-09
0.00840038
-6.15138e-09
0.00839933
4.44143e-08
0.00840102
-7.86419e-09
0.00839756
2.0994e-07
0.0084032
1.40966e-07
0.00839179
1.01687e-06
0.00840835
1.95544e-06
0.00838626
6.2314e-06
0.00839765
2.09638e-05
0.00838117
8.94128e-05
0.00848996
0.000373422
0.000330535
0.00864206
0.00840003
-9.37352e-15
0.00840003
1.1057e-13
0.00840003
1.45446e-14
0.00840003
1.01331e-12
0.00840003
1.60159e-13
0.00840003
7.20413e-12
0.00840003
-2.24115e-12
0.00840003
4.90714e-11
0.00840003
-2.41538e-11
0.00840003
3.09722e-10
0.00840004
-1.38936e-10
0.00839998
1.65655e-09
0.00840015
-4.49317e-10
0.00839961
7.81444e-09
0.00840108
4.6013e-09
0.00839722
3.42459e-08
0.00840653
5.81171e-08
0.00838686
1.58604e-07
0.00841931
4.43404e-07
0.00837654
9.49056e-07
0.0084136
3.30346e-06
0.00838576
9.90608e-06
0.00839146
4.4615e-05
0.0085041
0.000187857
0.000162789
0.00864763
0.00840003
0.00840003
0.00840003
0.00840003
0.00840003
0.00840003
0.00840003
0.00840003
0.00840003
0.00840004
0.00840001
0.00840005
0.0084
0.00839992
0.00840032
0.00839854
0.00840298
0.00839268
0.00840907
0.00838858
0.0084039
0.00838848
0.00839255
0.00851246
0.0086486
0.00393462
0.00434294
0.0015074
0.0024198
-0.000767196
0.00227032
-0.00171524
0.000947555
-0.00238249
0.000666046
-0.00270799
0.000324593
-0.00281574
0.000107512
-0.00296138
0.000145873
-0.00312941
0.000168013
-0.00326794
0.000138405
-0.00335185
8.40267e-05
-0.00338837
3.62909e-05
-0.003426
3.42936e-05
-0.00346352
3.38263e-05
-0.00347611
8.44632e-06
-0.00345259
-2.93178e-05
-0.00339747
-6.13415e-05
-0.00331466
-8.98015e-05
-0.00320632
-0.000115173
-0.00308099
-0.000131611
-0.00294453
-0.000142087
-0.00280002
-0.000149417
-0.00264879
-0.000155016
-0.00249216
-0.000160712
-0.00232904
-0.000166942
-0.00216
-0.000173416
-0.00198317
-0.000181226
-0.00179993
-0.000187934
-0.00160778
-0.000197551
-0.00140718
-0.000206017
-0.00120112
-0.000211493
-0.000993735
-0.00021262
-0.000784765
-0.000213848
-0.000573755
-0.000215695
-0.000359653
-0.00021823
-0.00014238
-0.000220599
8.28079e-05
-0.00022813
0.000303324
-0.000223008
0.00051504
-0.000213482
0.00072013
-0.000206088
0.000920724
-0.000200808
0.00111537
-0.000194381
0.00130386
-0.000187564
0.00148537
-0.000180444
0.00166312
-0.000175894
0.00184039
-0.00017471
0.00201343
-0.000169895
0.00218102
-0.000163611
0.00234255
-0.000156817
0.00249808
-0.00015072
0.00264804
-0.000144658
0.00279306
-0.000139311
0.00293254
-0.000133679
0.00306706
-0.000128488
0.00319598
-0.000123183
0.00331991
-0.000118168
0.00343874
-0.000113186
0.00355219
-0.000108422
0.00366076
-0.000103662
0.00376436
-9.91739e-05
0.00386303
-9.46567e-05
0.00395657
-9.03961e-05
0.00404549
-8.60876e-05
0.00412969
-8.20654e-05
0.00420915
-7.79516e-05
0.00428456
-7.41119e-05
0.00435501
-7.02013e-05
0.00442165