/*--------------------------------*- C++ -*----------------------------------*\
  =========                 |
  \\      /  F ield         | OpenFOAM: The Open Source CFD Toolbox
   \\    /   O peration     | Website:  https://openfoam.org
    \\  /    A nd           | Version:  9
     \\/     M anipulation  |
\*---------------------------------------------------------------------------*/
FoamFile
{
    format      ascii;
    class       volScalarField;
    location    "9";
    object      T;
}
// * * * * * * * * * * * * * * * * * * * * * * * * * * * * * * * * * * * * * //

dimensions      [0 0 0 1 0 0 0];

internalField   nonuniform List<scalar> 
5250
(
1.00001
1.00002
1.00006
1.00014
1.00036
1.00086
1.00213
1.00535
1.01294
1.03329
1.08393
1.22457
1.60087
2.36716
2.71781
2.74072
2.736
2.73856
2.75019
2.76622
2.77854
2.7869
2.79365
2.79839
2.80167
1.00001
1.00002
1.00006
1.00013
1.00037
1.0008
1.00223
1.00502
1.01335
1.03195
1.0843
1.22062
1.59528
2.35766
2.71461
2.74022
2.7354
2.73779
2.74933
2.76524
2.77746
2.78577
2.79248
2.79713
2.80028
1.00001
1.00002
1.00006
1.00013
1.00036
1.00078
1.00223
1.00472
1.01355
1.03036
1.08328
1.21434
1.58149
2.33719
2.70702
2.73885
2.73368
2.7355
2.74665
2.76248
2.77427
2.78271
2.78911
2.79394
2.79706
1.00001
1.00002
1.00005
1.00012
1.00035
1.00075
1.00215
1.00455
1.01307
1.02925
1.08025
1.20611
1.55984
2.30475
2.69499
2.73693
2.73098
2.73175
2.74253
2.75764
2.76946
2.77702
2.78347
2.78739
2.79052
1.00001
1.00002
1.00005
1.00012
1.00033
1.00074
1.00195
1.00463
1.0117
1.02906
1.07457
1.19673
1.52978
2.2592
2.67794
2.73459
2.72731
2.72658
2.73682
2.75108
2.76274
2.77022
2.77605
2.7801
2.78279
1.00001
1.00002
1.00004
1.00012
1.00028
1.00076
1.00167
1.00469
1.01026
1.02838
1.06783
1.18491
1.49176
2.19805
2.65465
2.73166
2.72256
2.71967
2.72918
2.74261
2.75321
2.7602
2.76523
2.76832
2.77062
1
1.00002
1.00005
1.0001
1.00028
1.00065
1.00165
1.00405
1.00989
1.02517
1.06316
1.16711
1.44919
2.11643
2.62379
2.72758
2.71619
2.7109
2.71957
2.73252
2.74201
2.74765
2.75176
2.75351
2.7541
1
1.00001
1.00004
1.0001
1.00024
1.0006
1.00147
1.00357
1.00913
1.02202
1.05704
1.14791
1.39851
2.01399
2.58376
2.72083
2.70683
2.69883
2.70675
2.71866
2.72762
2.73129
2.7329
2.73171
2.72816
1
1.00001
1.00003
1.00009
1.00019
1.00058
1.00116
1.00344
1.00736
1.02037
1.04805
1.12974
1.34177
1.89148
2.53206
2.70847
2.69298
2.68341
2.69104
2.7015
2.70902
2.71111
2.70902
2.70178
2.68629
1
1.00001
1.00003
1.00007
1.0002
1.00043
1.00116
1.00266
1.00683
1.01666
1.04209
1.1079
1.28768
1.75126
2.46845
2.68713
2.67109
2.6628
2.66976
2.67985
2.6856
2.6851
2.67632
2.65394
2.59734
1
1.00001
1.00002
1.00007
1.00014
1.00043
1.00088
1.00258
1.00551
1.01525
1.03544
1.0951
1.247
1.65995
2.40576
2.66622
2.65446
2.64596
2.64785
2.65529
2.6589
2.65415
2.6348
2.58803
2.48261
1
1.00001
1.00002
1.00005
1.00015
1.00031
1.0009
1.00196
1.00532
1.01232
1.03226
1.08014
1.21541
1.571
2.30556
2.62747
2.64254
2.63335
2.62942
2.63136
2.63029
2.61945
2.58998
2.52736
2.41789
1
1.00001
1.00002
1.00005
1.00012
1.0003
1.00072
1.00176
1.00448
1.01059
1.02774
1.06821
1.18271
1.4867
2.17384
2.57579
2.63337
2.62341
2.61401
2.60994
2.60293
2.58556
2.5505
2.48853
2.39413
1
1.00001
1.00002
1.00004
1.0001
1.00025
1.0006
1.00154
1.00355
1.00947
1.02197
1.0585
1.14896
1.40322
2.01253
2.50781
2.62001
2.61072
2.59858
2.58859
2.5772
2.55554
2.51796
2.46206
2.38452
1
1
1.00001
1.00003
1.00009
1.00019
1.00053
1.00112
1.00323
1.00684
1.01937
1.04441
1.1211
1.31535
1.8234
2.41922
2.594
2.59048
2.57948
2.56617
2.55156
2.53019
2.49428
2.44093
2.37511
1
1
1.00001
1.00002
1.00007
1.00015
1.0004
1.00096
1.00237
1.00588
1.01426
1.03621
1.09153
1.24138
1.63371
2.31022
2.55474
2.56353
2.55444
2.54133
2.52615
2.5037
2.47294
2.42574
2.36574
1
1
1.00001
1.00002
1.00005
1.00013
1.00031
1.00077
1.00193
1.00454
1.01191
1.02797
1.074
1.19016
1.50856
2.17788
2.50463
2.54126
2.5319
2.51907
2.50392
2.48092
2.45118
2.41053
2.35849
1
1
1.00001
1.00002
1.00004
1.00009
1.00027
1.00055
1.00163
1.00343
1.00956
1.02182
1.05822
1.14719
1.39735
1.98551
2.42403
2.51903
2.51307
2.50002
2.48316
2.46113
2.43285
2.39635
2.35098
1
1
1.00001
1.00001
1.00003
1.00008
1.00019
1.00049
1.00109
1.00299
1.00649
1.01808
1.04147
1.11202
1.29012
1.75626
2.3152
2.48498
2.49099
2.48014
2.46372
2.44117
2.41524
2.38273
2.34405
1
1
1
1.00001
1.00002
1.00006
1.00015
1.00034
1.0009
1.00198
1.00549
1.01197
1.03285
1.07821
1.21007
1.54634
2.17712
2.43492
2.46415
2.45703
2.44113
2.42196
2.39803
2.36991
2.3356
1
1
1
1.00001
1.00002
1.00005
1.0001
1.00028
1.00059
1.00172
1.00353
1.01023
1.02235
1.06115
1.15218
1.40929
1.98839
2.36181
2.43824
2.43503
2.42189
2.40234
2.38254
2.35772
2.32947
1
1
1
1
1.00001
1.00003
1.00009
1.00017
1.00051
1.00108
1.00298
1.00665
1.01765
1.04205
1.11096
1.28749
1.74555
2.24994
2.40223
2.41203
2.40335
2.3863
2.36635
2.34532
2.32143
1
1
1
1
1.00001
1.00002
1.00006
1.00013
1.00035
1.0008
1.00204
1.0049
1.01204
1.03
1.07539
1.19524
1.51204
2.09718
2.34633
2.3852
2.38145
2.3687
2.35214
2.33339
2.31423
1
1
1
1
1.00001
1.00002
1.00004
1.0001
1.00024
1.00059
1.00145
1.00343
1.00883
1.02069
1.05405
1.13574
1.36024
1.88421
2.26112
2.3559
2.36044
2.35291
2.33833
2.32319
2.31039
1
1
1
1
1
1.00001
1.00003
1.00007
1.00016
1.00044
1.00091
1.00262
1.00541
1.01541
1.0343
1.09268
1.23297
1.6096
2.13114
2.31374
2.3381
2.33572
2.32681
2.31552
2.31051
1
1
1
1
1
1.00001
1.00002
1.00004
1.00013
1.00026
1.00074
1.00157
1.00425
1.00968
1.02513
1.061
1.15991
1.41432
1.9597
2.25395
2.31635
2.32122
2.31741
2.31446
2.31658
1
1
1
1
1
1.00001
1.00001
1.00003
1.00007
1.00021
1.00043
1.00126
1.00254
1.00738
1.01581
1.0433
1.1043
1.27864
1.703
2.14897
2.28709
2.30868
2.31379
2.3187
2.33038
1
1
1
1
1
1
1.00001
1.00002
1.00005
1.00014
1.00029
1.00083
1.00171
1.00497
1.01039
1.02886
1.06722
1.17903
1.4609
1.99093
2.23787
2.29472
2.31479
2.3315
2.35062
1
1
1
1
1
1
1.00001
1.00001
1.00004
1.00009
1.00022
1.00052
1.00125
1.00316
1.00728
1.0192
1.04497
1.11864
1.30421
1.75832
2.15442
2.28636
2.32766
2.35833
2.38675
1
1
1
1
1
1
1
1.00001
1.00003
1.00005
1.00016
1.00032
1.00091
1.00193
1.00523
1.01182
1.03083
1.07458
1.19518
1.50254
2.0231
2.27041
2.35308
2.39439
2.42427
1
1
1
1
1
1
1
1.00001
1.00002
1.00004
1.0001
1.00022
1.00063
1.0013
1.00378
1.00783
1.02208
1.05033
1.13573
1.34574
1.84474
2.24352
2.39856
2.45315
2.46582
1
1
1
1
1
1
1
1
1.00001
1.00003
1.00008
1.00016
1.00045
1.00095
1.00259
1.0058
1.01519
1.0361
1.09388
1.23973
1.61958
2.19474
2.45525
2.51794
2.51328
1
1
1
1
1
1
1
1
1.00001
1.00002
1.00006
1.00012
1.00035
1.00071
1.00212
1.00433
1.01247
1.02787
1.0757
1.19174
1.51271
2.15109
2.5383
2.59958
2.57303
1
1
1
1
1
1
1
1
1.00001
1.00002
1.00005
1.0001
1.00029
1.00058
1.00175
1.00366
1.01037
1.02369
1.06392
1.16343
1.44511
2.06593
2.61184
2.68487
2.63652
1
1
1
1
1
1
1
1
1.00001
1.00002
1.00004
1.0001
1.00022
1.0006
1.0013
1.00374
1.00808
1.0228
1.05384
1.14783
1.39578
1.98121
2.66251
2.75472
2.69237
1
1
1
1
1
1
1
1
1.00001
1.00001
1.00004
1.00008
1.00022
1.00047
1.00139
1.00288
1.00855
1.01871
1.05223
1.13182
1.36634
1.9228
2.6829
2.792
2.72508
1
1
1
1
1
1
1
1
1.00001
1.00001
1.00003
1.00008
1.0002
1.00045
1.00127
1.00273
1.00791
1.01742
1.0488
1.12201
1.33993
1.87553
2.66936
2.80692
2.74499
1
1
1
1
1
1
1
1
1.00001
1.00001
1.00003
1.00007
1.00019
1.00046
1.00112
1.00286
1.0068
1.01797
1.04377
1.11709
1.31548
1.83618
2.62296
2.80798
2.75654
1
1
1
1
1
1
1
1
1.00001
1.00001
1.00003
1.00007
1.00019
1.00042
1.0011
1.0027
1.00664
1.017
1.0423
1.11131
1.30049
1.80303
2.58095
2.80817
2.76385
1
1
1
1
1
1
1
1
1
1.00001
1.00003
1.00008
1.00015
1.00047
1.00095
1.00282
1.0061
1.01693
1.04
1.10849
1.287
1.77733
2.55024
2.80184
2.76538
1
1
1
1
1
1
1
1
1
1.00001
1.00003
1.00006
1.00018
1.00039
1.00111
1.00232
1.00684
1.01476
1.04144
1.10164
1.28027
1.75188
2.52522
2.79244
2.76349
1
1
1
1
1
1
1
1
1
1.00001
1.00003
1.00006
1.00017
1.0004
1.001
1.00251
1.00604
1.01568
1.03837
1.101
1.27002
1.73168
2.5023
2.7821
2.75921
1
1
1
1
1
1
1
1
1
1.00001
1.00003
1.00007
1.00016
1.00039
1.001
1.00237
1.00622
1.01458
1.03871
1.09714
1.26331
1.7134
2.48143
2.77107
2.7527
1
1
1
1
1
1
1
1
1
1.00001
1.00002
1.00007
1.00014
1.00043
1.00087
1.00259
1.00551
1.01545
1.03601
1.09743
1.25492
1.6981
2.46304
2.76052
2.74641
1
1
1
1
1
1
1
1
1
1.00001
1.00002
1.00007
1.00014
1.00042
1.00086
1.00254
1.00544
1.01514
1.03538
1.09544
1.24957
1.68113
2.44935
2.75099
2.74037
1
1
1
1
1
1
1
1
1
1.00001
1.00003
1.00006
1.00016
1.00036
1.001
1.00215
1.00615
1.01342
1.0372
1.09063
1.24778
1.66149
2.44145
2.74226
2.73497
1
1
1
1
1
1
1
1
1
1.00001
1.00002
1.00007
1.00014
1.0004
1.00087
1.00239
1.00544
1.01439
1.03474
1.09171
1.24136
1.64641
2.43402
2.73496
2.73167
1
1
1
1
1
1
1
1
1
1.00001
1.00003
1.00006
1.00017
1.00033
1.00101
1.00207
1.00596
1.01324
1.03595
1.08839
1.24102
1.63372
2.42602
2.72902
2.7308
1
1
1
1
1
1
1
1
1
1.00001
1.00003
1.00006
1.00015
1.00037
1.0009
1.00231
1.00536
1.01434
1.03381
1.09014
1.23676
1.6311
2.41937
2.72393
2.72983
1
1
1
1
1
1
1
1
1
1.00001
1.00003
1.00006
1.00016
1.00035
1.00094
1.00218
1.0056
1.01373
1.03461
1.08865
1.23699
1.62831
2.41687
2.72126
2.72885
2.35303
2.4884
2.77372
3.02035
3.02624
2.98468
2.97011
2.95676
2.93662
2.91603
2.89846
2.88398
2.87103
2.86393
2.86294
2.86304
2.87043
2.87894
2.89152
2.90329
2.91616
2.92685
2.93777
2.948
2.95635
2.96515
2.97042
2.97779
2.9816
2.98553
2.98769
2.98859
2.98887
2.98736
2.98504
2.98296
2.98205
2.97995
2.97617
2.97272
2.96673
2.96128
2.95538
2.94897
2.94308
2.93471
2.92795
2.91917
2.91138
2.90179
2.89441
2.8841
2.87599
2.86558
2.85681
2.84665
2.83725
2.82662
2.81741
2.8061
2.79663
2.78497
2.77569
2.7635
2.75412
2.74181
2.73176
2.71993
2.70917
2.69769
2.68671
2.67512
2.66432
2.65261
2.64202
2.63031
2.61998
2.6082
2.59827
2.58636
2.57686
2.56494
2.55568
2.54407
2.53473
2.52376
2.51416
2.50391
2.49422
2.48452
2.47509
2.46577
2.45691
2.44803
2.43999
2.4319
2.42516
2.41872
2.41448
2.41054
2.36705
2.46216
2.60543
2.8293
2.98296
3.02795
3.10074
3.11316
3.10703
3.09659
3.08581
3.07891
3.07384
3.07014
3.0734
3.07489
3.07667
3.07847
3.07926
3.07937
3.07782
3.07465
3.07003
3.06462
3.05732
3.05167
3.04871
3.0419
3.03704
3.02833
3.02227
3.01189
3.00358
2.99311
2.98459
2.97368
2.96473
2.95251
2.94347
2.93119
2.92048
2.90858
2.89782
2.88596
2.87552
2.86334
2.85205
2.84037
2.82908
2.81795
2.80591
2.79476
2.78332
2.77211
2.76086
2.74949
2.73814
2.7265
2.71531
2.70343
2.69233
2.68063
2.66922
2.65799
2.64609
2.63523
2.62308
2.61227
2.60018
2.58926
2.57735
2.56636
2.55466
2.54364
2.53224
2.52116
2.51019
2.49901
2.48855
2.47736
2.46732
2.45637
2.44652
2.4361
2.42624
2.4165
2.40662
2.39747
2.38772
2.37895
2.36951
2.36099
2.35207
2.34393
2.33585
2.3285
2.32178
2.31603
2.31187
2.30864
2.3557
2.38444
2.4647
2.52277
2.65372
2.76583
2.9353
3.03589
3.09243
3.11283
3.12039
3.15128
3.16607
3.16867
3.17103
3.1707
3.16658
3.15895
3.14944
3.13763
3.12343
3.10883
3.0929
3.07708
3.06141
3.04567
3.02907
3.01067
2.99304
2.97344
2.95555
2.93553
2.91712
2.8987
2.88059
2.8629
2.84601
2.82936
2.81341
2.79794
2.78267
2.76819
2.75332
2.74043
2.72671
2.71423
2.69999
2.68718
2.67443
2.66242
2.65047
2.63885
2.62759
2.61607
2.60547
2.594
2.58383
2.57269
2.56267
2.55205
2.54195
2.53174
2.52154
2.51146
2.50138
2.49131
2.4815
2.47144
2.46189
2.45184
2.44251
2.43243
2.42336
2.4132
2.40446
2.39423
2.38584
2.37563
2.3675
2.35749
2.34943
2.33984
2.33164
2.32261
2.31422
2.30574
2.29713
2.28905
2.28042
2.27267
2.2643
2.25691
2.24901
2.2421
2.23489
2.22883
2.22274
2.21822
2.21442
2.21239
2.3319
2.3245
2.35666
2.38855
2.44596
2.52569
2.6006
2.72462
2.8315
2.95374
3.01124
3.05297
3.08469
3.10363
3.10927
3.10247
3.08839
3.07034
3.0533
3.0346
3.01328
2.99224
2.96862
2.94654
2.92315
2.90024
2.8769
2.85385
2.83225
2.81015
2.79054
2.76979
2.75157
2.73265
2.71577
2.69896
2.68336
2.66834
2.65444
2.64073
2.62836
2.61534
2.60437
2.59225
2.58241
2.57099
2.56074
2.54884
2.53913
2.52786
2.51885
2.50798
2.49926
2.48886
2.48015
2.47031
2.46141
2.45212
2.44294
2.43398
2.42448
2.41563
2.40592
2.39708
2.38725
2.37839
2.36847
2.35959
2.34962
2.34074
2.33083
2.32201
2.31228
2.30354
2.2941
2.28546
2.27631
2.26781
2.25887
2.25067
2.24178
2.23401
2.22504
2.21766
2.20858
2.20162
2.19262
2.18604
2.1773
2.17102
2.16263
2.15662
2.14874
2.1431
2.13595
2.13098
2.12499
2.12131
2.11759
2.1162
2.31827
2.28754
2.28818
2.3083
2.33239
2.38087
2.42727
2.4877
2.55827
2.62867
2.71433
2.78427
2.8365
2.86844
2.87827
2.87045
2.8542
2.83151
2.81276
2.79118
2.77202
2.75145
2.73225
2.71308
2.69404
2.67526
2.65598
2.6391
2.62153
2.60749
2.59275
2.58144
2.5689
2.55947
2.54897
2.54086
2.5319
2.52479
2.51653
2.50995
2.50168
2.49508
2.48685
2.48041
2.47293
2.46648
2.45868
2.4512
2.44343
2.43612
2.42856
2.42128
2.41355
2.40629
2.39833
2.39119
2.38308
2.37603
2.36785
2.36082
2.35259
2.34549
2.33717
2.32993
2.32151
2.31407
2.30557
2.29788
2.28936
2.28136
2.27286
2.26452
2.25612
2.24748
2.23923
2.23041
2.22229
2.21343
2.20533
2.19646
2.1882
2.17942
2.17107
2.16258
2.15429
2.14608
2.13802
2.13008
2.12241
2.11475
2.10757
2.10023
2.09362
2.08675
2.08079
2.07468
2.06965
2.06481
2.06167
2.05905
2.31091
2.27047
2.25181
2.25227
2.26466
2.28996
2.32284
2.35843
2.40592
2.44821
2.49778
2.54126
2.57049
2.59425
2.59251
2.58447
2.56822
2.54861
2.53074
2.51768
2.50803
2.50042
2.49389
2.48654
2.48018
2.47449
2.46922
2.46443
2.45999
2.45617
2.45233
2.44886
2.44546
2.44229
2.43899
2.43574
2.43238
2.42873
2.42532
2.42101
2.41751
2.41246
2.40881
2.40356
2.40041
2.395
2.39101
2.38435
2.37956
2.37267
2.36741
2.36031
2.35437
2.34708
2.34051
2.33308
2.32601
2.31848
2.31111
2.30351
2.29597
2.28826
2.28062
2.27276
2.26508
2.25706
2.24945
2.24131
2.23389
2.22566
2.21847
2.21016
2.2032
2.19481
2.188
2.17956
2.17271
2.16423
2.15719
2.14886
2.14165
2.13359
2.12618
2.11842
2.11085
2.10339
2.09574
2.08855
2.08095
2.07404
2.06663
2.06006
2.05303
2.04695
2.04056
2.03525
2.02992
2.02588
2.02261
2.0207
2.30591
2.26388
2.23459
2.22193
2.22213
2.23337
2.25689
2.28217
2.31617
2.35156
2.38155
2.41165
2.42682
2.43561
2.42892
2.41633
2.39943
2.3857
2.37254
2.36476
2.36262
2.36577
2.3696
2.37359
2.37684
2.37876
2.38082
2.38117
2.38188
2.38203
2.38192
2.38159
2.3808
2.37982
2.3782
2.3765
2.37419
2.37175
2.36883
2.36554
2.36198
2.35761
2.35322
2.3484
2.34397
2.33895
2.33362
2.32761
2.32149
2.31533
2.30895
2.30294
2.29641
2.29047
2.28367
2.27763
2.27053
2.26431
2.25699
2.25058
2.24313
2.23653
2.22902
2.22222
2.2147
2.2077
2.20025
2.19302
2.18571
2.17824
2.17106
2.16337
2.15631
2.14843
2.14139
2.13339
2.12633
2.11845
2.11137
2.10373
2.0966
2.08928
2.08212
2.07513
2.068
2.06133
2.05432
2.04792
2.04113
2.03501
2.02855
2.02273
2.01671
2.0113
2.00589
2.00109
1.99658
1.99289
1.99018
1.98835
2.30315
2.26082
2.2291
2.20773
2.2002
2.20307
2.21772
2.24022
2.26567
2.29601
2.31896
2.33872
2.34991
2.34747
2.33561
2.3176
2.29939
2.28405
2.27466
2.26729
2.26442
2.26645
2.27312
2.27987
2.28631
2.29035
2.29367
2.29548
2.29702
2.29783
2.2985
2.2987
2.29865
2.29826
2.29747
2.29615
2.29475
2.29263
2.29073
2.28801
2.28576
2.28243
2.27982
2.27633
2.2737
2.2701
2.26649
2.2619
2.25725
2.25232
2.24712
2.24215
2.23661
2.23152
2.22549
2.22005
2.21351
2.20769
2.20081
2.19473
2.18768
2.18138
2.17422
2.16765
2.16042
2.15354
2.1463
2.13919
2.13202
2.12476
2.11775
2.11035
2.10344
2.09597
2.08914
2.08171
2.07487
2.06757
2.06062
2.05353
2.04646
2.03966
2.03249
2.02602
2.01879
2.01264
2.00546
1.9996
1.99256
1.987
1.98021
1.97503
1.96865
1.964
1.95829
1.95435
1.94976
1.94703
1.94446
1.94339
2.30122
2.26107
2.22858
2.2057
2.19349
2.19373
2.2045
2.2262
2.24762
2.27171
2.29075
2.30261
2.30928
2.30149
2.28256
2.25934
2.23675
2.22032
2.2084
2.20332
2.1978
2.19795
2.2018
2.20951
2.21817
2.22499
2.23136
2.23537
2.23951
2.24205
2.24487
2.24677
2.24857
2.24997
2.2507
2.25158
2.25157
2.25136
2.25092
2.24996
2.24907
2.24718
2.24589
2.24344
2.24184
2.23906
2.23636
2.23247
2.22858
2.22412
2.21952
2.21487
2.20983
2.205
2.19944
2.1942
2.18811
2.18244
2.17601
2.17
2.16341
2.15709
2.1504
2.14374
2.13692
2.12984
2.12292
2.11547
2.10853
2.1008
2.09388
2.08604
2.07925
2.07146
2.06472
2.05704
2.05026
2.04273
2.03582
2.02847
2.02138
2.01425
2.00702
2.00014
1.99286
1.9863
1.97909
1.97287
1.96586
1.96001
1.95338
1.94793
1.94186
1.93695
1.93165
1.92754
1.92352
1.92068
1.91871
1.91725
2.29941
2.26298
2.23263
2.21071
2.1987
2.19923
2.21064
2.22957
2.24831
2.26715
2.28104
2.28907
2.28764
2.2741
2.24933
2.2228
2.20026
2.18144
2.16921
2.16135
2.15729
2.15425
2.15459
2.15888
2.16553
2.17342
2.18042
2.18709
2.19224
2.19683
2.20011
2.20322
2.20533
2.2075
2.2086
2.20974
2.21003
2.21011
2.2099
2.20926
2.20853
2.20698
2.20566
2.20342
2.2017
2.19926
2.19656
2.19316
2.18947
2.18558
2.18124
2.17704
2.17223
2.16771
2.16244
2.15753
2.15186
2.1466
2.14071
2.13516
2.12919
2.12336
2.11733
2.11114
2.10502
2.09843
2.09221
2.08526
2.07899
2.07183
2.06566
2.0585
2.05243
2.04534
2.03926
2.03225
2.02607
2.01921
2.01291
2.00628
1.99988
1.99355
1.98706
1.98104
1.97449
1.96874
1.96222
1.95671
1.95034
1.94512
1.93907
1.93426
1.92875
1.92444
1.91979
1.91641
1.91317
1.91117
1.91002
1.90892
2.29644
2.26714
2.2397
2.22253
2.21527
2.2189
2.23058
2.24636
2.26289
2.27535
2.28279
2.28479
2.27513
2.25417
2.2276
2.20214
2.17982
2.16119
2.14663
2.1358
2.12918
2.12536
2.12252
2.1227
2.12585
2.13119
2.13745
2.1448
2.15164
2.15784
2.16273
2.16694
2.17013
2.17283
2.17486
2.17666
2.17786
2.17895
2.17947
2.17984
2.17957
2.17899
2.17784
2.17637
2.17486
2.17317
2.17074
2.1681
2.16474
2.16153
2.15749
2.15381
2.14918
2.14504
2.13981
2.13515
2.12939
2.12427
2.11817
2.11271
2.10645
2.1007
2.09432
2.08821
2.08172
2.07521
2.06858
2.06167
2.05503
2.04795
2.04137
2.03423
2.02767
2.02055
2.01395
2.00695
2.00029
1.99346
1.98669
1.98006
1.97317
1.96678
1.95983
1.95373
1.94681
1.94106
1.93429
1.92891
1.92242
1.91749
1.91148
1.90707
1.90179
1.89813
1.89407
1.89157
1.88937
1.88839
1.88832
1.88765
2.29625
2.27153
2.25398
2.24079
2.24105
2.24753
2.26002
2.27272
2.28387
2.29028
2.29178
2.28399
2.26595
2.24127
2.2167
2.19345
2.17262
2.15399
2.13829
2.12498
2.11598
2.10839
2.10528
2.10195
2.10157
2.10293
2.10694
2.11206
2.11938
2.12628
2.13296
2.1381
2.14277
2.14598
2.14905
2.1509
2.15262
2.15367
2.15429
2.15471
2.15461
2.15401
2.1532
2.15163
2.15039
2.1486
2.14658
2.14403
2.14106
2.13791
2.13412
2.13038
2.12586
2.12164
2.11659
2.11201
2.10659
2.10167
2.09603
2.09082
2.08508
2.07955
2.07373
2.06782
2.06182
2.05547
2.0493
2.04267
2.03643
2.02965
2.02338
2.01659
2.01035
2.00365
1.99742
1.99082
1.98452
1.97802
1.97157
1.96522
1.95862
1.9525
1.94582
1.94002
1.93339
1.92795
1.92156
1.91645
1.91053
1.90576
1.90051
1.89628
1.89185
1.8886
1.88563
1.88384
1.88298
1.88315
1.88409
1.88301
2.29635
2.28104
2.27048
2.26894
2.27298
2.28188
2.29161
2.30085
2.30617
2.30708
2.29937
2.28234
2.2601
2.23714
2.21525
2.19431
2.17426
2.15576
2.13893
2.12441
2.11209
2.1024
2.0948
2.08994
2.08649
2.08493
2.08516
2.08728
2.09123
2.09785
2.10384
2.11072
2.11534
2.12001
2.12298
2.12549
2.12738
2.12852
2.12979
2.13015
2.13078
2.13058
2.12999
2.12897
2.12775
2.12643
2.12461
2.12256
2.11969
2.11694
2.11329
2.10996
2.10561
2.10173
2.09677
2.09234
2.08694
2.08205
2.07639
2.07115
2.06537
2.05985
2.05399
2.04813
2.04216
2.03593
2.0299
2.02337
2.01729
2.0106
2.0045
1.99785
1.99169
1.98524
1.97894
1.97271
1.96622
1.96014
1.95353
1.94749
1.94093
1.93493
1.92857
1.92266
1.91668
1.91092
1.90544
1.9
1.89507
1.89024
1.8859
1.88192
1.87851
1.87605
1.87418
1.87388
1.8741
1.87493
1.87694
1.87633
2.30052
2.29417
2.29453
2.2995
2.30729
2.31693
2.32297
2.3275
2.32582
2.31682
2.2995
2.27887
2.2575
2.238
2.21808
2.19988
2.18029
2.16274
2.14471
2.12941
2.11466
2.10303
2.09216
2.08443
2.07722
2.07397
2.07076
2.07076
2.07127
2.07389
2.07875
2.0846
2.08998
2.09518
2.09877
2.10229
2.10431
2.10636
2.10756
2.1084
2.10914
2.10908
2.10866
2.10783
2.10665
2.10557
2.10395
2.10204
2.09936
2.09674
2.0933
2.09008
2.08588
2.08212
2.07729
2.07308
2.06777
2.06318
2.05757
2.05263
2.04689
2.04156
2.03574
2.02999
2.02416
2.01813
2.01224
2.00601
2.00003
1.9937
1.98763
1.9813
1.9752
1.96894
1.96289
1.9567
1.95067
1.94458
1.93848
1.93253
1.92633
1.92054
1.91437
1.90879
1.90289
1.89757
1.89222
1.88728
1.88276
1.87836
1.87479
1.8714
1.86933
1.86767
1.86773
1.86825
1.86931
1.87131
1.87494
1.87624
2.31093
2.31448
2.32295
2.33038
2.34268
2.34751
2.35182
2.34901
2.33879
2.32076
2.30033
2.28007
2.26037
2.24293
2.22469
2.20761
2.18863
2.17122
2.15273
2.1367
2.1207
2.10728
2.09404
2.0836
2.07361
2.06694
2.0611
2.05856
2.05637
2.05647
2.05737
2.06044
2.06512
2.06973
2.07433
2.07822
2.08127
2.08386
2.08529
2.08663
2.08701
2.0873
2.08694
2.08622
2.08494
2.08402
2.08234
2.08096
2.07838
2.07633
2.0729
2.07028
2.06607
2.06284
2.05794
2.0541
2.04875
2.04438
2.0388
2.03399
2.0283
2.02309
2.01732
2.01183
2.00607
2.00036
1.99453
1.98866
1.98269
1.97673
1.97067
1.9647
1.95866
1.9527
1.94678
1.94079
1.93503
1.92896
1.92331
1.91726
1.91164
1.90582
1.9002
1.89484
1.88939
1.8846
1.87962
1.87556
1.87131
1.86802
1.86495
1.86311
1.86199
1.86209
1.86291
1.86433
1.86659
1.87142
1.87703
1.87957
2.3254
2.33907
2.35022
2.36413
2.37093
2.37497
2.37126
2.35927
2.34077
2.32056
2.30094
2.28273
2.26514
2.24913
2.23241
2.21598
2.19767
2.18005
2.16165
2.14495
2.12828
2.11318
2.09856
2.08565
2.07364
2.06394
2.05523
2.04957
2.04477
2.0427
2.04075
2.04083
2.04212
2.04509
2.0493
2.05296
2.05691
2.05975
2.06202
2.0637
2.06444
2.06516
2.065
2.0645
2.06344
2.06256
2.06131
2.06005
2.05803
2.05579
2.05289
2.04999
2.04632
2.04281
2.03853
2.03447
2.02975
2.02523
2.02024
2.0153
2.01008
2.00477
1.99941
1.99389
1.98842
1.98277
1.97713
1.97141
1.96556
1.95984
1.9538
1.94813
1.94202
1.93641
1.93037
1.92477
1.91895
1.91329
1.90775
1.90203
1.89676
1.89111
1.88615
1.8808
1.87625
1.87154
1.86759
1.86382
1.86054
1.85815
1.85632
1.85602
1.8563
1.85739
1.85909
1.86281
1.86753
1.87499
1.88176
1.88467
2.34688
2.36674
2.38482
2.39126
2.39583
2.39215
2.37975
2.3602
2.33995
2.32069
2.30252
2.28597
2.27044
2.25528
2.23989
2.22346
2.20604
2.18793
2.17001
2.15231
2.13563
2.11912
2.1039
2.08907
2.07555
2.06335
2.05241
2.04347
2.03598
2.03075
2.02677
2.02483
2.02296
2.02303
2.02449
2.02767
2.0312
2.03441
2.03752
2.03942
2.04122
2.04184
2.04243
2.04209
2.04124
2.04048
2.03922
2.03814
2.03631
2.0343
2.03187
2.02915
2.02613
2.02271
2.01906
2.01502
2.0108
2.00624
2.00155
1.99655
1.99149
1.9862
1.98102
1.97556
1.97036
1.96472
1.9595
1.95371
1.94841
1.94261
1.93716
1.93149
1.92586
1.92041
1.91467
1.90942
1.90369
1.89856
1.89297
1.88789
1.88256
1.87759
1.87271
1.86803
1.86386
1.85984
1.85659
1.85342
1.85149
1.85009
1.85018
1.85095
1.85215
1.85485
1.85823
1.86512
1.87209
1.88054
1.88727
1.88957
2.37585
2.39756
2.40827
2.41423
2.41125
2.39827
2.37793
2.35717
2.33775
2.32075
2.3043
2.28926
2.27439
2.26009
2.24493
2.229
2.21192
2.19423
2.17667
2.15882
2.142
2.12455
2.10879
2.09223
2.07791
2.06334
2.05114
2.0395
2.03007
2.02162
2.01541
2.01059
2.00728
2.0047
2.00348
2.00361
2.00521
2.00843
2.01116
2.01427
2.01616
2.01808
2.01866
2.0192
2.01872
2.01802
2.01683
2.01604
2.01444
2.01298
2.0106
2.00832
2.00539
2.00236
1.99885
1.99514
1.99103
1.9868
1.98218
1.97753
1.97251
1.96764
1.96245
1.95739
1.9521
1.94684
1.94156
1.93608
1.93088
1.92521
1.92011
1.91437
1.90932
1.90369
1.89859
1.89324
1.88807
1.88305
1.87791
1.87321
1.86828
1.86396
1.85949
1.85573
1.85213
1.8491
1.84654
1.84469
1.84412
1.84429
1.84534
1.84722
1.84982
1.85529
1.86146
1.87014
1.87792
1.88569
1.89141
1.89267
2.41181
2.42391
2.43029
2.42773
2.41443
2.39369
2.37226
2.35323
2.33617
2.32094
2.30618
2.29196
2.27792
2.26377
2.249
2.23312
2.21645
2.19887
2.18144
2.16361
2.14657
2.12923
2.11271
2.09597
2.08036
2.0649
2.05108
2.03763
2.02623
2.01523
2.00682
1.99863
1.99361
1.9883
1.9854
1.98275
1.98216
1.98238
1.98461
1.98694
1.99001
1.9921
1.99412
1.9949
1.99554
1.99495
1.99421
1.99328
1.99222
1.99082
1.98892
1.98678
1.98431
1.98149
1.97838
1.97487
1.97113
1.9671
1.96279
1.9584
1.95367
1.9491
1.94403
1.93935
1.93399
1.92919
1.92363
1.91872
1.91318
1.90813
1.90279
1.8976
1.89252
1.8873
1.88246
1.87732
1.87273
1.86779
1.86339
1.85886
1.85466
1.85079
1.84705
1.84415
1.84118
1.83928
1.83765
1.83768
1.83823
1.83967
1.8416
1.84557
1.85091
1.85881
1.86692
1.87533
1.88297
1.88854
1.89315
1.89304
2.43964
2.44661
2.4435
2.42911
2.40603
2.38445
2.36461
2.34821
2.33359
2.32016
2.30703
2.29337
2.28
2.26564
2.25105
2.23514
2.21895
2.20183
2.1848
2.16739
2.15017
2.13274
2.11546
2.09847
2.08175
2.06593
2.05048
2.03631
2.02282
2.01049
1.99942
1.98938
1.98125
1.97422
1.96901
1.96414
1.96173
1.95988
1.95989
1.96073
1.96273
1.96593
1.96782
1.97024
1.97107
1.97193
1.97155
1.97081
1.97015
1.96921
1.9679
1.96602
1.96394
1.96135
1.95868
1.95537
1.95212
1.94815
1.94435
1.93987
1.93567
1.93089
1.92635
1.92143
1.91657
1.91161
1.90647
1.90153
1.89627
1.89139
1.88616
1.88136
1.87627
1.87156
1.86671
1.86207
1.85759
1.85308
1.84908
1.8449
1.84149
1.83805
1.83544
1.83313
1.8313
1.8306
1.83078
1.83188
1.83365
1.83607
1.84113
1.8473
1.85588
1.86386
1.87259
1.87951
1.88561
1.88918
1.8917
1.89087
2.46971
2.46369
2.44582
2.42102
2.39738
2.3775
2.36086
2.34607
2.33265
2.31928
2.30629
2.29277
2.27923
2.26509
2.2505
2.23502
2.21905
2.20235
2.18556
2.16832
2.15115
2.13376
2.11643
2.0994
2.08239
2.06622
2.05003
2.03513
2.02014
2.00698
1.99381
1.98259
1.97183
1.96311
1.95548
1.94958
1.94411
1.94082
1.93874
1.93812
1.93833
1.93991
1.94237
1.94488
1.94728
1.94856
1.94994
1.94981
1.94939
1.94897
1.94806
1.94691
1.94486
1.94278
1.94006
1.93724
1.93397
1.93038
1.9267
1.92252
1.91857
1.91392
1.90971
1.90476
1.90027
1.89518
1.89042
1.88534
1.88039
1.87541
1.87043
1.86561
1.86072
1.85614
1.85148
1.84721
1.84297
1.83902
1.83548
1.83196
1.82937
1.82673
1.82522
1.82359
1.82364
1.82416
1.82568
1.82758
1.83141
1.83676
1.84451
1.85245
1.86129
1.86914
1.8763
1.88145
1.88515
1.88695
1.8879
1.88657
2.50004
2.47521
2.44269
2.41521
2.39296
2.37495
2.35976
2.34616
2.33318
2.31992
2.3066
2.29301
2.27914
2.26491
2.25001
2.23461
2.21863
2.20218
2.1855
2.16842
2.15139
2.1341
2.11697
2.09986
2.08291
2.06632
2.04991
2.03421
2.01884
2.00425
1.99028
1.97741
1.96546
1.95484
1.94556
1.93798
1.93139
1.92573
1.92154
1.91934
1.91834
1.91847
1.9192
1.92121
1.92432
1.92652
1.92899
1.92988
1.9308
1.93045
1.9301
1.92946
1.9281
1.92648
1.92387
1.92161
1.91816
1.91523
1.91116
1.90768
1.90329
1.89924
1.89467
1.89011
1.88544
1.88054
1.87579
1.87078
1.86598
1.86106
1.85626
1.85159
1.84691
1.84263
1.83819
1.83441
1.83038
1.82721
1.82391
1.82148
1.81943
1.81791
1.8171
1.81728
1.81836
1.81975
1.82277
1.827
1.83379
1.84138
1.85015
1.85853
1.86645
1.8729
1.87783
1.88106
1.88276
1.88321
1.88318
1.88138
2.53212
2.48593
2.44768
2.4193
2.3977
2.38003
2.36463
2.35024
2.33648
2.32259
2.30843
2.29411
2.27954
2.26485
2.24964
2.23414
2.21818
2.202
2.18546
2.16871
2.1518
2.13481
2.11776
2.10072
2.08373
2.06697
2.05038
2.03434
2.01857
2.00363
1.98913
1.9756
1.96269
1.95108
1.94012
1.93058
1.9223
1.91556
1.9096
1.90519
1.90264
1.9019
1.90205
1.90247
1.90415
1.90684
1.9092
1.91205
1.9132
1.91464
1.91457
1.91431
1.91382
1.91255
1.911
1.9083
1.90568
1.90247
1.89906
1.89549
1.89143
1.88743
1.88294
1.87853
1.87377
1.86904
1.86414
1.85925
1.85442
1.8495
1.84489
1.84008
1.83575
1.83132
1.82734
1.8236
1.8201
1.8174
1.81473
1.81333
1.81185
1.81178
1.81207
1.81322
1.81568
1.81878
1.82461
1.83164
1.83987
1.8486
1.85702
1.8645
1.8707
1.87521
1.87798
1.87946
1.87958
1.87927
1.87888
1.87679
2.57431
2.51323
2.46908
2.43879
2.41604
2.3968
2.37944
2.36282
2.34703
2.33144
2.31563
2.29982
2.28403
2.26827
2.25242
2.23644
2.22034
2.20392
2.18743
2.17061
2.15375
2.13693
2.11991
2.10309
2.08622
2.06959
2.05317
2.03706
2.02127
2.00596
1.99109
1.97695
1.96343
1.95092
1.93921
1.92898
1.91959
1.91191
1.90493
1.89931
1.89438
1.8912
1.88935
1.88932
1.88967
1.8908
1.89316
1.89612
1.89861
1.90096
1.90202
1.90273
1.90249
1.90199
1.901
1.89899
1.89661
1.89354
1.89048
1.88685
1.88325
1.87916
1.87504
1.87056
1.866
1.86129
1.85641
1.85165
1.84666
1.84195
1.83715
1.83254
1.82822
1.8239
1.82033
1.81666
1.81405
1.81152
1.81023
1.80907
1.80921
1.80972
1.81089
1.8135
1.81836
1.8244
1.83207
1.84052
1.84918
1.8572
1.86445
1.86995
1.8741
1.87646
1.87763
1.87761
1.87721
1.87638
1.87552
1.87315
2.61461
2.55441
2.5109
2.47822
2.45163
2.42741
2.40488
2.38371
2.36386
2.34553
2.32816
2.31123
2.29444
2.2777
2.26135
2.24489
2.22869
2.212
2.19533
2.17827
2.16119
2.14416
2.12714
2.11029
2.09354
2.07697
2.06064
2.04455
2.02874
2.01335
1.99841
1.98406
1.97041
1.95747
1.9454
1.93414
1.92389
1.91456
1.90657
1.89936
1.89325
1.88821
1.88506
1.88307
1.88288
1.88314
1.88409
1.88599
1.88885
1.89162
1.89435
1.8958
1.89683
1.8965
1.89592
1.89485
1.89272
1.89001
1.88661
1.88316
1.87922
1.87524
1.87091
1.8664
1.86177
1.85687
1.85207
1.84701
1.84216
1.83726
1.8325
1.82808
1.82366
1.81998
1.81628
1.81362
1.81118
1.80989
1.80912
1.8093
1.80993
1.81148
1.81502
1.82041
1.82731
1.83543
1.84374
1.85222
1.85979
1.86639
1.87151
1.87512
1.87731
1.87821
1.87812
1.87766
1.87691
1.87537
1.87411
1.87149
2.65099
2.59806
2.55858
2.52549
2.49578
2.4683
2.44263
2.41893
2.39656
2.37521
2.35456
2.33471
2.31554
2.29703
2.27909
2.26156
2.24416
2.22688
2.20959
2.19231
2.17493
2.15777
2.14078
2.12394
2.10749
2.09082
2.07471
2.05833
2.04255
2.02683
2.01186
1.99715
1.98339
1.96994
1.95737
1.9454
1.93411
1.92398
1.91442
1.9066
1.89907
1.89321
1.88757
1.88448
1.88182
1.88179
1.8822
1.88353
1.88543
1.88794
1.8909
1.89378
1.89542
1.89659
1.8963
1.8956
1.89424
1.89225
1.8891
1.88555
1.88135
1.87711
1.87251
1.86787
1.86309
1.85812
1.85327
1.84818
1.84336
1.83846
1.83384
1.82949
1.82539
1.82189
1.81879
1.81654
1.81503
1.81424
1.81437
1.81488
1.81687
1.82129
1.8271
1.83428
1.84224
1.85063
1.85857
1.86586
1.87181
1.87626
1.87946
1.88103
1.88178
1.88157
1.88119
1.8803
1.87926
1.8771
1.87575
1.87298
2.68251
2.63997
2.60532
2.5735
2.54388
2.51638
2.49018
2.46499
2.44052
2.41678
2.39364
2.37147
2.34996
2.32986
2.30966
2.29083
2.2713
2.25303
2.23432
2.21654
2.19873
2.18131
2.16412
2.147
2.13008
2.11295
2.0961
2.07943
2.06295
2.04741
2.03174
2.01736
2.00274
1.98929
1.97593
1.96348
1.95188
1.94075
1.93124
1.92183
1.91444
1.90688
1.90112
1.89538
1.89225
1.88946
1.88916
1.88961
1.89072