/*--------------------------------*- C++ -*----------------------------------*\
  =========                 |
  \\      /  F ield         | OpenFOAM: The Open Source CFD Toolbox
   \\    /   O peration     | Website:  https://openfoam.org
    \\  /    A nd           | Version:  9
     \\/     M anipulation  |
\*---------------------------------------------------------------------------*/
FoamFile
{
    format      ascii;
    class       volVectorField;
    location    "9";
    object      U;
}
// * * * * * * * * * * * * * * * * * * * * * * * * * * * * * * * * * * * * * //

dimensions      [0 1 -1 0 0 0 0];

internalField   nonuniform List<vector> 
5250
(
(2.99999 7.41416e-09 0)
(2.99998 1.03503e-07 0)
(2.99995 1.44301e-07 0)
(2.99988 9.78882e-07 0)
(2.9997 1.35485e-06 0)
(2.99928 5.34685e-06 0)
(2.9982 1.06669e-05 0)
(2.9956 2.87125e-05 0)
(2.98897 7.16439e-05 0)
(2.97251 0.000170155 0)
(2.92879 0.000434443 0)
(2.80692 0.00116033 0)
(2.44876 0.00318545 0)
(1.47047 0.00937022 0)
(0.646269 0.0219961 0)
(0.549868 0.0228713 0)
(0.570767 0.0237518 0)
(0.559441 0.0253377 0)
(0.504758 0.0271253 0)
(0.418412 0.0292147 0)
(0.337382 0.0317556 0)
(0.268723 0.0346817 0)
(0.198798 0.0377772 0)
(0.119412 0.0414201 0)
(0.0525329 0.0466435 0)
(2.99999 1.21819e-08 0)
(2.99998 3.34502e-07 0)
(2.99995 4.12832e-07 0)
(2.99988 3.29872e-06 0)
(2.99971 3.40299e-06 0)
(2.99929 2.02244e-05 0)
(2.99822 2.35399e-05 0)
(2.99565 0.000113052 0)
(2.98909 0.000167484 0)
(2.97281 0.000612931 0)
(2.92965 0.00122152 0)
(2.80912 0.00369267 0)
(2.45571 0.00975447 0)
(1.48532 0.0289952 0)
(0.655765 0.0666205 0)
(0.548655 0.0660611 0)
(0.570062 0.0658456 0)
(0.559287 0.0683072 0)
(0.504712 0.0712803 0)
(0.418578 0.0750958 0)
(0.3375 0.0795612 0)
(0.268217 0.0843131 0)
(0.197268 0.0887448 0)
(0.116545 0.0930975 0)
(0.0491723 0.0974865 0)
(2.99999 3.96262e-08 0)
(2.99998 4.43897e-07 0)
(2.99996 1.02775e-06 0)
(2.99989 4.41199e-06 0)
(2.99972 7.69922e-06 0)
(2.9993 2.87022e-05 0)
(2.99827 4.85787e-05 0)
(2.99572 0.000169806 0)
(2.98939 0.000314813 0)
(2.97338 0.000975595 0)
(2.93141 0.00215941 0)
(2.81391 0.00614372 0)
(2.47014 0.0166873 0)
(1.51869 0.0493075 0)
(0.67765 0.114915 0)
(0.547525 0.111776 0)
(0.570739 0.110307 0)
(0.561845 0.114884 0)
(0.508047 0.120529 0)
(0.422821 0.127975 0)
(0.342043 0.136245 0)
(0.272257 0.144876 0)
(0.200302 0.153141 0)
(0.118119 0.16074 0)
(0.0488242 0.166536 0)
(3 9.89239e-08 0)
(2.99998 4.05645e-07 0)
(2.99996 2.02115e-06 0)
(2.99989 4.01694e-06 0)
(2.99973 1.49113e-05 0)
(2.99932 2.76776e-05 0)
(2.99833 9.2583e-05 0)
(2.99587 0.0001786 0)
(2.98977 0.000549971 0)
(2.97434 0.00117301 0)
(2.93397 0.00330766 0)
(2.8212 0.00829771 0)
(2.49193 0.023682 0)
(1.5703 0.0688378 0)
(0.711271 0.16406 0)
(0.545245 0.15683 0)
(0.572542 0.153633 0)
(0.567317 0.160649 0)
(0.51494 0.169236 0)
(0.431293 0.180626 0)
(0.351073 0.19305 0)
(0.281 0.206093 0)
(0.207967 0.218931 0)
(0.123559 0.23056 0)
(0.0506951 0.238266 0)
(3 1.12601e-07 0)
(2.99998 5.48687e-07 0)
(2.99996 2.44846e-06 0)
(2.9999 5.38188e-06 0)
(2.99974 1.80208e-05 0)
(2.99936 3.79488e-05 0)
(2.9984 0.000110685 0)
(2.9961 0.000248139 0)
(2.99022 0.000660864 0)
(2.97569 0.00158919 0)
(2.93731 0.00414221 0)
(2.831 0.0107581 0)
(2.52071 0.030274 0)
(1.64074 0.0879296 0)
(0.756481 0.214923 0)
(0.541194 0.201705 0)
(0.575373 0.19609 0)
(0.575645 0.205523 0)
(0.525173 0.217012 0)
(0.443681 0.232373 0)
(0.364316 0.249212 0)
(0.29413 0.267171 0)
(0.219918 0.285335 0)
(0.132386 0.302011 0)
(0.0544301 0.312584 0)
(3 1.23286e-07 0)
(2.99999 7.92752e-07 0)
(2.99996 2.73044e-06 0)
(2.9999 7.77176e-06 0)
(2.99976 2.03401e-05 0)
(2.9994 5.17025e-05 0)
(2.99851 0.000128433 0)
(2.99633 0.000320872 0)
(2.99088 0.000791421 0)
(2.97726 0.00198109 0)
(2.94154 0.00500396 0)
(2.8432 0.0131622 0)
(2.55619 0.036684 0)
(1.73171 0.106339 0)
(0.814255 0.267888 0)
(0.535892 0.247136 0)
(0.580139 0.238246 0)
(0.587723 0.249968 0)
(0.539491 0.264307 0)
(0.460741 0.283818 0)
(0.382631 0.30564 0)
(0.312644 0.329521 0)
(0.237289 0.354508 0)
(0.145783 0.378413 0)
(0.0606565 0.394219 0)
(3 1.26039e-07 0)
(2.99999 1.00501e-06 0)
(2.99996 2.88901e-06 0)
(2.99991 9.89179e-06 0)
(2.99977 2.19111e-05 0)
(2.99945 6.44427e-05 0)
(2.99862 0.00014089 0)
(2.99666 0.000393734 0)
(2.9916 0.000884403 0)
(2.9792 0.00238918 0)
(2.94662 0.00570158 0)
(2.85746 0.0154897 0)
(2.59881 0.0423767 0)
(1.84354 0.123257 0)
(0.886975 0.321171 0)
(0.532225 0.292545 0)
(0.588842 0.280121 0)
(0.605099 0.293893 0)
(0.559174 0.310958 0)
(0.483734 0.334854 0)
(0.407404 0.362375 0)
(0.338177 0.393481 0)
(0.262151 0.427429 0)
(0.166219 0.462143 0)
(0.0711188 0.488132 0)
(3 1.38712e-07 0)
(2.99999 1.03798e-06 0)
(2.99997 3.25537e-06 0)
(2.99992 1.02155e-05 0)
(2.9998 2.47404e-05 0)
(2.9995 6.87908e-05 0)
(2.99878 0.000156686 0)
(2.99695 0.000432305 0)
(2.99255 0.000969937 0)
(2.98126 0.00265867 0)
(2.9525 0.00628523 0)
(2.87374 0.0171011 0)
(2.64685 0.0466418 0)
(1.97734 0.135645 0)
(0.976932 0.367961 0)
(0.536454 0.338352 0)
(0.605481 0.323524 0)
(0.630346 0.337694 0)
(0.586354 0.35678 0)
(0.514661 0.385221 0)
(0.440671 0.419251 0)
(0.37305 0.459111 0)
(0.297723 0.504665 0)
(0.198353 0.555633 0)
(0.0895543 0.602439 0)
(3 1.80885e-07 0)
(2.99999 9.44163e-07 0)
(2.99997 3.79535e-06 0)
(2.99993 9.38235e-06 0)
(2.99982 2.83503e-05 0)
(2.99956 6.35617e-05 0)
(2.99893 0.000181271 0)
(2.99733 0.000398556 0)
(2.99346 0.0011198 0)
(2.98363 0.00252599 0)
(2.95866 0.00687981 0)
(2.89123 0.0172085 0)
(2.69828 0.0484374 0)
(2.12741 0.139802 0)
(1.09001 0.398615 0)
(0.563051 0.385625 0)
(0.635192 0.373551 0)
(0.665819 0.383444 0)
(0.623777 0.403545 0)
(0.556221 0.435225 0)
(0.485131 0.47639 0)
(0.420244 0.52544 0)
(0.348698 0.585038 0)
(0.251384 0.661563 0)
(0.124298 0.751551 0)
(3 1.47872e-07 0)
(2.99999 9.33158e-07 0)
(2.99998 3.22833e-06 0)
(2.99994 9.19195e-06 0)
(2.99985 2.41247e-05 0)
(2.99963 6.12041e-05 0)
(2.99906 0.000153513 0)
(2.99774 0.000379675 0)
(2.99432 0.000949148 0)
(2.98606 0.00235201 0)
(2.96475 0.005922 0)
(2.90847 0.0152944 0)
(2.75013 0.0415645 0)
(2.28595 0.119313 0)
(1.24003 0.353416 0)
(0.632896 0.41254 0)
(0.685166 0.426452 0)
(0.713326 0.429116 0)
(0.673787 0.451676 0)
(0.610536 0.485077 0)
(0.54299 0.532738 0)
(0.482409 0.590312 0)
(0.4225 0.668437 0)
(0.342525 0.787189 0)
(0.191727 0.994039 0)
(3 1.22876e-07 0)
(2.99999 8.32286e-07 0)
(2.99998 2.72362e-06 0)
(2.99995 8.16681e-06 0)
(2.99987 2.03293e-05 0)
(2.99967 5.34776e-05 0)
(2.99919 0.000128142 0)
(2.998 0.000325708 0)
(2.9951 0.000784474 0)
(2.98777 0.00197315 0)
(2.96945 0.00485445 0)
(2.92093 0.0123866 0)
(2.78489 0.0328904 0)
(2.38752 0.0918213 0)
(1.37688 0.273098 0)
(0.688252 0.448892 0)
(0.709345 0.48179 0)
(0.739611 0.480163 0)
(0.718851 0.501249 0)
(0.667364 0.534359 0)
(0.609695 0.584624 0)
(0.561312 0.649915 0)
(0.530669 0.743523 0)
(0.52903 0.888892 0)
(0.564096 1.13075 0)
(3 1.15551e-07 0)
(2.99999 7.62538e-07 0)
(2.99998 2.52314e-06 0)
(2.99995 7.51271e-06 0)
(2.99988 1.86585e-05 0)
(2.99972 4.92319e-05 0)
(2.99929 0.00011771 0)
(2.99828 0.000298235 0)
(2.99569 0.000724226 0)
(2.98945 0.00179675 0)
(2.97343 0.00444288 0)
(2.93174 0.0112786 0)
(2.81564 0.0295985 0)
(2.47648 0.0826407 0)
(1.55459 0.242324 0)
(0.784868 0.502678 0)
(0.718717 0.527729 0)
(0.749781 0.527734 0)
(0.750503 0.545266 0)
(0.717471 0.579145 0)
(0.677767 0.629335 0)
(0.648839 0.699083 0)
(0.649071 0.797469 0)
(0.701671 0.935148 0)
(0.827559 1.11323 0)
(3 1.10534e-07 0)
(2.99999 6.90082e-07 0)
(2.99998 2.46025e-06 0)
(2.99996 6.76713e-06 0)
(2.9999 1.82535e-05 0)
(2.99975 4.56156e-05 0)
(2.9994 0.000113504 0)
(2.9985 0.000285131 0)
(2.99635 0.000685871 0)
(2.99087 0.00174302 0)
(2.97736 0.00423325 0)
(2.94182 0.0108296 0)
(2.84426 0.0282844 0)
(2.56103 0.0786218 0)
(1.75456 0.228437 0)
(0.912008 0.543876 0)
(0.728494 0.556565 0)
(0.759573 0.56059 0)
(0.777319 0.577323 0)
(0.762912 0.614415 0)
(0.742293 0.665533 0)
(0.73532 0.734445 0)
(0.758037 0.825463 0)
(0.830088 0.936828 0)
(0.969223 1.04611 0)
(3 1.09168e-07 0)
(3 6.61181e-07 0)
(2.99999 2.36167e-06 0)
(2.99997 6.51812e-06 0)
(2.99992 1.76513e-05 0)
(2.9998 4.35514e-05 0)
(2.99949 0.000112183 0)
(2.99876 0.000269038 0)
(2.99691 0.000690586 0)
(2.99241 0.00164718 0)
(2.98099 0.00425236 0)
(2.95181 0.0104277 0)
(2.87196 0.0277014 0)
(2.64259 0.0760203 0)
(1.97126 0.22051 0)
(1.06568 0.576512 0)
(0.750445 0.585716 0)
(0.777603 0.589877 0)
(0.806637 0.602201 0)
(0.808555 0.640194 0)
(0.803004 0.692096 0)
(0.812118 0.756351 0)
(0.848616 0.832994 0)
(0.924402 0.917992 0)
(1.05472 0.988965 0)
(3 9.70315e-08 0)
(3 6.31401e-07 0)
(2.99999 2.12915e-06 0)
(2.99997 6.23315e-06 0)
(2.99993 1.59827e-05 0)
(2.99983 4.13809e-05 0)
(2.99959 0.000101778 0)
(2.99898 0.000255934 0)
(2.9975 0.00063055 0)
(2.99384 0.00157257 0)
(2.98468 0.00392083 0)
(2.96136 0.00987037 0)
(2.89901 0.0256638 0)
(2.72191 0.0703503 0)
(2.20123 0.20314 0)
(1.25852 0.571542 0)
(0.81064 0.616963 0)
(0.815151 0.625144 0)
(0.84463 0.629761 0)
(0.858734 0.662 0)
(0.862052 0.710444 0)
(0.879445 0.76782 0)
(0.922304 0.831064 0)
(0.996619 0.895888 0)
(1.11359 0.946974 0)
(3 8.34153e-08 0)
(3 5.29764e-07 0)
(2.99999 1.8432e-06 0)
(2.99998 5.20599e-06 0)
(2.99995 1.3751e-05 0)
(2.99987 3.46399e-05 0)
(2.99967 8.63633e-05 0)
(2.9992 0.000215559 0)
(2.998 0.000525205 0)
(2.99515 0.00132509 0)
(2.98791 0.00321204 0)
(2.96994 0.00818763 0)
(2.92244 0.0206721 0)
(2.79101 0.0558909 0)
(2.41015 0.158418 0)
(1.49307 0.470563 0)
(0.912052 0.633419 0)
(0.869283 0.65874 0)
(0.889385 0.666396 0)
(0.911581 0.686232 0)
(0.920312 0.725641 0)
(0.94049 0.774368 0)
(0.984269 0.826283 0)
(1.05461 0.876565 0)
(1.15782 0.915264 0)
(3 6.60573e-08 0)
(3 4.50258e-07 0)
(2.99999 1.47333e-06 0)
(2.99998 4.39743e-06 0)
(2.99996 1.09972e-05 0)
(2.99989 2.89402e-05 0)
(2.99974 6.9169e-05 0)
(2.99935 0.000176914 0)
(2.99843 0.000420733 0)
(2.99608 0.00106077 0)
(2.9904 0.00256112 0)
(2.97592 0.00640741 0)
(2.93864 0.0160146 0)
(2.83571 0.0420421 0)
(2.53948 0.116035 0)
(1.72958 0.34454 0)
(1.02306 0.66079 0)
(0.906913 0.692255 0)
(0.922363 0.705186 0)
(0.95166 0.712834 0)
(0.971311 0.740907 0)
(0.994835 0.780177 0)
(1.03747 0.822125 0)
(1.10266 0.861242 0)
(1.19325 0.890704 0)
(3 6.2099e-08 0)
(3 3.55029e-07 0)
(2.99999 1.33175e-06 0)
(2.99999 3.49159e-06 0)
(2.99997 9.87965e-06 0)
(2.99992 2.32874e-05 0)
(2.99979 6.20113e-05 0)
(2.99949 0.000143688 0)
(2.99874 0.000375248 0)
(2.99694 0.000878222 0)
(2.99236 0.00226739 0)
(2.98114 0.00543679 0)
(2.95204 0.0139872 0)
(2.8732 0.035898 0)
(2.64811 0.0991082 0)
(1.99545 0.288159 0)
(1.18783 0.691225 0)
(0.941719 0.724537 0)
(0.948469 0.736057 0)
(0.981227 0.736939 0)
(1.01326 0.753928 0)
(1.04192 0.784931 0)
(1.08334 0.81888 0)
(1.14316 0.849402 0)
(1.22282 0.871534 0)
(3 4.81587e-08 0)
(3 3.14781e-07 0)
(3 1.07228e-06 0)
(2.99999 3.10359e-06 0)
(2.99997 7.9948e-06 0)
(2.99994 2.0699e-05 0)
(2.99984 5.02064e-05 0)
(2.99961 0.000127937 0)
(2.99904 0.000305982 0)
(2.99765 0.000782572 0)
(2.99419 0.00186796 0)
(2.98569 0.0047877 0)
(2.96396 0.0117431 0)
(2.90653 0.0306901 0)
(2.7451 0.0829804 0)
(2.2724 0.239202 0)
(1.41509 0.654109 0)
(1.0159 0.743386 0)
(0.990164 0.75703 0)
(1.01336 0.759129 0)
(1.05168 0.766733 0)
(1.08541 0.789559 0)
(1.12476 0.816438 0)
(1.1786 0.840081 0)
(1.24853 0.856192 0)
(3 3.8791e-08 0)
(3 2.54006e-07 0)
(3 8.57086e-07 0)
(2.99999 2.49291e-06 0)
(2.99998 6.38046e-06 0)
(2.99995 1.64887e-05 0)
(2.99988 4.01e-05 0)
(2.99971 0.00010104 0)
(2.99929 0.000243912 0)
(2.99824 0.000611352 0)
(2.9957 0.00147489 0)
(2.98937 0.00371246 0)
(2.97362 0.00908044 0)
(2.93249 0.0233161 0)
(2.82031 0.0615145 0)
(2.49685 0.173688 0)
(1.6902 0.51109 0)
(1.12794 0.748083 0)
(1.04278 0.774835 0)
(1.05239 0.784436 0)
(1.08882 0.784645 0)
(1.12585 0.797496 0)
(1.16299 0.816375 0)
(1.21064 0.833454 0)
(1.27173 0.844136 0)
(3 3.1708e-08 0)
(3 1.92824e-07 0)
(3 6.86848e-07 0)
(2.99999 1.88589e-06 0)
(2.99999 5.09274e-06 0)
(2.99996 1.24158e-05 0)
(2.99991 3.19223e-05 0)
(2.99978 7.59644e-05 0)
(2.99946 0.000192842 0)
(2.99868 0.000457528 0)
(2.99677 0.00115746 0)
(2.99203 0.00276432 0)
(2.98028 0.00699561 0)
(2.95005 0.0171605 0)
(2.86824 0.0450627 0)
(2.63615 0.1225 0)
(1.97992 0.362471 0)
(1.27613 0.755931 0)
(1.08541 0.799044 0)
(1.08378 0.81115 0)
(1.11669 0.807174 0)
(1.15896 0.807494 0)
(1.19645 0.817839 0)
(1.23932 0.828685 0)
(1.29271 0.8349 0)
(3 2.37915e-08 0)
(3 1.55594e-07 0)
(3 5.20552e-07 0)
(3 1.52971e-06 0)
(2.99999 3.88836e-06 0)
(2.99997 1.00394e-05 0)
(2.99993 2.46027e-05 0)
(2.99984 6.10449e-05 0)
(2.9996 0.000150654 0)
(2.99904 0.000365881 0)
(2.99762 0.000916816 0)
(2.99423 0.00220554 0)
(2.9856 0.00558536 0)
(2.96411 0.0136996 0)
(2.90688 0.0355777 0)
(2.74707 0.095744 0)
(2.28063 0.276612 0)
(1.49882 0.713392 0)
(1.15566 0.815147 0)
(1.12361 0.829138 0)
(1.14328 0.828294 0)
(1.18539 0.820078 0)
(1.22602 0.821045 0)
(1.26586 0.825446 0)
(1.31225 0.827328 0)
(3 1.81311e-08 0)
(3 1.15852e-07 0)
(3 4.01494e-07 0)
(3 1.13892e-06 0)
(2.99999 2.97764e-06 0)
(2.99998 7.58952e-06 0)
(2.99995 1.85393e-05 0)
(2.99989 4.67776e-05 0)
(2.99972 0.000111389 0)
(2.99932 0.000283875 0)
(2.99831 0.000668218 0)
(2.99592 0.00171297 0)
(2.98985 0.00406144 0)
(2.97502 0.0104065 0)
(2.93634 0.0257871 0)
(2.8316 0.0689803 0)
(2.53093 0.193145 0)
(1.79045 0.557054 0)
(1.27112 0.812526 0)
(1.1744 0.839788 0)
(1.17713 0.847384 0)
(1.21084 0.837141 0)
(1.25184 0.828608 0)
(1.29009 0.82563 0)
(1.32991 0.821038 0)
(3 1.35912e-08 0)
(3 8.61668e-08 0)
(3 3.00845e-07 0)
(3 8.43818e-07 0)
(2.99999 2.23137e-06 0)
(2.99999 5.5994e-06 0)
(2.99997 1.38524e-05 0)
(2.99992 3.43955e-05 0)
(2.9998 8.29705e-05 0)
(2.99951 0.000207605 0)
(2.99881 0.000494935 0)
(2.99706 0.00124878 0)
(2.99284 0.00297326 0)
(2.98219 0.00753001 0)
(2.95541 0.0184362 0)
(2.88332 0.0480599 0)
(2.68074 0.130222 0)
(2.10512 0.382999 0)
(1.43258 0.806642 0)
(1.22059 0.860574 0)
(1.20794 0.865866 0)
(1.23062 0.855485 0)
(1.27106 0.839095 0)
(1.30912 0.827842 0)
(1.34282 0.814091 0)
(3 1.01898e-08 0)
(3 6.28866e-08 0)
(3 2.20681e-07 0)
(3 6.17177e-07 0)
(3 1.6389e-06 0)
(2.99999 4.05739e-06 0)
(2.99998 1.02937e-05 0)
(2.99994 2.46164e-05 0)
(2.99986 6.23396e-05 0)
(2.99966 0.000147382 0)
(2.99918 0.000373685 0)
(2.99798 0.000882439 0)
(2.99509 0.00224356 0)
(2.98789 0.00535251 0)
(2.96997 0.0136531 0)
(2.92335 0.0340814 0)
(2.79588 0.0920131 0)
(2.42654 0.262875 0)
(1.69534 0.691032 0)
(1.31013 0.852691 0)
(1.25181 0.869591 0)
(1.25796 0.867683 0)
(1.28994 0.847908 0)
(1.32443 0.826626 0)
(1.35057 0.802574 0)
(3 6.95751e-09 0)
(3 4.52486e-08 0)
(3 1.53114e-07 0)
(3 4.42717e-07 0)
(3 1.13479e-06 0)
(2.99999 2.90923e-06 0)
(2.99998 7.08377e-06 0)
(2.99996 1.76582e-05 0)
(2.9999 4.26503e-05 0)
(2.99977 0.000105219 0)
(2.99942 0.000254902 0)
(2.99862 0.000624473 0)
(2.99657 0.00152391 0)
(2.9917 0.00373183 0)
(2.97931 0.00917649 0)
(2.94809 0.0229751 0)
(2.86403 0.0594558 0)
(2.62591 0.163718 0)
(1.9969 0.473701 0)
(1.43291 0.827629 0)
(1.29262 0.872825 0)
(1.28271 0.874288 0)
(1.30185 0.855653 0)
(1.33125 0.823741 0)
(1.35088 0.78578 0)
(3 5.15317e-09 0)
(3 3.12593e-08 0)
(3 1.12298e-07 0)
(3 3.06062e-07 0)
(3 8.28824e-07 0)
(3 2.0249e-06 0)
(2.99999 5.12651e-06 0)
(2.99997 1.24017e-05 0)
(2.99993 3.05544e-05 0)
(2.99984 7.46477e-05 0)
(2.99961 0.000180612 0)
(2.99904 0.000448443 0)
(2.99768 0.00106974 0)
(2.99427 0.00269056 0)
(2.98598 0.00644756 0)
(2.96496 0.0163329 0)
(2.90981 0.0411633 0)
(2.75792 0.110837 0)
(2.31774 0.320203 0)
(1.64068 0.75963 0)
(1.34732 0.87319 0)
(1.30658 0.877232 0)
(1.31104 0.857367 0)
(1.3278 0.818173 0)
(1.34065 0.766025 0)
(3 3.45813e-09 0)
(3 2.26763e-08 0)
(3 7.58816e-08 0)
(3 2.21902e-07 0)
(3 5.63111e-07 0)
(3 1.44986e-06 0)
(2.99999 3.52783e-06 0)
(2.99998 8.74667e-06 0)
(2.99996 2.13031e-05 0)
(2.99989 5.18094e-05 0)
(2.99974 0.000127664 0)
(2.99936 0.000306083 0)
(2.99844 0.000762749 0)
(2.99618 0.001818 0)
(2.99067 0.00457136 0)
(2.97693 0.0110507 0)
(2.9418 0.0281462 0)
(2.84782 0.0732103 0)
(2.5786 0.205543 0)
(1.92948 0.573338 0)
(1.44906 0.852102 0)
(1.33292 0.876964 0)
(1.31618 0.847966 0)
(1.31843 0.798968 0)
(1.32012 0.733585 0)
(3 2.32941e-09 0)
(3 1.56436e-08 0)
(3 5.14859e-08 0)
(3 1.52883e-07 0)
(3 3.81478e-07 0)
(3 9.99062e-07 0)
(2.99999 2.37997e-06 0)
(2.99999 6.02293e-06 0)
(2.99997 1.43265e-05 0)
(2.99993 3.56082e-05 0)
(2.99982 8.5605e-05 0)
(2.99957 0.000209469 0)
(2.99894 0.000511555 0)
(2.99744 0.00123362 0)
(2.99367 0.0030615 0)
(2.98455 0.00738562 0)
(2.96129 0.0185635 0)
(2.90038 0.0470322 0)
(2.7311 0.127042 0)
(2.25228 0.368442 0)
(1.61734 0.793844 0)
(1.35441 0.871983 0)
(1.30398 0.832316 0)
(1.29431 0.7636 0)
(1.28816 0.682673 0)
(3 1.5657e-09 0)
(3 1.03332e-08 0)
(3 3.49073e-08 0)
(3 1.00803e-07 0)
(3 2.58031e-07 0)
(3 6.62923e-07 0)
(3 1.59116e-06 0)
(2.99999 4.02584e-06 0)
(2.99998 9.46981e-06 0)
(2.99995 2.39448e-05 0)
(2.99988 5.61272e-05 0)
(2.99971 0.000141505 0)
(2.99929 0.000332992 0)
(2.9983 0.000834836 0)
(2.9958 0.00198764 0)
(2.98983 0.00495366 0)
(2.97472 0.0120603 0)
(2.93629 0.030504 0)
(2.83308 0.0799162 0)
(2.53723 0.226382 0)
(1.87683 0.606905 0)
(1.41053 0.83002 0)
(1.28063 0.799965 0)
(1.25422 0.711115 0)
(1.25003 0.621397 0)
(3 1.05265e-09 0)
(3 6.57756e-09 0)
(3 2.29988e-08 0)
(3 6.41329e-08 0)
(3 1.69497e-07 0)
(3 4.19452e-07 0)
(3 1.04555e-06 0)
(2.99999 2.53296e-06 0)
(2.99999 6.20198e-06 0)
(2.99997 1.50182e-05 0)
(2.99992 3.64165e-05 0)
(2.9998 8.86367e-05 0)
(2.99951 0.000213258 0)
(2.99882 0.000522906 0)
(2.9971 0.00125131 0)
(2.99294 0.00308891 0)
(2.98252 0.00747141 0)
(2.95629 0.0185973 0)
(2.88667 0.0474286 0)
(2.69201 0.128218 0)
(2.15932 0.371206 0)
(1.49568 0.754293 0)
(1.22679 0.76038 0)
(1.18661 0.652942 0)
(1.20266 0.563112 0)
(3 6.67827e-10 0)
(3 4.13299e-09 0)
(3 1.44792e-08 0)
(3 4.03343e-08 0)
(3 1.06556e-07 0)
(3 2.63002e-07 0)
(3 6.58064e-07 0)
(3 1.577e-06 0)
(2.99999 3.88615e-06 0)
(2.99998 9.2948e-06 0)
(2.99994 2.2723e-05 0)
(2.99986 5.4438e-05 0)
(2.99965 0.000132406 0)
(2.99916 0.000318866 0)
(2.99793 0.000771741 0)
(2.99501 0.0018697 0)
(2.98761 0.00454194 0)
(2.9694 0.0111567 0)
(2.92171 0.0280211 0)
(2.79183 0.0739875 0)
(2.42395 0.211288 0)
(1.65817 0.553572 0)
(1.17423 0.660176 0)
(1.0943 0.573949 0)
(1.13911 0.500809 0)
(3 3.96835e-10 0)
(3 2.53413e-09 0)
(3 8.74788e-09 0)
(3 2.45943e-08 0)
(3 6.4209e-08 0)
(3 1.59405e-07 0)
(3 3.92356e-07 0)
(3 9.5261e-07 0)
(2.99999 2.29183e-06 0)
(2.99998 5.56924e-06 0)
(2.99996 1.3227e-05 0)
(2.99989 3.22374e-05 0)
(2.99973 7.5949e-05 0)
(2.99935 0.000185785 0)
(2.99839 0.00043473 0)
(2.99608 0.00106234 0)
(2.99025 0.0025056 0)
(2.97578 0.00611363 0)
(2.93806 0.0148391 0)
(2.83467 0.0378421 0)
(2.54028 0.101392 0)
(1.77823 0.292079 0)
(1.09352 0.514654 0)
(0.95767 0.470367 0)
(1.04175 0.426749 0)
(3 2.58469e-10 0)
(3 1.44508e-09 0)
(3 5.47124e-09 0)
(3 1.40538e-08 0)
(3 3.99173e-08 0)
(3 9.14654e-08 0)
(3 2.4451e-07 0)
(3 5.45655e-07 0)
(2.99999 1.43255e-06 0)
(2.99999 3.19969e-06 0)
(2.99996 8.2446e-06 0)
(2.99991 1.87307e-05 0)
(2.99978 4.69661e-05 0)
(2.99946 0.00010952 0)
(2.99866 0.000266714 0)
(2.99673 0.000639587 0)
(2.99181 0.00152217 0)
(2.97964 0.00373967 0)
(2.94777 0.00903167 0)
(2.86032 0.0229817 0)
(2.6076 0.0609553 0)
(1.89247 0.172276 0)
(1.0262 0.399132 0)
(0.785115 0.367795 0)
(0.920908 0.353377 0)
(3 1.4311e-10 0)
(3 8.89626e-10 0)
(3 3.13062e-09 0)
(3 8.63465e-09 0)
(3 2.29159e-08 0)
(3 5.64534e-08 0)
(3 1.39474e-07 0)
(3 3.40297e-07 0)
(2.99999 8.17804e-07 0)
(2.99999 2.00681e-06 0)
(2.99997 4.74852e-06 0)
(2.99992 1.18079e-05 0)
(2.99981 2.75544e-05 0)
(2.99953 6.91019e-05 0)
(2.99884 0.000160039 0)
(2.99712 0.000405626 0)
(2.99282 0.000935593 0)
(2.98204 0.0023782 0)
(2.9539 0.00568506 0)
(2.87703 0.0146763 0)
(2.65217 0.0391408 0)
(1.99036 0.110242 0)
(0.986331 0.292338 0)
(0.613164 0.270524 0)
(0.805004 0.289105 0)
(3 7.28301e-11 0)
(3 5.82214e-10 0)
(3 1.73509e-09 0)
(3 5.64502e-09 0)
(3 1.27757e-08 0)
(3 3.69273e-08 0)
(3 7.69679e-08 0)
(3 2.24957e-07 0)
(3 4.52055e-07 0)
(2.99999 1.33017e-06 0)
(2.99997 2.69187e-06 0)
(2.99993 7.7562e-06 0)
(2.99983 1.63122e-05 0)
(2.99957 4.50546e-05 0)
(2.99894 9.95514e-05 0)
(2.99738 0.000263616 0)
(2.99345 0.000612605 0)
(2.98359 0.00155824 0)
(2.95797 0.00379224 0)
(2.88776 0.00993849 0)
(2.68283 0.026696 0)
(2.06387 0.0768044 0)
(0.973578 0.217835 0)
(0.483378 0.203817 0)
(0.718432 0.244106 0)
(3 6.26995e-11 0)
(3 3.06399e-10 0)
(3 1.25456e-09 0)
(3 3.0061e-09 0)
(3 9.1579e-09 0)
(3 1.96261e-08 0)
(3 5.7777e-08 0)
(3 1.15544e-07 0)
(3 3.50065e-07 0)
(2.99999 6.70639e-07 0)
(2.99997 2.08977e-06 0)
(2.99993 4.02358e-06 0)
(2.99984 1.23261e-05 0)
(2.9996 2.47391e-05 0)
(2.99902 7.35079e-05 0)
(2.99755 0.000156625 0)
(2.9939 0.000443897 0)
(2.98468 0.00101264 0)
(2.96091 0.00276164 0)
(2.8959 0.00702605 0)
(2.70699 0.0199286 0)
(2.13256 0.0594271 0)
(0.995224 0.178095 0)
(0.418709 0.170412 0)
(0.666592 0.209653 0)
(3 3.89027e-11 0)
(3 2.33599e-10 0)
(3 7.95954e-10 0)
(3 2.27579e-09 0)
(3 5.99759e-09 0)
(3 1.41539e-08 0)
(3 3.93904e-08 0)
(3 8.07326e-08 0)
(3 2.47244e-07 0)
(2.99999 4.63614e-07 0)
(2.99997 1.51838e-06 0)
(2.99994 2.69592e-06 0)
(2.99985 9.24857e-06 0)
(2.99962 1.63445e-05 0)
(2.99905 5.52971e-05 0)
(2.99769 0.000102317 0)
(2.99417 0.000333259 0)
(2.98553 0.000685325 0)
(2.96296 0.0020463 0)
(2.90224 0.00500113 0)
(2.72666 0.0146857 0)
(2.19644 0.0444406 0)
(1.03763 0.138318 0)
(0.406 0.154421 0)
(0.644944 0.184248 0)
(3 2.93968e-11 0)
(3 1.58783e-10 0)
(3 6.68937e-10 0)
(3 1.51923e-09 0)
(3 4.91583e-09 0)
(3 1.022e-08 0)
(3 2.91995e-08 0)
(3 6.63932e-08 0)
(3 1.62803e-07 0)
(2.99999 4.2969e-07 0)
(2.99998 9.05397e-07 0)
(2.99994 2.74827e-06 0)
(2.99985 5.21796e-06 0)
(2.99964 1.7291e-05 0)
(2.99909 3.07593e-05 0)
(2.99778 0.000108911 0)
(2.99439 0.000189142 0)
(2.98611 0.000666871 0)
(2.9645 0.0013199 0)
(2.9066 0.00407362 0)
(2.7403 0.0106224 0)
(2.2405 0.0324693 0)
(1.08363 0.100188 0)
(0.418419 0.146452 0)
(0.639037 0.168151 0)
(3 1.684e-11 0)
(3 1.41291e-10 0)
(3 4.25757e-10 0)
(3 1.36421e-09 0)
(3 3.19978e-09 0)
(3 9.4092e-09 0)
(3 1.83908e-08 0)
(3 6.0016e-08 0)
(3 1.03074e-07 0)
(2.99999 3.72464e-07 0)
(2.99998 5.86503e-07 0)
(2.99994 2.32123e-06 0)
(2.99986 3.50166e-06 0)
(2.99965 1.42684e-05 0)
(2.99913 2.28071e-05 0)
(2.99782 8.62304e-05 0)
(2.99463 0.000154624 0)
(2.98647 0.00051837 0)
(2.9658 0.00109664 0)
(2.91007 0.00326291 0)
(2.75052 0.00859952 0)
(2.27406 0.0259643 0)
(1.13262 0.0794732 0)
(0.445001 0.136491 0)
(0.639404 0.155198 0)
(3 1.3386e-11 0)
(3 1.33664e-10 0)
(3 2.93261e-10 0)
(3 1.30181e-09 0)
(3 2.24673e-09 0)
(3 7.94976e-09 0)
(3 1.52472e-08 0)
(3 4.45078e-08 0)
(3 1.02953e-07 0)
(2.99999 2.39858e-07 0)
(2.99998 6.96106e-07 0)
(2.99994 1.29998e-06 0)
(2.99986 4.61963e-06 0)
(2.99966 7.30795e-06 0)
(2.99915 2.97593e-05 0)
(2.99789 4.34325e-05 0)
(2.99475 0.000191871 0)
(2.98689 0.000295665 0)
(2.96681 0.00114961 0)
(2.91283 0.00243213 0)
(2.7596 0.00751679 0)
(2.30127 0.0217201 0)
(1.17887 0.0672607 0)
(0.476354 0.123272 0)
(0.642829 0.143624 0)
(3 1.68403e-11 0)
(3 7.25635e-11 0)
(3 3.5879e-10 0)
(3 7.09119e-10 0)
(3 2.63466e-09 0)
(3 4.78633e-09 0)
(3 1.58573e-08 0)
(3 3.15042e-08 0)
(3 8.78178e-08 0)
(2.99999 2.06447e-07 0)
(2.99998 4.95652e-07 0)
(2.99995 1.34976e-06 0)
(2.99986 2.8463e-06 0)
(2.99967 8.70649e-06 0)
(2.99916 1.73509e-05 0)
(2.99796 5.66898e-05 0)
(2.99484 0.000109318 0)
(2.98727 0.000363779 0)
(2.96759 0.000766715 0)
(2.91538 0.00232615 0)
(2.76699 0.00616467 0)
(2.32534 0.0186451 0)
(1.22159 0.0576613 0)
(0.509702 0.110361 0)
(0.645723 0.131384 0)
(3 1.56378e-11 0)
(3 5.09168e-11 0)
(3 3.40328e-10 0)
(3 5.2239e-10 0)
(3 2.4235e-09 0)
(3 3.91121e-09 0)
(3 1.37219e-08 0)
(3 2.69772e-08 0)
(3 7.30708e-08 0)
(2.99999 1.9231e-07 0)
(2.99998 3.82054e-07 0)
(2.99995 1.31793e-06 0)
(2.99987 2.04135e-06 0)
(2.99967 8.9064e-06 0)
(2.99919 1.20033e-05 0)
(2.99797 5.82349e-05 0)
(2.995 7.2901e-05 0)
(2.98744 0.000363923 0)
(2.96845 0.000573813 0)
(2.9174 0.00209467 0)
(2.77336 0.00518025 0)
(2.34619 0.0159568 0)
(1.26051 0.0491773 0)
(0.542193 0.0971466 0)
(0.647822 0.116092 0)
(3 1.65902e-11 0)
(3 3.28599e-11 0)
(3 2.92793e-10 0)
(3 3.46922e-10 0)
(3 2.02551e-09 0)
(3 2.28205e-09 0)
(3 1.29653e-08 0)
(3 1.30269e-08 0)
(3 8.39509e-08 0)
(2.99999 8.41481e-08 0)
(2.99998 5.12373e-07 0)
(2.99995 6.1467e-07 0)
(2.99987 3.07444e-06 0)
(2.99968 4.60368e-06 0)
(2.9992 1.76472e-05 0)
(2.99801 3.45128e-05 0)
(2.9951 0.000100172 0)
(2.98769 0.00024516 0)
(2.96904 0.00063951 0)
(2.91929 0.00164329 0)
(2.77865 0.00470059 0)
(2.36392 0.0136168 0)
(1.29499 0.0416408 0)
(0.571722 0.0839211 0)
(0.649996 0.0991439 0)
(3 -5.39912e-12 0)
(3 6.62077e-11 0)
(3 -3.95888e-11 0)
(3 6.48348e-10 0)
(3 -9.4762e-11 0)
(3 4.26519e-09 0)
(3 1.30252e-10 0)
(3 2.65501e-08 0)
(3 6.6504e-09 0)
(2.99999 1.54605e-07 0)
(2.99998 1.07236e-07 0)
(2.99995 8.86299e-07 0)
(2.99987 1.16192e-06 0)
(2.99968 5.03146e-06 0)
(2.99921 1.04348e-05 0)
(2.99804 2.9357e-05 0)
(2.99518 8.64948e-05 0)
(2.9879 0.000183269 0)
(2.9696 0.000590943 0)
(2.92087 0.0014277 0)
(2.78337 0.00413016 0)
(2.37857 0.0118543 0)
(1.32485 0.035028 0)
(0.59729 0.0712727 0)
(0.652201 0.0811956 0)
(3 1.2526e-12 0)
(3 2.11449e-11 0)
(3 4.88879e-11 0)
(3 1.96921e-10 0)
(3 3.98256e-10 0)
(3 1.61994e-09 0)
(3 3.06113e-09 0)
(3 1.23972e-08 0)
(3 2.09275e-08 0)
(2.99999 9.17368e-08 0)
(2.99998 1.48398e-07 0)
(2.99995 6.41302e-07 0)
(2.99987 1.06121e-06 0)
(2.99968 4.53558e-06 0)
(2.99922 7.61207e-06 0)
(2.99807 3.05949e-05 0)
(2.99523 6.07333e-05 0)
(2.9881 0.000197896 0)
(2.9701 0.00045492 0)
(2.92218 0.00132303 0)
(2.78774 0.00356481 0)
(2.39037 0.0102479 0)
(1.35029 0.0292013 0)
(0.618164 0.0595799 0)
(0.654181 0.062392 0)
(3 2.84457e-12 0)
(3 1.39552e-11 0)
(3 4.97192e-11 0)
(3 1.67967e-10 0)
(3 3.6542e-10 0)
(3 1.0012e-09 0)
(3 3.6563e-09 0)
(3 5.49183e-09 0)
(3 3.19454e-08 0)
(2.99999 4.00281e-08 0)
(2.99998 2.4302e-07 0)
(2.99995 2.78918e-07 0)
(2.99987 1.78105e-06 0)
(2.99969 2.15247e-06 0)
(2.99924 1.24261e-05 0)
(2.99808 1.4446e-05 0)
(2.99532 8.24891e-05 0)
(2.98823 0.000109903 0)
(2.97055 0.00048133 0)
(2.92348 0.000943075 0)
(2.79099 0.00303092 0)
(2.40091 0.00823966 0)
(1.37184 0.0234149 0)
(0.633796 0.0475604 0)
(0.655112 0.0450574 0)
(3 4.75903e-13 0)
(3 1.65585e-11 0)
(3 -2.63341e-11 0)
(3 1.98887e-10 0)
(3 -8.20062e-11 0)
(3 8.96763e-10 0)
(3 1.42854e-09 0)
(3 2.56894e-09 0)
(3 2.3385e-08 0)
(2.99999 3.86467e-09 0)
(2.99998 2.23345e-07 0)
(2.99995 -2.49837e-08 0)
(2.99987 1.79823e-06 0)
(2.99969 -3.30274e-07 0)
(2.99923 1.2741e-05 0)
(2.99813 -1.37372e-06 0)
(2.99531 7.83092e-05 0)
(2.98844 2.16405e-05 0)
(2.97079 0.000410121 0)
(2.92435 0.000539593 0)
(2.79391 0.00216775 0)
(2.4083 0.00570204 0)
(1.38981 0.0170044 0)
(0.644964 0.0345474 0)
(0.654513 0.0307195 0)
(3 4.54613e-12 0)
(3 8.17054e-12 0)
(3 6.96721e-11 0)
(3 7.1186e-11 0)
(3 5.16241e-10 0)
(3 4.55304e-10 0)
(3 3.54801e-09 0)
(3 2.47743e-09 0)
(3 2.48294e-08 0)
(2.99999 1.67128e-08 0)
(2.99998 1.63577e-07 0)
(2.99995 9.93654e-08 0)
(2.99987 1.04173e-06 0)
(2.99969 6.03582e-07 0)
(2.99924 5.90629e-06 0)
(2.99814 5.75576e-06 0)
(2.99534 2.97502e-05 0)
(2.9885 5.11185e-05 0)
(2.97098 0.000173062 0)
(2.92496 0.000383328 0)
(2.79537 0.00117826 0)
(2.41382 0.00325705 0)
(1.40186 0.0102633 0)
(0.653168 0.0210287 0)
(0.654266 0.0179846 0)
(3 -3.4856e-12 0)
(3 2.70285e-11 0)
(3 -2.59067e-11 0)
(3 2.53623e-10 0)
(3 -1.38998e-10 0)
(3 1.61959e-09 0)
(3 -9.81919e-10 0)
(3 9.51993e-09 0)
(3 -5.30184e-09 0)
(2.99999 5.22971e-08 0)
(2.99998 -1.23257e-08 0)
(2.99995 2.27432e-07 0)
(2.99987 9.66456e-08 0)
(2.9997 8.28941e-07 0)
(2.99924 1.73405e-06 0)
(2.99815 2.20164e-06 0)
(2.99534 1.55086e-05 0)
(2.98856 7.12444e-06 0)
(2.97106 8.31692e-05 0)
(2.92522 0.000102048 0)
(2.79626 0.00041415 0)
(2.41626 0.00106679 0)
(1.40811 0.00344009 0)
(0.657148 0.00707705 0)
(0.653966 0.00594693 0)
(1.11717 0.999012 0)
(0.997874 0.709439 0)
(0.082939 0.425245 0)
(-0.422612 0.0212356 0)
(-0.549042 -0.0086004 0)
(-0.691604 -0.0232471 0)
(-0.745589 -0.0112345 0)
(-0.793389 0.0112057 0)
(-0.855171 0.0178587 0)
(-0.913671 0.0147245 0)
(-0.959457 0.00624301 0)
(-0.996389 -0.00162309 0)
(-1.0244 -0.00259128 0)
(-1.03724 -0.00252791 0)
(-1.03691 -0.00355613 0)
(-1.02481 -0.00516795 0)
(-0.999663 -0.00745793 0)
(-0.961837 -0.00997538 0)
(-0.915114 -0.0120864 0)
(-0.863777 -0.013264 0)
(-0.810786 -0.0137291 0)
(-0.757589 -0.0138029 0)
(-0.704956 -0.0137322 0)
(-0.65296 -0.0136612 0)
(-0.601516 -0.0136566 0)
(-0.550431 -0.013782 0)
(-0.499548 -0.0141282 0)
(-0.448907 -0.0146849 0)
(-0.397741 -0.0158471 0)
(-0.346019 -0.0174107 0)
(-0.294786 -0.0185709 0)
(-0.244593 -0.0194188 0)
(-0.195445 -0.0203332 0)
(-0.147178 -0.021127 0)
(-0.0995031 -0.0219184 0)
(-0.0526693 -0.022828 0)
(-0.00654223 -0.025209 0)
(0.0446363 -0.0244791 0)
(0.0891887 -0.0225898 0)
(0.132828 -0.0213731 0)
(0.175105 -0.0207106 0)
(0.215658 -0.019914 0)
(0.254708 -0.0190991 0)
(0.291386 -0.0182601 0)
(0.327531 -0.0179093 0)
(0.36525 -0.0181381 0)
(0.402729 -0.0176934 0)
(0.438691 -0.0169611 0)
(0.4734 -0.0162665 0)
(0.507221 -0.0157106 0)
(0.540285 -0.0151897 0)
(0.572661 -0.014726 0)
(0.60433 -0.0142367 0)
(0.635369 -0.0137807 0)
(0.665762 -0.0133231 0)
(0.695561 -0.0128897 0)
(0.72476 -0.0124637 0)
(0.753383 -0.0120527 0)
(0.78145 -0.011645 0)
(0.808973 -0.0112539 0)
(0.835962 -0.0108629 0)
(0.862441 -0.0104869 0)
(0.888423 -0.0101105 0)
(0.913923 -0.00974982 0)
(0.93895 -0.00938571 0)
(0.963525 -0.00903525 0)
(0.987649 -0.0086819 0)
(1.01134 -0.00833611 0)
(1.03461 -0.00798918 0)
(1.05746 -0.00764412 0)
(1.07989 -0.00729822 0)
(1.10191 -0.00695207 0)
(1.12352 -0.00660523 0)
(1.14473 -0.00625904 0)
(1.16554 -0.00591349 0)
(1.18595 -0.00557082 0)
(1.20596 -0.00523073 0)
(1.2256 -0.00489662 0)
(1.24486 -0.00456727 0)
(1.26376 -0.00424654 0)
(1.2823 -0.00393236 0)
(1.30049 -0.00362678 0)
(1.31834 -0.00332815 0)
(1.33585 -0.00303749 0)
(1.35302 -0.00275241 0)
(1.36985 -0.00248105 0)
(1.38634 -0.00222193 0)
(1.40248 -0.00196436 0)
(1.41827 -0.0017038 0)
(1.43368 -0.00145122 0)
(1.4487 -0.00121285 0)
(1.46329 -0.000990306 0)