/*--------------------------------*- C++ -*----------------------------------*\
  =========                 |
  \\      /  F ield         | OpenFOAM: The Open Source CFD Toolbox
   \\    /   O peration     | Website:  https://openfoam.org
    \\  /    A nd           | Version:  9
     \\/     M anipulation  |
\*---------------------------------------------------------------------------*/
FoamFile
{
    format      ascii;
    class       volScalarField;
    location    "12";
    object      p;
}
// * * * * * * * * * * * * * * * * * * * * * * * * * * * * * * * * * * * * * //

dimensions      [0 2 -2 0 0 0 0];

internalField   nonuniform List<scalar> 
400
(
-7.9928886e-08
-0.00067057958
-0.0013796495
-0.0019334838
-0.002207415
-0.0021410301
-0.0017101503
-0.00090728514
0.00025458312
0.0017258292
0.0034042626
0.0051275615
0.0066877384
0.0078634056
0.0084742682
0.0084426097
0.0078363152
0.0068716219
0.0058911531
0.0053297779
0.00065580986
-4.0136548e-05
-0.0005665921
-0.00093471666
-0.0011019722
-0.0010280918
-0.00069130377
-7.8940476e-05
0.00080707691
0.0019347334
0.0032280258
0.0045727044
0.005799713
0.0067344751
0.0072341605
0.0072368075
0.0067953973
0.006081331
0.0053412702
0.0047703483
0.0014181855
0.00043869798
-0.00011574658
-0.00044960537
-0.00060808127
-0.00057475383
-0.00033318893
0.00013613091
0.00084717782
0.0017900861
0.0029150667
0.0041189887
0.005249034
0.006132219
0.0066164597
0.0066225669
0.0061835944
0.0054523475
0.0046269045
0.0037827633
0.0020053952
0.00067769845
1.5967367e-05
-0.00035657466
-0.00056566796
-0.00061656698
-0.00049574777
-0.00017217763
0.00039035972
0.0012085712
0.0022552356
0.0034429737
0.0046166991
0.0055822925
0.0061497273
0.0061946159
0.0057144375
0.0048509421
0.003783942
0.0025125401
0.0021566175
0.00049139119
-0.0002973654
-0.00074620966
-0.0010512872
-0.0012329942
-0.0012747069
-0.0011276561
-0.00072664969
-2.1361594e-05
0.0009904065
0.0022439091
0.0035776031
0.0047646613
0.0055535809
0.0057425384
0.0052641185
0.0042394363
0.0028472374
0.001028403
0.0016440551
-0.00031771469
-0.0012379635
-0.001794148
-0.0022418363
-0.0026101634
-0.0028732593
-0.002958236
-0.0027632623
-0.0021938536
-0.0012051591
0.0001771434
0.0017893536
0.0033694545
0.0045819145
0.0051052136
0.0047578312
0.0036089981
0.0018358891
-0.0006750814
0.00028130906
-0.0019184216
-0.0029673936
-0.0036605422
-0.0043022922
-0.0049263057
-0.0054933688
-0.0059014504
-0.006004039
-0.0056462213
-0.0047110723
-0.0031942792
-0.0012047907
0.0009645533
0.0028758311
0.0040359841
0.004072893
0.0029366566
0.00076765331
-0.0026226264
-0.0020741509
-0.0044425102
-0.0056133745
-0.0064726427
-0.0073644
-0.0083261496
-0.0093049468
-0.010167505
-0.0107159
-0.010721784
-0.0099760334
-0.0083742388
-0.0059569068
-0.0030058871
-5.6813745e-05
0.002174923
0.0030214097
0.0021919417
-0.00030725562
-0.0048074846
-0.00551035
-0.0079730213
-0.0092539682
-0.010302594
-0.011496287
-0.0128804
-0.0143928
-0.015871516
-0.017064473
-0.017658147
-0.017324749
-0.015805637
-0.01301351
-0.0091508052
-0.0048090923
-0.0009513882
0.0013390438
0.0013426576
-0.001268557
-0.0071297846
-0.010048895
-0.012533543
-0.013900419
-0.015139751
-0.016662204
-0.018531238
-0.02068572
-0.022943138
-0.025000836
-0.026454036
-0.026830572
-0.025673107
-0.022710876
-0.017949635
-0.011939854
-0.0058556478
-0.0012878278
0.00037448957
-0.0018757757
-0.0093051379
-0.015641509
-0.01808765
-0.019488674
-0.020869644
-0.02268784
-0.02504353
-0.02789208
-0.031042843
-0.034151455
-0.03672457
-0.038134905
-0.037682846
-0.034911289
-0.029458073
-0.02169404
-0.012874192
-0.0050902114
-0.00063396697
-0.0016884938
-0.010713038
-0.022185122
-0.024555881
-0.025885427
-0.027267007
-0.029243566
-0.031981899
-0.035472531
-0.039529172
-0.043775234
-0.047637361
-0.050360748
-0.051069535
-0.048795011
-0.042992995
-0.03363354
-0.021808019
-0.0099359954
-0.0013296615
6.6680131e-05
-0.010149073
-0.029570001
-0.03185675
-0.03291034
-0.034005168
-0.035853341
-0.038729345
-0.042674796
-0.04751218
-0.052835461
-0.057998145
-0.062115213
-0.064099985
-0.06271883
-0.056969087
-0.046348836
-0.031537006
-0.014941375
-0.00078209588
0.0047185608
-0.005454009
-0.037785985
-0.039975191
-0.040367986
-0.040676635
-0.041929903
-0.044553431
-0.048640884
-0.054009061
-0.06020668
-0.066507746
-0.071902474
-0.07511705
-0.074673029
-0.069147081
-0.057522503
-0.039870362
-0.018169199
0.0028573116
0.014504511
0.0069591252
-0.047147201
-0.049059868
-0.048070334
-0.046811811
-0.046828592
-0.048709012
-0.052561718
-0.058152357
-0.064938961
-0.072088271
-0.078454029
-0.082581117
-0.082766071
-0.077215435
-0.064449235
-0.043875406
-0.01669856
0.012546321
0.032977225
0.032438846
-0.058816888
-0.05957036
-0.055822172
-0.051882977
-0.049910556
-0.050556408
-0.053837965
-0.059387345
-0.066490027
-0.074157395
-0.08106692
-0.085568401
-0.085741344
-0.079455992
-0.064833037
-0.040663734
-0.0072261064
0.032151625
0.064992986
0.077754714
-0.076158004
-0.072556209
-0.063469953
-0.055396178
-0.050683827
-0.049728061
-0.052240688
-0.057573496
-0.064785878
-0.072662341
-0.079670588
-0.083942273
-0.083319622
-0.075304038
-0.057584152
-0.028377878
0.012916914
0.065381191
0.1155366
0.15148811
-0.10804115
-0.089516276
-0.071207606
-0.057215473
-0.049052356
-0.046296935
-0.048023732
-0.053127791
-0.060343079
-0.068196353
-0.074930863
-0.078444217
-0.076328511
-0.065776749
-0.043860434
-0.0078365911
0.044360858
0.11296162
0.18834575
0.27182423
-0.17681113
-0.10826333
-0.076193258
-0.054650676
-0.042988827
-0.038979998
-0.040531014
-0.045866041
-0.053361492
-0.061348837
-0.067939404
-0.07088681
-0.067497634
-0.05471037
-0.029145803
0.013543309
0.078110852
0.17002104
0.2894515
0.47417584
-0.37204954
-0.12468585
-0.054967354
-0.031967855
-0.022067884
-0.020291891
-0.024330165
-0.031906043
-0.041190335
-0.050557944
-0.058232116
-0.062110863
-0.059722684
-0.048022643
-0.022650243
0.021459965
0.092787841
0.21011337
0.40284719
0.77636894
)
;

boundaryField
{
    movingWall
    {
        type            zeroGradient;
    }
    fixedWalls
    {
        type            zeroGradient;
    }
    frontAndBack
    {
        type            empty;
    }
}


// ************************************************************************* //
