/*--------------------------------*- C++ -*----------------------------------*\
  =========                 |
  \\      /  F ield         | OpenFOAM: The Open Source CFD Toolbox
   \\    /   O peration     | Website:  https://openfoam.org
    \\  /    A nd           | Version:  9
     \\/     M anipulation  |
\*---------------------------------------------------------------------------*/
FoamFile
{
    format      ascii;
    class       surfaceScalarField;
    location    "12";
    object      phi;
}
// * * * * * * * * * * * * * * * * * * * * * * * * * * * * * * * * * * * * * //

dimensions      [0 3 -1 0 0 0 0];

internalField   nonuniform List<scalar> 
760
(
1.2608035e-05
-1.260814e-05
-2.8753831e-05
4.1361795e-05
-0.00012209043
9.3336617e-05
-0.00024984417
0.00012775366
-0.00039510804
0.00014526389
-0.00054399105
0.00014888303
-0.00068446299
0.00014047191
-0.00080474459
0.00012028155
-0.00089258264
8.7838011e-05
-0.00093595719
4.3374545e-05
-0.00092496359
-1.0993622e-05
-0.00085485785
-7.0105748e-05
-0.00072888213
-0.0001259757
-0.00056033346
-0.00016854867
-0.00037228093
-0.00018805255
-0.00019441774
-0.00017786325
-5.6711017e-05
-0.00013770676
1.9376228e-05
-7.6087226e-05
3.0280192e-05
-1.0903892e-05
3.0280182e-05
-4.3100274e-05
3.0492072e-05
-0.00020404088
0.00020230258
-0.00046701127
0.00035630719
-0.00079837822
0.00045912044
-0.001163898
0.00051078345
-0.0015318825
0.00051686738
-0.0018726653
0.00048125471
-0.0021573514
0.00040496759
-0.0023577701
0.00028825675
-0.0024485316
0.00013413592
-0.0024117074
-4.7817861e-05
-0.0022397091
-0.0002421041
-0.0019430079
-0.00042267693
-0.0015511914
-0.0005603652
-0.0011123042
-0.00062693976
-0.00068652532
-0.00060364218
-0.00033430817
-0.00048992406
-0.00010101298
-0.00030938269
-1.6658405e-06
-0.00011025147
2.8614409e-05
-0.00010968473
0.00014017672
-0.00040173682
0.00049435452
-0.00082869712
0.00078326765
-0.001341271
0.00097169426
-0.0018925152
0.0010620275
-0.0024388428
0.0010631948
-0.0029388767
0.00098128853
-0.0033524234
0.00081851426
-0.00364115
0.00057698338
-0.0037716002
0.0002645861
-0.0037197175
-9.9700513e-05
-0.00347685
-0.00048497162
-0.0030558715
-0.00084365535
-0.0024943888
-0.0011218479
-0.0018544493
-0.0012668792
-0.0012159738
-0.0012421176
-0.00066278584
-0.0010431119
-0.00026286164
-0.00070930691
-4.7988014e-05
-0.00032512529
-1.9373655e-05
-0.00017282498
0.00031300174
-0.00059122172
0.00091275096
-0.0011736533
0.0013656993
-0.0018521117
0.0016501526
-0.0025684152
0.0017783309
-0.0032707567
0.0017655362
-0.0039105364
0.0016210681
-0.0044406739
0.0013486517
-0.0048162046
0.00095251405
-0.0049972589
0.00044564033
-0.0049540343
-0.00014292503
-0.0046725738
-0.00076643211
-0.0041623376
-0.0013538915
-0.0034612729
-0.0018229126
-0.0026384032
-0.002089749
-0.0017896863
-0.0020908345
-0.0010240386
-0.0018087596
-0.00043955358
-0.0012937919
-9.6627382e-05
-0.0006680516
-0.00011600106
-0.0002289509
0.00054195274
-0.00076235774
0.0014461575
-0.0014863407
0.0020896821
-0.0023147662
0.0024785781
-0.0031797784
0.0026433431
-0.0040241476
0.0026099053
-0.0047954918
0.0023924122
-0.0054431291
0.0019962889
-0.0059177251
0.00142711
-0.0061734443
0.00070135952
-0.006172819
-0.00014355033
-0.0058914088
-0.0010478423
-0.0053281967
-0.0019171036
-0.0045132342
-0.002637875
-0.0035156252
-0.0030873579
-0.0024449322
-0.0031615275
-0.0014398218
-0.0028138699
-0.00064010353
-0.0020935102
-0.00014860392
-0.0011595512
-0.00026460495
-0.00027630392
0.0008182567
-0.00090842034
0.0020782738
-0.0017549061
0.0029361679
-0.0027141219
0.0034377938
-0.0037107841
0.0036400052
-0.0046848629
0.0035839841
-0.0055831505
0.0032906997
-0.0063541477
0.0027672861
-0.0069460489
0.0020190112
-0.0073071932
0.0010625038
-0.007390546
-6.0197525e-05
-0.0071560808
-0.0012823075
-0.0065851245
-0.0024880598
-0.0056902183
-0.0035327811
-0.0045311725
-0.0042464036
-0.0032257109
-0.0044669889
-0.0019454123
-0.0040941685
-0.00088568326
-0.0031532392
-0.00021121991
-0.0018340146
-0.00047582476
-0.00031308025
0.0011313369
-0.0010231131
0.0027883067
-0.0019675478
0.0038806026
-0.0030329359
0.0045031818
-0.0041392093
0.0047462786
-0.0052261204
0.0046708952
-0.0062424429
0.0043070221
-0.0071386743
0.0036635174
-0.0078629065
0.0027432434
-0.0083593795
0.0015589768
-0.0085684328
0.00014885575
-0.0084354436
-0.0014152967
-0.0079151875
-0.0030083159
-0.0069926819
-0.0044552867
-0.0057052027
-0.0055338827
-0.0041664552
-0.0060057362
-0.0025774404
-0.0056831833
-0.0012020358
-0.0045286437
-0.0002939825
-0.0027420678
-0.0007698071
-0.00033729457
0.0014686314
-0.0011001983
0.0035512104
-0.0021121528
0.0048925571
-0.0032518067
0.0056428357
-0.0044369136
0.0059313854
-0.0056094357
0.0058434173
-0.0067228757
0.0054204621
-0.0077328733
0.0046735149
-0.0085907742
0.0036011442
-0.0092396073
0.0022078099
-0.0096117349
0.00052098338
-0.0096346582
-0.0013923733
-0.0092355369
-0.0034074372
-0.0083620052
-0.0053288183
-0.0070120856
-0.0068838023
-0.0052742078
-0.0077436139
-0.0033626985
-0.0075946925
-0.0016148891
-0.0062764531
-0.00040759873
-0.003949358
-0.0011774057
-0.00034740848
0.0018160398
-0.0011348558
0.0043386578
-0.0021784035
0.0059361048
-0.003352141
0.0068165731
-0.0045738574
0.0071531017
-0.0057898841
0.0070594439
-0.0069611377
0.0065917157
-0.0080519333
0.0057643104
-0.0090214203
0.0045706311
-0.0098169923
0.0030033819
-0.010369511
0.0010735019
-0.01059315
-0.0011687338
-0.010389949
-0.0036106389
-0.0096648447
-0.0060539222
-0.0083597706
-0.0081888764
-0.0065084325
-0.009594952
-0.0043047889
-0.009798336
-0.0021455892
-0.0084356528
-0.00056412082
-0.0055308263
-0.0017415264
-0.00034350177
0.0021595415
-0.0011264262
0.0051215823
-0.0021619678
0.0069716463
-0.0033217964
0.0079764018
-0.0045254919
0.0083567972
-0.0057257283
0.0082596804
-0.0068934577
0.007759445
-0.008005408
0.0068762607
-0.0090339008
0.0055991239
-0.0099382325
0.0039077135
-0.010656867
0.0017921365
-0.01110029
-0.00072531114
-0.011156968
-0.0035539606
-0.010690648
-0.0065202426
-0.0095762481
-0.0093032758
-0.0077609934
-0.011410207
-0.005366951
-0.012192378
-0.0028044553
-0.010998149
-0.00077747473
-0.0075578068
-0.0025190011
-0.00032886701
0.0024884086
-0.0010821454
0.0058748607
-0.0020700875
0.0079595883
-0.003162458
0.0090687723
-0.0042823834
0.0094767227
-0.0053911839
0.0093684809
-0.0064725706
0.0088408317
-0.0075192931
0.0079229832
-0.0085220965
0.0066019273
-0.0094599415
0.0048455585
-0.010291234
0.0026234286
-0.010932874
-8.3670273e-05
-0.011282486
-0.0032043488
-0.011172144
-0.0066305846
-0.010413313
-0.010062107
-0.0088436374
-0.012979882
-0.0064526067
-0.014583409
-0.0035792284
-0.013871527
-0.0010633292
-0.010073706
-0.0035823303
-0.00031217212
0.0028005808
-0.0010216801
0.0065843688
-0.0019276841
0.0088655922
-0.0028970586
0.010038147
-0.003859532
0.010439196
-0.0047888345
0.010297784
-0.0056847582
0.0097367555
-0.0065592235
0.0087974484
-0.0074253946
0.0074680984
-0.0082878982
0.005708062
-0.0091314205
0.0034669509
-0.0099149387
0.00069984785
-0.010532734
-0.002586553
-0.010831173
-0.0063321458
-0.010576036
-0.010317244
-0.0094937549
-0.014062163
-0.0073902459
-0.016686918
-0.0044175578
-0.016844215
-0.0014364645
-0.013054799
-0.0050187949
-0.00031085222
0.003111433
-0.00098263482
0.0072561515
-0.0017829078
0.009665865
-0.0025747459
0.010829985
-0.0033013943
0.011165845
-0.0039560192
0.010952409
-0.0045593132
0.010340049
-0.0051452061
0.0093833413
-0.0057512081
0.0080741004
-0.0064103844
0.0063672382
-0.0071421761
0.0041987424
-0.0079420282
0.0014997
-0.0087496782
-0.0017789029
-0.0094396745
-0.0056421495
-0.0097756995
-0.0099812192
-0.0094048294
-0.014433033
-0.0079324785
-0.018159269
-0.005206234
-0.01957046
-0.0019022037
-0.01635883
-0.0069209987
-0.00035721818
0.0034686512
-0.00102739
0.0079263235
-0.0017101264
0.010348601
-0.0022691223
0.011388981
-0.0026762384
0.011572961
-0.0029564108
0.011232581
-0.0031581824
0.010541821
-0.0033399543
0.0095651131
-0.0035630314
0.0082971775
-0.0038872206
0.0066914273
-0.0043652564
0.0046767781
-0.0050339296
0.0021683731
-0.0058911259
-0.00092170664
-0.0068707489
-0.0046625264
-0.0077869557
-0.0090650124
-0.008273639
-0.01394635
-0.0077733527
-0.018659555
-0.0057528511
-0.021590961
-0.0024367939
-0.019674887
-0.0093577925
-0.00050969767
0.0039783488
-0.0012498332
0.0086664591
-0.001803294
0.010902062
-0.0020585533
0.01164424
-0.0020458493
0.011560257
-0.0018410368
0.011027769
-0.0015294517
0.010230236
-0.0011961537
0.0092318151
-0.00092343228
0.008024456
-0.00079233099
0.006560326
-0.00088156194
0.004766009
-0.001264538
0.0025513491
-0.0019987847
-0.00018746005
-0.0030962318
-0.0035650794
-0.0044723449
-0.0076888992
-0.0058371702
-0.012581524
-0.0065726919
-0.017924034
-0.00577169
-0.022391963
-0.0029519751
-0.022494602
-0.012309768
-0.00087003922
0.004848388
-0.0017674269
0.0095638467
-0.0021293455
0.01126398
-0.0019483734
0.011463268
-0.0013655841
0.010977468
-0.00053330882
0.010195493
0.00041821267
0.0092787147
0.0013799146
0.0082701132
0.0022525498
0.0071518209
0.0029415943
0.0058712814
0.0033508264
0.0043567769
0.0033798059
0.0025223696
0.0029230962
0.0002692496
0.00189583
-0.0025378132
0.00025776566
-0.0060508349
-0.0018639307
-0.010459828
-0.0039587663
-0.015829198
-0.00486488
-0.021485849
-0.0032559526
-0.024103529
-0.01556572
-0.0015922363
0.0064406244
-0.002614613
0.010586223
-0.0025202121
0.011169579
-0.001600436
0.010543492
-0.00018582607
0.0095628577
0.0014766006
0.0085330668
0.0032149808
0.0075403347
0.0049044507
0.0065806435
0.0064441667
0.005612105
0.0077393441
0.0045761041
0.008690577
0.0034055441
0.00918616
0.0020267866
0.0090898038
0.00036560581
0.0082633474
-0.0017113567
0.0065554889
-0.0043429764
0.0038961055
-0.0078004446
0.00055298487
-0.012486077
-0.0024718988
-0.018460966
-0.0030287635
-0.023546665
-0.018594484
-0.0027188011
0.0091594255
-0.0031518105
0.011019233
-0.0018073847
0.0098251536
0.00045945424
0.0082766528
0.0030793304
0.0069429816
0.0057612623
0.0058511351
0.0083485152
0.004953082
0.010744944
0.0041842152
0.012877777
0.0034792718
0.014675442
0.0027784394
0.016054255
0.0020267311
0.016910757
0.0011702849
0.01710902
0.00016734248
0.016481987
-0.001084324
0.014809721
-0.0026707098
0.011841027
-0.0048317509
0.0074311494
-0.0080762001
0.0022600711
-0.013289887
-0.0012737796
-0.020012814
-0.019868263
-0.0024129081
0.011572333
2.816331e-05
0.0085781614
0.004254125
0.0055991919
0.0084132319
0.004117546
0.012226367
0.0031298466
0.015648973
0.0024285292
0.018677456
0.0019245992
0.02131889
0.0015427814
0.023572688
0.0012254738
0.025418642
0.00093248545
0.026810457
0.00063491545
0.027668871
0.00031187063
0.027893279
-5.70657e-05
0.027342013
-0.00053305785
0.025767903
-0.0010965992
0.022840443
-0.0019042906
0.018052936
-0.0032886934
0.011112374
-0.006349325
0.0033881633
-0.012288603
-0.0164801
0.011572333
0.020150495
0.025749687
0.029867233
0.032997079
0.035425608
0.037350207
0.038892989
0.040118462
0.041050948
0.041685863
0.041997734
0.041940669
0.041407611
0.040311012
0.038406721
0.035118028
0.028768703
0.0164801
)
;

boundaryField
{
    movingWall
    {
        type            calculated;
        value           uniform 0;
    }
    fixedWalls
    {
        type            calculated;
        value           uniform 0;
    }
    frontAndBack
    {
        type            empty;
        value           nonuniform List<scalar> 0();
    }
}


// ************************************************************************* //
