/*--------------------------------*- C++ -*----------------------------------*\
  =========                 |
  \\      /  F ield         | OpenFOAM: The Open Source CFD Toolbox
   \\    /   O peration     | Website:  https://openfoam.org
    \\  /    A nd           | Version:  9
     \\/     M anipulation  |
\*---------------------------------------------------------------------------*/
FoamFile
{
    format      ascii;
    class       surfaceScalarField;
    location    "12";
    object      phi_0;
}
// * * * * * * * * * * * * * * * * * * * * * * * * * * * * * * * * * * * * * //

dimensions      [0 3 -1 0 0 0 0];

internalField   nonuniform List<scalar> 
760
(
1.2609094e-05
-1.2606096e-05
-2.8753145e-05
4.1362088e-05
-0.00012208877
9.3335774e-05
-0.00024984054
0.00012775192
-0.00039510235
0.00014526155
-0.00054398316
0.00014888058
-0.00068445293
0.00014046968
-0.0008047327
0.00012027973
-0.00089256956
8.7836813e-05
-0.00093594382
4.3374188e-05
-0.00092495092
-1.0992974e-05
-0.00085484689
-7.0104105e-05
-0.00072887372
-0.00012597325
-0.00056032806
-0.00016854575
-0.00037227845
-0.00018804966
-0.00019441754
-0.00017786092
-5.6712089e-05
-0.00013770547
1.9374949e-05
-7.608713e-05
3.0279505e-05
-1.0904714e-05
3.0279392e-05
-4.3099142e-05
3.0492928e-05
-0.00020403741
0.00020230021
-0.00046700385
0.00035630199
-0.00079836521
0.00045911332
-0.0011638789
0.00051077523
-0.0015318573
0.00051685898
-0.0018726349
0.00048124703
-0.0021573168
0.00040496151
-0.0023577332
0.00028825307
-0.0024484944
0.00013413528
-0.0024116723
-4.7815146e-05
-0.0022396784
-0.00024209817
-0.0019429832
-0.00042266848
-0.0015511736
-0.00056035538
-0.0011122933
-0.00062693002
-0.00068652033
-0.00060363397
-0.00033430715
-0.00048991853
-0.00010101365
-0.00030938037
-1.6661331e-06
-0.00011025192
2.8613144e-05
-0.0001096826
0.00014017557
-0.00040172923
0.00049434691
-0.00082868228
0.00078325465
-0.0013412472
0.000971678
-0.0018924819
0.0010620098
-0.0024388005
0.0010631775
-0.0029388267
0.00098127317
-0.0033523679
0.00081850252
-0.0036410916
0.00057697671
-0.0037715419
0.00026458554
-0.0037196626
-9.9694526e-05
-0.0034768013
-0.00048495952
-0.0030558313
-0.00084363843
-0.0024943584
-0.0011218283
-0.0018544288
-0.0012668596
-0.0012159621
-0.0012421008
-0.00066278083
-0.0010430999
-0.00026286055
-0.00070930073
-4.7988098e-05
-0.00032512426
-1.9374995e-05
-0.00017282168
0.00031299715
-0.0005912101
0.00091273551
-0.0011736311
0.0013656756
-0.0018520775
0.0016501243
-0.0025683689
0.0017783011
-0.0032706993
0.0017655077
-0.0039104696
0.0016210435
-0.0044406006
0.0013486335
-0.0048161281
0.0009525042
-0.0049971828
0.00044564023
-0.0049539624
-0.00014291493
-0.0046725093
-0.00076641263
-0.0041622832
-0.0013538646
-0.0034612303
-0.0018228812
-0.0026383728
-0.0020897171
-0.0017896673
-0.0020908062
-0.0010240288
-0.0018087384
-0.00043955011
-0.0012937796
-9.6626838e-05
-0.00066804752
-0.00011600185
-0.0002289465
0.00054194339
-0.00076234282
0.001446132
-0.0014863125
0.0020896454
-0.0023147238
0.0024785355
-0.0031797221
0.0026432992
-0.0040240787
0.0026098643
-0.0047954127
0.0023923774
-0.0054430429
0.0019962637
-0.0059176356
0.0014270968
-0.0061733552
0.00070135992
-0.0061727343
-0.0001435359
-0.0058913318
-0.0010478152
-0.0053281303
-0.0019170661
-0.0045131806
-0.002637831
-0.0035155854
-0.0030873123
-0.0024449058
-0.0031614857
-0.0014398071
-0.002813837
-0.00064009746
-0.0020934892
-0.00014860265
-0.0011595424
-0.0002646045
-0.00027629864
0.00081824184
-0.00090840333
0.0020782366
-0.0017548744
0.0029361166
-0.0027140746
0.0034377357
-0.0037107219
0.0036399466
-0.0046847878
0.0035839301
-0.005583065
0.0032906547
-0.006354055
0.0027672538
-0.0069459527
0.0020189945
-0.0073070972
0.0010625045
-0.007390454
-6.0179083e-05
-0.0071559959
-0.0012822732
-0.0065850496
-0.0024880123
-0.005690156
-0.0035327247
-0.0045311245
-0.0042463439
-0.0032256777
-0.0044669325
-0.0019453927
-0.0040941219
-0.00088567456
-0.0031532073
-0.00021121787
-0.0018339991
-0.00047582233
-0.00031307462
0.0011313164
-0.0010230956
0.0027882575
-0.0019675155
0.0038805364
-0.003032888
0.0045031082
-0.0041391468
0.0047462054
-0.0052260454
0.0046708286
-0.006242358
0.0043069674
-0.0071385827
0.0036634786
-0.0078628116
0.0027432235
-0.0083592846
0.0015589775
-0.0085683406
0.00014887697
-0.0084353573
-0.0014152565
-0.0079151097
-0.0030082598
-0.0069926151
-0.0044552192
-0.0057051492
-0.0055338097
-0.0041664166
-0.0060056651
-0.0025774165
-0.0056831219
-0.0012020246
-0.0045285992
-0.00029397967
-0.0027420439
-0.00076980189
-0.00033728935
0.0014686058
-0.0011001822
0.0035511503
-0.0021121232
0.0048924773
-0.003251763
0.005642748
-0.0044368566
0.0059312991
-0.0056093677
0.0058433397
-0.0067227993
0.005420399
-0.0077327913
0.0046734706
-0.0085906894
0.0036011217
-0.0092395222
0.0022078104
-0.0096116518
0.0005210066
-0.0096345791
-0.0013923291
-0.0092354638
-0.0034073751
-0.0083619404
-0.0053287426
-0.0070120313
-0.0068837188
-0.0052741665
-0.0077435299
-0.0033626715
-0.0075946169
-0.0016148756
-0.0062763951
-0.0004075951
-0.0039493244
-0.0011773969
-0.0003474044
0.0018160102
-0.001134843
0.004338589
-0.0021783798
0.005936014
-0.003352106
0.0068164742
-0.004573812
0.0071530052
-0.0057898302
0.007059358
-0.0069610778
0.0065916466
-0.0080518696
0.0057642625
-0.0090213549
0.004570607
-0.0098169271
0.0030033826
-0.010369447
0.0010735265
-0.010593088
-0.0011686875
-0.01038989
-0.0036105738
-0.0096647901
-0.0060538423
-0.0083597222
-0.0081887866
-0.0065083931
-0.009594859
-0.0043047613
-0.0097982487
-0.0021455744
-0.0084355821
-0.00056411646
-0.0055307822
-0.0017415132
-0.00034349943
0.0021595096
-0.0011264185
0.005121508
-0.0021619529
0.0069715484
-0.0033217742
0.0079762954
-0.0045254631
0.0083566942
-0.0057256947
0.0082595896
-0.006893421
0.007759373
-0.0080053701
0.0068762117
-0.0090338631
0.0055991001
-0.0099381958
0.0039077153
-0.010656831
0.0017921622
-0.011100255
-0.0007252644
-0.011156933
-0.0035538954
-0.010690612
-0.0065201628
-0.0095762136
-0.0093031853
-0.007760962
-0.011410111
-0.0053669263
-0.012192284
-0.0028044405
-0.010998068
-0.00077746987
-0.0075577528
-0.002518983
-0.00032886681
0.0024883763
-0.0010821439
0.0058747851
-0.0020700838
0.0079594882
-0.0031624518
0.0090686634
-0.0042823752
0.0094766177
-0.0053911748
0.0093683893
-0.0064725621
0.0088407602
-0.0075192862
0.0079229359
-0.008522092
0.0066019059
-0.0094599392
0.0048455625
-0.010291233
0.002623456
-0.010932872
-8.362496e-05
-0.011282482
-0.0032042857
-0.011172136
-0.0066305089
-0.010413299
-0.010062022
-0.0088436205
-0.012979789
-0.0064525896
-0.014583315
-0.003579216
-0.013871442
-0.0010633244
-0.010073644
-0.0035823075
-0.00031217422
0.0028005505
-0.0010216856
0.0065842965
-0.0019276926
0.0088654951
-0.0028970701
0.010038041
-0.0038595464
0.010439094
-0.0047888523
0.010297695
-0.0056847799
0.0097366878
-0.0065592493
0.0087974053
-0.0074254244
0.007468081
-0.008287931
0.0057080691
-0.0091314542
0.0034669793
-0.0099149727
0.0006998934
-0.010532764
-0.0025864943
-0.010831196
-0.0063320772
-0.010576049
-0.010317168
-0.0094937578
-0.014062081
-0.007390241
-0.016686832
-0.0044175504
-0.016844132
-0.0014364604
-0.013054734
-0.005018768
-0.00031085656
0.003111407
-0.00098264724
0.007256087
-0.0017829287
0.0096657765
-0.002574775
0.010829887
-0.0033014312
0.01116575
-0.0039560633
0.010952327
-0.0045593639
0.010339988
-0.0051452626
0.009383304
-0.0057512693
0.0080740876
-0.0064104486
0.0063672484
-0.0071422413
0.0041987718
-0.0079420919
0.001499744
-0.0087497371
-0.0017788491
-0.0094397249
-0.0056420894
-0.009775738
-0.0099811551
-0.0094048536
-0.014432965
-0.0079324888
-0.018159197
-0.0052062344
-0.019570387
-0.0019022014
-0.016358767
-0.0069209695
-0.00035722447
0.0034686315
-0.0010274085
0.0079262709
-0.0017101584
0.010348526
-0.0022691675
0.011388896
-0.0026762955
0.011572878
-0.0029564781
0.01123251
-0.003158258
0.010541768
-0.0033400361
0.0095650821
-0.0035631173
0.0082971688
-0.0038873082
0.0066914393
-0.0043653435
0.0046768071
-0.0050340138
0.0021684142
-0.0058912045
-0.00092165845
-0.0068708189
-0.004662475
-0.0077870135
-0.0090649604
-0.0082736813
-0.013946297
-0.0077733777
-0.018659501
-0.0057528606
-0.021590904
-0.0024367945
-0.019674834
-0.009357764
-0.00050970535
0.0039783369
-0.001249856
0.0086664214
-0.0018033341
0.010902004
-0.0020586105
0.011644172
-0.0020459217
0.011560189
-0.0018411214
0.01102771
-0.0015295453
0.010230192
-0.0011962529
0.0092317896
-0.00092353378
0.0080244496
-0.00079243187
0.0065603373
-0.00088165986
0.0047660351
-0.0012646311
0.0025513854
-0.0019988711
-0.00018741849
-0.0030963096
-0.0035650366
-0.0044724117
-0.0076888583
-0.0058372227
-0.012581486
-0.0065727272
-0.017923996
-0.0057717076
-0.022391923
-0.0029519792
-0.022494562
-0.012309743
-0.00087004721
0.0048483841
-0.001767451
0.009563825
-0.0021293888
0.011263942
-0.0019484359
0.011463219
-0.0013656636
0.010977417
-0.0005334016
0.010195448
0.00041811058
0.0092786801
0.0013798078
0.0082700924
0.0022524423
0.0071518152
0.0029414895
0.00587129
0.0033507271
0.0043567975
0.0033797137
0.0025223987
0.0029230124
0.00026928278
0.0018957553
-0.0025377794
0.00025770103
-0.0060508041
-0.0018639836
-0.010459801
-0.0039588052
-0.015829174
-0.0048649019
-0.021485827
-0.0032559594
-0.024103504
-0.015565703
-0.0015922425
0.0064406267
-0.0026146334
0.010586216
-0.0025202504
0.011169559
-0.001600493
0.010543462
-0.00018590004
0.009562824
0.0014765129
0.008533035
0.0032148837
0.0075403093
0.0049043488
0.0065806273
0.0064440646
0.0056120994
0.0077392457
0.004576109
0.0086904852
0.003405558
0.0091860769
0.002026807
0.0090897305
0.00036562923
0.0082632837
-0.0017113327
0.0065554348
-0.0043429552
0.0038960614
-0.0078004281
0.00055295251
-0.012486066
-0.0024719197
-0.018460954
-0.0030287714
-0.023546653
-0.018594474
-0.0027188035
0.0091594302
-0.003151821
0.011019233
-0.0018074084
0.0098251463
0.00045941506
0.0082766383
0.0030792758
0.0069429633
0.0057611943
0.0058511166
0.0083484373
0.0049530665
0.01074486
0.0041842048
0.012877692
0.0034792676
0.014675359
0.0027784416
0.016054179
0.0020267389
0.016910689
0.0011702968
0.017108962
0.00016735593
0.016481939
-0.00108431
0.014809682
-0.002670698
0.011840996
-0.0048317425
0.0074311258
-0.0080761953
0.0022600556
-0.013289884
-0.0012737867
-0.02001281
-0.019868261
-0.002412906
0.011572336
2.8163891e-05
0.0085781636
0.0042541196
0.0055991907
0.0084132164
0.0041175417
0.012226339
0.0031298404
0.015648934
0.0024285225
0.018677407
0.0019245934
0.021318834
0.0015427776
0.023572629
0.0012254723
0.025418584
0.00093248644
0.026810405
0.00063491848
0.027668826
0.00031187494
0.027893242
-5.7059766e-05
0.027341985
-0.00053305321
0.025767883
-0.0010965955
0.022840429
-0.0019042883
0.018052926
-0.0032886928
0.011112368
-0.0063493253
0.0033881605
-0.012288603
-0.0164801
0.011572336
0.0201505
0.025749691
0.029867232
0.032997073
0.035425595
0.037350189
0.038892966
0.040118438
0.041050925
0.041685843
0.041997718
0.041940659
0.041407606
0.04031101
0.038406722
0.035118029
0.028768704
0.0164801
)
;

boundaryField
{
    movingWall
    {
        type            calculated;
        value           uniform 0;
    }
    fixedWalls
    {
        type            calculated;
        value           uniform 0;
    }
    frontAndBack
    {
        type            empty;
        value           nonuniform List<scalar> 0();
    }
}


// ************************************************************************* //
