/*--------------------------------*- C++ -*----------------------------------*\
  =========                 |
  \\      /  F ield         | OpenFOAM: The Open Source CFD Toolbox
   \\    /   O peration     | Website:  https://openfoam.org
    \\  /    A nd           | Version:  9
     \\/     M anipulation  |
\*---------------------------------------------------------------------------*/
FoamFile
{
    format      ascii;
    class       volVectorField;
    location    "12";
    object      U;
}
// * * * * * * * * * * * * * * * * * * * * * * * * * * * * * * * * * * * * * //

dimensions      [0 1 -1 0 0 0 0];

internalField   nonuniform List<vector> 
400
(
(0.00028313216 -0.00028004086 0)
(0.00010867272 8.0411391e-05 0)
(-0.0013261403 0.00047723798 0)
(-0.0036147385 0.00073423826 0)
(-0.0064086031 0.00086530069 0)
(-0.0094077358 0.00090479533 0)
(-0.012355634 0.00087237554 0)
(-0.015016399 0.0007692963 0)
(-0.017148714 0.00058684094 0)
(-0.01850404 0.00031935782 0)
(-0.018854373 -2.4359137e-05 0)
(-0.01804229 -0.00041655431 0)
(-0.016043904 -0.00079693777 0)
(-0.013023238 -0.0010896988 0)
(-0.0093517313 -0.0012179117 0)
(-0.0055728746 -0.001126996 0)
(-0.0023025423 -0.0008117431 0)
(-8.7950316e-05 -0.00033830357 0)
(0.00075611884 0.00015081023 0)
(0.00040801411 0.00038795558 0)
(-8.6333507e-05 -0.00012147028 0)
(-0.0018651649 0.0017838692 0)
(-0.0062895768 0.0036166418 0)
(-0.01241706 0.0048488184 0)
(-0.019543057 0.0054825482 0)
(-0.027026441 0.0056041259 0)
(-0.034256764 0.0052705617 0)
(-0.040648639 0.0044916857 0)
(-0.045625443 0.003258025 0)
(-0.048638087 0.001587455 0)
(-0.04923226 -0.00043078614 0)
(-0.04713145 -0.0026067529 0)
(-0.042349033 -0.0046476689 0)
(-0.035282964 -0.0061990931 0)
(-0.026726192 -0.0069180879 0)
(-0.017798852 -0.006576473 0)
(-0.0097656086 -0.0051702414 0)
(-0.0037470441 -0.0029969429 0)
(-0.00039261843 -0.00066872079 0)
(0.0002880043 0.00077953175 0)
(-0.0005864005 0.0014316554 0)
(-0.0042294491 0.0063602557 0)
(-0.011720641 0.01060917 0)
(-0.021399182 0.013442727 0)
(-0.032261888 0.01485294 0)
(-0.043448979 0.014972179 0)
(-0.054116916 0.013895543 0)
(-0.063446871 0.011652557 0)
(-0.070643893 0.0082626421 0)
(-0.074971054 0.0038260066 0)
(-0.075828764 -0.0013910728 0)
(-0.072865006 -0.0069043062 0)
(-0.066101666 -0.012027416 0)
(-0.05603883 -0.015948833 0)
(-0.043687456 -0.017891702 0)
(-0.030511118 -0.01733692 0)
(-0.01822163 -0.014260897 0)
(-0.0084085866 -0.0092995475 0)
(-0.0021512019 -0.0037628124 0)
(-3.1490458e-06 0.00031124743 0)
(-0.001049284 0.004288658 0)
(-0.0064919225 0.013524092 0)
(-0.016940187 0.020798475 0)
(-0.029928557 0.025480906 0)
(-0.044152617 0.027675494 0)
(-0.058592428 0.027604726 0)
(-0.072257201 0.025414983 0)
(-0.084186849 0.021163732 0)
(-0.093450533 0.014914817 0)
(-0.09918065 0.0068769861 0)
(-0.10065524 -0.0024722133 0)
(-0.097409659 -0.012321148 0)
(-0.089372715 -0.021525967 0)
(-0.077002815 -0.02873281 0)
(-0.061370762 -0.032613576 0)
(-0.044163784 -0.032219379 0)
(-0.027511253 -0.027387493 0)
(-0.013559913 -0.019049362 0)
(-0.0040216426 -0.0092636601 0)
(-0.00026808566 -0.0011133967 0)
(-0.0014502905 0.0083384239 0)
(-0.0085180517 0.023105671 0)
(-0.021669858 0.03394123 0)
(-0.037663485 0.040633305 0)
(-0.054914429 0.043566726 0)
(-0.072287076 0.043131293 0)
(-0.088709238 0.039552468 0)
(-0.10315109 0.032921413 0)
(-0.11460548 0.02334186 0)
(-0.1221049 0.011117458 0)
(-0.12479248 -0.0030837514 0)
(-0.12201971 -0.01813333 0)
(-0.11349569 -0.032423116 0)
(-0.099476085 -0.043994657 0)
(-0.080927966 -0.050825167 0)
(-0.059655019 -0.051314432 0)
(-0.038217415 -0.044916422 0)
(-0.019485208 -0.032696799 0)
(-0.0060824584 -0.017470293 0)
(-0.00051056123 -0.003523944 0)
(-0.0017821816 0.013430055 0)
(-0.010233517 0.034844363 0)
(-0.02571821 0.049745898 0)
(-0.044321602 0.058608975 0)
(-0.064225092 0.062269177 0)
(-0.084222409 0.061375218 0)
(-0.10321753 0.056268719 0)
(-0.12017194 0.047076097 0)
(-0.13405288 0.033915474 0)
(-0.14381707 0.017134668 0)
(-0.14845463 -0.0024755516 0)
(-0.14706523 -0.023522188 0)
(-0.13901514 -0.043984896 0)
(-0.12418171 -0.061256472 0)
(-0.10322773 -0.072448557 0)
(-0.077906378 -0.074994252 0)
(-0.05116518 -0.067562197 0)
(-0.0267606 -0.051029276 0)
(-0.0085970227 -0.028922827 0)
(-0.00078575186 -0.007048002 0)
(-0.0020349352 0.019370358 0)
(-0.011568122 0.048368196 0)
(-0.028906079 0.067780129 0)
(-0.049609716 0.078981875 0)
(-0.071686709 0.083412941 0)
(-0.093906126 0.082074077 0)
(-0.11520225 0.075464679 0)
(-0.1345867 0.063745304 0)
(-0.15105677 0.047008696 0)
(-0.1635324 0.025570777 0)
(-0.17084545 0.00023671111 0)
(-0.17182392 -0.027471481 0)
(-0.16541174 -0.055202988 0)
(-0.15092427 -0.079715027 0)
(-0.12847799 -0.097105054 0)
(-0.099499741 -0.10346296 0)
(-0.067127331 -0.096087901 0)
(-0.036057324 -0.075081276 0)
(-0.011908881 -0.04446901 0)
(-0.0011685182 -0.011988351 0)
(-0.0021947935 0.02592682 0)
(-0.012450246 0.063215757 0)
(-0.03105738 0.087492627 0)
(-0.053218598 0.10119039 0)
(-0.076830256 0.10648071 0)
(-0.10067931 0.10480584 0)
(-0.1237811 0.096869081 0)
(-0.14525706 0.082867039 0)
(-0.16419994 0.062823693 0)
(-0.17956125 0.036933658 0)
(-0.19008819 0.0058792936 0)
(-0.19435592 -0.028875189 0)
(-0.19085503 -0.064796683 0)
(-0.17823451 -0.098123159 0)
(-0.1558041 -0.12388521 0)
(-0.12426759 -0.13647394 0)
(-0.08652049 -0.13107533 0)
(-0.047991339 -0.10604437 0)
(-0.016403038 -0.065288392 0)
(-0.001750334 -0.018853266 0)
(-0.0022507712 0.032829231 0)
(-0.01282669 0.078847409 0)
(-0.032033189 0.1082167 0)
(-0.054872802 0.12451641 0)
(-0.079184522 0.13075241 0)
(-0.10380851 0.1288948 0)
(-0.12788763 0.11990502 0)
(-0.15071455 0.10402974 0)
(-0.17155759 0.081191618 0)
(-0.18950298 0.051378015 0)
(-0.20333774 0.015005059 0)
(-0.2114972 -0.026706433 0)
(-0.21210267 -0.071293513 0)
(-0.20312862 -0.11473371 0)
(-0.18287187 -0.1511216 0)
(-0.15085435 -0.17295319 0)
(-0.10904033 -0.1725175 0)
(-0.062948481 -0.1450048 0)
(-0.022493972 -0.092834892 0)
(-0.0026541645 -0.028382059 0)
(-0.0022060626 0.039788296 0)
(-0.012701354 0.094676192 0)
(-0.031800888 0.12918755 0)
(-0.054427947 0.14807518 0)
(-0.078404323 0.15526314 0)
(-0.10265346 0.15333676 0)
(-0.12648918 0.14358256 0)
(-0.14943704 0.12633234 0)
(-0.17103038 0.10140297 0)
(-0.19061851 0.068521144 0)
(-0.20719472 0.027720981 0)
(-0.21924855 -0.020220161 0)
(-0.22475947 -0.073217524 0)
(-0.22117769 -0.1273883 0)
(-0.20572588 -0.17628092 0)
(-0.17635293 -0.21063566 0)
(-0.13324031 -0.219272 0)
(-0.080824757 -0.19247034 0)
(-0.030608311 -0.12867025 0)
(-0.0040638693 -0.041579505 0)
(-0.0020936881 0.046542078 0)
(-0.012188079 0.11013758 0)
(-0.030527509 0.14959526 0)
(-0.05199891 0.17084071 0)
(-0.074436995 0.17880395 0)
(-0.09688616 0.17678047 0)
(-0.11887969 0.16646157 0)
(-0.14023665 0.14832258 0)
(-0.16084046 0.12210752 0)
(-0.18043129 0.087282517 0)
(-0.198399 0.043450937 0)
(-0.21353411 -0.009213158 0)
(-0.22400624 -0.069436872 0)
(-0.22706256 -0.13384187 0)
(-0.21905137 -0.19612194 0)
(-0.19621024 -0.24589655 0)
(-0.1561535 -0.26850549 0)
(-0.10064808 -0.24767517 0)
(-0.041113762 -0.17411831 0)
(-0.0062632336 -0.059757905 0)
(-0.0019997809 0.052939645 0)
(-0.011579281 0.12480605 0)
(-0.028687362 0.16867597 0)
(-0.048093635 0.19170712 0)
(-0.067685301 0.19996963 0)
(-0.086701855 0.19757683 0)
(-0.10496725 0.18670729 0)
(-0.12265616 0.16804943 0)
(-0.14006661 0.14133592 0)
(-0.15741407 0.1058186 0)
(-0.17464102 0.060674512 0)
(-0.19121224 0.0053980587 0)
(-0.20572266 -0.059696716 0)
(-0.21560549 -0.1323398 0)
(-0.21696915 -0.20722585 0)
(-0.20460765 -0.27399006 0)
(-0.17316867 -0.31537834 0)
(-0.12014347 -0.30776179 0)
(-0.054122498 -0.22964494 0)
(-0.0096670842 -0.084559954 0)
(-0.0021060273 0.059078529 0)
(-0.011443826 0.13855931 0)
(-0.027176845 0.18582599 0)
(-0.043717794 0.2095656 0)
(-0.059103071 0.21723419 0)
(-0.072926693 0.21388143 0)
(-0.085424244 0.20223345 0)
(-0.097198769 0.18324399 0)
(-0.10900631 0.15669947 0)
(-0.12158319 0.12171729 0)
(-0.13549528 0.077121249 0)
(-0.15094423 0.021781979 0)
(-0.16735242 -0.044903998 0)
(-0.18294586 -0.12227975 0)
(-0.1942212 -0.20686756 0)
(-0.19535264 -0.28983578 0)
(-0.17835671 -0.35328914 0)
(-0.13542012 -0.36714412 0)
(-0.069078472 -0.2939119 0)
(-0.014788278 -0.11787897 0)
(-0.0027766203 0.065534418 0)
(-0.012783234 0.15177941 0)
(-0.027422701 0.20069144 0)
(-0.040387832 0.22334215 0)
(-0.050117965 0.22900005 0)
(-0.056873284 0.22375375 0)
(-0.061496559 0.21086851 0)
(-0.065107054 0.19155462 0)
(-0.068931216 0.16568068 0)
(-0.074196904 0.13231442 0)
(-0.082053122 0.090067831 0)
(-0.093439408 0.037356428 0)
(-0.10877334 -0.02729195 0)
(-0.1274919 -0.10477341 0)
(-0.14729375 -0.19400985 0)
(-0.16299079 -0.28926701 0)
(-0.16521509 -0.37486613 0)
(-0.14096114 -0.41748365 0)
(-0.084071536 -0.36259524 0)
(-0.022008184 -0.16146533 0)
(-0.0047300835 0.07377605 0)
(-0.017273978 0.16555839 0)
(-0.03139997 0.21313095 0)
(-0.039864408 0.23188947 0)
(-0.042124243 0.23352227 0)
(-0.039642299 0.22515295 0)
(-0.03414293 0.21043278 0)
(-0.027357841 0.19070604 0)
(-0.020964605 0.16587061 0)
(-0.016591835 0.13498316 0)
(-0.015846667 0.096573123 0)
(-0.020281415 0.048833162 0)
(-0.031252884 -0.010247288 0)
(-0.049540459 -0.082749188 0)
(-0.074669095 -0.16997618 0)
(-0.1034994 -0.2703407 0)
(-0.12741807 -0.37352987 0)
(-0.12983033 -0.4485113 0)
(-0.094946544 -0.42733301 0)
(-0.030932702 -0.21602832 0)
(-0.0093103156 0.086923828 0)
(-0.027485772 0.18174472 0)
(-0.041105276 0.22285576 0)
(-0.042876401 0.2335733 0)
(-0.034669557 0.22858239 0)
(-0.019942881 0.21572912 0)
(-0.0015998699 0.19863401 0)
(0.017958587 0.17847887 0)
(0.036674205 0.15506139 0)
(0.05266224 0.12739688 0)
(0.064043325 0.094023165 0)
(0.068876136 0.053135983 0)
(0.065089316 0.0026014904 0)
(0.050753581 -0.060199221 0)
(0.02438392 -0.13824746 0)
(-0.013920738 -0.23405728 0)
(-0.058924748 -0.34506474 0)
(-0.09362215 -0.44943125 0)
(-0.094516647 -0.47547164 0)
(-0.039223975 -0.28040427 0)
(-0.018587402 0.11087098 0)
(-0.046083482 0.20172534 0)
(-0.055337553 0.22782431 0)
(-0.0441622 0.22487253 0)
(-0.019616628 0.21045627 0)
(0.012032324 0.19213609 0)
(0.046649816 0.17267252 0)
(0.081384878 0.15258433 0)
(0.11405929 0.13133091 0)
(0.14278095 0.10781979 0)
(0.16566371 0.08065511 0)
(0.1806565 0.048203808 0)
(0.18528593 0.0085554552 0)
(0.17691166 -0.040711122 0)
(0.15254147 -0.10308158 0)
(0.10930664 -0.18383 0)
(0.047093258 -0.28849512 0)
(-0.02154206 -0.41045468 0)
(-0.072301038 -0.49095492 0)
(-0.041158153 -0.35049354 0)
(-0.033352548 0.15563184 0)
(-0.068620909 0.22039544 0)
(-0.055249487 0.21724424 0)
(-0.016194662 0.19524419 0)
(0.034337711 0.17082794 0)
(0.088280609 0.14840151 0)
(0.14149778 0.12853585 0)
(0.19166851 0.11052672 0)
(0.23722633 0.093277535 0)
(0.27680793 0.075586033 0)
(0.30892222 0.05621959 0)
(0.33177468 0.033881628 0)
(0.34294186 0.0070970832 0)
(0.33963226 -0.025841025 0)
(0.31797265 -0.067681575 0)
(0.27315016 -0.12406339 0)
(0.2003477 -0.2058198 0)
(0.10206791 -0.32504859 0)
(-0.012424458 -0.45454946 0)
(-0.023766167 -0.40862093 0)
(-0.033076042 0.23908961 0)
(-0.04263849 0.21793098 0)
(0.042201755 0.16425701 0)
(0.12756758 0.12780716 0)
(0.20761956 0.10139517 0)
(0.28015824 0.081615552 0)
(0.34470877 0.066611317 0)
(0.40138744 0.054677834 0)
(0.45033709 0.044389035 0)
(0.49140358 0.03464474 0)
(0.52395581 0.024568697 0)
(0.54680313 0.013409191 0)
(0.55806817 0.00043114754 0)
(0.55558721 -0.015105743 0)
(0.53543669 -0.034942092 0)
(0.4923844 -0.062469587 0)
(0.41793013 -0.10693873 0)
(0.30407651 -0.19317256 0)
(0.12312076 -0.33691724 0)
(0.052368616 -0.39437746 0)
(0.24300508 0.1525805 0)
(0.30531191 0.11855082 0)
(0.45482981 0.076111326 0)
(0.56001708 0.050837841 0)
(0.63222214 0.035119528 0)
(0.68651371 0.024803945 0)
(0.72937915 0.017952347 0)
(0.76371879 0.013250645 0)
(0.79119143 0.009760459 0)
(0.81266238 0.0068563797 0)
(0.82832953 0.0041236807 0)
(0.83787602 0.0012839475 0)
(0.84052109 -0.0018380819 0)
(0.83494614 -0.0053198901 0)
(0.81885393 -0.00982335 0)
(0.78942705 -0.016229312 0)
(0.73784679 -0.026934712 0)
(0.65317154 -0.051287246 0)
(0.45609928 -0.11374741 0)
(0.31788993 -0.1720612 0)
)
;

boundaryField
{
    movingWall
    {
        type            fixedValue;
        value           uniform (1 0 0);
    }
    fixedWalls
    {
        type            fixedValue;
        value           uniform (0 0 0);
    }
    frontAndBack
    {
        type            empty;
    }
}


// ************************************************************************* //
