/*--------------------------------*- C++ -*----------------------------------*\
  =========                 |
  \\      /  F ield         | OpenFOAM: The Open Source CFD Toolbox
   \\    /   O peration     | Website:  https://openfoam.org
    \\  /    A nd           | Version:  9
     \\/     M anipulation  |
\*---------------------------------------------------------------------------*/
FoamFile
{
    format      ascii;
    class       volVectorField;
    location    "12";
    object      U_0;
}
// * * * * * * * * * * * * * * * * * * * * * * * * * * * * * * * * * * * * * //

dimensions      [0 1 -1 0 0 0 0];

internalField   nonuniform List<vector> 
400
(
(0.00028314134 -0.00028001772 0)
(0.00010868702 8.0420289e-05 0)
(-0.00132612 0.00047723765 0)
(-0.0036146875 0.0007342306 0)
(-0.0064085107 0.00086528792 0)
(-0.0094075997 0.00090478108 0)
(-0.012355453 0.00087236194 0)
(-0.015016177 0.0007692844 0)
(-0.017148461 0.00058683204 0)
(-0.018503771 0.00031935374 0)
(-0.018854108 -2.4356846e-05 0)
(-0.01804205 -0.00041654523 0)
(-0.016043708 -0.00079692292 0)
(-0.013023099 -0.0010896806 0)
(-0.0093516536 -0.0012178936 0)
(-0.0055728508 -0.0011269821 0)
(-0.0023025558 -0.00081173725 0)
(-8.7977748e-05 -0.00033830675 0)
(0.00075609728 0.00015080025 0)
(0.00040800655 0.00038794738 0)
(-8.6328e-05 -0.00012143464 0)
(-0.0018651294 0.0017838612 0)
(-0.0062894757 0.003616598 0)
(-0.01241686 0.0048487486 0)
(-0.019542737 0.0054824619 0)
(-0.027025996 0.0056040352 0)
(-0.034256203 0.005270477 0)
(-0.040647981 0.0044916163 0)
(-0.045624718 0.0032579799 0)
(-0.048637335 0.0015874424 0)
(-0.049231528 -0.00043076116 0)
(-0.047130783 -0.0026066911 0)
(-0.042348472 -0.0046475776 0)
(-0.035282537 -0.0061989855 0)
(-0.026725908 -0.0069179814 0)
(-0.0177987 -0.0065763857 0)
(-0.009765558 -0.0051701876 0)
(-0.0037470501 -0.0029969284 0)
(-0.00039263823 -0.00066873865 0)
(0.00028799553 0.00077950986 0)
(-0.00058638864 0.0014316595 0)
(-0.0042293683 0.006360169 0)
(-0.011720427 0.010609004 0)
(-0.021398801 0.013442509 0)
(-0.032261316 0.014852696 0)
(-0.043448218 0.014971934 0)
(-0.054115985 0.013895322 0)
(-0.063445803 0.011652383 0)
(-0.070642738 0.0082625389 0)
(-0.07496987 0.0038259908 0)
(-0.075827616 -0.0013909932 0)
(-0.072863957 -0.0069041365 0)
(-0.066100769 -0.012027175 0)
(-0.056038121 -0.015948553 0)
(-0.043686949 -0.017891424 0)
(-0.030510803 -0.017336685 0)
(-0.018221475 -0.014260736 0)
(-0.0084085386 -0.009299474 0)
(-0.0021512031 -0.0037628141 0)
(-3.1547377e-06 0.00031121862 0)
(-0.0010492637 0.0042886062 0)
(-0.0064917946 0.013523872 0)
(-0.016939861 0.020798122 0)
(-0.029927997 0.025480473 0)
(-0.04415181 0.027675029 0)
(-0.058591382 0.027604275 0)
(-0.072255946 0.025414588 0)
(-0.084185433 0.021163434 0)
(-0.093449017 0.014914651 0)
(-0.099179106 0.0068769769 0)
(-0.10065374 -0.0024720571 0)
(-0.097408281 -0.012320838 0)
(-0.089371517 -0.021525536 0)
(-0.077001841 -0.02873231 0)
(-0.061370033 -0.032613073 0)
(-0.044163296 -0.032218941 0)
(-0.027510977 -0.027387175 0)
(-0.013559796 -0.019049189 0)
(-0.004021618 -0.0092636177 0)
(-0.00026808751 -0.0011134214 0)
(-0.0014502619 0.0083382884 0)
(-0.0085178835 0.023105269 0)
(-0.02166944 0.033940635 0)
(-0.037662781 0.040632604 0)
(-0.054913436 0.043565995 0)
(-0.072285812 0.043130601 0)
(-0.088707742 0.039551877 0)
(-0.10314942 0.032920978 0)
(-0.1146037 0.023341629 0)
(-0.12210309 0.01111746 0)
(-0.12479072 -0.0030835077 0)
(-0.12201808 -0.018132865 0)
(-0.11349424 -0.032422474 0)
(-0.099474878 -0.043993908 0)
(-0.08092703 -0.0508244 0)
(-0.059654361 -0.051313742 0)
(-0.038217015 -0.044915893 0)
(-0.019485017 -0.032696478 0)
(-0.0060824051 -0.017470173 0)
(-0.00051055868 -0.0035239508 0)
(-0.001782146 0.013429815 0)
(-0.010233322 0.034843739 0)
(-0.025717736 0.049745021 0)
(-0.044320812 0.058607971 0)
(-0.064223991 0.062268153 0)
(-0.084221023 0.061374267 0)
(-0.10321591 0.056267921 0)
(-0.12017014 0.047075521 0)
(-0.13405097 0.033915176 0)
(-0.14381513 0.017134679 0)
(-0.14845273 -0.0024752252 0)
(-0.14706345 -0.02352157 0)
(-0.13901353 -0.043984041 0)
(-0.12418033 -0.061255465 0)
(-0.10322662 -0.072447505 0)
(-0.077905567 -0.074993276 0)
(-0.051164661 -0.06756141 0)
(-0.026760335 -0.051028759 0)
(-0.0085969397 -0.028922592 0)
(-0.0007857446 -0.0070479767 0)
(-0.0020348966 0.019370004 0)
(-0.011567918 0.048367331 0)
(-0.028905592 0.067778951 0)
(-0.049608913 0.078980556 0)
(-0.071685597 0.083411619 0)
(-0.093904737 0.082072866 0)
(-0.11520063 0.075463678 0)
(-0.13458491 0.063744591 0)
(-0.15105489 0.047008331 0)
(-0.16353049 0.025570793 0)
(-0.17084357 0.00023711042 0)
(-0.17182212 -0.027470726 0)
(-0.16541009 -0.05520194 0)
(-0.15092282 -0.079713776 0)
(-0.12847678 -0.097103718 0)
(-0.099498817 -0.10346168 0)
(-0.06712671 -0.096086824 0)
(-0.036056988 -0.075080521 0)
(-0.011908768 -0.044468624 0)
(-0.0011685057 -0.011988278 0)
(-0.0021947578 0.025926357 0)
(-0.012450058 0.063214658 0)
(-0.031056933 0.087491159 0)
(-0.053217862 0.10118877 0)
(-0.07682924 0.1064791 0)
(-0.10067804 0.10480439 0)
(-0.12377964 0.096867896 0)
(-0.14525546 0.082866205 0)
(-0.16419826 0.062823269 0)
(-0.17955953 0.036933674 0)
(-0.1900865 0.0058797483 0)
(-0.19435429 -0.02887433 0)
(-0.1908535 -0.064795482 0)
(-0.17823312 -0.098121705 0)
(-0.15580289 -0.12388362 0)
(-0.12426663 -0.13647237 0)
(-0.086519806 -0.13107395 0)
(-0.047990946 -0.10604334 0)
(-0.016402895 -0.065287822 0)
(-0.0017503152 -0.018853128 0)
(-0.0022507442 0.032828673 0)
(-0.012826543 0.078846108 0)
(-0.032032833 0.10821498 0)
(-0.054872212 0.12451453 0)
(-0.079183707 0.13075057 0)
(-0.10380751 0.12889315 0)
(-0.12788648 0.11990369 0)
(-0.1507133 0.10402881 0)
(-0.17155629 0.081191151 0)
(-0.18950167 0.051378031 0)
(-0.20333644 0.015005546 0)
(-0.21149594 -0.026705513 0)
(-0.21210146 -0.071292217 0)
(-0.20312748 -0.11473212 0)
(-0.18287083 -0.15111984 0)
(-0.15085346 -0.17295139 0)
(-0.10903965 -0.17251585 0)
(-0.062948059 -0.1450035 0)
(-0.022493804 -0.092834116 0)
(-0.0026541385 -0.028381841 0)
(-0.0022060487 0.039787673 0)
(-0.012701269 0.094674744 0)
(-0.031800669 0.12918564 0)
(-0.054427575 0.14807311 0)
(-0.078403805 0.15526113 0)
(-0.10265282 0.15333497 0)
(-0.12648846 0.14358114 0)
(-0.14943628 0.12633136 0)
(-0.17102961 0.10140249 0)
(-0.19061776 0.068521169 0)
(-0.207194 0.027721489 0)
(-0.21924785 -0.020219215 0)
(-0.22475877 -0.073216197 0)
(-0.22117699 -0.12738667 0)
(-0.20572518 -0.17627908 0)
(-0.17635226 -0.21063373 0)
(-0.13323973 -0.21927015 0)
(-0.080824353 -0.1924688 0)
(-0.030608129 -0.12866927 0)
(-0.0040638356 -0.041579193 0)
(-0.0020936901 0.046541427 0)
(-0.01218807 0.11013606 0)
(-0.030527462 0.14959325 0)
(-0.05199881 0.17083854 0)
(-0.074436845 0.17880185 0)
(-0.096885978 0.17677863 0)
(-0.11887951 0.16646012 0)
(-0.14023649 0.14832161 0)
(-0.16084034 0.12210706 0)
(-0.18043123 0.087282574 0)
(-0.19839898 0.043451473 0)
(-0.21353409 -0.0092121985 0)
(-0.22400619 -0.06943557 0)
(-0.22706244 -0.13384029 0)
(-0.21905116 -0.19612014 0)
(-0.19620993 -0.24589462 0)
(-0.15615314 -0.26850356 0)
(-0.10064776 -0.24767348 0)
(-0.041113587 -0.17411714 0)
(-0.0062631933 -0.059757492 0)
(-0.0019997996 0.05293901 0)
(-0.011579357 0.12480455 0)
(-0.028687506 0.16867398 0)
(-0.048093836 0.19170494 0)
(-0.067685556 0.19996753 0)
(-0.08670217 0.19757501 0)
(-0.10496764 0.18670588 0)
(-0.12265663 0.16804852 0)
(-0.14006716 0.14133553 0)
(-0.1574147 0.10581871 0)
(-0.17464169 0.060675072 0)
(-0.19121293 0.0053989954 0)
(-0.20572331 -0.05969549 0)
(-0.21560602 -0.13233835 0)
(-0.21696952 -0.20722421 0)
(-0.2046078 -0.27398828 0)
(-0.17316863 -0.3153765 0)
(-0.12014332 -0.30776006 0)
(-0.054122362 -0.22964364 0)
(-0.0096670415 -0.084559448 0)
(-0.0021060616 0.059077958 0)
(-0.011443984 0.13855792 0)
(-0.027177179 0.18582411 0)
(-0.043718298 0.20956354 0)
(-0.059103733 0.2172322 0)
(-0.072927501 0.21387972 0)
(-0.08542519 0.20223215 0)
(-0.097199841 0.18324318 0)
(-0.10900749 0.15669917 0)
(-0.12158445 0.12171746 0)
(-0.13549659 0.077121825 0)
(-0.15094554 0.021782869 0)
(-0.16735366 -0.044902875 0)
(-0.18294698 -0.12227847 0)
(-0.1942221 -0.20686616 0)
(-0.19535327 -0.28983426 0)
(-0.17835705 -0.35328753 0)
(-0.1354202 -0.36714253 0)
(-0.069078414 -0.29391059 0)
(-0.014788242 -0.1178784 0)
(-0.0027766678 0.065533954 0)
(-0.012783463 0.15177822 0)
(-0.027423205 0.20068978 0)
(-0.04038861 0.2233403 0)
(-0.050118993 0.22899826 0)
(-0.056874531 0.22375221 0)
(-0.061497991 0.21086736 0)
(-0.065108633 0.19155393 0)
(-0.0689329 0.16568047 0)
(-0.07419865 0.13231464 0)
(-0.082054883 0.090068416 0)
(-0.093441138 0.037357277 0)
(-0.10877498 -0.027290934 0)
(-0.12749341 -0.10477231 0)
(-0.14729505 -0.1940087 0)
(-0.1629918 -0.28926582 0)
(-0.16521576 -0.37486486 0)
(-0.14096146 -0.41748233 0)
(-0.08407159 -0.36259405 0)
(-0.022008165 -0.16146474 0)
(-0.0047301395 0.07377573 0)
(-0.017274257 0.16555748 0)
(-0.031400598 0.21312961 0)
(-0.039865391 0.23188793 0)
(-0.042125549 0.23352075 0)
(-0.039643879 0.22515164 0)
(-0.034144723 0.21043181 0)
(-0.027359781 0.19070548 0)
(-0.020966626 0.16587046 0)
(-0.016593877 0.1349834 0)
(-0.015848675 0.096573679 0)
(-0.020283344 0.04883394 0)
(-0.031254696 -0.010246389 0)
(-0.049542119 -0.082748258 0)
(-0.074670559 -0.16997527 0)
(-0.10350061 -0.27033982 0)
(-0.12741896 -0.37352897 0)
(-0.12983085 -0.44851034 0)
(-0.094946716 -0.42733207 0)
(-0.030932713 -0.21602778 0)
(-0.009310371 0.086923672 0)
(-0.027486063 0.18174413 0)
(-0.041105947 0.2228548 0)
(-0.042877469 0.23357212 0)
(-0.034670989 0.2285812 0)
(-0.019944618 0.21572807 0)
(-0.0016018311 0.19863321 0)
(0.017956487 0.1784784 0)
(0.036672049 0.15506128 0)
(0.052660104 0.12739708 0)
(0.064041273 0.094023639 0)
(0.068874211 0.053136643 0)
(0.065087548 0.0026022458 0)
(0.050751987 -0.060198459 0)
(0.024382514 -0.13824676 0)
(-0.013921925 -0.23405666 0)
(-0.058925675 -0.34506417 0)
(-0.093622753 -0.44943066 0)
(-0.094516901 -0.475471 0)
(-0.039224018 -0.28040385 0)
(-0.01858744 0.11087097 0)
(-0.04608372 0.20172506 0)
(-0.055338136 0.22782373 0)
(-0.044163161 0.22487174 0)
(-0.019617951 0.21045542 0)
(0.012030691 0.19213531 0)
(0.046647954 0.17267191 0)
(0.081382875 0.15258395 0)
(0.11405724 0.13133079 0)
(0.14277893 0.10781993 0)
(0.16566179 0.080655456 0)
(0.18065474 0.048204307 0)
(0.18528435 0.0085560334 0)
(0.17691028 -0.040710543 0)
(0.15254029 -0.10308106 0)
(0.10930565 -0.18382959 0)
(0.047092459 -0.2884948 0)
(-0.021542617 -0.41045437 0)
(-0.072301299 -0.49095458 0)
(-0.041158211 -0.35049327 0)
(-0.03335255 0.15563193 0)
(-0.068621013 0.22039539 0)
(-0.055249823 0.21724398 0)
(-0.01619529 0.19524375 0)
(0.034336772 0.17082742 0)
(0.088279378 0.14840101 0)
(0.14149631 0.12853544 0)
(0.19166688 0.11052645 0)
(0.23722463 0.093277426 0)
(0.27680624 0.075586094 0)
(0.30892062 0.056219798 0)
(0.33177322 0.033881946 0)
(0.34294059 0.0070974639 0)
(0.33963119 -0.025840646 0)
(0.31797178 -0.067681247 0)
(0.27314948 -0.12406315 0)
(0.20034716 -0.20581965 0)
(0.10206752 -0.32504848 0)
(-0.01242466 -0.45454934 0)
(-0.023766219 -0.40862082 0)
(-0.033076014 0.2390897 0)
(-0.042638442 0.21793103 0)
(0.042201726 0.16425696 0)
(0.12756738 0.12780701 0)
(0.20761913 0.10139495 0)
(0.28015757 0.08161532 0)
(0.34470788 0.066611117 0)
(0.40138638 0.054677697 0)
(0.45033593 0.044388979 0)
(0.49140241 0.034644767 0)
(0.5239547 0.024568797 0)
(0.54680213 0.013409342 0)
(0.55806734 0.00043131941 0)
(0.55558655 -0.015105571 0)
(0.5354362 -0.034941944 0)
(0.49238406 -0.062469485 0)
(0.4179299 -0.10693868 0)
(0.30407635 -0.19317255 0)
(0.12312067 -0.33691723 0)
(0.052368586 -0.39437745 0)
(0.24300512 0.15258053 0)
(0.305312 0.11855087 0)
(0.45482991 0.076111343 0)
(0.56001712 0.050837828 0)
(0.63222208 0.035119492 0)
(0.68651352 0.0248039 0)
(0.72937883 0.017952304 0)
(0.76371837 0.013250617 0)
(0.79119095 0.0097604495 0)
(0.8126619 0.0068563908 0)
(0.82832909 0.0041237092 0)
(0.83787565 0.0012839867 0)
(0.84052082 -0.001838048 0)
(0.83494598 -0.0053198552 0)
(0.81885386 -0.0098233194 0)
(0.78942704 -0.016229293 0)
(0.73784681 -0.026934706 0)
(0.65317156 -0.051287249 0)
(0.45609929 -0.11374741 0)
(0.31788994 -0.1720612 0)
)
;

boundaryField
{
    movingWall
    {
        type            fixedValue;
        value           uniform (1 0 0);
    }
    fixedWalls
    {
        type            fixedValue;
        value           uniform (0 0 0);
    }
    frontAndBack
    {
        type            empty;
    }
}


// ************************************************************************* //
