/*--------------------------------*- C++ -*----------------------------------*\
  =========                 |
  \\      /  F ield         | OpenFOAM: The Open Source CFD Toolbox
   \\    /   O peration     | Website:  https://openfoam.org
    \\  /    A nd           | Version:  9
     \\/     M anipulation  |
\*---------------------------------------------------------------------------*/
FoamFile
{
    format      ascii;
    class       surfaceScalarField;
    location    "0.6";
    object      alphaPhi0.phase1;
}
// * * * * * * * * * * * * * * * * * * * * * * * * * * * * * * * * * * * * * //

dimensions      [0 3 -1 0 0 0 0];

internalField   nonuniform List<scalar> 
19800
(
3.1403197e-88
-8.6498933e-89
3.2281301e-88
-8.3605543e-89
1.0571432e-86
-8.4640929e-88
3.4088325e-85
-3.1752549e-86
3.9903275e-85
-4.2591037e-86
1.2577821e-85
-1.6868594e-86
2.6369574e-86
-3.2119471e-87
1.3313135e-86
-3.0482956e-88
1.2127138e-86
2.3013201e-88
1.0791944e-86
9.1516262e-88
4.5797355e-85
4.2843308e-86
1.0163733e-82
1.6493691e-83
3.669609e-81
1.1336922e-81
2.3693744e-80
1.8553017e-80
-7.4023724e-81
1.2893802e-79
-6.1312698e-79
5.7179134e-79
-3.9336317e-78
1.9238714e-78
-7.8563266e-78
4.8717969e-78
-1.610584e-77
7.2695778e-78
-5.1443078e-76
1.0621393e-76
-6.8001945e-74
1.2384443e-74
-7.5031955e-72
1.3382041e-72
-8.2521578e-70
1.400593e-70
-1.3453501e-67
1.9579917e-68
-3.6100867e-65
4.4633663e-66
-1.0777956e-62
1.2080222e-63
-2.95944e-60
3.0835512e-61
-7.2009096e-58
7.0278149e-59
-1.53398e-55
1.4165669e-56
-2.9900225e-53
2.5318083e-54
-1.825241e-50
4.2758968e-52
-9.5411276e-48
9.8246179e-50
-3.4962948e-47
3.6075104e-48
-2.1277434e-46
8.8708768e-48
-2.2379287e-46
2.5028928e-47
-1.5167496e-46
2.131278e-47
-2.5236381e-47
7.9826638e-48
-1.8950244e-48
8.1899969e-49
-3.3631693e-48
5.8548576e-50
-4.9401812e-48
5.3849485e-52
-1.7960779e-46
-8.5877918e-48
-1.3793729e-44
-1.3703388e-45
-7.9619386e-43
-1.1896968e-43
-2.4952162e-41
-5.7911147e-42
-1.6454907e-40
-8.4280544e-40
-1.7489483e-39
-1.5044632e-38
-5.8246107e-39
-1.2026345e-37
7.9684941e-37
-3.8555761e-36
9.4884609e-35
-2.358257e-34
7.2396577e-33
-1.4076557e-32
4.2792616e-31
-7.3543789e-31
1.9558823e-29
-3.1788647e-29
6.8471792e-28
-1.089912e-27
1.2565733e-26
-2.3354276e-26
3.9460399e-26
-2.1179479e-25
4.2201101e-26
-2.5458408e-25
6.633236e-27
-1.6963259e-26
7.920839e-28
-7.5782857e-28
6.962436e-29
-5.2937128e-29
2.9894466e-30
-1.5977598e-29
2.7047652e-32
-1.2352451e-31
7.2023316e-34
3.4893942e-34
2.8325038e-35
2.1168713e-35
8.7738616e-37
1.1169717e-36
2.6826399e-38
4.8004831e-38
7.6939667e-40
1.8036282e-39
2.0359853e-41
6.0551167e-41
4.8471043e-43
1.8118824e-42
1.0206476e-44
4.7687141e-44
1.9065746e-46
1.1035841e-45
3.1470177e-48
2.2495781e-47
4.5359823e-50
4.0174404e-49
5.6475608e-52
6.2404615e-51
6.0069235e-54
8.3664671e-53
5.3883228e-56
9.593459e-55
4.0143448e-58
9.3019329e-57
2.4376981e-60
7.5278569e-59
1.1783043e-62
5.0020863e-61
4.393466e-65
2.67205e-63
1.2082185e-67
1.1223715e-65
2.2951111e-70
3.5391076e-68
2.678191e-73
8.0214005e-71
1.6340451e-76
1.1795852e-73
1.3095076e-78
1.163955e-76
-7.6201417e-79
6.8383162e-78
-5.5601252e-79
1.853352e-78
-1.7812878e-79
4.1315089e-79
-2.3311544e-80
6.4439946e-80
-7.1634622e-82
4.6015856e-81
-3.5415106e-84
8.032334e-83
-6.8612384e-87
2.0752959e-85
-7.0886424e-87
2.7577745e-88
-7.4437955e-87
-1.4582326e-88
-1.4959885e-86
-8.6034116e-88
-8.4858858e-86
-6.0493525e-87
-6.9881777e-85
-4.0160663e-86
-7.5724966e-85
-1.6286726e-85
-6.8106288e-85
-2.0367747e-85
-5.8361002e-85
-2.2521115e-85
-2.4753223e-85
4.1473903e-88
-2.8829683e-88
1.2751066e-86
-3.5643318e-87
4.4602106e-85
-1.0728983e-85
4.5750192e-84
-1.1327822e-84
5.6076319e-84
-1.379039e-84
4.3414023e-84
-6.9340819e-85
2.6238546e-84
-1.183579e-85
8.4206106e-85
1.1634619e-85
7.8532061e-86
5.8308472e-86
2.1097654e-86
5.9002982e-87
4.0224096e-85
6.7429906e-86
7.1800016e-83
1.6065575e-83
3.238483e-81
1.2823234e-81
2.5016006e-80
2.0132905e-80
3.2762985e-80
1.7857766e-79
-4.2806654e-79
8.7121494e-79
-2.7361244e-78
2.875001e-78
-6.2448298e-78
6.7576728e-78
-3.1200354e-77
1.2738425e-77
-7.2655857e-75
4.1247254e-75
-9.844151e-73
6.1299788e-73
-1.1137438e-70
6.5998885e-71
-1.9889742e-68
9.8405995e-69
-6.6828516e-66
2.779256e-66
-2.4897447e-63
9.3258247e-64
-8.2375012e-61
2.8637634e-61
-2.3560947e-58
7.6453293e-59
-5.8597893e-56
1.7814031e-56
-1.2731999e-53
3.6391215e-54
-2.6377874e-51
6.5804026e-52
-3.2899503e-48
1.2035602e-49
-9.4961005e-46
2.6493379e-47
-8.8457091e-46
4.3265134e-46
-1.3276447e-45
3.4644938e-46
-7.3758611e-44
2.0922293e-45
-7.8649542e-44
2.1409252e-44
-4.376179e-44
1.7315623e-44
-2.2817412e-45
3.8968453e-45
-7.5224002e-46
9.4190909e-47
-1.5551244e-45
-2.9528901e-47
-1.3339218e-43
-1.1023479e-44
-9.7519531e-42
-1.4498473e-42
-5.568094e-40
-1.1278251e-40
-1.5170201e-38
-4.87341e-39
-6.1281233e-38
-8.8534404e-38
-2.8453758e-37
-6.2298832e-37
-2.6161381e-36
-1.696727e-35
1.6002226e-34
-7.9946264e-34
2.0449827e-32
-3.9832159e-32
1.4722508e-30
-1.8512154e-30
8.1875478e-29
-9.2902054e-29
3.5654922e-27
-3.9127607e-27
1.2124348e-25
-1.2991033e-25
2.1408936e-24
-2.2275091e-24
5.0458771e-24
-4.242845e-24
5.4271279e-24
-3.8607851e-24
1.7158824e-24
-1.6625356e-24
1.8176711e-25
-2.6946073e-25
1.6314939e-26
-1.6639717e-26
7.3483478e-28
-2.9824973e-27
7.6806948e-30
-3.0500228e-29
2.3889485e-31
2.6823046e-31
8.6533175e-33
1.9022167e-32
2.6879194e-34
1.0157136e-33
8.2800084e-36
4.3906125e-35
2.4017195e-37
1.6549012e-36
6.5760728e-39
5.6331541e-38
1.6403169e-40
1.7505929e-39
3.4473473e-42
4.7120754e-41
6.2316196e-44
1.0742262e-42
1.0030667e-45
2.1438377e-44
1.4100066e-47
3.7463702e-46
1.7026824e-49
5.673396e-48
1.7460383e-51
7.3807565e-50
1.5001236e-53
8.1688438e-52
1.0620266e-55
7.6013717e-54
6.0686633e-58
5.8640711e-56
2.7271652e-60
3.6812981e-58
9.8118973e-63
1.8425141e-60
2.64865e-65
7.125115e-63
4.8576587e-68
2.0339289e-65
5.2467861e-71
3.998302e-68
1.1366033e-74
4.7707404e-71
-2.7349913e-79
2.5395312e-74
-1.6850873e-78
1.5320527e-77
-8.0380341e-79
3.3874347e-78
-2.167899e-79
6.6325148e-79
-2.576348e-80
9.0359244e-80
-8.0398202e-82
6.1699587e-81
-5.1058796e-84
1.1201406e-82
-6.7123951e-86
4.8476384e-85
-1.5252202e-85
6.9541391e-87
-9.4880299e-85
-3.0367669e-86
-6.3228584e-84
-6.102905e-85
-2.8905921e-83
-4.734321e-84
-2.568585e-83
-1.5344209e-83
-1.8466868e-83
-1.7521389e-83
-4.6322751e-84
-1.3202611e-83
-2.4417706e-84
-4.6647827e-84
-3.8722723e-84
4.9219525e-85
-2.9476363e-85
1.9606284e-83
-5.9194461e-84
6.9981092e-82
-1.8412646e-82
4.2010359e-81
-1.0751181e-81
4.6524008e-81
-1.0128659e-81
3.3355207e-81
-3.8693077e-82
1.9057558e-81
6.1330105e-83
6.0955221e-82
1.9173021e-82
6.501972e-83
7.624794e-83
3.1633752e-84
1.0986558e-83
1.348179e-84
1.0488816e-84
6.6259471e-83
2.1869473e-83
3.0174797e-81
1.6721567e-81
1.2507935e-80
1.4409237e-80
1.6075779e-80
5.1073593e-80
-4.6094793e-78
4.2715773e-77
-5.3560419e-78
9.165583e-77
-1.081683e-77
2.4032293e-77
-3.7793995e-74
4.3725952e-75
-9.6752796e-72
9.7154153e-72
-1.1470184e-69
1.031232e-69
-1.1828656e-67
1.0383031e-67
-1.6995448e-65
1.2544239e-65
-5.0235112e-63
3.0113719e-63
-1.8869251e-60
9.9659702e-61
-6.4281737e-58
3.1240516e-58
-1.8903814e-55
8.5450005e-56
-4.8123978e-53
2.0295285e-53
-1.0672695e-50
4.2126624e-51
-2.2452495e-48
7.7104204e-49
-2.8406516e-45
1.4218692e-46
-8.2614052e-43
3.1537144e-44
-7.5397785e-43
5.2016256e-43
-1.1921533e-42
4.1634764e-43
-7.7004104e-41
2.9139925e-42
-9.0019397e-41
3.1296552e-41
-5.3423421e-41
2.6306632e-41
-3.8880571e-42
6.2556789e-42
-3.3591008e-43
1.6137695e-43
-6.9792318e-43
-1.908216e-44
-5.7339917e-41
-6.0606733e-42
-4.0099821e-39
-7.37709e-40
-2.1966414e-37
-5.2795396e-38
-5.5117705e-36
-2.0500283e-36
-1.8054453e-35
-3.1495375e-35
-7.1339161e-35
-1.727231e-34
-8.285783e-34
-4.1278573e-33
1.2971288e-32
-1.7686788e-31
2.456012e-30
-7.715685e-30
1.753948e-28
-3.2601724e-28
9.3387902e-27
-1.2560831e-26
3.9264951e-25
-4.6114175e-25
1.3171614e-23
-1.4878277e-23
2.3636909e-22
-2.5759795e-22
5.9018954e-22
-6.5889064e-22
6.8601403e-22
-6.3387088e-22
2.3624885e-22
-2.9038057e-22
2.5924083e-23
-5.1544434e-23
2.385389e-24
-3.1512684e-24
1.1510111e-25
-3.6634791e-25
1.2342351e-27
-4.0553013e-27
4.6902574e-29
5.8287988e-29
1.6725047e-30
5.0166409e-30
5.4238594e-32
2.7221659e-31
1.7214132e-33
1.2004968e-32
5.2660222e-35
4.6658485e-34
1.5891451e-36
1.6904672e-35
4.3629638e-38
5.7654556e-37
9.2374709e-40
1.6480526e-38
1.5917083e-41
3.7218374e-40
2.4701441e-43
7.239183e-42
3.3624463e-45
1.2341364e-43
3.9066076e-47
1.8143931e-45
3.8241121e-49
2.2767135e-47
3.1083529e-51
2.413887e-49
2.0595488e-53
2.1345258e-51
1.2174758e-55
1.550579e-53
5.4037279e-58
9.0753428e-56
1.7976367e-60
4.1665163e-58
4.2343707e-63
1.4414865e-60
6.3016884e-66
3.5714706e-63
4.0203967e-69
5.7342129e-66
2.4676173e-73
4.9122116e-69
-9.3872083e-76
1.1887313e-72
-4.2625087e-76
7.0277413e-75
-1.1283152e-76
1.1472989e-75
-1.6935074e-77
1.6005405e-76
-1.6298419e-78
1.4283077e-77
-1.1205239e-79
8.6000673e-79
-3.4198237e-81
3.6264451e-80
-1.4584716e-82
6.1936375e-82
-3.1204756e-82
1.7755261e-83
-1.5410244e-81
-7.4416226e-83
-8.6017785e-81
-1.1001648e-81
-3.1287831e-80
-7.4284087e-81
-3.2662888e-80
-2.1721974e-80
-2.3562972e-80
-2.7464206e-80
-6.9742565e-81
-2.0314977e-80
-2.946681e-81
-7.7753238e-81
-5.3855314e-81
2.7515101e-82
-1.8500958e-82
1.724841e-80
-5.2075739e-81
6.1886914e-79
-1.6499046e-79
2.4184328e-78
-6.8711348e-79
2.564851e-78
-5.493115e-79
1.8139594e-78
-1.6096703e-79
1.0137209e-78
9.3375626e-80
3.2184923e-79
1.3879249e-79
3.8479839e-80
5.303116e-80
2.8531338e-81
1.0659442e-80
9.5634909e-83
7.6285668e-82
5.1812446e-83
4.7151132e-83
3.6891469e-81
2.2326198e-81
2.0327894e-80
2.0911899e-80
5.1943466e-75
2.0557547e-74
2.8793508e-75
2.6304755e-73
-8.1204336e-76
1.5274935e-73
-2.0469896e-75
9.5727057e-75
-7.0364414e-72
1.8446042e-72
-4.940439e-69
4.6614732e-69
-8.2199648e-67
9.7254825e-67
-8.504055e-65
1.0017481e-64
-1.0573259e-62
1.0662327e-62
-2.6676043e-60
2.1644415e-60
-1.0015085e-57
6.9704831e-58
-3.5459152e-55
2.2515139e-55
-1.0831904e-52
6.364209e-53
-2.8501361e-50
1.5568475e-50
-6.4989671e-48
3.3062451e-48
-1.3947702e-45
6.1510082e-46
-1.7940903e-42
1.1475628e-43
-5.2607807e-40
2.5731523e-41
-4.7756457e-40
4.2650151e-40
-8.0382495e-40
3.3914959e-40
-5.7159407e-38
2.8103333e-39
-7.6281813e-38
3.1754064e-38
-4.8588679e-38
2.8774693e-38
-4.3957545e-39
7.5895072e-39
-1.2381225e-40
2.4552619e-40
-2.4219556e-40
-5.8741608e-42
-1.7914158e-38
-2.0324331e-39
-1.2129872e-36
-2.3966664e-37
-6.4398766e-35
-1.6146134e-35
-1.482157e-33
-5.6725253e-34
-3.9458782e-33
-7.3602005e-33
-1.2978391e-32
-3.1156105e-32
-1.7254335e-31
-6.4454889e-31
-7.9772509e-31
-2.5986643e-29
1.731721e-28
-9.8478578e-28
1.3723571e-26
-3.7802017e-26
7.2764571e-25
-1.3530496e-24
2.995339e-23
-4.2326912e-23
9.9403864e-22
-1.1918395e-21
1.8183261e-20
-2.089737e-20
4.9443005e-20
-6.7620185e-20
5.8453149e-20
-6.9052784e-20
2.2781799e-20
-3.3513905e-20
2.8740976e-21
-6.5062298e-21
2.4819645e-22
-4.4415811e-22
1.2831655e-23
-2.6310366e-23
1.3927989e-25
-2.9997774e-25
7.2330627e-27
1.090704e-26
2.5158305e-28
9.5940762e-28
8.5766275e-30
5.3303528e-29
2.9127156e-31
2.4461423e-30
1.0133886e-32
1.0294765e-31
3.6324338e-34
4.2589167e-33
1.1284563e-35
1.6835215e-34
2.4288384e-37
5.2781268e-36
3.8769717e-39
1.1780841e-37
5.652365e-41
2.1906441e-39
7.3167585e-43
3.5923533e-41
8.0315751e-45
5.0577498e-43
7.353446e-47
6.0292094e-45
6.0216277e-49
6.0179998e-47
4.1878081e-51
4.9699993e-49
2.168582e-53
3.3262536e-51
8.5436134e-56
1.7583801e-53
2.4306545e-58
7.1225792e-56
4.5171553e-61
2.1036653e-58
3.832856e-64
4.1785215e-61
4.9809699e-68
4.8158332e-64
-3.6380122e-72
2.1478271e-67
-8.8659841e-73
6.6382924e-71
-3.0118778e-73
3.7855149e-72
-7.9926293e-74
6.8899485e-73
-1.4306991e-74
1.0915221e-73
-1.5846205e-75
1.2285317e-74
-9.784014e-77
8.6399971e-76
-2.6378039e-78
3.2603691e-77
-2.0497318e-79
5.0070722e-79
-4.3356301e-79
2.2248324e-80
-1.8291638e-78
-1.3749037e-79
-8.7266997e-78
-1.4391082e-78
-2.6416512e-77
-8.3391504e-78
-2.9061526e-77
-2.2224708e-77
-2.0738463e-77
-2.9063323e-77
-6.6061238e-78
-2.0833262e-77
-2.2659964e-78
-8.1848463e-78
-4.9093155e-78
1.1856865e-79
-8.9566133e-80
9.1985699e-78
-2.9863817e-78
3.3118079e-76
-9.5647814e-77
1.057032e-75
-3.3811866e-76
1.1008419e-75
-2.4618362e-76
7.7768787e-76
-6.2007831e-77
4.3027275e-76
5.3090261e-77
1.3572949e-76
6.9768745e-77
1.805544e-77
2.5943484e-77
1.8436585e-78
6.7165598e-78
2.8547282e-80
2.9530772e-79
1.8210823e-80
2.7732642e-80
1.1051221e-79
1.3626584e-79
5.2538717e-77
8.8428724e-77
6.1927325e-72
1.9419924e-71
1.0757054e-71
1.6626679e-70
-7.3409778e-74
8.3234036e-71
-3.3877621e-73
3.042959e-72
-5.1219032e-70
1.3776231e-70
-1.0972238e-66
2.5671156e-67
-3.6244691e-64
5.1808372e-64
-4.2328832e-62
6.4941514e-62
-4.9154054e-60
6.5787952e-60
-1.049882e-57
1.1264287e-57
-3.9139482e-55
3.4933665e-55
-1.4605355e-52
1.172213e-52
-4.6906965e-50
3.4618375e-50
-1.2860512e-47
8.7720452e-48
-3.0414099e-45
1.9229875e-45
-6.7103142e-43
3.6674168e-43
-8.8250904e-40
6.9689698e-41
-2.638926e-37
1.5885004e-38
-2.3894863e-37
2.6671804e-37
-4.1066232e-37
2.1138601e-37
-3.1143286e-35
1.9294699e-36
-5.0596328e-35
2.3781041e-35
-3.473791e-35
2.422339e-35
-3.8810008e-36
7.2643565e-36
-5.0674494e-38
3.2156198e-37
-8.0546936e-38
-1.1785736e-39
-4.3965361e-36
-4.7091438e-37
-2.9177839e-34
-5.6567382e-35
-1.5147448e-32
-3.6607056e-33
-3.2000279e-31
-1.1665443e-31
-6.8280703e-31
-1.2786299e-30
-1.7895317e-30
-4.1191708e-30
-2.4884699e-29
-7.1172269e-29
-3.3816028e-28
-2.732267e-27
5.5954903e-27
-9.3921439e-26
7.3556974e-25
-3.2069804e-24
4.1074384e-23
-1.0640146e-22
1.6964621e-21
-3.1534166e-21
5.6354172e-20
-8.2142217e-20
1.05e-18
-1.4077887e-18
3.0661938e-18
-5.1704665e-18
3.7093785e-18
-5.8441742e-18
1.644583e-18
-2.9697394e-18
2.3921141e-19
-6.0226603e-19
1.982685e-20
-4.5437528e-20
1.0791398e-21
-1.9211433e-21
1.4826985e-23
-6.4413333e-24
9.9887247e-25
1.6544397e-24
3.1516713e-26
1.4644881e-25
1.1655241e-27
8.4091634e-27
4.7361645e-29
4.2555202e-28
2.1279138e-30
2.1813618e-29
8.7351339e-32
1.0923029e-30
2.8700175e-33
4.8562739e-32
6.2818062e-35
1.6343612e-33
9.1984022e-37
3.5829944e-35
1.2300592e-38
6.2419374e-37
1.4852435e-40
9.6646794e-39
1.6074522e-42
1.2870186e-40
1.5215257e-44
1.4416921e-42
1.1798619e-46
1.3346997e-44
7.0421854e-49
1.002845e-46
3.164872e-51
5.9631061e-49
1.0347781e-53
2.7317831e-51
2.2198255e-56
9.1981055e-54
1.9241634e-59
2.121738e-56
3.8455579e-63
2.9413901e-59
-1.1773468e-67
1.8445725e-62
-5.2943393e-69
5.6438361e-66
-4.7845525e-70
2.9034455e-68
-1.5500063e-70
1.4384335e-69
-4.1984337e-71
3.0225387e-70
-8.1403087e-72
5.2554817e-71
-9.5503047e-73
6.6527927e-72
-5.6354942e-74
5.0186171e-73
-1.4700276e-75
1.8094727e-74
-2.3435521e-76
2.8001387e-76
-4.6934367e-76
1.791966e-77
-1.689071e-75
-1.8964546e-76
-6.8864541e-75
-1.452207e-75
-1.8078989e-74
-7.1714141e-75
-2.0019391e-74
-1.7521262e-74
-1.3998793e-74
-2.2955329e-74
-4.5479389e-75
-1.5825093e-74
-1.3596076e-75
-6.2180099e-75
-3.3657722e-75
4.1767724e-77
-3.5407671e-77
3.6321241e-75
-1.297637e-75
1.3092109e-73
-4.1813979e-74
3.7393718e-73
-1.3551766e-73
3.8678611e-73
-9.4525613e-74
2.7450757e-73
-2.4443512e-74
1.5080892e-73
2.0256243e-74
4.7704614e-74
2.6203475e-74
6.9216006e-75
9.8665715e-75
2.0128022e-75
3.0103334e-75
7.3065597e-76
1.761069e-75
6.4832944e-77
9.9352703e-77
9.2419784e-77
1.5894836e-76
1.769022e-70
2.7620519e-70
4.2354319e-69
1.1229721e-68
7.9766496e-69
7.029088e-68
2.544902e-70
2.5734532e-68
-1.7591961e-71
5.0670551e-70
-4.0428239e-68
8.1409557e-69
-2.1432341e-65
2.0720042e-65
-5.9507258e-62
3.9527618e-62
-2.4341161e-59
3.1244565e-59
-2.1987745e-57
4.4729482e-57
-3.2257978e-55
4.5204377e-55
-1.148837e-52
1.304446e-52
-4.553444e-50
4.548472e-50
-1.5661226e-47
1.4269309e-47
-4.5648247e-45
3.8193898e-45
-1.1362462e-42
8.7431975e-43
-2.6009156e-40
1.7253638e-40
-3.519431e-37
3.3480546e-38
-1.0826693e-34
7.8242863e-36
-9.8008674e-35
1.333837e-34
-1.6604862e-34
1.0584048e-34
-1.3037444e-32
9.9586263e-34
-2.6820957e-32
1.3692977e-32
-1.9826968e-32
1.6038635e-32
-2.7336879e-33
5.5344811e-33
-2.8374694e-35
3.3542073e-34
-3.4676315e-35
6.7081826e-37
-8.9848973e-34
-7.9945129e-35
-5.9248219e-32
-1.0439922e-32
-3.0583693e-30
-6.6368455e-31
-5.8191282e-29
-1.9292693e-29
-9.8205911e-29
-1.7721771e-28
-1.9691921e-28
-4.2929948e-28
-2.5463343e-27
-5.8808084e-27
-4.6726028e-26
-2.1586906e-25
-2.9164253e-25
-7.0507705e-24
2.4451008e-23
-2.1244501e-22
1.6951214e-21
-6.4565232e-21
7.2898817e-20
-1.8113436e-19
2.4640285e-18
-4.8040391e-18
4.6805315e-17
-7.1988373e-17
1.4289918e-16
-2.3803967e-16
1.7960401e-16
-2.5677741e-16
9.0755222e-17
-1.5238374e-16
1.5536956e-17
-4.008095e-17
1.1941845e-18
-3.5996616e-18
6.7194877e-20
-1.2083221e-19
1.3536384e-21
4.290299e-22
1.0779737e-22
2.0445095e-22
3.4804433e-24
1.8548962e-23
1.5718564e-25
1.1618593e-24
9.6270496e-27
7.6402505e-26
5.7450852e-28
5.5944025e-27
2.1999453e-29
3.1818563e-28
6.6763368e-31
1.3884061e-29
1.4557668e-32
4.6723878e-31
1.9820717e-34
9.945071e-33
2.491831e-36
1.5980596e-34
3.1444782e-38
2.3457028e-36
3.2897549e-40
2.9283885e-38
2.8081086e-42
3.0086932e-40
1.8782111e-44
2.5026186e-42
9.3686695e-47
1.6466335e-44
3.3952625e-49
8.3241333e-47
7.8298459e-52
3.1015849e-49
3.9778042e-55
7.9371617e-52
1.6469839e-58
1.2362032e-54
-7.9386718e-63
9.70819e-58
-3.5717052e-64
6.0942764e-61
-3.0801773e-66
2.351951e-63
-1.8513857e-67
1.0060835e-65
-6.1067022e-68
4.312295e-67
-1.6746807e-68
1.0244974e-67
-3.4246636e-69
1.8881296e-68
-4.2493479e-70
2.5866385e-69
-2.4318418e-71
2.0713792e-70
-5.7187821e-73
7.1703366e-72
-2.2862866e-73
1.1339425e-73
-4.1038965e-73
6.7835489e-75
-1.2603283e-72
-1.9923024e-73
-4.4368688e-72
-1.1699967e-72
-1.022855e-71
-4.9496333e-72
-1.1171179e-71
-1.1051982e-71
-7.5867472e-72
-1.4292405e-71
-2.456666e-72
-9.4177468e-72
-6.6132639e-73
-3.6591246e-72
-1.8275311e-72
1.2534044e-74
-1.1876325e-74
1.1546839e-72
-4.5728508e-73
4.1644627e-71
-1.4794742e-71
1.1136212e-70
-4.5947038e-71
1.1521019e-70
-3.1769907e-71
8.2222265e-71
-9.2443477e-72
4.510456e-71
5.5487832e-72
1.4376541e-71
7.8661165e-72
2.2090657e-72
3.062522e-72
1.3150078e-72
1.016983e-72
4.4377696e-72
4.8463021e-72
1.0318924e-73
2.5799475e-73
9.0989927e-74
1.847751e-73
1.9090324e-67
2.7622247e-67
2.0060912e-66
4.6595612e-66
3.6558239e-66
2.2971629e-65
1.0202937e-67
5.6469917e-66
8.9148184e-70
6.7832942e-68
-3.5012247e-68
4.1732945e-67
-1.8383593e-64
6.5748607e-64
-1.9178913e-60
1.3325837e-60
-1.734672e-57
2.4818825e-57
-4.8138473e-55
7.114454e-55
-8.2296973e-53
1.5614242e-52
-2.5142181e-50
3.6846375e-50
-1.0772335e-47
1.3361568e-47
-4.0629367e-45
4.5372979e-45
-1.3927918e-42
1.3004983e-42
-3.6516116e-40
3.1477325e-40
-8.1434759e-38
6.4983442e-38
-1.1457996e-34
1.2962172e-35
-3.7065513e-32
3.1449694e-33
-3.2804151e-32
5.5229445e-32
-5.4616852e-32
4.2751652e-32
-4.4110466e-30
4.0850898e-31
-1.1402596e-29
6.269105e-30
-9.0906771e-30
8.4366743e-30
-1.5406891e-30
3.3396081e-30
-2.3655389e-32
2.7025966e-31
-1.3674389e-32
1.7671544e-33
-1.5983575e-31
-9.4520706e-33
-1.0614005e-29
-1.5816693e-30
-5.5836325e-28
-1.0151856e-28
-9.272187e-27
-2.7085707e-27
-1.2128825e-26
-2.057257e-26
-1.8099628e-26
-3.7034616e-26
-1.9516275e-25
-3.7530886e-25
-4.1597071e-24
-1.3185373e-23
-5.7195013e-23
-4.1495236e-22
1.3302402e-22
-1.176267e-20
4.7933068e-20
-3.1567648e-19
2.3730388e-18
-8.6571695e-18
8.303524e-17
-1.825771e-16
1.5607101e-15
-1.9481928e-15
4.8666359e-15
-5.5773903e-15
6.3323041e-15
-3.8147141e-15
3.4582499e-15
-4.9833657e-16
8.5208028e-16
-1.0639069e-15
6.3110168e-17
-1.7891278e-16
3.3311836e-18
-6.3271339e-18
1.0944842e-19
7.2296053e-20
7.0571645e-21
2.1685469e-20
3.5253401e-22
1.9948296e-21
2.5598603e-23
1.5905793e-22
2.5744939e-24
1.6707416e-23
1.680967e-25
1.6779323e-24
5.1652679e-27
9.4504136e-26
1.3244656e-28
3.6225426e-27
2.789676e-30
1.1476985e-28
3.6182788e-32
2.3313428e-30
5.0209804e-34
3.4526991e-32
5.7733421e-36
4.7782191e-34
5.3899442e-38
5.414052e-36
3.914065e-40
4.9324636e-38
2.1090597e-42
3.5286023e-40
8.1205323e-45
1.9254761e-42
1.7620108e-47
7.6878279e-45
8.6937873e-51
2.0946993e-47
4.3756953e-54
3.5175782e-50
-1.0728473e-57
3.410493e-53
-2.8585208e-59
5.0101624e-56
-2.0085645e-61
2.0355645e-58
-1.1381241e-63
7.2572003e-61
-5.5179981e-65
2.6548558e-63
-1.8972388e-65
1.047778e-64
-5.3526554e-66
2.7601599e-65
-1.1590615e-66
5.3818026e-66
-1.4970978e-67
7.9240427e-67
-8.1495895e-69
6.565633e-68
-1.599945e-70
2.1164583e-69
-1.5965214e-70
3.5748254e-71
-2.9276221e-70
-5.6925407e-72
-7.7473292e-70
-1.6328045e-70
-2.3875295e-69
-7.6899374e-70
-4.8772753e-69
-2.8138138e-69
-5.1720189e-69
-5.7446542e-69
-3.4022261e-69
-7.2364991e-69
-1.0866228e-69
-4.5537268e-69
-2.687475e-70
-1.7395754e-69
-8.1243669e-70
3.3063114e-72
-3.4877515e-72
3.0955982e-70
-1.3594555e-70
1.1157634e-68
-4.4157207e-69
2.8680309e-68
-1.3457915e-68
2.975224e-68
-9.3973195e-69
2.1405527e-68
-3.1686497e-69
1.1757538e-68
1.0902159e-69
3.7908444e-69
1.9489321e-69
6.0216583e-70
8.0165119e-70
3.6247451e-70
2.7287553e-70
2.7992168e-69
2.9572413e-69
1.0631438e-70
1.5193396e-70
3.9121388e-67
3.7264323e-67
8.2080292e-65
1.0910908e-64
6.706706e-64
1.3760443e-63
1.1781951e-63
5.7974397e-63
8.0374415e-64
6.4275428e-63
3.3587263e-65
5.2648353e-64
2.4971874e-65
2.2114244e-63
-2.5939832e-63
5.0989692e-62
-3.3134959e-60
1.0942144e-59
-6.5386761e-57
1.9538479e-56
-2.1434661e-53
2.1729034e-53
-1.1298072e-50
2.1666231e-50
-4.3709707e-48
7.9386756e-48
-1.8996583e-45
3.0004911e-45
-8.0006926e-43
1.1011656e-42
-3.5243486e-40
3.4619629e-40
-1.0880773e-37
9.0793376e-38
-2.2852212e-35
1.9922767e-35
-3.0953824e-32
4.1419417e-33
-1.0831332e-29
1.0594888e-30
-9.2300357e-30
1.940266e-29
-1.5274267e-29
1.4438284e-29
-1.2637277e-27
1.4037956e-28
-3.8994284e-27
2.3515107e-27
-3.3367605e-27
3.5405649e-27
-6.8586406e-28
1.600571e-27
-1.4229198e-29
1.660148e-28
-5.7553061e-30
1.9289591e-30
-2.534551e-29
-6.2145326e-31
-1.7373113e-27
-1.9876642e-28
-9.646422e-26
-1.3403116e-26
-1.3269083e-24
-3.2347261e-25
-1.3281948e-24
-2.0700879e-24
-1.4452986e-24
-2.7953384e-24
-1.1526887e-23
-1.8801492e-23
-2.6164927e-22
-6.3158065e-22
-4.6696016e-21
-1.918063e-20
-4.7919677e-20
-5.2760457e-19
6.0432327e-19
-1.3662743e-17
5.5437573e-17
-2.8505077e-16
2.1226086e-15
-2.6796592e-15
4.2367923e-14
-6.1137593e-14
1.4148495e-13
-1.7031723e-13
1.9242127e-13
-1.2940724e-13
1.117419e-13
-1.302246e-15
2.9630967e-14
0
2.9390709e-15
-6.7164663e-16
1.6694667e-16
-2.2630305e-16
8.5384287e-18
1.0289322e-17
5.5192786e-19
2.0912992e-18
4.0871842e-20
2.144119e-19
5.0628264e-21
2.535276e-20
6.6464487e-22
4.0642906e-21
3.9921168e-23
4.5768469e-22
9.6639024e-25
2.3499202e-23
2.0990604e-26
7.7053001e-25
4.1587894e-28
2.2478506e-26
6.1663547e-30
4.2825975e-28
7.7453636e-32
5.9364469e-30
7.9200599e-34
7.3816255e-32
6.0716682e-36
7.3067498e-34
3.4443668e-38
5.6026996e-36
1.2852847e-40
3.2358224e-38
1.2210812e-43
1.3472114e-40
1.2937511e-46
3.7957836e-43
1.3713905e-49
6.9247566e-46
-1.2315809e-52
9.7569969e-49
-1.9279194e-54
3.0887158e-51
-1.3096077e-56
1.3327079e-53
-6.1766421e-59
4.9594186e-56
-2.3880871e-61
1.531566e-58
-1.2937565e-62
4.2995519e-61
-4.8672028e-63
2.0830511e-62
-1.414356e-63
6.20474e-63
-3.2186346e-64
1.2562852e-63
-4.2382431e-65
1.9554898e-64
-2.243873e-66
1.6313014e-65
-6.1457627e-68
4.9269694e-67
-7.5743693e-68
9.5115111e-69
-1.7300908e-67
-1.2488345e-68
-3.9769294e-67
-1.0735229e-67
-1.0865942e-66
-4.1868163e-67
-1.9895151e-66
-1.3402316e-66
-2.024125e-66
-2.5080585e-66
-1.2872491e-66
-3.0519736e-66
-4.039749e-67
-1.8328651e-66
-9.2917395e-68
-6.8725104e-67
-3.0239895e-67
7.8834538e-70
-9.2070504e-70
7.2082502e-68
-3.5027811e-68
2.5914817e-66
-1.1400442e-66
6.5080551e-66
-3.4517186e-66
6.780025e-66
-2.4670269e-66
4.9291516e-66
-9.5479298e-67
2.712244e-66
1.3243898e-67
8.8675035e-67
4.0580568e-67
1.4203258e-67
1.8026404e-67
8.2784398e-68
5.9433909e-68
1.1439436e-66
6.3822478e-67
1.1552196e-65
8.2440854e-66
1.0214785e-63
9.2134118e-64
2.7786852e-62
3.4365424e-62
1.7912108e-61
3.3194674e-61
4.6635092e-61
1.1950682e-60
2.067534e-60
6.6664382e-60
8.633787e-59
3.9634746e-58
9.191614e-58
1.6179625e-56
2.2801794e-59
2.8503286e-57
-3.3769141e-57
2.3574786e-56
-1.8687019e-55
1.5648859e-54
-2.6610354e-52
9.208701e-52
-4.6272809e-49
1.056516e-48
-4.125687e-46
8.8951963e-46
-2.3793239e-43
4.7326882e-43
-1.1686719e-40
2.0194177e-40
-6.4372197e-38
7.1610622e-38
-2.4300959e-35
2.0841655e-35
-5.87348e-33
4.9820793e-33
-6.8983332e-30
1.0950868e-30
-2.7063148e-27
2.9933019e-28
-2.1127233e-27
5.8389382e-27
-3.7634624e-27
3.9717487e-27
-3.2895767e-25
4.4572003e-26
-1.0743241e-24
7.5201068e-25
-9.7204513e-25
1.1916437e-24
-2.3556455e-25
5.9917891e-25
-7.094619e-27
7.6750543e-26
-1.4452102e-27
1.3453021e-27
-3.777118e-27
4.5173049e-29
-2.686525e-25
-2.0776696e-26
-1.3482207e-23
-1.5905667e-24
-1.4036832e-22
-3.41451e-23
-1.0777382e-22
-1.8608263e-22
-1.0514473e-22
-1.9602248e-22
-5.3015789e-22
-7.3324847e-22
-1.2387662e-20
-2.3830169e-20
-2.4921187e-19
-7.0184275e-19
-4.1206328e-18
-1.9790386e-17
-2.4878335e-17
-4.45109e-16
8.450325e-16
-3.3777192e-15
5.3990858e-14
-9.0365861e-14
9.2818285e-13
-1.4282627e-12
3.1615051e-12
-4.1825356e-12
4.5166834e-12
-3.5305809e-12
2.8922326e-12
0
8.731595e-13
0
9.5211325e-14
0
7.8009801e-15
-6.4584159e-17
5.6562434e-16
1.2871732e-15
3.8591308e-17
1.7307808e-16
3.7384751e-18
1.8958119e-17
6.8424653e-19
3.0513894e-18
1.2289057e-19
6.8882723e-19
8.8886881e-21
1.0003758e-19
1.8701999e-22
5.5640181e-21
2.8635511e-24
1.4947392e-22
4.6819711e-26
3.6115346e-24
8.167945e-28
6.1999725e-26
8.9641448e-30
7.9155441e-28
7.2597733e-32
8.4334217e-30
4.2750533e-34
6.8357627e-32
8.4203324e-37
4.075904e-34
1.1603996e-39
1.7488032e-36
1.7669663e-42
5.1891042e-39
6.8776225e-46
1.1100556e-41
-9.1821029e-48
2.8759879e-44
-1.0397736e-49
1.4052322e-46
-6.7502917e-52
6.4974652e-49
-3.0382698e-54
2.5373189e-51
-7.2587869e-57
7.6644986e-54
-1.3888198e-59
1.343338e-56
-2.3016583e-60
2.1558248e-59
-1.0614259e-60
3.3530744e-60
-3.2095046e-61
1.2104213e-60
-7.7687444e-62
2.5042477e-61
-1.0331685e-62
4.1371962e-62
-5.2658258e-64
3.3960578e-63
-2.4248791e-65
9.3756062e-65
-3.9075837e-65
1.9624232e-66
-8.5182714e-65
-1.1613341e-65
-1.7263102e-64
-5.7834316e-65
-4.2259198e-64
-1.9116483e-64
-7.0253685e-64
-5.4248143e-64
-6.7804584e-64
-9.3102844e-64
-4.1669427e-64
-1.0915064e-63
-1.2844854e-64
-6.2486946e-64
-2.767456e-65
-2.3011358e-64
-9.5779067e-65
1.7406578e-67
-2.2412715e-67
1.4898242e-65
-7.9791307e-66
5.3199494e-64
-2.5902949e-64
1.3213118e-63
-7.8687914e-64
1.3832251e-63
-5.7779297e-64
1.016947e-63
-2.5046617e-64
5.6114468e-64
-3.2377758e-66
1.8612481e-64
7.1869677e-65
3.0318682e-65
3.5270453e-65
1.744782e-65
1.172995e-65
2.031882e-64
1.0448543e-64
1.2762084e-62
8.2043709e-63
5.3264321e-61
4.5225857e-61
7.9593098e-60
9.2166971e-60
4.0912148e-59
6.8038141e-59
1.1413806e-58
2.4101659e-58
1.1371646e-57
2.7484679e-57
9.0412614e-56
2.8950558e-55
5.7762037e-54
2.797438e-53
2.3631635e-52
2.1036951e-51
1.8582819e-51
1.3065211e-49
-1.0227951e-51
3.5717236e-50
-6.5061525e-50
3.8376493e-49
-1.2882899e-47
6.0553128e-47
-4.6340562e-44
5.628877e-44
-4.8216322e-41
4.4397772e-41
-1.166263e-38
2.6041452e-38
-7.2354926e-36
1.0962845e-35
-4.1132756e-33
3.6828004e-33
-1.1325151e-30
9.9058442e-31
-1.2002874e-27
2.3427707e-28
-5.6754307e-25
7.0869512e-26
-6.5563161e-25
1.5565953e-24
-5.5530803e-24
1.5639738e-24
-1.111448e-22
4.9334841e-23
-2.4238512e-22
2.4684524e-22
-2.2476363e-22
3.2762913e-22
-6.0592559e-23
1.7355231e-22
-2.4784799e-24
2.5956395e-23
-2.270349e-25
6.2787257e-25
-5.6890239e-25
3.3114936e-26
-4.1160555e-23
-1.6971098e-24
-1.6171197e-21
-1.7707134e-22
-1.276392e-20
-3.3748419e-21
-7.5918337e-21
-1.5719298e-20
-7.2250587e-21
-1.2052067e-20
-1.8885156e-20
-2.2052288e-20
-4.4999276e-19
-7.0714569e-19
-1.0220114e-17
-2.0921251e-17
-1.7072046e-16
-5.6073886e-16
-1.0283275e-15
-5.6137492e-15
-2.1985151e-15
-4.514059e-14
6.4805186e-13
-1.5314844e-12
1.3611327e-11
-2.5223057e-11
5.3691571e-11
-8.1766313e-11
8.7188736e-11
-7.9816692e-11
6.3371628e-11
-5.6546146e-12
2.1169492e-11
0
2.0119574e-12
0
1.5177903e-13
0
1.6034644e-14
1.6504366e-13
1.4671032e-15
1.2283789e-14
2.2046838e-16
9.8885593e-16
5.4596772e-17
2.0348995e-16
8.3621472e-18
5.4682584e-17
5.7397306e-19
7.8670546e-18
1.5331133e-20
5.0238111e-19
2.232264e-22
1.4577785e-20
3.1402911e-24
3.3119744e-22
5.4587869e-26
5.1670816e-24
4.6271049e-28
5.3195837e-26
2.7476888e-30
4.4885208e-28
2.9128812e-33
2.6960491e-30
6.7723607e-36
1.1765053e-32
1.9802485e-38
4.7653068e-35
-1.3370586e-41
1.6161124e-37
-4.4451819e-43
7.9402188e-40
-4.2313435e-45
4.6001084e-42
-2.6624944e-47
2.3083549e-44
-1.5706775e-49
9.5197713e-47
-8.6229818e-53
2.8836214e-49
-2.4858748e-55
1.6212919e-52
-1.3254207e-57
3.6860614e-55
-2.7149009e-58
1.7986568e-57
-2.0430022e-58
4.0030214e-58
-6.4849382e-59
2.3404423e-58
-1.6035316e-59
4.345322e-59
-2.1242244e-60
7.3511693e-60
-1.0600689e-61
5.7844066e-61
-9.6658732e-63
1.4564325e-62
-1.8376365e-62
4.5605365e-65
-3.5435227e-62
-7.415437e-63
-6.3817261e-62
-2.600411e-62
-1.4125581e-61
-7.3693062e-62
-2.1758279e-61
-1.8756621e-61
-1.9609501e-61
-2.9903009e-61
-1.1667409e-61
-3.3372952e-61
-3.5334505e-62
-1.8296982e-61
-7.1671338e-63
-6.6198131e-62
-2.6136135e-62
3.6448068e-65
-5.151272e-65
2.7787533e-63
-1.6326941e-63
9.7983925e-62
-5.2483046e-62
2.4269391e-61
-1.6092551e-61
2.552285e-61
-1.2139798e-61
1.9006592e-61
-5.7858869e-62
1.0561237e-61
-7.4020927e-63
3.534237e-62
1.07118e-62
6.1094116e-63
6.0571919e-63
3.7616684e-63
2.3367451e-63
4.2696094e-62
2.0468572e-62
5.099333e-60
3.046617e-60
1.6068129e-58
1.2780587e-58
1.7522595e-57
1.8882929e-57
7.95766e-57
1.2038112e-56
2.19903e-56
4.0354149e-56
3.2581502e-55
6.4228557e-55
3.9526379e-53
9.8037321e-53
3.5042683e-51
1.171558e-50
2.3736779e-49
1.1449233e-48
1.2467271e-47
9.9143364e-47
3.9521093e-46
7.7694611e-45
-1.657134e-44
5.4643169e-43
-1.8389554e-41
3.1622669e-41
-4.2595787e-41
7.9533284e-40
-7.0355298e-40
2.8978509e-39
-2.1596105e-36
2.0635367e-36
-4.6990812e-34
1.18626e-33
-5.2303782e-31
4.8869309e-31
-1.7383194e-28
1.5539337e-28
-1.6485298e-25
4.0955641e-26
-1.1699172e-22