/*--------------------------------*- C++ -*----------------------------------*\
  =========                 |
  \\      /  F ield         | OpenFOAM: The Open Source CFD Toolbox
   \\    /   O peration     | Website:  https://openfoam.org
    \\  /    A nd           | Version:  9
     \\/     M anipulation  |
\*---------------------------------------------------------------------------*/
FoamFile
{
    format      ascii;
    class       volScalarField;
    location    "0.6";
    object      alpha.phase1;
}
// * * * * * * * * * * * * * * * * * * * * * * * * * * * * * * * * * * * * * //

dimensions      [0 0 0 0 0 0 0];

internalField   nonuniform List<scalar> 
10000
(
4.6707112e-84
4.6707112e-84
7.8402562e-83
3.5027007e-81
5.7279754e-81
3.0374518e-81
9.0275635e-82
2.5017713e-82
2.1554125e-82
2.1553656e-82
5.4359015e-81
1.481295e-78
7.8290389e-77
1.040538e-75
6.0478543e-75
2.2928113e-74
6.7116351e-74
1.4964698e-73
1.974282e-73
2.4069617e-72
2.4894226e-70
2.3797855e-68
1.9351659e-66
1.3873734e-64
9.9333989e-63
9.1080606e-61
1.23378e-58
2.4815834e-56
5.7414433e-54
1.1919663e-51
8.2541917e-49
1.1003621e-45
4.4679637e-44
1.1511102e-43
3.4824489e-43
3.3394302e-43
1.4947002e-43
2.0620621e-44
2.7092486e-45
2.7126269e-45
1.0371968e-44
4.0550303e-43
2.0840175e-41
6.7396188e-40
2.2407015e-38
3.8736771e-37
2.9104733e-36
7.5553207e-35
3.5598493e-33
1.7945054e-31
8.4511461e-30
3.5634113e-28
1.2562385e-26
3.58476e-25
6.1919884e-24
8.2226788e-24
1.6184294e-24
1.6128715e-25
4.6168586e-27
1.126782e-28
3.9434861e-30
1.5516405e-31
1.810826e-32
7.0320142e-34
2.1437448e-35
6.7854265e-37
2.1508009e-38
6.1061989e-40
1.3888394e-41
2.6658476e-43
4.6614491e-45
7.3265912e-47
1.0086078e-48
1.2000812e-50
1.2200044e-52
1.0449881e-54
7.426224e-57
4.2958766e-59
1.9736105e-61
6.9683881e-64
1.8058132e-66
3.2010301e-69
3.91598e-72
2.0462339e-73
7.0704201e-74
2.2997989e-74
6.3160995e-75
1.260436e-75
1.2049853e-76
3.0340203e-78
1.3357686e-80
4.8424827e-83
4.8432977e-83
6.9813804e-83
2.8430908e-82
1.6048848e-81
5.935789e-81
6.5511618e-81
6.6680333e-81
6.7147448e-81
5.2305043e-84
7.9502731e-83
2.7932e-81
4.1668216e-80
7.4430042e-80
6.6084965e-80
4.8678927e-80
2.3653527e-80
4.9953512e-81
3.8862403e-82
4.4884927e-81
9.4311056e-79
5.9299927e-77
8.2802374e-76
5.5849226e-75
2.1776443e-74
6.2856977e-74
1.3147954e-73
1.9074821e-73
3.0469653e-71
4.0656664e-69
3.4547318e-67
2.3736575e-65
1.5475563e-63
1.2191674e-61
1.9672804e-59
4.9346869e-57
1.2719516e-54
3.0534358e-52
7.4169168e-50
1.3699881e-46
1.0617523e-43
1.7795519e-42
1.5018864e-42
9.9204231e-42
1.1427884e-40
1.1551558e-40
3.7688337e-41
2.1289431e-42
1.6775502e-43
4.1447147e-42
2.569194e-40
1.5251397e-38
4.5482245e-37
3.1411906e-36
2.0083824e-35
5.021242e-34
1.7149328e-32
5.4484498e-31
1.1455369e-29
3.6505773e-28
1.2842355e-26
3.6866396e-25
6.2675419e-24
3.7306679e-23
1.040024e-22
1.7974187e-22
4.9506681e-23
1.6252744e-24
3.4975015e-27
1.1267614e-28
3.7812774e-29
5.6818876e-30
1.9924733e-31
5.7630054e-33
1.8051031e-34
6.5538228e-36
2.4546191e-37
6.117017e-39
9.4254737e-41
1.3170442e-42
1.8242147e-44
2.2620193e-46
2.4097106e-48
2.1723951e-50
1.6193049e-52
9.7261954e-55
4.5637012e-57
1.6217751e-59
4.8010102e-62
1.0429939e-64
1.3952227e-67
9.3701318e-71
3.9086169e-73
9.2236846e-74
2.6520909e-74
6.7658198e-75
1.2476152e-75
1.1339208e-76
2.989716e-78
1.7557359e-80
4.3227471e-82
3.3072525e-81
1.4926092e-80
6.2265123e-80
1.3411704e-79
8.8500599e-80
4.554847e-80
6.8677871e-81
7.1166505e-81
6.490285e-81
1.2629567e-79
4.6206035e-78
4.1592386e-77
6.0306396e-77
5.0763267e-77
3.5057892e-77
1.6433259e-77
3.618664e-78
3.4108045e-79
2.5946428e-80
7.8240362e-79
4.8714504e-77
3.520972e-76
1.0703885e-75
3.990621e-73
7.6699752e-73
2.2136861e-73
2.0000332e-72
5.2707312e-68
4.9769457e-66
4.1992212e-64
2.8347439e-62
1.77868e-60
1.2330957e-58
1.6212603e-56
3.6820944e-54
8.9653014e-52
2.1253514e-49
5.3494426e-47
1.1576706e-43
9.1806508e-41
1.5405281e-39
1.2602402e-39
9.8810362e-39
1.2201414e-37
1.2877646e-37
4.5240731e-38
2.8872083e-39
6.4573971e-41
1.5708928e-39
1.0844794e-37
6.3977902e-36
1.7748698e-34
1.0592518e-33
5.5380437e-33
1.3085061e-31
4.5309181e-30
1.5165796e-28
4.5728524e-27
1.0477599e-25
2.4690696e-24
6.7346504e-23
1.1301326e-21
9.9854085e-21
1.8530043e-20
2.5051161e-20
7.6008239e-21
3.155138e-22
8.8305144e-25
2.949421e-26
9.0352305e-27
1.1251066e-27
3.7785486e-29
1.1626858e-30
4.3166979e-32
2.1145196e-33
9.9170461e-35
2.7023871e-36
3.6698499e-38
3.9840346e-40
4.6728522e-42
5.0959926e-44
4.7383896e-46
3.6596446e-48
2.2400751e-50
1.0646075e-52
6.4986235e-55
2.4665676e-57
6.6592352e-60
1.1870756e-62
1.2691334e-65
1.7858441e-68
2.7619569e-70
2.0473733e-71
4.0114476e-72
6.8894368e-73
7.8434768e-74
6.3308833e-75
3.8528967e-76
1.114362e-77
8.679381e-79
5.3012295e-78
2.001427e-77
7.3805104e-77
1.455144e-76
1.1849501e-76
6.3977239e-77
1.6059953e-77
1.1821866e-77
3.5577068e-78
1.1012314e-76
4.1758809e-75
2.4727617e-74
3.1855023e-74
2.6517122e-74
1.7882603e-74
8.2148206e-75
1.8026514e-75
2.4852893e-76
1.3278272e-77
1.0401858e-78
4.978479e-77
3.7688056e-76
1.6971616e-70
1.89359e-69
9.7058276e-70
4.9867555e-71
1.1879823e-70
1.9925825e-65
3.7571567e-63
3.3546788e-61
2.3382689e-59
1.4806771e-57
9.5840232e-56
1.0339325e-53
2.0125596e-51
4.5250051e-49
1.0295749e-46
2.7152564e-44
7.1501363e-41
5.801499e-38
9.7397647e-37
7.8189277e-37
7.234548e-36
9.3577386e-35
1.0511931e-34
4.0079126e-35
2.9552011e-36
3.7515416e-38
4.7462555e-37
3.38596e-35
1.9668294e-33
4.997586e-32
2.4281161e-31
1.0006214e-30
2.2113399e-29
7.5952528e-28
2.3970483e-26
7.4434679e-25
2.035721e-23
4.2963968e-22
7.5044156e-21
1.2479619e-19
1.2329102e-18
2.0910519e-18
2.4025055e-18
8.0619077e-19
4.9438945e-20
1.4022986e-22
4.9181043e-24
1.5973193e-24
1.7775329e-25
5.7160179e-27
2.0739728e-28
1.1051286e-29
6.9942539e-31
3.6066072e-32
1.055729e-33
1.3471049e-35
1.0875528e-37
9.6940338e-40
8.3376931e-42
5.9279214e-44
3.3872391e-46
2.6775355e-48
2.0859575e-50
9.4726842e-53
3.0113445e-55
6.5737591e-58
9.7543944e-61
2.1048544e-63
1.7092392e-65
1.3732314e-67
9.1499649e-69
2.0019323e-69
3.9096068e-70
5.615942e-71
5.3138114e-72
2.9415239e-73
7.9038444e-75
1.1019546e-75
5.9316348e-75
1.9431007e-74
6.3708879e-74
1.1463343e-73
1.0167549e-73
5.4675297e-74
1.5641773e-74
8.8146886e-75
1.4854604e-75
5.6826321e-74
2.1921397e-72
1.0792062e-71
1.2918182e-71
1.0709253e-71
7.1139451e-72
3.2257252e-72
7.0816407e-73
1.2736314e-73
4.1924835e-75
3.1541043e-76
1.3065069e-75
7.0336407e-73
1.3311538e-67
9.9597093e-67
4.4065045e-67
1.4188928e-68
9.2160716e-69
1.2928227e-64
1.6679196e-60
1.8595436e-58
1.382525e-56
9.0513918e-55
5.6756958e-53
5.0950892e-51
8.5280234e-49
1.6925715e-46
3.5106403e-44
9.9259915e-42
3.4214783e-38
2.8762901e-35
4.8553339e-34
3.8344788e-34
3.863338e-33
5.4097823e-32
6.6780368e-32
2.7814975e-32
2.4326619e-33
3.1324223e-35
1.1473078e-34
8.381325e-33
4.8184026e-31
1.1134639e-29
4.1718054e-29
1.3197227e-28
2.6624967e-27
8.9360686e-26
2.6879495e-24
7.8284465e-23
2.1662507e-21
5.0793157e-20
9.4056155e-19
1.4224216e-17
1.1086493e-16
1.8327975e-16
1.7695489e-16
6.3770309e-17
5.4944534e-18
5.0536529e-20
5.8682309e-22
3.2374264e-22
2.5889242e-23
7.844252e-25
4.3302862e-26
3.4892722e-27
2.2679966e-28
1.0974044e-29
3.3253501e-31
4.1278724e-33
2.3185853e-35
1.1130962e-37
6.3042169e-40
5.8036493e-42
6.129713e-44
5.3682227e-46
2.9343855e-48
1.0537724e-50
2.6579739e-53
5.239678e-56
1.8829335e-58
1.7274062e-60
8.7239815e-63
5.1193564e-65
3.0035947e-66
7.6122997e-67
1.6400697e-67
2.6663965e-68
2.7329361e-69
1.4738574e-70
4.1838187e-72
1.129137e-72
5.0681177e-72
1.4542525e-71
4.2475936e-71
7.1022869e-71
6.5103387e-71
3.429267e-71
1.0291438e-71
4.947954e-72
5.0232785e-73
2.1427781e-71
8.3244321e-70
3.7181766e-69
4.2472021e-69
3.5162856e-69
2.3152726e-69
1.0412685e-69
2.3018611e-70
4.8876693e-71
2.1632137e-71
9.660717e-73
1.2839098e-72
1.886384e-66
6.6176373e-65
3.6249664e-64
1.172884e-64
2.0564826e-66
7.0992778e-67
1.2418905e-64
8.9756879e-59
7.6333544e-56
9.6243009e-54
4.2832382e-52
2.7571829e-50
2.0751644e-48
2.9511394e-46
4.6656529e-44
7.9127113e-42
2.6292191e-39
1.3226553e-35
1.1636095e-32
1.9809001e-31
1.5446218e-31
1.5739943e-30
2.4363763e-29
3.3700395e-29
1.5338718e-29
1.6013761e-30
2.5374615e-32
2.2673542e-32
1.7456839e-30
1.0136159e-28
2.0805796e-27
5.6672568e-27
1.3472466e-26
2.388739e-25
7.8539534e-24
2.2977963e-22
6.1327581e-21
1.6184763e-19
3.8338094e-18
8.1817493e-17
1.0631268e-15
5.5067657e-15
8.6682277e-15
9.246739e-15
3.8529519e-15
4.4568466e-16
7.8738926e-18
5.3217877e-20
3.5954891e-20
2.9533305e-21
1.1747868e-22
1.1988992e-23
1.2210179e-24
6.9004925e-26
2.7444811e-27
8.1979017e-29
9.9228043e-31
2.9873543e-33
7.5774351e-36
1.0392126e-37
1.232099e-39
1.1932704e-41
7.3649659e-44
2.9062367e-46
8.2718785e-49
2.2834248e-51
1.3563563e-53
1.3978066e-55
7.1639313e-58
3.1437612e-60
1.5730955e-62
8.014625e-64
2.3068273e-64
5.2957635e-65
9.4009404e-66
1.0383897e-66
5.5220306e-68
1.7250915e-69
9.8101642e-70
3.4380056e-69
8.7719476e-69
2.2874964e-68
3.5647417e-68
3.2961688e-68
1.6823363e-68
5.1169643e-69
2.206145e-69
1.4349597e-70
6.452572e-69
2.5106609e-67
1.0583718e-66
1.173524e-66
9.7154224e-67
6.3679431e-67
2.8541601e-67
6.3805816e-68
1.4648263e-68
5.2666175e-68
2.2307652e-69
1.314873e-69
1.665138e-63
2.4227078e-62
1.0459533e-61
2.2660463e-62
2.4046879e-64
9.3994252e-64
4.5038427e-62
1.0795896e-58
6.1871526e-54
1.6238862e-51
1.853162e-49
1.0962495e-47
6.8896035e-46
8.6336664e-44
1.1764803e-41
2.116787e-39
5.3686021e-37
4.1278127e-33
3.911324e-30
6.7859789e-29
5.0938161e-29
5.151485e-28
8.8096509e-27
1.3594602e-26
6.7800567e-27
8.42638e-28
1.6616335e-29
3.7507562e-30
3.2077096e-28
1.9376509e-26
3.3892886e-25
6.2291434e-25
1.103635e-24
1.6499734e-23
5.3323049e-22
1.5202948e-20
3.9224576e-19
9.356573e-18
2.2337688e-16
4.0322725e-15
2.6920235e-14
8.5272669e-14
1.0176581e-13
1.9883082e-13
1.4215867e-13
2.7335293e-14
1.0573486e-15
1.5818066e-17
3.2168218e-18
2.2305992e-19
2.1292734e-20
3.424689e-21
3.7686068e-22
1.8060265e-23
5.5148524e-25
1.568222e-26
1.8137351e-28
1.3843056e-31
1.5958704e-33
2.1053204e-35
2.2347585e-37
1.419439e-39
6.0397583e-42
1.972782e-44
9.3573595e-47
1.1486962e-48
8.7284819e-51
4.5969099e-53
2.1229479e-55
8.7718307e-58
3.7699198e-60
1.7748987e-61
5.6966252e-62
1.3930377e-62
2.6878227e-63
3.1325034e-64
1.6095514e-65
6.0410214e-67
6.902949e-67
1.9004635e-66
4.3642872e-66
1.0224645e-65
1.4836704e-65
1.3653051e-65
6.7099985e-66
2.034917e-66
8.0829848e-67
3.5763233e-68
1.6268505e-66
6.313864e-65
2.5678452e-64
2.7930911e-64
2.3162836e-64
1.5160781e-64
6.794627e-65
1.5433586e-65
3.586641e-66
2.9147932e-65
1.1844748e-66
2.3880897e-63
5.9206281e-61
6.4421071e-60
2.3749603e-59
2.3143503e-59
1.6880649e-60
6.3570496e-60
1.267939e-58
3.9620229e-57
6.9963489e-54
1.8019329e-51
2.5677808e-47
3.3204858e-45
3.0477233e-43
2.0968433e-41
2.9563998e-39
6.1471329e-37
1.3482056e-34
1.0538367e-30
1.1158341e-27
1.9974228e-26
1.4202606e-26
1.4269655e-25
2.6306801e-24
4.4086189e-24
2.3969054e-24
3.4893909e-25
8.4751004e-27
5.3346473e-28
5.4097104e-26
3.4199654e-24
4.737142e-23
5.5575395e-23
7.5919259e-23
8.8940648e-22
2.8236184e-20
7.9135867e-19
1.9995803e-17
4.6843981e-16
9.3262649e-15
6.6661851e-14
8.0265827e-13
2.6136125e-12
3.1420581e-12
3.7626519e-12
3.0860181e-12
8.7224641e-13
8.3071809e-14
3.7600647e-15
2.8123124e-16
2.4103888e-17
4.1224515e-18
8.1348864e-19
8.9374483e-20
3.6350253e-21
8.4226177e-23
2.2991441e-24
2.5139793e-26
2.398166e-29
2.8435699e-31
3.2675449e-33
2.0062519e-35
9.1687986e-38
4.5547153e-40
4.3248875e-42
5.985772e-44
4.1025091e-46
2.2621122e-48
1.1094976e-50
4.7548196e-53
1.7121912e-55
5.6939322e-58
3.2824604e-59
1.1985271e-59
3.0714225e-60
6.3544303e-61
7.6304805e-62
3.8818607e-63
2.0379131e-64
3.9186972e-64
8.7294153e-64
1.81967e-63
3.8589278e-63
5.2158573e-63
4.7344339e-63
2.232615e-63
6.6977632e-64
2.4905517e-64
7.9914164e-66
3.5412862e-64
1.3650827e-62
5.4304488e-62
5.8359098e-62
4.8555602e-62
3.1807243e-62
1.4286908e-62
3.3074824e-63
7.2757986e-64
5.8173715e-63
5.8921472e-62
5.4105942e-60
1.7062886e-58
1.4207363e-57
4.4715294e-57
2.1937578e-56
1.1611869e-54
4.2506357e-53
6.747211e-54
4.9981846e-53
2.1161092e-51
2.3848179e-50
1.9725939e-47
2.4625656e-43
5.6114954e-41
6.2156419e-39
5.9695062e-37
1.1368444e-34
3.2448428e-32
2.1986573e-28
2.7050886e-25
5.0866003e-24
3.2287322e-24
3.7055837e-23
6.75015e-22
1.1547455e-21
6.6868254e-22
1.113615e-22
3.3183807e-24
9.0248793e-26
8.8015448e-24
4.9576726e-22
5.0490643e-21
4.202427e-21
5.1927145e-21
3.6991137e-20
1.1786758e-18
3.2449663e-17
8.4414599e-16
1.8746551e-14
1.6266936e-13
1.4927726e-12
2.09868e-11
7.0666357e-11
8.7166357e-11
7.5978752e-11
7.4412159e-11
2.4340732e-11
3.224006e-12
2.9782527e-13
2.0100339e-14
1.9357443e-15
4.5427694e-16
1.1876558e-16
1.7042975e-17
7.8331655e-19
1.1920244e-20
2.3128701e-22
2.1620207e-24
3.2448153e-27
3.3737304e-29
2.1505622e-31
9.7275296e-34
1.672846e-35
2.4077844e-37
2.0537147e-39
1.4076098e-41
8.3755973e-44
4.4000313e-46
1.9667097e-48
7.0143866e-51
1.430161e-53
2.6949678e-56
5.0104294e-57
2.2289875e-57
5.904171e-58
1.3199735e-58
1.6096783e-59
8.0993885e-61
7.0839179e-62
1.8082229e-61
3.3787325e-61
6.4415864e-61
1.2461488e-60
1.5679441e-60
1.398397e-60
6.3126526e-61
1.8667333e-61
6.562021e-62
1.6410608e-63
6.8049537e-62
2.5922733e-60
1.0180104e-59
1.0866056e-59
9.0804966e-60
5.9628161e-60
2.6899128e-60
6.3320336e-61
1.3632179e-61
8.9252559e-61
5.4687639e-59
2.4678031e-57
4.2409038e-56
2.69696e-55
8.346792e-55
8.3841467e-54
7.8667006e-52
6.8133232e-50
4.6137211e-48
2.5873189e-46
6.3914812e-47
5.8026118e-46
1.8920345e-44
2.9256816e-43
1.185699e-40
1.0996892e-36
1.1016935e-34
1.6142217e-32
5.0304934e-30
3.482254e-26
5.5448513e-23
1.1573276e-21
9.8812432e-22
3.5163e-20
1.7916022e-19
2.4912427e-19
1.4578607e-19
2.6569408e-20
9.5693038e-22
1.9761363e-23
1.4731268e-21
6.6569303e-20
4.8563767e-19
2.9209204e-19
3.2523211e-19
1.125057e-18
3.8762603e-17
1.0852788e-15
2.8313499e-14
3.265961e-13
1.9249919e-12
3.4274116e-11
4.7728602e-10
1.5301534e-09
1.8845421e-09
1.3403072e-09
1.5529597e-09
6.296871e-10
9.4702044e-11
5.2149016e-12
3.6974504e-13
7.8393634e-14
3.1383264e-14
7.9490277e-15
1.0833635e-15
6.2992137e-17
1.283013e-18
2.3324457e-20
2.3343639e-22
2.2152126e-25
1.2168477e-27
5.516087e-30
2.7330889e-31
7.2440813e-33
4.9530586e-35
3.4761456e-37
2.2665227e-39
1.2908739e-41
6.0725486e-44
2.965833e-46
1.4209714e-49
3.7299284e-52
2.1391348e-54
5.770772e-55
4.1857646e-55
1.0082178e-55
2.3603607e-56
2.8851251e-57
1.4929569e-58
2.4986507e-59
6.9127703e-59
1.1172756e-58
1.9506809e-58
3.4798309e-58
4.0703142e-58
3.5603655e-58
1.5380433e-58
4.4753717e-59
1.4974397e-59
3.1682391e-61
1.1744373e-59
4.3929071e-58
1.7142529e-57
1.8242774e-57
1.5326399e-57
1.010107e-57
4.584162e-58
1.0902549e-58
2.618081e-59
1.6577838e-58
1.9149487e-56
6.5458196e-55
8.1409528e-54
4.4634141e-53
1.3092583e-52
1.8399368e-51
2.5003029e-49
2.6797351e-47
2.358296e-45
1.84397e-43
1.3047662e-41
8.2785417e-40
4.3446085e-38
9.85591e-37
4.2258789e-37
4.4799395e-36
1.8358675e-32
1.6589195e-30
5.6881748e-28
4.1362363e-24
9.8267542e-21
2.4302815e-19
1.3864826e-19
3.5422772e-18
2.8474238e-17
3.9552389e-17
2.3566829e-17
4.702921e-18
2.0759375e-19
4.8268294e-21
2.8163556e-19
8.929318e-18
4.4206615e-17
2.130452e-17
9.9936412e-18
2.6008939e-17
1.0258186e-15
2.7928504e-14
4.0210193e-13
2.4637713e-12
4.0740018e-11
7.2176542e-10
8.8794577e-09
2.6217776e-08
3.1267359e-08
2.3153576e-08
9.2312567e-08
1.6924098e-08
1.7699844e-09
2.9802414e-11
1.8196577e-12
2.0400688e-13
3.7484992e-14
8.5194516e-14
6.6104358e-14
1.2384065e-14
2.3560051e-16
1.9058725e-18
3.8989669e-20
1.7644726e-23
3.5651711e-26
1.3687222e-28
7.2934419e-29
8.129078e-31
5.9768664e-33
4.2688753e-35
2.6602101e-37
1.343609e-39
7.9423385e-42
5.1086952e-46
4.8102026e-48
3.6546376e-50
1.8653617e-52
5.1954255e-53
7.6550981e-53
1.6357254e-53
3.7217713e-54
4.3897461e-55
2.5455447e-56
8.4645644e-57
2.2261078e-56
3.1934604e-56
5.0822199e-56
8.4119215e-56
9.3204434e-56
7.8226301e-56
3.2664382e-56
9.3370758e-57
2.9902196e-57
5.8642915e-59
1.8468281e-57
6.7248682e-56
2.6208061e-55
2.7888445e-55
2.3574328e-55
1.5603611e-55
7.131203e-56
1.7081473e-56
4.9845051e-57
4.1211186e-56
4.8572725e-54
1.3391325e-52
1.3214216e-51
6.6746863e-51
1.5022426e-50
2.1870004e-49
4.5802305e-47
6.6606448e-45
6.9201436e-43
6.1181732e-41
5.0408876e-39
3.9359893e-37
2.9144572e-35
2.0138817e-33
1.1648028e-31
1.1747621e-30
1.4369898e-30
1.4377989e-25
7.9486529e-21
7.7591711e-19
1.2814739e-18
4.1263967e-17
2.1748749e-17
4.8066633e-17
1.3797484e-15
3.5130744e-15
2.3126155e-15
5.7906715e-16
3.4816575e-17
1.3628157e-18
7.3955021e-17
1.171771e-15
3.1547403e-15
8.0711523e-16
3.7324474e-16
4.9903758e-16
2.1048829e-14
3.3864457e-13
1.9428647e-12
3.6512775e-11
7.249791e-10
1.7915179e-08
1.3425009e-07
3.4409431e-07
7.7540334e-07
3.6865375e-06
1.739226e-06
2.3484806e-07
1.9955362e-08
5.3155723e-10
3.8424097e-11
2.4021161e-11
4.7146953e-11
2.6129117e-11
8.2304077e-12
7.6081761e-13
7.4242349e-15
1.4211865e-16
6.8394253e-18
1.5845927e-20
2.2026922e-25
7.1654195e-27
6.3637077e-27
6.5597828e-29
5.1221812e-31
3.5624027e-33
4.5684403e-35
7.3938028e-38
9.965273e-42
1.5018813e-44
3.7973442e-46
3.1023789e-48
2.07604e-50
8.6251011e-51
1.111279e-50
2.3609443e-51
5.1603659e-52
5.8528541e-53
4.1133821e-54
2.7304555e-54
6.0904921e-54
7.9452531e-54
1.1476354e-53
1.7621831e-53
1.9069873e-53
1.491156e-53
6.0989852e-54
1.7104458e-54
5.2678081e-55
1.0555129e-56
2.6801117e-55
9.3950474e-54
3.6703351e-53
3.9144152e-53
3.3311591e-53
2.2149859e-53
1.0198019e-53
2.4788411e-54
8.1038523e-55
1.370771e-53
9.9443173e-52
2.1648588e-50
1.7947125e-49
8.473142e-49
1.414093e-48
2.0665875e-47
4.9937261e-45
1.0207907e-42
1.4117323e-40
1.4257715e-38
1.2610422e-36
1.0540787e-34
8.421414e-33
6.5209868e-31
4.782515e-29
2.9610504e-27
1.1097603e-25
1.9183129e-23
1.4282485e-18
1.9308743e-16
1.2892583e-18
7.538071e-15
4.1780402e-15
1.1083674e-15
8.2455229e-15
3.51675e-15
1.2169396e-13
5.1107738e-14
3.0162857e-15
3.3684615e-16
1.8806006e-14
1.3972225e-13
1.4283789e-13
5.5814007e-14
1.9933005e-14
7.0486836e-15
2.0944893e-13
1.9763185e-12
2.4676046e-11
4.8940223e-10
9.3830015e-09
1.9981358e-07
1.3079645e-05
4.0760451e-05
3.7414825e-05
1.0740046e-05
1.6290526e-06
9.1657109e-07
2.2873247e-07
4.9520653e-09
5.9641973e-10
3.8960196e-11
8.611966e-12
6.6501043e-12
6.5790708e-12
1.3438167e-12
6.5207159e-14
2.1434227e-14
1.697794e-15
5.3944228e-18
4.1529387e-23
5.1335959e-25
4.2921186e-25
3.6307586e-27
7.8764887e-29
3.1305193e-31
5.8789807e-35
1.5520672e-37
3.1104159e-40
2.4444661e-42
4.3132781e-44
2.8695212e-46
2.2096677e-48
1.221489e-48
1.3242246e-48
2.7527721e-49
6.0338522e-50
7.0660814e-51
6.0541854e-52
7.6851469e-52
1.423753e-51
1.7310418e-51
2.2682722e-51
3.2419067e-51
3.4438439e-51
2.5099734e-51
1.007905e-51
2.770443e-52
8.2368928e-53
1.8601789e-54
3.6310314e-53
1.2085719e-51
4.7438466e-51
5.079258e-51
4.3542018e-51
2.9078849e-51
1.3486436e-51
3.3575109e-52
1.1289928e-52
3.4112277e-51
1.6932078e-49
2.8302083e-48
2.0127051e-47
8.1599168e-47
1.7822817e-46
5.8295717e-45
5.6283268e-43
1.0218186e-40
1.8553042e-38
2.4192682e-36
2.3948247e-34
2.1016265e-32
1.7558612e-30
1.4187285e-28
1.0697212e-26
7.0976113e-25
4.9348627e-23
7.8491002e-21
1.7043994e-18
2.9341297e-14
4.295279e-12
3.2011327e-12
5.376103e-13
9.3906579e-15
1.0573596e-12
1.0879145e-11
4.7358336e-12
5.1436021e-14
1.9864823e-13
1.4761962e-14
1.955965e-12
1.6759e-11
6.0461557e-12
3.5393217e-12
8.5672137e-13
5.9126844e-14
1.0929514e-12
1.8862436e-11
3.7262158e-10
8.7464182e-09
1.0915984e-07
2.1826106e-05
9.975449e-05
9.9261941e-05
5.7190335e-05
2.3019429e-06
1.1784234e-06
9.8800293e-07
3.370721e-07
7.7351572e-09
2.4424147e-09
6.6157199e-10
3.7290931e-09
2.0193686e-09
1.6620311e-11
4.3783149e-13
1.2905114e-13
3.2201486e-13
9.588464e-14
2.7314478e-15
1.497592e-19
8.5106983e-22
1.5358661e-23
2.6467088e-25
1.0226367e-28
4.1971844e-31
5.1540092e-34
5.2666853e-36
3.4642226e-38
4.9234402e-40
3.9797529e-42
2.1659353e-44
2.2777528e-46
1.4092288e-46
1.3391598e-46
2.6493939e-47
6.0357766e-48
7.9840495e-49
9.0494698e-50
1.8143577e-49
2.8700681e-49
3.3050624e-49
3.9485252e-49
5.2871844e-49
5.4799527e-49
3.7633495e-49
1.4813387e-49
3.9890435e-50
1.1483019e-50
3.2095803e-52
4.6417e-51
1.4440398e-49
5.6942235e-49
6.1290073e-49
5.2966324e-49
3.549743e-49
1.6576047e-49
4.2645344e-50
1.3269054e-50
5.1197525e-49
2.292194e-47
3.1401969e-46
2.0079865e-45
6.883595e-45
2.4301742e-44
1.5213021e-42
1.290575e-40
1.1759758e-38
1.7318749e-36
2.7818255e-34
3.3488455e-32
3.1682346e-30
2.7405561e-28
2.186257e-26
1.5424205e-24
1.1161746e-22
1.687257e-20
1.6319815e-18
1.2499118e-16
1.6109774e-13
1.0346763e-10
6.5312632e-11
3.9788726e-12
1.9331489e-14
3.0340624e-11
4.3072401e-10
1.062851e-11
2.1137407e-11
1.0700686e-12
7.1179372e-14
2.2146885e-11
1.3954615e-09
1.9867931e-10
2.0551342e-10
2.0825585e-11
9.3692119e-13
1.075298e-11
1.120838e-10
2.12907e-09
6.3370617e-08
9.4278801e-06
0.0001072631
0.00010646734
9.3158655e-05
9.0963476e-06
5.7818796e-07
7.4591124e-07
8.3657283e-07
6.9924508e-07
2.9871472e-07
6.6609127e-09
1.5060023e-09
1.7160906e-08
1.9851171e-09
1.0922589e-11
3.3012366e-13
1.4082843e-13
4.43538e-13
1.9340228e-13
5.0061401e-15
5.4623267e-17
1.9252625e-18
1.8811758e-21
5.0858603e-25
2.3269657e-28
3.0753267e-30
4.1135053e-32
3.0944381e-34
3.6434244e-36
4.6440318e-38
3.2329078e-40
1.5077758e-42
1.8431292e-44
1.3729602e-44
1.1457879e-44
2.1979958e-45
5.432784e-46
8.5354221e-47
1.6912166e-47
3.6540346e-47
5.0180863e-47
5.5318247e-47
6.0731751e-47
7.6486068e-47
7.739161e-47
5.0420473e-47
1.9432911e-47
5.1273584e-48
1.4323327e-48
5.3949424e-50
5.6529054e-49
1.6147566e-47
6.3792718e-47
6.9164541e-47
6.0273596e-47
4.0484068e-47
1.9019477e-47
5.0707652e-48
1.3796041e-48
5.4690918e-47
2.4121457e-45
2.9841731e-44
1.7984517e-43
5.5857617e-43
2.3212085e-42
1.9860563e-40
1.9563342e-38
1.8742203e-36
1.810053e-34
2.3014203e-32
3.0562833e-30
3.214156e-28
2.7789161e-26
2.0875416e-24
1.540849e-22
2.2134949e-20
4.4234633e-18
1.8692768e-16
1.9217244e-15
1.126838e-13
1.7445394e-10
9.850134e-11
4.1397366e-12
2.8367709e-14
3.3105064e-14
9.7591562e-11
2.5114287e-10
9.94955e-10
1.2592858e-12
-4.4659693e-11
8.7559118e-11
3.3725002e-08
1.0160129e-08
9.8543477e-09
7.0794232e-10
2.7671311e-11
7.5111562e-11
3.0156304e-10
7.17517e-09
3.4794357e-07
5.2148831e-05
0.0001083179
0.00010828471
9.5911e-07
3.9004905e-07
4.910679e-07
9.4348139e-07
1.7801663e-06
1.5250556e-06
7.2090952e-07
3.5477726e-08
3.1257915e-08
3.055771e-08
3.6303252e-10
7.2753397e-13
1.0309022e-13
1.0191064e-13
3.0684447e-13
1.1676916e-13
3.9789499e-15
1.5121391e-16
1.2758449e-17
1.4962266e-19
5.4641842e-24
6.948235e-27
1.307108e-28
1.5249421e-30
1.0649021e-32
2.2641186e-34
2.4123441e-36
1.1243004e-38
4.185378e-41
1.2237688e-42
1.1400436e-42
8.4847144e-43
1.6626728e-43
4.9691164e-44
9.5970004e-45
2.9161544e-45
6.4003613e-45
7.7278169e-45
8.0759566e-45
8.2925694e-45
9.8499669e-45
9.7398704e-45
6.0538159e-45
2.2840088e-45
5.9069977e-46
1.6032292e-46
8.7707978e-48
6.6127159e-47
1.6995294e-45
6.694321e-45
7.3450074e-45
6.4421047e-45
4.3292261e-45
2.0448012e-45
5.6417507e-46
1.3237175e-46
4.6194222e-45
2.1212369e-43
2.4713057e-42
1.4295211e-41
4.588133e-41
1.450345e-40
1.163216e-38
1.3813533e-36
1.4632779e-34
1.4076581e-32
1.3549763e-30
1.6055305e-28
1.816458e-26
1.5444056e-24
1.2351428e-22
1.8357163e-20
3.854648e-18
2.3900196e-16
8.1439148e-15
3.4072816e-13
7.5312807e-12
4.9582766e-11
3.6954337e-11
4.1579036e-12
1.8987246e-06
5.3211638e-13
6.1992283e-10
2.4460699e-08
1.1431202e-09
2.1223913e-11
4.132981e-10
7.0905101e-06
1.8726075e-05
2.2257698e-05
7.9897563e-06
1.8255495e-08
4.4547248e-10
2.7477395e-10
6.9437779e-10
1.7320682e-08
6.6783958e-06
9.9707591e-05
0.0001083179
2.7430843e-05
3.7995614e-07
3.7856927e-07
8.8020516e-07
5.401553e-06
5.6990397e-06
5.6987562e-06
1.2369759e-06
1.087449e-07
7.9539871e-08
1.4978177e-10
1.8399655e-13
2.5996628e-14
3.4907887e-14
1.3434091e-14
3.9764698e-15
1.2648157e-15
1.2378434e-15
1.2117992e-16
1.3322151e-17
2.6881198e-19
2.9496825e-23
3.3307708e-25
6.0504139e-27
4.8937611e-29
9.9417064e-31
8.9053907e-33
5.793123e-35
2.3039681e-37
1.1165091e-39
1.3507927e-40
1.0154381e-40
3.8376003e-41
1.3111417e-41
5.3408763e-42
1.4605214e-42
3.9933701e-43
9.7202036e-43
1.0826453e-42
1.0220787e-42
1.0117239e-42
1.1339383e-42
1.0953444e-42
6.5306071e-43
2.4120832e-43
6.1181255e-44
1.6143244e-44
1.3690627e-45
7.4784381e-45
1.6906952e-43
6.6041039e-43
7.3732963e-43
6.4903185e-43
4.3554049e-43
2.0664665e-43
5.8807776e-44
1.206423e-44
3.2521487e-43
1.6109042e-41
1.8095834e-40
1.0165453e-39
3.7668642e-39
7.9736847e-39
3.3772492e-37
5.3613893e-35
5.102607e-33
4.8271299e-31
4.5063936e-29
4.9632615e-27
5.9383739e-25
6.0644039e-23
8.4768714e-21
1.9875475e-18
1.4389249e-16
2.5073743e-15
4.0731174e-14
7.3001562e-12
8.4210708e-11
4.2437441e-11
2.7346853e-11
4.3318073e-12
3.5004493e-05
6.7625313e-05
3.1009209e-10
3.046636e-10
1.8816916e-09
1.5614757e-09
1.6998631e-08
2.7528926e-06
5.6681051e-05
9.9312508e-05
0.00010084696
4.1485976e-05
1.6197747e-09
6.0202822e-10
1.6229913e-09
2.7325743e-08
2.1456876e-05
0.00010339652
9.7213877e-05
3.8439082e-07
3.7885662e-07
3.8439082e-07
1.58687e-06
5.6823272e-06
5.7009758e-06
5.6823272e-06
2.2894029e-06
5.4886728e-08
2.8586961e-08
2.1313945e-09
5.8754551e-13
1.8399655e-13
-7.0414775e-15
3.4192356e-10
9.8918584e-09
1.4509228e-08
0
-1.4253466e-16
-2.2843937e-16
2.8675994e-19
8.9979161e-22
1.6206861e-23
1.589455e-25
1.8995076e-27
2.324206e-29
1.5324609e-31
8.4745017e-34
4.5711382e-36
2.785736e-38
9.6884706e-39
6.622626e-39
2.356487e-39
1.2156411e-39
7.094327e-40
2.433116e-40
4.5888295e-41
1.2776867e-40
1.3551939e-40
1.1562664e-40
1.1014284e-40
1.1720788e-40
1.1017798e-40
6.3452339e-41
2.2948849e-41
5.7092863e-42
1.4654584e-42
2.0384999e-43
8.2131896e-43
1.5951005e-41
6.1458251e-41
7.0169951e-41
6.1813046e-41
4.1344219e-41
1.9684758e-41
5.7571356e-42
1.0587265e-42
2.0246658e-41
1.0793216e-39
1.1843064e-38
6.5185097e-38
2.6817246e-37
4.4978004e-37
5.6564968e-36
1.0694746e-33
1.1326281e-31
1.1191339e-29
1.1101624e-27
1.2789253e-25
1.8123558e-23
4.1886828e-21
7.3183177e-19
4.9231611e-17
1.0778623e-15
1.3848361e-14
1.3862921e-14
2.8768041e-11
3.2755066e-10
1.6863856e-10
2.7520623e-11
1.2643296e-06
7.7492529e-05
7.8485543e-05
6.6391719e-05
1.2949182e-06
2.6334881e-09
2.4201759e-08
2.7680226e-08
3.82727e-07
6.5075258e-06
7.5013911e-05
0.00011158686
0.00011131861
3.080345e-05
1.6229489e-09
2.7171666e-08
4.3736681e-08
2.9502175e-05
0.00010342129
9.0057486e-05
4.0110684e-07
3.8439082e-07
4.0255502e-07
5.1347936e-07
3.6497416e-06
5.6823272e-06
1.2180988e-06
2.4439208e-07
8.2343609e-08
5.4821362e-08
9.096513e-06
1.459705e-05
5.8548236e-13
9.2146254e-12
2.4799407e-10
1.0274196e-08
1.6000088e-08
-1.3914799e-16
-4.2787117e-16
-4.1136403e-16
3.4853803e-19
6.4931921e-20
2.8252991e-22
3.2102171e-24
2.7585539e-26
2.6372611e-28
3.4089403e-30
1.9706512e-32
8.3401911e-35
1.0155159e-36
5.7817628e-37
3.7809844e-37
1.8040536e-37
1.3778116e-37
1.1305308e-37
3.8507894e-38
5.4996745e-39
1.4668885e-38
1.5037692e-38
1.1782945e-38
1.0726115e-38
1.0895347e-38
9.9494271e-39
5.5650597e-39
1.9716671e-39
4.8120188e-40
1.2017378e-40
2.8787169e-41
8.7785547e-41
1.4313757e-39
5.4136823e-39
6.3369462e-39
5.5799908e-39
3.7128076e-39
1.7715535e-39
5.3082373e-40
8.9656672e-41
1.1825847e-39
6.4810966e-38
6.9735764e-37
3.7549752e-36
1.4628111e-35
2.9296964e-35
9.5097898e-35
9.166978e-33
1.7401538e-30
2.2703012e-28
2.7355625e-26
3.2475354e-24
4.5917972e-22
1.1772499e-19
1.3967062e-17
3.4089806e-16
2.8816774e-15
2.395771e-14
1.4448819e-14
1.462393e-14
1.0818409e-09
7.9349656e-10
7.9552705e-11
8.7380682e-11
6.6355696e-05
7.8736624e-05
7.8745073e-05
3.0234726e-05
1.383355e-08
2.767881e-08
7.9511793e-07
5.7312407e-07
9.785516e-08
5.8312062e-08
4.0965742e-05
0.00011158686
0.00010404192
6.6827116e-06
4.3740401e-08
1.8716044e-07
3.4205437e-05
0.00010355039
0.00010292366
1.5707948e-05
4.0276648e-07
4.3982036e-07
7.7806659e-07
2.0120194e-06
2.4225185e-06
7.3941444e-07
3.3946737e-07
1.9848667e-06
1.5922849e-05
1.848008e-05
1.846987e-05
1.1247864e-05
2.4752725e-11
3.1116539e-11
1.8094497e-10
3.1688725e-09
-1.8113992e-16
-2.5659184e-16
-9.2967124e-17
1.4209241e-16
4.1086167e-18
1.301501e-19
1.1950382e-21
1.0505896e-23
7.2756194e-26
3.5575823e-28
1.2406931e-30
4.5665261e-33
5.5730624e-35
3.0102113e-35
2.1246994e-35
1.7959383e-35
1.9686768e-35
1.6369967e-35
5.3263438e-36
5.8484502e-37
1.4887398e-36
1.4800835e-36
1.0734994e-36
9.3770671e-37
9.1204046e-37
8.0902489e-37
4.415005e-37
1.5331619e-37
3.6711263e-38
8.9193439e-39
3.8343148e-39
9.11946e-39
1.2238523e-37
4.5245227e-37
5.4343008e-37
4.7826817e-37
3.1608821e-37
1.5092721e-37
4.6226596e-38
7.3333396e-39
6.6160216e-38
3.5199311e-36
3.7024543e-35
1.9465086e-34
7.0225843e-34
1.9129869e-33
3.212262e-33
4.8862513e-32
1.4106544e-29
2.2446058e-27
2.7930914e-25
3.0700722e-23
3.522758e-21
5.697527e-19
5.0216182e-17
1.1766452e-15
9.6320807e-15
6.1911931e-14
2.8034908e-14
2.1583613e-14
6.4927648e-09
8.6299694e-09
2.3106502e-09
3.4130461e-10
1.3173612e-05
7.8776112e-05
7.8879694e-05
7.9053606e-05
1.4581494e-05
6.2882408e-08
2.0073773e-06
1.4468022e-06
6.5936843e-08
5.7611515e-08
5.8347491e-08
4.4717782e-05
0.00010329881
3.4343142e-05
1.8090892e-07
9.7647012e-07
3.2536286e-05
0.00010407383
0.00010354602
4.2512804e-05
4.5607905e-07
4.9580101e-07
7.1775011e-07
1.0403319e-05
1.7397802e-05
1.7351806e-05
1.4706145e-05
1.809569e-05
1.847956e-05
1.8469906e-05
1.848079e-05
1.8495836e-05
3.4857643e-06
1.0148652e-07
1.5376779e-07
2.8406662e-14
-4.6401016e-20
2.0266166e-15
2.5300133e-15
8.3270383e-16
3.5750047e-17
1.0068929e-18
7.7178704e-21
7.0519258e-23
5.2755998e-25
2.9462864e-27
1.2075449e-29
2.5784357e-32
2.4279549e-33
1.8473199e-33
1.775952e-33
2.3910188e-33
2.7026727e-33
2.1161448e-33
6.1291806e-34
5.686605e-35
1.3409167e-34
1.2923116e-34
8.7500845e-35
7.3714599e-35
6.918035e-35
5.9257461e-35
3.1749728e-35
1.081255e-35
2.5401144e-36
6.0030528e-37
4.789378e-37
9.157567e-37
9.9819174e-36
3.5929973e-35
4.4261185e-35
3.8949583e-35
2.5557976e-35
1.2199264e-35
3.8103753e-36
5.7982326e-37
3.4800887e-36
1.728686e-34