/*--------------------------------*- C++ -*----------------------------------*\
  =========                 |
  \\      /  F ield         | OpenFOAM: The Open Source CFD Toolbox
   \\    /   O peration     | Website:  https://openfoam.org
    \\  /    A nd           | Version:  9
     \\/     M anipulation  |
\*---------------------------------------------------------------------------*/
FoamFile
{
    format      ascii;
    class       volScalarField;
    location    "0.6";
    object      p_rgh;
}
// * * * * * * * * * * * * * * * * * * * * * * * * * * * * * * * * * * * * * //

dimensions      [1 -1 -2 0 0 0 0];

internalField   nonuniform List<scalar> 
10000
(
0
0.015714505
0.042686329
0.078444741
0.12381948
0.17922665
0.24510374
0.32166857
0.40691288
0.50205295
0.60387655
0.71502568
0.83766289
0.97099401
1.1151225
1.2691672
1.4343168
1.6097382
1.795194
1.9904778
2.1952778
2.4091282
2.6316953
2.862442
3.100778
3.346
3.597378
3.8540887
4.1152582
4.3799399
4.6471107
4.9156703
5.1844215
5.4520839
5.7172811
5.9784291
6.2336051
6.4798519
6.7152579
6.9385491
7.1586874
7.3733451
7.568782
7.7418742
7.8901466
8.0103931
8.0991259
8.1534761
8.1698531
8.145504
8.0781755
7.9664118
7.8098334
7.6093743
7.3675512
7.0888335
6.7795572
6.4474612
6.1010561
5.7488638
5.3984182
5.0561904
4.7235205
4.4006989
4.0872486
3.7818257
3.4828992
3.1889727
2.8989487
2.6121338
2.3282483
2.0473563
1.7698638
1.4963278
1.227391
0.96380412
0.70631904
0.45566048
0.21252117
-0.022415219
-0.24854768
-0.4651793
-0.67196128
-0.8683768
-1.0538255
-1.2284244
-1.3917512
-1.5435095
-1.6837816
-1.8127967
-1.9308022
-2.0372876
-2.1344097
-2.2194194
-2.2913847
-2.3512114
-2.3991495
-2.4354662
-2.4608029
-2.4724509
-0.01951925
-0.0039313394
0.022590335
0.057818058
0.10252143
0.15694232
0.22133997
0.29588892
0.38259252
0.47807392
0.58144007
0.69420186
0.81732756
0.95096072
1.0950973
1.2495621
1.4146863
1.5901744
1.7758097
1.9713097
2.1763416
2.3905974
2.6136161
2.8448934
3.083837
3.3298108
3.5820481
3.8397931
4.1022078
4.3683397
4.6371923
4.9077349
5.1788112
5.44915
5.7174078
5.9821264
6.2416145
6.494131
6.7386126
6.9763016
7.1999631
7.4146341
7.6127757
7.7899562
7.942645
8.0671799
8.1597555
8.2171457
8.2361994
8.2134964
8.1466231
8.0338201
7.8744391
7.6692186
7.4205505
7.1328777
6.8127802
6.468603
6.1096866
5.7453811
5.3838158
5.030928
4.6895044
4.3600732
4.0420456
3.7339421
3.4339506
3.1402958
2.8515374
2.5666626
2.2851748
2.006959
1.7322218
1.4613728
1.1949799
0.93372501
0.67833588
0.4295359
0.18802386
-0.045538053
-0.27045186
-0.48620284
-0.69225743
-0.88822981
-1.072926
-1.2475474
-1.4109914
-1.5631616
-1.7040798
-1.8338037
-1.9522359
-2.0592801
-2.1551289
-2.2392964
-2.3113138
-2.3712753
-2.41929
-2.4555826
-2.4808575
-2.4925659
-0.045695829
-0.030169201
-0.003898902
0.030996365
0.075375813
0.12929298
0.19271851
0.26811989
0.35323167
0.44772866
0.55137383
0.66467905
0.78816752
0.92202479
1.0663979
1.2212372
1.3865544
1.562405
1.748518
1.9446065
2.1503986
2.3655532
2.589628
2.822122
3.0624844
3.3100523
3.5641028
3.8238726
4.0885502
4.3572096
4.6288728
4.9025292
5.177071
5.451278
5.7238784
5.9934936
6.2586766
6.5179112
6.7698889
7.0131361
7.2453057
7.4651829
7.6688161
7.8520704
8.0109226
8.141335
8.2392479
8.3008877
8.3230221
8.3016242
8.2342808
8.1189104
7.9545505
7.7417151
7.4827375
7.1822281
6.8471972
6.4867817
6.1115475
5.7321772
5.3579002
4.9958649
4.6479988
4.3148466
3.9952946
3.6873025
3.3884147
3.0963997
2.8095565
2.5267117
2.2471903
1.970767
1.6976162
1.428128
1.1628736
0.90255774
0.64791283
0.39965308
0.15850866
-0.074801211
-0.29960914
-0.51531735
-0.72140225
-0.91735223
-1.1027486
-1.2775815
-1.4414484
-1.5941335
-1.7355484
-1.8656372
-1.9843687
-2.0917461
-2.1878687
-2.2716284
-2.3435848
-2.403635
-2.4517877
-2.4881573
-2.5133774
-2.5248825
-0.080520948
-0.065177356
-0.039116911
-0.0044610849
0.039769104
0.093851179
0.15802288
0.23104898
0.31473146
0.40829309
0.51163889
0.62499725
0.74857144
0.88258711
1.0271835
1.1824009
1.3479564
1.5243512
1.7111245
1.9080682
2.1149217
2.3313391
2.5569066
2.7911401
3.0334682
3.2832586
3.5398192
3.802378
4.0701297
4.3422074
4.6176628
4.895494
5.1746487
5.453998
5.732319
6.0082984
6.2806023
6.5478033
6.8083548
7.060741
7.3026901
7.5318037
7.7447203
7.9374143
8.1055645
8.2447968
8.3506733
8.4186848
8.4450889
8.4261547
8.3585969
8.2399418
8.0688334
7.8453867
7.571725
7.252569
6.8955539
6.5110938
6.1118113
5.7108098
5.3191254
4.9438587
4.5877177
4.2507029
3.9305426
3.6240202
3.3277957
3.0389594
2.7553535
2.4755546
2.198757
1.9246888
1.6534444
1.3854615
1.1213582
0.86184871
0.60773865
0.35978457
0.11875724
-0.11455151
-0.33946654
-0.55535475
-0.76168837
-0.95797688
-1.1439295
-1.3192049
-1.4835143
-1.636624
-1.7784357
-1.9088774
-2.0278757
-2.1353553
-2.2312221
-2.3151187
-2.3871412
-2.4472591
-2.4955137
-2.5320087
-2.5572505
-2.5685509
-0.12481281
-0.10976397
-0.084023892
-0.049774392
-0.0060620949
0.047376694
0.11053057
0.18331245
0.26613753
0.35897354
0.46187642
0.57496695
0.69844256
0.83248868
0.97720993
1.1326931
1.2989094
1.4758233
1.6634407
1.8614986
2.0697212
2.2877872
2.5153099
2.7518053
2.9966897
3.2493554
3.5091333
3.7752488
4.0469121
4.3233154
4.6035405
4.8866101
5.1715347
5.4572525
5.7426172
6.0263885
6.3072854
6.5839302
6.8547793
7.1180848
7.371916
7.6132748
7.8387341
8.0441524
8.2248652
8.3759012
8.4922813
8.5689735
8.6013623
8.5855369
8.5173313
8.3939753
8.2133683
7.975096
7.6811259
7.3363184
6.9488671
6.5308717
6.0981061
5.6673839
5.2524546
4.8632568
4.4997028
4.1608629
3.8427893
3.5405091
3.2494771
2.9659932
2.687419
2.4121015
2.1391023
1.8681205
1.5992921
1.3331013
1.0702426
0.81154357
0.55786565
0.3100356
0.068943209
-0.16456836
-0.38980018
-0.60609731
-0.81282427
-1.0097289
-1.1962598
-1.3720746
-1.5369075
-1.6905398
-1.8328343
-1.9636592
-2.0829477
-2.1906081
-2.2865186
-2.3705586
-2.4426932
-2.5028712
-2.5510994
-2.5876244
-2.612931
-2.6240742
-0.17836438
-0.16365763
-0.13833094
-0.10459492
-0.061487197
-0.0088333207
0.053504468
0.12556031
0.20755826
0.2996416
0.40191255
0.51454862
0.63774707
0.771657
0.91643277
1.0721922
1.2389456
1.4166434
1.6052436
1.8046396
2.0145405
2.2346492
2.4645779
2.7038402
2.9518737
3.208058
3.4717277
3.7421485
4.0185485
4.3001494
4.5860673
4.8753893
5.1671664
5.4604009
5.754024
6.046903
6.3377978
6.6254123
6.9081553
7.1839368
7.4522001
7.70874
7.9501374
8.1719139
8.3687981
8.535124
8.6650483
8.7529237
8.7932696
8.7813507
8.7122388
8.582313
8.3887773
8.13041
7.8088802
7.4294689
7.0007662
6.5369042
6.0588376
5.5899065
5.1492128
4.7429814
4.3741919
4.0379998
3.7270239
3.4336951
3.1518832
2.8770571
2.6061198
2.3371741
2.0693055
1.8022824
1.536362
1.2721971
1.0106236
0.75259722
0.49909446
0.25110109
0.0096418174
-0.22440964
-0.45029586
-0.66722091
-0.87482059
-1.0724812
-1.2597526
-1.4362859
-1.6017999
-1.7560538
-1.8988994
-2.0301686
-2.149777
-2.2576675
-2.3537586
-2.4379703
-2.5102105
-2.5704428
-2.6187147
-2.6552303
-2.6805341
-2.6914948
-0.24105134
-0.22676202
-0.2019563
-0.16881318
-0.12647612
-0.074656645
-0.013249536
0.057875373
0.1389394
0.23010521
0.33157533
0.44357301
0.5662849
0.69991131
0.844645
1.0006083
1.1678739
1.3464787
1.536199
1.7371281
1.9490213
2.1715497
2.4043144
2.6468453
2.8985878
3.1589013
3.4271307
3.702584
3.9844939
4.2720901
4.5645574
4.8610276
5.1606339
5.462413
5.7653889
6.0685245
6.3706596
6.6705148
6.9667862
7.2580758
7.5420469
7.8164743
8.0773844
8.3196405
8.5370046
8.7226693
8.8697891
8.9716622
9.0220425
9.0149416
8.9446556
8.8056279
8.5939744
8.3076131
7.9478915
7.5216158
7.0372688
6.5101983
5.969669
5.4501507
4.9776542
4.5595101
4.193575
3.8694757
3.5744982
3.297725
3.0312715
2.7698248
2.5100436
2.2500382
1.9890399
1.7270697
1.4646859
1.2027976
0.94250353
0.68498001
0.43138638
0.18293446
-0.059231659
-0.2941847
-0.5210457
-0.73908624
-0.94771888
-1.1463866
-1.3346163
-1.5120341
-1.6783482
-1.8333145
-1.9767747
-2.108561
-2.2285891
-2.3367872
-2.4330643
-2.5174061
-2.5897785
-2.6500885
-2.6983771
-2.7348637
-2.7601403
-2.7709196
-0.3127454
-0.29894256
-0.27472493
-0.24234774
-0.20084889
-0.15001906
-0.089704031
-0.019693102
0.060214507
0.15026923
0.25073947
0.36185645
0.48386984
0.61703979
0.7615733
0.9176412
1.085381
1.2648478
1.455997
1.6585816
1.8727239
2.0980227
2.3340561
2.5803564
2.8363621
3.1014224
3.374879
3.6560517
3.9441719
4.2384953
4.5382853
4.8427134
5.1509632
5.4622138
5.7755392
6.0899435
6.4043401
6.7175681
7.0284244
7.3358905
7.6381652
7.9338179
8.2183298
8.4859676
8.7290893
8.939201
9.1078623
9.2270821
9.2895567
9.2882348
9.2162692
9.0651761
8.8277136
8.4989977
8.0816047
7.5895798
7.0289691
6.415016
5.7897353
5.2052555
4.7012835
4.2813839
3.9345289
3.6394484
3.374986
3.1261208
2.8836405
2.6420249
2.3980485
2.1501931
1.8981859
1.6425654
1.3843963
1.1250356
0.86597914
0.60873003
0.35473705
0.1054772
-0.13779379
-0.37404232
-0.60229498
-0.82173643
-1.0317147
-1.2316446
-1.4210383
-1.5995041
-1.7667413
-1.92251
-2.0666619
-2.1990153
-2.319493
-2.4280156
-2.5245365
-2.6090196
-2.6814527
-2.7418312
-2.7901434
-2.8266195
-2.8518414
-2.8624405
-0.39329583
-0.38002421
-0.35653468
-0.32499062
-0.28451807
-0.23485982
-0.17581359
-0.10717389
-0.028655489
0.060058088
0.15924965
0.26922315
0.39030106
0.52277541
0.66691405
0.82296163
0.99109484
1.1714129
1.3639516
1.5686624
1.7851257
2.0135345
2.2532904
2.5038656
2.7647103
3.0351466
3.3144807
3.6019977
3.896962
4.1986733
4.5064506
4.8195273
5.1371272
5.4586041
5.7831069
6.1096499
6.4371112
6.7643445
7.0904604
7.4148518
7.7362512
8.0567494
8.3695128
8.6685907
8.944331
9.1855366
9.3812846
9.5218567
9.5987386
9.6040316
9.5290134
9.3624331
9.0888526
8.696854
8.1912874
7.6011503
6.9298687
6.1875662
5.4425353
4.7778827
4.2518414
3.8563938
3.5624976
3.3268821
3.1159522
2.9117119
2.7053213
2.4920776
2.2697302
2.0378563
1.797217
1.5493139
1.2960406
1.0394146
0.78145171
0.52414438
0.26935008
0.018806921
-0.22606081
-0.46406214
-0.69411988
-0.91533064
-1.1269754
-1.3284371
-1.5192104
-1.6988973
-1.8672054
-2.023888
-2.1687522
-2.301672
-2.4226075
-2.5314614
-2.6282173
-2.7128512
-2.7853728
-2.8457893
-2.8941234
-2.930589
-2.955728
-2.9660987
-0.48248498
-0.46986556
-0.44713087
-0.41659803
-0.37733772
-0.32904993
-0.2715465
-0.20453765
-0.1276766
-0.04062853
0.056966057
0.16549378
0.28532356
0.41681656
0.56032973
0.71616633
0.8845586
1.0656842
1.2596404
1.4663955
1.6857821
1.9175543
2.1614365
2.4168006
2.6830898
2.9595426
3.2453791
3.5398523
3.8422306
4.1519067
4.4682206
4.7904705
5.1179563
5.4502006
5.7865833
6.1260191
6.467106
6.8084879
7.1496495
7.4912254
7.8346654
8.1795467
8.5253293
8.8638731
9.1817509
9.4631544
9.6932364
9.8599017
9.9537529
9.966427
9.8874319
9.7001865
9.3809189
8.9036335
8.2517616
7.5070303
6.6923476
5.7543892
4.8106827
4.0321037
3.5199148
3.2066622
3.0289602
2.9047984
2.7833387
2.6475819
2.4933781
2.3193313
2.1256487
1.9140441
1.6872557
1.4483948
1.2005371
0.94661546
0.68937938
0.43155489
0.17542376
-0.077010946
-0.32409061
-0.56438903
-0.79672414
-1.0201169
-1.2337738
-1.437037
-1.629404
-1.8104756
-1.9799447
-2.1376051
-2.2832406
-2.4167924
-2.5381694
-2.6473127
-2.7443009
-2.8290675
-2.9016412
-2.9620558
-3.0103826
-3.0468089
-3.0718371
-3.081992
-0.58008524
-0.56813315
-0.54632489
-0.51695675
-0.4791056
-0.43247586
-0.37679626
-0.3117195
-0.23688165
-0.15187106
-0.056240951
0.050451126
0.16865471
0.29883197
0.44141222
0.59676891
0.76523341
0.94706848
1.1424237
1.3513307
1.5737089
1.8093568
2.0579085
2.3184514
2.590875
2.8740675
3.1669989
3.4690588
3.7793571
4.097443
4.4226696
4.7544453
5.092144
5.435461
5.7841673
6.1371972
6.4923385
6.847358
7.2016083
7.5573441
7.91897
8.2905623
8.6760966
9.0657457
9.4401546
9.7750846
10.049369
10.248031
10.361167
10.380632
10.296299
10.086004
9.6983027
9.081119
8.0762844
7.033119
5.9733546
4.7276583
3.5336782
2.6958941
2.2673746
2.1936918
2.2667507
2.3411317
2.3622841
2.3279712
2.2468357
2.1250149
1.9677972
1.7808886
1.5702854
1.341438
1.099116
0.84759451
0.59028877
0.33130415
0.073093538
-0.18201876
-0.43201703
-0.67525525
-0.91039875
-1.1364079
-1.3524331
-1.5577839
-1.7519415
-1.9345293
-2.1052595
-2.263946
-2.4103808
-2.5445381
-2.6663305
-2.7757824
-2.8729256
-2.9578004
-3.030386
-3.090768
-3.1390102
-3.1753579
-3.200261
-3.2101543
-0.68572765
-0.67457553
-0.65382465
-0.62579873
-0.58963746
-0.54495116
-0.49142048
-0.42867712
-0.35628046
-0.27373222
-0.18052783
-0.076137168
0.040000637
0.16843286
0.3096728
0.46420962
0.63248474
0.81484248
1.0115166
1.2226324
1.4481726
1.687947
1.9415751
2.2084183
2.4875234
2.7781485
3.0787458
3.389166
3.7077403
4.0345809
4.3688027
4.7103435
5.0582799
5.4124943
5.7737809
6.1413412
6.5112225
6.8787068
7.2418102
7.6050596
7.978577
8.3730951
8.8061059
9.2639655
9.7180532
10.127506
10.460403
10.698359
10.831424
10.854195
10.76205
10.524496
10.034259
9.1335644
7.3732064
5.367627
3.6650779
1.6714746
0.21158804
-0.31038391
-0.072326706
0.57341922
1.1913093
1.6080578
1.8422105
1.9506364
1.9680233
1.9131443
1.8002387
1.6419221
1.4491991
1.2306503
0.9933545
0.74318415
0.48525204
0.22389265
-0.037566318
-0.29633468
-0.55008449
-0.79696326
-1.0355028
-1.2645958
-1.4833353
-1.691037
-1.8871941
-2.0714359
-2.2434854
-2.4031856
-2.5504568
-2.6852493
-2.8073889
-2.9170739
-3.0143266
-3.0992068
-3.1717226
-3.2320024
-3.2800963
-3.3162939
-3.3410824
-3.3506544
-0.79911433
-0.78881835
-0.76929312
-0.74286557
-0.7086614
-0.66624816
-0.61528635
-0.55532549
-0.48583842
-0.40627472
-0.31604026
-0.2144885
-0.10096375
0.025178099
0.164579
0.31785864
0.4855687
0.66817218
0.86603084
1.0793673
1.3082226
1.5524391
1.8116395
2.0851807
2.3722217
2.6719253
2.9798945
3.3001382
3.6266283
3.9627871
4.3056827
4.6571993
5.0149987
5.3786971
5.7522768
6.1364808
6.522786
6.9007918
7.2651204
7.6230046
7.9950128
8.4094611
8.8881111
9.4400823
10.014797
10.533683
10.946313
11.231419
11.381681
11.398363
11.290467
11.055264
10.500645
9.1722061
6.3260122
3.6860862
-1.6935991
-5.3220357
-7.0077025
-6.5866402
-4.5946114
-2.2048286
-0.38674901
0.67357033
1.227497
1.5231186
1.6662305
1.6930745
1.6303951
1.5025759
1.328114
1.1187443
0.88530444
0.63516455
0.37480307
0.10956278
-0.15652544
-0.42013956
-0.67860938
-0.92991193
-1.1724886
-1.4051513
-1.6269674
-1.8372777
-2.035595
-2.2215644
-2.3949931
-2.5557579
-2.7038046
-2.8392191
-2.9616086
-3.0714153
-3.1686738
-3.2534417
-3.3258207
-3.3858954
-3.4337442
-3.4697463
-3.4943844
-3.5035417
-0.91980922
-0.91046423
-0.89239154
-0.86779272
-0.83586033
-0.79613499
-0.74819419
-0.69151857
-0.62550106
-0.54952795
-0.46288424
-0.36482532
-0.2545896
-0.13139311
0.0055517357
0.15699986
0.32365062
0.5061325
0.70495429
0.92044616
1.1527402
1.4017402
1.6670605
1.947967
2.2434287
2.5521229
2.8722376
3.2041608
3.5342233
3.8821524
4.2319308
4.594435
4.9615238
5.3298649
5.7141011
6.1192768
6.5283598
6.9156798
7.26818
7.5948727
7.9336954
8.3380245
8.8672166
9.5609896
10.33571
11.020869
11.541865
11.882126
12.039932
12.01709
11.857942
11.661327
11.446016
11.316532
9.356499
-1.2175322
-9.8817071
-15.283627
-17.404404
-15.92872
-11.612398
-6.4977096
-2.6356345
-0.48495574
0.54137817
1.0718327
1.3621903
1.4796056
1.4685426
1.3694033
1.2116042
1.009795
0.77746074
0.52474984
0.25965041
-0.011502586
-0.28389798
-0.55373858
-0.81806725
-1.0746811
-1.3219508
-1.5586598
-1.7839018
-1.9970422
-2.1976404
-2.3854055
-2.5602052
-2.7219684
-2.8706931
-3.0062419
-3.1290983
-3.2390034
-3.3361723
-3.4207005
-3.4927843
-3.5525477
-3.6000311
-3.6357529
-3.6601989
-3.6688508
-1.0473338
-1.0391052
-1.0226473
-1.0001635
-0.97089322
-0.93428621
-0.88985886
-0.83703675
-0.77515829
-0.70346544
-0.62115562
-0.527379
-0.42122803
-0.30176461
-0.16805144
-0.019159231
0.14581244
0.32767452
0.52710239
0.74459434
0.98041192
1.2345365
1.5065953
1.7957637
2.1007786
2.4199548
2.7511647
3.092229
3.4390699
3.7964156
4.1440744
4.5220537
4.8992161
5.2603552
5.6534465
6.0950232
6.5350081
6.9261858
7.2471921
7.4966471
7.7435594
8.0853593
8.6443718
9.5381035
10.670368
11.626356
12.302287
12.709263
12.847711
12.699554
12.351752
12.032019
13.250845
9.8886312
2.3660572
-9.2306163
-18.430448
-25.151493
-27.639095
-25.540638
-19.410513
-11.564975
-5.2972459
-1.7506149
-0.14896244
0.64415216
1.087616
1.2915779
1.3255823
1.2528199
1.1063416
0.90723079
0.67198543
0.4131476
0.14028336
-0.13930599
-0.42003609
-0.69769621
-0.96912909
-1.231995
-1.484616
-1.7258189
-1.9547613
-2.1709069
-2.3738638
-2.5634534
-2.7396485
-2.9023504
-3.0516726
-3.1875517
-3.3103727
-3.4201268
-3.5169804
-3.6011276
-3.672786
-3.7320795
-3.7790578
-3.8143975
-3.8385735
-3.8466118
-1.181153
-1.1741777
-1.1595359
-1.1395137
-1.1133024
-1.0802918
-1.0399675
-0.991668
-0.93464497
-0.86803961
-0.79094313
-0.70236198
-0.60123258
-0.4864606
-0.35692446
-0.21147253
-0.048977927
0.13158152
0.33110037
0.55030649
0.78965384
1.0492312
1.3287182
1.6272462
1.9433155
2.2747641
2.6187755
2.972064
3.3307505
3.6938153
4.048615
4.4427168
4.8390194
5.1582832
5.5371584
6.0518358
6.5498535
6.9388134
7.1962193
7.2813664
7.318735
7.4378855
7.936492
9.1439158
10.942103
12.414675
13.328916
13.810186
13.878105
13.512479
12.888925
12.043067
13.947739
7.5247228
-3.1214669
-14.404684
-24.996705
-32.478312
-35.01082
-32.506923
-25.336838
-15.686362
-7.5985806
-2.8621945
-0.7275893
0.32540942
0.89102432
1.1559514
1.2200485
1.1615896
1.0181622
0.814739
0.57083375
0.30120207
0.016769595
-0.27426357
-0.56567609
-0.8529113
-1.1327127
-1.4027635
-1.6613795
-1.9074773
-2.1403402
-2.3596141
-2.5649893
-2.7563818
-2.9338277
-3.0973504
-3.2470407
-3.3830111
-3.5056196
-3.6150235
-3.7113918
-3.7949443
-3.8659723
-3.924605
-3.9709178
-4.0057498
-4.0295321
-4.0368351
-1.3205839
-1.3150589
-1.3024678
-1.2852371
-1.2625312
-1.2336861
-1.1981229
-1.1551
-1.1037677
-1.0431782
-0.97228761
-0.88995347
-0.79496002
-0.6860231
-0.56179102
-0.42087027
-0.26188571
-0.083539508
0.11535414
0.33580977
0.57854722
0.84385274
1.1315224
1.4407102
1.7697114
2.1158542
2.4754423
2.8438343
3.2155228
3.585987
3.9462599
4.3313621
4.7251047
5.0743477
5.3959059
6.0104666
6.5641537
6.9280319
7.1001399
6.8259174
6.4382525
6.7568121
7.8335683
8.617567
11.439496
13.642309
14.80045
15.284461
15.200852
14.644877
13.820167
16.177471
14.194813
4.5763242
-5.6647874
-17.155768
-28.147897
-35.639934
-38.023629
-35.131911
-27.782534
-17.497156
-8.7481001
-3.4833303
-0.98223275
0.2001991
0.81546996
1.0973704
1.1655392
1.1044204
0.95191072
0.73486679
0.47507784
0.18893347
-0.11155198
-0.41740142
-0.72200683
-1.0206771
-1.3101421
-1.588192
-1.8533231
-2.104654
-2.3416042
-2.5639768
-2.771673
-2.9647605
-3.1433252
-3.3075494
-3.4571757
-3.5930005
-3.7151902
-3.823991
-3.9196174
-4.0023537
-4.0725348
-4.1302878
-4.1757449
-4.2099088
-4.2331326
-4.2395447
-1.4648891
-1.461013
-1.4506991
-1.4366308
-1.4179542
-1.3938955
-1.3638194
-1.3269303
-1.2822713
-1.2287272
-1.1651611
-1.0902954
-1.0027367
-0.90097211
-0.78339929
-0.64836625
-0.49420192
-0.31924655
-0.12195928
0.099019293
0.34478001
0.61595315
0.91257979
1.2339026
1.5781113
1.9421144
2.3212962
2.709234
3.0979938
3.4758995
3.8400918
4.2091296
4.5564092
4.8292033
6.4085463
9.082294
6.7049199
7.0381034
6.9966238
6.0780959
4.8743802
5.1151181
8.5550589
15.66665
15.974964
15.999889
16.761848
17.094717
16.986684
16.118472
14.629567
20.010446
14.085472
6.0726689
-5.4449948
-16.711974
-27.345603
-34.640282
-36.788199
-33.670127
-26.26371
-16.502762
-8.2215502
-3.2101571
-0.78196331
0.35189364
0.90614494
1.138879
1.1728809
1.0881758
0.9102132
0.66846292
0.38425337
0.075111288
-0.24628787
-0.5704932
-0.89080273
-1.2026232
-1.5028887
-1.7896656
-2.0617087
-2.3183905
-2.5594326
-2.7847922
-2.9946045
-3.1891577
-3.3686708
-3.5338873
-3.6826867
-3.8179598
-3.939445
-4.0473475
-4.1419521
-4.2235999
-4.2926623
-4.34927
-4.3936168
-4.4269048
-4.4493963
-4.4547444
-1.6132045
-1.6111361
-1.6033864
-1.5929107
-1.5788194
-1.5602323
-1.5364782
-1.5066904
-1.4697785
-1.4244262
-1.36946
-1.3034539
-1.2248151
-1.1317942
-1.0225177
-0.89503297
-0.74730963
-0.57727273
-0.38294659
-0.16252184
0.085578636
0.36250991
0.66871364
1.0036997
1.3657693
1.7515703
2.1556636
2.5696011
2.9830639
3.3717673
3.7435519
4.1134765
4.4750914
4.7421257
8.8092503
9.2757993
8.0649308
7.2922789
6.7748664
4.9092491
2.1032694
1.142033
2.8675548
8.8020086
17.925217
18.528652
18.688062
18.879401
18.924358
18.143827
16.699809
22.07673
15.312567
7.1964158
-3.4690684
-13.385709
-22.671442
-29.265528
-31.14703
-27.810657
-21.072586
-12.803364
-5.9870091
-1.8301412
0.594429
0.80713555
1.1945692
1.2878031
1.2424482
1.1121797
0.89341376
0.61429477
0.29605878
-0.0430194
-0.39028327
-0.73626206
-1.0745955
-1.4010361
-1.712958
-2.0088507
-2.2879194
-2.5498784
-2.7948086
-3.0229549
-3.2346277
-3.4301905
-3.6098523
-3.7732748
-3.923338
-4.0582103
-4.1787731
-4.2854801
-4.3787235
-4.4589384
-4.526545
-4.5816859
-4.6246387
-4.6568167
-4.6783407
-4.6824139
-1.7645118
-1.7644438
-1.7595876
-1.7531475
-1.7442507
-1.7319121
-1.7154005
-1.6937617
-1.665783
-1.6299075
-1.5849615
-1.5293771
-1.4613614
-1.3789296
-1.2799067
-1.1619707
-1.0226913
-0.85954469
-0.67001144
-0.45168293
-0.20236087
0.079769001
0.39580912
0.74584177
1.1286115
1.5408342
1.9764508
2.4256293
2.8731966
3.2851303
3.6713555
4.0524144
4.42687
4.5258618
6.7967909
8.8950639
9.1033414
6.8891285
5.9894044
3.6808939
-0.27360039
-2.2885026
-0.27900187
3.6016248
6.8235328
19.112411
20.899088
19.992531
20.743835
20.340527
19.201197
22.349921
16.754653
7.9138158
-0.63526023
-8.2498812
-15.245452
-20.291936
-21.713762
-19.20665
-13.908736
-7.7590677
-2.7532545
0.71195413
1.8888866
1.6963224
1.6679488
1.5155563
1.3681089
1.1737046
0.8980424
0.56719918
0.20538296
-0.17034285
-0.54799576
-0.91864422
-1.2767487
-1.6187052
-1.9426149
-2.2476192
-2.5334886
-2.8003727
-3.0487667
-3.2792819
-3.4924505
-3.6888046
-3.8687946
-4.032208
-4.1808653
-4.314533
-4.4336615
-4.538747
-4.6302224
-4.7086076
-4.7743827
-4.8276882
-4.8689154
-4.8997245
-4.9200043
-4.9225662
-1.9177048
-1.9198365
-1.9182012
-1.9162893
-1.9132741
-1.9080143
-1.8997161
-1.8874073
-1.8698135
-1.8446632
-1.8112765
-1.7678815
-1.7124566
-1.642756
-1.5562752
-1.450291
-1.3219311
-1.1681672
-0.9858244
-0.77175628
-0.52299749
-0.23689185
0.088621039
0.45461766
0.86068607
1.3039408
1.7789996
2.2750463
2.7698583
3.2248585
3.6420391
4.085067
4.5714252
4.8753993
5.7156183
8.3384851
9.3006633
9.6314905
5.0495487
3.0131935
-0.56797471
-2.5091388
-1.2671719
2.2803218
6.85951
12.073468
24.392881
20.067649
21.814675
21.909803
19.697962
20.312014
17.733337
8.0056594
2.2865227
-2.9360013
-7.5731503
-10.455017
-10.830616
-9.8215796
-6.887547
-3.0852366
0.13196135
1.8975866
2.5543316
2.492723
2.0869471
1.7020755
1.5108606
1.2498021
0.90830413
0.5154702
0.102837
-0.31454593
-0.7256502
-1.1226881
-1.5012946
-1.85886
-2.194441
-2.5079431
-2.7998907
-3.0710436
-3.3223151
-3.5546291
-3.7687154
-3.9654067
-4.1456244
-4.3079728
-4.4552191
-4.5872794
-4.7045495
-4.8075702
-4.896834
-4.9729287
-5.0364054
-5.0874397
-5.1265557
-5.1556811
-5.1744008
-5.175163
-2.0715168
-2.0760392
-2.0780094
-2.0811874
-2.0847779
-2.087455
-2.088385
-2.0866516
-2.0812842
-2.0679516
-2.0478398
-2.0186439
-1.9780509
-1.9235236
-1.8522426
-1.7610824
-1.6466615
-1.5053612
-1.333291
-1.1264544
-0.88094131
-0.59303257
-0.25938535
0.12250323
0.55363071
1.0310336
1.5543672
2.1090102
2.6671703
3.1809263
3.6331383
4.0898419
4.566124
5.0324198
5.6138595
6.1636497
5.8135803
8.9808321
8.0243738
3.4250034
1.0047727
-0.53543727
0.15981749
2.964069
7.5208658
13.916359
24.173834
21.646513
22.218308
21.87898
18.451924
18.501691
16.616395
9.2716272
5.1579405
1.560101
-1.3770432
-2.6924074
-3.0940321
-2.5838666
-1.0046722
0.85005082
1.6925199
2.9153181
2.7791595
3.1758348
2.6906657
1.8756486
1.5993065
1.3009462
0.89531866
0.43984045
-0.025536608
-0.48610932
-0.93131581
-1.3546504
-1.7530368
-2.1251147
-2.4710704
-2.7918197
-3.0886664
-3.3630269
-3.6162923
-3.8496215
-4.0639333
-4.2600688
-4.4381786
-4.6008942
-4.746841
-4.8769739
-4.9919697
-5.0923988
-5.1788899
-5.2521635
-5.3128262
-5.3610981
-5.3976646
-5.4247343
-5.4415317
-5.4401725
-2.2244469
-2.2316421
-2.2376882
-2.246556
-2.257516
-2.2690407
-2.2801972
-2.2899596
-2.2970429
-2.2984328
-2.2938546
-2.2811551
-2.2578842
-2.2212897
-2.1682756
-2.0953083
-1.9984379
-1.8733704
-1.7154689
-1.5198218
-1.2813857
-0.99514887
-0.65613299
-0.26013132
0.19779292
0.71875388
1.2924202
1.9131389
2.550095
3.1413423
3.6425266
4.0831684
4.5004473
4.8897104
5.2867948
5.5842918
5.4550907
5.2651691
5.3512399
5.1446724
2.7179426
1.7250384
2.3168947
4.2714914
8.6960174
15.632229
21.653791
21.473899
21.165394
20.23484
16.738779
16.175023
14.382479
10.166603
6.9212186
4.7077139
2.9649083
1.6291531
0.94615296
1.0215219
1.5137316
2.0883481
3.0668837
3.419916
3.1311497
3.3762884
2.5656928
1.8732295
1.6622089
1.3093876
0.83768395
0.32164027
-0.19502379
-0.69702134
-1.174202
-1.6214686
-2.0370523
-2.4211289
-2.7751487
-3.1010621
-3.4010405
-3.6771992
-3.9313673
-4.1649087
-4.3790138
-4.5745241
-4.7521237
-4.9127936
-5.0566442
-5.184309
-5.2964789
-5.3937743
-5.4769047
-5.5467396
-5.6039719
-5.6488912
-5.6823846
-5.7069471
-5.7213608
-5.717505
-2.3747614
-2.3850775
-2.3957527
-2.4109841
-2.4301763
-2.4515528
-2.4740376
-2.4965165
-2.5176355
-2.5354573
-2.5485309
-2.5546944
-2.5514411
-2.5358609
-2.5045844
-2.4536759
-2.3786044
-2.2743486
-2.1354815
-1.9561161
-1.7299969
-1.4504956
-1.1109063
-0.70441878
-0.22485975
0.33171667
0.96292741
1.6621678
2.3956577
3.0872812
3.6257928
4.0313978
4.3375121
4.6001129
4.838914
5.0342016
5.0582434
5.0240173
4.8422074
4.232019
3.4235102
2.8291913
3.391236
5.0775906
9.2475786
14.809598
19.342898
20.434564
18.432037
17.777122
15.005159
12.420383
11.807832
10.421438
6.5486186
6.6565191
5.85488
4.7268925
3.8689076
3.4199525
3.4172386
3.5759861
3.7284235
3.6268547
3.2372836
2.6652622
2.3067566
2.0281373
1.7116076
1.2593153
0.71452771
0.14208327
-0.42127438
-0.95982603
-1.4640755
-1.930384
-2.3586142
-2.7505529
-3.1090104
-3.4370997
-3.7378685
-4.0140544
-4.2678494
-4.5008345
-4.7142934
-4.9090572
-5.0853006
-5.2439869
-5.3853678
-5.5100964
-5.6188335
-5.7123129
-5.7913908
-5.8570687
-5.910152
-5.9510253
-5.980832
-6.0023577
-6.0138786
-6.0070598
-2.5205975
-2.5346102
-2.5505908
-2.5729857
-2.60138
-2.6337095
-2.6687406
-2.7052241
-2.7412923
-2.7779831
-2.8108722
-2.8383103
-2.8579089
-2.8666847
-2.8610183
-2.836582
-2.7882849
-2.7103329
-2.5963746
-2.4395605
-2.2326309
-1.9671152
-1.6344774
-1.2258249
-0.73255327
-0.14539863
0.53959321
1.320667
2.1532402
2.9388382
3.4829482
3.8074723
3.9923429
4.1542392
4.3414297
4.5107725
4.6156827
4.6692399
4.5161353
4.0059325
3.2773343
2.7240344
2.9810513
5.5976044
9.6437313
16.022287
29.737091
19.059646
16.66133
16.15862
14.081482
10.298994
8.2524813
9.9478368
7.8850415
8.4958863
8.3125891
6.9252335
5.7102612
4.9033968
4.5377555
4.3695329
4.1471775
3.6734918
3.1969961
2.7881543
2.4341147
2.0770524
1.6488512
1.1108665
0.50383545
-0.11810268
-0.72093278
-1.2882038
-1.8115055
-2.2890392
-2.7228866
-3.116581
-3.4744843
-3.8008424
-4.0994834
-4.3736164
-4.6257081
-4.8574214
-5.0698502
-5.2636111
-5.4387177
-5.5953868
-5.7340239
-5.8553083
-5.959969
-6.0488709
-6.1230819
-6.1837365
-6.231799
-6.2677917
-6.2931644
-6.3110146
-6.3190292
-6.3087048
-2.659955
-2.6784013
-2.7005295
-2.7310071
-2.7696809
-2.8141971
-2.8631976
-2.915514
-2.9696565
-3.0253651
-3.0796889
-3.1307233
-3.1760917
-3.2127807
-3.2369873
-3.2440386
-3.2282794
-3.1830503
-3.1008796
-2.9739432
-2.795101
-2.5528962
-2.2372693
-1.8391862
-1.3459759
-0.7432191
-0.015706825
0.84494997
1.7933147
2.6647958
3.2119679
3.4110692
3.3356228
3.4143432
3.6556541
3.8420276
3.9536703
4.1624462
4.2308084
3.8026703
3.0011807
2.5377243
3.5155404
7.5567273
14.732755
24.223832
26.348957
17.66994
16.372939
16.529589
15.109801
11.824869
8.1665759
7.1059665
9.1654331
13.951429
11.656892
9.1700764
7.1342965
5.9077627
5.3286973
5.041187
4.6235235
4.043951
3.4630625
2.9520791
2.4384474
1.9531972
1.4362887
0.83842249
0.18409045
-0.48006017
-1.1128244
-1.6974512
-2.2278743
-2.705447
-3.1347269
-3.5219274
-3.8728005
-4.192547
-4.4855759
-4.7553887
-5.0045272
-5.234523
-5.4460174
-5.6390464
-5.8134685
-5.9682417
-6.1039458
-6.221285
-6.3211217
-6.404534
-6.4728439
-6.5274107
-6.5694135
-6.5995477
-6.6195842
-6.6329719
-6.6367062
-6.6221781
-2.7907006
-2.8145351
-2.8438347
-2.8834553
-2.933627
-2.9916669
-3.0560308
-3.1256065
-3.1990507
-3.2756261
-3.3532734
-3.4302202
-3.5042865
-3.5725835
-3.6312904
-3.6754584
-3.6988423
-3.6938193
-3.6514987
-3.5618353
-3.4245991
-3.2136277
-2.9281382
-2.5571443
-2.0862296
-1.4966285
-0.75894509
0.16076948
1.2600285
2.2014259
2.9521298
4.5110097
3.3927382
2.8195605
3.1005486
3.3595331
3.5598863
4.0163883
4.3220032
3.7414376
2.7333752
2.9190281
5.378354
11.246364
20.554181
25.548654
22.447052
18.130215
18.011737
18.724818
17.920058
15.757666
13.024521
11.925485
13.347716
18.644171
18.024802
12.294409
8.6377581
6.6056161
5.809853
5.5422351
5.0542635
4.2984886
3.4648341
2.7732134
2.1532896
1.6065728
1.0619091
0.42643369
-0.26989035
-0.97375063
-1.6218736
-2.2056523
-2.7249367
-3.1864097
-3.5982788
-3.9685593
-4.3043031
-4.6115307
-4.8950111
-5.1582747
-5.4035705
-5.6319604
-5.8434046
-6.0369915
-6.2113097
-6.3644512
-6.4970384
-6.6098218
-6.7039033
-6.7807034
-6.8418313
-6.8889931
-6.9236437
-6.9466761
-6.9602614
-6.9681956
-6.9667361
-6.9470466
-2.910602
-2.94103
-2.9787671
-3.028805
-3.0918717
-3.1648668
-3.2459608
-3.3340813
-3.4280164
-3.5269974
-3.6296595
-3.7346235
-3.8401499
-3.9437629
-4.0418593
-4.129361
-4.1994711
-4.2435952
-4.2516205
-4.2129205
-4.1180847
-3.9537224
-3.7127896
-3.3872535
-2.9715262
-2.4476978
-1.7680962
-0.84142897
0.37812225
1.5531488
3.0771925
5.5386754
5.3901927
3.065672
2.9959516
3.4125678
3.7773296
4.3279239
4.7565949
3.8597656
3.2841508
4.7394212
7.4772536
9.2165046
23.623879
20.897447
19.474204
20.034055
21.40222
22.024253
21.50942
19.968212
17.828778
16.377865
16.802421
18.555034
20.055116
15.001024
8.743395
6.0112109
5.0194552
5.2337597
5.0601184
4.3353219
3.3091537
2.553373
1.7841079
1.046285
0.4496142
-0.19499586
-0.91206646
-1.6483553
-2.2821311
-2.8351876
-3.3164485
-3.7397492
-4.1170271
-4.4573098
-4.7681797
-5.0560529
-5.3257836
-5.5805282