/*--------------------------------*- C++ -*----------------------------------*\
  =========                 |
  \\      /  F ield         | OpenFOAM: The Open Source CFD Toolbox
   \\    /   O peration     | Website:  https://openfoam.org
    \\  /    A nd           | Version:  9
     \\/     M anipulation  |
\*---------------------------------------------------------------------------*/
FoamFile
{
    format      ascii;
    class       volScalarField;
    location    "9";
    object      p;
}
// * * * * * * * * * * * * * * * * * * * * * * * * * * * * * * * * * * * * * //

dimensions      [0 2 -2 0 0 0 0];

internalField   nonuniform List<scalar> 
918
(
0.39571072
1.6318057
0.012380507
0.35417346
0.00075349448
1.6024287
-1.1350387
1.1408301
0.43134497
-0.18779147
0.018385923
0.73917531
1.473874
1.2356785
-0.949737
0.020817081
1.0436007
-0.98967797
0.39775437
0.0071932551
1.3084521
0.36285195
0.39835561
0.35876754
0.85582392
1.2450551
1.3363544
-0.00059387111
0.00060131855
-0.0025410233
0.0033534275
-0.0083035387
0.0049260608
1.4787046
1.5327235
1.5564318
0.6675571
0.36120976
-0.8957296
-1.038998
-0.94790274
-1.2079851
1.1128532
1.1185375
-0.52284753
1.1387588
1.1661874
0.520041
0.42964865
0.43413366
0.36152493
0.40546598
0.4160985
0.40136997
-0.21564118
-0.30250742
-0.12522317
-0.092864916
0.11029663
0.013190435
0.011242392
0.026098136
0.032958131
0.6289265
0.73138969
0.7281076
0.74876327
0.76515604
1.5689029
1.5323287
1.5593232
1.5061535
1.496459
1.4537728
1.4169417
1.2735668
1.2804805
1.2343786
1.1999203
-1.495989
-2.5596969
-0.35776649
-0.038305687
0.0014929424
0.029481368
0.036374284
1.0110817
1.0242262
1.0333696
1.0599351
1.1202287
-0.88915602
-1.1991083
0.40594499
0.41929795
0.39879974
0.37789021
0.42472836
0.46890826
0.015281941
0.023135819
-0.01497563
0.0080400461
0.0066984414
1.2652876
1.2475584
0.37784622
0.4131759
0.77960255
0.81990159
0.79811695
0.35072973
0.88044803
0.92695724
0.99251276
1.2114722
1.2362589
1.2093144
1.3222707
1.2771507
1.3831733
1.4088464
0.015248268
0.0037402351
0.01967095
0.0078108149
0.0184228
0.67417877
0.6838881
0.68879551
0.64506783
0.64542566
0.3043494
0.14932472
0.4585567
0.44680997
-0.73785555
-0.8494039
-1.0046808
-1.0125261
-1.2430845
0.73990259
1.0900596
1.0979938
-0.55624253
-0.39684962
-0.66830221
-0.30610668
-0.41534505
0.5989579
0.52825715
0.60513452
0.40307553
0.4654955
0.45461121
0.39613913
0.40580711
0.41630721
0.44426422
0.53694012
0.34643843
0.30667378
-0.57270875
-0.3384835
-0.59141466
-0.063557806
-0.043353215
0.12404398
0.14282136
0.10435454
0.095534276
-0.025535511
-0.0015772009
-0.0090716961
0.028689673
0.032802272
0.61809659
0.60256542
0.64236251
0.65404112
0.71862026
0.72042205
0.72349181
0.72222214
1.342869
1.3665728
1.4112919
1.374283
-3.9836932
-6.7243087
0.30347419
0.49397908
0.0018898292
0.0026758982
0.0026056026
0.0034813606
0.0035335973
0.0010972229
0.058816044
0.053057639
0.041425517
0.047360246
0.98982063
0.99855848
1.0946059
1.1976993
0.97900163
0.97122203
0.60515603
0.53174572
0.44942619
0.52923947
0.028556916
0.023320546
0.030521418
1.1677764
1.2104538
1.2023327
0.26226172
0.11979302
0.43205132
0.48325522
0.96927282
0.94226703
0.97483467
1.0712026
1.1090837
1.398574
1.4106107
1.4482997
1.44514
1.493457
1.4858173
1.4442278
0.66270491
0.68030786
0.67151362
0.60952858
0.66223688
0.65352935
0.71795283
0.69847137
0.7160026
-0.028407107
-0.38358125
0.3446335
0.37313605
0.46921466
0.39913913
0.81504347
1.0025137
1.0497542
1.0700273
1.0799552
-0.16934127
-0.27551844
0.26439669
0.23609419
0.5276452
0.58258863
0.55382694
1.3170857
1.3178408
1.3638974
1.3263092
1.2675947
1.2900982
-0.4145249
-1.608439
-0.98200854
0.92103441
0.68766071
0.79909269
0.083650432
0.067608656
0.068295496
1.1517359
1.2436246
0.59671627
0.81093247
0.781726
1.1638769
1.188105
1.2573691
1.1798784
1.2082339
1.2359745
1.2193329
0.56560441
0.37965193
0.466016
0.9998964
1.1652844
0.053467282
-0.04422006
-0.12005965
0.15669629
0.20121566
0.17811786
1.1796328
1.1369796
1.2537866
0.38108475
0.37627267
0.010452991
0.016537967
0.42197662
0.38577055
0.0064290513
0.012182278
0.76553386
-0.70566668
0.10725441
0.4771493
0.58831314
0.43081262
-0.16413171
0.40797161
0.029459902
0.11707885
0.0727945
0.73024809
0.64505221
0.59217593
0.009760971
0.026536381
0.020319721
-0.4781382
0.42767308
0.41322553
0.4258085
0.40515647
0.4337907
0.010294421
0.0088520456
0.0055558569
0.020913563
0.007678324
0.012930212
0.67873536
0.70457703
-0.44692977
0.43309363
0.40543795
0.42397485
0.40446515
0.41693654
0.37485275
0.022295391
0.015653068
0.019500104
0.31829377
0.49877289
1.100644
1.3189964
1.0727948
0.70277604
0.37617355
0.95578419
1.0622369
0.90976289
1.1183832
1.0472062
1.0962328
0.17964203
-0.056509487
0.19909605
0.14347733
0.48552519
0.56786299
0.55813992
0.61672109
0.46871848
0.45559887
0.45142887
0.4616039
0.43708945
0.44775729
-0.083731929
-0.10665223
-0.17479565
-0.27043409
0.43071983
0.57235538
0.33241194
0.32979559
0.19228284
0.029989102
0.035933321
0.026401865
0.013637878
0.080300812
0.079824756
0.098153006
0.098590257
0.063829405
0.061298454
0.080816373
0.077520413
0.086201926
0.72373889
0.72142989
0.72880921
0.74228152
0.65137692
0.66454857
0.60741112
0.64159352
0.62156258
0.52189257
0.58657822
0.54813774
0.0072572647
0.011975747
0.0086271884
0.033054874
0.038607271
0.018709868
0.016754803
0.018873858
0.014234991
0.016286293
0.022622522
0.031940402
-0.43384393
-0.595471
1.1125726
0.87557269
0.35471657
0.53739292
0.45287226
0.48089934
0.46492503
0.4337804
0.44068693
0.4572792
0.46932701
0.67196692
0.66908214
0.67779973
0.71679106
-0.38056678
-0.55745017
-0.33170089
-0.38087977
0.21519484
0.9297039
0.50348215
0.38272597
0.3832969
0.75755633
1.1917324
1.0899317
1.275812
1.299802
-0.33657743
0.17852863
-0.12824291
0.55272705
0.75485719
1.0811693
1.1489874
1.1558363
1.1230691
1.0473176
-0.23189156
0.74893277
-0.2205587
-0.20951889
0.11670639
-0.046642101
1.1473199
1.022616
1.0306465
1.0816168
1.1217426
1.0334868
0.98523899
0.9962881
1.0703099
1.072804
0.712719
0.36166397
0.24182098
0.23814148
0.98566829
0.77341953
0.86825408
0.70994447
0.61805288
0.58049844
0.60900422
0.6504
0.61710381
0.6484673
0.64678257
0.65416873
0.50698431
0.47019656
0.56336486
0.52845777
-0.060140538
-0.050301409
-0.08913126
-0.31907341
-0.29354382
-0.40203701
-0.19599208
0.15823043
0.13603625
0.45052764
0.51861799
0.10909301
-0.18741493
-0.13099478
-0.13527958
0.18798728
0.17965742
0.14392395
0.20781107
0.22292288
0.18446461
0.27397952
0.25510132
0.050433901
0.064059634
0.034753525
0.038168989
0.12779286
0.16501742
0.15220258
0.065344847
0.06299583
0.03449516
0.03410165
0.10277884
0.05753447
0.077629007
0.085636835
0.0305496
0.035485797
0.038249097
0.056480499
0.054087416
0.05871844
0.70259699
0.71433435
0.71716587
0.73567924
0.75183008
0.77224782
0.73226228
0.65408007
0.65818167
0.68063138
0.63702664
0.65686596
0.64979402
0.66017922
0.69992917
0.70895138
0.70422178
0.68762822
0.68635684
0.68669982
0.66694657
0.66468276
0.64619357
0.61511771
0.58260004
0.023507472
0.016682943
0.020195501
0.019659119
0.015990946
0.017635615
0.054918015
0.045193394
0.051515469
0.04466707
0.049525667
0.021644205
0.024711016
-0.27545229
-0.11505845
-0.52875676
-0.53242119
-0.62108843
1.0218907
1.1647691
0.86504419
0.68314079
0.7359498
0.9377506
1.0161579
0.6126456
0.7147874
0.74027272
0.64675985
1.1051959
0.48527569
0.47835257
0.51299999
0.49951415
0.5246606
-0.20736552
-0.060155542
-0.062203255
0.085184067
0.32980864
0.39700501
0.017240041
-0.06345035
0.11458522
0.031513699
0.92138499
0.94704091
0.8476431
0.8988577
0.90402065
0.59064368
0.73152257
0.82643365
0.74127463
0.83046127
0.85336367
0.78493387
0.8315273
0.76672451
0.68258234
0.68137355
0.59481408
0.60721033
0.58495792
0.54750774
0.71367764
0.67706886
0.69527002
0.68465547
0.71976198
0.77299359
0.75722887
0.78515801
0.81660101
0.69569982
0.64291591
0.64660152
0.69584419
0.63445318
0.65068849
0.67573967
0.24325084
0.21161224
0.084571271
-0.011477454
0.076385045
-0.098765507
-0.11900027
-0.075801708
0.2471483
-0.41129605
-0.40882376
-0.78823254
0.63525079
1.2351023
1.0857685
1.0682576
1.1246366
1.0820559
1.0728227
1.1532793
1.1584094
0.97284013
1.0145171
1.0129524
0.91758875
0.9595322
1.0520552
1.038972
0.72373549
0.47411424
0.42927194
0.41123055
0.17130486
0.24127708
0.61694042
0.48049101
0.35585606
0.36625317
0.67181613
0.47045098
0.57082764
0.6613381
0.53932462
0.46462496
0.79295142
0.91518332
0.90443409
0.85168273
0.69268583
0.73069596
0.78654862
0.85477512
0.89156542
0.9607236
0.61107099
0.59162174
0.54178017
0.53281729
0.66912057
0.62544595
0.63751298
0.60267046
0.57539569
0.54064867
0.57891527
0.0054211496
0.022035127
-0.020616323
-0.013230385
-0.0034236946
-0.025896273
0.077139266
0.026066777
0.046448026
0.048176516
-0.00035275993
-0.020368595
0.0012627204
0.026375934
0.21837042
0.26268576
0.23320033
0.17024623
0.29084103
0.50353126
0.58477245
0.50783033
0.26490891
0.29559803
0.3537996
0.11953965
0.12181814
0.10493175
0.14155427
0.13248381
0.033312476
0.039528728
0.044797914
0.052260824
0.051221894
0.037782109
0.031517293
0.030490706
0.032057988
0.031700783
0.036752203
0.6640704
0.66668239
0.69201826
0.66805583
0.65633643
0.70584852
0.68882111
0.6784064
0.69236791
0.7065678
0.69034894
0.69831322
0.7034228
0.038403901
0.029389703
0.031273057
0.031285056
0.03110806
0.024274692
0.021672787
-0.028455127
-0.032978797
0.027802099
-0.15123959
-0.34053693
-0.22677646
0.30110666
0.51408561
0.35043925
0.95144742
0.58579926
0.51336998
0.71671139
0.87554836
0.29435406
0.50362564
0.27074768
1.0742861
0.98833759
1.1582151
0.64861375
0.20788739
0.44577712
0.54971898
0.22491224
0.33940809
0.33961293
0.17408259
0.24397643
0.26417301
0.42194264
0.18022647
0.2604701
0.14394943
0.092521333
0.24047774
0.25316109
0.38064453
0.3982689
0.001493729
0.08592995
-0.01493432
0.9138535
0.94340075
0.97056506
0.92684095
0.96944669
0.83059836
0.82210808
0.8507909
0.86759004
0.84618169
-0.61823926
-0.71312638
-1.0636322
-0.53220885
0.090265284
0.66201388
0.5687551
1.07765
0.86819454
1.0868265
1.0394234
0.99019388
0.91122958
0.88889459
0.97135276
0.49490021
0.65369221
0.62927246
0.61430479
0.45029599
0.35517638
0.86964395
0.85381891
0.92202183
0.95557325
0.89706217
0.97217922
0.70553212
0.69006488
0.64722556
0.6696958
0.64414455
0.64553399
0.12675941
0.091426374
0.15867431
0.13696526
0.077024594
0.052539359
0.046404245
0.038353182
0.037775799
0.036550824
0.041857915
0.050381906
-0.11434098
-0.12934168
-0.15892368
-0.097926111
-0.23411022
-0.30267934
-0.3588245
-0.24643769
-0.15343388
-0.085882865
0.50667099
0.858355
0.65272646
0.80358839
0.56321385
0.67864306
0.30898875
0.32262551
0.31052082
0.27417953
0.2633935
0.37079849
-0.43683186
-0.11109066
1.1062319
1.0514933
0.69814004
0.55255501
0.48468267
0.81013407
0.76697499
0.62691493
0.72419239
0.83930922
0.83288141
0.15443071
0.14560298
0.50214215
0.65071069
0.32343426
0.16021935
0.13237052
0.33262984
0.39054405
)
;

boundaryField
{
    wall-4
    {
        type            zeroGradient;
    }
    velocity-inlet-5
    {
        type            zeroGradient;
    }
    velocity-inlet-6
    {
        type            zeroGradient;
    }
    pressure-outlet-7
    {
        type            fixedValue;
        value           uniform 0;
    }
    wall-8
    {
        type            zeroGradient;
    }
    frontAndBackPlanes
    {
        type            empty;
    }
}


// ************************************************************************* //
