/*--------------------------------*- C++ -*----------------------------------*\
  =========                 |
  \\      /  F ield         | OpenFOAM: The Open Source CFD Toolbox
   \\    /   O peration     | Website:  https://openfoam.org
    \\  /    A nd           | Version:  9
     \\/     M anipulation  |
\*---------------------------------------------------------------------------*/
FoamFile
{
    format      ascii;
    class       surfaceScalarField;
    location    "9";
    object      phi;
}
// * * * * * * * * * * * * * * * * * * * * * * * * * * * * * * * * * * * * * //

dimensions      [0 3 -1 0 0 0 0];

internalField   nonuniform List<scalar> 
1300
(
1.7582594
5.6264299
-7.5700926
1.7582594
-7.441523
5.6264299
-6.1842656
6.1842656
-2.0536241
2.0536241
3.730837
3.6538523
-5.9788805
5.9788805
-6.0732665
6.0732665
-3.9075733
3.9075733
-5.237684
5.237684
-5.0554692
5.0554692
4.7874602
-4.7874602
-6.0430802
6.0430802
-2.6548214
2.6548214
-6.4540093
6.4540093
1.4605768
-1.4605768
-6.3013668
6.3013668
-0.71292341
0.71292341
-0.59413338
5.1656077
1.164126
1.164126
-3.5315251
3.5315251
-4.823086
4.823086
6.2145426
-6.2145426
11.431792
-11.431792
-3.8616993
-4.0456641
1.6234624
-9.6691013
-5.8180606
-5.8180606
-8.4382772
8.4382772
-2.8118473
2.8145827
3.5066481
-3.5066481
-1.8577365
1.8577365
-6.2005353
0.016269695
-6.2005353
6.2852952
-0.10102966
6.2852952
-2.2481315
0.19450731
-2.2481315
5.6429641
-5.6429641
1.8014163
0.25220786
1.8014163
2.0603705
-2.0603705
-3.730844
7.461681
3.6538453
-3.065994
8.2316017
-3.380957
7.0348093
-5.916235
5.916235
-6.115016
0.13613548
-6.115016
5.9138654
0.065015155
5.9138654
-6.371812
6.371812
-5.9952406
-0.078025909
-5.9952406
6.1555411
-0.082274508
6.1555411
4.1778762
-4.1778762
-3.9361731
0.028599783
-3.9361732
3.8451598
0.062413487
3.8451599
0.35898464
5.2674453
-5.9854146
8.7999973
-5.2674453
0.02976128
5.2000234
0.037660649
5.2000234
-5.0930105
0.037541336
-5.0930105
5.0105447
0.044924506
5.0105447
4.8881289
-0.10066867
4.8881289
-4.8851855
0.097725299
-4.8851856
-3.9785336
-3.9270254
-6.1413681
0.098287903
-6.1413681
-2.7112345
0.056413122
-2.7112345
2.6041981
0.050623252
2.6041981
-4.6055546
4.6055546
-6.5368603
0.082850974
-6.5368603
1.5353264
-0.074749544
1.5353264
2.0144926
2.5569818
3.7727519
-3.772752
2.3121752
-6.293529
-0.0078378102
-6.293529
-6.3158986
-5.1158933
6.3158986
-0.014531716
-1.1660526
0.45312914
-1.1660526
1.3345145
-0.17038856
1.3345145
3.7240403
0.12111956
-3.7240403
0.19251513
4.7390128
-4.7390129
2.7041453
0.82737978
2.7041453
-5.5850151
5.5850151
4.9426574
0.067887272
-4.9426574
0.11957139
6.154623
0.059919605
6.1546231
-6.1928082
-0.021734454
-6.1928082
4.0350603
-8.0807245
-4.03159
5.9366635
0.10641669
-5.9366635
0.11860295
3.8214504
-0.31480233
3.8214504
-3.4376144
3.4376144
-3.0872614
-0.41938664
-3.0872614
-2.1879316
0.330195
-2.1879315
1.5596756
0.29806103
1.5596755
-6.0932895
-0.10724581
-6.0932895
-6.4233488
-0.1135115
6.4233488
-0.13805361
1.6215886
-1.6215886
-2.4082847
0.16015325
-2.4082847
-5.8562978
-0.2369917
5.8562978
-0.21333375
-5.5544078
-0.088556226
-5.5544078
-2.5875167
-0.49974475
2.5875167
-0.52714623
1.6275664
-0.29305187
-1.6275664
-0.43280408
-3.0605711
5.6175528
-3.3863798
7.0402251
-5.7038724
-0.21236252
-5.7038725
6.0599023
-0.14366736
6.0599024
6.3654608
0.088548552
-6.3654607
0.25044474
5.8972427
0.016622682
5.8972427
-6.3275765
-0.044235489
-6.3275765
6.3702537
0.0015583632
6.3702537
5.9252053
-0.027962597
-5.9252053
-0.070035267
6.2232182
-0.067677108
6.2232182
4.2507634
-0.072887147
4.2507634
-4.1162061
-0.061670104
-4.1162061
3.917105
-3.917105
3.9526632
-0.035558235
-3.9526632
0.016490033
-11.148722
11.126987
-0.035833344
-11.112888
5.16419
5.16419
4.0999791
0.78814983
4.0999791
-5.069245
0.18405938
-5.069245
3.9862721
-8.0178621
3.9521667
-7.9307003
3.9654113
-13.634513
3.9877871
-7.9148125
6.2907002
-6.2907002
6.2249936
0.065706595
-6.2249936
0.083625518
-2.7649301
0.053695558
-2.7649301
-4.1681604
-0.43739418
-4.1681603
4.9916245
-0.38606992
4.9916245
-2.4944564
2.4944564
-1.9657354
-0.52872098
1.9657354
-0.43040905
6.2697446
-0.046526429
-6.2697447
-0.023784369
1.4999913
0.30142493
-1.4999913
0.33393872
5.019618
-0.2806052
5.019618
-4.494185
-0.24482787
-4.494185
-2.7534512
-0.011478857
2.7534513
-0.049305991
-5.8259696
0.2409545
-5.8259696
-11.213438
0.10054947
-11.175777
-6.0922587
-6.0922587
2.3460185
11.146016
-4.0187571
-0.097449014
4.0187571
-0.19730676
3.0011553
-0.50669891
-3.0011553
-0.43645904
-3.7521088
-0.1649962
3.7521088
-0.31449442
-2.5944533
0.40652176
-2.5944532
-1.1296921
1.1296921
-1.2894105
0.15971841
1.2894104
0.27026505
2.1591408
-0.53755222
2.1591409
2.519463
0.084735051
-2.519463
0.1111783
-5.3903309
-0.16407698
-5.3903309
6.1533907
-0.093488342
6.1533907
-4.3454386
-0.14874641
4.3454386
-0.094675235
-0.035350243
11.162337
-5.1288398
0.035829317
5.1288398
-11.222257
11.258086
-3.1581401
0.56368693
3.1581402
0.94183885
5.3235531
0.26146202
-5.3235531
0.25430814
6.3374023
0.032851392
-6.3374023
0.046702085
-3.711535
-0.45662534
-3.711535
-5.3643647
-0.33950779
5.3643646
-0.37274005
-11.476923
-0.19228247
11.669206
-11.431999
6.0182521
0.13637096
-6.0182521
11.394457
-1.2407165
-0.38087208
1.2407165
-0.11102429
2.6804675
-0.52132668
2.6804676
5.2587305
-0.23911246
-5.2587305
-0.13160039
-6.2387934
-0.08878306
6.2387934
-0.085402715
-3.2076904
-0.50384459
3.2076905
-0.52722294
-5.4866484
5.3162598
2.7449533
-4.0286577
-4.0520667
-9.144551
2.6011098
3.0164431
4.9132849
-8.4206075
-5.2139051
-8.3020046
7.2956005
-7.0412923
-9.561705
9.4610363
9.9150381
-10.003594
-7.5094728
7.0790638
7.7904669
-8.3176132
3.7474375
3.7142435
12.573932
-12.437796
-12.850207
12.637845
12.231022
-12.309048
12.80778
-12.852015
-14.769259
14.80211
-7.6851679
7.7137677
-8.8115295
8.7498594
-9.0734605
8.9787853
-3.9478892
-3.9828111
10.836406
-10.738118
14.074779
-14.082617
-12.275458
12.358309
4.1931387
1.1231211
3.9000868
-3.597623
7.3450605
-3.4371863
6.1821396
4.0168346
-7.9647238
4.0010275
-8.0530943
7.2463521
6.8284274
-7.2318203
-1.9127307
-7.7533439
7.4385415
-7.7421707
7.4276763
11.903925
-11.887655
-3.568936
7.2831795
-3.4712892
6.4877323
-3.6793314
-3.8301414
3.7540809
1.1592039
6.6708012
4.1656044
-6.7772179
-1.5247866
-10.103064
9.8639511
-10.544472
10.299644
-0.49415017
5.8119386
-5.3177885
4.3289358
-1.4673839
7.2793226
5.8282165
6.0122759
5.8744408
-5.6129788
1.1668515
-6.48464
-6.3650686
-3.5554119
3.7155652
3.5189056
-3.2666978
7.8868493
2.0281888
7.6735155
-7.1850565
-2.8185378
-7.3491335
4.6929254
2.3861384
4.1642044
5.0942643
2.6962026
4.5945196
5.8322316
-5.8304159
-0.0018157167
-5.2695584
11.10179
1.4527636
-9.0996998
-7.9404959
8.2010553
4.3728765
8.2660705
-8.4362429
-4.0015534
-8.1857981
-7.8578542
-4.9923527
-8.197362
8.110709
4.5271355
7.9670417
-9.5135589
9.4281562
8.1808893
4.0501332
8.0986148
-8.0876135
-4.2214348
-8.1576487
12.495595
-3.2332378
-9.2623575
-8.27638
-6.4928789
8.2748216
4.532958
8.9958874
5.8062229
9.0425895
4.2607103
8.234885
-8.7936683
2.3007895
-5.1190146
-2.5661533
-5.1025246
4.9983876
2.7153801
5.060801
-5.4631539
-3.3483755
-5.560603
-5.5983159
-3.4751446
5.6712031
3.0786563
-5.7466769
-4.7977947
5.8954233
3.083362
3.6046321
-8.8185371
4.3101804
-8.2929915
-7.5436899
-3.1944278
-7.4600644
4.8784898
3.1236302
-8.00212
-3.086234
13.052059
-6.2236315
11.139328
-8.786026
-5.2965912
-8.8098104
-8.9399346
-3.3355233
-9.0534462
-7.7145607
7.2579353
-7.569783
7.1837131
14.159567
-6.0236727
-8.135894
-4.4962063
-3.8214069
4.9290104
-1.0289236
-7.1280766
7.1262609
0.21698383
6.3991234
7.5222445
6.4933209
-4.4206613
-3.3215095
-4.8571203
5.138975
2.2887013
4.9739787
8.8750425
3.0288822
8.7740128
-8.5844595
-3.3031956
-8.6917053
9.6616782
-9.3314832
3.9325494
-3.9440283
6.8749965
3.4246472
-6.5943913
-3.5086723
8.0182967
-4.0584819
-3.9598148
-12.138284
10.737299
1.4009845
-4.8589613
-0.53002544
0.18289799
-5.6054807
-3.9562243
5.5077554
0.50452054
11.24182
7.2855954
-5.5211506
5.7621051
6.1480551
6.2159423
-0.14912629
6.1164164
-5.5527295
6.9068198
-2.9032304
-4.0035895
7.0449685
-7.2819602
-1.6467368
-7.0424768
5.39574
0.39155531
2.4500489
-1.9969197
-2.8221189
-0.73329303
-2.7109406
2.0855213
1.4333843
2.3869462
1.3285248
2.3870404
-3.8745069
0.6851501
3.1893568
-2.5459821
-2.5815477
-4.7973865
-1.2391367
6.0365232
7.2138597
2.6500913
-7.0822593
-0.26687422
3.6715132
-3.62089
-1.1934775
-3.603909
2.5719899
-3.7654674
-4.5970192
-2.4421337
7.0391529
-3.5812575
-1.2758628
4.0879565
0.076247984
-4.398635
-3.3547088
4.8180217
-0.22350213
-4.1317803
8.9683775
-4.8365971
-7.4532898
4.6554949
6.4462951
7.0416332
-8.7567331
4.3958236
4.3609095
-2.310438
7.0983149
1.1677556
7.1149376
-10.705261
6.7037073
8.7995098
3.5587993
-8.8880583
0.70226012
-10.003001
11.571671
-9.5974504
-1.9742207
6.3427985
5.2288726
6.5794591
7.5801076
-5.3052012
11.88466
-0.46360188
-9.1338485
10.466602
-6.9078032
5.4682353
-12.376039
-13.048343
3.9144944
-8.4770348
10.235733
-1.7586984
-2.8333633
-6.6801956
11.310398
-1.1933577
-10.11704
6.773684
-6.4481524
-6.4008352
12.848988
-9.6813902
10.62227
-3.1826737
-7.4395964
-7.9939798
-4.8580352
8.0827629
1.3453933
-11.847389
14.148178
-3.6125036
7.1344508
0.96416397
7.0667738
4.6871631
-7.2264292
2.5392661
4.994227
-8.1769007
3.128855
-10.355284
-5.8013176
11.347081
-5.5457631
-8.9957454
-8.0247345
-0.97101087
2.4394444
11.708734
-8.2456673
6.3765027
1.8691646
4.4499537
0.52402502
-4.4143954
-0.68812918
0.48501284
5.9116107
-6.3966235
5.5458138
5.6669333
4.4884456
1.4231651
5.0852182
2.3533233
-4.8879115
-0.67269148
-5.3864542
1.9113096
-2.307798
-4.7205675
6.6318771
-5.2699652
0.54939768
-3.5261638
-4.6697436
8.1959074
-6.0923172
4.6053572
4.3630202
6.8940585
-6.5179209
1.8481773
-3.2643672
-3.2535536
3.4217879
-5.7295859
2.5219255
4.1099516
5.6052875
0.80749276
5.7541391
5.5929416
-8.8777693
0.58477777
9.758546
-8.2337594
1.9999448
7.0426447
-8.3764475
0.35171304
-7.1083513
1.332374
-7.5560055
-6.669746
5.6505954
-8.9861187
-6.7254433
8.1346689
0.63934389
-7.9966151
-1.0568311
-5.3164116
-2.398149
-5.8202563
-2.3784694
-5.1913136
-7.6836706
-1.6292275
-6.0544431
5.6287078
-5.5621803
-2.6351817
5.9349203
1.2487928
-8.1833939
7.8025218
-7.5656931
7.0443664
0.31856562
6.8076953
6.8118865
2.9904796
-4.4972573
7.4877369
-6.1967309
9.2256131
-11.203538
5.0068072
5.4811625
-8.7843581
-5.7223757
5.530464
4.1312143
5.828525
10.081573
-11.022184
0.94061167
-11.972665
12.726184
-0.75351954
-18.152336
6.1796709
-8.0707633
3.5778691
0.35468025
3.6315647
0.91010086
3.1234574
-4.0335583
-3.0339275
-3.0832335
-2.9907965
-4.4029577
7.3937542
1.5035201
-4.3565016
2.8529815
-4.5477331
6.0512532
-0.075840065
-4.2806616
6.828169
-3.7047117
7.1828493
-4.6235732
2.5592761
4.3135849
7.2714581
-2.9578732
5.6009106
-2.1762634
2.3107194
-5.2685926
-2.0922383
-3.9633543
6.6787344
-4.232553
4.7819507
-0.28211092
5.0640616
-5.3528133
1.2943314
-0.86436773
4.8025656
4.9950807
5.4954264
-4.0722613
3.7329811
-5.9092445
-1.5356115
-5.1017518
-0.99180023
0.15617385
-5.1758508
5.019677
7.2152221
-7.0590481
-5.2857036
9.782421
-4.4967174
8.0942487
-5.5406237
-2.5536251
-4.5971428
-4.7343405
4.190621
1.9257953
10.020044
0.29511276
-5.8357364
-5.2576168
-4.315778
4.3201605
2.5866593
-2.6139535
4.0149379
2.4310554
0.018993408
0.87682957
1.5101166
2.4792082
-1.6023786
0.15286438
2.3263438
-1.8440554
2.7250203
0.94649287
-2.8097554
0.098814737
-1.9116403
4.4836301
1.2777164
-2.7111007
1.1087221
1.5932888
-4.4965192
6.2226937
-3.0238184
-3.1988754
7.8159825
1.5589472
-4.5827655
5.4835297
-5.0919744
3.0751906
-4.3143273
-1.507575
-6.5995493
-4.5713605
-3.22143
6.0744115
-4.1723241
6.8224155
1.4773922
-6.5555413
8.0329335
-4.5849207
2.1427869
-4.0926963
5.0391892
-1.4663325
-2.6263638
3.5001349
3.539018
-3.7361832
0.13227417
-0.23604825
2.9611314
-3.1971796
-0.80433603
-3.3503181
-6.9033626
6.6798604
-3.280577
7.6764006
4.2071599
-2.7496381
10.426039
3.324866
-6.0745041
-4.1284238
-5.4042866
-1.7135946
5.3280386
-1.1743463
-6.9833024
-8.6139426
7.011265
0.10367264
-10.859096
12.39056
-1.5314644
-6.4862191
-0.2174882
6.5602868
-9.0710832
0.89418254
-5.9422282
6.4483318
7.6160874
7.7197601
-10.231682
0.11464143
-5.7045462
1.7416461
-7.4461922
6.9705186
-4.0994035
8.0138977
-9.0340496
6.3988678
-7.7852568
6.039677
-1.4065151
6.6974905
-4.1582244
2.564867
-7.4229022
-6.0775089
8.3859732
-4.33584
9.3501372
-4.9006441
14.250781
-8.5131477
8.2999103
5.9508709
-1.6701368
-7.1396736
-8.1804841
6.5103473
0.11942621
7.1862
6.6194321
-4.2661089
5.9467406
3.1312208
-6.3955881
-2.5983651
-9.0115045
2.6159164
-4.6484842
-2.4358785
5.0517949
4.45818
4.982205
1.7982413
-4.2940759
7.9147592
-8.8857701
-2.3689961
-4.3007499
8.0531182
-1.5427708
4.7994785
-9.1002284
-2.7565269
7.6643336
-2.7135327
-4.950801
-1.6406611
-5.0847822
3.172178
-8.2569601
5.8139409
-6.8707719
2.4052375
-10.476001
-5.7781563
-5.8891806
-2.2490775
-5.3166156
-8.1280249
5.8789474
-1.9483541
5.8541678
-9.5086719
6.7951392
-3.2175124
9.0964598
-5.0163584
-0.80389791
5.5435814
1.500785
10.597245
0.45867367
-6.1810493
-2.5664755
5.4994106
-2.9329351
1.7536849
-4.717177
0.78223346
3.261794
4.5541885
-8.6575339
-0.1268241
-6.3078734
-4.2869885
8.4182029
5.4954325
12.710655
1.6884701
9.5970795
-1.1788766
11.28555
4.6496483
4.9199134
-4.619807
5.5604185
0.39986992
5.4066772
-1.1636691
3.7229451
2.4678956
2.5243087
1.0965813
3.0436973
1.9513834
4.3380286
0.30447037
-2.7787631
4.7089144
-9.0246925
-1.126822
-8.2365427
1.2244936
5.9104866
-4.685993
4.2955598
-1.7089005
1.3626248
0.26990672
-2.5451352
2.2752285
-3.7336827
-2.5261418
-0.19979801
-1.9577252
3.0664473
2.5259049
-2.8666493
-0.86703344
0.36418044
-4.935541
3.9501468
-3.8178727
-0.27885469
7.7540788
-3.5506661
0.35348644
-1.4078792
-2.9968317
-3.7301247
3.63131
9.6645597
0.76147897
4.8279626
7.4413394
4.0866306
-0.17947832
5.4747287
-7.233427
-4.8805554
-7.1187856
-0.14826692
6.4120198
2.4218504
9.2868834
8.3727214
6.8299505
-2.2702779
-11.156048
8.3535567
-2.7931382
7.6000371
-2.6492362
-5.6077239
6.0658069
3.1598062
-6.7051507
-0.16562116
-5.7733452
-8.5664834
-1.4928258
8.2879649
-9.1044191
8.3005212
5.902372
0.15207111
-5.0106757
-0.87850494
4.8509572
0.068956266
11.354506
-1.2183721
-7.180868
8.3992402
-4.6921144
3.5652924
1.1308908
2.8840471
3.4061193
1.6972186
-5.4836495
-10.169642
-2.4052497
-2.0912695
-5.6041251
0.43239809
-2.958303
6.2930392
-2.7277468
3.7394141
5.6714934
7.0341181
-1.922537
-5.1365113
6.4192545
-2.6798405
4.3542778
)
;

boundaryField
{
    wall-4
    {
        type            calculated;
        value           uniform 0;
    }
    velocity-inlet-5
    {
        type            calculated;
        value           nonuniform List<scalar> 8(-1.7582594 -1.7582594 -7.3846893 -4.5714743 -7.3846893 -6.446951 -4.5714743 -6.446951);
    }
    velocity-inlet-6
    {
        type            calculated;
        value           uniform -5.6264299;
    }
    pressure-outlet-7
    {
        type            calculated;
        value           nonuniform List<scalar> 8(7.5700926 7.441523 7.9073634 8.0456389 7.905559 8.0666504 7.9384388 7.9531984);
    }
    wall-8
    {
        type            calculated;
        value           uniform 0;
    }
    frontAndBackPlanes
    {
        type            empty;
        value           nonuniform List<scalar> 0();
    }
}


// ************************************************************************* //
