/*--------------------------------*- C++ -*----------------------------------*\
  =========                 |
  \\      /  F ield         | OpenFOAM: The Open Source CFD Toolbox
   \\    /   O peration     | Website:  https://openfoam.org
    \\  /    A nd           | Version:  9
     \\/     M anipulation  |
\*---------------------------------------------------------------------------*/
FoamFile
{
    format      ascii;
    class       volVectorField;
    location    "9";
    object      U;
}
// * * * * * * * * * * * * * * * * * * * * * * * * * * * * * * * * * * * * * //

dimensions      [0 1 -1 0 0 0 0];

internalField   nonuniform List<vector> 
918
(
(0.42154341 -0.00034947661 0)
(0.0090454877 2.9576274 0)
(-0.0026637222 2.0121485 0)
(0.2894712 -0.0088696526 0)
(-0.0030656135 1.9818723 4.7087862e-21)
(-0.011744408 2.9485752 -3.1386585e-18)
(1.090275 1.6818002 9.4698526e-19)
(0.67076361 0.38178031 -2.3874044e-20)
(1.9886748 0.0037638724 0)
(0.013111471 1.775473 0)
(-0.011854819 1.8143352 0)
(1.173517 0.0025333595 0)
(0.012846926 2.9163222 0)
(0.013954637 2.7897208 0)
(0.10369199 3.2050489 5.2727189e-19)
(-7.5518205e-05 1.9095346 -2.1397251e-20)
(0.82764853 0.19959278 1.5410686e-18)
(0.23092915 2.0448202 7.4230308e-19)
(0.34701497 -0.0028027243 0)
(-0.0029077889 1.8949766 0)
(0.21929317 0.3743117 -1.2761955e-18)
(1.0358175 -0.025268268 0)
(0.53414271 -0.030604189 0)
(0.2278374 0.0094745118 0)
(1.0571296 0.015252599 0)
(0.028651003 2.5936619 0)
(-0.009903887 2.9061089 1.1442241e-18)
(-0.0088889073 2.0284593 0)
(-0.014135645 2.109377 0)
(-0.0071159044 2.0292001 0)
(0.0052288572 2.1445574 0)
(0.00053291937 1.9990856 -3.6905118e-21)
(-0.0013573448 1.9176059 0)
(-0.01815969 2.9813331 -1.1634108e-22)
(-0.018371635 3.0070268 2.4368162e-18)
(0.0008634551 3.0015956 0)
(1.0419635 0.045165034 0)
(0.44439231 0.95769161 1.9802737e-19)
(1.187932 1.6379301 -1.1749931e-18)
(1.2754942 1.5396702 1.2254804e-18)
(0.9788191 1.7885064 -2.1397384e-19)
(0.88818779 1.837442 1.2373115e-18)
(0.76498887 0.41430845 2.3211231e-20)
(0.7168656 0.35233693 0)
(1.5938816 0.90308235 0)
(0.70336726 0.43978239 1.0694453e-19)
(0.60661418 0.39113516 -1.1150042e-19)
(0.53553116 0.067013392 0)
(1.9878076 -0.00010894588 0)
(1.9884562 -0.004041934 0)
(1.3792481 -0.0038403952 0)
(1.8643865 0.0082684093 0)
(1.7363326 0.0054395938 0)
(0.010134377 1.9092525 -7.0597756e-19)
(0.027039798 1.9195003 0)
(0.036799316 1.8210011 0)
(0.0082248879 1.9011917 0)
(0.0048357498 1.7457948 0)
(-0.0012322762 1.9476182 0)
(-0.014625414 1.9118893 0)
(-0.0094712645 1.7885815 0)
(-0.016405383 1.9402509 0)
(-0.010457377 1.8372425 0)
(1.2566466 0.006926912 0)
(1.2365747 0.0040698759 0)
(1.1817074 0.0023222884 0)
(1.2261315 0.0096927195 0)
(1.1534823 0.011308207 0)
(0.016739519 3.0145157 1.1989958e-18)
(0.012393654 3.0113549 0)
(0.0077312383 3.0035867 0)
(0.01333929 3.0004839 1.2748652e-23)
(0.010557896 2.947631 -1.7123802e-18)
(0.016851911 2.9848867 0)
(0.013445589 2.8937906 0)
(0.017967488 2.9234554 2.7128492e-24)
(0.013928309 2.8177818 0)
(0.018424905 2.9092973 0)
(0.011684059 2.7513105 0)
(0.25465068 3.6705827 0)
(0.18112742 3.6083474 0)
(0.13830137 3.3382162 -4.9339441e-19)
(0.052474336 3.0252301 0)
(0.010543084 2.1076802 0)
(-0.0022649676 1.9953613 2.1106829e-20)
(-0.0021440444 1.9141035 -3.2240192e-20)
(0.92814896 0.2081568 -5.3027298e-19)
(0.86288044 0.15912342 -5.1486823e-19)
(0.89749767 0.25076316 -1.5930905e-18)
(0.80424826 0.24016215 -1.0583988e-18)
(0.20167387 1.5485274 0)
(0.34063956 2.1076144 -8.1487608e-19)
(0.44785665 2.0606652 1.3618316e-18)
(0.57508645 -0.014560772 0)
(0.34092323 -0.029429965 0)
(1.2185125 -0.0022039113 0)
(0.73988713 -0.036131224 0)
(0.64803506 0.020342823 -2.1581244e-18)
(0.64803756 -0.021769074 1.7100935e-18)
(-0.0016775023 1.98114 0)
(-0.0017600525 1.8939703 0)
(-0.010695558 2.0361577 0)
(-0.0045681182 1.9899267 0)
(-0.0021066455 1.8974021 0)
(0.34438106 0.42977026 3.8640111e-19)
(0.40668993 0.37049793 0)
(0.53757965 0.062090228 0)
(0.25331289 0.035970778 0)
(1.1951367 0.021372029 0)
(1.1472924 0.027210551 0)
(1.1179889 0.015824032 0)
(1.4158332 0.042248044 0)
(1.0875189 0.035132614 0)
(0.9738901 0.036201924 2.1680445e-18)
(0.003496864 2.8668575 9.4521947e-19)
(0.02360485 2.8968115 0)
(0.041938817 2.8682492 0)
(0.017111087 2.6947619 0)
(-0.010224406 2.9859217 1.1011452e-18)
(-0.0089296546 2.891354 0)
(-0.011680582 2.9908005 -3.3917285e-18)
(-0.0095706264 2.9159647 1.1620217e-18)
(-0.0062607491 2.1604389 0)
(-0.002898856 2.1509834 0)
(0.00078953872 1.9958587 -5.2984999e-22)
(0.0003354855 1.989447 0)
(-0.00048712656 1.9087504 0)
(1.1701991 0.054995603 0)
(1.1395288 0.025320093 0)
(1.0198357 -0.047363815 0)
(1.0583536 0.071508292 0)
(0.90107805 0.055921715 0)
(0.54665037 1.1438235 -2.4645052e-19)
(0.5823754 1.1686811 0)
(0.41864297 0.95009247 3.5052632e-20)
(0.31422445 0.71062786 0)
(1.3444158 1.4673686 -3.4660286e-19)
(1.4138753 1.3413653 6.9261243e-19)
(0.55275605 2.0507078 0)
(0.77161317 1.9370695 0)
(0.67640798 1.9709582 0)
(0.22297717 0.30805478 -3.4492658e-19)
(0.80853129 0.37844784 0)
(0.75335566 0.31965294 3.0096682e-19)
(1.4642935 1.2693319 0)
(1.5510166 1.0459563 0)
(1.5131063 1.1248845 -5.5403923e-19)
(1.6347509 0.82447904 0)
(1.6716637 0.70400496 1.0092209e-19)
(0.93521929 0.097162881 0)
(0.80349619 0.12043601 0)
(0.72217464 0.07216136 0)
(0.59527757 0.070902802 0)
(0.67053122 0.09621425 0)
(0.37921228 0.040183384 0)
(1.498379 -0.0048155123 0)
(1.8698303 -0.0055229735 0)
(1.731871 -0.0018431692 0)
(0.01891755 1.9795436 3.8199994e-19)
(0.02758998 1.879835 0)
(0.0050971022 2.0002564 6.1900337e-19)
(0.0022118378 1.9200604 -5.2406285e-19)
(0.15066312 2.0491724 -6.0797066e-19)
(0.055560368 1.9644629 0)
(0.088466974 1.9330523 0)
(0.0018421423 1.8900629 0)
(1.024149e-05 1.7432204 0)
(0.00081996048 2.0183769 -1.5145792e-21)
(0.0027701312 1.9440059 0)
(-0.0034295631 2.0204908 -7.9149435e-20)
(-0.0046265438 1.9422525 1.4976761e-19)
(-0.0054301091 1.8881048 0)
(-0.012447301 1.8954469 0)
(-0.0051740247 1.7575649 0)
(-0.012506038 1.9617978 0)
(-0.0070437452 1.8620215 0)
(1.327682 0.012493623 0)
(1.2786306 0.0077287953 0)
(1.3054548 0.0096428554 0)
(1.2374208 0.006683394 0)
(1.1726244 -0.0086002213 0)
(1.2472073 -0.004570482 0)
(1.2461012 0.0033433559 0)
(1.1841164 0.00086892525 0)
(0.0037993064 3.0718516 -1.0191719e-20)
(0.010832777 3.0617301 0)
(0.016187986 2.9687796 0)
(0.013268676 2.8676485 0)
(0.73919272 4.2631524 0)
(1.2467198 3.3252404 9.5390561e-19)
(0.07543459 3.1535636 0)
(0.031346919 2.9223795 0)
(-0.0038454304 2.1368361 0)
(0.0029448514 2.1122023 0)
(0.0039516357 2.1159197 0)
(0.0014635099 2.1300582 4.0204597e-21)
(0.00620784 2.1091678 0)
(0.007220302 2.120322 0)
(-0.001990104 1.9227091 5.8185618e-21)
(-0.0028599591 2.0081614 4.4412402e-20)
(-0.0027689703 2.0019204 3.2925815e-20)
(-0.0021785349 1.9172615 0)
(0.96658158 0.16465063 7.946861e-19)
(0.91107514 0.11968135 -7.7527419e-19)
(0.27945249 1.6920916 0)
(0.27722237 1.4113581 -3.4588454e-19)
(0.18247154 1.7783771 -9.8434953e-19)
(0.12311147 1.655878 9.8736155e-19)
(0.69538661 -0.065730794 0)
(0.77677287 -0.11252457 0)
(0.66032565 -0.1048229 0)
(0.49314072 -0.064091139 0)
(-0.0088756479 1.9750588 0)
(-0.0048735537 1.9804127 0)
(-0.0042044953 1.8813462 0)
(0.6249574 0.45147754 9.774639e-19)
(0.51874656 0.44419775 -1.1856506e-18)
(0.51657643 0.38425293 0)
(1.5766197 0.1081324 3.0802965e-20)
(1.5645944 0.11708367 0)
(1.4538261 0.048651597 0)
(1.349225 0.021552793 0)
(1.0025315 0.11345453 0)
(1.0289548 0.063119466 -3.4866635e-18)
(0.94152842 0.074533929 1.3266952e-18)
(0.0047957981 2.9890645 9.6912133e-19)
(-0.0023393366 2.869122 4.9660187e-20)
(0.0038621492 3.0538043 -2.139904e-20)
(0.012758464 3.0473702 7.7038268e-19)
(-0.0093691663 2.9952599 3.7830994e-20)
(-0.0083878931 2.9362213 -1.5197861e-22)
(-0.013148225 3.0201618 -7.149134e-19)
(0.0012223967 3.0232023 5.1529053e-19)
(0.0066833997 3.0397243 -7.709374e-19)
(1.2857178 0.014821943 0)
(1.2443847 0.029628776 0)
(1.203966 0.012852686 0)
(0.90569871 -0.089960794 0)
(1.0349644 -0.075708103 0)
(0.87475467 -0.054939701 0)
(1.2185529 -0.025238219 0)
(1.1496821 -0.05602759 0)
(1.1188692 -0.025445999 0)
(0.73865397 1.4149518 6.0263657e-20)
(0.80137373 1.490192 0)
(0.13781434 0.24361767 4.9200739e-20)
(0.3197781 0.77667534 3.6655399e-19)
(0.33474202 0.83735634 -2.7704948e-19)
(0.19603797 0.44737861 5.4719941e-19)
(0.55745387 1.0489601 1.8365058e-18)
(0.288384 0.55189815 4.7934055e-19)
(0.87191001 0.29390073 1.1312433e-18)
(0.84352821 0.33642833 2.8132212e-19)
(0.77819654 0.27865938 5.6956852e-19)
(1.6725448 0.61237259 2.370884e-19)
(1.6947972 0.48030971 2.3338657e-19)
(-0.0010740361 2.0061022 2.4102805e-19)
(0.00056646247 1.9236569 0)
(1.3914747 0.027457614 0)
(1.3513964 0.015617997 0)
(1.3069984 0.011842688 0)
(0.010142139 3.0770785 0)
(0.017087254 2.9385205 1.4950281e-18)
(0.016585644 2.9536244 0)
(0.013539144 2.8432109 -1.492379e-18)
(0.0098290971 3.091711 3.4078368e-19)
(0.0040312111 3.0886411 0)
(0.88949315 1.7763458 -1.4960318e-19)
(1.1479187 2.3853563 2.204686e-19)
(0.86411958 1.8914499 -9.9131337e-19)
(0.017130062 3.0061807 -8.674501e-19)
(0.038843841 3.0519695 0)
(0.014245315 2.8833882 0)
(-0.0064424428 2.0120679 -1.0534769e-20)
(-0.0034332306 2.0111503 -1.0482765e-19)
(-0.0031995659 1.9336709 -6.3530273e-21)
(0.36109347 1.5744816 1.0831179e-18)
(0.32502697 1.2566314 -7.4462191e-19)
(0.044666903 1.9395498 6.5052307e-19)
(0.10366131 1.8643406 -8.0402712e-19)
(0.056867712 1.7688683 1.0575833e-19)
(0.016084776 3.113452 -2.242025e-18)
(0.018251541 3.1197258 2.5378583e-18)
(-0.0080708812 2.9808448 1.0443608e-18)
(-0.0040640038 2.9789226 -1.0143159e-18)
(-0.0071288722 2.8777958 -1.0638332e-18)
(0.005372304 3.1054179 -2.6468381e-18)
(0.010357021 3.1043829 2.6276835e-18)
(0.52024605 0.88228656 0)
(0.42002774 0.77669555 -8.7941144e-19)
(0.16278718 0.18918893 4.1495047e-19)
(0.52990791 1.1923589 1.2958658e-18)
(0.33946772 0.81177041 -2.0040034e-18)
(1.6795721 0.22227354 5.4667423e-20)
(1.6848439 0.3923956 0)
(1.6782916 0.26784276 5.0546287e-20)
(0.0054474282 2.0123775 -1.9503295e-21)
(0.00087264272 2.0043819 0)
(0.0034502568 1.9303968 0)
(0.42811249 1.4515908 -3.874377e-19)
(0.48673537 1.3251866 -8.8640848e-19)
(0.34639938 1.0502279 1.6063647e-18)
(1.2524239 0.022273859 0)
(1.3189653 0.0081792712 3.5367736e-19)
(-0.0060867522 2.1517965 0)
(-0.0091208805 2.1645283 0)
(1.5169621 -0.012717788 -8.1369831e-21)
(1.1194016 0.012340516 7.4420574e-19)
(0.00098223761 2.1333983 -5.2567409e-21)
(0.001953802 2.1386066 0)
(0.072525477 3.1927941 6.4634319e-19)
(0.54786718 3.578049 0)
(1.4651811 0.88856899 -5.8396706e-20)
(1.2815611 -0.10797581 4.0968545e-20)
(1.268983 0.14613568 0)
(1.9939913 0.0026484561 3.6909794e-21)
(0.048324074 2.1792487 0)
(0.031517963 2.1302543 0)
(-0.028131095 2.15104 0)
(0.0071160114 2.1376987 1.0501914e-19)
(-0.0041734915 2.1397417 4.9530665e-20)
(1.3387949 0.015212533 2.5125204e-21)
(1.3880983 0.029663112 0)
(1.4250281 0.044636279 0)
(-0.0041936205 2.1165047 0)
(-0.0010759075 2.1413052 0)
(-0.0023864596 2.1473294 0)
(0.19087022 2.126075 -3.6690158e-19)
(1.2872912 0.037066263 0)
(1.1314442 0.077719514 0)
(1.9571985 0.0074196445 4.8288884e-19)
(1.6355457 0.033943652 -5.2990007e-19)
(1.9032579 0.013683736 0)
(-0.0058266491 2.1262013 0)
(-0.0042921243 2.146131 0)
(-0.0046435498 2.1379039 0)
(-0.0015926507 2.1498498 0)
(-0.0010692704 2.143539 0)
(-0.0026974175 2.151017 0)
(1.3201711 0.1287512 0)
(1.3107951 -0.12498695 2.8895768e-21)
(1.0261704 1.6913096 5.8080236e-19)
(1.9466578 -0.0047385188 -4.8776878e-19)
(1.7084723 -0.019816781 5.5418281e-19)
(1.8953159 -0.014677864 0)
(1.3223006 -0.057367118 4.9177241e-19)
(1.2099882 -0.015268048 -5.5303989e-19)
(0.97495655 -0.033483004 0)
(-0.0001084124 2.1448287 0)
(0.00092167005 2.140495 1.9298861e-20)
(0.00057272568 2.1424371 -1.4317807e-20)
(1.5505582 0.35231958 7.5907344e-19)
(1.4766017 0.094386925 0)
(0.10587773 3.0587744 -1.3053922e-18)
(0.057149592 2.8328816 -9.5984639e-20)
(0.19521494 3.202741 1.895688e-18)
(0.17353566 3.2593784 -2.7938397e-19)
(0.17120219 3.3081626 0)
(0.036880297 3.1388533 3.6190994e-19)
(0.095916904 3.1791613 1.2869407e-18)
(0.092610352 3.2110701 -6.7725107e-19)
(0.061700592 3.1076928 0)
(0.92457691 0.46246083 0)
(0.80042138 0.55094479 0)
(1.4018305 0.94079752 9.7483876e-20)
(1.4156743 1.1511442 -2.1406686e-20)
(1.4791909 0.74143618 0)
(1.5342115 0.72747521 0)
(1.2383576 -0.11823144 -1.0992917e-18)
(1.1522375 -0.15051448 1.5251293e-18)
(1.2488778 0.14983928 0)
(1.1899008 0.16045002 0)
(1.9664185 -0.0083513548 0)
(1.8432595 -0.033788887 0)
(1.9276495 -0.011684709 0)
(1.7179216 -0.053650642 0)
(1.6667725 -0.037930999 0)
(1.7932169 -0.024329627 0)
(0.039695605 2.1732201 0)
(0.024045072 2.1735562 0)
(0.064336641 2.1882922 0)
(0.066721898 2.195786 0)
(0.043273393 2.1359344 0)
(0.071636806 2.1547817 -4.3616573e-19)
(0.019200063 2.1453539 0)
(0.01107219 2.1347903 2.03987e-19)
(0.0055020895 2.1323935 -2.0702076e-19)
(-0.02737064 2.1548599 0)
(-0.026185246 2.1549956 0)
(-0.024971676 2.1525025 0)
(-0.022891886 2.1522242 0)
(0.0019094286 2.1364356 -6.2174433e-20)
(-0.0037841363 2.1406543 7.1549532e-20)
(0.0035591004 2.1400748 9.180754e-20)
(-0.0040469781 2.1392734 0)
(-0.0037592099 2.1437574 -1.1411784e-19)
(-0.0040706377 2.1416757 -6.9383441e-20)
(0.0012212611 2.1356463 4.8873345e-20)
(-0.0018834725 2.1342374 -9.3014128e-20)
(-0.00071693068 2.1369433 -1.1482446e-19)
(1.3505909 0.014779144 1.5630829e-18)
(1.3459323 0.0061262744 -1.9759722e-18)
(1.3427005 0.020279905 -1.5805878e-18)
(1.3225414 0.024037007 2.0360323e-18)
(1.3812411 0.036136487 0)
(1.3823004 0.037603859 0)
(1.424683 0.04724748 0)
(1.3949031 0.033467215 0)
(1.4095209 0.028560566 0)
(1.4733624 0.091407044 0)
(1.4392845 0.05598708 0)
(1.4576442 0.053086609 0)
(-0.0027735352 2.11896 -1.76084e-21)
(-0.0054416803 2.1079607 0)
(-0.0012264471 2.1108393 0)
(-0.0027658626 2.1440629 2.0352025e-20)
(-0.0033948082 2.143686 -9.1924736e-22)
(-0.0098958361 2.1113818 1.9418752e-20)
(-0.0076008554 2.1260221 -1.9498904e-20)
(-0.0041413004 2.1399299 0)
(-0.0044133642 2.1412471 0)
(-0.0051555881 2.1431128 0)
(-0.0030890955 2.1490569 0)
(-0.006328801 2.1559919 0)
(0.31845684 2.0433834 6.6507734e-19)
(0.3919343 2.0676463 3.0586842e-19)
(0.45548252 2.1032038 -2.5911297e-19)
(0.21580647 2.1093557 6.3193839e-19)
(0.12428819 2.3369791 1.4634682e-19)
(1.2968809 0.10533859 0)
(1.297278 0.082451182 0)
(1.121213 0.1269457 0)
(1.9432579 0.0089157033 0)
(1.9453475 0.010773675 0)
(1.6905802 0.030399389 0)
(1.5879269 0.039429905 0)
(1.5927745 0.048300997 0)
(1.3074897 -0.16415669 1.4629632e-18)
(1.1861131 -0.15312927 -1.8072322e-18)
(1.332995 -0.10691097 -1.5023478e-18)
(1.3200472 -0.06171835 1.9325885e-18)
(0.97766256 1.6893389 0)
(0.82335062 1.8496719 5.8099433e-19)
(1.1410841 1.5624567 2.84997e-19)
(1.1953232 1.5735797 -3.7938704e-19)
(1.299919 2.7286591 3.7336854e-19)
(1.1063772 0.165399 8.2999175e-19)
(1.4777647 0.12823749 0)
(1.5262768 0.23840199 -5.8555396e-19)
(1.5490121 0.20793037 -2.2071129e-20)
(1.3003095 0.17320404 0)
(0.25527467 2.9581827 7.3536645e-19)
(0.14663545 2.8380522 -1.8458335e-18)
(0.080924887 2.325521 1.2202708e-18)
(0.13668214 0.22971275 -6.090809e-19)
(0.37974507 3.4889943 -1.0461288e-19)
(0.24365914 3.3883585 0)
(0.25630563 3.4588131 1.4756718e-19)
(0.29172393 3.1058712 -1.8765538e-18)
(0.42249824 3.1928374 0)
(0.016432738 3.1187213 6.7675759e-20)
(0.020243498 3.1327764 -7.37297e-19)
(0.03665655 3.1170136 1.1458577e-18)
(0.045090145 3.1495383 0)
(0.043878411 3.1609149 0)
(1.3823569 2.8230452 0)
(0.68298456 1.0801012 -6.7313982e-19)
(1.3455861 1.3703644 -8.6372232e-20)
(1.269928 1.3988042 0)
(1.0913817 1.257433 -8.8166567e-20)
(1.3592647 1.1970149 4.7290793e-20)
(0.50693215 0.6065325 -1.425404e-18)
(0.97293099 0.44613776 -3.8943577e-20)
(0.95568417 0.39755314 6.0432226e-19)
(0.79893673 0.59536286 4.5127305e-20)
(0.71955308 0.57312819 -1.8762772e-18)
(0.92873322 0.49811294 0)
(0.91794845 0.57563376 9.9708601e-19)
(0.943997 0.54722792 0)
(0.85901013 0.54665439 0)
(0.86535777 0.49282791 0)
(0.99858229 0.81502875 5.5292536e-19)
(1.5300247 0.36720525 -6.4107846e-19)
(1.535634 0.54971695 0)
(1.5678075 0.51981728 0)
(1.0252234 0.30730786 9.0728928e-19)
(1.0159133 0.71801746 -5.5380783e-19)
(0.94226967 0.68148742 9.7727799e-19)
(1.1926936 0.5103066 -1.01042e-18)
(1.2338901 -0.17341295 9.4286164e-19)
(1.1772927 -0.16873558 -8.505471e-19)
(1.1328081 -0.17123366 0)
(1.3091279 0.16257634 0)
(1.2406973 0.16639591 -9.0046244e-19)
(1.2024423 0.14907349 8.9208526e-19)
(1.5298289 -0.072866491 0)
(1.4698654 -0.16488855 0)
(1.8577745 -0.038067131 0)
(1.6043787 -0.10220393 0)
(1.8373515 -0.029533005 0)
(1.8676348 -0.015834216 0)
(0.017094798 2.1715511 0)
(0.0070123813 2.1612586 0)
(0.066612654 2.1502894 2.9470661e-20)
(0.16356202 2.1327229 1.7696076e-19)
(0.088064528 2.1999335 3.9290288e-19)
(0.097452815 2.1974148 -6.3228078e-19)
(0.077004546 2.1591238 0)
(0.022457275 2.1243419 -1.3356006e-19)
(0.028136656 2.127456 0)
(0.11167971 2.2961017 -2.026899e-19)
(0.19198664 2.2186369 7.02666e-19)
(0.014167205 2.1306613 1.2037136e-19)
(0.10623261 2.0659818 7.8666705e-20)
(0.065773157 2.1059753 -6.4174971e-20)
(0.050392851 1.9965366 2.5197987e-20)
(0.038207972 2.1385417 0)
(0.018682945 2.153324 2.7671132e-20)
(0.0045635782 2.1297404 -5.5784808e-20)
(-0.0036814902 2.1313414 0)
(-0.00025479055 2.1139565 2.2532643e-19)
(-0.0026358143 2.119102 0)
(0.00024275381 2.1396014 -2.2630489e-19)
(-0.0012607954 2.1367126 0)
(-0.011530678 2.1433482 -4.1189837e-20)
(0.0026700939 2.1457141 0)
(-0.0057264291 2.1597893 0)
(-0.01620853 2.152973 4.6656801e-20)
(0.012059728 2.1352958 1.46821e-21)
(0.0087536332 2.1338951 2.4700146e-19)
(0.012356654 2.1376595 1.6391558e-21)
(-0.0046712663 2.1229231 4.1577869e-20)
(-0.0064759679 2.1264623 2.5876847e-20)
(-0.024799831 2.1571085 0)
(-0.021760199 2.1611367 0)
(0.016290707 2.14103 1.3441636e-19)
(0.01090279 2.1555682 8.5172569e-20)
(0.0057665587 2.1460603 -1.2324404e-19)
(0.020285899 2.1515819 0)
(-0.0072355109 2.1238093 -6.9452423e-20)
(-0.0036172055 2.1398354 3.2179107e-20)
(-0.0045808678 2.1366951 -1.0126185e-20)
(-0.0032550241 2.1239034 -4.9216289e-20)
(-0.0020912071 2.137946 -1.7029178e-20)
(-0.0029305902 2.1379735 8.0116047e-20)
(1.3442211 -0.041315762 -1.0391861e-18)
(1.3524701 -4.766844e-05 1.0496755e-18)
(1.3405976 -0.013512005 0)
(1.3250545 0.059110457 1.488148e-18)
(1.3231927 0.039593947 -1.6631915e-18)
(1.2953865 0.045684429 1.8552041e-18)
(1.3251634 0.10276195 -2.0163145e-19)
(1.3345812 0.11562433 0)
(1.362523 0.061344878 9.4613684e-19)
(1.3475742 0.074920926 -9.4014135e-19)
(1.3862619 0.059957895 -5.560276e-20)
(1.3812505 0.043767963 4.8247955e-19)
(1.3665673 0.063189924 0)
(1.3578937 0.058522759 -1.7451102e-19)
(1.3615015 0.031801837 0)
(1.3602092 0.019802379 0)
(1.474979 -0.064177422 0)
(1.4038069 -0.082662661 0)
(1.3709174 0.03219582 3.5340706e-19)
(1.3852321 0.016603449 -7.7689786e-19)
(1.3626614 0.05186155 -3.8043235e-19)
(1.3646115 0.049040222 -4.1595079e-19)
(1.3592446 0.069842531 8.0405455e-19)
(1.4074277 0.062970648 0)
(1.4092819 0.10281216 0)
(-0.0075169684 2.1206332 -2.576876e-20)
(-0.0084500105 2.112657 -2.4443454e-21)
(-0.0087557589 2.1122359 0)
(-0.0036189468 2.1302476 2.6644323e-20)
(-0.004812732 2.122157 4.0279845e-21)
(-0.002846315 2.1278401 -4.6372462e-21)
(-0.0039231606 2.1445298 6.0631804e-20)
(-0.0024163381 2.1422154 -3.6045529e-21)
(-0.0019856201 2.1397142 1.7463472e-20)
(-0.0034787401 2.1445607 -3.0606624e-20)
(-0.0041210908 2.1435079 3.7004056e-20)
(-0.0089454568 2.1244292 -7.7291786e-23)
(-0.010331963 2.1147151 2.8977712e-20)
(0.22558298 1.8949453 -3.1379673e-19)
(0.091057092 1.9730076 -1.0681149e-19)
(0.77593155 1.8402281 -5.6389733e-19)
(0.55208982 1.9484499 -2.948568e-19)
(0.62201114 1.9713672 0)
(0.50152094 2.1658186 2.5131079e-19)
(0.58368444 2.0937335 3.7740042e-19)
(0.28925916 2.1120398 8.5235238e-20)
(0.27033511 2.1755876 -7.807398e-19)
(0.34031028 2.2223105 6.7202644e-19)
(0.41736316 2.1273436 0)
(0.33971148 2.0889459 -5.7113303e-19)
(0.10002115 2.1348765 1.1147539e-18)
(0.18259385 2.1324564 -6.0171131e-20)
(0.11974611 2.1404319 -1.5104873e-18)
(1.058529 2.5437549 7.0987258e-19)
(0.84418644 2.3353916 0)
(1.9037548 0.018129626 2.1736076e-20)
(1.5840847 0.057230797 -1.8610038e-20)
(1.5904301 0.051710774 -3.4747702e-19)
(1.7819741 0.040072385 3.4877328e-19)
(1.9123389 0.023432936 0)
(0.91687365 1.588218 0)
(0.91061301 1.478917 0)
(1.025992 1.4312256 0)
(0.89924862 1.4545135 0)
(1.3146134 2.7861046 -1.3452244e-20)
(1.1959587 2.5982275 0)
(1.0834939 2.4000549 8.7576047e-22)
(0.75334469 2.7524674 0)
(1.0064429 2.7720611 -9.2042702e-20)
(1.0928073 2.7492129 6.3112069e-20)
(1.1212025 0.20473084 0)
(1.0787455 0.23723642 2.3081961e-19)
(1.2010261 0.1588479 1.2857661e-18)
(1.1493609 0.13721465 -4.8075294e-19)
(1.1332949 0.097982043 -1.5067114e-18)
(1.3595986 0.27703125 -1.159327e-18)
(1.2547928 0.35518724 -2.0475811e-20)
(1.1921026 0.33375141 1.1924238e-18)
(1.2783903 0.27471225 9.9637869e-19)
(1.230478 0.19943018 -1.7073883e-18)
(1.1946041 0.21477789 2.1505999e-19)
(1.2348775 0.28069667 -4.5574355e-19)
(1.2046876 0.26524952 0)
(1.294419 0.21776326 8.3992803e-19)
(1.3223984 0.23452383 0)
(1.3173528 0.27082884 0)
(1.4007373 0.14240663 3.8692198e-19)
(1.3485608 0.21295828 -1.9891718e-20)
(1.3639187 0.26870957 -2.0844298e-19)
(1.4153777 0.234678 0)
(1.3482613 0.033362845 8.0812158e-19)
(1.3554238 0.056639516 1.0092248e-18)
(1.3570517 0.044445064 -7.7744902e-19)
(1.3468665 0.063535874 -6.8404945e-19)
(1.3318038 0.061621162 -1.0667799e-18)
(1.2978014 0.16066035 0)
(1.3136669 0.11032353 0)
(1.2976857 0.0741153 -6.7042976e-19)
(1.2475585 0.080995173 2.6617326e-19)
(1.3380399 0.10234302 9.5092989e-19)
(1.3425166 0.13506752 -1.1137817e-18)
(1.3471696 0.16951723 9.9036684e-19)
(1.3305245 0.16752624 0)
(1.3571155 0.10863434 0)
(1.3481922 0.083760369 -4.5709654e-19)
(1.3445214 0.091122216 -7.8414016e-19)
(0.86235877 1.4538401 1.1107631e-19)
(0.93718515 1.7481859 -1.1169994e-19)
(1.2233967 2.7548717 -1.2533528e-19)
(1.3092548 3.1299916 1.33498e-20)
(1.3760829 2.8448878 -2.4152766e-19)
(1.4246977 2.9057221 -7.2693559e-20)
(1.3039747 2.5963691 2.5678809e-20)
(1.3559652 3.049354 -4.9132923e-20)
(1.3638554 3.0717467 1.5086724e-19)
(1.3335056 3.3483672 -1.4354363e-19)
(1.4554645 3.1210143 1.4791408e-19)
(1.4748889 3.0544638 0)
(0.69036641 1.155746 -5.6590215e-20)
(0.3032955 1.4366187 7.1439818e-19)
(0.63701639 0.7966864 9.4751565e-19)
(0.40585725 0.4270438 1.1100402e-18)
(0.71150274 0.60927496 1.0455815e-18)
(0.7218259 0.67628326 -1.7193046e-18)
(0.69610247 0.69942983 1.3925861e-18)
(0.64068791 0.64134299 -5.5260302e-19)
(0.61256766 0.56455141 1.2567288e-18)
(1.0418704 0.34371869 -5.069828e-19)
(0.99902534 0.38732423 0)
(0.98259728 0.35812873 2.1456882e-20)
(0.8900491 0.69029701 5.3343735e-19)
(0.87454613 0.65246197 -1.9377876e-18)
(0.75841332 0.68615633 3.3702512e-20)
(0.8082558 0.64537907 0)
(0.80616096 1.0123118 5.3050726e-19)
(1.0247544 1.012107 4.3253877e-19)
(0.95580249 1.1321032 -5.0153413e-19)
(1.0758734 1.0404429 -1.8600415e-19)
(1.2041923 1.1120166 -3.3812549e-20)
(1.164215 1.1099429 3.4119683e-20)
(1.0705124 0.83315105 -9.2840334e-19)
(1.1168229 0.94597881 1.7447363e-19)
(1.2289337 0.94261832 0)
(1.25369 0.8904163 -2.5203394e-19)
(1.2751155 0.38131226 2.9941842e-19)
(1.440976 0.36325201 3.8173809e-19)
(1.3511559 0.33082879 4.8267265e-19)
(1.250307 0.45464979 -6.0658113e-19)
(1.3334752 0.50682544 0)
(1.3862087 0.4930285 0)
(1.1589962 0.46017526 1.4246725e-20)
(1.1179166 0.36549569 0)
(1.1411783 0.34733636 5.8801203e-19)
(1.1759633 0.34917009 -1.5435829e-20)
(1.174435 0.55352769 2.6561839e-18)
(1.0991929 0.64749647 7.3136878e-19)
(1.0971983 0.58339834 -8.1392805e-19)
(1.038592 0.56983668 8.7740317e-19)
(1.0017628 0.58102868 5.3169855e-19)
(0.97475634 0.54862293 -5.2019592e-19)
(1.4557988 0.13549273 6.7995114e-19)
(1.7862386 0.071547022 0)
(1.7852706 0.077891763 4.2196e-19)
(1.5274674 0.12092365 -9.8355487e-19)
(1.6897774 0.00085384968 5.3980684e-19)
(1.6679642 -0.12218184 -1.1255672e-18)
(1.5057399 -0.15991395 0)
(1.4215157 -0.15227718 -2.1534174e-19)
(1.7178006 -0.087857451 5.2606713e-19)
(1.5670607 -0.11857683 -2.6393787e-19)
(1.4649265 -0.13722098 2.032522e-19)
(-0.011510219 2.1550373 0)
(-0.0047349918 2.1652302 0)
(0.0041264452 2.1610165 0)
(-0.0082961842 2.1542127 0)
(0.021348483 2.1725999 -1.7313897e-20)
(0.024880837 2.1694849 1.786455e-20)
(0.027091315 2.1484957 -4.1658896e-20)
(0.033877855 2.1492992 -3.112699e-20)
(0.016453737 2.1645152 -6.7739393e-20)
(0.014644994 2.1637574 5.0365576e-20)
(0.022250657 2.1762764 -1.0370205e-20)
(0.017920768 2.1816319 1.4955033e-20)
(0.0087674051 2.1735676 1.6918985e-21)
(0.0063326575 2.1679606 -6.1490891e-21)
(0.0053774645 2.1117823 -2.4151851e-19)
(0.010546316 2.11266 0)
(0.022626175 2.0919613 1.3714787e-19)
(0.02307392 2.1099671 9.0367933e-20)
(0.056026891 2.1386738 -9.5879876e-20)
(0.11203264 2.1324057 0)
(0.13891391 2.1304261 -7.6310636e-19)
(0.15049955 2.1730193 5.4324296e-19)
(0.051197392 2.1213465 -2.7225138e-19)
(0.034177584 2.1003494 1.5309951e-19)
(0.029278643 2.1069286 0)
(0.015234786 2.1345105 -1.7125378e-19)
(0.0091603708 2.1304148 -2.1312343e-19)
(0.011958362 2.1348397 0)
(0.014013068 2.1321482 -7.1148131e-21)
(0.011948849 2.1315415 8.4852409e-20)
(-0.022725215 2.1456827 6.0773488e-21)
(-0.023545352 2.1477183 -1.1209229e-19)
(-0.018284848 2.1339742 2.7295056e-20)
(-0.013513746 2.1228227 4.576184e-20)
(-0.014985822 2.1410961 0)
(-0.01408639 2.1328371 0)
(-0.0084121293 2.155954 3.3680764e-20)
(-0.0063462521 2.1313239 -1.0027229e-20)
(-0.011245724 2.1369319 0)
(-0.016814109 2.1608474 2.5689477e-20)
(-0.013738758 2.1599714 -5.1666712e-20)
(1.3628679 0.087278554 0)
(1.3606178 0.063322497 -8.651453e-20)
(1.4084884 0.034767728 -6.5101883e-19)
(1.3748131 0.050189687 0)
(1.3562156 0.051923918 0)
(1.4240478 0.022125661 8.5486387e-21)
(1.4568537 0.025892832 9.7730758e-19)
(1.3971778 -0.012024231 1.2372237e-18)
(1.3907283 -0.050717042 0)
(1.3693506 -0.033562653 0)
(1.3762529 0.0037783971 6.3926611e-19)
(1.3682713 0.0042722973 0)
(1.3680308 -0.0060317003 0)
(-0.0055601297 2.1199687 0)
(-0.0097047847 2.1110705 2.1108575e-21)
(-0.0095937063 2.1084592 1.6273275e-20)
(-0.0063263975 2.1297926 0)
(-0.0076470809 2.1196872 2.0627148e-20)
(-0.0074693977 2.1255058 -8.920263e-21)
(-0.0057011107 2.1282411 0)
(0.2408981 2.3168395 0)
(0.052614048 1.9520933 1.7233313e-19)
(0.071125056 2.2127767 0)
(0.24665905 1.7461702 -3.3945054e-19)
(0.46450435 1.7704983 0)
(0.31700348 1.7870688 1.9046227e-19)
(1.152983 2.9305444 -1.2662175e-20)
(1.0712558 2.6222908 -8.1934978e-19)
(1.080517 2.5365885 6.1709102e-19)
(0.88317635 2.4176047 3.1154918e-19)
(0.83930745 2.6558265 0)
(0.96903012 2.6682625 0)
(1.0162022 2.5388941 0)
(1.0031735 2.4170361 -1.0604937e-18)
(0.43468564 2.7100702 -4.5397906e-19)
(0.7171953 2.6913964 -8.9469342e-20)
(0.69373979 2.7125858 7.1297074e-20)
(0.62873754 2.2199733 0)
(0.76858561 2.3400924 0)
(0.7157406 2.1995735 -4.2096836e-19)
(0.63242187 2.5730308 0)
(0.82289357 1.4077081 0)
(0.6751853 1.2756837 -4.9756137e-19)
(0.73520025 1.2527362 -3.201762e-20)
(0.76451003 1.3660263 0)
(0.74403142 1.3738045 7.7418151e-19)
(0.98218597 1.1746998 -1.2066285e-19)
(1.0290172 1.3137163 0)
(1.0162514 1.2262561 1.6187372e-19)
(0.82279529 1.3887721 0)
(0.84440394 1.2476212 0)
(1.2890097 2.8606408 -1.8981081e-19)
(1.2523341 2.8644385 -1.2283793e-19)
(1.1391959 2.3411545 1.9562612e-19)
(1.1404831 2.399106 -5.6873268e-20)
(1.2612581 2.868087 0)
(1.2203701 2.8349097 7.4563779e-20)
(1.2254561 2.7048042 -2.1756663e-19)
(1.1055485 2.543624 -2.5131223e-20)
(0.8432761 1.7162442 0)
(0.82915509 1.314276 -9.7915627e-20)
(0.82302774 1.3866194 0)
(1.1329826 0.28497886 0)
(1.0864732 0.25496526 0)
(1.0321923 0.26501155 0)
(1.1235367 0.30320325 -9.1244803e-19)
(1.0603198 0.28880584 5.3530335e-19)
(1.2410767 0.07811441 -5.2257509e-19)
(1.2477877 0.12829839 0)
(1.2172674 0.13253996 2.3533237e-19)
(1.1801739 0.083850771 9.5495768e-19)
(1.1827164 0.066604388 -6.029838e-19)
(1.339956 3.4793654 -4.1158676e-19)
(1.3216645 3.4057952 0)
(1.3614726 3.4361691 -9.1569959e-19)
(0.53832155 3.5433976 8.7505273e-19)
(0.78074162 3.0714202 -1.8086826e-19)
(0.60500397 1.1929378 6.9889253e-19)
(0.57886214 1.2223236 0)
(0.53478973 0.80528243 -2.2041906e-19)
(0.60038137 0.99206236 1.1111956e-18)
(0.63334992 0.75428278 -3.1589405e-19)
(0.64027072 0.76565028 3.4529329e-19)
(0.78272467 0.7252268 7.318891e-19)
(0.84736897 0.73980557 0)
(0.78241796 0.84285867 0)
(0.72563309 0.80133164 0)
(1.2262323 0.76261169 9.177226e-20)
(1.1245958 0.69912458 -6.9727263e-19)
(1.1374921 0.74778159 5.2886382e-19)
(1.1800458 0.65889638 -5.3973135e-19)
(1.329684 0.63798401 0)
(1.3482674 0.70749375 -1.2491158e-19)
(1.0704582 0.50957286 -1.2030933e-18)
(1.0962277 0.4891895 -1.4406217e-18)
(1.0436778 0.50091967 9.3762545e-19)
(1.0410507 0.46600316 -9.7121429e-19)
(1.110069 0.40485234 -7.4863697e-19)
(1.0568186 0.40721346 9.2890233e-19)
(1.6145168 0.023880417 -6.2442303e-19)
(1.6081653 0.023064984 1.2561861e-18)
(1.4343982 0.14701072 7.4988318e-19)
(1.4261291 0.15137951 -8.9418847e-19)
(1.4202084 0.10626924 0)
(1.5326724 0.06866527 -1.5734966e-18)
(0.014470282 2.1265389 3.2750245e-20)
(0.019005047 2.1492682 0)
(0.013445771 2.1139954 2.8625908e-19)
(0.017962301 2.1203253 -2.5492039e-19)
(0.024429143 2.1547487 7.3527905e-20)
(0.022502101 2.1661071 0)
(-0.0037765505 2.1185245 0)
(-0.0089233285 2.1226964 -1.1528393e-20)
(-0.0083797806 2.1205364 1.0440298e-20)
(-0.0071007142 2.1176861 2.9977478e-21)
(-0.0055800853 2.1178465 -2.0464293e-20)
(-0.0041561428 2.1197278 1.3685148e-20)
(0.68509522 1.7274077 2.3086812e-19)
(0.4938404 1.9673696 -2.422357e-19)
(0.33663404 1.7008411 2.5718956e-19)
(0.36353994 1.9499888 -9.973027e-21)
(0.81802845 1.5809824 0)
(0.58609289 1.6657076 4.0331532e-19)
(0.70471497 1.7107542 -3.9224769e-19)
(0.49796598 1.5003072 -2.5793765e-19)
(0.65307479 1.4934262 0)
(0.77324707 1.4327625 0)
(0.36592197 2.640813 6.7282946e-19)
(0.483 2.4032022 1.4952007e-18)
(0.53823862 2.5513247 -1.0556281e-18)
(0.42135423 2.3764798 -2.1490734e-19)