/*--------------------------------*- C++ -*----------------------------------*\
  =========                 |
  \\      /  F ield         | OpenFOAM: The Open Source CFD Toolbox
   \\    /   O peration     | Website:  https://openfoam.org
    \\  /    A nd           | Version:  9
     \\/     M anipulation  |
\*---------------------------------------------------------------------------*/
FoamFile
{
    format      ascii;
    class       volScalarField;
    location    "0.23";
    object      alpha.phase1;
}
// * * * * * * * * * * * * * * * * * * * * * * * * * * * * * * * * * * * * * //

dimensions      [0 0 0 0 0 0 0];

internalField   nonuniform List<scalar> 
10000
(
2.4264812e-102
2.4264812e-102
2.9076571e-100
6.7477635e-98
1.2349693e-95
1.9106216e-93
2.5846207e-91
3.111808e-89
3.4013216e-87
3.4755573e-85
3.2348775e-83
2.8285649e-81
2.1663442e-79
7.7677414e-78
9.1009458e-77
4.4032568e-76
1.155994e-75
3.6553846e-75
1.1017791e-74
1.7093409e-74
1.7660853e-74
1.9623706e-74
1.1822649e-72
1.2594045e-70
1.1598808e-68
1.0433225e-66
1.1575681e-64
1.5930884e-62
2.9851396e-60
1.4979696e-57
3.6466983e-56
6.8700007e-56
1.7285115e-54
5.3348345e-54
1.1025676e-52
3.4806095e-51
1.0003921e-49
2.5857234e-48
5.9509081e-47
1.2006188e-45
2.0760707e-44
3.0244953e-43
3.7148975e-42
3.8388184e-41
3.1981688e-40
2.0580338e-39
1.0457981e-38
4.2732692e-38
1.3281786e-37
3.0097588e-37
3.0095619e-37
1.3306279e-37
4.1885873e-38
9.8212983e-39
1.7488491e-39
2.2350816e-40
1.7465089e-41
6.9964799e-43
1.2672167e-44
9.5187366e-47
4.6263954e-49
4.5423227e-52
3.1833545e-55
2.5997225e-58
2.7814411e-58
3.2840813e-57
3.0528861e-56
6.2997059e-56
6.3999285e-56
1.0499399e-56
5.3235307e-58
1.0833367e-60
1.3689745e-62
1.5703719e-64
1.3099544e-66
1.0543559e-68
1.1333759e-70
1.0643929e-72
3.1869482e-74
3.1603142e-74
3.057482e-74
1.9652311e-74
6.4367706e-75
2.1829153e-75
8.290779e-76
1.775121e-76
1.5917811e-77
4.8572506e-79
6.7685762e-81
8.079516e-83
8.3691416e-85
7.9040567e-87
6.7855441e-89
5.22922e-91
3.5699228e-93
2.1389735e-95
1.0743102e-97
4.1839795e-100
3.1089322e-102
3.1089322e-102
3.2000034e-102
3.2871438e-100
7.1259168e-98
1.2311345e-95
1.8133715e-93
2.3441672e-91
2.7050114e-89
2.8398378e-87
2.7828963e-85
2.4827818e-83
2.0731226e-81
1.4812481e-79
4.8668129e-78
5.704584e-77
2.9658226e-76
1.0179168e-75
2.9114076e-75
8.3059881e-75
4.5386479e-74
7.564327e-74
3.0547155e-74
6.8242396e-73
7.4241564e-71
6.8438323e-69
6.3651249e-67
7.4626763e-65
1.092718e-62
2.1369918e-60
2.7911244e-58
3.1412248e-57
4.0723419e-56
1.4069688e-55
2.4928562e-52
1.50566e-51
3.6220345e-50
1.1050551e-48
3.0529503e-47
7.5698158e-46
1.664513e-44
3.1988992e-43
5.2738639e-42
7.3278418e-41
8.48108e-40
8.0592724e-39
5.9548486e-38
3.0609867e-37
9.9667086e-37
2.1922824e-36
4.366588e-36
7.3155123e-36
7.3328176e-36
4.3974565e-36
2.1953158e-36
9.7005016e-37
2.8156964e-37
4.5459108e-38
3.8251171e-39
1.6762466e-40
3.4633951e-42
3.4340639e-44
1.4443729e-46
1.6790931e-49
6.9366301e-53
6.9573953e-56
2.914967e-55
5.9464248e-54
2.230142e-53
2.5080565e-53
6.0588146e-56
1.2121786e-56
8.6340611e-58
3.5341359e-59
5.8953359e-61
8.7859382e-63
1.0283876e-64
8.6117522e-67
6.5691794e-69
6.9195984e-71
6.3324089e-73
5.23862e-74
1.3498253e-73
8.2559678e-74
1.5385875e-74
5.3187308e-75
1.9387929e-75
6.0549195e-76
1.0196173e-76
9.8769254e-78
3.2915384e-79
4.9176119e-81
6.1902264e-83
6.7272142e-85
6.6360092e-87
5.9475843e-89
4.7878991e-91
3.4179425e-93
2.1484596e-95
1.1432786e-97
4.7496869e-100
4.1285542e-102
1.6968549e-99
2.0081306e-97
3.7879815e-95
6.608375e-93
9.8148396e-91
1.2797988e-88
1.4897909e-86
1.5783146e-84
1.5614519e-82
1.4073428e-80
1.1868663e-78
8.5667369e-77
2.9760466e-75
3.559771e-74
1.7885469e-73
4.26281e-73
1.3823853e-72
4.0623193e-72
2.3980086e-71
3.304116e-71
1.1195096e-71
4.210177e-70
4.6103993e-68
4.3107698e-66
4.0949887e-64
4.9673813e-62
7.6295303e-60
1.5991165e-57
2.2756939e-55
1.4350634e-54
4.7645545e-54
9.9053137e-53
2.7232394e-49
6.698666e-49
8.080618e-48
2.3438186e-46
6.3022357e-45
1.5164862e-43
3.2291237e-42
5.9987238e-41
9.5512258e-40
1.2820285e-38
1.4345705e-37
1.32108e-36
9.5415944e-36
4.8786328e-35
1.6099731e-34
3.5936297e-34
7.1094282e-34
1.2290985e-33
1.2320696e-33
7.1538372e-34
3.5924186e-34
1.5659672e-34
4.4918309e-35
7.3388125e-36
6.4700607e-37
3.0963534e-38
7.3616585e-40
8.7410912e-42
4.533927e-44
7.8721486e-47
6.0433841e-50
1.2286992e-52
6.094911e-52
7.7624185e-51
2.237697e-50
2.3469805e-50
3.9964522e-54
1.5638786e-54
2.9031208e-55
2.8028404e-56
4.3267542e-58
6.0939805e-60
6.8339615e-62
5.520324e-64
4.106023e-66
4.2519663e-68
3.8675062e-70
2.2534611e-71
6.1656725e-71
4.3544787e-71
7.4901277e-72
2.4140645e-72
7.8584765e-73
3.3400535e-73
6.8480895e-74
5.9962723e-75
1.8804821e-76
2.7800563e-78
3.4569932e-80
3.71514e-82
3.6266886e-84
3.218011e-86
2.5658795e-88
1.8156484e-90
1.1327432e-92
5.9341131e-95
2.7624272e-97
2.133969e-99
5.2013226e-97
8.2672675e-95
1.2875384e-92
2.2438687e-90
3.3407701e-88
4.3695852e-86
5.1055011e-84
5.4317002e-82
5.3988345e-80
4.891965e-78
4.148351e-76
3.0120642e-74
1.0485911e-72
1.2445924e-71
6.16058e-71
1.4541437e-70
4.7951253e-70
1.4461235e-69
7.5097486e-69
9.1887801e-69
3.6188702e-69
1.6306452e-67
1.8221667e-65
1.7538445e-63
1.7283055e-61
2.2010948e-59
3.6062703e-57
8.2643125e-55
1.2935988e-52
8.9133214e-52
3.6270966e-51
1.1279091e-49
2.410866e-46
3.1088449e-46
1.4943838e-45
3.8917249e-44
1.0144353e-42
2.3614561e-41
4.8545153e-40
8.6953493e-39
1.3337148e-37
1.7231042e-36
1.8568026e-35
1.6516643e-34
1.161985e-33
5.8723513e-33
1.9430579e-32
4.3459849e-32
8.4737955e-32
1.4879482e-31
1.4916557e-31
8.5209373e-32
4.3379949e-32
1.8884818e-32
5.4078942e-33
8.9915405e-34
8.3276557e-35
4.3571243e-36
1.1925375e-37
1.6842807e-39
1.0241913e-41
2.884465e-44
4.2101865e-47
2.5152725e-49
1.0790723e-48
8.7487578e-48
1.7752767e-47
1.5104561e-47
4.7816783e-51
1.2871103e-51
1.93154e-52
1.6443919e-53
2.2623027e-55
2.9163178e-57
3.0606089e-59
2.3453605e-61
1.675146e-63
1.6793221e-65
1.4873668e-67
6.5003378e-69
1.6994476e-68
1.3432413e-68
2.635127e-69
8.268343e-70
2.6461673e-70
1.1353539e-70
2.3622932e-71
2.0839324e-72
6.5213227e-74
9.5792264e-76
1.1831624e-77
1.2639218e-79
1.2272533e-81
1.0837015e-83
8.6048679e-86
6.0765543e-88
3.7613464e-90
1.811377e-92
1.1164639e-94
6.4271488e-97
1.2105104e-94
2.2518184e-92
3.7145684e-90
5.5736418e-88
8.3505421e-86
1.0912144e-83
1.2768715e-81
1.3618388e-79
1.3578418e-77
1.2350495e-75
1.0517114e-73
7.6727318e-72
2.6790478e-70
3.1723912e-69
1.5598493e-68
3.6715006e-68
1.2296222e-67
3.7732729e-67
1.8129261e-66
2.0251017e-66
9.0997415e-67
4.6001702e-65
5.2745417e-63
5.2365691e-61
5.3770016e-59
7.2330435e-57
1.2762486e-54
3.201051e-52
5.5891739e-50
4.2294142e-49
2.15763e-48
1.0002983e-46
1.2043735e-43
1.5249193e-43
2.9378535e-43
5.2933906e-42
1.3254957e-40
2.9748957e-39
5.8852062e-38
1.0130329e-36
1.4919852e-35
1.8499407e-34
1.9136711e-33
1.6382666e-32
1.1188763e-31
5.5690785e-31
1.8382187e-30
4.0974572e-30
7.8551654e-30
1.3900807e-29
1.3936755e-29
7.8937967e-30
4.0830335e-30
1.7840673e-30
5.1239847e-31
8.691653e-32
8.4615065e-33
4.8503502e-34
1.5228398e-35
2.5235917e-37
1.9364914e-39
7.4233136e-42
2.3288891e-44
3.9054949e-46
1.3094964e-45
7.8404434e-45
1.253678e-44
6.0739617e-45
4.6127441e-48
8.3668236e-49
9.8538212e-50
7.3250158e-51
8.8925355e-53
1.044362e-54
1.0221565e-56
7.3975004e-59
5.0358127e-61
4.8771052e-63
4.1866161e-65
1.4960196e-66
3.7142792e-66
3.2041375e-66
6.8165602e-67
2.0958966e-67
6.6017899e-68
2.8378058e-68
5.9393061e-69
5.2503939e-70
1.6377907e-71
2.3930745e-73
2.940627e-75
3.1276767e-77
3.0258611e-79
2.6643926e-81
2.1149466e-83
1.4846003e-85
8.5725269e-88
5.4551712e-90
2.9874432e-92
1.4700409e-94
2.2682752e-92
4.6602288e-90
8.3873616e-88
1.0865945e-85
1.6265445e-83
2.1562241e-81
2.5223191e-79
2.6924288e-77
2.6905964e-75
2.4548429e-73
2.097945e-71
1.5370513e-69
5.3847262e-68
6.3768383e-67
3.1277706e-66
7.3697189e-66
2.5021591e-65
7.8333761e-65
3.5514979e-64
3.6821106e-64
1.8612957e-64
1.0212153e-62
1.203215e-60
1.2327506e-58
1.3199414e-56
1.8807835e-54
3.5584494e-52
7.8748691e-50
1.9062278e-47
1.5835783e-46
1.0191509e-45
6.9744393e-44
2.9044606e-41
8.0275282e-41
8.7976355e-41
6.2520472e-40
1.4501729e-38
3.1249894e-37
5.9258105e-36
9.7688933e-35
1.3767375e-33
1.6320362e-32
1.6138968e-31
1.3244237e-30
8.7459794e-30
4.2715062e-29
1.4016122e-28
3.1036041e-28
5.8406602e-28
1.0364577e-27
1.0392284e-27
5.8652593e-28
3.0869116e-28
1.3581015e-28
3.9238014e-29
6.8039627e-30
6.9717417e-31
4.3875909e-32
1.5790136e-33
3.0330905e-35
2.9202251e-37
1.4668662e-39
6.9614102e-42
2.5428788e-43
1.1965287e-42
5.4037593e-42
7.2433438e-42
1.8122056e-42
3.5293298e-45
4.3386809e-46
3.9619083e-47
2.5876277e-48
2.7691172e-50
2.9625703e-52
2.7009174e-54
1.8410875e-56
1.1960593e-58
1.1181958e-60
9.2900682e-63
2.8517025e-64
6.7148163e-64
6.2104167e-64
1.395129e-64
4.2184733e-65
1.3095658e-65
5.6183958e-66
1.1778185e-66
1.0404924e-67
3.2336519e-69
4.702472e-71
5.7531391e-73
6.097595e-75
5.8852859e-77
5.1810791e-79
4.0813001e-81
2.6317875e-83
1.7123665e-85
1.2104869e-87
6.0761772e-90
2.7076629e-92
3.5545716e-90
7.8263706e-88
1.4832059e-85
2.0992612e-83
2.3511822e-81
3.4421457e-79
4.1198134e-77
4.4055835e-75
4.4047816e-73
4.0283891e-71
3.4536608e-69
2.540269e-67
8.9303276e-66
1.0589638e-64
5.193087e-64
1.2275858e-63
4.215785e-63
1.5069754e-62
5.8554468e-62
5.669821e-62
3.2043205e-62
1.8621536e-60
2.2563781e-58
2.3839783e-56
2.6591239e-54
3.9752425e-52
6.9522034e-50
1.3919048e-47
4.1690641e-45
4.7427063e-44
3.8774143e-43
3.9194804e-41
1.5168293e-39
4.0324823e-38
3.0174381e-38
7.2786976e-38
1.3585795e-36
2.7945355e-35
5.0577206e-34
7.9505802e-33
1.0678144e-31
1.2056868e-30
1.134671e-29
8.8823213e-29
5.6458372e-28
2.6959863e-27
8.7695407e-27
1.9248626e-26
3.5515857e-26
6.2954863e-26
6.3131831e-26
3.5640241e-26
1.9106943e-26
8.4805999e-27
2.4693014e-27
4.384064e-28
4.7382035e-29
3.2811223e-30
1.3464514e-31
2.9532546e-33
3.4344151e-35
2.3071709e-37
1.592961e-39
1.3790584e-40
8.8354734e-40
2.9154324e-39
3.2471438e-39
4.859806e-40
2.1304275e-42
1.8116994e-43
1.2758373e-44
7.4415112e-46
7.0431611e-48
6.8906643e-50
5.7179924e-52
3.5900201e-54
2.3346399e-56
2.1064987e-58
1.6939816e-60
4.6308261e-62
1.0309544e-61
1.0121102e-61
2.4238448e-62
7.0373358e-63
2.1556404e-63
9.2093573e-64
1.9294328e-64
1.701106e-65
5.2659422e-67
7.6241062e-69
9.2919026e-71
9.8290078e-73
9.4703946e-75
8.2258813e-77
5.8451535e-79
3.8569312e-81
3.2518153e-83
2.1042694e-85
1.0029729e-87
4.1712989e-90
4.7850985e-88
1.1091413e-85
2.1757858e-83
3.2440462e-81
3.8906216e-79
4.2607725e-77
5.520973e-75
6.1303109e-73
6.1594207e-71
5.634173e-69
4.8423872e-67
3.5745052e-65
1.2610205e-63
1.4982241e-62
7.3559983e-62
1.7439134e-61
6.0630857e-61
2.5660357e-60
8.3040993e-60
7.5413895e-60
4.724412e-60
2.819083e-58
3.497867e-56
3.8832226e-54
4.4968738e-52
6.3685023e-50
9.8984081e-48
2.0319225e-45
6.3879652e-43
1.1569167e-41
1.1997913e-40
1.8242787e-38
7.0264697e-38
1.4595056e-35
1.2140732e-35
1.1705855e-35
1.1146352e-34
2.1581321e-33
3.7119485e-32
5.5400371e-31
7.0590885e-30
7.5531507e-29
6.7303978e-28
4.9985961e-27
3.0421277e-26
1.4150505e-25
4.5525093e-25
9.8867115e-25
1.7859709e-24
3.1502353e-24
3.1596541e-24
1.7907869e-24
9.7917256e-25
4.3906579e-25
1.2900508e-25
2.3502439e-26
2.6875458e-27
2.0447815e-28
9.4532657e-30
2.3461703e-31
3.2892256e-33
3.0586411e-35
3.3525753e-37
8.8096676e-38
5.5370981e-37
1.2797713e-36
1.0901415e-36
1.1008676e-37
1.0156049e-39
6.1303989e-41
3.3153737e-42
1.7827832e-43
1.4980726e-45
1.3344423e-47
8.9300217e-50
5.3032726e-52
3.8152517e-54
3.2306259e-56
2.5695699e-58
6.5291762e-60
1.3710658e-59
1.4225053e-59
4.0187524e-60
1.0010826e-60
3.0259229e-61
1.2875684e-61
2.692169e-62
2.367434e-63
7.2997378e-65
1.0525328e-66
1.2803453e-68
1.3479227e-70
1.2666813e-72
9.9845974e-75
7.1650664e-77
6.4084745e-79
4.9404529e-81
3.0345776e-83
1.3971816e-85
5.5205248e-88
5.6448328e-86
1.3617346e-83
2.738582e-81
4.2280556e-79
5.3417286e-77
5.5990004e-75
6.01093e-73
7.0166434e-71
7.4374053e-69
6.8786271e-67
5.920633e-65
4.3795775e-63
1.5503351e-61
1.8460197e-60
9.0821945e-60
2.1766417e-59
7.6085718e-59
3.6586365e-58
1.0285524e-57
8.848632e-58
5.9587015e-58
3.5099614e-56
4.2749265e-54
5.2367689e-52
6.1832218e-50
7.6546985e-48
1.1891266e-45
2.4238382e-43
7.4032071e-41
2.3206597e-39
3.0422468e-38
6.008835e-36
2.2718843e-35
3.4936999e-33
5.4273883e-33
2.5587277e-33
8.6956877e-33
1.4570973e-31
2.3680818e-30
3.3394015e-29
4.0190578e-28
4.0552531e-27
3.4007295e-26
2.3790961e-25
1.3767884e-24
6.2059591e-24
1.9684353e-23
4.2146309e-23
7.424887e-23
1.2994967e-22
1.3036889e-22
7.4380405e-23
4.1628572e-23
1.8917756e-23
5.6214602e-24
1.0542259e-24
1.2821047e-25
1.073374e-26
5.5541183e-28
1.5550133e-29
2.658904e-31
3.5420046e-33
7.4125522e-35
5.1595683e-35
2.8280845e-34
5.0252739e-34
1.8006625e-34
1.2425796e-35
3.9150912e-37
1.6897773e-38
6.9660983e-40
3.5441013e-41
2.6790495e-43
2.0004729e-45
1.0764126e-47
6.1851381e-50
5.0341045e-52
3.9094505e-54
3.2514618e-56
8.1278116e-58
1.6009063e-57
1.748801e-57
5.780495e-58
1.2419186e-58
3.7298036e-59
1.5686035e-59
3.2704824e-60
2.8678094e-61
8.8087581e-63
1.2660765e-64
1.530859e-66
1.5363021e-68
1.3454639e-70
1.0764147e-72
9.8369512e-75
8.6514803e-77
6.3306777e-79
3.7549651e-81
1.6862256e-83
6.4025454e-86
5.9255486e-84
1.4761511e-81
3.025424e-79
4.7897369e-77
6.2659244e-75
6.9243359e-73
6.4662897e-71
6.8199437e-69
7.3016638e-67
7.3315867e-65
6.398743e-63
4.7523001e-61
1.6875824e-59
2.0139297e-58
9.9224367e-58
2.6365703e-57
8.4877344e-57
4.4722232e-56
1.1279714e-55
9.2787476e-56
6.5427308e-56
3.6822713e-54
4.2029233e-52
5.604069e-50
6.6430274e-48
7.8146695e-46
1.1969377e-43
2.2398584e-41
5.2956898e-39
3.8328164e-37
6.3621423e-36
1.1154242e-33
8.0524152e-33
5.3231908e-31
1.979713e-30
7.4277352e-31
8.1577443e-31
8.7174538e-30
1.3262089e-28
1.7584029e-27
1.9873477e-26
1.8800553e-25
1.4739694e-24
9.6264773e-24
5.242701e-23
2.2724758e-22
7.0769781e-22
1.4869308e-21
2.5409719e-21
4.4281043e-21
4.444158e-21
2.5426047e-21
1.4636436e-21
6.7692504e-22
2.0402765e-22
3.961235e-23
5.1724383e-24
4.7850721e-25
2.7625135e-26
8.7519351e-28
1.8872477e-29
3.9341451e-31
1.800488e-32
2.4713496e-32
1.1512114e-31
1.6896566e-31
1.6705672e-33
4.6528395e-34
1.2870704e-34
3.8132164e-36
1.174281e-37
4.5496156e-39
3.5303328e-41
2.2040709e-43
1.1149734e-45
6.2405803e-48
5.2677049e-50
3.8545201e-52
3.4761337e-54
9.0545776e-56
1.6580874e-55
1.9032527e-55
7.0868464e-56
1.3692135e-56
4.4422691e-57
1.690377e-57
3.5165288e-58
3.0747863e-59
9.4103215e-61
1.3494467e-62
1.528042e-64
1.4677942e-66
1.2930765e-68
1.2077014e-70
1.1961569e-72
9.9793006e-75
7.0509142e-77
4.078136e-79
1.7968871e-81
6.6076431e-84
5.6029032e-82
1.4334389e-79
2.982231e-77
4.8119779e-75
6.4556423e-73
7.3867123e-71
7.2803802e-69
6.2215503e-67
6.4426715e-65
6.4605423e-63
5.943105e-61
4.6345568e-59
1.6478474e-57
1.9707546e-56
9.7203783e-56
2.8929633e-55
8.4853608e-55
4.7862784e-54
1.1074989e-53
8.7430379e-54
6.4201598e-54
3.1663719e-52
3.6477443e-50
4.9698196e-48
5.948594e-46
6.8292e-44
9.8308686e-42
1.3225469e-39
2.8811895e-37
5.2053077e-35
1.1042012e-33
1.3128651e-31
2.3480189e-30
1.674894e-29
5.4388941e-28
2.5969163e-28
1.0238352e-28
4.8493788e-28
6.5698643e-27
8.133776e-26
8.5815303e-25
7.5624921e-24
5.5006644e-23
3.3209978e-22
1.6780615e-21
6.9366078e-21
2.1367195e-20
4.5027474e-20
7.6171257e-20
1.3292009e-19
1.3343883e-19
7.6113053e-20
4.4152864e-20
2.0328068e-20
6.1526641e-21
1.244556e-21
1.7703977e-22
1.8219287e-23
1.1727479e-24
4.2592928e-26
1.2256923e-27
4.174862e-29
3.9797086e-30
1.0084386e-29
3.918027e-29
5.3293146e-29
6.2439344e-32
8.7862546e-32
2.9579951e-32
7.081321e-34
1.5671381e-35
4.4427087e-37
3.4635828e-39
2.0563912e-41
9.8636559e-44
5.4379627e-46
4.6821956e-48
3.3546356e-50
3.2643516e-52
9.1161275e-54
1.536455e-53
1.8536984e-53
7.5751616e-54
1.3522363e-54
4.797283e-55
1.6328156e-55
3.3901186e-56
2.9562174e-57
9.0236705e-59
1.261088e-60
1.3253482e-62
1.2744797e-64
1.2140396e-66
1.3373027e-68
1.2550192e-70
1.0109635e-72
6.9643554e-75
3.9519317e-77
1.7153171e-79
6.1425543e-82
4.8196083e-80
1.2612309e-77
2.6563308e-75
4.3502803e-73
5.9494175e-71
6.9806848e-69
7.1242139e-67
6.3862094e-65
5.3307874e-63
5.2233634e-61
4.7971515e-59
4.0717973e-57
1.4586729e-55
1.747923e-54
8.6952006e-54
2.8085559e-53
7.6651097e-53
4.5633884e-52
9.8266264e-52
7.4640491e-52
5.6778516e-52
2.4199072e-50
2.797236e-48
3.8894734e-46
4.6583854e-44
5.0206928e-42
5.8787393e-40
6.6338361e-38
2.2263542e-35
5.7875354e-33
1.601177e-31
8.9969828e-30
5.0456886e-28
6.6120727e-28
1.208067e-25
7.723014e-26
1.6198336e-26
2.8758557e-26
2.9230706e-25
3.3446581e-24
3.2711913e-23
2.662967e-22
1.7796186e-21
9.8591417e-21
4.595556e-20
1.8104925e-19
5.7135088e-19
1.3333648e-18
2.4501929e-18
4.0482818e-18
4.0548456e-18
2.4450819e-18
1.3065719e-18
5.4164305e-19
1.5840674e-19
3.3348202e-20
5.1901012e-21
5.9509644e-22
4.2923011e-23
1.8464401e-24
7.5903158e-26
4.2327395e-27
9.2873597e-28
3.3576503e-27
1.0613757e-26
1.3178707e-26
2.0210245e-29
1.5099463e-29
5.4735617e-30
1.088282e-31
1.5943726e-33
3.0870037e-35
2.854797e-37
1.6201246e-39
7.3084272e-42
4.0530239e-44
3.6647516e-46
2.5788555e-48
2.515069e-50
8.2275387e-52
1.2893685e-51
1.6305696e-51
7.1927169e-52
1.2058745e-52
4.5848211e-53
1.4383875e-53
2.9609075e-54
2.5756532e-55
7.8418437e-57
1.0006539e-58
1.0541896e-60
1.0422231e-62
1.2350866e-64
1.2873534e-66
1.1664092e-68
9.1610527e-71
6.1900885e-73
3.460523e-75
1.4836911e-77
5.1947273e-80
3.8027826e-78
1.0149006e-75
2.159273e-73
3.5792059e-71
4.9698173e-69
5.9435198e-67
6.2201316e-65
5.77515e-63
4.8466808e-61
3.9564505e-59
3.5803212e-57
3.0921713e-55
1.1806907e-53
1.4168713e-52
7.5831225e-52
2.4526567e-51
6.3105529e-51
3.9253347e-50
7.9408483e-50
5.814714e-50
4.5584031e-50
1.6421681e-48
1.8878562e-46
2.677003e-44
3.166738e-42
2.9138767e-40
2.5935861e-38
4.8754858e-36
1.9458616e-33
5.2189326e-31
1.9631792e-29
3.4842883e-28
8.1839479e-26
1.2504251e-25
2.0682907e-23
1.6795796e-23
3.6638056e-24
2.3444953e-24
1.204829e-23
1.2368319e-22
1.1128237e-21
8.3025488e-21
5.0552076e-20
2.5717614e-19
1.1366996e-18
4.2982876e-18
1.3730611e-17
3.4992248e-17
6.8541143e-17
9.9660087e-17
9.9375297e-17
6.8267644e-17
3.4357362e-17
1.2983222e-17
3.7144818e-18
8.1379367e-19
1.3410523e-19
1.6998042e-20
1.3972408e-21
7.5690632e-23
4.7151498e-24
4.4683804e-25
2.3287224e-25
9.6762432e-25
2.2273145e-24
2.430294e-24
7.6210054e-27
2.1139721e-27
8.2790956e-28
1.3936008e-29
1.4475104e-31
1.3110176e-33
1.8903909e-35
1.0194843e-37
4.2063898e-40
2.4524242e-42
2.5136849e-44
1.7447579e-46
1.728404e-48
6.6092672e-50
9.9205709e-50
1.3052837e-49
6.1479015e-50
9.7926786e-51
3.9392068e-51
1.227992e-51
2.3623378e-52
2.0512498e-53
6.0827201e-55
7.3448245e-57
7.8933788e-59
9.5972544e-61
1.098804e-62
1.1055388e-64
9.765895e-67
7.5243831e-69
5.0071032e-71
2.7654365e-73
1.1736968e-75
4.0296284e-78
2.7715391e-76
7.526717e-74
1.615144e-71
2.704727e-69
3.8016125e-67
4.6149341e-65
4.9224352e-63
4.6870441e-61
4.0772611e-59
3.132347e-57
2.5044613e-55
2.1414503e-53
8.8061594e-52
1.0581217e-50
6.2183027e-50
1.9432299e-49
4.7695152e-49
3.0764024e-48
5.8834578e-48
4.1639148e-48
3.3413037e-48
9.7873407e-47
1.0985434e-44
1.5945796e-42
1.8070818e-40
1.3062482e-38
1.6786702e-36
4.0070216e-34
1.7042156e-31
4.0326156e-29
2.0336416e-27
2.9992898e-26
1.0536922e-23
2.5228154e-23
2.7849589e-21
2.6893989e-21
8.5966554e-22
2.0563546e-22
5.1197071e-22
4.2065595e-21
3.4614808e-20
2.3854938e-19
1.322462e-18
6.0124446e-18
2.4406923e-17
8.3344055e-17
2.3108991e-16
5.1398794e-16
9.2536735e-16
1.2436136e-15
1.2415186e-15
9.1625994e-16
5.0208433e-16
2.1569173e-16
7.058759e-17
1.7144023e-17
3.0964233e-18
4.5150433e-19
4.4079886e-20
3.1970313e-21
2.9758312e-22
5.3356596e-23
5.2984851e-23
2.1576092e-22
3.7588674e-22
3.3780046e-22
2.1739108e-24
2.2639421e-25
1.0362174e-25
1.4992649e-27
1.4052624e-29
7.3952603e-32
8.9383897e-34
4.5261532e-36
1.8086355e-38
1.0884077e-40
1.4819977e-42
1.0209867e-44
1.0563352e-46
4.8236495e-48
7.0194406e-48
9.5711405e-48
4.7788213e-48
7.2943267e-49
3.0709176e-49
9.9140017e-50
1.7354631e-50
1.504359e-51
4.1365158e-53
5.0328139e-55
6.344377e-57
7.9410989e-59
8.7718986e-61
8.6042885e-63
7.4562673e-65
5.6589751e-67
3.7198889e-69
2.0335872e-71
8.556978e-74
2.8873089e-76
1.8771213e-74
5.1782024e-72
1.1194325e-69
1.8910466e-67
2.6846275e-65
3.2983846e-63
3.5709161e-61
3.465597e-59
3.0919144e-57
2.464711e-55
1.7764549e-53
1.3843609e-51
6.0914758e-50
7.3243223e-49
4.6515862e-48
1.4077733e-47
3.326281e-47
2.2143664e-46
4.0201718e-46
2.7622558e-46
2.2357291e-46
4.9841468e-45
5.3055621e-43
7.9013315e-41
8.1743331e-39
7.6192483e-37
1.2080702e-34
3.1926908e-32
1.3733974e-29
3.2464475e-27
1.800783e-25
2.4049435e-24
1.087068e-21
4.4345286e-21
3.0711662e-19
3.3110819e-19
1.4011696e-19
2.2677208e-20
2.6894536e-20
1.3923231e-19
1.0581145e-18
6.6659176e-18
3.2576118e-17
1.2101818e-16
3.7923143e-16
1.0175858e-15
2.3258828e-15
4.3187836e-15
6.7762671e-15
9.3251315e-15
9.139638e-15
6.9231062e-15
4.177682e-15
2.1137874e-15
8.3021031e-16
2.5041011e-16
6.042614e-17
1.1538546e-17
1.4766364e-18
1.5517599e-19
1.9485236e-20
6.4049954e-21
1.0587473e-20
3.4671421e-20
5.0696016e-20
3.7694862e-20
4.7024063e-22
2.5084711e-23
9.985135e-24
1.3696568e-25
1.2911167e-27
5.2484874e-30
4.0159386e-32
2.2449847e-34
1.0160313e-36
5.8300604e-39
7.173915e-41
4.9728723e-43
5.6469758e-45
3.2271984e-46
4.5837868e-46
6.4651533e-46
3.4057255e-46
5.0096139e-47
2.1878768e-47
7.2907846e-48
1.1811867e-48
1.0227816e-49
2.626722e-51
3.41897e-53
4.9097412e-55
5.9236674e-57
6.37874e-59
6.1380663e-61
5.2398793e-63
3.9290508e-65
2.5568817e-67
1.3855977e-69
5.7872369e-72
1.9225098e-74
1.1876838e-72
3.3234032e-70
7.2312311e-68
1.2306832e-65
1.7620862e-63
2.186318e-61
2.3952754e-59
2.3593442e-57
2.1454304e-55
1.754386e-53
1.3131753e-51
8.5983646e-50
3.9299259e-48
4.7290079e-47
3.1994544e-46
9.3975379e-46
2.1747831e-45
1.4739409e-44
2.5468318e-44
1.7022436e-44
1.3982627e-44
2.703258e-43
2.8985277e-41
3.817659e-39
4.438526e-37
5.0410746e-35
8.9719333e-33
2.3819126e-30
1.0250006e-27
2.6074773e-25
1.3775552e-23
1.6559288e-22
9.5381421e-20
6.7767341e-19
2.9798705e-17
3.2562025e-17
1.5759142e-17
2.8432432e-18
1.6926919e-18
5.0007153e-18
3.2249724e-17
1.609632e-16
6.1491046e-16
1.8096476e-15
3.9698504e-15
8.5317835e-15
1.3654595e-14
1.7616115e-14
2.6282685e-14
3.3591808e-14
3.5820373e-14
2.5238579e-14
1.69166e-14
1.216863e-14
5.9209847e-15
2.334897e-15
8.4131744e-16
2.0802805e-16
3.8665377e-17
6.8015928e-18
1.3055148e-18
6.9820907e-19
1.5825232e-18
4.0865393e-18
5.5413192e-18
3.8757082e-18
7.7408855e-20
2.6552427e-21
5.9116427e-22
1.0735495e-23
1.0505347e-25
3.9063957e-28
2.5086626e-30
1.4168396e-32
6.6786218e-35
3.6212161e-37
3.316801e-39
2.4114984e-41
2.7502766e-43
1.9813535e-44
2.7763561e-44
4.0432854e-44
2.2407834e-44
3.2176608e-45
1.4353545e-45
4.9272683e-46
7.4902371e-47
6.4826558e-48
1.5928368e-49
2.486275e-51
3.4370439e-53
4.0425332e-55
4.2703888e-57
4.0484722e-59
3.4148693e-61
2.5354305e-63
1.6358902e-65
8.7991182e-68
3.6512917e-70
1.1958521e-72
7.0527616e-71
1.9996613e-68
4.3757743e-66
7.4959996e-64
1.0810519e-61
1.3522991e-59
1.4958897e-57
1.4909866e-55
1.3759482e-53
1.1468143e-51
8.8076944e-50
5.79334e-48
2.3746952e-46
2.9192237e-45
2.0360797e-44
5.8140284e-44
1.3993088e-43
9.1297622e-43
1.5029118e-42
9.7510514e-43
1.0696556e-42
2.1102849e-41
1.9742508e-39
2.4033933e-37
2.7390182e-35
3.3789412e-33
6.2220087e-31
1.6695612e-28
7.1308617e-26
1.8948576e-23
9.1789241e-22
9.8309135e-21
7.6971906e-18
9.054815e-17
2.3308913e-15
2.4932236e-15
1.2604002e-15
2.7769975e-16
1.0616478e-16
1.9061019e-16
7.5668766e-16
2.6316745e-15
7.1431578e-15
2.0442978e-14
4.4267659e-14
5.218039e-14
7.9981822e-14
1.8494291e-13
9.2699034e-14
1.0991138e-13
9.3946279e-14
8.5872377e-14
1.1520762e-13
6.0033457e-14
5.2417108e-14
3.9850838e-14
9.7100551e-15
2.0822183e-15
4.9685285e-16
1.6902157e-16
7.0996339e-17
6.0705317e-17
1.6624696e-16
3.6199412e-16
4.9319327e-16
3.828498e-16
1.0238057e-17
2.3858866e-19
2.6921193e-20
7.0754371e-22
7.5555041e-24
2.7326944e-26
1.6782701e-28
9.3862444e-31
4.4762437e-33
2.3424819e-35
1.9070852e-37
1.4377333e-39
1.635113e-41
1.2193682e-42
1.5653756e-42
2.351662e-42
1.3695358e-42
2.018685e-43
8.7199959e-44
3.0777381e-44
4.5324613e-45
3.8461152e-46
1.0185965e-47
1.6389423e-49
2.2092449e-51
2.5494403e-53
2.6534959e-55
2.4859777e-57
2.0766569e-59
1.5292934e-61
9.7955606e-64
5.2343869e-66
2.1596393e-68
6.9812148e-71
3.9470133e-69
1.1329847e-66
2.4921649e-64
4.2932628e-62
6.2293194e-60
7.8458752e-58
8.7478044e-56
8.8024133e-54
8.2186323e-52
6.9517861e-50
5.4431955e-48
3.6659791e-46
1.3522554e-44
1.7742314e-43
1.205727e-42
3.3544936e-42
8.4543881e-42
5.2815825e-41
8.2969233e-41
5.2603526e-41
1.224062e-40
9.0213486e-39
8.4677169e-37
6.5249749e-35
2.9184155e-33
3.0104502e-31
5.1941193e-29
1.0979342e-26
4.5752106e-24
2.7674595e-21
5.5762661e-20
5.0557493e-19
4.6914335e-16
5.1700283e-15
7.9873214e-14
1.1296612e-13
6.4238234e-14
1.76938e-14
4.6592587e-15
5.6615733e-15
1.1761419e-14
2.8108699e-14
1.0508942e-13
3.7925321e-13
7.0355751e-13
9.9376567e-13
1.8871654e-12
2.0013549e-12
1.6369266e-12
5.2580748e-13
4.5851044e-13
1.0098083e-12
1.1331344e-12
6.6312272e-13
5.7963827e-13
6.0381221e-13
4.1410606e-13
1.1673571e-13
1.3576411e-14
3.2108374e-15
2.5044767e-15
3.9644565e-15
1.1376677e-14
2.0446436e-14
2.6790828e-14
1.9353889e-14
9.7679258e-16
1.8546199e-17
1.1326609e-18
4.0792919e-20
5.3069286e-22
1.7689005e-24
1.1097741e-26
7.056961e-29
3.7614275e-31
2.0798708e-33
2.2787591e-35
2.7031494e-37
3.4706704e-39
9.392868e-41
8.2137065e-41
1.2772316e-40
7.8051792e-41
1.1968295e-41
4.9351459e-42
1.7880046e-42
2.7159212e-43
2.1508273e-44
6.3320455e-46
9.9524373e-48
1.31659e-49
1.4972816e-51
1.5402549e-53
1.4293846e-55
1.1845742e-57
8.6636889e-60
5.5153602e-62
2.9306251e-64
1.2028117e-66
3.8408312e-69
2.0895944e-67
6.0684701e-65
1.3409579e-62
2.3217938e-60
3.3863754e-58
4.2894768e-56
4.8134253e-54
4.8809096e-52
4.5997362e-50
3.9362141e-48
3.1286422e-46
2.143996e-44
7.4743493e-43
1.0172288e-41
6.6731154e-41
1.8134419e-40
4.7498743e-40
2.8649776e-39
4.3014959e-39
2.6714943e-39
9.7094808e-39
1.0202957e-36
1.3221595e-34
1.7268594e-32
2.4385359e-30
4.4251476e-28
8.1674096e-26
1.394533e-24
3.0825579e-22
1.9882591e-18
3.4470613e-18
2.2516523e-17
1.0774327e-14
2.652825e-13
1.6506761e-12
2.9130575e-12
1.7580505e-12
5.7403313e-13
2.0581865e-13
1.2293752e-13
1.1666078e-12
3.9455528e-13
1.5170677e-13
2.2059861e-13
7.3371715e-13
2.1746465e-12
2.5867748e-12
2.1417582e-12
1.8666785e-12
1.1533619e-12
1.2338454e-12
1.702102e-12
1.7015308e-12
1.4853567e-12
8.8380139e-13
6.0372051e-13
2.5725628e-13
7.2741617e-14
8.9071591e-14
2.6739189e-13
7.7521235e-14
1.7111077e-13
3.8495341e-13
5.7617529e-13
6.471047e-13
3.4270091e-13
5.0195246e-14
1.1415642e-15
4.8626534e-17
4.0973689e-18
5.5240498e-19
1.2084267e-22
1.4352011e-24
7.5155257e-26
5.4542285e-28
2.5785432e-30
1.2923317e-32
8.0863448e-35
5.4397902e-37
6.7560184e-39
4.0722535e-39
6.5011226e-39
4.1634795e-39
6.591147e-40
2.6143826e-40
9.6991775e-41
1.5269929e-41
1.1699436e-42
3.634772e-44
5.6196276e-46
7.3277501e-48
8.2389065e-50
8.396889e-52
7.7331267e-54
6.3672932e-56
4.6303946e-58
2.9322017e-60
1.5501239e-62
6.3326807e-65
1.9988737e-67
1.0501094e-65
3.0838764e-63
6.8433906e-61
1.1900843e-58
1.7434236e-56
2.218626e-54
2.5026354e-52
2.5534859e-50
2.4242035e-48
2.0937545e-46
1.6841194e-44
1.1696032e-42
4.0783145e-41
5.4595626e-40
3.4660369e-39
9.219316e-39
2.4964564e-38
1.4627703e-37
2.1013604e-37
1.2825424e-37
6.5560936e-37
7.7346173e-35
1.0442971e-32
1.4001258e-30
2.083954e-28
4.2017191e-26
1.0218788e-23
2.7284132e-21
5.0113828e-19
1.3304496e-16
1.0016957e-16
8.1103684e-16
3.4789784e-13
1.019853e-11
4.7544624e-11
1.043926e-10
5.8339916e-11
1.6225899e-11
7.0415359e-12
1.5691188e-12
7.1626623e-13
4.5706958e-14
4.4410664e-14
4.1411564e-14
1.044804e-15
-4.2187666e-12
-2.166289e-11
-3.989508e-11
-3.1620641e-11
-6.1485717e-12
6.6138524e-13
-9.548108e-12
-1.2931627e-11
-6.8725807e-12
-1.1871909e-12
1.5456354e-15
8.5461689e-15
1.0538267e-14
1.0517535e-14
3.7826019e-13
2.2530459e-12
4.8949148e-12
8.2305095e-12
1.4518703e-11
1.837388e-11
1.0336222e-11
1.9287582e-12
5.1327171e-14
1.3878276e-15
2.3492861e-16
1.2656642e-16
1.0826224e-19
1.5698675e-21
1.1233846e-23
5.9947018e-26
2.5043389e-28
1.0956539e-30
6.6004079e-33
4.2638606e-35
4.2354262e-37
1.90205e-37
3.1107704e-37
2.0864533e-37
3.39187e-38
1.3009496e-38
4.9335335e-39
8.0340826e-40
6.2665999e-41
1.945582e-42
2.9710719e-44
3.8310044e-46
4.2690637e-48
4.3189531e-50
3.9533169e-52
3.2379834e-54
2.3437467e-56
1.4774795e-58
7.7762375e-61
3.1630879e-63
9.8741312e-66
5.0253694e-64
1.4918115e-61
3.3230355e-59
5.8010143e-57
8.5301319e-55
1.0896029e-52
1.2341443e-50
1.2653492e-48
1.2082577e-46
1.0512035e-44
8.5363398e-43
5.9908494e-41
2.0890011e-39
2.7527387e-38
1.6956148e-37
4.4210718e-37
1.2330596e-36
7.0515424e-36
9.6995162e-36
5.8292645e-36
4.0208292e-35
4.9713554e-33
6.6008314e-31
8.6542284e-29
1.2238436e-26
2.3568824e-24
6.1007851e-22
2.762184e-19
2.6389121e-16
1.2251564e-15
8.4787736e-16
1.9701552e-14
1.1975456e-11
1.0355083e-09
1.020262e-09
3.0840019e-09
1.7448839e-09
6.068214e-10
1.2376791e-10
4.9262809e-12
1.6351492e-13
7.4376561e-15
-5.1456351e-11
-1.2576371e-12
-1.4273686e-11
-2.3621683e-14
-1.7547384e-13
-7.0276793e-11
-9.5331971e-11
7.6322682e-10
7.1265858e-12
-3.5546402e-11
-2.8955257e-11
-6.8632976e-13
-7.9850231e-15
-3.4556653e-14
-1.7886168e-13
-2.7232652e-11
-1.0279729e-11
2.7825323e-13
2.0933155e-11
1.4503205e-10
3.0207519e-10
4.4510199e-10
5.3827331e-10
2.9657029e-10
6.1519493e-11
2.1234375e-12
4.2001861e-14
1.5500303e-15
2.2878043e-15
2.5948863e-17
1.0778351e-19
6.5613451e-22
3.4522332e-24
1.5004728e-26
6.6444936e-29
4.2206794e-31
2.8503871e-33
2.6274249e-35
8.4105229e-36
1.4028428e-35
9.8524526e-36
1.638208e-36
6.099022e-37
2.361172e-37
3.9654312e-38
3.1464184e-39
9.7748424e-41
1.4788499e-42
1.8903786e-44
2.0920392e-46
2.1042992e-48
1.9170068e-50
1.5635877e-52
1.1274592e-54
7.0797243e-57
3.7115922e-59
1.5038033e-61
4.6444961e-64
2.297012e-62
6.8909549e-60
1.5402319e-57
2.6977238e-55
3.9788918e-53
5.0973556e-51
5.7914136e-49
5.9598141e-47