/*--------------------------------*- C++ -*----------------------------------*\
  =========                 |
  \\      /  F ield         | OpenFOAM: The Open Source CFD Toolbox
   \\    /   O peration     | Website:  https://openfoam.org
    \\  /    A nd           | Version:  9
     \\/     M anipulation  |
\*---------------------------------------------------------------------------*/
FoamFile
{
    format      ascii;
    class       surfaceScalarField;
    location    "0.23";
    object      alphaPhi0.phase1;
}
// * * * * * * * * * * * * * * * * * * * * * * * * * * * * * * * * * * * * * //

dimensions      [0 3 -1 0 0 0 0];

internalField   nonuniform List<scalar> 
19800
(
3.7554574e-106
-6.5579216e-105
4.0560424e-105
-1.0561339e-104
1.1177985e-102
-6.3236232e-103
2.4158354e-100
-1.0515003e-100
4.3096007e-98
-1.5077501e-98
6.6539667e-96
-1.9297332e-96
9.0652542e-94
-2.227723e-94
1.1113451e-91
-2.35749e-92
1.2537752e-89
-2.336512e-90
1.3022696e-87
-2.1429769e-88
1.2439874e-85
-1.831684e-86
1.0676783e-83
-1.3918306e-84
6.4540113e-82
-6.5073904e-83
1.9340439e-80
-1.5254132e-81
2.0771404e-79
-1.5301192e-80
9.1796656e-79
-6.9462749e-80
2.4634144e-78
-1.8199574e-79
8.385406e-78
-5.776225e-79
2.2618042e-77
-1.7192563e-78
2.8526237e-77
-2.5667719e-78
3.0252616e-77
-5.3553046e-78
6.1556887e-77
-5.2572394e-78
6.5588295e-75
-3.9441412e-76
6.6434031e-73
-3.5280438e-74
6.0364014e-71
-2.8998452e-72
5.6601977e-69
-2.5561904e-70
6.4969414e-67
-2.717638e-68
9.2573546e-65
-3.5528603e-66
1.5615273e-62
-4.6175846e-64
6.1217767e-60
-1.107506e-61
1.1091082e-58
-2.0561856e-60
2.088953e-58
-2.51026e-60
6.0264127e-57
-2.7001692e-59
1.8186214e-56
5.4569215e-59
4.3465938e-55
4.1587959e-57
1.3541032e-53
2.2954263e-55
3.7731878e-52
9.5671901e-54
9.3682568e-51
3.2832063e-52
2.0492652e-49
9.5068033e-51
3.8805221e-48
2.321518e-49
6.2044696e-47
4.7207451e-48
8.2159195e-46
7.9042579e-47
8.9884827e-45
1.0933845e-45
8.0477327e-44
1.2494398e-44
5.5885821e-43
1.1321748e-43
2.8555423e-42
7.8034611e-43
1.0778415e-41
4.1859787e-42
2.8968287e-41
1.7806251e-41
4.5335506e-41
5.6850472e-41
1.0470226e-41
1.3067344e-40
-3.2213592e-41
1.3091748e-40
-2.4128877e-41
5.7268054e-41
-9.1688073e-42
1.7615516e-41
-2.2829439e-42
3.9837659e-42
-3.7848948e-43
6.7492496e-43
-3.6472342e-44
8.0912087e-44
-1.7221468e-45
5.8427461e-45
-3.5388358e-47
2.1286449e-46
-2.9286019e-49
3.446794e-48
-1.5379396e-51
2.2706512e-50
-1.6077222e-54
9.4631791e-53
-1.1835447e-57
7.7566597e-56
-4.9795253e-61
4.3863001e-59
-6.7336676e-61
2.7316201e-62
-1.2720516e-60
2.3355053e-62
-3.1749871e-59
1.6024021e-61
-1.3053298e-58
5.9882758e-61
-1.3369622e-58
-4.9522328e-61
-3.9547436e-59
-1.7704675e-60
-2.1684771e-60
-5.2555188e-61
-4.8286039e-63
-3.6349824e-62
-6.3584761e-65
-1.1154728e-64
-7.7869661e-67
-1.8599536e-66
-7.1571754e-69
-2.8012221e-68
-5.9677048e-71
-3.1545231e-70
-6.0301936e-73
-2.9891231e-72
-5.8884135e-75
-3.1458334e-74
-7.7320866e-77
-3.4887467e-76
-5.4186014e-77
-3.7661466e-77
-5.1691435e-77
-1.2680708e-77
-4.1024463e-77
-4.6240318e-78
-1.4899303e-77
-3.0968723e-78
-4.6830154e-78
-1.0297195e-78
-1.7524255e-78
-3.4661596e-79
-4.0933827e-79
-1.3258125e-79
-4.0029097e-80
-3.0267439e-80
-1.4424888e-81
-3.1491082e-81
-2.5477544e-83
-1.4341629e-82
-3.1273122e-85
-3.2899286e-84
-3.2753158e-87
-4.58322e-86
-3.0465966e-89
-5.4478403e-88
-2.5717753e-91
-5.7362218e-90
-1.9584799e-93
-5.5349108e-92
-1.3295352e-95
-4.8853912e-94
-7.9671194e-98
-3.9095936e-96
-4.1310358e-100
-2.8200503e-98
-1.7495131e-102
-1.817465e-100
-5.7396682e-105
-1.0001188e-102
-4.8852264e-106
-1.4228068e-104
-8.4863853e-105
3.6380253e-105
-1.3027461e-104
2.2660041e-102
-2.6458548e-102
6.0646442e-100
-5.272682e-100
1.2236492e-97
-8.5044949e-98
2.0438905e-95
-1.183522e-95
2.9606184e-93
-1.4699796e-93
3.785184e-91
-1.6452901e-91
4.3726177e-89
-1.689928e-89
4.691202e-87
-1.6319595e-87
4.5824148e-85
-1.4488792e-85
4.1524118e-83
-1.2033509e-83
3.2138307e-81
-8.6528808e-82
1.1299104e-79
-2.9312966e-80
1.2536471e-78
-3.2921702e-79
5.6745996e-78
-1.5921551e-78
1.4336282e-77
-3.8365809e-78
4.5161004e-77
-1.0912103e-77
1.7791494e-76
-4.0082304e-77
3.8819809e-76
-1.2270108e-76
4.1691331e-76
-1.3027836e-76
2.1533881e-76
-6.0170048e-77
1.7714029e-74
-2.4573644e-75
1.7875884e-72
-2.3026442e-73
1.5917494e-70
-1.9052081e-71
1.3825822e-68
-1.524562e-69
1.4521851e-66
-1.4606438e-67
1.8758757e-64
-1.6965852e-65
3.1307563e-62
-2.5013418e-63
3.9005243e-60
-2.8411018e-61
2.4679057e-59
-1.3329661e-60
1.6761692e-58
-4.4731267e-60
7.7657076e-58
-1.6364603e-59
1.0343772e-54
-7.0330145e-57
5.6825692e-54
7.0905049e-56
1.4558261e-52
4.4986573e-54
4.3728913e-51
2.2840063e-52
1.1730062e-49
8.9791771e-51
2.7980974e-48
2.9223574e-49
5.8563043e-47
8.0207332e-48
1.05781e-45
1.8556558e-46
1.6146402e-44
3.5824247e-45
2.0404787e-43
5.698644e-44
2.1015619e-42
7.405721e-43
1.7243089e-41
7.7649776e-42
1.0484657e-40
6.2287535e-41
4.1104063e-40
3.42274e-40
9.3168489e-40
1.1733045e-39
1.3314329e-39
2.6746261e-39
1.3695154e-39
5.4435562e-39
2.6180088e-40
9.1981447e-39
-9.7696497e-40
9.2381494e-39
-1.1316423e-39
5.5135485e-39
-8.2074338e-40
2.7048086e-39
-3.5570614e-40
1.1579905e-39
-7.8038255e-41
3.2068895e-40
-8.2073704e-42
4.8664928e-41
-4.2412588e-43
3.7912628e-42
-9.9346055e-45
1.5145869e-43
-1.0852769e-46
2.8059874e-45
-4.9290132e-49
2.4491695e-47
-6.0887407e-52
8.8692704e-50
-2.6372905e-55
8.6590385e-53
-1.4214389e-58
2.9047357e-56
-1.7026708e-58
2.3461973e-59
-3.6122939e-57
7.8466428e-59
-4.1379841e-56
8.9781262e-58
-5.2603238e-56
1.6320485e-57
-2.3360376e-58
3.2259351e-59
-4.9817855e-59
-2.1658131e-60
-5.7583509e-60
-1.0973192e-60
-4.799186e-61
-2.4248849e-61
-9.3617781e-63
-3.1197891e-62
-1.5347099e-64
-7.0657011e-64
-1.8681295e-66
-1.3337444e-65
-1.6625142e-68
-1.8217881e-67
-1.4558024e-70
-1.7866173e-69
-1.595211e-72
-1.702416e-71
-1.5840464e-74
-2.0186176e-73
-3.4726312e-76
-2.1873995e-75
-7.769444e-76
-9.9262447e-77
-7.2433481e-76
-2.4260234e-76
-3.2623567e-76
-2.245603e-76
-8.1454944e-77
-7.2978273e-77
-2.7193772e-77
-1.968276e-77
-1.10568e-77
-7.3119064e-78
-2.4875654e-78
-3.0952193e-78
-2.3657469e-79
-6.5747866e-79
-7.375552e-81
-6.1536153e-80
-1.0165669e-82
-1.9876873e-81
-1.1592571e-84
-2.9465854e-83
-1.144164e-86
-3.6658527e-85
-1.0226868e-88
-3.9805165e-87
-8.2610792e-91
-3.9535158e-89
-5.9542804e-93
-3.5921487e-91
-3.7840536e-95
-2.9581179e-93
-2.0903312e-97
-2.1927885e-95
-9.4582882e-100
-1.4542735e-97
-3.1955724e-102
-8.2500796e-100
-4.7013476e-105
-3.7302744e-102
-1.6855467e-104
1.4132313e-102
-6.4450684e-102
9.094263e-100
-1.3841457e-99
2.4113128e-97
-2.6955912e-97
4.8571094e-95
-4.3527295e-95
8.1065162e-93
-6.0473751e-93
1.1740015e-90
-7.5042109e-91
1.5015339e-88
-8.3958362e-89
1.7364085e-86
-8.6259547e-87
1.8662349e-84
-8.33784e-85
1.8278798e-82
-7.4160628e-83
1.6619216e-80
-6.1741832e-81
1.2922596e-78
-4.4554056e-79
4.586839e-77
-1.5173315e-77
5.1239255e-76
-1.7091814e-76
2.3129098e-75
-8.2832584e-76
5.6528262e-75
-1.9694814e-75
1.8298199e-74
-5.6557345e-75
7.37435e-74
-2.1339847e-74
1.5595766e-73
-6.2655583e-74
1.5405715e-73
-6.1724394e-74
8.4080038e-74
-3.057916e-74
8.0065924e-72
-1.3973501e-72
8.2805677e-70
-1.3408713e-70
7.6436368e-68
-1.1479338e-68
6.930693e-66
-9.5692002e-67
7.6652844e-64
-9.6325216e-65
1.0563316e-61
-1.191128e-62
1.9112145e-59
-1.9046354e-60
2.7293544e-57
-2.4688523e-58
1.4182385e-56
-1.2036566e-57
3.880492e-56
-2.3272956e-57
8.1120989e-55
-2.3745953e-56
9.7384076e-52
-9.9025636e-54
2.2027076e-51
4.5091597e-53
3.2427864e-50
1.3540582e-51
9.465096e-49
6.4787601e-50
2.4761663e-47
2.4722558e-48
5.7417718e-46
7.7999593e-47
1.1657007e-44
2.0717418e-45
2.038804e-43
4.6322635e-44
3.0104963e-42
8.6382401e-43
3.6807463e-41
1.3277881e-41
3.6705141e-40
1.6684761e-40
2.9236209e-39
1.6959632e-39
1.7425352e-38
1.3308269e-38
6.8270824e-38
7.2830883e-38
1.5744348e-37
2.5366324e-37
2.2780534e-37
5.8974265e-37
2.3426904e-37
1.1992291e-36
4.5746462e-38
2.1035124e-36
-1.6741505e-37
2.1128748e-36
-1.9349941e-37
1.2138403e-36
-1.3866454e-37
5.9544803e-37
-5.9142974e-38
2.5023891e-37
-1.3064443e-38
6.8312855e-38
-1.4355264e-39
1.0479351e-38
-8.0897761e-41
8.5505009e-40
-2.1786698e-42
3.7297197e-41
-2.8476843e-44
7.9497656e-43
-1.5929579e-46
8.3076866e-45
-2.9340152e-49
3.7115407e-47
-2.3562631e-52
5.4153341e-50
-2.5779671e-55
3.3839467e-53
-3.4067341e-55
5.557173e-56
-6.1915388e-54
2.0633811e-55
-4.5251253e-53
1.5748641e-54
-5.0077051e-53
2.2686313e-54
-1.9966944e-56
2.0435903e-55
-9.9336944e-57
-5.4683403e-58
-2.989999e-57
-5.7805222e-58
-3.4707259e-58
-2.1036189e-58
-5.9984237e-60
-2.8252531e-59
-8.9004143e-62
-5.6213101e-61
-9.9909817e-64
-9.6175767e-63
-8.3645064e-66
-1.2148986e-64
-7.0235237e-68
-1.1240572e-66
-7.3970643e-70
-1.0295081e-68
-7.1614152e-72
-1.1756484e-70
-1.3614956e-73
-1.2409572e-72
-2.9586854e-73
-4.8617975e-74
-2.8604015e-73
-1.1482124e-73
-1.3406511e-73
-1.1368221e-73
-3.2541807e-74
-3.8448469e-74
-1.0582767e-74
-1.0074275e-74
-4.4147263e-75
-3.7048566e-75
-1.0097577e-75
-1.5844583e-75
-9.4748244e-77
-3.377972e-76
-2.922222e-78
-3.1404442e-77
-4.0069935e-80
-1.0084346e-78
-4.5495891e-82
-1.4888763e-80
-4.4757273e-84
-1.8459424e-82
-3.9912377e-86
-1.9995327e-84
-3.2191461e-88
-1.9829266e-86
-2.3185463e-90
-1.8002353e-88
-1.4736769e-92
-1.4823779e-90
-8.1472718e-95
-1.1000851e-92
-3.6904364e-97
-7.3199052e-95
-1.2576737e-99
-4.0995021e-97
-1.7928257e-102
-1.9152545e-99
-8.1848753e-102
3.8932259e-100
-2.1758311e-99
2.6662021e-97
-4.9535231e-97
6.9934294e-95
-9.6707368e-95
1.4035971e-92
-1.5396065e-92
2.336728e-90
-2.1339385e-90
3.3788682e-88
-2.6408003e-88
4.3186474e-86
-2.9511773e-86
4.9957714e-84
-3.0316329e-84
5.3764503e-82
-2.9327995e-82
5.2798806e-80
-2.61409e-80
4.8171098e-78
-2.1825723e-78
3.7654018e-76
-1.5822648e-76
1.3434403e-74
-5.4125175e-75
1.5063315e-73
-6.1128952e-74
6.8466532e-73
-2.9771922e-73
1.6871877e-72
-7.136023e-73
5.4908338e-72
-2.05514e-72
2.2697311e-71
-8.0226886e-72
4.5146508e-71
-2.2205014e-71
4.0520634e-71
-2.0513694e-71
2.5622396e-71
-1.1306771e-71
2.6429278e-69
-5.5663209e-70
2.8045722e-67
-5.4808414e-68
2.6906505e-65
-4.8713179e-66
2.5518388e-63
-4.2461866e-64
2.9705157e-61
-4.5005557e-62
4.364897e-59
-5.9518942e-60
8.5381697e-57
-1.0619453e-57
1.4467418e-54
-1.5635944e-55
9.2911409e-54
-9.1441742e-55
3.1604372e-53
-2.2193826e-54
9.5893674e-52
-3.4854262e-53
6.5450304e-49
-1.3380928e-50
7.9775566e-49
2.4252312e-50
5.7549026e-48
3.0325423e-49
1.6115499e-46
1.3191431e-47
4.1011775e-45
4.9092849e-46
9.2187084e-44
1.5051092e-44
1.8104146e-42
3.8728359e-43
3.0586446e-41
8.3724721e-42
4.3582931e-40
1.5073068e-40
5.1373784e-39
2.234132e-39
4.9411511e-38
2.7083334e-38
3.8079778e-37
2.6633212e-37
2.2160738e-36
2.0383907e-36
8.6114425e-36
1.1040174e-35
1.9954794e-35
3.859709e-35
2.8862926e-35
8.9995728e-35
2.9374425e-35
1.8048812e-34
5.7996451e-36
3.2170778e-34
-2.1016515e-35
3.2318973e-34
-2.4499317e-35
1.8260038e-34
-1.7566627e-35
9.0756775e-35
-7.4631172e-36
3.8062524e-35
-1.6714424e-36
1.0363309e-35
-1.9245707e-37
1.6159489e-36
-1.1840213e-38
1.383334e-37
-3.6674454e-40
6.5875497e-39
-5.6977446e-42
1.613944e-40
-3.7307246e-44
2.0027098e-42
-1.1123089e-46
1.0471522e-44
-1.6921565e-49
2.4725442e-47
-5.3768357e-52
2.9292519e-50
-7.3474643e-52
1.3921206e-52
-9.8466881e-51
4.3197703e-52
-3.8483927e-50
2.164963e-51
-3.7829739e-50
2.1561131e-51
-2.8615686e-53
9.2373538e-53
-9.4248277e-54
-8.8926531e-55
-2.0978527e-54
-6.0725975e-55
-1.9476307e-55
-1.7322083e-55
-2.8841615e-57
-1.8950562e-56
-3.834604e-59
-3.2513352e-58
-3.9306592e-61
-4.9858946e-60
-3.0824676e-63
-5.7593736e-62
-2.4859871e-65
-4.9950619e-64
-2.509571e-67
-4.3906491e-66
-2.3655423e-69
-4.811844e-68
-3.9201283e-71
-4.9373852e-70
-7.7036352e-71
-1.6997572e-71
-8.2165704e-71
-3.792509e-71
-4.0846071e-71
-3.994196e-71
-9.6736307e-72
-1.4302954e-71
-3.1244012e-72
-3.6261513e-72
-1.2912443e-72
-1.3274463e-72
-2.9294734e-73
-5.6255997e-73
-2.7366597e-74
-1.1919787e-73
-8.393855e-76
-1.1046245e-74
-1.1442243e-77
-3.5303267e-76
-1.2928082e-79
-5.1850624e-78
-1.267635e-81
-6.4007225e-80
-1.1281317e-83
-6.9140235e-82
-9.0904997e-86
-6.8458798e-84
-6.5483831e-88
-6.2119754e-86
-4.1684861e-90
-5.1206904e-88
-2.3094159e-92
-3.8183142e-90
-1.0446524e-94
-2.5171808e-92
-3.6229333e-97
-1.4504769e-94
-4.8518399e-100
-6.7334328e-97
-2.7137631e-99
8.3932265e-98
-5.5535905e-97
6.0288109e-95
-1.3228001e-94
1.6090547e-92
-2.6415081e-92
3.182311e-90
-4.0994499e-90
5.2797337e-88
-5.7201605e-88
7.6130824e-86
-7.0392834e-86
9.7144299e-84
-7.8427561e-84
1.1232872e-81
-8.049508e-82
1.2098564e-79
-7.7910911e-80
1.1909897e-77
-6.9586346e-78
1.0902503e-75
-5.8272056e-76
8.5704037e-74
-4.246473e-74
3.0749211e-72
-1.4599854e-72
3.4634289e-71
-1.6546098e-71
1.5902227e-70
-8.1223967e-71
3.9612663e-70
-1.9692434e-70
1.2916891e-69
-5.6716048e-70
5.5045155e-69
-2.2970108e-69
1.030798e-68
-6.0159012e-69
8.6368227e-69
-5.2682255e-69
6.2054787e-69
-3.220419e-69
6.821884e-67
-1.6855119e-67
7.4175822e-65
-1.7015009e-65
7.4011388e-63
-1.5729241e-63
7.3355692e-61
-1.4340473e-61
8.9566569e-59
-1.599453e-59
1.3963011e-56
-2.2900427e-57
2.9138769e-54
-4.1191453e-55
5.9659842e-52
-7.7944759e-53
4.8031669e-51
-5.4543668e-52
2.0309805e-50
-1.6753372e-51
8.9297545e-49
-4.0930206e-50
3.3024129e-46
-1.881415e-47
3.9317828e-46
1.1984254e-47
9.6582754e-46
6.6880093e-47
2.2472761e-44
2.0735607e-45
5.5503751e-43
7.5168907e-44
1.2060101e-41
2.2413756e-42
2.2848501e-40
5.5845298e-41
3.7185937e-39
1.1658029e-39
5.0993274e-38
2.0232758e-38
5.7803495e-37
2.8880189e-37
5.3472113e-36
3.370457e-36
3.9741868e-35
3.1980305e-35
2.2508962e-34
2.3814772e-34
8.6420504e-34
1.2727174e-33
2.0009456e-33
4.4454281e-33
2.8777431e-33
1.0342669e-32
2.8878191e-33
2.0411508e-32
5.7350161e-34
3.668087e-32
-2.0682403e-33
3.6855747e-32
-2.4408121e-33
2.0641199e-32
-1.7600829e-33
1.0416152e-32
-7.4870782e-34
4.3799484e-33
-1.7048118e-34
1.1943558e-33
-2.0575603e-35
1.8965978e-34
-1.3841768e-36
1.7030334e-35
-4.9126139e-38
8.8646718e-37
-8.9434449e-40
2.4848207e-38
-7.3755759e-42
3.6068016e-40
-2.9846456e-44
2.3716581e-42
-9.6831355e-47
7.5869432e-45
-8.5703436e-49
1.9211323e-47
-1.1320814e-48
2.5162066e-49
-1.1287596e-47
5.9968404e-49
-2.7942455e-47
2.2165422e-48
-2.0758333e-47
1.641508e-48
-3.2658405e-50
-4.7524972e-50
-6.9709744e-51
-1.2368305e-51
-1.1688339e-51
-5.1240935e-52
-8.5722125e-53
-1.1271013e-52
-1.0848426e-54
-9.829487e-54
-1.2901967e-56
-1.4443062e-55
-1.2026247e-58
-1.9761329e-57
-8.8287589e-61
-2.0789816e-59
-6.8741889e-63
-1.6888999e-61
-6.6459054e-65
-1.4251742e-63
-6.1099907e-67
-1.4957192e-65
-9.0638035e-69
-1.4941597e-67
-1.6183879e-68
-4.6253989e-69
-1.8646435e-68
-9.6894998e-69
-9.8062845e-69
-1.0745976e-68
-2.2549751e-69
-4.0616111e-69
-7.2587348e-70
-9.9157797e-70
-2.9644572e-70
-3.6235014e-70
-6.6501852e-71
-1.5166573e-70
-6.1779176e-72
-3.185016e-71
-1.8836343e-73
-2.9387227e-72
-2.5516328e-75
-9.3414771e-74
-2.8682105e-77
-1.3640096e-75
-2.8034941e-79
-1.6758066e-77
-2.4909373e-81
-1.8050606e-79
-2.0066982e-83
-1.7850114e-81
-1.4472169e-85
-1.6210546e-83
-9.2326727e-88
-1.3433491e-85
-5.1113822e-90
-9.9221186e-88
-2.378156e-92
-6.6044501e-90
-8.0484909e-95
-3.9047855e-92
-1.0276038e-97
-1.766411e-94
-6.8035038e-97
1.4842466e-95
-1.134203e-94
1.1071512e-92
-2.8011865e-92
3.022788e-90
-5.7150861e-90
5.9339238e-88
-8.9740884e-88
9.7913725e-86
-1.1988938e-85
1.4083911e-83
-1.5055182e-83
1.7926229e-81
-1.6717985e-81
2.07034e-79
-1.7106517e-79
2.2304941e-77
-1.6551744e-77
2.2003474e-75
-1.4811327e-75
2.0206446e-73
-1.2439231e-73
1.5978521e-71
-9.1156063e-72
5.7666643e-70
-3.1512463e-70
6.5283648e-69
-3.58537e-69
3.0354586e-68
-1.7779531e-68
7.6572334e-68
-4.3717026e-68
2.492356e-67
-1.2547239e-67
1.1003678e-66
-5.376928e-67
1.9368526e-66
-1.3122901e-66
1.5488656e-66
-1.0957707e-66
1.2429194e-66
-7.4238688e-67
1.4390049e-64
-4.0886263e-65
1.5991584e-62
-4.2252359e-63
1.6587962e-60
-4.0577426e-61
1.7138828e-58
-3.86377e-59
2.1809137e-56
-4.544579e-57
3.56311e-54
-6.6476588e-55
7.3481068e-52
-1.1638036e-52
1.9608758e-49
-2.8695804e-50
2.0099595e-48
-2.6228826e-49
1.0418778e-47
-1.0134236e-48
6.5023575e-46
-3.8005203e-47
1.1133209e-43
-2.4588558e-45
2.0116913e-43
5.2225225e-45
2.2102657e-43
2.0989824e-44
2.6428284e-42
2.6992958e-43
6.323135e-41
9.2659506e-42
1.3241328e-39
2.6879313e-40
2.4117189e-38
6.4782716e-39
3.7698371e-37
1.3040152e-37
4.9599471e-36
2.1775678e-36
5.3888554e-35
2.9851667e-35
4.7766516e-34
3.3438949e-34
3.4115959e-33
3.0520603e-33
1.8740329e-32
2.2041023e-32
7.0848652e-32
1.158776e-31
1.6334931e-31
4.031877e-31
2.3295637e-31
9.3328453e-31
2.3008379e-31
1.8099803e-30
4.5720147e-32
3.2633986e-30
-1.6508132e-31
3.2795042e-30
-1.9749048e-31
1.8294686e-30
-1.4358185e-31
9.3851895e-31
-6.1331178e-32
3.9680866e-31
-1.4223303e-32
1.0864183e-31
-1.8006986e-33
1.7594101e-32
-1.32663e-34
1.6581941e-33
-5.3893721e-36
9.4469887e-35
-1.1352959e-37
3.0240469e-36
-1.1717866e-39
5.0655385e-38
-6.194403e-42
4.1583189e-40
-3.0003089e-44
1.73257e-42
-5.8941575e-46
6.5801361e-45
-9.9232327e-46
1.87789e-46
-9.4624926e-45
6.0338219e-46
-1.670908e-44
1.6470083e-45
-7.531864e-45
9.1887052e-46
-2.9228352e-47
-7.0809058e-47
-4.0695733e-48
-1.3979615e-48
-5.2903243e-49
-3.4849919e-49
-3.0408012e-50
-5.9450203e-50
-3.2946489e-52
-4.0645959e-51
-3.5079483e-54
-5.1070796e-53
-2.9637851e-56
-6.2348445e-55
-2.0400847e-58
-5.9814538e-57
-1.5467018e-60
-4.5083715e-59
-1.4326599e-62
-3.6932293e-61
-1.2889781e-64
-3.7186173e-63
-1.7469253e-66
-3.6212712e-65
-2.8458007e-66
-1.0262023e-66
-3.4864706e-66
-2.007544e-66
-1.9392295e-66
-2.3284363e-66
-4.312256e-67
-9.2890235e-67
-1.3883707e-67
-2.1747235e-67
-5.5933121e-68
-7.9573303e-68
-1.2378092e-68
-3.2808896e-68
-1.1427967e-69
-6.814422e-69
-3.4626703e-71
-6.2564314e-70
-4.659838e-73
-1.977273e-71
-5.2103585e-75
-2.8691452e-73
-5.0778495e-77
-3.5072122e-75
-4.506606e-79
-3.7685944e-77
-3.6322539e-81
-3.7278335e-79
-2.6226797e-83
-3.398129e-81
-1.6685693e-85
-2.7774601e-83
-9.4170045e-88
-2.0467223e-85
-4.3899658e-90
-1.4243647e-87
-1.4518256e-92
-8.3010191e-90
-1.7847757e-95
-3.6742989e-92
-1.364813e-94
2.2216507e-93
-1.9254113e-92
1.709538e-90
-4.8992768e-90
4.7514773e-88
-1.0166069e-87
9.5491497e-86
-1.6323279e-85
1.5300208e-83
-2.1775329e-83
2.2055434e-81
-2.6235741e-81
2.8034628e-79
-2.9591825e-79
3.2320841e-77
-3.0316792e-77
3.4805169e-75
-2.9252891e-75
3.4397484e-73
-2.6199708e-73
3.1680977e-71
-2.2062972e-71
2.5206176e-69
-1.626368e-69
9.1522791e-68
-5.6545628e-68
1.0416954e-66
-6.4602079e-67
4.9151657e-66
-3.2423211e-66
1.2574014e-65
-8.098442e-66
4.0749089e-65
-2.3092674e-65
1.8871237e-64
-1.0613901e-64
3.0887003e-64
-2.3849822e-64
2.3960378e-64
-1.9045651e-64
2.1175228e-64
-1.4322704e-64
2.5566667e-62
-8.2171271e-63
2.8932447e-60
-8.6841997e-61
3.1165785e-58
-8.6651805e-59
3.3438688e-56
-8.6006175e-57
4.3840627e-54
-1.0332931e-54
7.1464207e-52
-1.4724775e-52
1.5079157e-49
-2.7494433e-50
4.9920095e-47
-8.1947058e-48
6.9493353e-46
-1.0399072e-46
4.3166526e-45
-4.9573548e-46
3.6126409e-43
-2.8546055e-44
7.2985119e-42
-1.3497493e-43
9.6767193e-41
1.3917908e-42
7.2549067e-41
7.0510798e-42
2.7537244e-40
3.3171807e-41
6.1812071e-39
9.4654087e-40
1.2448576e-37
2.6686494e-38
2.1715023e-36
6.2121965e-37
3.2473592e-35
1.2031376e-35
4.0843366e-34
1.9282769e-34
4.2386259e-33
2.5324618e-33
3.5851142e-32
2.7133354e-32
2.4497032e-31
2.3726022e-31
1.2997883e-30
1.6554951e-30
4.8234878e-30
8.5369674e-30
1.1047559e-29
2.9522188e-29
1.5594379e-29
6.7871198e-29
1.5136664e-29
1.2922471e-28
3.0005455e-30
2.3288757e-28
-1.0881163e-29
2.3409022e-28
-1.3214101e-29
1.3055769e-28
-9.7027071e-30
6.8145989e-29
-4.1686799e-30
2.9015717e-29
-9.8584275e-31
7.9869851e-30
-1.3112652e-31
1.3204306e-30
-1.059826e-32
1.3080123e-31
-4.9010007e-34
8.1661561e-33
-1.1765097e-35
2.9669155e-34
-1.4621775e-37
5.6433874e-36
-1.0297532e-39
5.5590239e-38
-7.0410396e-42
3.0740289e-40
-3.3964035e-43
1.6800476e-42
-8.1112719e-43
1.1325989e-43
-6.3068198e-42
4.7356233e-43
-7.7863584e-42
9.0603977e-43
-2.2616341e-42
3.4421752e-43
-2.0456973e-44
-5.9058648e-44
-1.8993808e-45
-1.2485944e-45
-1.9803683e-46
-1.9160935e-46
-8.8577637e-48
-2.5879908e-47
-8.2501204e-50
-1.3727365e-48
-7.885755e-52
-1.4752163e-50
-5.9905261e-54
-1.619439e-52
-3.8628137e-56
-1.3521744e-54
-2.9103635e-58
-9.5544176e-57
-2.5856166e-60
-7.9113872e-59
-2.2877685e-62
-7.6052065e-61
-2.8813566e-64
-7.2604325e-63
-4.2930101e-64
-1.9153878e-64
-5.5260748e-64
-3.4819177e-64
-3.263132e-64
-4.2073523e-64
-6.9798746e-65
-1.8047361e-64
-2.2554446e-65
-3.9677639e-65
-8.9510423e-66
-1.4580058e-65
-1.9502211e-66
-5.9122866e-66
-1.7888274e-67
-1.2123232e-66
-5.3858335e-69
-1.1072772e-67
-7.198832e-71
-3.4786143e-69
-8.0062154e-73
-5.0146959e-71
-7.7822435e-75
-6.1008667e-73
-6.9022091e-77
-6.553278e-75
-5.561889e-79
-6.4788227e-77
-3.9928835e-81
-5.8177899e-79
-2.5778962e-83
-4.7430565e-81
-1.4890913e-85
-3.6751694e-83
-6.778903e-88
-2.5458033e-85
-2.2016506e-90
-1.4506428e-87
-2.6236342e-93
-6.3117673e-90
-2.2756381e-92
2.8806039e-91
-2.7919308e-90
2.2755648e-88
-7.2852225e-88
6.417234e-86
-1.5327201e-85
1.3136842e-83
-2.5046953e-83
2.1488923e-81
-3.4125605e-81
2.9817125e-79
-4.0199024e-79
3.7915156e-77
-4.4134316e-77
4.3746214e-75
-4.5612239e-75
4.7083859e-73
-4.4338096e-73
4.6591592e-71
-3.9639878e-71
4.302446e-69
-3.3436662e-69
3.4448349e-67
-2.4791815e-67
1.2585328e-65
-8.6703645e-66
1.4403212e-64
-9.947047e-65
6.9096247e-64
-5.0618573e-64
1.7944138e-63
-1.2824237e-63
5.7641284e-63
-3.6311399e-63
2.7971566e-62
-1.776341e-62
4.2921696e-62
-3.697329e-62
3.2619825e-62
-2.8362228e-62
3.1295465e-62
-2.3604064e-62
3.9025986e-60
-1.3936913e-60
4.4718858e-58
-1.4882247e-58
5.0096324e-56
-1.562095e-56
5.5513421e-54
-1.6034292e-54
7.2704808e-52
-1.8795861e-52
1.1925369e-49
-2.7848025e-50
2.7645771e-47
-5.7905496e-48
1.0794316e-44
-2.1565547e-45
2.0127011e-43
-3.4573222e-44
1.4565386e-42
-1.973883e-43
1.4219374e-40
-1.6506271e-41
5.0717546e-40
-2.7120466e-41
3.6927697e-38
-3.2692845e-40
2.9619542e-38
2.5276116e-39
2.9442032e-38
5.3677776e-39
5.2147871e-37
8.2150494e-38
1.0160873e-35
2.2324895e-36
1.691251e-34
5.0159253e-35
2.4102367e-33
9.3268561e-34
2.8862388e-32
1.4304998e-32
2.8475742e-31
1.7932658e-31
2.2875083e-30
1.8303443e-30
1.4877852e-29
1.5265373e-29
7.5884491e-29
1.024556e-28
2.7554976e-28
5.1664751e-28
6.2569116e-28
1.7726836e-27
8.7265817e-28
4.0417655e-27
8.3094339e-28
7.5457656e-27
1.6384243e-28
1.3542848e-26
-5.9852182e-28
1.3616644e-26
-7.390488e-28
7.6197725e-27
-5.4881348e-28
4.050998e-27
-2.3744196e-28
1.7388713e-27
-5.7361377e-29
4.8159313e-28
-8.0369565e-30
8.140299e-29
-7.1142154e-31
8.4955361e-30
-3.6990163e-32
5.7984642e-31
-1.0020742e-33
2.3596581e-32
-1.4952923e-35
5.0444093e-34
-1.4503058e-37
5.943307e-36
-1.4203764e-39
4.5052748e-38
-2.2748254e-40
3.8516765e-40
-6.7399215e-40
7.6766679e-41
-3.2105954e-39
3.0513132e-40
-3.1255669e-39
3.7872776e-40
-5.4326863e-40
7.026215e-41
-1.1169994e-41
-2.4918343e-41
-7.1569736e-43
-8.7153468e-43
-6.2170884e-44
-8.5439921e-44
-2.1471032e-45
-9.4356768e-45
-1.728332e-47
-3.9417125e-46
-1.4855509e-49
-3.5851508e-48
-9.9026537e-52
-3.4455968e-50
-6.0817615e-54
-2.4584909e-52
-4.6659121e-56
-1.6584569e-54
-3.963888e-58
-1.4164089e-56
-3.4843577e-60
-1.2904256e-58
-4.1457127e-62
-1.2305462e-60
-5.6391816e-62
-3.0785477e-62
-7.6009397e-62
-5.1687792e-62
-4.807787e-62
-6.4919089e-62
-9.7872559e-63
-3.0107774e-62
-3.1829782e-63
-6.1836561e-63
-1.2432209e-63
-2.2833446e-63
-2.6620136e-64
-9.1188106e-64
-2.4255343e-65
-1.8428419e-64
-7.2567026e-67
-1.6743437e-65
-9.6321026e-69
-5.2285741e-67
-1.0656069e-70
-7.4870318e-69
-1.0330138e-72
-9.0892296e-71
-9.1391762e-75
-9.686179e-73
-7.319888e-77
-9.4655824e-75
-5.3370613e-79
-8.5059451e-77
-3.5688325e-81
-7.2312106e-79
-2.0124136e-83
-5.6683862e-81
-8.9917997e-86
-3.8378274e-83
-2.877501e-88
-2.1482744e-85
-3.3403275e-91
-9.216789e-88
-3.2406256e-90
3.2925501e-89
-3.529419e-88
2.6605592e-86
-9.4112613e-86
7.5953543e-84
-2.0031798e-83
1.5783778e-81
-3.320938e-81
2.6301096e-79
-4.6056884e-79
3.6642565e-77
-5.4994709e-77
4.5209668e-75
-5.8328559e-75
5.1995131e-73
-5.9441466e-73
5.6147679e-71
-5.7764198e-71
5.5680172e-69
-5.2441811e-69
5.1532277e-67
-4.4289786e-67
4.1523344e-65
-3.296347e-65
1.5265137e-63
-1.1598318e-63
1.7566416e-62
-1.3360432e-62
8.5850293e-62
-6.9038277e-62
2.2668917e-61
-1.8019842e-61
7.1686354e-61
-4.9805337e-61
3.5986137e-60
-2.5545088e-60
5.2378425e-60
-4.9791273e-60
4.0640827e-60
-3.6890943e-60
4.0684727e-60
-3.3810532e-60
5.2021444e-58
-2.0529413e-58
5.9666991e-56
-2.1694382e-56
6.9620176e-54
-2.3808865e-54
7.8969331e-52
-2.4987385e-52
1.0277893e-49
-2.9649792e-50
1.8009793e-47
-4.7457143e-48
4.6341409e-45
-1.1584756e-45
2.1358181e-42
-4.6219033e-43
4.9359478e-41
-9.7419079e-42
4.0292214e-40
-6.431769e-41
4.7967661e-38
-6.1127964e-39
2.4744351e-37
-1.9412442e-38
1.2642071e-35
-7.1538633e-37
1.4300416e-35
8.528147e-37
6.7859335e-36
1.1245776e-36
3.8959014e-35
6.5637375e-36
7.2719459e-34
1.5948366e-34
1.1512514e-32
3.453949e-33
1.5566775e-31
6.1525724e-32
1.7676663e-30
9.0074431e-31
1.6505853e-29
1.0739792e-29
1.2521147e-28
1.0392583e-28
7.6991761e-28
8.2169659e-28
3.7511953e-27
5.2728735e-27
1.3266936e-26
2.5886652e-26
2.9774133e-26
8.7898179e-26
4.0876389e-26
1.98133e-25
3.8039547e-26
3.6138411e-25
7.4444489e-27
6.4421975e-25
-2.7462437e-26
6.4796277e-25
-3.459415e-26
3.6471471e-25
-2.6068473e-26
1.9816277e-25
-1.1382995e-26
8.599144e-26
-2.8165836e-27
2.4002778e-26
-4.1764709e-28
4.1583775e-27
-4.0540295e-29
4.5920527e-28
-2.3537852e-30
3.4282501e-29
-7.1685277e-32
1.5506489e-30
-1.2978922e-33
3.709376e-32
-1.7887193e-35
5.2803279e-34
-2.4872028e-37
5.6666459e-36
-1.3983238e-37
9.0474074e-38
-4.4840451e-37
4.6158129e-38
-1.323633e-36
1.5396066e-37
-7.6401635e-37
1.2866381e-37
-6.5115831e-38
-4.6442843e-40
-4.6837126e-39
-1.9419063e-39
-2.1947072e-40
-4.938965e-40
-1.6545603e-41
-3.1011108e-41
-4.3519804e-43
-2.9109545e-42
-3.0506961e-45
-8.7156411e-44
-2.3294575e-47
-7.0416215e-46
-1.4099925e-49
-5.8659274e-48
-8.3415256e-52
-3.9147028e-50
-6.4200375e-54
-2.533498e-52
-5.2385292e-56
-2.1305334e-54
-4.6323338e-58
-1.8652796e-56
-5.2812258e-60
-1.7982867e-58
-6.5402329e-60
-4.3355059e-60
-9.2329486e-60
-6.6789861e-60
-6.1823584e-60
-8.7040524e-60
-1.2067891e-60
-4.3248148e-60
-3.9739867e-61
-8.4041704e-61
-1.5254143e-61
-3.1688243e-61
-3.2040736e-62
-1.2282787e-61
-2.9000747e-63
-2.4430313e-62
-8.6221449e-65
-2.2082112e-63
-1.1364381e-66
-6.8543427e-65
-1.2498678e-68
-9.7615194e-67
-1.2035616e-70
-1.1704047e-68
-1.0610753e-72
-1.2367546e-70
-8.6334034e-75
-1.2114056e-72
-6.505792e-77
-1.1196117e-74
-4.2915313e-79
-9.7657665e-77
-2.3745834e-81
-7.5172515e-79
-1.0449411e-83
-4.9982805e-81
-3.3025165e-86
-2.7572669e-83
-3.7480761e-89
-1.1690177e-85
-4.0225104e-88
3.3632191e-87
-3.9517679e-86
2.7723425e-84
-1.0739395e-83
7.9988926e-82
-2.3089903e-81
1.6832292e-79
-3.8744101e-79
2.847938e-77
-5.452427e-77
4.0425635e-75
-6.6285366e-75
4.9337808e-73
-7.0779258e-73
5.5511233e-71
-6.9120907e-71
5.945067e-69
-6.6805159e-69
5.9432583e-67
-6.0572522e-67
5.5186424e-65
-5.1718583e-65
4.4773822e-63
-3.8879466e-63
1.656328e-61
-1.3755497e-61
1.9164204e-60
-1.5907521e-60
9.5731199e-60
-8.3565703e-60
2.5915465e-59
-2.2570395e-59
7.9390512e-59
-6.0474611e-59
4.0783802e-58
-3.2097518e-58
5.6842363e-58
-5.910189e-58
4.2561966e-58
-4.2418027e-58
5.1494957e-58
-4.2989161e-58
6.2026097e-56
-2.6596827e-56
7.1015881e-54
-2.840601e-54
8.467565e-52
-3.1596789e-52
9.7736286e-50
-3.3900463e-50
1.3244402e-47
-4.2533251e-48
2.5037379e-45
-7.5054144e-46
7.2056633e-43
-1.907074e-43
3.892565e-40
-9.4064188e-41
1.0337787e-38
-2.3443116e-39
9.1918829e-38
-1.7239824e-38
1.1193508e-35
-1.6797472e-36
1.1160417e-34
-1.157625e-35
2.6615981e-33
-2.2456834e-34
5.4976683e-33
1.4921695e-34
2.0862757e-33
2.9064932e-34
2.5094258e-33
6.0521132e-34
4.5779352e-32
9.8603555e-33
6.9116199e-31
2.0493781e-31
8.829024e-30
3.4906514e-30
9.4566861e-29
4.8603655e-29
8.3126564e-28
5.4894987e-28
5.9169987e-27
5.0100041e-27
3.4098609e-26
3.7263274e-26
1.5715461e-25
2.2650644e-25
5.3769748e-25
1.0753074e-24
1.1879057e-24
3.6017292e-24
1.5971346e-24
7.9962815e-24
1.4470135e-24
1.4182778e-23
2.820195e-25
2.5207286e-23
-1.0473945e-24
2.5367243e-23
-1.3503078e-24
1.4302715e-23
-1.0372952e-24
7.9753079e-24
-4.5849601e-25
3.5103944e-24
-1.1677195e-25
9.8956401e-25
-1.8489284e-26
1.7657032e-25
-1.976217e-27
2.0810201e-26
-1.2767483e-28
1.7045996e-27
-4.3799855e-30
8.5310183e-29
-9.9277044e-32
2.2872101e-30
-2.1084292e-33
4.0610301e-32
-5.0412563e-35
6.7197483e-34
-5.2313148e-35
2.2958246e-35
-2.270742e-34
2.1936438e-35
-4.709421e-34
5.8567678e-35
-1.0512323e-35
3.151812e-35
-3.929628e-36
-2.1025559e-37
-1.4252797e-36
-3.8493387e-37
-5.513698e-38
-2.0558191e-37
-3.7641403e-39
-9.198131e-39
-7.1194732e-41
-7.7014849e-40
-4.4398671e-43
-1.627443e-41
-3.1049233e-45
-1.1199563e-43
-1.8370535e-47
-8.7276709e-46
-1.048263e-49
-5.6797794e-48
-7.7414867e-52
-3.5261301e-50
-6.1825844e-54
-2.8134339e-52
-5.4834079e-56
-2.4213113e-54
-6.025666e-58
-2.3436494e-56
-6.8470115e-58
-5.4274243e-58
-9.9707647e-58
-7.6113912e-58
-6.992604e-58
-1.0284037e-57
-1.324285e-58
-5.4207826e-58
-4.48402e-59
-1.0107555e-58
-1.6786124e-59
-3.9180178e-59
-3.4480797e-60
-1.4676628e-59
-3.1005216e-61
-2.869903e-60
-9.1617137e-63
-2.5811341e-61
-1.1989841e-64
-7.9656599e-63
-1.3028671e-66
-1.1276742e-64
-1.2546286e-68
-1.3285689e-66
-1.1201841e-70
-1.4102213e-68
-9.3496401e-73
-1.4006917e-70
-7.0521868e-75
-1.3417191e-72
-4.5640479e-77
-1.1568081e-74
-2.4862572e-79
-8.7427593e-77
-1.0801583e-81
-5.7266568e-79
-3.3770799e-84
-3.1204344e-81
-3.7574254e-87
-1.3094844e-83
-4.4214858e-86
3.1041626e-85
-3.9686698e-84
2.6048363e-82
-1.0969682e-81
7.5864079e-80
-2.379557e-79
1.6137315e-77
-4.0343098e-77
2.7656071e-75
-5.7481958e-75
3.986452e-73
-7.0921744e-73
4.9585992e-71
-7.7126411e-71
5.4551633e-69
-7.5338435e-69
5.7652599e-67
-7.0046687e-67
5.6997013e-65
-6.3078916e-65
5.3214326e-63
-5.3818822e-63
4.3688915e-61
-4.1275992e-61
1.6260438e-59
-1.4652199e-59
1.8914249e-58
-1.7007131e-58
9.6560468e-58
-9.0796169e-58
2.6613359e-57
-2.5128066e-57