/*--------------------------------*- C++ -*----------------------------------*\
  =========                 |
  \\      /  F ield         | OpenFOAM: The Open Source CFD Toolbox
   \\    /   O peration     | Website:  https://openfoam.org
    \\  /    A nd           | Version:  9
     \\/     M anipulation  |
\*---------------------------------------------------------------------------*/
FoamFile
{
    format      ascii;
    class       volScalarField;
    location    "0.23";
    object      p_rgh;
}
// * * * * * * * * * * * * * * * * * * * * * * * * * * * * * * * * * * * * * //

dimensions      [1 -1 -2 0 0 0 0];

internalField   nonuniform List<scalar> 
10000
(
0
-0.021203217
-0.036932542
-0.056606963
-0.078940723
-0.10338357
-0.12970567
-0.15776165
-0.18737507
-0.21821245
-0.2499819
-0.28237524
-0.31497616
-0.34739969
-0.37921368
-0.40990244
-0.43896831
-0.46588323
-0.49005308
-0.51086898
-0.52768649
-0.53978819
-0.54642921
-0.54684718
-0.54022999
-0.52570154
-0.50226325
-0.46884262
-0.42455914
-0.36874172
-0.30099144
-0.22126333
-0.12947606
-0.028486066
0.077328637
0.19500538
0.3231115
0.46011491
0.60424937
0.75340001
0.90506116
1.0563051
1.2039269
1.3445589
1.4747618
1.5911131
1.6904312
1.7700064
1.8276415
1.8617846
1.8715926
1.8570654
1.819018
1.7589259
1.6789526
1.5817477
1.4703572
1.3480279
1.2182076
1.0842609
0.9493631
0.81632367
0.68763287
0.5653946
0.45130285
0.34685039
0.25344429
0.17129995
0.094244409
0.028354032
-0.02641917
-0.070081193
-0.10281135
-0.12517562
-0.13791139
-0.14194939
-0.13838386
-0.12821292
-0.11228606
-0.091387526
-0.066245736
-0.03755153
-0.0059632446
0.027900536
0.06346944
0.10026585
0.13772047
0.17542945
0.21291314
0.24979355
0.28568382
0.32025402
0.35318764
0.38422252
0.4131214
0.43972129
0.46379486
0.48475198
0.50142489
0.52341085
0.016332334
-0.0049132381
-0.020677011
-0.040510172
-0.063172613
-0.087995673
-0.11475299
-0.14340317
-0.17364646
-0.20520491
-0.23781996
-0.27110316
-0.30470146
-0.33823002
-0.37120169
-0.40314339
-0.43355321
-0.46185661
-0.4874744
-0.50980185
-0.52814258
-0.54177619
-0.54995728
-0.55190149
-0.54677828
-0.5337372
-0.51188879
-0.48031163
-0.4381968
-0.38498092
-0.32032251
-0.24420875
-0.15739851
-0.058970088
0.048618876
0.16682852
0.29514534
0.43237484
0.57684975
0.72647741
0.87873912
1.0307559
1.1793219
1.3209375
1.4520834
1.5693353
1.6694543
1.7496596
1.8076928
1.8419633
1.8516597
1.8367682
1.7980983
1.7371707
1.6562114
1.5579383
1.4454907
1.3221687
1.1914655
1.0567728
0.92131653
0.78793228
0.65910937
0.53696754
0.4231506
0.31896564
0.22522572
0.14165309
0.070081673
0.0080095332
-0.043543521
-0.08436651
-0.1146836
-0.13496788
-0.14591133
-0.14838004
-0.14329258
-0.13158321
-0.11407092
-0.09156138
-0.064835952
-0.034593298
-0.0015005889
0.033815739
0.070775481
0.10887796
0.14757218
0.18640025
0.22492025
0.2627254
0.29945881
0.33477301
0.3683637
0.39996154
0.42933839
0.45634831
0.48075067
0.50192073
0.51869492
0.54080896
0.027075842
0.0055193989
-0.010482136
-0.030715192
-0.053886299
-0.079290727
-0.10681767
-0.13629761
-0.16747945
-0.20013159
-0.23390806
-0.26847285
-0.30347904
-0.33848389
-0.37303917
-0.40667614
-0.43885465
-0.4690128
-0.49657074
-0.52086882
-0.54120105
-0.55684522
-0.56704416
-0.57098736
-0.56783527
-0.55674098
-0.53683238
-0.50725983
-0.46726098
-0.41620458
-0.35363639
-0.27934361
-0.193394
-0.095371021
0.013648836
0.13373051
0.26441325
0.40464554
0.55279012
0.70671102
0.86379585
1.0210091
1.1749662
1.3219736
1.4582486
1.5801342
1.6841884
1.7674344
1.82747
1.8626504
1.8721944
1.8561113
1.8152351
1.7511316
1.6661551
1.5632094
1.4456733
1.3170861
1.1811376
1.0414224
0.90134413
0.76388894
0.63166804
0.50681437
0.39100121
0.28542579
0.19079994
0.10728097
0.035508103
-0.025048412
-0.074576596
-0.11321489
-0.14133912
-0.1594814
-0.16836707
-0.16884682
-0.16176977
-0.14803616
-0.12849376
-0.10394145
-0.075168757
-0.042927043
-0.0078621922
0.029352726
0.068156331
0.10796215
0.14828237
0.18862501
0.2285701
0.26767757
0.30559901
0.34198667
0.37656786
0.40902888
0.43913187
0.46676239
0.49170932
0.51333159
0.53040889
0.55287072
0.041226182
0.019354518
0.0029783193
-0.01772972
-0.041464008
-0.067631882
-0.096020868
-0.12649063
-0.15884612
-0.19277419
-0.22796387
-0.26410598
-0.30080261
-0.33763553
-0.37417817
-0.40993335
-0.44436273
-0.47690811
-0.50694527
-0.53379757
-0.5567764
-0.57515009
-0.58813279
-0.59489471
-0.59459451
-0.58636445
-0.56933123
-0.54264887
-0.50551868
-0.45720865
-0.39712708
-0.3248457
-0.24008491
-0.14309318
-0.033610391
0.088116614
0.22149098
0.3654683
0.51845805
0.67830417
0.84228202
1.0071312
1.1692052
1.324517
1.4688964
1.598287
1.7088642
1.7972999
1.8609211
1.8978786
1.9072961
1.8891863
1.8445142
1.7750739
1.6835072
1.5730655
1.4475098
1.3107809
1.1669028
1.0197711
0.87306118
0.72995568
0.59317386
0.46484475
0.34661568
0.23964315
0.14462396
0.06188002
-0.0088309391
-0.067598468
-0.11471799
-0.15062086
-0.17582612
-0.19102236
-0.19697696
-0.19456196
-0.18462452
-0.16805048
-0.14570999
-0.11841906
-0.086958305
-0.052092347
-0.014505851
0.025125762
0.066208337
0.10818795
0.15050671
0.19271371
0.23438581
0.27507644
0.31444365
0.35212791
0.38785183
0.42132665
0.45230538
0.48067599
0.50626866
0.52840806
0.54586375
0.56866314
0.056977659
0.034666928
0.017826214
-0.0034597579
-0.027988301
-0.055064728
-0.084512258
-0.11625428
-0.15002068
-0.18552032
-0.22247819
-0.26054138
-0.29932949
-0.3384569
-0.37746838
-0.41585643
-0.45309419
-0.48859964
-0.52173153
-0.55182451
-0.57818098
-0.60003972
-0.61659046
-0.62699291
-0.63037579
-0.62584313
-0.61249167
-0.58942778
-0.55578811
-0.51075588
-0.45360155
-0.38372845
-0.30069175
-0.2042088
-0.094071352
0.029651501
0.16641457
0.31522629
0.47456871
0.64225561
0.815414
0.99051998
1.1635465
1.3300664
1.4854016
1.6249507
1.7443643
1.8398329
1.9083157
1.9476957
1.9569506
1.9360984
1.8862887
1.8096311
1.7091615
1.5886053
1.4522254
1.3045022
1.1499548
0.99290675
0.83737493
0.68679028
0.54396187
0.41105688
0.28967549
0.18091134
0.085269407
0.0027928239
-0.066262745
-0.12271282
-0.16696839
-0.19959202
-0.22126247
-0.23280636
-0.23504952
-0.22891386
-0.21528971
-0.19505594
-0.16912205
-0.13831524
-0.10344082
-0.065272336
-0.024570759
0.018073835
0.06199909
0.10665091
0.15146341
0.19598633
0.23977928
0.28242448
0.32355466
0.36281995
0.39994544
0.43467088
0.46674932
0.4960579
0.52242401
0.54520206
0.56317332
0.58639852
0.074455288
0.05165164
0.034283265
0.012217613
-0.013223462
-0.041369815
-0.072122649
-0.10533922
-0.14076292
-0.17814516
-0.21717654
-0.25751545
-0.29881807
-0.34067537
-0.38261618
-0.42414736
-0.46473165
-0.50377293
-0.54064142
-0.57466855
-0.60512198
-0.6312152
-0.65212826
-0.66699724
-0.674908
-0.67492011
-0.6660837
-0.64743647
-0.61803125
-0.5769608
-0.52334642
-0.45636811
-0.37532355
-0.27966194
-0.16896942
-0.043069858
0.097704786
0.25250258
0.41988808
0.59763325
0.78269486
0.97122254
1.158675
1.3400093
1.5098481
1.6628396
1.7939276
1.8986566
1.9734928
2.0159967
2.0250213
2.0006064
1.9440746
1.8579282
1.7457234
1.6118149
1.4611427
1.2989238
1.1303726
0.96040009
0.79340988
0.6331577
0.48264099
0.34404667
0.21889671
0.10808475
0.011941908
-0.069619209
-0.13697169
-0.19066465
-0.2314676
-0.26014707
-0.27755719
-0.28465503
-0.28234995
-0.2716294
-0.25345938
-0.22872762
-0.19838032
-0.16330133
-0.12433049
-0.082207161
-0.03769844
0.0085260097
0.05584318
0.10366256
0.15143388
0.19869635
0.2449817
0.28992755
0.3331676
0.374315
0.41309492
0.44932395
0.48267917
0.51306111
0.54037419
0.56393687
0.58248437
0.60619236
0.093841859
0.070503474
0.052440932
0.029518185
0.0030359705
-0.026395463
-0.058624809
-0.093522844
-0.13087637
-0.17040962
-0.21182478
-0.25482111
-0.29903691
-0.344042
-0.38938091
-0.4345627
-0.47904171
-0.52223118
-0.56349992
-0.60215176
-0.63743131
-0.6685446
-0.69465135
-0.71484864
-0.72817607
-0.7336428
-0.73024561
-0.71695598
-0.69272398
-0.65651654
-0.60728862
-0.54398845
-0.46564706
-0.37141907
-0.26054461
-0.13250175
0.012693342
0.17444757
0.35149422
0.54160777
0.74154874
0.9470597
1.1529555
1.353378
1.5420108
1.7124843
1.8587862
1.9756119
2.0587543
2.1053375
2.11404
2.0849536
2.0196372
1.9210962
1.7935844
1.6423204
1.4731842
1.2923646
1.1059495
0.91960427
0.7383177
0.56620191
0.40645026
0.26120545
0.13182522
0.018972018
-0.077372894
-0.15757527
-0.22231352
-0.27244433
-0.30893578
-0.33278055
-0.34501539
-0.34671002
-0.33891311
-0.32267612
-0.29902531
-0.26893943
-0.23338557
-0.19327816
-0.14942296
-0.10266295
-0.053726415
-0.0033051755
0.04794757
0.099449247
0.15063862
0.20105846
0.25027494
0.29788777
0.34350517
0.38680838
0.42750291
0.46539789
0.50025801
0.53193908
0.56030084
0.58473894
0.60395682
0.62824426
0.11532658
0.091316258
0.072524953
0.048646011
0.020941308
-0.0099101263
-0.043786516
-0.080602228
-0.1201186
-0.16207263
-0.20621207
-0.25222649
-0.29973261
-0.34831561
-0.39752932
-0.44688002
-0.49583279
-0.54380426
-0.5901388
-0.6341191
-0.67499058
-0.7119513
-0.74412442
-0.77056083
-0.79025801
-0.80217514
-0.80524781
-0.79838091
-0.78042334
-0.75017889
-0.70642029
-0.64787998
-0.5732948
-0.48144824
-0.37113416
-0.24137763
-0.09171591
0.077679062
0.26585258
0.47066782
0.68867535
0.91513317
1.1440721
1.3685521
1.581002
1.7737177
1.9394194
2.0716923
2.1654471
2.2172297
2.2254753
2.1903637
2.1137877
1.999401
1.8523608
1.6790291
1.4865399
1.2823312
1.0736717
0.86717831
0.66857457
0.48240891
0.31200679
0.15947542
0.025805737
-0.088736644
-0.18457209
-0.26247769
-0.32358905
-0.36907858
-0.40014697
-0.41804692
-0.42402201
-0.41925572
-0.40491997
-0.38215392
-0.35206384
-0.31572885
-0.27407557
-0.22808183
-0.17860023
-0.12646567
-0.072450929
-0.017219285
0.038533837
0.094218752
0.14930836
0.20335134
0.25587839
0.30648162
0.35479652
0.40050144
0.4434159
0.48320495
0.51970014
0.55280145
0.58238496
0.60780689
0.62775394
0.65268784
0.1390411
0.11434621
0.094747225
0.069764017
0.040739705
0.0083324869
-0.027389669
-0.066317152
-0.1082237
-0.15289497
-0.20007632
-0.24944117
-0.30062215
-0.35321807
-0.4067847
-0.46084153
-0.51486086
-0.56824109
-0.62031167
-0.67036149
-0.71763503
-0.76130289
-0.8004511
-0.83409222
-0.86118683
-0.88064936
-0.89134692
-0.89209867
-0.88165537
-0.8586813
-0.82177766
-0.76945778
-0.70012082
-0.61207445
-0.50363299
-0.37317234
-0.21950828
-0.042155164
0.15841406
0.38029178
0.61988646
0.87188499
1.1293047
1.3837836
1.6261057
1.8468223
2.0369633
2.1886665
2.2957322
2.3540013
2.3616071
2.3188295
2.2279837
2.093571
1.9219367
1.7208824
1.4991876
1.265922
1.029878
0.79894385
0.57972728
0.37730543
0.1950856
0.03495074
-0.10257142
-0.21786249
-0.31206155
-0.38617622
-0.44220932
-0.48161524
-0.50588306
-0.51652165
-0.5149606
-0.50252143
-0.48050392
-0.45013592
-0.4125845
-0.36897564
-0.32031575
-0.26757296
-0.21165543
-0.15340305
-0.09359871
-0.032958658
0.027875007
0.088314223
0.14778533
0.20583231
0.26203807
0.3159679
0.36731312
0.41573159
0.46104101
0.50292072
0.54128449
0.57594587
0.60684893
0.63333322
0.65410302
0.67972592
0.1652505
0.13981106
0.11928772
0.093143054
0.06269299
0.028565369
-0.0091572108
-0.050382111
-0.094930458
-0.1425905
-0.19309743
-0.24614659
-0.30139116
-0.35843194
-0.41683868
-0.47614423
-0.53581094
-0.59522725
-0.65373592
-0.7106355
-0.76515075
-0.81641802
-0.8634951
-0.90537052
-0.94097012
-0.96915792
-0.988731
-0.99842358
-0.99690789
-0.98275865
-0.95442254
-0.91018574
-0.84810756
-0.76599493
-0.66148366
-0.532094
-0.37561897
-0.19060858
0.023223353
0.26446547
0.52952216
0.81240258
1.1048058
1.3965334
1.6761948
1.9320068
2.1527721
2.3287777
2.452422
2.5186885
2.5253587
2.4728551
2.3640369
2.2044494
2.0019753
1.7662798
1.5082215
1.2390442
0.96954873
0.70925166
0.46587962
0.24503752
0.050238035
-0.11713568
-0.25733092
-0.37160473
-0.46180224
-0.53056174
-0.57963319
-0.61113326
-0.62693339
-0.62875777
-0.61821376
-0.59675655
-0.56578928
-0.52660108
-0.48048405
-0.42855913
-0.37190776
-0.31153207
-0.24832958
-0.18320157
-0.11692317
-0.050204691
0.016309259
0.081993434
0.14633117
0.20881184
0.26905523
0.32666448
0.38129759
0.43269141
0.48063598
0.5248663
0.5652169
0.60156912
0.63392097
0.66156506
0.68322232
0.70960501
0.1941763
0.16791537
0.14644702
0.11905599
0.087050135
0.051088791
0.011219368
-0.032511599
-0.079926523
-0.13081077
-0.18492733
-0.24199575
-0.30167988
-0.36359747
-0.42733168
-0.49241217
-0.55830113
-0.62440742
-0.69009068
-0.75463707
-0.81724513
-0.87703502
-0.93305146
-0.98425817
-1.0295355
-1.0676908
-1.0974688
-1.1175564
-1.1265808
-1.1230568
-1.1053206
-1.0714752
-1.0192806
-0.94603869
-0.84856171
-0.72322324
-0.56626999
-0.37490877
-0.14754883
0.11522668
0.40993899
0.72987808
1.065136
1.4030866
1.7293691
2.0290666
2.2880854
2.494359
2.6385178
2.714515
2.7197773
2.654965
2.5236396
2.332602
2.0915754
1.8126632
1.5094668
1.1960405
0.88583975
0.59048019
0.31913251
0.078045806
-0.12941562
-0.30274129
-0.44337844
-0.5539865
-0.63771738
-0.69792189
-0.73741878
-0.75872231
-0.76401817
-0.75522361
-0.73406889
-0.70208128
-0.66076175
-0.61148798
-0.55560509
-0.49426196
-0.42859376
-0.35964106
-0.28833648
-0.2155162
-0.14201312
-0.068578485
0.0041591497
0.075604322
0.14525838
0.21261797
0.27728089
0.33888884
0.39712767
0.45176548
0.50252926
0.54928261
0.59178238
0.62997759
0.66387359
0.69278063
0.71539453
0.74260374
0.22604788
0.19898778
0.17650303
0.14776546
0.11412962
0.076227395
0.034044699
-0.012370948
-0.062840196
-0.1171829
-0.17519236
-0.23660069
-0.30109155
-0.36830756
-0.4378342
-0.50920461
-0.58190978
-0.65538544
-0.72898545
-0.80197498
-0.87354556
-0.94282053
-1.0088312
-1.0705051
-1.1266785
-1.1761142
-1.2175249
-1.2495833
-1.2709049
-1.2799971
-1.2751941
-1.2545405
-1.2155857
-1.1551603
-1.0691756
-0.95267949
-0.79901916
-0.60403792
-0.3640308
-0.07810424
0.25075633
0.61509834
1.0029056
1.3982404
1.7827158
2.1372734
2.4439865
2.6877165
2.8569801
2.9446445
2.9478553
2.867596
2.7082172
2.4780138
2.1889712
1.8562633
1.497061
1.1291043
0.76935296
0.4324017
0.1292117
-0.13338143
-0.352548
-0.52909432
-0.66636919
-0.76907036
-0.84214235
-0.89015656
-0.91685243
-0.92522971
-0.91770426
-0.89626704
-0.86266145
-0.81852858
-0.76536409
-0.70462226
-0.63768582
-0.56576928
-0.49005532
-0.41155111
-0.33122263
-0.24993056
-0.16852429
-0.087700273
-0.0081505332
0.069595206
0.14501054
0.21762361
0.28705715
0.35301194
0.41515502
0.47323943
0.52706516
0.57645982
0.62126138
0.66145182
0.69699196
0.72724334
0.75088454
0.77889423
0.26119421
0.23330445
0.20972399
0.17960905
0.14426838
0.10429576
0.059667241
0.010425689
-0.04328405
-0.1013137
-0.16347735
-0.22953383
-0.29918894
-0.37209621
-0.44785979
-0.52604635
-0.60617714
-0.68769266
-0.76993549
-0.85217155
-0.93360447
-1.0133554
-1.0904326
-1.1637298
-1.2320607
-1.2941697
-1.3487381
-1.3944277
-1.4298874
-1.453723
-1.4644227
-1.4601841
-1.4385953
-1.3961684
-1.3279627
-1.2280559
-1.0829918
-0.88940763
-0.63949132
-0.32972261
0.038070359
0.45560877
0.90800201
1.374775
1.8320069
2.2550256
2.6208728
2.9105966
3.1103525
3.2118541
3.2121093
3.1125249
2.9183085
2.6395441
2.2909823
1.8914873
1.4627288
1.0275251
0.60756866
0.22139041
-0.11759698
-0.40197862
-0.63014155
-0.80507858
-0.93297129
-1.0213941
-1.0779888
-1.1089358
-1.1189082
-1.1112225
-1.0882652
-1.0519843
-1.0039896
-0.94595086
-0.87934641
-0.80567677
-0.72636591
-0.64269226
-0.55580835
-0.46676181
-0.3765349
-0.28598168
-0.19596726
-0.10713791
-0.020185077
0.064341424
0.14594728
0.22426708
0.29885524
0.36943559
0.43574482
0.49752072
0.5546174
0.60682584
0.65406363
0.69633092
0.73359093
0.76523057
0.7899789
0.81880855
0.2998937
0.27114801
0.24645555
0.21491919
0.1777868
0.13565272
0.088478965
0.036272471
-0.020853433
-0.082771626
-0.14933019
-0.22032268
-0.2954711
-0.37444401
-0.45689068
-0.54242284
-0.63057146
-0.72077069
-0.81237479
-0.90467407
-0.9968811
-1.0881039
-1.1773349
-1.263455
-1.3452599
-1.421477
-1.4907631
-1.5517741
-1.6032393
-1.6439776
-1.6728552
-1.6885793
-1.6892042
-1.6712159
-1.6282696
-1.5497982
-1.4284873
-1.2457567
-0.99139113
-0.65844337
-0.24681484
0.23439983
0.76642763
1.322437
1.870837
2.3793303
2.8183208
3.1640698
3.4001603
3.5175078
3.5134716
3.3900281
3.1531375
2.8145908
2.3922979
1.9098666
1.3948402
0.87661617
0.38342219
-0.060885093
-0.43956544
-0.74460263
-0.97635596
-1.1415358
-1.2506673
-1.3156235
-1.34776
-1.3554086
-1.3439843
-1.3167168
-1.2755819
-1.2221509
-1.1577711
-1.0839827
-1.0022911
-0.91420466
-0.82114785
-0.72446463
-0.62532974
-0.52476724
-0.42374886
-0.323158
-0.22379919
-0.12636779
-0.031471065
0.06036777
0.14864834
0.23302449
0.31311944
0.38864853
0.45935055
0.52506027
0.58558507
0.64078318
0.69057794
0.73497998
0.77403162
0.80712368
0.83297373
0.86260038
0.34244309
0.31286805
0.28703999
0.25401439
0.215047
0.17069657
0.12088092
0.065586669
0.0049028044
-0.061084722
-0.13225952
-0.20843887
-0.28937737
-0.37478949
-0.46436755
-0.55774874
-0.65447104
-0.75398321
-0.85567097
-0.9588494
-1.06273
-1.1664162
-1.2689125
-1.3691065
-1.4657568
-1.5575333
-1.6430767
-1.7210564
-1.7903103
-1.8499654
-1.8995446
-1.9388464
-1.9672641
-1.9823121
-1.9772929
-1.9395026
-1.8521791
-1.6924473
-1.4425848
-1.0893239
-0.62922824
-0.071662111
0.55924366
1.2271461
1.8894713
2.5037173
3.032224
3.4456393
3.7246461
3.8598437
3.8495946
3.6967545
3.407793
2.9960295
2.4832197
1.8987745
1.2773254
0.65648368
0.073683431
-0.43913041
-0.86071896
-1.1829104
-1.4091752
-1.5516874
-1.6275998
-1.6560069
-1.6529674
-1.6295693
-1.5915111
-1.541044
-1.4790505
-1.4062021
-1.3234556
-1.2320994
-1.1336241
-1.0295752
-0.9214009
-0.81047559
-0.69795967
-0.58491388
-0.47223069
-0.36084583
-0.25148961
-0.14481472
-0.041422427
0.058163218
0.15356221
0.24439999
0.33034192
0.41110385
0.48644583
0.55626527
0.62037693
0.67869992
0.7311505
0.77777104
0.81863389
0.85320114
0.88018803
0.91063008
0.38919233
0.35879266
0.33180409
0.29727796
0.25645194
0.20983312
0.15730691
0.098841532
0.034482178
-0.035733511
-0.11171383
-0.19330429
-0.28031629
-0.37252816
-0.46965809
-0.57135417
-0.67718297
-0.7866313
-0.89911438
-1.0139626
-1.1303995
-1.2475489
-1.3644406
-1.479966
-1.5928424
-1.7016662
-1.8050214
-1.9015455
-1.9901376
-2.0703014
-2.1425116
-2.208421
-2.2702392
-2.3285347
-2.377305
-2.3993981
-2.3678789
-2.2525986
-2.022659
-1.6560025
-1.1436814
-0.49475774
0.25900627
1.0676741
1.8732671
2.6187262
3.2557198
3.7491282
4.0775431
4.2318079
4.2126926
4.0241901
3.6725043
3.1723082
2.5492506
1.8394864
1.0865912
0.33904404
-0.35327
-0.94658175
-1.4131046
-1.7451187
-1.951139
-2.0515622
-2.073473
-2.0459314
-1.9930935
-1.9294131
-1.8594807
-1.7826908
-1.6975663
-1.6033158
-1.5002997
-1.3895507
-1.2725503
-1.1509759
-1.0263053
-0.89993135
-0.77295164
-0.64646953
-0.52132246
-0.39836913
-0.27831532
-0.16182143
-0.049417492
0.058425975
0.1613563
0.25899459
0.35105931
0.43729688
0.51752489
0.59159657
0.6594396
0.7209934
0.77618525
0.82509963
0.86782953
0.90388332
0.93195598
0.96319439
0.44046295
0.40926464
0.38113372
0.34512185
0.30241709
0.25350756
0.19824598
0.13655159
0.06841924
-0.0061460043
-0.087086649
-0.17430221
-0.26766421
-0.36699765
-0.47205245
-0.5825036
-0.69795891
-0.81794422
-0.9418979
-1.069173
-1.1990348
-1.3306463
-1.4630516
-1.5951396
-1.7256151
-1.8530126
-1.975776
-2.0923914
-2.2016569
-2.3033473
-2.3990598
-2.4930797
-2.5925312
-2.7052854
-2.8292016
-2.9408343
-2.9989899
-2.9571513
-2.7703888
-2.4030029
-1.8358941
-1.0763756
-0.16939292
0.81404865
1.7957807
2.7020252
3.4714918
4.0596047
4.4419908
4.6144956
4.5831722
4.3530266
3.9282496
3.3210941
2.562595
1.7008429
0.78969976
-0.11233712
-0.93910496
-1.6278246
-2.1395324
-2.4683747
-2.631322
-2.6601434
-2.5970408
-2.4859265
-2.3640876
-2.2502595
-2.1443716
-2.0394282
-1.9297569
-1.8125008
-1.6873647
-1.5553273
-1.4180645
-1.2773803
-1.1348404
-0.991819
-0.84940198
-0.70858988
-0.57017009
-0.43497596
-0.30362936
-0.17673281
-0.054774885
0.061803579
0.17264125
0.27744146
0.37591463
0.46785357
0.55313585
0.63163459
0.70334457
0.76819231
0.82619023
0.87742528
0.9220127
0.9595187
0.98868816
1.0206465
0.49659536
0.46467743
0.43543577
0.39795047
0.35339381
0.30221809
0.24421534
0.17925426
0.10728934
0.028287361
-0.057749992
-0.15078315
-0.25073387
-0.35746854
-0.47078776
-0.59041335
-0.71598711
-0.84706586
-0.98312269
-1.1235549
-1.2676777
-1.4146972
-1.5636802
-1.7135397
-1.8630016
-2.0105421
-2.1543823
-2.2926775
-2.4238608
-2.5475245
-2.6660667
-2.7869667
-2.9251346
-3.1043326
-3.3324776
-3.5745915
-3.7673681
-3.8423494
-3.7337868
-3.3876347
-2.7691039
-1.8780143
-0.77949901
0.4225493
1.6175395
2.7111006
3.6359437
4.3367137
4.7804893
4.9705351
4.9226604
4.643286
4.1302445
3.3910602
2.468765
1.4311003
0.33558137
-0.75330252
-1.7440071
-2.5431735
-3.0944986
-3.39893
-3.4853297
-3.4002111
-3.2079614
-2.9747053
-2.7580326
-2.5843259
-2.4414357
-2.3087072
-2.1741656
-2.0326219
-1.8835041
-1.7282168
-1.5688894
-1.4075245
-1.2458201
-1.0850463
-0.92624759
-0.7703053
-0.61792418
-0.46982708
-0.32658741
-0.18874392
-0.05675414
0.06900705
0.18816243
0.3004302
0.40556406
0.5034319
0.5939173
0.67696026
0.75258147
0.82078063
0.88159244
0.93511978
0.98157594
1.0204997
1.0507699
1.0833856
0.5579699
0.52541698
0.49509761
0.45619986
0.40986652
0.35647097
0.29574386
0.22751511
0.15169471
0.068192875
-0.023049328
-0.12204773
-0.22877701
-0.34316194
-0.46506026
-0.59424366
-0.73038301
-0.87307265
-1.0218368
-1.1761163
-1.3352632
-1.4985351
-1.6650759
-1.8338838
-2.0037339
-2.1730605
-2.3398757
-2.5017971
-2.656351
-2.8019923
-2.9405138
-3.0825043
-3.2520847
-3.5077656
-3.8831297
-4.3173384
-4.7047694
-4.9489657
-4.9696107
-4.6800254
-4.0219698
-2.9785955
-1.6510659
-0.18608191
1.2620788
2.5784076
3.69494
4.5322438
5.0450254
5.2501285
5.1809623
4.8450212
4.2262601
3.3229831
2.1926524
0.94863757
-0.35005527
-1.6560226
-2.8430028
-3.7678224
-4.3424278
-4.5904806
-4.5560339
-4.3023094
-3.9195942
-3.505218
-3.1566965
-2.9175388
-2.74421
-2.5879923
-2.429763
-2.2628221
-2.087598
-1.9067686
-1.7234166
-1.5398566
-1.357808
-1.1783719
-1.0024285
-0.83065851
-0.66365974
-0.50204128
-0.34636307
-0.19705026
-0.054533936
0.080792961
0.20862781
0.32866188
0.44069996
0.54464197
0.64046212
0.72815614
0.80773215
0.87931342
0.94293463
0.99872906
1.0469682
1.0872711
1.1185792
1.1517696
0.62494416
0.59184892
0.56054222
0.52032821
0.47230596
0.41676369
0.35337368
0.28191781
0.20224836
0.11422093
0.017719637
-0.087338724
-0.20099935
-0.32325685
-0.45401604
-0.59309362
-0.74020795
-0.89500193
-1.057047
-1.2258027
-1.4006439
-1.5809053
-1.7658653
-1.9546772
-2.1462623
-2.3391705
-2.5313659
-2.7198601
-2.9006234
-3.0693754
-3.2247749
-3.379184
-3.5540435
-3.8884891
-4.4803323
-5.1948261
-5.8641757
-6.343106
-6.5480287
-6.3612311
-5.7111516
-4.5359198
-2.9783359
-1.2075015
0.50468175
2.0647381
3.4587373
4.5084638
5.125883
5.3630681
5.2709722
4.8546318
4.0864737
2.9367562
1.4882931
0.0025609462
-1.4702881
-3.004245
-4.3722377
-5.4039438
-5.9531528
-6.1121397
-5.9189495
-5.413952
-4.7462359
-4.0656204
-3.5316275
-3.2343423
-3.0517728
-2.8790664
-2.6981893
-2.5034418
-2.2987179
-2.0893407
-1.8797279
-1.672507
-1.4691626
-1.270424
-1.0767867
-0.88865438
-0.70650794
-0.53084596
-0.36216215
-0.20087083
-0.04735462
0.097985811
0.23483623
0.36290405
0.48207782
0.59225613
0.69353299
0.78589596
0.86944134
0.94437885
1.0107389
1.0687342
1.1186474
1.1602604
1.1925023
1.2261452
0.69785377
0.66437179
0.63218856
0.59077712
0.54117654
0.48360201
0.4176521
0.34304895
0.25958919
0.16707464
0.065317363
-0.045853472
-0.16656203
-0.2968674
-0.43672758
-0.58600912
-0.74449683
-0.91187279
-1.0877204
-1.2715101
-1.4626461
-1.6605404
-1.8646091
-2.074228
-2.288677
-2.5069982
-2.7275569
-2.9472719
-3.1603735
-3.3581179
-3.5291758
-3.6800118
-3.790028
-4.2130581
-5.2029057
-6.3255211
-7.35964
-8.1681834
-8.5775931
-8.5352523
-7.9342589
-6.5834585
-4.8682206
-2.8088035
-0.89323488
0.91353503
2.728081
4.0897544
4.8393431
5.1258762
5.0114136
4.4918251
3.5336271
2.0223268
0.052991971
-1.7183337
-3.1896796
-4.9401252
-6.4278491
-7.5959236
-8.006218
-8.0607901
-7.7059667
-6.8262703
-5.7780174
-4.7193389
-3.8556986
-3.509495
-3.3710032
-3.1914073
-2.9858024
-2.7562959
-2.5156998
-2.2735268
-2.0352696
-1.8032335
-1.5780985
-1.3597713
-1.1481655
-0.94334878
-0.7456313
-0.55539248
-0.37310723
-0.19926413
-0.034284697
0.12147368
0.26767948
0.40404932
0.53051695
0.6470722
0.75383171
0.85085927
0.93834099
1.0165261
1.0855572
1.1456376
1.197137
1.2399364
1.2729999
1.306938
0.777042
0.743366
0.71043305
0.66797673
0.61696051
0.55750371
0.48913447
0.41152221
0.3244049
0.22750925
0.12055102
0.0032634377
-0.12455509
-0.26302619
-0.41219238
-0.57198625
-0.742248
-0.92267899
-1.1128368
-1.3121961
-1.5201821
-1.7362322
-1.95986
-2.1907237
-2.4286927
-2.6738069
-2.9259173
-3.1837044
-3.4422371
-3.6909609
-3.9007722
-4.0837268
-4.0230359
-4.5086693
-6.1428827
-7.9007589
-9.3407972
-10.450634
-11.115183
-11.311398
-11.04154
-9.9691662
-8.3916652
-6.3747083
-4.7454255
-2.2159913
0.94305798
3.0673341
4.0356388
4.3853093
4.2542922
3.6348883
2.4362343
0.25464669
-3.0042682
-5.6967995
-6.6867737
-8.1897299
-9.5005137
-10.018311
-10.475348
-10.42618
-9.7884179
-8.6839568
-7.1981658
-5.5386051
-4.1339634
-3.7752673
-3.7734417
-3.5603336
-3.3087727
-3.0245441
-2.7361144
-2.4553832
-2.1864413
-1.92937
-1.6827725
-1.4451837
-1.215703
-0.99400241
-0.78028241
-0.57490115
-0.37840801
-0.19142346
-0.014426402
0.15218374
0.30804983
0.45295702
0.5868341
0.70984764
0.82209907
0.92375627
1.0151008
1.0963898
1.1679112
1.2299215
1.2828915
1.3267361
1.3605049
1.3945478
0.86284863
0.82919107
0.79567748
0.75236156
0.7001322
0.63898975
0.56840487
0.48799993
0.39742931
0.29631688
0.18427433
0.060938163
-0.073983493
-0.22069913
-0.37935252
-0.5499589
-0.73239337
-0.92636905
-1.1314191
-1.3469763
-1.5723971
-1.8070319
-2.0504168
-2.3024722
-2.5637579
-2.8357599
-3.1214802
-3.4250996
-3.751573
-4.1019114
-4.4700921
-5.0344628
-4.8672176
-5.3477318
-7.0702099
-9.6808728
-11.645221
-13.230623
-14.266849
-14.601224
-14.986131
-15.814028
-15.481526
-9.3892735
-12.983081
-9.5438479
-3.1997981
0.75535076
2.5134719
3.1664186
3.0471872
2.1684608
0.26790797
-3.5922338
-9.8126022
-15.436448
-14.234195
-15.123766
-15.1162
-13.853569
-13.507904
-13.339093
-12.72034
-10.984487
-8.7780042
-6.3238296
-4.742361
-4.5183685
-4.6118916
-4.0820336
-3.6913583
-3.3093965
-2.9536702
-2.6284462
-2.3285674
-2.0480658
-1.7816373
-1.5258548
-1.2788836
-1.0401536
-0.80989669
-0.58867769
-0.37726331
-0.17646852
0.013124844
0.19106989
0.35697107
0.51061266
0.65208141
0.78152403
0.89916957
1.0053424
1.1003638
1.1845927
1.2583736
1.3221062
1.3763399
1.4210537
1.4553945
1.4893115
0.955604
0.92221394
0.88831841
0.84436468
0.79115825
0.72859003
0.65607571
0.57316963
0.47941809
0.37432663
0.25739801
0.12816502
-0.01378346
-0.16878302
-0.33707973
-0.51877856
-0.71379963
-0.92187722
-1.142532
-1.3750912
-1.6187171
-1.8725044
-2.135775
-2.408438
-2.6915715
-2.9881943
-3.3055146
-3.6571038
-4.0711454
-4.5872182
-5.2985774
-6.6069707
-6.6680928
-6.6515871
-7.3503534
-10.264191
-13.173636
-15.10225
-17.218041
-18.362964
-19.338284
-22.131344
-22.779591
-11.111404
-7.1864356
-18.105145
-10.073274
-3.0340133
0.393924
1.8318334
1.7560296
0.2044403
-3.1709579
-9.9555555
-19.675741
-16.926302
-6.3730182
-22.028863
-19.381263
-16.511052
-16.809928
-16.48028
-15.154111
-12.653668
-9.6685376
-6.6160365
-5.982417
-6.1992751
-6.1046794
-4.7551847
-4.1312765
-3.5957191
-3.153197
-2.7826899
-2.4563239
-2.1570545
-1.8740792
-1.6018187
-1.337864
-1.0817735
-0.83417616
-0.59614878
-0.36885284
-0.15337028
0.049542378
0.23930488
0.41555881
0.57811012
0.72718923
0.86302631
0.98592787
1.0963845
1.1948537
1.2817688
1.3575605
1.4227529
1.4779745
1.5233182
1.5580327
1.5915696
1.0556106
1.0227935
0.98872094
0.94439135
0.89051158
0.82684781
0.75275893
0.66771194
0.57113173
0.462399
0.3408868
0.2059969
0.057174242
-0.10607332
-0.28411645
-0.47717015
-0.68525053
-0.90813076
-1.1452949
-1.3959212
-1.6588976
-1.9328705
-2.2165181
-2.5091004
-2.8115053
-3.1275241
-3.4678756
-3.8557039
-4.3485966
-5.0547212
-6.272779
-7.6420047
-8.0793393
-6.9913809
-8.5307187
-7.066748
-14.239988
-17.891858
-22.387496
-26.18568
-28.261258
-31.671066
-36.821408
-26.580536
-21.564402
-28.15753
-17.574072
-7.1012795
-1.4273246
1.3498013
1.3266322
-1.4138762
-6.6779018
-16.267272
-28.452519
-28.49736
-23.317047
-35.311296
-28.79316
-23.679121
-23.673667
-21.850757
-19.250338
-14.028062
-6.178013
-7.9238683
-6.8154142
-7.8123733
-7.458648
-6.0088262
-4.6258434
-3.8408831
-3.3074956
-2.9050508
-2.5653561
-2.2563626
-1.9617982
-1.6750081
-1.3941004
-1.1196366
-0.85324209
-0.59692194
-0.35241656
-0.12111441
0.095940171
0.29810442
0.48497559
0.65661977
0.81327166
0.95535757
1.0833281
1.1977456
1.299309
1.3885583
1.4660661
1.532412
1.5883043
1.6339989
1.6688247
1.7016581
1.1631295
1.1312319
1.0972238
1.0528303
0.99865092
0.93429198
0.85904846
0.77229836
0.67334087
0.56141752
0.43574201
0.2955465
0.14010659
-0.031242592
-0.21904873
-0.42369774
-0.64536191
-0.88390162
-1.1387713
-1.4089859
-1.6931152
-1.9891506
-2.2947478
-2.6077243
-2.9272738
-3.2555593
-3.6035013
-4.0005634
-4.5212716
-5.2283123
-6.4706677
-7.5044445
-5.4647033
-6.7738551
-6.4518542
-9.4157077
-12.645748
-19.664162
-25.879437
-35.262702
-46.173262
-57.442221
-46.284471
-53.072888
-47.351009
-38.067477
-22.581549
-9.9610835
-1.6585968
3.3413402
3.3176592
-1.5780048
-9.2450841
-20.74278
-35.869526
-48.322606
-57.186317
-39.128616
-41.655561
-44.499458
-37.067314
-29.00658
-22.5435
-11.024416
-8.4244334
-7.4568237
-5.7900316
-5.4684186
-6.1557938
-6.2878077
-4.7679541
-3.9274669
-3.3782232
-2.9854882
-2.6576831
-2.351762
-2.0505532
-1.7498663
-1.4504166
-1.1551038
-0.86739223
-0.59047433
-0.32689033
-0.07839212
0.1537923
0.36893473
0.5667536
0.74749313
0.91159166
1.0596429
1.1923041
1.3103234
1.4145232
1.5056575
1.5844709
1.6515792
1.7077584
1.7534751
1.788134
1.8198819
1.2783875
1.2477944
1.2141527
1.1700588
1.1159958
1.0514102
0.97552034
0.88760556
0.7868325
0.67228079
0.54298615
0.3979797
0.23633332
0.057167425
-0.1403089
-0.35673039
-0.59249315
-0.84763911
-1.1217054
-1.4136204
-1.7216401
-2.0430695
-2.3743586
-2.7113792
-3.0502633
-3.3881324
-3.727973
-4.0962452
-4.5370229
-5.1448883
-6.0875912
-6.4227138
-4.0988916