/*--------------------------------*- C++ -*----------------------------------*\
  =========                 |
  \\      /  F ield         | OpenFOAM: The Open Source CFD Toolbox
   \\    /   O peration     | Website:  https://openfoam.org
    \\  /    A nd           | Version:  9
     \\/     M anipulation  |
\*---------------------------------------------------------------------------*/
FoamFile
{
    format      ascii;
    class       surfaceScalarField;
    location    "0.23";
    object      phi;
}
// * * * * * * * * * * * * * * * * * * * * * * * * * * * * * * * * * * * * * //

dimensions      [0 3 -1 0 0 0 0];

internalField   nonuniform List<scalar> 
19800
(
0.00015618816
-0.00015095129
0.0002366255
-0.00015100912
0.00031699446
-0.00015118439
0.00039725524
-0.00015136285
0.00047733085
-0.0001514172
0.00055720251
-0.00015147255
0.00063680579
-0.00015151081
0.00071609406
-0.00015149205
0.00079498705
-0.0001514236
0.00087340821
-0.00015129576
0.00095127934
-0.00015108771
0.0010284893
-0.00015079857
0.0011049229
-0.0001504105
0.0011804502
-0.00014989979
0.0012549228
-0.0001492533
0.0013281514
-0.00014843221
0.0013999227
-0.00014739077
0.001470032
-0.00014607506
0.0015382794
-0.00014443682
0.001604398
-0.00014239029
0.0016680699
-0.00013985072
0.0017289514
-0.00013672021
0.0017866502
-0.00013289298
0.0018407366
-0.00012819704
0.0018906861
-0.00012248936
0.0019358882
-0.00011560532
0.0019756219
-0.00010737465
0.002009253
-9.7377482e-05
0.002036097
-8.5372157e-05
0.002055339
-7.1150568e-05
0.0020661102
-5.4355932e-05
0.0020674072
-3.4379538e-05
0.0020591151
-1.1450321e-05
0.0020458065
1.2531917e-05
0.002018818
3.9400878e-05
0.0019783362
6.7212248e-05
0.0019241416
9.6502572e-05
0.0018558405
0.00012742928
0.0017731088
0.00015979543
0.001675788
0.00019301168
0.0015638696
0.00022668527
0.0014376864
0.00026033436
0.0012978247
0.0002930813
0.0011450447
0.00032408531
0.00098043127
0.00035258178
0.00080533563
0.00037779977
0.00062130659
0.00039899746
0.00043009487
0.00041556206
0.00023359803
0.00042706317
3.3818515e-05
0.00043331478
-0.00016644408
0.00043413434
-0.00036426077
0.00042948608
-0.00055748222
0.00041952963
-0.00074416342
0.00040444903
-0.00092249829
0.00038461152
-0.0010908744
0.00036056325
-0.0012478821
0.00033301311
-0.0013923414
0.00030277112
-0.0015233307
0.0002707182
-0.0016402089
0.00023757739
-0.0017425896
0.00020395096
-0.0018303736
0.00017057966
-0.00190365
0.00013803096
-0.001962685
0.00010678248
-0.0020078404
7.7096373e-05
-0.0020393996
4.8863521e-05
-0.0020570675
2.1714812e-05
-0.0020673711
-3.73072e-06
-0.0020697554
-2.6425203e-05
-0.0020623862
-4.7827653e-05
-0.0020463328
-6.5783747e-05
-0.0020224019
-8.1020877e-05
-0.0019913069
-9.3919057e-05
-0.0019537164
-0.00010473658
-0.0019103188
-0.00011364518
-0.0018617552
-0.00012104892
-0.0018086815
-0.00012731145
-0.0017516467
-0.00013250064
-0.0016911247
-0.00013679503
-0.0016275409
-0.00014033043
-0.0015612704
-0.00014323526
-0.0014926402
-0.00014562683
-0.0014219803
-0.00014756901
-0.0013495212
-0.00014913466
-0.0012754633
-0.00015039461
-0.0012000206
-0.00015139401
-0.001123414
-0.00015218649
-0.0010458247
-0.00015280102
-0.00096739663
-0.00015327443
-0.00088825563
-0.00015363409
-0.00080851689
-0.00015389862
-0.00072828077
-0.00015407847
-0.0006476399
-0.00015418553
-0.00056666285
-0.00015422652
-0.00048541251
-0.00015420964
-0.00040394617
-0.00015415669
-0.00032228746
-0.00015409967
-0.00024049593
-0.00015398016
-0.0001586443
-0.0001537744
-0.00015376096
0.0001557857
-0.00023146719
0.00023624565
-0.00023148144
0.00031664954
-0.0002315848
0.0003969108
-0.00023162879
0.00047700784
-0.00023150717
0.00055688816
-0.00023136423
0.00063652069
-0.00023113719
0.00071583589
-0.00023080876
0.00079477059
-0.00023036467
0.00087325424
-0.00022977249
0.00095118192
-0.00022901926
0.00102846
-0.00022808111
0.0011049822
-0.00022693027
0.0011806116
-0.00022553288
0.0012552027
-0.00022384538
0.00132862
-0.00022184384
0.0014006752
-0.00021944432
0.0014711569
-0.00021655647
0.0015398355
-0.00021311225
0.0016064867
-0.00020904063
0.0016707942
-0.00020415872
0.0017324745
-0.00019839731
0.0017911199
-0.00019153427
0.001846335
-0.00018341091
0.0018976396
-0.00017379344
0.001944456
-0.00016241987
0.0019861263
-0.00014904279
0.0020220958
-0.00013334472
0.0020515756
-0.0001148489
0.0020737522
-9.3324058e-05
0.0020879398
-6.8541929e-05
0.002093833
-4.0273309e-05
0.0020909844
-8.6022931e-06
0.002076996
2.6521807e-05
0.0020517515
6.464621e-05
0.0020135455
0.00010541578
0.0019614221
0.00014862425
0.0018948026
0.0001940507
0.0018132103
0.00024138988
0.0017162839
0.00028994013
0.0016039693
0.0003390017
0.0014765753
0.00038772773
0.001334529
0.00043512744
0.0011785509
0.00048006309
0.0010097584
0.00052137373
0.0008295993
0.00055796061
0.000639813
0.00058878254
0.0004424408
0.00061293078
0.00023981667
0.00062968354
3.4630233e-05
0.00063849889
-0.00017093739
0.00063970253
-0.00037477677
0.00063332388
-0.00057420635
0.00061895859
-0.00076679954
0.00059703972
-0.00095041985
0.00056823297
-0.0011232405
0.00053338393
-0.0012837285
0.00049350437
-0.0014306747
0.00044971633
-0.0015631614
0.00040320586
-0.0016805849
0.00035499937
-0.001782699
0.00030606805
-0.0018695213
0.00025740352
-0.0019412468
0.00020975912
-0.0019983368
0.00016387272
-0.002041296
0.00012005462
-0.0020709563
7.8523517e-05
-0.0020887823
3.9540113e-05
-0.0020959738
3.4619227e-06
-0.0020931565
-2.9241932e-05
-0.0020821509
-5.8833653e-05
-0.0020629833
-8.4952582e-05
-0.0020362763
-0.00010772898
-0.0020027555
-0.00012744247
-0.0019631214
-0.00014437221
-0.0019180024
-0.00015876683
-0.001867986
-0.00017106682
-0.0018137035
-0.0001815919
-0.0017556492
-0.00019055387
-0.0016942874
-0.00019815639
-0.0016300235
-0.00020459094
-0.0015631678
-0.00021008951
-0.0014940828
-0.0002147107
-0.0014230221
-0.00021863023
-0.0013502098
-0.00022194537
-0.001275897
-0.00022470778
-0.0012002978
-0.00022699244
-0.0011235804
-0.00022890561
-0.0010458824
-0.00023049735
-0.00096735731
-0.0002317979
-0.00088813916
-0.00023285057
-0.00080834225
-0.00023369393
-0.00072805755
-0.00023436029
-0.00064737507
-0.00023486745
-0.00056636707
-0.00023523475
-0.00048509422
-0.00023548069
-0.00040361038
-0.0002356356
-0.00032195249
-0.00023574978
-0.00024016421
-0.00023576278
-0.00015831279
-0.00023562574
-0.00023564656
0.00015584052
-0.00031203818
0.00023633359
-0.00031197091
0.00031678235
-0.00031203575
0.00039709457
-0.00031193212
0.00047725388
-0.0003116766
0.00055723731
-0.00031134213
0.00063697994
-0.00031087913
0.00071642136
-0.00031025575
0.00079550622
-0.00030944174
0.00087415022
-0.00030841669
0.00095227394
-0.00030714601
0.0010297859
-0.00030558969
0.0011065633
-0.00030370983
0.0011825005
-0.00030147211
0.0012575408
-0.00029888094
0.0013314305
-0.00029573128
0.0014039744
-0.0002919882
0.0014749754
-0.00028755502
0.0015443443
-0.00028248008
0.0016118364
-0.00027653381
0.0016771088
-0.00026942937
0.0017399585
-0.00026124373
0.0017999226
-0.00025149757
0.0018567497
-0.00024023815
0.0019098733
-0.00022691615
0.0019588092
-0.00021135487
0.0020029039
-0.00019313618
0.0020414889
-0.00017192701
0.0020739401
-0.00014729811
0.0020994843
-0.00011886865
0.0021172678
-8.6325302e-05
0.0021264943
-4.9497774e-05
0.0021261256
-8.2325493e-06
0.0021150428
3.7604535e-05
0.0020924334
8.7256417e-05
0.0020567521
0.00014109699
0.0020069881
0.00019838789
0.0019423391
0.00025870226
0.0018621816
0.00032155062
0.0017660464
0.00038607672
0.0016536377
0.00045140988
0.0015250117
0.0005163503
0.0013806955
0.00057944213
0.0012213853
0.00063937486
0.0010480902
0.00069466805
0.0008622913
0.00074375802
0.00066584807
0.00078522287
0.00046097114
0.00081780627
0.00025015101
0.000840505
3.602631e-05
0.00085262475
-0.00017858351
0.00085431452
-0.00039082171
0.00084556108
-0.00059798727
0.00082612494
-0.0007974806
0.00079653157
-0.00098701735
0.00075777068
-0.0011646671
0.00071103164
-0.0013288522
0.00065769174
-0.0014783729
0.00059923753
-0.0016123048
0.00053714146
-0.0017301859
0.00047287977
-0.0018318078
0.00040769202
-0.0019173476
0.00034294216
-0.0019873336
0.00027974679
-0.0020421543
0.00021869222
-0.0020826694
0.00016056876
-0.0021098452
0.00010569637
-0.0021248943
5.4594425e-05
-0.0021296399
8.2070975e-06
-0.002123775
-3.5106033e-05
-0.0021092047
-7.34032e-05
-0.0020866501
-0.00010750507
-0.0020568446
-0.00013753349
-0.0020205132
-0.0001637758
-0.0019784434
-0.00018644171
-0.0019311472
-0.00020606114
-0.001879261
-0.00022295315
-0.0018232997
-0.0002375525
-0.0017639023
-0.00024994846
-0.001701315
-0.00026074285
-0.0016359531
-0.00026995032
-0.0015682723
-0.00027776975
-0.0014983707
-0.00028461233
-0.0014266945
-0.00029030678
-0.0013534037
-0.00029523216
-0.0012785975
-0.00029951249
-0.0012025158
-0.00030307178
-0.0011253619
-0.00030606098
-0.0010473531
-0.00030850643
-0.00096857491
-0.00031057362
-0.00088913361
-0.00031229033
-0.0008091382
-0.00031369024
-0.00072868768
-0.00031480899
-0.00064786827
-0.0003156862
-0.00056674839
-0.00031635207
-0.00048538553
-0.00031684333
-0.00040382937
-0.0003171877
-0.00032213136
-0.00031744828
-0.00024030601
-0.00031758371
-0.00015843077
-0.00031749973
-0.00031757867
0.00015586109
-0.00039263828
0.00023642197
-0.00039253643
0.00031696323
-0.00039256828
0.00039735237
-0.00039233114
0.00047762856
-0.00039194824
0.00055774077
-0.00039145321
0.00063763605
-0.00039078077
0.00071726725
-0.00038988055
0.00079656581
-0.00038873895
0.0008754658
-0.00038731936
0.00095388983
-0.00038556627
0.0010317428
-0.00038344293
0.001108931
-0.00038089988
0.0011853421
-0.00037787881
0.0012607876
-0.00037432312
0.0013351617
-0.00037010555
0.0014083533
-0.00036517847
0.0014802288
-0.0003594301
0.0015505204
-0.00035277394
0.0016189863
-0.00034500013
0.0016855139
-0.00033595471
0.0017497081
-0.00032543736
0.0018113695
-0.00031315974
0.0018700153
-0.00029888341
0.0019253252
-0.00028222477
0.0019767738
-0.0002628027
0.0020238014
-0.00024016267
0.002065778
-0.00021390153
0.0021019899
-0.0001835093
0.0021315911
-0.0001484708
0.0021536694
-0.000108403
0.0021671765
-6.3001057e-05
0.0021709385
-1.1992602e-05
0.0021643875
4.4153823e-05
0.0021455991
0.00010604466
0.0021133445
0.0001733537
0.0020666364
0.00024509736
0.0020043971
0.00032094357
0.0019257485
0.0004002006
0.0018300704
0.00048175386
0.0017170595
0.00056441961
0.0015866817
0.0006467255
0.0014391474
0.00072697409
0.0012751607
0.0008033618
0.001095894
0.00087393266
0.00090280703
0.00093684317
0.00069787973
0.00099014971
0.0004835435
0.0010321445
0.00026251737
0.0010615356
3.7742149e-05
0.0010774014
-0.0001875632
0.0010796213
-0.00041014484
0.0010681411
-0.00062697268
0.001042954
-0.00083527848
0.001004836
-0.0010325384
0.00095503139
-0.0012166275
0.00089511887
-0.0013858444
0.00082691151
-0.0015389155
0.00075231121
-0.0016750496
0.00067328115
-0.0017938647
0.00059169379
-0.0018953702
0.00050919702
-0.0019797934
0.00042736149
-0.0020475855
0.00034753856
-0.0020996453
0.00027075305
-0.0021368653
0.00019779014
-0.0021603179
0.00012914667
-0.0021714999
6.5776608e-05
-0.0021712772
7.9893915e-06
-0.0021616069
-4.4773426e-05
-0.0021429054
-9.2103846e-05
-0.0021162851
-0.00013412445
-0.0020827086
-0.00017110935
-0.0020430324
-0.00020345002
-0.0019979052
-0.00023156852
-0.0019479523
-0.00025601209
-0.0018937181
-0.00027718517
-0.0018358834
-0.00029538536
-0.0017746812
-0.00031114787
-0.0017106447
-0.00032478029
-0.0016440499
-0.00033654436
-0.0015751509
-0.00034666884
-0.0015043425
-0.00035542023
-0.0014317176
-0.00036292921
-0.0013575674
-0.00036937791
-0.0012821625
-0.00037491726
-0.0012056006
-0.00037963257
-0.0011280309
-0.00038363002
-0.001049565
-0.00038697225
-0.00097037857
-0.00038976134
-0.0008905896
-0.00039207829
-0.000810303
-0.00039397644
-0.00072960648
-0.00039550355
-0.00064857251
-0.00039671681
-0.00056727791
-0.00039764565
-0.0004857658
-0.00039835204
-0.00040409184
-0.00039886192
-0.00032229682
-0.00039924382
-0.00024040097
-0.00039947662
-0.00015846279
-0.00039943851
-0.00039953576
0.0001558815
-0.00047329245
0.00023653909
-0.00047318742
0.00031716158
-0.00047320158
0.00039769581
-0.00047286139
0.00047813439
-0.00047238567
0.00055842326
-0.00047174917
0.0006385247
-0.00047087748
0.000718396
-0.00046975045
0.00079797338
-0.00046831985
0.0008772029
-0.00046654651
0.0009559976
-0.00046436147
0.001034274
-0.0004617226
0.0011119407
-0.00045856414
0.0011888834
-0.00045481862
0.0012649716
-0.00045041202
0.001340113
-0.00044524692
0.001414163
-0.00043922881
0.0014869755
-0.00043224584
0.0015583456
-0.00042414642
0.0016281306
-0.0004147845
0.0016961212
-0.00040394492
0.0017621261
-0.00039144307
0.0018258223
-0.0003768557
0.0018869039
-0.00035996379
0.0019450111
-0.00034033071
0.0019997204
-0.00031751101
0.0020504847
-0.00029092595
0.0020966461
-0.00026006233
0.002137444
-0.00022430637
0.0021720961
-0.00018312198
0.0021995366
-0.0001358425
0.0022186266
-8.2089465e-05
0.0022282506
-2.161595e-05
0.0022267201
4.5682536e-05
0.0022129026
0.00011986161
0.0021853147
0.00020094408
0.0021425995
0.00028781383
0.0020835457
0.00037999745
0.0020071121
0.00047663407
0.0019124528
0.00057641144
0.0017989833
0.00067788867
0.0016663831
0.00077932514
0.0015148887
0.00087846553
0.0013450403
0.00097320843
0.0011579225
0.0010610484
0.00095526777
0.0011394982
0.00073927126
0.0012061489
0.00051255488
0.001258863
0.00027829458
0.0012957987
3.9969774e-05
0.0013157261
-0.00019892763
0.0013185206
-0.00043491199
0.0013041245
-0.00066445287
0.0012724956
-0.00088430447
0.0012246852
-0.0010916266
0.0011623543
-0.0012840333
0.0010875266
-0.0014596861
0.0010025695
-0.0016173269
0.0009099538
-0.0017562012
0.00081215618
-0.0018760857
0.00071157369
-0.0019770132
0.00061012298
-0.0020595322
0.00050988284
-0.0021244128
0.00041242141
-0.0021726741
0.00031901663
-0.0022055235
0.0002306344
-0.0022242485
0.00014787355
-0.0022302812
7.1811473e-05
-0.0022247719
2.4841632e-06
-0.0022094
-6.0145016e-05
-0.0021853594
-0.0001161439
-0.0021537498
-0.00016573316
-0.0021155236
-0.00020933473
-0.0020715851
-0.0002473863
-0.0020226258
-0.00028052748
-0.0019693162
-0.00030931906
-0.0019122804
-0.0003342192
-0.0018518509
-0.00035581603
-0.0017884751
-0.00037452208
-0.001722514
-0.00039074155
-0.0016542629
-0.00040479564
-0.0015839752
-0.00041695564
-0.001511907
-0.00042748615
-0.0014382412
-0.00043659333
-0.0013631741
-0.00044444466
-0.0012869008
-0.00045119042
-0.0012095751
-0.00045695453
-0.0011313512
-0.00046185159
-0.0010523455
-0.00046597727
-0.00097267862
-0.0004694269
-0.00089246842
-0.00047228641
-0.0008118118
-0.00047462931
-0.00073080173
-0.00047651613
-0.00064950514
-0.00047801324
-0.00056798169
-0.00047917567
-0.00048627364
-0.00048005641
-0.00040444321
-0.00048069
-0.00032250867
-0.00048117517
-0.00024051601
-0.00048146946
-0.0001584918
-0.00048146426
-0.00048154318
0.00015595469
-0.00055402536
0.00023671032
-0.00055395533
0.00031744887
-0.0005539357
0.00039814001
-0.00055355261
0.00047875119
-0.00055300475
0.00055926562
-0.00055226026
0.0006396387
-0.00055125005
0.00071981925
-0.00054993551
0.0007997661
-0.00054826561
0.00087938993
-0.00054617136
0.00095864402
-0.00054362025
0.0010374498
-0.00054052816
0.0011157139
-0.00053682631
0.0011933335
-0.00053243976
0.0012702027
-0.00052728239
0.0013462178
-0.000521263
0.0014212427
-0.00051425744
0.0014951948
-0.00050620179
0.0015678808
-0.00049683319
0.0016391804
-0.00048608423
0.0017089397
-0.000473705
0.0017769291
-0.00045943211
0.0018429979
-0.00044292296
0.0019068635
-0.00042382869
0.0019682141
-0.00040168122
0.0020266285
-0.00037592428
0.0020816944
-0.00034599114
0.0021327168
-0.00031108489
0.0021790002
-0.00027058883
0.0022196267
-0.00022374665
0.0022535062
-0.00016972249
0.0022793711
-0.00010795649
0.0022957665
-3.8012095e-05
0.0023010815
4.0367101e-05
0.0022938645
0.00012707765
0.0022723849
0.0002224242
0.0022350211
0.00032517789
0.0021803
0.00043471855
0.0021068927
0.00055004292
0.0020137613
0.00066954229
0.0019000261
0.0007916223
0.001765254
0.00091409617
0.0016092321
0.0010344843
0.0014324313
0.0011500079
0.0012359713
0.0012575082
0.0010215634
0.0013539074
0.00079168606
0.0014360293
0.00054945658
0.0015010933
0.00029847063
0.0015467862
4.2767173e-05
0.0015714284
-0.00021359835
0.0015748881
-0.00046655888
0.0015570844
-0.00071200996
0.0015179459
-0.00094621703
0.0014588889
-0.0011658921
0.0013820295
-0.0013683857
0.0012900226
-0.0015517296
0.0011859175
-0.0017147314
0.0010729554
-0.0018565883
0.00095401105
-0.0019772429
0.00083222676
-0.002077188
0.00071007
-0.0021571153
0.00058981063
-0.002218034
0.00047333783
-0.0022612316
0.00036221403
-0.0022881999
0.00025760421
-0.0023004761
0.00016015162
-0.0022997423
7.1080937e-05
-0.0022876441
-9.6119819e-06
-0.0022656546
-8.2135232e-05
-0.0022352075
-0.00014658903
-0.0021975764
-0.00020336397
-0.002153933
-0.00025297884
-0.0021050662
-0.00029625043
-0.0020517578
-0.00033383374
-0.0019946591
-0.000366415
-0.0019342146
-0.00039466217
-0.0018708524
-0.00041918087
-0.0018049605
-0.00044041431
-0.0017368169
-0.00045888448
-0.0016666309
-0.00047498041
-0.0015946974
-0.00048889048
-0.0015211602
-0.00050102325
-0.0014462
-0.00051155303
-0.0013700109
-0.00052063056
-0.0012927367
-0.00052846245
-0.0012145246
-0.00053516633
-0.0011355099
-0.00054086644
-0.0010558121
-0.00054567726
-0.00097554328
-0.00054969842
-0.00089480882
-0.00055302248
-0.00081369928
-0.00055573745
-0.00073228776
-0.00055792759
-0.0006506499
-0.00055965267
-0.00056883514
-0.00056099015
-0.00048689796
-0.0005619952
-0.00040487163
-0.00056272218
-0.00032278409
-0.00056325905
-0.00024066513
-0.00056358537
-0.00015853333
-0.00056359403
-0.00056363505
0.00015601222
-0.00063487541
0.00023691214
-0.00063484947
0.00031779281
-0.0006348165
0.00039866576
-0.00063443334
0.00047950431
-0.00063383983
0.00056027663
-0.00063303249
0.0006409522
-0.00063193074
0.00072148774
-0.00063047068
0.00080184008
-0.00062861924
0.00088195514
-0.00062629184
0.00096175981
-0.000623426
0.0010411811
-0.00061994815
0.0011201424
-0.00061578905
0.0011985501
-0.00061084882
0.0012763083
-0.00060504118
0.001353315
-0.00059827287
0.0014294849
-0.00059043156
0.0015046669
-0.0005813855
0.001578814
-0.00057098062
0.0016517899
-0.00055906091
0.0017234854
-0.00054540058
0.0017937498
-0.00052969517
0.0018624494
-0.00051162209
0.0019293899
-0.00049077053
0.0019943797
-0.00046667214
0.0020570435
-0.00043858766
0.002116959
-0.00040590603
0.0021736889
-0.00036781518
0.0022263751
-0.00032327552
0.0022740537
-0.00027142527
0.0023156281
-0.00021129861
0.0023496598
-0.00014199134
0.0023745028
-6.2855893e-05
0.0023882754
2.6595125e-05
0.0023891836
0.00012616813
0.0023753033
0.00023630382
0.0023446426
0.00035583948
0.0022954563
0.00048390592
0.0022262213
0.00061928005
0.0021354008
0.00076036269
0.0020218375
0.00090518275
0.0018847792
0.0010511528
0.0017237549
0.0011955065
0.0015390322
0.0013347299
0.0013315163
0.0014650244
0.0011030535
0.0015823707
0.00085639928
0.0016826867
0.00059513483
0.0017623597
0.00032350199
0.001818422
4.6247575e-05
0.0018486815
-0.00023177949
0.001852914
-0.00050572562
0.0018310276
-0.00077075405
0.0017829721
-0.0010224358
0.0017105688
-0.0012570129
0.0016166053
-0.001471531
0.0015045404
-0.0016638379
0.0013782241
-0.001832664
0.0012417819
-0.001977656
0.0010990066
-0.00209892
0.00095348957
-0.0021971434
0.0008082948
-0.002273478
0.00066614055
-0.0023291954
0.00052905762
-0.002365984
0.00039900166
-0.0023856043
0.00027722624
-0.0023899416
0.00016448887
-0.0023809838
6.2124764e-05
-0.0023605239
-3.007143e-05
-0.0023304572
-0.00011220149
-0.0022924021
-0.0001846431
-0.0022477743
-0.00024799175
-0.0021976985
-0.00030305496
-0.0021431199
-0.00035082597
-0.0020848018
-0.00039214934
-0.0020233214
-0.00042789394
-0.0019590665
-0.00045891489
-0.0018924885
-0.00048575732
-0.0018237347
-0.00050916567
-0.0017531436
-0.00052947569
-0.0016808718
-0.00054725185
-0.0016070295
-0.00056273514
-0.0015318345
-0.00057621663
-0.0014554372
-0.00058794844
-0.0013779471
-0.00059811814
-0.0012995226
-0.00060688602
-0.0012202862
-0.00061440124
-0.0011403609
-0.00062079246
-0.0010598573
-0.00062618294
-0.00097888585
-0.00063067493
-0.00089752897
-0.00063437823
-0.00081587919
-0.00063738795
-0.00073400786
-0.00063979404
-0.00065198062
-0.00064168266
-0.00056983683
-0.00064313422
-0.00048762381
-0.00064420873
-0.00040536817
-0.00064497698
-0.00032309671
-0.00064552968
-0.00024083382
-0.0006458496
-0.00015856507
-0.00064585926
-0.00064583614
0.00015606466
-0.00071584734
0.00023711205
-0.00071589697
0.00031815626
-0.00071586615
0.00039924361
-0.00071551525
0.00048032349
-0.00071491908
0.00056138431
-0.00071409748
0.00064240704
-0.00071295228
0.00072335692
-0.0007114211
0.00080417972
-0.0007094471
0.00088483532
-0.0007069488
0.00096526271
-0.000703852
0.0010453938
-0.00070008009
0.0011251368
-0.00069553262
0.0012044239
-0.00069013522
0.0012831684
-0.00068378724
0.0013612795
-0.00067638736
0.0014386649
-0.0006678185
0.0015152491
-0.00065797012
0.0015909621
-0.00064669462
0.0016657259
-0.00063382513
0.0017395126
-0.00061918658
0.0018121771
-0.00060236008
0.0018837103
-0.00058315762
0.0019540103
-0.0005610732
0.0020229236
-0.00053558723
0.002090283
-0.00050594792
0.0021557495
-0.00047137251
0.0022187981
-0.00043086418
0.0022787958
-0.00038327501
0.002334756
-0.00032738722
0.0023854483
-0.00026199185
0.002429252
-0.00018579635
0.0024642889
-9.7893194e-05
0.0024884504
2.4342507e-06
0.0024994098
0.00011520854
0.0024950786
0.00024063577
0.0024728614
0.00037805918
0.0024308381
0.00052592935
0.0023670247
0.00068309225
0.0022796283
0.00084775825
0.0021671003
0.0010177091
0.0020280531
0.0011901998
0.0018617306
0.001361828
0.0016679625
0.0015284971
0.0014474991
0.0016854888
0.0012023075
0.0018275636
0.00093541046
0.0019495877
0.00065098384
0.0020467882
0.00035412627
0.0021152816
5.0513031e-05
0.0021522926
-0.00025401563
0.0021574382
-0.00055361381
0.0021306211
-0.00084249062
0.0020718457
-0.0011153789
0.0019834566
-0.0013678252
0.0018690508
-0.001596453
0.0017331681
-0.0017990196
0.0015807923
-0.0019743572
0.0014171171
-0.0021223387
0.0012469889
-0.0022435217
0.0010746689
-0.0023390553
0.00090382988
-0.0024104064
0.00073748849
-0.0024594196
0.00057807079
-0.0024880327
0.00042761761
-0.0024983276
0.00028752004
-0.0024927633
0.00015892445
-0.0024736226
4.2985154e-05
-0.0024431023
-6.0590128e-05
-0.0024033699
-0.00015193273
-0.0023563197
-0.00023169239
-0.0023034561
-0.00030085415
-0.0022460324
-0.00036047688
-0.0021850052
-0.00041185134
-0.0021210991
-0.00045605485
-0.002054786
-0.00049420634
-0.0019864187
-0.00052727993
-0.001916258
-0.00055591601
-0.0018445039
-0.0005809199
-0.0017712344
-0.00060274768
-0.0016966288
-0.00062185798
-0.001620739
-0.00063862228
-0.0015437583
-0.00065319618
-0.0014657529
-0.00066595588
-0.0013868376
-0.0006770327
-0.0013071284
-0.00068659608
-0.0012267431
-0.00069478785
-0.0011457957
-0.00070174687
-0.0010643849
-0.00070759451
-0.00098260335
-0.0007124554
-0.00090054581
-0.00071643304
-0.00081828825
-0.00071964669
-0.00073589971
-0.00072219005
-0.00065342562
-0.00072415855
-0.00057091197
-0.00072564425
-0.00048839309
-0.00072672812
-0.00040588583
-0.00072748368
-0.0003234096
-0.00072800759
-0.00024098324
-0.00072827423
-0.00015857751
-0.00072826463
-0.00072815802
0.00015609024
-0.00079696693
0.00023729032
-0.00079710009
0.0003185173
-0.00079708421
0.00039982594
-0.00079682251
0.00048116287
-0.00079625888
0.00056255013
-0.00079548173
0.00064395133
-0.00079435264
0.00072534353
-0.00079281733
0.00080669303
-0.00079079751
0.00088795345
-0.00078820753
0.00096906534
-0.00078496415
0.0010499722
-0.0007809867
0.0011305958
-0.00077615428
0.0012108502
-0.00077038973
0.0012906781
-0.00076361736
0.0013699693
-0.00075567961
0.0014486776
-0.0007465269
0.0015267325
-0.00073602593
0.0016040889
-0.000724052
0.0016807538
-0.00071048994
0.0017566186
-0.00069505213
0.0018317926
-0.00067753721
0.0019062618
-0.00065763044
0.0019800577
-0.00063487141
0.0020531698
-0.00060870105
0.0021255359
-0.00057831593
0.0021969765
-0.00054281389
0.0022671535
-0.00050104108
0.0023354478
-0.00045157012
0.0024009573
-0.00039289762
0.0024622814
-0.00032331528
0.002517732
-0.00024124637
0.0025651111
-0.00014527259
0.0026018565
-3.4310293e-05
0.0026251106
9.1955843e-05
0.002632606
0.00023314172
0.0026210596
0.00038960776
0.0025881822
0.00055880644
0.0025315654
0.00073970668
0.0024490727
0.00093025027
0.0023386308
0.0011281508
0.0021983993
0.0013304314
0.0020268299
0.0015333968
0.0018231465
0.0017321798
0.0015878418
0.0019207963
0.0013228187
0.0020925897
0.0010315794
0.0022408303
0.00071908846
0.0023592789
0.00039148606
0.002442882
5.5691363e-05
0.0024880845
-0.00028120386
0.0024943293
-0.00061207582
0.0024614907
-0.00092988819
0.0023896555
-0.0012282889
0.0022818565
-0.0015019535
0.0021427154
-0.0017470235
0.0019782382
-0.001961074
0.0017948435
-0.0021431857
0.0015992275
-0.0022937119
0.0013975122
-0.0024138123
0.0011947679
-0.0025051924
0.00099520903
-0.0025698977
0.00080219351
-0.0026101233
0.00061829496
-0.0026283712
0.00044586773
-0.0026269646
0.00028611113
-0.0026092124
0.00014117516
-0.0025776783
1.14538e-05
-0.0025349954
-0.00010327028
-0.0024837603
-0.00020316627
-0.0024261034
-0.00028934759
-0.0023638182
-0.00036313931
-0.0022981286
-0.00042616445
-0.0022299727
-0.00048000508
-0.0021599283
-0.00052609661
-0.0020883949
-0.0005657379
-0.0020156545
-0.00060001996
-0.0019417339
-0.00062983718
-0.0018667396
-0.00065591821
-0.0017906981
-0.00067878943
-0.0017136436
-0.00069891161
-0.0016356539
-0.00071661126
-0.0015567328
-0.00073211497
-0.0014769942
-0.00074569067
-0.0013965256
-0.00075750052
-0.0013154225
-0.00076770141
-0.0012337758
-0.00077643564
-0.0011516957
-0.00078382659
-0.0010692733
-0.00079001589
-0.00098660361
-0.00079512341
-0.00090376906
-0.00079926889
-0.00082083777
-0.00080257384
-0.00073787265
-0.00080515646
-0.00065491566
-0.00080711807
-0.00057200427
-0.00080856279
-0.00048915029
-0.00080958067
-0.00040637925
-0.00081025051
-0.00032368365
-0.00081070539
-0.0002410939
-0.00081086301
-0.00015855202
-0.00081080342
-0.00081060464
0.00015607765
-0.00087822844
0.00023742212
-0.00087843349
0.00031882635
-0.00087848699
0.00040035127
-0.00087834907
0.00048197527
-0.00087787854
0.00056368716
-0.00087719185
0.00064549488
-0.0008761635
0.00072737697
-0.00087469999
0.00080930149
-0.00087272058
0.00089122821
-0.00087013476
0.00097310935
-0.00086684511
0.0010548539
-0.00086272896
0.0011364239
-0.00085772375
0.0012177388
-0.0008517065
0.0012986994
-0.00084457902
0.0013792633
-0.00083624336
0.0014593542
-0.00082661854
0.0015389285
-0.00081560135
0.0016179662
-0.00080309
0.0016964883
-0.00078901291
0.001774515
-0.00077308134
0.001852172
-0.00075519746
0.0019295748
-0.00073503572
0.002006885
-0.00071218312
0.0020842724
-0.00068608987
0.0021618662
-0.00065591113
0.0022396952
-0.00062064338
0.0023175911
-0.00057893588
0.0023951432
-0.00052912116
0.0024714549
-0.00046920895
0.0025452327
-0.00039709183
0.0026144987
-0.00031051102
0.0026766775
-0.00020745105
0.0027287287
-8.6360225e-05
0.0027672997
5.3386594e-05
0.0027889476
0.00021149368
0.0027906206
0.00038793505
0.0027690687
0.00058035978
0.0027218714
0.00078690484
0.0026464677
0.0010056551
0.0025400151
0.0012346035
0.0023998378
0.0014706084
0.0022235023
0.0017097319
0.0020093508
0.0019463296
0.0017572375
0.0021729106
0.0014689787
0.0023808508
0.0011485677
0.0025612435
0.00080207722
0.0027057685
0.00043703664
0.0028079182
6.1968198e-05
0.002863151
-0.00031442754
0.0028707245
-0.00068341349
0.0028304787
-0.0010363173
0.0027425592
-0.0013653763
0.0026109141
-0.0016641144
0.0024414492
-0.0019279868
0.0022421111
-0.0021545494
0.0020214038
-0.0023432989
0.001787977
-0.0024953403
0.0015495503
-0.0026126993
0.001312127
-0.0026979967
0.0010805111
-0.0027538458
0.00085803984
-0.0027829347
0.00064738219
-0.0027880931
0.00045102713
-0.0027724984
0.0002705198
-0.0027397236
0.00010840323
-0.0026929374
-3.5330095e-05
-0.0026356377
-0.00016056788
-0.0025707965
-0.00026800595
-0.0025009225
-0.00035922077
-0.002427854
-0.00043620868
-0.002352915
-0.00050110205
-0.0022769569
-0.00055596195
-0.0022004041
-0.00060264538
-0.0021234622
-0.00064267651
-0.0020461323
-0.00067734968
-0.0019683786
-0.00070759114
-0.0018901016
-0.00073419399
-0.0018112173
-0.00075767526
-0.0017316685
-0.00077845867
-0.0016514403
-0.00079683599
-0.0015705292
-0.0008130238
-0.0014889808
-0.00082723896
-0.0014068641
-0.00083962045
-0.0013242545
-0.00085030754
-0.0012412523
-0.00085943746
-0.0011579385
-0.00086713728
-0.001074419
-0.00087353471
-0.00099077409
-0.00087877038
-0.00090709347
-0.00088295046
-0.0008234274
-0.00088624257
-0.00073983669
-0.00088875076
-0.00065635447
-0.00089059852
-0.00057301403
-0.00089190707
-0.00048982447
-0.00089276988
-0.00040678434
-0.00089329326
-0.00032387952
-0.00089361118
-0.00024112987
-0.00089361594
-0.00015847598
-0.0008934575
-0.00089316324
0.00015602072
-0.00095960559
0.00023747632
-0.00095988945
0.00031905403
-0.00096006611
0.00040079518
-0.00096008496
0.00048268254
-0.00095976436
0.00056473857
-0.0009592506
0.00064697403
-0.00095839922
0.00072937122
-0.00095709644
0.00081190841
-0.00095525938
0.00089454862
-0.00095277572
0.00097723286
-0.00094952767
0.0010599113
-0.00094540719
0.0011425134
-0.00094032806
0.0012249514
-0.0009341461
0.0013071508
-0.00092677865
0.0013890421
-0.00091813523
0.0014705633
-0.00090814064
0.0015516817
-0.00089671984
0.0016323914
-0.00088380011
0.0017127431
-0.00086936654
0.0017928361
-0.00085317648
0.0018728535
-0.00083521588
0.0019530468
-0.00081523001
0.0020337319
-0.00079286984
0.0021152888
-0.00076764783
0.0021981032
-0.00073872507
0.0022824846
-0.00070502363
0.0023685892
-0.000665039
0.0024562379
-0.00061676891
0.0025448714
-0.00055784226
0.0026330128
-0.0004852328
0.0027185155
-0.00039601254
0.002798415
-0.00028735002
0.0028690642
-0.00015700844
0.0029261538
-3.7004317e-06
0.0029654323
0.00017221636
0.0029832612
0.0003701061
0.0029761268
0.00058749574
0.0029411923
0.00082184166
0.0028753158
0.0010715342
0.0027752621
0.0013346584
0.0026373106
0.0016085586
0.0024575091
0.0018895319
0.0022327586
0.0021710773
0.0019618388
0.002443829
0.0016463625
0.002696328
0.0012910266
0.0029165801
0.00090332004
0.0030934761
0.00049261877