/*--------------------------------*- C++ -*----------------------------------*\
  =========                 |
  \\      /  F ield         | OpenFOAM: The Open Source CFD Toolbox
   \\    /   O peration     | Website:  https://openfoam.org
    \\  /    A nd           | Version:  9
     \\/     M anipulation  |
\*---------------------------------------------------------------------------*/
FoamFile
{
    format      ascii;
    class       volVectorField;
    location    "0.23";
    object      U;
}
// * * * * * * * * * * * * * * * * * * * * * * * * * * * * * * * * * * * * * //

dimensions      [0 1 -1 0 0 0 0];

internalField   nonuniform List<vector> 
10000
(
(0.0084994497 -0.0079492815 0)
(0.020734192 -0.0079711872 0)
(0.027918118 -0.0079904977 0)
(0.035532727 -0.0080141252 0)
(0.043707971 -0.0080295942 0)
(0.051740198 -0.0080466773 0)
(0.059697591 -0.0080650349 0)
(0.067640222 -0.0080822443 0)
(0.075549544 -0.0080989504 0)
(0.083414192 -0.0081153135 0)
(0.091227501 -0.0081298337 0)
(0.098980374 -0.0081432453 0)
(0.1066609 -0.0081559516 0)
(0.11425681 -0.0081664252 0)
(0.12175598 -0.0081738823 0)
(0.12914149 -0.0081795515 0)
(0.13639151 -0.0081806798 0)
(0.14348583 -0.0081699579 0)
(0.1504044 -0.0081424424 0)
(0.15712388 -0.0080956803 0)
(0.16361581 -0.0080258258 0)
(0.16984851 -0.007925296 0)
(0.17578335 -0.007788318 0)
(0.18137749 -0.0075996952 0)
(0.18658711 -0.0073536986 0)
(0.19136078 -0.0070398872 0)
(0.19562321 -0.0066496392 0)
(0.19929558 -0.0061423778 0)
(0.20232465 -0.0055062811 0)
(0.20464866 -0.0047385713 0)
(0.20617925 -0.0038228925 0)
(0.20682492 -0.0027383469 0)
(0.20651082 -0.0014468733 0)
(0.20541474 0.00010320968 0)
(0.20337655 0.0016403118 0)
(0.20004315 0.0032589764 0)
(0.19536926 0.0049639511 0)
(0.18927246 0.0067727466 0)
(0.18174692 0.00868146 0)
(0.17276776 0.010650999 0)
(0.1622963 0.012660859 0)
(0.15037586 0.014697712 0)
(0.13706797 0.016697321 0)
(0.12242211 0.018593905 0)
(0.10652408 0.020343308 0)
(0.089502428 0.02189343 0)
(0.071504461 0.023188837 0)
(0.05269541 0.024187037 0)
(0.033261484 0.024859079 0)
(0.013408741 0.025196557 0)
(-0.0066581196 0.025239933 0)
(-0.026601571 0.024995224 0)
(-0.046204104 0.024421077 0)
(-0.065249727 0.023518795 0)
(-0.083543258 0.022310483 0)
(-0.10091255 0.020832529 0)
(-0.11720957 0.01913591 0)
(-0.13231474 0.01728037 0)
(-0.14611222 0.015328883 0)
(-0.15849915 0.01332762 0)
(-0.16944392 0.011309751 0)
(-0.1789386 0.0093206679 0)
(-0.18697792 0.0073959656 0)
(-0.19356947 0.005563357 0)
(-0.19872687 0.0038340546 0)
(-0.20251005 0.0021939414 0)
(-0.20498969 0.00062125607 0)
(-0.20642457 -0.00092522148 0)
(-0.20701935 -0.002310976 0)
(-0.20671851 -0.0034771763 0)
(-0.20552169 -0.0044608052 0)
(-0.2035008 -0.0052875214 0)
(-0.20073703 -0.0059698668 0)
(-0.19730181 -0.006521596 0)
(-0.19324957 -0.0069544074 0)
(-0.18863068 -0.007296272 0)
(-0.18353189 -0.0075748139 0)
(-0.17802169 -0.0077891019 0)
(-0.17213819 -0.007952522 0)
(-0.1659285 -0.0080745339 0)
(-0.15943162 -0.0081632784 0)
(-0.15268427 -0.0082272711 0)
(-0.14572 -0.0082729451 0)
(-0.1385644 -0.0082984016 0)
(-0.13123797 -0.0083080672 0)
(-0.12376244 -0.0083086831 0)
(-0.11616053 -0.0083062202 0)
(-0.1084527 -0.0083003454 0)
(-0.10065326 -0.0082910949 0)
(-0.092775441 -0.0082800411 0)
(-0.084832312 -0.008267803 0)
(-0.076834685 -0.0082544734 0)
(-0.068790948 -0.0082402923 0)
(-0.060712259 -0.0082243535 0)
(-0.052617505 -0.008206909 0)
(-0.044446403 -0.0081892616 0)
(-0.036129658 -0.0081728061 0)
(-0.028377456 -0.0081538182 0)
(-0.021059905 -0.0081311883 0)
(-0.0086312942 -0.0081144019 0)
(0.0084719537 -0.020430401 0)
(0.020694132 -0.020436849 0)
(0.027873296 -0.020457813 0)
(0.035495311 -0.02047771 0)
(0.043677637 -0.020482381 0)
(0.051708623 -0.020487093 0)
(0.059667366 -0.020487547 0)
(0.067613487 -0.020480558 0)
(0.075526035 -0.020465577 0)
(0.083395662 -0.020440287 0)
(0.091215322 -0.020403243 0)
(0.098974269 -0.020352625 0)
(0.10666263 -0.020285418 0)
(0.11426903 -0.020199105 0)
(0.12177938 -0.020091109 0)
(0.1291787 -0.019953831 0)
(0.1364516 -0.019780408 0)
(0.1435794 -0.019565833 0)
(0.15053904 -0.019306062 0)
(0.15730643 -0.018989079 0)
(0.1638565 -0.018600496 0)
(0.17015922 -0.018130252 0)
(0.17618268 -0.017562406 0)
(0.18188392 -0.01687912 0)
(0.18721518 -0.016058244 0)
(0.1921269 -0.015078708 0)
(0.19657254 -0.013920132 0)
(0.20047594 -0.012543984 0)
(0.20375171 -0.010915693 0)
(0.20634491 -0.009013319 0)
(0.20818882 -0.0068067127 0)
(0.20921891 -0.0042576575 0)
(0.20939264 -0.0013348036 0)
(0.20857489 0.0019936806 0)
(0.20663295 0.0054659705 0)
(0.20348066 0.0091452172 0)
(0.19899571 0.013021652 0)
(0.19308992 0.017089987 0)
(0.18570421 0.02131891 0)
(0.17679752 0.025634151 0)
(0.16635462 0.029980146 0)
(0.15437969 0.034285368 0)
(0.14089021 0.038449383 0)
(0.12596148 0.04237215 0)
(0.10969544 0.045953243 0)
(0.092210921 0.049103563 0)
(0.073666513 0.051740227 0)
(0.054255597 0.053790929 0)
(0.034197364 0.055204285 0)
(0.013759995 0.055953145 0)
(-0.0068414559 0.056052909 0)
(-0.027358045 0.05550468 0)
(-0.047580462 0.054287898 0)
(-0.067236041 0.052423346 0)
(-0.086095097 0.049957659 0)
(-0.10395665 0.046955765 0)
(-0.1206517 0.043499584 0)
(-0.1360455 0.039682356 0)
(-0.15002719 0.035607034 0)
(-0.16251792 0.031361607 0)
(-0.17348498 0.027027211 0)
(-0.18291714 0.022699972 0)
(-0.19082348 0.018451777 0)
(-0.19723408 0.014347848 0)
(-0.20220253 0.010425009 0)
(-0.20581916 0.0066873412 0)
(-0.2081813 0.0031498048 0)
(-0.20939789 -0.00020752096 0)
(-0.20958955 -0.0032799058 0)
(-0.20887726 -0.0059721562 0)
(-0.20734431 -0.0083092737 0)
(-0.20503297 -0.010330054 0)
(-0.20200785 -0.012070923 0)
(-0.19833647 -0.013555359 0)
(-0.19408513 -0.014798783 0)
(-0.18931826 -0.015850368 0)
(-0.18409586 -0.016747106 0)
(-0.17847251 -0.017501149 0)
(-0.17249613 -0.018131778 0)
(-0.16620919 -0.018656572 0)
(-0.15965019 -0.01909496 0)
(-0.15285344 -0.019459351 0)
(-0.14584481 -0.019757468 0)
(-0.13864924 -0.020004432 0)
(-0.13129331 -0.020208177 0)
(-0.12379919 -0.020371407 0)
(-0.11618414 -0.020500137 0)
(-0.10846378 -0.020600208 0)
(-0.1006539 -0.020678218 0)
(-0.092767966 -0.020737906 0)
(-0.084817995 -0.020782275 0)
(-0.076815077 -0.020813386 0)
(-0.068766841 -0.020832926 0)
(-0.060684065 -0.020842784 0)
(-0.052587064 -0.020844231 0)
(-0.044416345 -0.020840067 0)
(-0.036097352 -0.020834783 0)
(-0.028337474 -0.020821366 0)
(-0.021024497 -0.020797566 0)
(-0.0086139977 -0.020794923 0)
(0.0084769995 -0.027181665 0)
(0.020702893 -0.027166546 0)
(0.0278751 -0.027166163 0)
(0.03550949 -0.027154887 0)
(0.043701854 -0.027127165 0)
(0.051738913 -0.02709414 0)
(0.059707834 -0.027050111 0)
(0.067665762 -0.026992667 0)
(0.075592578 -0.026919745 0)
(0.083477808 -0.026828578 0)
(0.091314682 -0.026717188 0)
(0.099095387 -0.026581907 0)
(0.10680886 -0.026418461 0)
(0.11444289 -0.026222719 0)
(0.12198964 -0.025989572 0)
(0.129436 -0.025715536 0)
(0.1367587 -0.025395014 0)
(0.14393557 -0.025020404 0)
(0.15095345 -0.024579384 0)
(0.15779781 -0.024059204 0)
(0.16443906 -0.023448665 0)
(0.17084772 -0.022732188 0)
(0.17699297 -0.021890917 0)
(0.18283865 -0.020904794 0)
(0.18834384 -0.019745184 0)
(0.1934562 -0.018385488 0)
(0.19811969 -0.016792161 0)
(0.20227016 -0.014942273 0)
(0.20583664 -0.012782502 0)
(0.20875132 -0.010274249 0)
(0.21094032 -0.0073947504 0)
(0.21231314 -0.0041230138 0)
(0.21278783 -0.00046684474 0)
(0.21225185 0.0035222897 0)
(0.21058316 0.0078789867 0)
(0.20768576 0.01256087 0)
(0.2034457 0.017550975 0)
(0.19775913 0.022820034 0)
(0.19054702 0.028324632 0)
(0.18175434 0.033993392 0)
(0.17134504 0.039739843 0)
(0.15930813 0.04545321 0)
(0.1456639 0.051028175 0)
(0.13045975 0.056344972 0)
(0.11378889 0.061265148 0)
(0.095791546 0.065647749 0)
(0.076629139 0.069365691 0)
(0.056502537 0.072309164 0)
(0.035649871 0.074386117 0)
(0.014349938 0.075525929 0)
(-0.0071555567 0.075680051 0)
(-0.028550211 0.074840096 0)
(-0.049589221 0.073046597 0)
(-0.069983542 0.070366105 0)
(-0.089487733 0.066883483 0)
(-0.10788914 0.062704894 0)
(-0.12501185 0.05795326 0)
(-0.14071663 0.052762584 0)
(-0.15489841 0.047271778 0)
(-0.16748595 0.041606381 0)
(-0.17844447 0.035879426 0)
(-0.18778287 0.030197932 0)
(-0.19553207 0.024656023 0)
(-0.20173938 0.019328042 0)
(-0.20648337 0.014258391 0)
(-0.20984629 0.009480745 0)
(-0.2119241 0.0050260558 0)
(-0.2128815 0.00090849111 0)
(-0.21280281 -0.0028498576 0)
(-0.21175656 -0.0062572359 0)
(-0.20987657 -0.0092798826 0)
(-0.20724659 -0.011928227 0)
(-0.20393468 -0.014230079 0)
(-0.19999407 -0.016217042 0)
(-0.1955046 -0.017928905 0)
(-0.1905375 -0.019403668 0)
(-0.18514145 -0.020671851 0)
(-0.17936593 -0.021754824 0)
(-0.17325562 -0.022684557 0)
(-0.16685668 -0.023483434 0)
(-0.1602026 -0.024168627 0)
(-0.1533192 -0.024754563 0)
(-0.14624114 -0.025255075 0)
(-0.13899475 -0.025679705 0)
(-0.13158955 -0.026040292 0)
(-0.12404406 -0.026347433 0)
(-0.11638299 -0.026608329 0)
(-0.10862702 -0.026828584 0)
(-0.10078894 -0.027011697 0)
(-0.092878726 -0.027162732 0)
(-0.084907957 -0.027286328 0)
(-0.076886688 -0.027386169 0)
(-0.068823068 -0.027465337 0)
(-0.060728027 -0.027526927 0)
(-0.052620965 -0.027573453 0)
(-0.044444055 -0.027607857 0)
(-0.036116995 -0.027636052 0)
(-0.028344981 -0.027652656 0)
(-0.021039235 -0.027651013 0)
(-0.0086247283 -0.027669756 0)
(0.008479607 -0.035205387 0)
(0.020708266 -0.035195568 0)
(0.027879878 -0.035198361 0)
(0.035530531 -0.035179922 0)
(0.043735566 -0.035146039 0)
(0.051782818 -0.035103008 0)
(0.059766022 -0.035044759 0)
(0.067741319 -0.034966944 0)
(0.075688079 -0.034867569 0)
(0.083596878 -0.034743811 0)
(0.091461636 -0.034590447 0)
(0.099274229 -0.034403786 0)
(0.10702504 -0.034179385 0)
(0.11470345 -0.033911021 0)
(0.122295 -0.033592722 0)
(0.12978544 -0.033222086 0)
(0.13716261 -0.032790731 0)
(0.14441454 -0.032285027 0)
(0.15152383 -0.031689568 0)
(0.15846482 -0.030994401 0)
(0.16521555 -0.030186393 0)
(0.17175295 -0.02924342 0)
(0.1780493 -0.028143019 0)
(0.18407151 -0.026857638 0)
(0.18977778 -0.025359254 0)
(0.19512325 -0.023612181 0)
(0.20005675 -0.021575508 0)
(0.20452294 -0.01920747 0)
(0.20845184 -0.016463247 0)
(0.21175884 -0.013294797 0)
(0.21436097 -0.0096717365 0)
(0.21616577 -0.0055727571 0)
(0.21706034 -0.00097718367 0)
(0.21695243 0.0041016704 0)
(0.21571249 0.0096737235 0)
(0.21319113 0.015696484 0)
(0.20927858 0.022112812 0)
(0.20386402 0.028887403 0)
(0.19685322 0.035956159 0)
(0.18816651 0.043222524 0)
(0.17775034 0.050573043 0)
(0.1655893 0.057879449 0)
(0.15169696 0.064992494 0)
(0.13611403 0.071753601 0)
(0.11892121 0.078004635 0)
(0.10025087 0.083573766 0)
(0.080288595 0.088293461 0)
(0.05925816 0.092017195 0)
(0.037415272 0.09463133 0)
(0.015063416 0.096053526 0)
(-0.0075259144 0.096250928 0)
(-0.029982372 0.095216767 0)
(-0.052027757 0.092974275 0)
(-0.073352907 0.089597467 0)
(-0.093690391 0.08518991 0)
(-0.11280437 0.079886472 0)
(-0.13050221 0.073844631 0)
(-0.14663463 0.067236687 0)
(-0.16109835 0.060234193 0)
(-0.1738391 0.052995538 0)
(-0.18484051 0.045667037 0)
(-0.19410997 0.038382296 0)
(-0.20168806 0.031264543 0)
(-0.20765033 0.024411236 0)
(-0.21208475 0.017889627 0)
(-0.21509066 0.011756802 0)
(-0.2167859 0.006053929 0)
(-0.21729822 0.00079936044 0)
(-0.21677593 -0.0039432315 0)
(-0.21533014 -0.0082108736 0)
(-0.21304365 -0.012008517 0)
(-0.21001788 -0.01535573 0)
(-0.20633663 -0.018274846 0)
(-0.20207842 -0.020807826 0)
(-0.19731659 -0.023008548 0)
(-0.19210587 -0.024909905 0)
(-0.18649027 -0.026550148 0)
(-0.18052537 -0.027963485 0)
(-0.17426107 -0.029183922 0)
(-0.16772575 -0.030237565 0)
(-0.16094942 -0.03114424 0)
(-0.1539634 -0.031924344 0)
(-0.1467896 -0.03259715 0)
(-0.13945104 -0.033169826 0)
(-0.13197471 -0.033654652 0)
(-0.12437746 -0.03406714 0)
(-0.11667203 -0.03441924 0)
(-0.1088711 -0.034717717 0)
(-0.10098949 -0.034966707 0)
(-0.09304198 -0.035172058 0)
(-0.085039414 -0.035339587 0)
(-0.076991239 -0.035474106 0)
(-0.068904583 -0.035580627 0)
(-0.060789717 -0.035661853 0)
(-0.052666394 -0.035723106 0)
(-0.044478013 -0.035767286 0)
(-0.036140205 -0.035800622 0)
(-0.028350479 -0.035820842 0)
(-0.021044436 -0.035815518 0)
(-0.0086297272 -0.035826042 0)
(0.008482361 -0.043292726 0)
(0.02071268 -0.043281547 0)
(0.027889032 -0.043284529 0)
(0.035560716 -0.043256114 0)
(0.043778926 -0.043213731 0)
(0.051839889 -0.04315814 0)
(0.059843322 -0.043081964 0)
(0.067842414 -0.042981364 0)
(0.075815187 -0.04285381 0)
(0.083754371 -0.04269513 0)
(0.09165435 -0.042499205 0)
(0.099506527 -0.042261896 0)
(0.10730226 -0.041977622 0)
(0.11503132 -0.04164009 0)
(0.12268144 -0.041242767 0)
(0.13024159 -0.040775385 0)
(0.13769989 -0.040227373 0)
(0.14504211 -0.03958809 0)
(0.15225121 -0.038846699 0)
(0.15930932 -0.03798828 0)
(0.16619942 -0.036990831 0)
(0.17290119 -0.035831848 0)
(0.17938902 -0.034484187 0)
(0.18563247 -0.032917491 0)
(0.19159881 -0.031093662 0)
(0.19724879 -0.028967928 0)
(0.20253295 -0.026491709 0)
(0.20739191 -0.023613518 0)
(0.21176092 -0.020287301 0)
(0.21555683 -0.016456804 0)
(0.21867939 -0.012068957 0)
(0.22102952 -0.0070897918 0)
(0.22249176 -0.0014940222 0)
(0.22294105 0.0047253514 0)
(0.22222687 0.011548769 0)
(0.22017798 0.0189462 0)
(0.21668523 0.026858451 0)
(0.21164273 0.035238786 0)
(0.20491296 0.044006188 0)
(0.19639036 0.053040558 0)
(0.18600894 0.062205876 0)
(0.17372227 0.071344323 0)
(0.15951915 0.080270393 0)
(0.14343978 0.088776369 0)
(0.12556776 0.09664257 0)
(0.10603392 0.10365611 0)
(0.08502949 0.10960954 0)
(0.06280961 0.11431337 0)
(0.039673435 0.11761095 0)
(0.015971206 0.11939891 0)
(-0.0079879542 0.11964861 0)
(-0.031806439 0.11835213 0)
(-0.055169296 0.11552456 0)
(-0.07771703 0.11125647 0)
(-0.099143888 0.10569175 0)
(-0.1191831 0.099006006 0)
(-0.13761998 0.091405637 0)
(-0.15429927 0.083102063 0)
(-0.16912677 0.074308391 0)
(-0.18205455 0.065239184 0)
(-0.19307305 0.05608536 0)
(-0.20221295 0.047015403 0)
(-0.20954116 0.038177676 0)
(-0.21516179 0.029690384 0)
(-0.2191898 0.021639634 0)
(-0.22173011 0.014097558 0)
(-0.22291978 0.0071185345 0)
(-0.22290909 0.00072232451 0)
(-0.22183662 -0.0050789468 0)
(-0.21984116 -0.010266378 0)
(-0.21703771 -0.014868172 0)
(-0.21352614 -0.018917549 0)
(-0.20939741 -0.022455916 0)
(-0.20473726 -0.02553997 0)
(-0.1996166 -0.028216769 0)
(-0.19408944 -0.03053151 0)
(-0.18820548 -0.032531586 0)
(-0.18201014 -0.034265884 0)
(-0.17554013 -0.035765907 0)
(-0.16882696 -0.037060764 0)
(-0.16189845 -0.038178879 0)
(-0.15478013 -0.039145286 0)
(-0.1474934 -0.039977647 0)
(-0.14005743 -0.040696089 0)
(-0.13249135 -0.041312791 0)
(-0.12481269 -0.041837281 0)
(-0.11703665 -0.042280344 0)
(-0.1091762 -0.042652172 0)
(-0.1012437 -0.042963422 0)
(-0.093251196 -0.04322133 0)
(-0.085209249 -0.043432316 0)
(-0.077126898 -0.043601996 0)
(-0.069010109 -0.043736487 0)
(-0.060869937 -0.043840726 0)
(-0.05272651 -0.043918553 0)
(-0.044522231 -0.043974852 0)
(-0.036169813 -0.044017457 0)
(-0.028359376 -0.044043371 0)
(-0.0210493 -0.044040713 0)
(-0.0086331664 -0.044048771 0)
(0.0084886857 -0.051366651 0)
(0.020721602 -0.051356672 0)
(0.027905234 -0.051356887 0)
(0.035600955 -0.051320939 0)
(0.043834849 -0.051270289 0)
(0.05191512 -0.051201757 0)
(0.059943209 -0.051108203 0)
(0.067970126 -0.050986697 0)
(0.075975127 -0.050832473 0)
(0.083952598 -0.050639852 0)
(0.091896395 -0.05040335 0)
(0.099797981 -0.05011696 0)
(0.10764984 -0.049773846 0)
(0.11544249 -0.049366707 0)
(0.12316528 -0.048887329 0)
(0.13080767 -0.048325585 0)
(0.1383584 -0.047672006 0)
(0.1458056 -0.046913932 0)
(0.15313596 -0.046038699 0)
(0.16033487 -0.045027646 0)
(0.16738804 -0.043858959 0)
(0.17427741 -0.042507467 0)
(0.18098275 -0.040944036 0)
(0.18748212 -0.039132333 0)
(0.19374804 -0.03702926 0)
(0.19974612 -0.034584267 0)
(0.20543238 -0.031743197 0)
(0.21074883 -0.028438135 0)
(0.21562999 -0.024606422 0)
(0.21999852 -0.020189625 0)
(0.2237492 -0.015113447 0)
(0.22676389 -0.0093243515 0)
(0.22890603 -0.002789247 0)
(0.2300384 0.0045058611 0)
(0.23000094 0.012566795 0)
(0.22859597 0.021359703 0)
(0.22568411 0.030834426 0)
(0.22113231 0.040918043 0)
(0.21477855 0.051502741 0)
(0.20649175 0.062454838 0)
(0.19618112 0.073611215 0)
(0.18377917 0.084769488 0)
(0.16924924 0.09571052 0)
(0.15259844 0.1061852 0)
(0.13390251 0.11591667 0)
(0.1133073 0.12462232 0)
(0.091020942 0.1320317 0)
(0.067321319 0.1379073 0)
(0.042550995 0.14204049 0)
(0.01712838 0.14428863 0)
(-0.0085871446 0.14460201 0)
(-0.034142947 0.14296891 0)
(-0.059172277 0.13942281 0)
(-0.083247089 0.13408766 0)
(-0.1060166 0.12715211 0)
(-0.12718073 0.11884596 0)
(-0.14650942 0.10943587 0)
(-0.16384467 0.099195616 0)
(-0.1790804 0.088400047 0)
(-0.19218597 0.077310013 0)
(-0.20318875 0.066160913 0)
(-0.21214024 0.055153453 0)
(-0.21913363 0.044466244 0)
(-0.2243011 0.034245005 0)
(-0.22777267 0.024600458 0)
(-0.22968227 0.01561796 0)
(-0.23020845 0.0073533011 0)
(-0.22952888 -0.00016550949 0)
(-0.22779044 -0.0069354752 0)
(-0.22514342 -0.012969616 0)
(-0.22171912 -0.018300084 0)
(-0.21763005 -0.022975405 0)
(-0.21298266 -0.02705777 0)
(-0.20786179 -0.030611649 0)
(-0.20232971 -0.033695705 0)
(-0.19644194 -0.036368398 0)
(-0.19024559 -0.038687257 0)
(-0.18377967 -0.040699095 0)
(-0.17707454 -0.042442902 0)
(-0.17015605 -0.043958468 0)
(-0.16304937 -0.045274215 0)
(-0.15577585 -0.046413643 0)
(-0.14835235 -0.047399626 0)
(-0.14079614 -0.048250607 0)
(-0.13312406 -0.048981951 0)
(-0.12535146 -0.049607405 0)
(-0.11749178 -0.050138711 0)
(-0.10955745 -0.05058635 0)
(-0.10156046 -0.050960207 0)
(-0.093511672 -0.051269397 0)
(-0.085420565 -0.051522101 0)
(-0.077295841 -0.051725537 0)
(-0.069143558 -0.051886157 0)
(-0.060971723 -0.052011392 0)
(-0.052800648 -0.052104303 0)
(-0.044577315 -0.052171425 0)
(-0.03620745 -0.052221962 0)
(-0.028372946 -0.05225274 0)
(-0.021055683 -0.052253447 0)
(-0.0086362502 -0.052257876 0)
(0.0084924621 -0.059448129 0)
(0.020729976 -0.059443639 0)
(0.027926051 -0.059441811 0)
(0.03564808 -0.059403619 0)
(0.043900634 -0.059346788 0)
(0.05200354 -0.059269763 0)
(0.060059843 -0.05916482 0)
(0.068119855 -0.059027308 0)
(0.076164092 -0.058851174 0)
(0.084186164 -0.058630558 0)
(0.092180642 -0.058359778 0)
(0.10014033 -0.05803143 0)
(0.10805801 -0.057638173 0)
(0.11592474 -0.057171014 0)
(0.12373108 -0.056621657 0)
(0.13146723 -0.055979842 0)
(0.13912399 -0.055234562 0)
(0.14668988 -0.054373624 0)
(0.1541542 -0.053382294 0)
(0.16150816 -0.052242308 0)
(0.16874107 -0.050931514 0)
(0.17583926 -0.049422256 0)
(0.18278839 -0.047681403 0)
(0.18957272 -0.045669858 0)
(0.19617327 -0.04333855 0)
(0.20256164 -0.04063037 0)
(0.20870623 -0.037479074 0)
(0.21455607 -0.033809528 0)
(0.22003691 -0.029535385 0)
(0.22507682 -0.024576979 0)
(0.22957085 -0.018847998 0)
(0.23338132 -0.012272894 0)
(0.23635539 -0.0047987054 0)
(0.23833756 0.0036069686 0)
(0.23913782 0.01295773 0)
(0.23852554 0.023209667 0)
(0.23633623 0.034305073 0)
(0.23240628 0.046165934 0)
(0.22654576 0.058672713 0)
(0.21859632 0.071672731 0)
(0.20842336 0.084976172 0)
(0.1959231 0.098354581 0)
(0.18103619 0.11153613 0)
(0.16374495 0.12421184 0)
(0.14410073 0.13604583 0)
(0.1222412 0.14668262 0)
(0.098400313 0.15576678 0)
(0.072896282 0.1629848 0)
(0.046120003 0.16807777 0)
(0.018567349 0.17085424 0)
(-0.0093319591 0.17124213 0)
(-0.03703992 0.16922654 0)
(-0.064117151 0.16485772 0)
(-0.090062293 0.15830013 0)
(-0.11446792 0.1497931 0)
(-0.13698691 0.13963619 0)
(-0.15736194 0.12816929 0)
(-0.17543066 0.11575288 0)
(-0.19111027 0.1027303 0)
(-0.2043917 0.08941228 0)
(-0.21532733 0.076086027 0)
(-0.22400467 0.062996301 0)
(-0.23054729 0.050347565 0)
(-0.23512151 0.038307552 0)
(-0.2378973 0.027007897 0)
(-0.23903835 0.016528665 0)
(-0.23874796 0.0069311024 0)
(-0.23723379 -0.0017398021 0)
(-0.23467171 -0.0094917331 0)
(-0.2312356 -0.01635581 0)
(-0.22707353 -0.022381546 0)
(-0.22231379 -0.027638365 0)
(-0.21706332 -0.032213759 0)
(-0.21140383 -0.036178923 0)
(-0.20540127 -0.039613899 0)
(-0.19910862 -0.042593003 0)
(-0.19256315 -0.045178092 0)
(-0.18579171 -0.047423824 0)
(-0.17882364 -0.049378976 0)
(-0.17168054 -0.051081042 0)
(-0.16437394 -0.052563244 0)
(-0.15692346 -0.053850952 0)
(-0.1493461 -0.054968683 0)
(-0.14165322 -0.055935934 0)
(-0.13385918 -0.056769152 0)
(-0.12597814 -0.057482297 0)
(-0.11802208 -0.058088319 0)
(-0.11000223 -0.058599231 0)
(-0.10192964 -0.05902534 0)
(-0.09381486 -0.059377005 0)
(-0.085666599 -0.059663391 0)
(-0.077492008 -0.059893098 0)
(-0.069296838 -0.060073612 0)
(-0.06108861 -0.060212474 0)
(-0.052886611 -0.060315722 0)
(-0.044640364 -0.060389884 0)
(-0.036249983 -0.06044408 0)
(-0.028390011 -0.060476269 0)
(-0.021061519 -0.060477519 0)
(-0.0086366809 -0.060476787 0)
(0.008494217 -0.067538455 0)
(0.020737452 -0.06754059 0)
(0.027947565 -0.067537712 0)
(0.035698111 -0.06750157 0)
(0.043972536 -0.067442369 0)
(0.052099896 -0.067361574 0)
(0.060188286 -0.067250035 0)
(0.068286668 -0.067101685 0)
(0.07637527 -0.066910368 0)
(0.084448018 -0.066669525 0)
(0.092500458 -0.066371652 0)
(0.1005257 -0.066009429 0)
(0.10851785 -0.065573813 0)
(0.11646813 -0.065056143 0)
(0.12436743 -0.064447355 0)
(0.13220778 -0.063736735 0)
(0.13997993 -0.062913234 0)
(0.1476756 -0.061965285 0)
(0.15528749 -0.0608763 0)
(0.16280872 -0.059629106 0)
(0.17023357 -0.058200342 0)
(0.17755465 -0.056565426 0)
(0.18476381 -0.0546892 0)
(0.19185535 -0.052527222 0)
(0.19881911 -0.05002573 0)
(0.20563777 -0.047120606 0)
(0.21228593 -0.043731625 0)
(0.21872642 -0.039775635 0)
(0.22489707 -0.035144724 0)
(0.2307194 -0.029727984 0)
(0.23608468 -0.023423032 0)
(0.2408441 -0.016123738 0)
(0.24482158 -0.0077475717 0)
(0.24783829 0.001761841 0)
(0.24966826 0.012416719 0)
(0.25004298 0.024180425 0)
(0.24876225 0.037001185 0)
(0.24562541 0.050785504 0)
(0.24040798 0.0653935 0)
(0.23291373 0.08064812 0)
(0.22297577 0.096334838 0)
(0.210446 0.11220225 0)
(0.19520797 0.12793286 0)
(0.17720474 0.14314694 0)
(0.15646475 0.15742625 0)
(0.13311516 0.17031941 0)
(0.107405 0.18137345 0)
(0.079709801 0.1901781 0)
(0.050489395 0.19640101 0)
(0.020329522 0.19979615 0)
(-0.010243899 0.20026928 0)
(-0.040586762 0.19780301 0)
(-0.070165955 0.19246021 0)
(-0.098384926 0.18445372 0)
(-0.12475998 0.17409482 0)
(-0.14888967 0.16177203 0)
(-0.17048439 0.14791956 0)
(-0.18938099 0.1329938 0)
(-0.20552425 0.11742064 0)
(-0.21893951 0.10158855 0)
(-0.22971966 0.085835779 0)
(-0.23800006 0.070443809 0)
(-0.24394924 0.055645943 0)
(-0.24776206 0.041637056 0)
(-0.24965102 0.028567959 0)
(-0.24982961 0.016521396 0)
(-0.24852595 0.0055662413 0)
(-0.24599052 -0.0042396548 0)
(-0.24244106 -0.012936214 0)
(-0.2380678 -0.020573641 0)
(-0.23303768 -0.027226462 0)
(-0.22749859 -0.032987562 0)
(-0.22155942 -0.037970349 0)
(-0.2152968 -0.042271687 0)
(-0.20877722 -0.045992932 0)
(-0.20203873 -0.049216567 0)
(-0.19510808 -0.052012271 0)
(-0.1880103 -0.054446138 0)
(-0.1807594 -0.056570726 0)
(-0.17336608 -0.058424453 0)
(-0.16584314 -0.060043904 0)
(-0.15820229 -0.06145904 0)
(-0.15045535 -0.062689285 0)
(-0.14261181 -0.063755581 0)
(-0.13468286 -0.064675549 0)
(-0.1266805 -0.06546344 0)
(-0.11861623 -0.066132474 0)
(-0.11049995 -0.066695224 0)
(-0.10234194 -0.06716339 0)
(-0.094152237 -0.06754781 0)
(-0.085938583 -0.067858894 0)
(-0.07770782 -0.068106156 0)
(-0.069464253 -0.068298945 0)
(-0.06121469 -0.068445087 0)
(-0.052978662 -0.068552496 0)
(-0.044706776 -0.068628241 0)
(-0.036293352 -0.068681883 0)
(-0.028405915 -0.068710602 0)
(-0.021064356 -0.068710175 0)
(-0.0086351772 -0.068702742 0)
(0.0084928346 -0.075643501 0)
(0.020742101 -0.075653869 0)
(0.027968032 -0.075651609 0)
(0.035746779 -0.075621594 0)
(0.044045592 -0.075565486 0)
(0.052199789 -0.075484939 0)
(0.0603235 -0.07537182 0)
(0.068463668 -0.075219227 0)
(0.076600868 -0.075020235 0)
(0.084730202 -0.074766746 0)
(0.092847088 -0.074450036 0)
(0.10094586 -0.074062825 0)
(0.10902063 -0.073593886 0)
(0.11706247 -0.073035108 0)
(0.12506382 -0.072376545 0)
(0.13301696 -0.071608853 0)
(0.14091367 -0.070720705 0)
(0.14874792 -0.069699408 0)
(0.15651448 -0.068531384 0)
(0.16421143 -0.067200274 0)
(0.17183457 -0.065684755 0)
(0.17938262 -0.063959539 0)
(0.18686101 -0.06198967 0)
(0.19427274 -0.059729592 0)
(0.20161806 -0.057123374 0)
(0.20889497 -0.054098004 0)
(0.21609146 -0.050564053 0)
(0.22318446 -0.046413839 0)
(0.23012685 -0.041527744 0)
(0.2368401 -0.035761665 0)
(0.24321452 -0.028978454 0)
(0.24909432 -0.021034224 0)
(0.25428114 -0.011809883 0)
(0.25854791 -0.0012138576 0)
(0.26161992 0.01076955 0)
(0.2632152 0.024126098 0)
(0.26307942 0.038780732 0)
(0.26095006 0.054615507 0)
(0.25656194 0.071485663 0)
(0.24968828 0.089210683 0)
(0.24012282 0.10756108 0)
(0.22766122 0.12623863 0)
(0.2121159 0.14488142 0)
(0.19336599 0.16304725 0)
(0.17139099 0.18021213 0)
(0.14629813 0.19579727 0)
(0.11836007 0.20922125 0)
(0.088016541 0.21994558 0)
(0.055820314 0.22753438 0)
(0.022478055 0.23167652 0)
(-0.011361522 0.23225048 0)
(-0.044921138 0.2292355 0)
(-0.077548123 0.22271303 0)
(-0.10851779 0.21295267 0)
(-0.13724836 0.20035881 0)
(-0.16326995 0.18544271 0)
(-0.18625845 0.16876499 0)
(-0.20605864 0.15090486 0)
(-0.22265128 0.13239972 0)
(-0.23611835 0.11371765 0)
(-0.24661937 0.095252164 0)
(-0.25434598 0.077321443 0)
(-0.2595057 0.060187113 0)
(-0.26233876 0.04406376 0)
(-0.26312113 0.029107414 0)
(-0.26211019 0.015425108 0)
(-0.25955966 0.0030968138 0)
(-0.25578026 -0.007841045 0)
(-0.25104635 -0.017433031 0)
(-0.2455671 -0.025760599 0)
(-0.23953071 -0.032941477 0)
(-0.2331014 -0.03911149 0)
(-0.22639053 -0.044403857 0)
(-0.21946811 -0.048953673 0)
(-0.21238587 -0.052875415 0)
(-0.20516644 -0.056266448 0)
(-0.19782982 -0.059213876 0)
(-0.19038531 -0.061786104 0)
(-0.18283476 -0.06403586 0)
(-0.17518346 -0.066008887 0)
(-0.16743539 -0.067739279 0)
(-0.15959261 -0.069255045 0)
(-0.15166298 -0.07057787 0)
(-0.14365651 -0.07172661 0)
(-0.1355808 -0.072717839 0)
(-0.12744602 -0.073566353 0)
(-0.11926248 -0.074285894 0)
(-0.11103964 -0.074888861 0)
(-0.10278694 -0.075387774 0)
(-0.094513916 -0.075793803 0)
(-0.086227789 -0.076119875 0)
(-0.077934509 -0.076375338 0)
(-0.069637751 -0.076571374 0)
(-0.061343298 -0.076717288 0)
(-0.053070682 -0.076821922 0)
(-0.04477141 -0.076893366 0)
(-0.036332535 -0.076941243 0)
(-0.028418052 -0.07696185 0)
(-0.021062692 -0.076958033 0)
(-0.0086301866 -0.076941772 0)
(0.008488578 -0.083763297 0)
(0.020741963 -0.083781134 0)
(0.027983468 -0.083783681 0)
(0.035788856 -0.083763935 0)
(0.044115108 -0.083714342 0)
(0.052298318 -0.083640642 0)
(0.060458775 -0.08353337 0)
(0.068643415 -0.08338414 0)
(0.076833452 -0.083185223 0)
(0.085024741 -0.082927151 0)
(0.09321197 -0.082601127 0)
(0.10139102 -0.082196618 0)
(0.10955646 -0.081705304 0)
(0.11769861 -0.081115854 0)
(0.12580926 -0.080418742 0)
(0.13388194 -0.079604964 0)
(0.14191073 -0.07866376 0)
(0.14988955 -0.07758403 0)
(0.15781495 -0.076354558 0)
(0.16568735 -0.074961134 0)
(0.17350925 -0.073386737 0)
(0.1812875 -0.071605383 0)
(0.18903446 -0.069585586 0)
(0.19676525 -0.067285022 0)
(0.20449661 -0.064645434 0)
(0.21224457 -0.061588952 0)
(0.2200195 -0.058016016 0)
(0.22781364 -0.053799927 0)
(0.23560172 -0.048794918 0)
(0.24332074 -0.042818873 0)
(0.25086165 -0.035687514 0)
(0.25805813 -0.027208393 0)
(0.26468747 -0.017219774 0)
(0.27046832 -0.0055826337 0)
(0.27507124 0.0077512134 0)
(0.27816495 0.022769456 0)
(0.27941302 0.039375664 0)
(0.27851619 0.057432705 0)
(0.27519073 0.07677885 0)
(0.26917117 0.097214254 0)
(0.26018072 0.11850333 0)
(0.24793934 0.14034386 0)
(0.23218441 0.16234112 0)
(0.21269429 0.18397821 0)
(0.18936235 0.20459015 0)
(0.16226104 0.2234238 0)
(0.13167918 0.23972592 0)
(0.09813706 0.25279286 0)
(0.062320547 0.26205195 0)
(0.025096952 0.267107 0)
(-0.012731066 0.26780259 0)
(-0.050213694 0.26411391 0)
(-0.086549852 0.25614488 0)
(-0.12084968 0.24424274 0)
(-0.15239007 0.22892986 0)
(-0.18061454 0.21087218 0)
(-0.205165 0.19081802 0)
(-0.22590194 0.16950422 0)
(-0.24287692 0.1476045 0)
(-0.25626024 0.12568255 0)
(-0.26629592 0.10418178 0)
(-0.27325252 0.083441077 0)
(-0.27739255 0.06374929 0)
(-0.27900362 0.045330852 0)
(-0.27840434 0.028355334 0)
(-0.27590697 0.012969985 0)
(-0.27184364 -0.00073924324 0)
(-0.26656788 -0.012771289 0)
(-0.26040748 -0.023177533 0)
(-0.25362551 -0.032089203 0)
(-0.24643943 -0.039672514 0)
(-0.23901274 -0.046116059 0)
(-0.23145252 -0.051592358 0)
(-0.22381804 -0.056271175 0)
(-0.21613776 -0.060289322 0)
(-0.20842294 -0.063765607 0)
(-0.20067152 -0.066795608 0)
(-0.19287358 -0.069449956 0)
(-0.18502011 -0.071784844 0)
(-0.17710382 -0.073843179 0)
(-0.16912023 -0.075656601 0)
(-0.16106796 -0.077249337 0)
(-0.15294982 -0.078644809 0)
(-0.14477095 -0.079858821 0)
(-0.13653804 -0.080906205 0)
(-0.12826073 -0.081801104 0)
(-0.11994837 -0.082557367 0)
(-0.11160942 -0.083188088 0)
(-0.10325274 -0.083705223 0)
(-0.094888894 -0.084121217 0)
(-0.086524081 -0.084451103 0)
(-0.078162551 -0.084704778 0)
(-0.069808563 -0.08489441 0)
(-0.061466604 -0.085031367 0)
(-0.053155649 -0.085124819 0)
(-0.044828125 -0.085184461 0)
(-0.03636269 -0.085221807 0)
(-0.028422533 -0.085229845 0)
(-0.021054021 -0.085218275 0)
(-0.0086215636 -0.085192836 0)
(0.0084820384 -0.091895969 0)
(0.020734895 -0.091921376 0)
(0.027989282 -0.091932316 0)
(0.035821572 -0.091928411 0)
(0.044175703 -0.091889419 0)
(0.052386571 -0.091830136 0)
(0.060585655 -0.091736674 0)
(0.068817834 -0.09159929 0)
(0.077064557 -0.091409562 0)
(0.08532198 -0.091156796 0)
(0.09358653 -0.090830986 0)
(0.10185218 -0.090419313 0)
(0.11011398 -0.089915544 0)
(0.11836407 -0.089306049 0)
(0.12659259 -0.088581051 0)
(0.13479294 -0.087731179 0)
(0.14295916 -0.086748194 0)
(0.15108555 -0.085623193 0)
(0.15917033 -0.084346897 0)
(0.16721628 -0.082909133 0)
(0.17523083 -0.081298063 0)
(0.183228 -0.079494206 0)
(0.19122957 -0.077470927 0)
(0.1992649 -0.075189485 0)
(0.20736926 -0.072594811 0)
(0.21558193 -0.069607011 0)
(0.22394082 -0.066117993 0)
(0.23246849 -0.061986284 0)
(0.24117292 -0.057027498 0)
(0.25001217 -0.051023735 0)
(0.25888671 -0.043730793 0)
(0.26761976 -0.034882703 0)
(0.27596179 -0.024239955 0)
(0.28357709 -0.011622447 0)
(0.29004178 0.0030637568 0)
(0.29494729 0.019808271 0)