/*--------------------------------*- C++ -*----------------------------------*\
  =========                 |
  \\      /  F ield         | OpenFOAM: The Open Source CFD Toolbox
   \\    /   O peration     | Website:  https://openfoam.org
    \\  /    A nd           | Version:  9
     \\/     M anipulation  |
\*---------------------------------------------------------------------------*/
FoamFile
{
    format      ascii;
    class       volScalarField;
    location    "0.002";
    object      mag(U);
}
// * * * * * * * * * * * * * * * * * * * * * * * * * * * * * * * * * * * * * //

dimensions      [0 1 -1 0 0 0 0];

internalField   nonuniform List<scalar> 
1000
(
2.04222e-13
2.04222e-13
2.1881e-13
2.47984e-13
3.20921e-13
1.45873e-13
8.75238e-14
1.6046e-13
1.45873e-14
4.37619e-14
1.75048e-13
1.53355e-27
2.91746e-14
1.02111e-13
2.91746e-14
1.16698e-13
2.91746e-14
4.37619e-14
8.75238e-14
2.91746e-14
1.45873e-13
1.45873e-14
1.16698e-13
1.88692e-27
5.83492e-14
1.45873e-14
1.16698e-13
8.75238e-14
7.29365e-14
1.45873e-14
1.45873e-13
1.45873e-14
1.45873e-14
1.45873e-13
5.83492e-14
1.02111e-13
1.45873e-14
1.45873e-13
1.45873e-14
2.91746e-14
1.31286e-13
4.37619e-14
1.75048e-13
1.45873e-13
2.1881e-13
4.37619e-14
5.83492e-14
1.02111e-13
8.75238e-14
5.83492e-14
7.29365e-14
1.6046e-13
2.91746e-13
1.45873e-13
3.20921e-13
2.33397e-13
3.93857e-13
1.75048e-13
2.62571e-13
2.436e-27
1.45873e-13
7.29365e-14
1.6046e-13
7.29365e-14
4.37619e-14
1.31286e-13
1.45873e-13
1.02111e-13
4.52206e-13
2.77159e-13
3.50095e-13
3.35508e-13
4.81381e-13
2.62571e-13
4.52206e-13
3.64683e-13
4.08444e-13
3.64683e-13
3.64683e-13
3.93857e-13
2.1881e-13
2.33397e-13
1.31286e-13
2.62571e-13
2.91746e-13
2.62571e-13
2.77159e-13
3.35508e-13
1.16698e-13
2.91746e-14
5.83492e-14
2.62571e-13
3.06333e-13
5.98079e-13
6.85603e-13
5.54317e-13
6.71016e-13
4.08444e-13
4.52206e-13
2.33397e-13
1.75048e-13
4.37619e-14
8.75238e-14
1.02111e-13
1.02111e-13
2.64849e-28
1.45873e-14
1.45873e-14
1.45873e-14
1.89635e-13
1.45873e-13
1.31286e-13
2.1881e-13
1.02111e-13
1.02111e-13
4.37619e-14
7.29365e-14
1.31286e-13
2.91746e-14
2.04222e-13
2.91746e-14
4.37619e-14
4.37619e-14
1.89635e-13
4.37619e-14
4.37619e-14
5.83492e-14
7.29365e-14
1.89635e-13
1.45873e-14
3.06333e-13
1.75048e-13
5.83492e-14
9.34011e-28
4.37619e-14
1.89635e-13
3.06333e-13
5.54317e-13
4.23032e-13
3.50095e-13
4.08444e-13
3.20921e-13
2.33397e-13
2.91746e-13
4.95968e-13
3.35508e-13
4.23032e-13
3.7927e-13
3.35508e-13
4.66794e-13
1.89635e-13
2.91746e-13
2.77159e-13
2.47984e-13
5.83492e-14
1.16698e-13
1.89635e-13
3.06333e-13
2.33397e-13
2.77159e-13
3.35508e-13
2.91746e-13
5.83492e-13
3.06333e-13
6.56429e-13
2.77159e-13
4.52206e-13
4.37619e-13
3.35508e-13
2.47984e-13
2.47984e-13
3.50095e-13
3.50095e-13
4.66794e-13
4.37619e-13
4.37619e-13
1.45873e-13
2.91746e-13
1.45873e-14
8.75238e-14
1.89635e-13
2.91746e-14
1.89635e-13
1.45873e-14
3.50095e-13
2.91746e-14
2.91746e-13
3.20921e-13
2.33397e-13
2.62571e-13
3.64683e-13
4.37619e-13
3.50095e-13
2.47984e-13
2.1881e-13
1.75048e-13
5.83492e-14
2.91746e-14
1.75048e-13
2.91746e-14
2.33397e-13
1.31286e-13
8.75238e-14
4.08444e-13
2.04222e-13
5.83492e-13
4.52206e-13
6.56429e-13
3.7927e-13
5.68905e-13
3.35508e-13
3.06333e-13
2.91746e-13
2.77159e-13
2.47984e-13
2.91746e-13
2.04222e-13
5.83492e-14
1.02111e-13
1.75048e-13
7.29365e-14
7.29365e-14
1.27795e-27
1.45873e-13
7.29365e-14
2.1881e-13
8.75238e-14
1.16698e-13
2.91746e-14
1.02111e-13
1.75048e-13
1.45873e-14
7.29365e-14
1.16698e-13
7.29365e-14
7.29365e-14
1.02111e-13
2.04222e-13
2.47984e-13
3.20921e-13
1.6046e-13
3.93857e-13
1.89635e-13
3.50095e-13
4.37619e-14
1.45873e-13
1.45873e-13
4.37619e-14
1.75048e-13
2.77159e-13
1.69132e-27
3.06333e-13
1.02111e-13
4.08444e-13
1.45873e-14
2.1881e-13
1.89635e-13
2.04222e-13
1.6046e-13
2.91746e-14
1.31286e-13
1.16698e-13
1.02111e-13
1.6046e-13
4.37619e-14
3.7927e-13
1.45873e-14
1.6046e-13
1.31286e-13
2.62571e-13
4.37619e-14
2.33397e-13
5.83492e-14
8.75238e-14
3.20921e-13
1.89635e-13
5.98079e-13
2.91746e-13
7.14778e-13
4.37619e-13
7.14778e-13
3.64683e-13
5.68905e-13
4.37619e-13
6.56429e-13
4.66794e-13
6.27254e-13
4.52206e-13
7.87714e-13
5.25143e-13
6.85603e-13
4.81381e-13
8.89825e-13
7.29365e-13
9.77349e-13
8.02302e-13
1.13781e-12
7.29365e-13
1.09405e-12
8.31476e-13
1.12322e-12
9.62762e-13
9.77349e-13
8.89825e-13
9.48175e-13
9.62762e-13
1.05029e-12
8.89825e-13
1.09405e-12
1.13781e-12
1.21075e-12
1.21075e-12
1.00652e-12
1.12322e-12
8.02302e-13
1.23992e-12
7.73127e-13
7.87714e-13
6.71016e-13
5.98079e-13
4.81381e-13
2.91746e-13
3.06333e-13
2.91746e-13
2.77159e-13
4.23032e-13
3.06333e-13
2.33397e-13
1.45873e-13
1.45873e-13
2.47984e-13
2.04222e-13
2.04222e-13
1.89635e-13
2.77159e-13
4.37619e-13
4.08444e-13
1.02111e-13
6.41841e-13
3.7927e-13
6.41841e-13
4.81381e-13
8.75238e-13
4.66794e-13
8.60651e-13
5.54317e-13
9.33587e-13
6.56429e-13
1.05029e-12
7.29365e-13
8.31476e-13
6.85603e-13
5.3973e-13
5.98079e-13
1.6046e-13
2.1881e-13
2.33397e-13
1.45873e-13
1.16698e-13
7.29365e-14
7.29365e-14
8.75238e-14
4.37619e-14
1.16698e-13
1.45873e-13
1.16698e-13
2.91746e-14
1.6046e-13
2.47984e-13
7.43952e-13
1.70671e-12
4.18656e-12
9.29211e-12
2.16476e-11
4.91592e-11
1.11009e-10
2.48393e-10
5.51429e-10
1.21288e-09
2.64472e-09
5.71333e-09
1.22316e-08
2.59414e-08
5.45004e-08
1.134e-07
2.3365e-07
4.76623e-07
9.62413e-07
1.92328e-06
3.80304e-06
7.43939e-06
1.43935e-05
2.75374e-05
5.20842e-05
9.73661e-05
0.000179854
0.000328191
0.000591439
0.00105231
0.00184797
0.00320206
0.00547271
0.00922288
0.0153202
0.0250747
0.0404217
0.0641547
0.100209
0.153984
0.232686
0.345645
0.504562
0.723603
1.01929
1.41013
1.91589
2.55672
3.35193
4.31886
5.47168
6.8206
8.37126
10.1246
12.0773
14.2219
16.5481
19.0434
21.6944
24.4871
27.4077
30.4431
33.5812
36.8108
40.1219
43.5059
46.9547
50.4617
54.021
57.6272
61.276
64.9632
68.6854
72.4394
76.2225
80.032
83.8657
87.7214
91.597
95.4909
99.4011
103.326
107.265
111.215
115.175
119.145
123.123
127.108
131.099
135.094
139.093
143.095
147.098
151.103
155.107
159.112
163.112
167.115
171.107
175.102
179.086
183.065
187.039
191
194.955
198.897
202.825
206.74
210.638
214.517
218.375
222.211
226.019
229.797
233.542
237.25
240.914
244.53
248.091
251.591
255.021
258.372
261.635
264.798
267.849
270.775
273.562
276.196
278.662
280.947
283.037
284.921
286.592
288.046
289.283
290.31
291.139
291.785
292.271
292.62
292.859
293.01
293.099
293.148
293.166
293.167
293.163
293.155
293.146
293.14
293.138
293.137
293.136
293.135
293.135
293.136
293.136
293.137
293.138
293.14
293.141
293.143
293.144
293.145
293.147
293.148
293.149
293.15
293.151
293.153
293.156
293.156
293.158
293.162
293.168
293.173
293.177
293.172
293.175
293.199
293.235
293.218
293.2
293.168
293.088
293.052
293.023
293.007
293.006
293.018
293.038
293.061
293.083
293.101
293.114
293.122
293.128
293.132
293.134
293.133
293.132
293.131
293.13
293.129
293.127
293.125
293.122
293.12
293.12
293.119
293.117
293.115
293.113
293.111
293.109
293.107
293.105
293.103
293.102
293.1
293.098
293.096
293.093
293.091
293.088
293.086
293.082
293.076
293.07
293.063
293.046
293.021
292.959
292.848
292.658
292.199
291.217
289.098
284.36
273.302
247.928
197.78
125.794
59.2211
21.0101
6.19579
1.64597
0.417071
0.104068
0.0258622
0.00642096
0.00159385
0.00039562
9.82003e-05
2.43755e-05
6.05066e-06
1.50197e-06
3.72846e-07
9.25565e-08
2.29772e-08
5.70412e-09
1.41617e-09
3.5135e-10
8.74656e-11
2.17497e-11
5.60153e-12
1.47332e-12
3.7927e-13
4.3762e-14
1.75048e-13
8.75239e-14
1.31286e-13
1.02111e-13
2.1881e-13
2.1881e-13
2.04222e-13
5.83493e-14
2.91746e-14
2.91746e-14
5.83493e-14
7.29366e-14
4.3762e-14
1.45873e-13
2.04222e-13
2.91746e-14
2.1881e-13
6.80329e-28
2.91746e-14
7.29366e-14
1.45873e-14
4.3762e-14
5.83493e-14
5.83493e-14
7.29366e-14
4.3762e-14
4.3762e-14
1.60461e-13
7.29366e-14
1.45873e-13
7.29366e-14
5.83493e-14
1.45873e-14
2.91746e-14
2.33397e-13
3.20921e-13
2.1881e-13
2.77159e-13
1.75048e-13
3.20921e-13
1.16699e-13
2.1881e-13
2.04222e-13
3.20921e-13
2.62572e-13
2.33397e-13
2.1881e-13
4.08445e-13
5.10556e-13
2.33397e-13
2.33397e-13
4.81382e-13
5.54318e-13
5.68906e-13
5.10556e-13
6.27255e-13
8.1689e-13
7.87715e-13
8.31477e-13
8.89827e-13
7.87715e-13
1.09405e-12
6.56429e-13
1.2691e-12
8.02303e-13
1.00653e-12
9.48176e-13
9.77351e-13
1.10864e-12
1.10864e-12
7.58541e-13
1.18157e-12
5.54318e-13
9.77351e-13
5.54318e-13
1.02111e-12
6.56429e-13
1.02111e-12
7.14779e-13
8.89827e-13
6.56429e-13
6.71017e-13
8.75239e-13
6.71017e-13
9.19001e-13
7.14779e-13
9.48176e-13
6.27255e-13
9.19001e-13
5.39731e-13
9.91938e-13
7.29366e-13
9.48176e-13
8.46065e-13
1.0357e-12
5.39731e-13
1.02111e-12
3.93858e-13
9.48176e-13
1.60461e-13
5.83493e-13
2.06997e-27
2.1881e-13
2.33397e-13
2.91746e-14
2.91746e-14
3.20921e-13
3.7927e-13
1.60461e-13
2.33397e-13
2.04222e-13
2.33397e-13
1.31286e-13
1.31286e-13
1.45873e-13
1.45873e-13
1.16699e-13
2.62572e-13
2.62572e-13
4.3762e-14
2.1881e-13
8.75239e-14
7.29366e-14
1.16699e-13
1.02111e-13
2.1881e-13
5.83493e-14
3.20921e-13
2.91746e-14
2.1881e-13
1.45873e-13
1.75048e-13
1.45873e-14
8.75239e-14
2.33397e-13
4.3762e-14
1.45873e-14
8.75239e-14
2.31228e-27
2.77159e-13
5.83493e-14
1.45873e-13
2.04222e-13
2.47984e-13
7.29366e-14
7.29366e-14
1.16699e-13
1.16699e-13
1.02111e-13
1.45873e-14
3.50096e-13
2.91746e-14
1.45873e-14
1.31286e-13
2.1881e-13
7.29366e-14
1.28111e-27
1.31286e-13
5.83493e-14
2.91746e-14
2.33397e-13
1.45873e-14
1.60461e-13
2.91746e-14
1.16699e-13
1.31286e-13
8.75239e-14
2.47984e-13
1.89635e-13
1.60461e-13
2.04222e-13
2.04222e-13
1.45873e-13
2.62572e-13
1.31286e-13
2.91746e-14
1.31286e-13
7.29366e-14
5.83493e-14
8.75239e-14
2.1881e-13
2.91746e-14
5.83493e-14
2.04222e-13
2.04222e-13
4.3762e-14
2.77159e-13
1.89635e-13
8.75239e-14
4.08445e-13
4.08445e-13
2.33397e-13
2.47984e-13
4.52207e-13
7.29366e-14
4.08445e-13
1.45873e-13
1.16699e-13
1.60461e-13
1.16699e-13
8.75239e-14
2.91746e-14
2.47984e-13
2.1881e-13
7.29366e-14
1.89635e-13
5.83493e-14
3.06334e-13
1.60461e-13
2.04222e-13
1.16699e-13
1.60461e-13
5.4179e-27
1.89635e-13
2.77159e-13
1.75048e-13
1.31286e-13
2.91746e-14
4.52207e-13
2.91746e-14
3.20921e-13
1.02111e-13
2.33397e-13
2.1881e-13
2.33397e-13
3.06334e-13
2.77159e-13
2.62572e-13
1.31286e-13
1.31286e-13
2.91746e-14
1.45873e-13
1.02111e-13
2.04222e-13
1.89635e-13
8.75239e-14
1.16699e-13
2.62572e-13
5.83493e-14
1.89635e-13
1.75048e-13
3.20921e-13
4.3762e-14
3.93858e-13
1.75048e-13
2.91746e-14
3.20921e-13
4.3762e-14
2.04222e-13
6.36769e-27
1.45873e-13
1.45873e-14
1.60461e-13
5.83493e-14
3.06334e-13
7.29366e-14
3.06334e-13
4.3762e-14
2.1881e-13
1.02111e-13
1.02111e-13
1.45873e-13
5.83493e-14
1.31286e-13
2.1881e-13
1.89635e-13
5.83493e-14
8.75239e-14
4.3762e-14
4.3762e-14
1.31286e-13
1.45873e-13
1.45873e-14
2.62572e-13
1.75048e-13
2.91746e-14
3.50096e-13
1.02111e-13
2.91746e-13
1.89635e-13
3.7927e-13
1.31286e-13
2.47984e-13
4.3762e-14
5.83493e-14
2.91746e-14
1.75048e-13
1.45873e-14
4.3762e-14
1.45873e-14
1.02111e-13
8.75239e-14
1.60461e-13
1.02111e-13
2.91746e-14
4.3762e-14
2.04222e-13
4.3762e-14
2.77159e-13
1.02111e-13
2.62572e-13
2.33397e-13
7.29366e-14
1.89635e-13
8.75239e-14
1.89635e-13
2.47984e-13
7.29366e-14
2.91746e-14
5.83493e-14
2.62572e-13
1.02111e-13
2.62572e-13
1.02111e-13
1.02111e-13
1.31286e-13
5.83493e-14
1.02111e-13
1.45873e-14
1.45873e-14
5.83493e-14
5.96379e-28
5.83493e-14
1.02111e-13
1.45873e-13
1.16699e-13
5.83493e-14
1.31286e-13
2.62572e-13
1.60461e-13
1.16699e-13
4.3762e-14
5.83493e-14
1.31286e-13
2.91746e-14
1.16699e-13
1.60461e-13
2.91746e-13
1.60297e-27
2.91746e-14
1.45873e-13
1.16699e-13
8.75239e-14
3.20921e-13
8.75239e-14
2.04222e-13
2.47984e-13
1.02111e-13
3.64683e-13
1.45873e-13
7.29366e-14
3.93858e-13
1.02111e-13
1.02111e-13
3.64683e-13
1.45873e-13
1.02111e-13
7.29366e-14
3.50096e-13
7.29366e-14
2.04222e-13
2.91746e-14
)
;

boundaryField
{
    sides
    {
        type            calculated;
        value           nonuniform List<scalar> 2(2.91746e-14 2.04222e-13);
    }
    empty
    {
        type            empty;
    }
}


// ************************************************************************* //
