/*--------------------------------*- C++ -*----------------------------------*\
  =========                 |
  \\      /  F ield         | OpenFOAM: The Open Source CFD Toolbox
   \\    /   O peration     | Website:  https://openfoam.org
    \\  /    A nd           | Version:  9
     \\/     M anipulation  |
\*---------------------------------------------------------------------------*/
FoamFile
{
    format      ascii;
    class       volScalarField;
    location    "0.003";
    object      mag(U);
}
// * * * * * * * * * * * * * * * * * * * * * * * * * * * * * * * * * * * * * //

dimensions      [0 1 -1 0 0 0 0];

internalField   nonuniform List<scalar> 
1000
(
1.45873e-13
1.6046e-13
1.45873e-14
1.89635e-13
2.91746e-13
2.1881e-13
1.31286e-13
2.77159e-13
2.91746e-14
1.02111e-13
7.29365e-14
7.29365e-14
1.45873e-14
1.6046e-13
1.75048e-13
2.04222e-13
1.89635e-13
1.31286e-13
3.64683e-13
2.33397e-13
3.64683e-13
3.20921e-13
4.08444e-13
7.29365e-14
2.91746e-13
1.45873e-13
2.47984e-13
2.04222e-13
7.29365e-14
1.16698e-13
2.04222e-13
3.7927e-13
3.64683e-13
4.52206e-13
3.20921e-13
5.54317e-13
2.77159e-13
6.41841e-13
2.62571e-13
5.98079e-13
5.10556e-13
5.98079e-13
4.81381e-13
2.91746e-13
3.64683e-13
3.64683e-13
4.81381e-13
5.10556e-13
4.95968e-13
4.08444e-13
4.23032e-13
2.62571e-13
2.62571e-13
2.62571e-13
4.08444e-13
4.66794e-13
6.85603e-13
4.66794e-13
7.43952e-13
5.10556e-13
9.19e-13
5.98079e-13
9.33587e-13
5.3973e-13
7.43952e-13
5.98079e-13
4.81381e-13
2.77159e-13
1.75048e-13
1.45873e-14
1.02111e-13
2.62571e-13
4.37619e-14
7.29365e-14
1.02111e-13
5.83492e-14
1.02111e-13
4.37619e-14
1.45873e-14
8.75238e-14
4.55646e-27
2.91746e-14
7.29365e-14
7.29365e-14
7.29365e-14
2.91746e-14
1.16698e-13
5.83492e-14
2.33397e-13
5.83492e-14
4.37619e-14
2.77159e-13
5.83492e-14
2.77159e-13
2.91746e-14
1.45873e-14
1.45873e-14
1.02111e-13
2.91746e-14
2.33397e-13
2.91746e-14
1.45873e-13
4.37619e-14
1.16698e-13
1.64515e-27
3.20921e-13
5.83492e-14
2.91746e-13
2.91746e-14
1.31286e-13
2.91746e-14
1.16698e-13
5.83492e-14
2.91746e-14
2.33397e-13
8.75238e-14
4.37619e-14
1.75048e-13
2.33397e-13
3.06333e-13
3.64683e-13
4.52206e-13
4.95968e-13
5.54317e-13
6.27254e-13
3.93857e-13
7.43952e-13
3.64683e-13
5.54317e-13
3.20921e-13
4.23032e-13
2.62571e-13
1.89635e-13
2.54329e-27
4.37619e-14
4.37619e-14
5.83492e-14
1.89635e-13
1.31286e-13
2.33397e-13
7.29365e-14
1.45873e-14
2.91746e-14
1.45873e-14
1.69132e-27
1.16698e-13
2.91746e-14
1.45873e-13
8.75238e-14
2.91746e-13
1.75048e-13
2.77159e-13
1.02111e-13
7.29365e-14
5.83492e-14
1.45873e-13
2.04222e-13
1.75048e-13
2.33397e-13
2.91746e-13
2.47984e-13
3.50095e-13
1.31286e-13
3.35508e-13
2.91746e-14
1.02111e-13
5.83492e-14
2.99136e-27
1.6046e-13
1.75048e-13
1.75048e-13
3.20921e-13
3.50095e-13
4.23032e-13
4.95968e-13
4.95968e-13
6.56429e-13
6.27254e-13
7.14778e-13
4.81381e-13
6.71016e-13
4.37619e-13
5.98079e-13
3.93857e-13
3.93857e-13
3.50095e-13
8.75238e-14
1.75048e-13
8.75238e-14
2.91746e-14
9.59255e-28
4.37619e-14
1.16698e-13
1.75048e-13
2.91746e-13
1.45873e-13
4.37619e-14
4.37619e-14
8.75238e-14
2.91746e-13
8.75238e-14
3.35508e-13
8.75238e-14
5.83492e-14
1.16698e-13
1.45873e-14
8.75238e-14
1.31286e-13
1.31286e-13
2.77159e-13
1.16698e-13
2.62571e-13
2.04222e-13
2.33397e-13
1.75048e-13
3.35508e-13
1.75048e-13
2.1881e-13
9.44639e-28
7.29365e-14
1.31286e-13
1.02111e-13
1.16698e-13
1.89635e-13
1.6046e-13
2.47984e-13
4.95968e-13
2.77159e-13
5.68905e-13
2.47984e-13
3.50095e-13
1.45873e-13
4.08444e-13
1.31286e-13
4.37619e-13
3.64683e-13
3.50095e-13
2.62571e-13
1.89635e-13
3.06333e-13
3.06333e-13
5.68905e-13
3.7927e-13
6.41841e-13
5.83492e-13
6.85603e-13
7.43952e-13
7.14778e-13
6.12667e-13
7.43952e-13
4.81381e-13
6.71016e-13
4.23032e-13
7.14778e-13
4.37619e-13
6.85603e-13
4.52206e-13
5.98079e-13
6.41841e-13
8.31476e-13
5.68905e-13
9.62762e-13
5.98079e-13
1.02111e-12
8.02302e-13
1.22533e-12
9.19e-13
1.02111e-12
8.89825e-13
1.05029e-12
9.62762e-13
1.05029e-12
9.19e-13
1.00652e-12
1.0357e-12
8.60651e-13
1.06487e-12
7.29365e-13
1.0357e-12
1.02111e-12
1.10863e-12
7.0019e-13
1.28368e-12
6.71016e-13
8.31476e-13
6.85603e-13
7.43952e-13
3.7927e-13
5.98079e-13
3.64683e-13
8.16889e-13
4.23032e-13
6.41841e-13
4.81381e-13
7.0019e-13
6.12667e-13
8.75238e-13
6.41841e-13
7.5854e-13
7.0019e-13
9.62762e-13
6.27254e-13
7.87714e-13
6.12667e-13
7.0019e-13
7.43952e-13
9.04413e-13
8.60651e-13
8.31476e-13
6.56429e-13
6.56429e-13
7.0019e-13
6.56429e-13
5.83492e-13
3.35508e-13
4.81381e-13
2.47984e-13
3.50095e-13
3.20921e-13
3.50095e-13
3.35508e-13
4.52206e-13
8.60651e-13
1.47332e-12
2.8737e-12
5.96621e-12
1.19324e-11
2.42441e-11
4.96114e-11
1.00652e-10
2.02472e-10
4.0595e-10
8.07743e-10
1.59731e-09
3.13604e-09
6.11374e-09
1.18328e-08
2.27315e-08
4.33425e-08
8.20109e-08
1.53982e-07
2.86847e-07
5.30115e-07
9.71795e-07
1.7669e-06
3.18589e-06
5.69603e-06
1.00967e-05
1.77418e-05
3.09001e-05
5.33343e-05
9.12163e-05
0.000154558
0.000259412
0.000431222
0.00070982
0.00115679
0.00186612
0.00297936
0.00470671
0.00735592
0.0113708
0.0173814
0.0262678
0.0392387
0.0579237
0.0844802
0.121707
0.173158
0.243253
0.33735
0.461792
0.623886
0.831812
1.09445
1.42113
1.82128
2.30407
2.87801
3.55056
4.32776
5.21406
6.21212
7.32277
8.54514
9.87678
11.3139
12.8515
14.4842
16.2056
18.0095
19.8896
21.8396
23.8536
25.9259
28.0513
30.2251
32.4428
34.7004
36.9945
39.3218
41.6794
44.0648
46.4757
48.91
51.366
53.8419
56.3363
58.8478
61.3752
63.9174
66.4733
69.042
71.6227
74.2143
76.8163
79.4279
82.0485
84.6773
87.3138
89.9574
92.6077
95.2641
97.9261
100.593
103.265
105.942
108.622
111.307
113.994
116.685
119.378
122.074
124.772
127.472
130.174
132.877
135.582
138.287
140.994
143.701
146.408
149.116
151.824
154.532
157.239
159.946
162.651
165.357
168.06
170.764
173.464
176.164
178.861
181.556
184.249
186.939
189.626
192.31
194.989
197.666
200.338
203.004
205.666
208.323
210.973
213.616
216.253
218.881
221.501
224.111
226.711
229.3
231.877
234.44
236.988
239.52
242.035
244.53
247.003
249.452
251.876
254.27
256.633
258.961
261.251
263.498
265.698
267.847
269.939
271.97
273.933
275.823
277.634
279.358
280.991
282.525
283.956
285.279
286.489
287.585
288.565
289.428
290.179
290.821
291.36
291.803
292.161
292.442
292.658
292.82
292.937
293.019
293.074
293.111
293.133
293.147
293.154
293.158
293.159
293.16
293.161
293.161
293.161
293.161
293.161
293.162
293.162
293.162
293.163
293.164
293.164
293.165
293.166
293.166
293.167
293.168
293.169
293.169
293.17
293.171
293.171
293.172
293.173
293.173
293.174
293.174
293.175
293.175
293.175
293.176
293.176
293.176
293.177
293.177
293.178
293.178
293.179
293.179
293.18
293.18
293.181
293.181
293.182
293.183
293.184
293.185
293.186
293.188
293.191
293.19
293.189
293.189
293.193
293.193
293.192
293.187
293.206
293.206
293.166
293.151
293.136
293.12
293.104
293.09
293.08
293.077
293.08
293.089
293.101
293.114
293.127
293.138
293.147
293.153
293.158
293.162
293.163
293.164
293.164
293.164
293.163
293.163
293.162
293.161
293.16
293.16
293.159
293.159
293.158
293.158
293.157
293.156
293.156
293.155
293.155
293.154
293.154
293.153
293.152
293.151
293.151
293.15
293.149
293.148
293.146
293.145
293.144
293.143
293.141
293.14
293.139
293.138
293.138
293.137
293.136
293.135
293.134
293.134
293.133
293.131
293.13
293.128
293.126
293.123
293.121
293.119
293.117
293.115
293.112
293.109
293.106
293.102
293.095
293.079
293.055
293.015
292.92
292.727
292.306
291.485
289.752
285.706
276.318
254.765
210.094
140.971
70.6706
26.3482
8.00223
2.15942
0.550417
0.13756
0.0341948
0.0084892
0.00210691
0.000522874
0.000129761
3.22023e-05
7.99154e-06
1.98323e-06
4.92172e-07
1.2214e-07
3.03108e-08
7.52184e-09
1.8662e-09
4.62783e-10
1.14452e-10
2.8066e-11
6.57888e-12
1.21075e-12
4.3762e-14
7.58541e-13
8.02303e-13
9.91938e-13
8.02303e-13
8.46065e-13
9.04414e-13
9.33589e-13
1.42956e-12
8.89827e-13
1.35662e-12
9.48176e-13
1.25451e-12
1.16699e-12
1.16699e-12
1.23992e-12
1.25451e-12
9.19001e-13
1.21075e-12
7.14779e-13
9.91938e-13
5.68906e-13
1.05029e-12
7.73128e-13
1.06487e-12
7.73128e-13
1.06487e-12
9.77351e-13
9.77351e-13
1.0357e-12
7.58541e-13
1.09405e-12
7.29366e-13
1.1524e-12
7.00191e-13
1.29827e-12
7.58541e-13
1.1524e-12
5.68906e-13
1.0357e-12
6.71017e-13
7.43953e-13
2.33397e-13
8.60652e-13
1.89635e-13
1.12322e-12
2.77159e-13
9.48176e-13
3.20921e-13
7.14779e-13
4.08445e-13
7.43953e-13
4.23032e-13
7.43953e-13
3.93858e-13
5.83493e-13
8.1689e-13
3.93858e-13
6.71017e-13
1.02111e-13
5.68906e-13
2.04222e-13
6.12667e-13
3.7927e-13
7.73128e-13
7.29366e-13
1.02111e-12
6.71017e-13
8.1689e-13
5.83493e-13
1.05029e-12
5.9808e-13
9.77351e-13
7.29366e-13
8.46065e-13
5.10556e-13
4.95969e-13
2.33397e-13
2.33397e-13
1.89635e-13
1.31286e-13
5.83493e-14
1.89635e-13
1.16699e-13
2.77159e-13
1.89635e-13
2.33397e-13
2.1881e-13
1.75048e-13
2.91746e-13
3.06334e-13
5.83493e-14
1.75048e-13
1.60461e-13
1.89635e-13
1.89635e-13
3.8812e-27
1.75048e-13
1.75048e-13
1.45873e-14
1.45873e-14
3.64683e-13
8.75239e-14
5.83493e-14
1.45873e-13
2.04222e-13
5.83493e-14
4.3762e-14
7.29366e-14
1.16699e-13
1.44519e-27
1.31286e-13
1.31286e-13
8.75239e-14
1.45873e-13
2.91746e-14
1.31286e-13
2.1881e-13
1.31286e-13
1.46025e-26
2.77159e-13
2.47984e-13
1.02111e-13
1.60461e-13
8.75239e-14
1.75048e-13
1.75048e-13
1.02111e-13
3.20921e-13
1.60461e-13
4.08445e-13
2.47984e-13
3.35508e-13
2.77159e-13
3.20921e-13
1.75048e-13
3.93858e-13
3.7927e-13
1.89635e-13
3.20921e-13
2.04222e-13
1.75048e-13
1.16699e-13
1.89635e-13
2.91746e-13
2.77159e-13
1.75048e-13
1.75048e-13
1.45873e-14
1.45873e-13
2.47984e-13
2.33397e-13
1.89635e-13
5.83493e-14
2.91746e-13
2.1881e-13
1.60461e-13
3.35508e-13
2.47984e-13
4.52207e-13
4.3762e-13
2.04222e-13
3.20921e-13
5.83493e-14
3.20921e-13
3.93858e-13
1.45873e-13
5.25144e-13
7.29366e-14
4.52207e-13
1.31286e-13
2.04222e-13
1.16699e-13
7.29366e-14
7.29366e-14
1.02111e-13
2.77159e-13
7.29366e-14
2.1881e-13
1.75048e-13
2.91746e-14
3.50096e-13
2.77159e-13
2.91746e-13
4.52207e-13
4.08445e-13
3.50096e-13
3.64683e-13
3.35508e-13
2.33397e-13
3.06334e-13
4.23032e-13
1.31286e-13
1.02111e-13
3.50096e-13
2.91746e-13
2.91746e-13
1.89635e-13
3.06334e-13
1.60461e-13
7.29366e-14
2.04222e-13
1.16699e-13
5.83493e-14
7.29366e-14
1.45873e-14
1.45873e-14
2.04222e-13
4.3762e-14
2.91746e-14
2.39498e-27
4.3762e-14
8.75239e-14
2.91746e-14
1.45873e-14
1.31286e-13
3.35508e-13
2.91746e-14
3.64683e-13
1.16699e-13
2.91746e-14
1.27795e-27
4.3762e-14
8.75239e-14
1.75048e-13
2.91746e-13
2.47984e-13
1.75048e-13
1.06402e-26
2.04222e-13
5.83493e-14
2.91746e-14
1.02111e-13
2.62572e-13
1.31286e-13
1.02111e-13
2.62572e-13
2.04222e-13
2.62572e-13
1.45873e-14
3.7927e-13
8.75239e-14
7.29366e-14
1.31286e-13
2.33397e-13
1.16699e-13
2.91746e-14
1.60461e-13
2.1881e-13
5.83493e-14
4.66794e-13
7.45631e-27
3.50096e-13
8.75239e-14
2.62572e-13
1.16699e-13
1.60461e-13
8.75239e-14
1.31286e-13
5.83493e-14
5.83493e-14
8.75239e-14
2.04222e-13
2.91746e-14
7.29366e-14
5.83493e-14
7.29366e-14
1.60461e-13
1.75048e-13
2.47984e-13
1.89635e-13
2.33397e-13
2.62572e-13
1.45873e-14
4.66794e-13
8.75239e-14
2.47984e-13
3.06334e-13
1.45873e-13
1.31286e-13
1.45873e-14
1.45873e-14
1.31286e-13
1.31286e-13
2.47984e-13
2.04222e-13
1.31286e-13
1.16699e-13
8.75239e-14
1.45873e-13
2.47984e-13
2.77159e-13
5.25144e-13
3.93858e-13
7.14779e-13
2.47984e-13
4.52207e-13
2.47984e-13
5.25144e-13
1.89635e-13
7.43953e-13
4.66794e-13
8.75239e-13
7.73128e-13
9.04414e-13
8.31477e-13
7.14779e-13
4.81382e-13
4.81382e-13
)
;

boundaryField
{
    sides
    {
        type            calculated;
        value           nonuniform List<scalar> 2(4.81382e-13 1.45873e-13);
    }
    empty
    {
        type            empty;
    }
}


// ************************************************************************* //
