/*--------------------------------*- C++ -*----------------------------------*\
  =========                 |
  \\      /  F ield         | OpenFOAM: The Open Source CFD Toolbox
   \\    /   O peration     | Website:  https://openfoam.org
    \\  /    A nd           | Version:  9
     \\/     M anipulation  |
\*---------------------------------------------------------------------------*/
FoamFile
{
    format      ascii;
    class       volScalarField;
    location    "0.003";
    object      p;
}
// * * * * * * * * * * * * * * * * * * * * * * * * * * * * * * * * * * * * * //

dimensions      [1 -1 -2 0 0 0 0];

internalField   nonuniform List<scalar> 
1000
(
100000
100000
100000
100000
100000
100000
100000
100000
100000
100000
100000
100000
100000
100000
100000
100000
100000
100000
100000
100000
100000
100000
100000
100000
100000
100000
100000
100000
100000
100000
100000
100000
100000
100000
100000
100000
100000
100000
100000
100000
100000
100000
100000
100000
100000
100000
100000
100000
100000
100000
100000
100000
100000
100000
100000
100000
100000
100000
100000
100000
100000
100000
100000
100000
100000
100000
100000
100000
100000
100000
100000
100000
100000
100000
100000
100000
100000
100000
100000
100000
100000
100000
100000
100000
100000
100000
100000
100000
100000
100000
100000
100000
100000
100000
100000
100000
100000
100000
100000
100000
100000
100000
100000
100000
100000
100000
100000
100000
100000
100000
100000
100000
100000
100000
100000
100000
100000
100000
100000
100000
100000
100000
100000
100000
100000
100000
100000
100000
100000
100000
100000
100000
100000
100000
100000
100000
100000
100000
100000
100000
100000
100000
100000
100000
100000
100000
100000
100000
100000
100000
100000
100000
100000
100000
100000
100000
100000
100000
100000
100000
100000
100000
100000
100000
100000
100000
100000
100000
100000
100000
100000
100000
100000
100000
100000
100000
100000
100000
100000
100000
100000
100000
100000
100000
100000
100000
100000
100000
100000
100000
100000
100000
100000
100000
100000
100000
100000
100000
100000
100000
100000
100000
100000
100000
100000
100000
100000
100000
100000
100000
100000
100000
100000
100000
100000
100000
100000
100000
100000
100000
100000
100000
100000
100000
100000
100000
100000
100000
100000
100000
100000
100000
100000
100000
100000
100000
100000
100000
100000
100000
100000
100000
100000
100000
100000
100000
100000
100000
100000
100000
100000
100000
100000
100000
100000
100000
100000
100000
100000
100000
100000
100000
100000
100000
100000
100000
100000
100000
100000
100000
100000
100000
100000
100000
100000
100000
100000
100000
100000
100000
100000
100000
100000
100000
100000
100000
100000
100000
100000
100000
100000
100000
100000
100000
100000
100000
100000
100000
100000
100000
100000
100000
100000
100000
100000
100000
100000
100000
100000
100000
100000
100000
100000
100000
100000
100000
100000
100000
100000
100000
100000
100000
100000
100000
100000
100000
100000
100000
100000
100000
100000
100000
100000
100000
100000
100000
100000
100000
100000
100000
100000
100000
100000
100000
100000
100000
100000
100000
100000
100000
100000
100000
99999.9
99999.9
99999.8
99999.7
99999.6
99999.3
99998.9
99998.3
99997.3
99995.8
99993.6
99990.3
99985.5
99978.6
99968.8
99955.1
99936
99910
99875.1
99828.9
99768.8
99691.5
99594
99472.7
99324.3
99145.3
98932.8
98684.1
98397.3
98071.1
97704.7
97298.3
96852.6
96369
95849.4
95296.1
94711.7
94098.8
93460.2
92798.6
92116.8
91417.2
90702.2
89973.9
89234.4
88485.3
87728.5
86965.2
86196.8
85424.4
84649.1
83871.7
83093
82313.8
81534.7
80756.2
79978.9
79203.2
78429.4
77658.1
76889.5
76124
75361.7
74603
73848.1
73097.2
72350.5
71608.1
70870.4
70137.3
69409
68685.7
67967.4
67254.3
66546.4
65843.9
65146.7
64455
63768.9
63088.2
62413.2
61743.8
61080.1
60422.1
59769.8
59123.2
58482.4
57847.3
57218
56594.4
55976.7
55364.6
54758.4
54157.9
53563.2
52974.2
52391
51813.4
51241.8
50675.7
50115.5
49560.8
49011.9
48468.8
47931.2
47399.5
46873.4
46353
45838.3
45329.3
44826
44328.5
43836.7
43350.7
42870.5
42396.2
41927.7
41465.2
41008.7
40558.2
40113.9
39675.8
39244
38818.7
38400
37988
37582.9
37184.9
36794.2
36411.1
36035.9
35668.8
35310.2
34960.5
34620
34289.3
33968.8
33659
33360.6
33074
32800
32539.2
32292.2
32059.6
31842.1
31640.1
31454.2
31284.6
31131.6
30995
30874.7
30770.3
30681
30606.1
30544.3
30494.4
30455
30424.6
30401.8
30385.2
30373.5
30365.5
30360.2
30356.9
30354.9
30353.7
30353.2
30352.9
30352.7
30352.5
30352.5
30352.4
30352.3
30352.2
30352.2
30352
30351.9
30351.8
30351.7
30351.6
30351.4
30351.3
30351.2
30351
30350.9
30350.7
30350.6
30350.5
30350.3
30350.2
30350.1
30350
30349.8
30349.7
30349.6
30349.5
30349.4
30349.3
30349.2
30349.1
30349.1
30348.9
30348.9
30348.8
30348.8
30348.6
30348.6
30348.4
30348.4
30348.2
30348.3
30348.1
30348
30348
30348
30347.7
30347.8
30347.4
30347.4
30347.7
30348.3
30347.3
30345.1
30347.7
30350.7
30349.1
30343.1
30344.8
30345.6
30345.5
30345.3
30345.2
30345.4
30345.8
30346.4
30346.9
30347.3
30347.7
30347.8
30347.8
30347.8
30347.6
30347.5
30347.4
30347.2
30347
30346.8
30346.7
30346.5
30346.4
30346.3
30346.2
30346.2
30346.1
30346.1
30346
30346
30345.9
30345.8
30345.8
30345.7
30345.6
30345.5
30345.4
30345.3
30345.2
30345.1
30345
30344.9
30344.8
30344.7
30344.6
30344.6
30344.5
30344.4
30344.4
30344.3
30344.2
30344.1
30344
30343.9
30343.7
30343.6
30343.4
30343.2
30343.1
30342.9
30342.7
30342.5
30342.3
30342.2
30342.1
30342.1
30341.9
30341.8
30341.5
30341.3
30341.1
30340.9
30340.5
30339.9
30339
30337.5
30334.5
30328.7
30317.8
30296.4
30250.7
30155.8
29949.7
29470.8
28378
26006
21622.9
16735.5
13010
11044
10299.5
10077.9
10019.6
10004.9
10001.2
10000.3
10000.1
10000
10000
10000
10000
10000
10000
10000
10000
10000
10000
10000
10000
10000
10000
10000
10000
10000
10000
10000
10000
10000
10000
10000
10000
10000
10000
10000
10000
10000
10000
10000
10000
10000
10000
10000
10000
10000
10000
10000
10000
10000
10000
10000
10000
10000
10000
10000
10000
10000
10000
10000
10000
10000
10000
10000
10000
10000
10000
10000
10000
10000
10000
10000
10000
10000
10000
10000
10000
10000
10000
10000
10000
10000
10000
10000
10000
10000
10000
10000
10000
10000
10000
10000
10000
10000
10000
10000
10000
10000
10000
10000
10000
10000
10000
10000
10000
10000
10000
10000
10000
10000
10000
10000
10000
10000
10000
10000
10000
10000
10000
10000
10000
10000
10000
10000
10000
10000
10000
10000
10000
10000
10000
10000
10000
10000
10000
10000
10000
10000
10000
10000
10000
10000
10000
10000
10000
10000
10000
10000
10000
10000
10000
10000
10000
10000
10000
10000
10000
10000
10000
10000
10000
10000
10000
10000
10000
10000
10000
10000
10000
10000
10000
10000
10000
10000
10000
10000
10000
10000
10000
10000
10000
10000
10000
10000
10000
10000
10000
10000
10000
10000
10000
10000
10000
10000
10000
10000
10000
10000
10000
10000
10000
10000
10000
10000
10000
10000
10000
10000
10000
10000
10000
10000
10000
10000
10000
10000
10000
10000
10000
10000
10000
10000
10000
10000
10000
10000
10000
10000
10000
10000
10000
10000
10000
10000
10000
10000
10000
10000
10000
10000
10000
10000
10000
10000
10000
10000
10000
10000
10000
10000
10000
10000
10000
10000
10000
10000
10000
10000
10000
10000
10000
10000
10000
10000
10000
10000
10000
10000
10000
10000
10000
10000
10000
10000
10000
10000
10000
10000
10000
10000
10000
10000
10000
10000
10000
10000
10000
10000
10000
10000
10000
10000
10000
10000
10000
10000
10000
10000
10000
10000
10000
10000
10000
10000
10000
10000
10000
10000
10000
10000
10000
10000
10000
10000
10000
10000
10000
10000
10000
10000
10000
10000
10000
10000
10000
10000
10000
10000
10000
10000
10000
10000
10000
)
;

boundaryField
{
    sides
    {
        type            zeroGradient;
    }
    empty
    {
        type            empty;
    }
}


// ************************************************************************* //
