/*--------------------------------*- C++ -*----------------------------------*\
  =========                 |
  \\      /  F ield         | OpenFOAM: The Open Source CFD Toolbox
   \\    /   O peration     | Website:  https://openfoam.org
    \\  /    A nd           | Version:  9
     \\/     M anipulation  |
\*---------------------------------------------------------------------------*/
FoamFile
{
    format      ascii;
    class       volVectorField;
    location    "0.003";
    object      U;
}
// * * * * * * * * * * * * * * * * * * * * * * * * * * * * * * * * * * * * * //

dimensions      [0 1 -1 0 0 0 0];

internalField   nonuniform List<vector> 
1000
(
(-1.45873e-13 0 0)
(-1.6046e-13 0 0)
(-1.45873e-14 0 0)
(-1.89635e-13 0 0)
(-2.91746e-13 0 0)
(-2.1881e-13 0 0)
(-1.31286e-13 0 0)
(-2.77159e-13 0 0)
(-2.91746e-14 0 0)
(-1.02111e-13 0 0)
(7.29365e-14 0 0)
(7.29365e-14 0 0)
(-1.45873e-14 0 0)
(-1.6046e-13 0 0)
(-1.75048e-13 0 0)
(-2.04222e-13 0 0)
(-1.89635e-13 0 0)
(-1.31286e-13 0 0)
(-3.64683e-13 0 0)
(-2.33397e-13 0 0)
(-3.64683e-13 0 0)
(-3.20921e-13 0 0)
(-4.08444e-13 0 0)
(-7.29365e-14 0 0)
(-2.91746e-13 0 0)
(-1.45873e-13 0 0)
(-2.47984e-13 0 0)
(-2.04222e-13 0 0)
(-7.29365e-14 0 0)
(-1.16698e-13 0 0)
(-2.04222e-13 0 0)
(-3.7927e-13 0 0)
(-3.64683e-13 0 0)
(-4.52206e-13 0 0)
(-3.20921e-13 0 0)
(-5.54317e-13 0 0)
(-2.77159e-13 0 0)
(-6.41841e-13 0 0)
(-2.62571e-13 0 0)
(-5.98079e-13 0 0)
(-5.10556e-13 0 0)
(-5.98079e-13 0 0)
(-4.81381e-13 0 0)
(-2.91746e-13 0 0)
(-3.64683e-13 0 0)
(-3.64683e-13 0 0)
(-4.81381e-13 0 0)
(-5.10556e-13 0 0)
(-4.95968e-13 0 0)
(-4.08444e-13 0 0)
(-4.23032e-13 0 0)
(-2.62571e-13 0 0)
(-2.62571e-13 0 0)
(-2.62571e-13 0 0)
(-4.08444e-13 0 0)
(-4.66794e-13 0 0)
(-6.85603e-13 0 0)
(-4.66794e-13 0 0)
(-7.43952e-13 0 0)
(-5.10556e-13 0 0)
(-9.19e-13 0 0)
(-5.98079e-13 0 0)
(-9.33587e-13 0 0)
(-5.3973e-13 0 0)
(-7.43952e-13 0 0)
(-5.98079e-13 0 0)
(-4.81381e-13 0 0)
(-2.77159e-13 0 0)
(-1.75048e-13 0 0)
(1.45873e-14 0 0)
(-1.02111e-13 0 0)
(2.62571e-13 0 0)
(-4.37619e-14 0 0)
(7.29365e-14 0 0)
(-1.02111e-13 0 0)
(-5.83492e-14 0 0)
(-1.02111e-13 0 0)
(-4.37619e-14 0 0)
(1.45873e-14 0 0)
(-8.75238e-14 0 0)
(-4.55646e-27 0 0)
(-2.91746e-14 0 0)
(7.29365e-14 0 0)
(7.29365e-14 0 0)
(7.29365e-14 0 0)
(2.91746e-14 0 0)
(1.16698e-13 0 0)
(5.83492e-14 0 0)
(2.33397e-13 0 0)
(5.83492e-14 0 0)
(-4.37619e-14 0 0)
(-2.77159e-13 0 0)
(-5.83492e-14 0 0)
(-2.77159e-13 0 0)
(2.91746e-14 0 0)
(-1.45873e-14 0 0)
(1.45873e-14 0 0)
(1.02111e-13 0 0)
(2.91746e-14 0 0)
(2.33397e-13 0 0)
(2.91746e-14 0 0)
(1.45873e-13 0 0)
(4.37619e-14 0 0)
(1.16698e-13 0 0)
(1.64515e-27 0 0)
(3.20921e-13 0 0)
(5.83492e-14 0 0)
(2.91746e-13 0 0)
(2.91746e-14 0 0)
(1.31286e-13 0 0)
(2.91746e-14 0 0)
(1.16698e-13 0 0)
(-5.83492e-14 0 0)
(-2.91746e-14 0 0)
(-2.33397e-13 0 0)
(8.75238e-14 0 0)
(-4.37619e-14 0 0)
(-1.75048e-13 0 0)
(-2.33397e-13 0 0)
(-3.06333e-13 0 0)
(-3.64683e-13 0 0)
(-4.52206e-13 0 0)
(-4.95968e-13 0 0)
(-5.54317e-13 0 0)
(-6.27254e-13 0 0)
(-3.93857e-13 0 0)
(-7.43952e-13 0 0)
(-3.64683e-13 0 0)
(-5.54317e-13 0 0)
(-3.20921e-13 0 0)
(-4.23032e-13 0 0)
(-2.62571e-13 0 0)
(-1.89635e-13 0 0)
(-2.54329e-27 0 0)
(-4.37619e-14 0 0)
(-4.37619e-14 0 0)
(5.83492e-14 0 0)
(-1.89635e-13 0 0)
(-1.31286e-13 0 0)
(-2.33397e-13 0 0)
(-7.29365e-14 0 0)
(-1.45873e-14 0 0)
(2.91746e-14 0 0)
(1.45873e-14 0 0)
(-1.69132e-27 0 0)
(1.16698e-13 0 0)
(-2.91746e-14 0 0)
(1.45873e-13 0 0)
(8.75238e-14 0 0)
(2.91746e-13 0 0)
(1.75048e-13 0 0)
(2.77159e-13 0 0)
(1.02111e-13 0 0)
(7.29365e-14 0 0)
(5.83492e-14 0 0)
(1.45873e-13 0 0)
(2.04222e-13 0 0)
(1.75048e-13 0 0)
(2.33397e-13 0 0)
(2.91746e-13 0 0)
(2.47984e-13 0 0)
(3.50095e-13 0 0)
(1.31286e-13 0 0)
(3.35508e-13 0 0)
(-2.91746e-14 0 0)
(1.02111e-13 0 0)
(-5.83492e-14 0 0)
(-2.99136e-27 0 0)
(-1.6046e-13 0 0)
(1.75048e-13 0 0)
(1.75048e-13 0 0)
(3.20921e-13 0 0)
(3.50095e-13 0 0)
(4.23032e-13 0 0)
(4.95968e-13 0 0)
(4.95968e-13 0 0)
(6.56429e-13 0 0)
(6.27254e-13 0 0)
(7.14778e-13 0 0)
(4.81381e-13 0 0)
(6.71016e-13 0 0)
(4.37619e-13 0 0)
(5.98079e-13 0 0)
(3.93857e-13 0 0)
(3.93857e-13 0 0)
(3.50095e-13 0 0)
(8.75238e-14 0 0)
(1.75048e-13 0 0)
(-8.75238e-14 0 0)
(2.91746e-14 0 0)
(9.59255e-28 0 0)
(4.37619e-14 0 0)
(-1.16698e-13 0 0)
(-1.75048e-13 0 0)
(-2.91746e-13 0 0)
(-1.45873e-13 0 0)
(-4.37619e-14 0 0)
(4.37619e-14 0 0)
(8.75238e-14 0 0)
(2.91746e-13 0 0)
(8.75238e-14 0 0)
(3.35508e-13 0 0)
(-8.75238e-14 0 0)
(5.83492e-14 0 0)
(-1.16698e-13 0 0)
(-1.45873e-14 0 0)
(8.75238e-14 0 0)
(1.31286e-13 0 0)
(1.31286e-13 0 0)
(2.77159e-13 0 0)
(1.16698e-13 0 0)
(2.62571e-13 0 0)
(2.04222e-13 0 0)
(2.33397e-13 0 0)
(1.75048e-13 0 0)
(3.35508e-13 0 0)
(1.75048e-13 0 0)
(2.1881e-13 0 0)
(-9.44639e-28 0 0)
(-7.29365e-14 0 0)
(1.31286e-13 0 0)
(1.02111e-13 0 0)
(-1.16698e-13 0 0)
(1.89635e-13 0 0)
(1.6046e-13 0 0)
(2.47984e-13 0 0)
(4.95968e-13 0 0)
(2.77159e-13 0 0)
(5.68905e-13 0 0)
(2.47984e-13 0 0)
(3.50095e-13 0 0)
(1.45873e-13 0 0)
(4.08444e-13 0 0)
(1.31286e-13 0 0)
(4.37619e-13 0 0)
(3.64683e-13 0 0)
(3.50095e-13 0 0)
(2.62571e-13 0 0)
(1.89635e-13 0 0)
(3.06333e-13 0 0)
(3.06333e-13 0 0)
(5.68905e-13 0 0)
(3.7927e-13 0 0)
(6.41841e-13 0 0)
(5.83492e-13 0 0)
(6.85603e-13 0 0)
(7.43952e-13 0 0)
(7.14778e-13 0 0)
(6.12667e-13 0 0)
(7.43952e-13 0 0)
(4.81381e-13 0 0)
(6.71016e-13 0 0)
(4.23032e-13 0 0)
(7.14778e-13 0 0)
(4.37619e-13 0 0)
(6.85603e-13 0 0)
(4.52206e-13 0 0)
(5.98079e-13 0 0)
(6.41841e-13 0 0)
(8.31476e-13 0 0)
(5.68905e-13 0 0)
(9.62762e-13 0 0)
(5.98079e-13 0 0)
(1.02111e-12 0 0)
(8.02302e-13 0 0)
(1.22533e-12 0 0)
(9.19e-13 0 0)
(1.02111e-12 0 0)
(8.89825e-13 0 0)
(1.05029e-12 0 0)
(9.62762e-13 0 0)
(1.05029e-12 0 0)
(9.19e-13 0 0)
(1.00652e-12 0 0)
(1.0357e-12 0 0)
(8.60651e-13 0 0)
(1.06487e-12 0 0)
(7.29365e-13 0 0)
(1.0357e-12 0 0)
(1.02111e-12 0 0)
(1.10863e-12 0 0)
(7.0019e-13 0 0)
(1.28368e-12 0 0)
(6.71016e-13 0 0)
(8.31476e-13 0 0)
(6.85603e-13 0 0)
(7.43952e-13 0 0)
(3.7927e-13 0 0)
(5.98079e-13 0 0)
(3.64683e-13 0 0)
(8.16889e-13 0 0)
(4.23032e-13 0 0)
(6.41841e-13 0 0)
(4.81381e-13 0 0)
(7.0019e-13 0 0)
(6.12667e-13 0 0)
(8.75238e-13 0 0)
(6.41841e-13 0 0)
(7.5854e-13 0 0)
(7.0019e-13 0 0)
(9.62762e-13 0 0)
(6.27254e-13 0 0)
(7.87714e-13 0 0)
(6.12667e-13 0 0)
(7.0019e-13 0 0)
(7.43952e-13 0 0)
(9.04413e-13 0 0)
(8.60651e-13 0 0)
(8.31476e-13 0 0)
(6.56429e-13 0 0)
(6.56429e-13 0 0)
(7.0019e-13 0 0)
(6.56429e-13 0 0)
(5.83492e-13 0 0)
(3.35508e-13 0 0)
(4.81381e-13 0 0)
(2.47984e-13 0 0)
(3.50095e-13 0 0)
(3.20921e-13 0 0)
(3.50095e-13 0 0)
(3.35508e-13 0 0)
(4.52206e-13 0 0)
(8.60651e-13 0 0)
(1.47332e-12 0 0)
(2.8737e-12 0 0)
(5.96621e-12 0 0)
(1.19324e-11 0 0)
(2.42441e-11 0 0)
(4.96114e-11 0 0)
(1.00652e-10 0 0)
(2.02472e-10 0 0)
(4.0595e-10 0 0)
(8.07743e-10 0 0)
(1.59731e-09 0 0)
(3.13604e-09 0 0)
(6.11374e-09 0 0)
(1.18328e-08 0 0)
(2.27315e-08 0 0)
(4.33425e-08 0 0)
(8.20109e-08 0 0)
(1.53982e-07 0 0)
(2.86847e-07 0 0)
(5.30115e-07 0 0)
(9.71795e-07 0 0)
(1.7669e-06 0 0)
(3.18589e-06 0 0)
(5.69603e-06 0 0)
(1.00967e-05 0 0)
(1.77418e-05 0 0)
(3.09001e-05 0 0)
(5.33343e-05 0 0)
(9.12163e-05 0 0)
(0.000154558 0 0)
(0.000259412 0 0)
(0.000431222 0 0)
(0.00070982 0 0)
(0.00115679 0 0)
(0.00186612 0 0)
(0.00297936 0 0)
(0.00470671 0 0)
(0.00735592 0 0)
(0.0113708 0 0)
(0.0173814 0 0)
(0.0262678 0 0)
(0.0392387 0 0)
(0.0579237 0 0)
(0.0844802 0 0)
(0.121707 0 0)
(0.173158 0 0)
(0.243253 0 0)
(0.33735 0 0)
(0.461792 0 0)
(0.623886 0 0)
(0.831812 0 0)
(1.09445 0 0)
(1.42113 0 0)
(1.82128 0 0)
(2.30407 0 0)
(2.87801 0 0)
(3.55056 0 0)
(4.32776 0 0)
(5.21406 0 0)
(6.21212 0 0)
(7.32277 0 0)
(8.54514 0 0)
(9.87678 0 0)
(11.3139 0 0)
(12.8515 0 0)
(14.4842 0 0)
(16.2056 0 0)
(18.0095 0 0)
(19.8896 0 0)
(21.8396 0 0)
(23.8536 0 0)
(25.9259 0 0)
(28.0513 0 0)
(30.2251 0 0)
(32.4428 0 0)
(34.7004 0 0)
(36.9945 0 0)
(39.3218 0 0)
(41.6794 0 0)
(44.0648 0 0)
(46.4757 0 0)
(48.91 0 0)
(51.366 0 0)
(53.8419 0 0)
(56.3363 0 0)
(58.8478 0 0)
(61.3752 0 0)
(63.9174 0 0)
(66.4733 0 0)
(69.042 0 0)
(71.6227 0 0)
(74.2143 0 0)
(76.8163 0 0)
(79.4279 0 0)
(82.0485 0 0)
(84.6773 0 0)
(87.3138 0 0)
(89.9574 0 0)
(92.6077 0 0)
(95.2641 0 0)
(97.9261 0 0)
(100.593 0 0)
(103.265 0 0)
(105.942 0 0)
(108.622 0 0)
(111.307 0 0)
(113.994 0 0)
(116.685 0 0)
(119.378 0 0)
(122.074 0 0)
(124.772 0 0)
(127.472 0 0)
(130.174 0 0)
(132.877 0 0)
(135.582 0 0)
(138.287 0 0)
(140.994 0 0)
(143.701 0 0)
(146.408 0 0)
(149.116 0 0)
(151.824 0 0)
(154.532 0 0)
(157.239 0 0)
(159.946 0 0)
(162.651 0 0)
(165.357 0 0)
(168.06 0 0)
(170.764 0 0)
(173.464 0 0)
(176.164 0 0)
(178.861 0 0)
(181.556 0 0)
(184.249 0 0)
(186.939 0 0)
(189.626 0 0)
(192.31 0 0)
(194.989 0 0)
(197.666 0 0)
(200.338 0 0)
(203.004 0 0)
(205.666 0 0)
(208.323 0 0)
(210.973 0 0)
(213.616 0 0)
(216.253 0 0)
(218.881 0 0)
(221.501 0 0)
(224.111 0 0)
(226.711 0 0)
(229.3 0 0)
(231.877 0 0)
(234.44 0 0)
(236.988 0 0)
(239.52 0 0)
(242.035 0 0)
(244.53 0 0)
(247.003 0 0)
(249.452 0 0)
(251.876 0 0)
(254.27 0 0)
(256.633 0 0)
(258.961 0 0)
(261.251 0 0)
(263.498 0 0)
(265.698 0 0)
(267.847 0 0)
(269.939 0 0)
(271.97 0 0)
(273.933 0 0)
(275.823 0 0)
(277.634 0 0)
(279.358 0 0)
(280.991 0 0)
(282.525 0 0)
(283.956 0 0)
(285.279 0 0)
(286.489 0 0)
(287.585 0 0)
(288.565 0 0)
(289.428 0 0)
(290.179 0 0)
(290.821 0 0)
(291.36 0 0)
(291.803 0 0)
(292.161 0 0)
(292.442 0 0)
(292.658 0 0)
(292.82 0 0)
(292.937 0 0)
(293.019 0 0)
(293.074 0 0)
(293.111 0 0)
(293.133 0 0)
(293.147 0 0)
(293.154 0 0)
(293.158 0 0)
(293.159 0 0)
(293.16 0 0)
(293.161 0 0)
(293.161 0 0)
(293.161 0 0)
(293.161 0 0)
(293.161 0 0)
(293.162 0 0)
(293.162 0 0)
(293.162 0 0)
(293.163 0 0)
(293.164 0 0)
(293.164 0 0)
(293.165 0 0)
(293.166 0 0)
(293.166 0 0)
(293.167 0 0)
(293.168 0 0)
(293.169 0 0)
(293.169 0 0)
(293.17 0 0)
(293.171 0 0)
(293.171 0 0)
(293.172 0 0)
(293.173 0 0)
(293.173 0 0)
(293.174 0 0)
(293.174 0 0)
(293.175 0 0)
(293.175 0 0)
(293.175 0 0)
(293.176 0 0)
(293.176 0 0)
(293.176 0 0)
(293.177 0 0)
(293.177 0 0)
(293.178 0 0)
(293.178 0 0)
(293.179 0 0)
(293.179 0 0)
(293.18 0 0)
(293.18 0 0)
(293.181 0 0)
(293.181 0 0)
(293.182 0 0)
(293.183 0 0)
(293.184 0 0)
(293.185 0 0)
(293.186 0 0)
(293.188 0 0)
(293.191 0 0)
(293.19 0 0)
(293.189 0 0)
(293.189 0 0)
(293.193 0 0)
(293.193 0 0)
(293.192 0 0)
(293.187 0 0)
(293.206 0 0)
(293.206 0 0)
(293.166 0 0)
(293.151 0 0)
(293.136 0 0)
(293.12 0 0)
(293.104 0 0)
(293.09 0 0)
(293.08 0 0)
(293.077 0 0)
(293.08 0 0)
(293.089 0 0)
(293.101 0 0)
(293.114 0 0)
(293.127 0 0)
(293.138 0 0)
(293.147 0 0)
(293.153 0 0)
(293.158 0 0)
(293.162 0 0)
(293.163 0 0)
(293.164 0 0)
(293.164 0 0)
(293.164 0 0)
(293.163 0 0)
(293.163 0 0)
(293.162 0 0)
(293.161 0 0)
(293.16 0 0)
(293.16 0 0)
(293.159 0 0)
(293.159 0 0)
(293.158 0 0)
(293.158 0 0)
(293.157 0 0)
(293.156 0 0)
(293.156 0 0)
(293.155 0 0)
(293.155 0 0)
(293.154 0 0)
(293.154 0 0)
(293.153 0 0)
(293.152 0 0)
(293.151 0 0)
(293.151 0 0)
(293.15 0 0)
(293.149 0 0)
(293.148 0 0)
(293.146 0 0)
(293.145 0 0)
(293.144 0 0)
(293.143 0 0)
(293.141 0 0)
(293.14 0 0)
(293.139 0 0)
(293.138 0 0)
(293.138 0 0)
(293.137 0 0)
(293.136 0 0)
(293.135 0 0)
(293.134 0 0)
(293.134 0 0)
(293.133 0 0)
(293.131 0 0)
(293.13 0 0)
(293.128 0 0)
(293.126 0 0)
(293.123 0 0)
(293.121 0 0)
(293.119 0 0)
(293.117 0 0)
(293.115 0 0)
(293.112 0 0)
(293.109 0 0)
(293.106 0 0)
(293.102 0 0)
(293.095 0 0)
(293.079 0 0)
(293.055 0 0)
(293.015 0 0)
(292.92 0 0)
(292.727 0 0)
(292.306 0 0)
(291.485 0 0)
(289.752 0 0)
(285.706 0 0)
(276.318 0 0)
(254.765 0 0)
(210.094 0 0)
(140.971 0 0)
(70.6706 0 0)
(26.3482 0 0)
(8.00223 0 0)
(2.15942 0 0)
(0.550417 0 0)
(0.13756 0 0)
(0.0341948 0 0)
(0.0084892 0 0)
(0.00210691 0 0)
(0.000522874 0 0)
(0.000129761 0 0)
(3.22023e-05 0 0)
(7.99154e-06 0 0)
(1.98323e-06 0 0)
(4.92172e-07 0 0)
(1.2214e-07 0 0)
(3.03108e-08 0 0)
(7.52184e-09 0 0)
(1.8662e-09 0 0)
(4.62783e-10 0 0)
(1.14452e-10 0 0)
(2.8066e-11 0 0)
(6.57888e-12 0 0)
(1.21075e-12 0 0)
(-4.3762e-14 0 0)
(-7.58541e-13 0 0)
(-8.02303e-13 0 0)
(-9.91938e-13 0 0)
(-8.02303e-13 0 0)
(-8.46065e-13 0 0)
(-9.04414e-13 0 0)
(-9.33589e-13 0 0)
(-1.42956e-12 0 0)
(-8.89827e-13 0 0)
(-1.35662e-12 0 0)
(-9.48176e-13 0 0)
(-1.25451e-12 0 0)
(-1.16699e-12 0 0)
(-1.16699e-12 0 0)
(-1.23992e-12 0 0)
(-1.25451e-12 0 0)
(-9.19001e-13 0 0)
(-1.21075e-12 0 0)
(-7.14779e-13 0 0)
(-9.91938e-13 0 0)
(-5.68906e-13 0 0)
(-1.05029e-12 0 0)
(-7.73128e-13 0 0)
(-1.06487e-12 0 0)
(-7.73128e-13 0 0)
(-1.06487e-12 0 0)
(-9.77351e-13 0 0)
(-9.77351e-13 0 0)
(-1.0357e-12 0 0)
(-7.58541e-13 0 0)
(-1.09405e-12 0 0)
(-7.29366e-13 0 0)
(-1.1524e-12 0 0)
(-7.00191e-13 0 0)
(-1.29827e-12 0 0)
(-7.58541e-13 0 0)
(-1.1524e-12 0 0)
(-5.68906e-13 0 0)
(-1.0357e-12 0 0)
(-6.71017e-13 0 0)
(-7.43953e-13 0 0)
(-2.33397e-13 0 0)
(-8.60652e-13 0 0)
(-1.89635e-13 0 0)
(-1.12322e-12 0 0)
(-2.77159e-13 0 0)
(-9.48176e-13 0 0)
(-3.20921e-13 0 0)
(-7.14779e-13 0 0)
(-4.08445e-13 0 0)
(-7.43953e-13 0 0)
(-4.23032e-13 0 0)
(-7.43953e-13 0 0)
(-3.93858e-13 0 0)
(-5.83493e-13 0 0)
(-8.1689e-13 0 0)
(-3.93858e-13 0 0)
(-6.71017e-13 0 0)
(-1.02111e-13 0 0)
(-5.68906e-13 0 0)
(-2.04222e-13 0 0)
(-6.12667e-13 0 0)
(-3.7927e-13 0 0)
(-7.73128e-13 0 0)
(-7.29366e-13 0 0)
(-1.02111e-12 0 0)
(-6.71017e-13 0 0)
(-8.1689e-13 0 0)
(-5.83493e-13 0 0)
(-1.05029e-12 0 0)
(-5.9808e-13 0 0)
(-9.77351e-13 0 0)
(-7.29366e-13 0 0)
(-8.46065e-13 0 0)
(-5.10556e-13 0 0)
(-4.95969e-13 0 0)
(-2.33397e-13 0 0)
(-2.33397e-13 0 0)
(-1.89635e-13 0 0)
(-1.31286e-13 0 0)
(5.83493e-14 0 0)
(1.89635e-13 0 0)
(1.16699e-13 0 0)
(2.77159e-13 0 0)
(1.89635e-13 0 0)
(2.33397e-13 0 0)
(2.1881e-13 0 0)
(1.75048e-13 0 0)
(2.91746e-13 0 0)
(3.06334e-13 0 0)
(5.83493e-14 0 0)
(1.75048e-13 0 0)
(-1.60461e-13 0 0)
(1.89635e-13 0 0)
(-1.89635e-13 0 0)
(-3.8812e-27 0 0)
(-1.75048e-13 0 0)
(1.75048e-13 0 0)
(-1.45873e-14 0 0)
(-1.45873e-14 0 0)
(-3.64683e-13 0 0)
(-8.75239e-14 0 0)
(-5.83493e-14 0 0)
(-1.45873e-13 0 0)
(-2.04222e-13 0 0)
(-5.83493e-14 0 0)
(-4.3762e-14 0 0)
(-7.29366e-14 0 0)
(1.16699e-13 0 0)
(1.44519e-27 0 0)
(1.31286e-13 0 0)
(1.31286e-13 0 0)
(8.75239e-14 0 0)
(1.45873e-13 0 0)
(-2.91746e-14 0 0)
(1.31286e-13 0 0)
(2.1881e-13 0 0)
(-1.31286e-13 0 0)
(-1.46025e-26 0 0)
(-2.77159e-13 0 0)
(2.47984e-13 0 0)
(-1.02111e-13 0 0)
(-1.60461e-13 0 0)
(-8.75239e-14 0 0)
(-1.75048e-13 0 0)
(1.75048e-13 0 0)
(-1.02111e-13 0 0)
(3.20921e-13 0 0)
(-1.60461e-13 0 0)
(4.08445e-13 0 0)
(-2.47984e-13 0 0)
(3.35508e-13 0 0)
(-2.77159e-13 0 0)
(3.20921e-13 0 0)
(-1.75048e-13 0 0)
(3.93858e-13 0 0)
(-3.7927e-13 0 0)
(1.89635e-13 0 0)
(-3.20921e-13 0 0)
(2.04222e-13 0 0)
(-1.75048e-13 0 0)
(1.16699e-13 0 0)
(-1.89635e-13 0 0)
(2.91746e-13 0 0)
(-2.77159e-13 0 0)
(1.75048e-13 0 0)
(-1.75048e-13 0 0)
(1.45873e-14 0 0)
(-1.45873e-13 0 0)
(-2.47984e-13 0 0)
(-2.33397e-13 0 0)
(-1.89635e-13 0 0)
(-5.83493e-14 0 0)
(-2.91746e-13 0 0)
(2.1881e-13 0 0)
(-1.60461e-13 0 0)
(3.35508e-13 0 0)
(-2.47984e-13 0 0)
(4.52207e-13 0 0)
(-4.3762e-13 0 0)
(2.04222e-13 0 0)
(-3.20921e-13 0 0)
(5.83493e-14 0 0)
(-3.20921e-13 0 0)
(3.93858e-13 0 0)
(1.45873e-13 0 0)
(5.25144e-13 0 0)
(7.29366e-14 0 0)
(4.52207e-13 0 0)
(-1.31286e-13 0 0)
(2.04222e-13 0 0)
(-1.16699e-13 0 0)
(7.29366e-14 0 0)
(-7.29366e-14 0 0)
(1.02111e-13 0 0)
(-2.77159e-13 0 0)
(-7.29366e-14 0 0)
(-2.1881e-13 0 0)
(-1.75048e-13 0 0)
(2.91746e-14 0 0)
(-3.50096e-13 0 0)
(2.77159e-13 0 0)
(-2.91746e-13 0 0)
(4.52207e-13 0 0)
(-4.08445e-13 0 0)
(3.50096e-13 0 0)
(-3.64683e-13 0 0)
(3.35508e-13 0 0)
(-2.33397e-13 0 0)
(3.06334e-13 0 0)
(-4.23032e-13 0 0)
(1.31286e-13 0 0)
(-1.02111e-13 0 0)
(3.50096e-13 0 0)
(-2.91746e-13 0 0)
(2.91746e-13 0 0)
(-1.89635e-13 0 0)
(3.06334e-13 0 0)
(-1.60461e-13 0 0)
(7.29366e-14 0 0)
(-2.04222e-13 0 0)
(1.16699e-13 0 0)
(-5.83493e-14 0 0)
(7.29366e-14 0 0)
(-1.45873e-14 0 0)
(1.45873e-14 0 0)
(2.04222e-13 0 0)
(-4.3762e-14 0 0)
(2.91746e-14 0 0)
(-2.39498e-27 0 0)
(4.3762e-14 0 0)
(8.75239e-14 0 0)
(2.91746e-14 0 0)
(1.45873e-14 0 0)
(-1.31286e-13 0 0)
(-3.35508e-13 0 0)
(-2.91746e-14 0 0)
(-3.64683e-13 0 0)
(-1.16699e-13 0 0)
(-2.91746e-14 0 0)
(-1.27795e-27 0 0)
(-4.3762e-14 0 0)
(8.75239e-14 0 0)
(1.75048e-13 0 0)
(2.91746e-13 0 0)
(2.47984e-13 0 0)
(1.75048e-13 0 0)
(1.06402e-26 0 0)
(2.04222e-13 0 0)
(5.83493e-14 0 0)
(2.91746e-14 0 0)
(1.02111e-13 0 0)
(2.62572e-13 0 0)
(1.31286e-13 0 0)
(1.02111e-13 0 0)
(2.62572e-13 0 0)
(2.04222e-13 0 0)
(-2.62572e-13 0 0)
(-1.45873e-14 0 0)
(-3.7927e-13 0 0)
(-8.75239e-14 0 0)
(-7.29366e-14 0 0)
(1.31286e-13 0 0)
(2.33397e-13 0 0)
(1.16699e-13 0 0)
(-2.91746e-14 0 0)
(-1.60461e-13 0 0)
(2.1881e-13 0 0)
(-5.83493e-14 0 0)
(4.66794e-13 0 0)
(7.45631e-27 0 0)
(3.50096e-13 0 0)
(-8.75239e-14 0 0)
(2.62572e-13 0 0)
(-1.16699e-13 0 0)
(-1.60461e-13 0 0)
(-8.75239e-14 0 0)
(-1.31286e-13 0 0)
(-5.83493e-14 0 0)
(-5.83493e-14 0 0)
(8.75239e-14 0 0)
(-2.04222e-13 0 0)
(-2.91746e-14 0 0)
(7.29366e-14 0 0)
(-5.83493e-14 0 0)
(7.29366e-14 0 0)
(1.60461e-13 0 0)
(1.75048e-13 0 0)
(2.47984e-13 0 0)
(1.89635e-13 0 0)
(2.33397e-13 0 0)
(-2.62572e-13 0 0)
(1.45873e-14 0 0)
(-4.66794e-13 0 0)
(8.75239e-14 0 0)
(-2.47984e-13 0 0)
(3.06334e-13 0 0)
(-1.45873e-13 0 0)
(1.31286e-13 0 0)
(-1.45873e-14 0 0)
(1.45873e-14 0 0)
(-1.31286e-13 0 0)
(1.31286e-13 0 0)
(-2.47984e-13 0 0)
(-2.04222e-13 0 0)
(-1.31286e-13 0 0)
(-1.16699e-13 0 0)
(-8.75239e-14 0 0)
(-1.45873e-13 0 0)
(-2.47984e-13 0 0)
(-2.77159e-13 0 0)
(-5.25144e-13 0 0)
(-3.93858e-13 0 0)
(-7.14779e-13 0 0)
(-2.47984e-13 0 0)
(-4.52207e-13 0 0)
(-2.47984e-13 0 0)
(-5.25144e-13 0 0)
(-1.89635e-13 0 0)
(-7.43953e-13 0 0)
(-4.66794e-13 0 0)
(-8.75239e-13 0 0)
(-7.73128e-13 0 0)
(-9.04414e-13 0 0)
(-8.31477e-13 0 0)
(-7.14779e-13 0 0)
(-4.81382e-13 0 0)
(-4.81382e-13 0 0)
)
;

boundaryField
{
    sides
    {
        type            zeroGradient;
    }
    empty
    {
        type            empty;
    }
}


// ************************************************************************* //
