/*--------------------------------*- C++ -*----------------------------------*\
  =========                 |
  \\      /  F ield         | OpenFOAM: The Open Source CFD Toolbox
   \\    /   O peration     | Website:  https://openfoam.org
    \\  /    A nd           | Version:  9
     \\/     M anipulation  |
\*---------------------------------------------------------------------------*/
FoamFile
{
    format      ascii;
    class       volScalarField;
    location    "18";
    object      p;
}
// * * * * * * * * * * * * * * * * * * * * * * * * * * * * * * * * * * * * * //

dimensions      [0 2 -2 0 0 0 0];

internalField   nonuniform List<scalar> 
918
(
0.37623697
1.6128703
0.017436311
0.33442962
-0.0021345269
1.5835158
-1.1572387
1.1315054
0.39758545
-0.36813925
-0.11160883
0.70893148
1.4549297
1.2153688
-0.93022049
-0.0078734265
1.0405628
-0.97068003
0.38440574
-0.01462504
1.2689224
0.34596761
0.37358112
0.3475781
0.85989272
1.2054535
1.3176745
0.0061759839
0.0034000146
-0.012082538
0.0046928313
-0.019052499
-0.0079710686
1.4597925
1.5138122
1.5375086
0.46520518
0.34018204
-0.90789376
-1.0353401
-0.97316742
-1.2365495
1.1094805
1.112344
-0.52654638
1.1325625
1.1553987
0.37891545
0.39234076
0.40099078
0.34230739
0.37250526
0.3883899
0.31066568
-0.38326973
-0.44218475
-0.3422104
-0.31700946
-0.043494131
-0.13529209
-0.16252655
-0.079279435
-0.065359958
0.55180699
0.6728734
0.65889677
0.7227452
0.74945786
1.549967
1.5134034
1.5403877
1.4872142
1.4775196
1.4347958
1.3979535
1.2537713
1.2609745
1.2133085
1.1777744
-1.472365
-2.5337773
-0.3401071
-0.025053957
-0.00066712672
-0.0056569679
0.0032350924
1.014249
1.0201622
1.0344084
1.0581566
1.1195191
-0.90044981
-1.1820045
0.38678773
0.37946896
0.37688474
0.35871035
0.40432661
0.44918455
-0.00094015068
-0.0029656452
-0.039935473
-0.0056354172
-0.013281613
1.2377888
1.2217944
0.3634459
0.36910726
0.77129014
0.82212444
0.79544266
0.35303787
0.88587201
0.92420168
0.98230694
1.1872971
1.2037526
1.1818155
1.3037513
1.2589207
1.3644041
1.3900298
0.026464699
0.0067252798
-0.0072181697
-0.0090284852
0.0044659755
0.47663469
0.50476374
0.46987601
0.4459495
0.44414918
0.28257407
0.13912593
0.4314473
0.44739894
-0.73887144
-0.83419219
-1.0222343
-1.0397713
-1.2598515
0.7130174
1.0906181
1.0944509
-0.5618136
-0.40967901
-0.6606778
-0.32221485
-0.41897728
0.4136518
0.39405245
0.41043686
0.36608498
0.37303169
0.3701666
0.37206121
0.3748795
0.38882017
0.37783909
0.51671064
0.2698188
0.2100109
-0.66168989
-0.45827245
-0.63632194
-0.30136713
-0.26607297
-0.049757903
-0.016771131
-0.075542264
-0.042703602
-0.25173138
-0.20021741
-0.21715414
-0.041988487
-0.030364473
0.53922224
0.54591675
0.53322836
0.54299374
0.58224006
0.5865105
0.63049531
0.61857037
1.3239117
1.3475924
1.3922889
1.3552462
-3.9535511
-6.6788872
0.31158945
0.49863791
0.0011615483
0.0022659789
0.0015580869
0.004396194
0.0016775101
-0.001287864
-0.0070795263
-0.019138901
-0.0060554273
0.00031560505
0.99117897
0.99289009
1.0620699
1.1043554
0.97904114
0.97633955
0.41027741
0.39810035
0.39680894
0.39468697
-0.013399071
-0.0027365562
-0.0090954562
1.1593185
1.1958337
1.1866917
0.26779338
0.12695316
0.42526343
0.46783002
0.96826552
0.94154016
0.96712442
1.0589424
1.0948089
1.3796241
1.3916564
1.4294398
1.4262431
1.4745507
1.4668931
1.4253397
0.52475658
0.50396381
0.53161551
0.41361163
0.44617419
0.43410527
0.53995747
0.49150969
0.53276424
-0.029895541
-0.37374323
0.52146848
0.51345988
0.49209656
0.48687425
0.79008129
0.88480285
1.0534287
1.0726322
1.078307
-0.18501136
-0.27804762
0.15229119
0.098716366
0.50155839
0.53364568
0.52763044
1.298068
1.29855
1.3448134
1.3071331
1.2484703
1.2711195
-0.401077
-1.5848694
-0.96045349
0.91346801
0.6871542
0.79502219
-0.054594923
-0.056025753
-0.039751675
1.0733265
1.1338474
0.56865795
0.81974959
0.82876392
1.1456393
1.1690155
1.239561
1.1638678
1.1911343
1.2170029
1.2001473
0.65559429
0.55891213
0.58392569
0.93058317
0.98490467
0.053739576
-0.055967633
-0.11285421
0.0038781181
0.058445441
0.033574454
1.0898521
1.0287968
1.1033075
0.3723804
0.36463862
0.013814991
0.022658662
0.39687531
0.36877178
0.0044772741
0.0029943854
0.76742253
-0.67984634
0.080719619
0.39614116
0.41351686
0.38758057
-0.34358265
0.26155409
-0.14163526
-0.033885627
0.065774185
0.68352545
0.56322305
0.54936003
0.009247532
0.02006185
-0.016224687
-0.55197947
0.38107035
0.36171642
0.37912653
0.36363639
0.39475308
0.0048459545
0.0050787304
0.0047380367
-0.011299811
-0.0068577472
0.0020655209
0.50220097
0.51880112
-0.44725376
0.39010466
0.37377496
0.39163377
0.34555153
0.40456336
0.35636365
0.013779522
0.005267188
-0.0010996805
0.30061193
0.48044688
1.0934915
1.2717195
1.0949641
0.71214536
0.38112436
0.94834817
1.0500415
0.90697211
1.0975008
1.0572219
1.102379
0.1590982
-0.072852806
0.17758613
0.11610035
0.39524107
0.40401061
0.42044311
0.42392189
0.40049208
0.37848876
0.39650711
0.39752844
0.39157158
0.40819134
-0.28436154
-0.32395448
-0.33503534
-0.42238507
0.27481448
0.54629948
0.1786487
0.21004941
0.0039306191
-0.11152672
-0.084164839
-0.17810609
-0.19774708
-0.16013422
0.013115846
-0.014777797
-0.055658419
0.054274247
-0.031332719
-0.15029633
-0.083082188
-0.12536941
0.64829393
0.63955832
0.67055665
0.72361368
0.54882672
0.54480391
0.54778787
0.54723607
0.54994811
0.49610794
0.52732182
0.52274882
0.0044106781
0.012287385
0.0040875456
0.013623627
0.015086571
-0.0017392226
0.0093274239
0.010490142
-0.0061167286
-0.00087530062
-0.014484512
-0.0090968009
-0.50737607
-0.6674112
1.0157747
0.86967267
0.056603901
0.38418374
0.36288023
0.35793278
0.39117702
0.3770975
0.3839266
0.3868169
0.38649793
0.47053621
0.44149087
0.50957828
0.56021728
-0.36358554
-0.59937408
-0.33799954
-0.38851662
0.20547166
0.93641156
0.46673955
0.36739419
0.38413647
0.75531136
1.2577898
1.1391741
1.2241838
1.2611115
-0.31506483
0.18551261
-0.11162036
0.57338432
0.79126307
1.0671818
1.1293457
1.1345522
1.1034408
1.034834
-0.23004313
0.7660622
-0.23082991
-0.21475388
0.12239431
-0.051866977
1.1446573
1.0317404
1.0403883
1.0873183
1.1271316
1.0440009
0.98913799
1.0036946
1.0753143
1.076327
0.70785083
0.34142444
0.22242669
0.21451294
1.0001446
0.77149869
0.86770507
0.70463717
0.42835777
0.423269
0.41341543
0.46427563
0.44380169
0.44767266
0.47091624
0.48680407
0.42677998
0.39429648
0.43897924
0.41187385
-0.29313322
-0.27502986
-0.24349775
-0.42022642
-0.41502973
-0.53459827
-0.31838704
-0.052379952
-0.10052695
0.11987428
0.24980183
-0.11058361
-0.3213846
-0.26832695
-0.20455767
0.031540314
0.093549785
-0.12879512
0.03226382
-0.10787217
-0.092886887
0.091387571
0.13708059
-0.16185601
-0.18060156
-0.23727141
-0.18812182
-0.058365949
-0.019178697
0.0014006968
-0.050315851
-0.10064427
-0.073104596
-0.044032388
-0.26360943
-0.25853929
-0.22916098
-0.26356573
0.011740007
0.0052967382
0.016157993
-0.015540043
-0.024512957
-0.033333152
0.57937477
0.60262995
0.58919876
0.73751365
0.73477523
0.77437744
0.72259218
0.49613124
0.52355752
0.5144712
0.5724908
0.54794481
0.59620401
0.59490343
0.63566355
0.64226178
0.52048918
0.49893617
0.60747478
0.56638245
0.57036888
0.57623999
0.61548153
0.55656703
0.55446415
0.0092459152
0.0023899394
0.0020069027
-0.0025748148
0.011829204
0.012747099
0.013740527
0.022465745
-0.0055866857
0.017410705
0.0076927186
0.014898958
0.0051390181
-0.33350105
-0.17476798
-0.56044524
-0.59502845
-0.6923264
0.90515969
1.0607178
0.80573254
0.5269136
0.55902639
0.84468586
0.98818952
0.49459438
0.62964373
0.74618449
0.67249994
0.918788
0.39101187
0.38640983
0.40236179
0.38584331
0.41099153
-0.18257515
0.0033350651
-0.056138942
0.11839318
0.32276589
0.37353536
0.19078238
0.13187787
0.29260305
0.18513338
0.92846711
0.95573922
0.85036033
0.90410531
0.90596525
0.57801991
0.72581873
0.83193378
0.74279208
0.83277311
0.85272238
0.78692267
0.83121539
0.76514357
0.6784216
0.68188332
0.56020473
0.59726779
0.5601079
0.5235326
0.66099116
0.61734966
0.66021504
0.6450555
0.70368284
0.77630557
0.76154526
0.78241383
0.8251292
0.68533462
0.63350746
0.63539664
0.69258775
0.60819722
0.61300847
0.64284234
0.18975312
0.19941033
0.071066396
-0.032336698
0.058520311
-0.10587442
-0.12542555
-0.096012359
0.21937376
-0.42061119
-0.40406584
-0.77696513
0.6419037
1.2921787
1.0803316
1.0719812
1.1303568
1.0889643
1.0803398
1.1558552
1.1592797
0.98526449
1.023772
1.024919
0.91926877
0.96396179
1.0610299
1.0412822
0.73208197
0.4775371
0.43021253
0.41102375
0.16408231
0.23963799
0.61177242
0.47605037
0.34102826
0.34588668
0.66428164
0.45831373
0.56690606
0.65144383
0.52208007
0.44852254
0.79296479
0.92042026
0.91015508
0.85666349
0.68551769
0.72537558
0.78482229
0.85766463
0.89508076
0.96927268
0.44429542
0.44183287
0.43387571
0.42200522
0.46139459
0.45331687
0.45272876
0.43001876
0.4246703
0.41914152
0.43783639
-0.22644655
-0.23787348
-0.26049328
-0.24238541
-0.22388785
-0.23969105
-0.12534205
-0.17160166
-0.25054415
-0.2398175
-0.23934523
-0.26691577
-0.22945003
-0.21301431
-0.068204269
0.017061209
-0.038241904
-0.068969702
0.16565202
0.29791372
0.35087864
0.28011595
0.099026935
0.11783927
0.18450075
-0.25387988
-0.15052986
-0.16837321
-0.14256783
-0.22688488
-0.095125416
-0.086927036
-0.094851417
-0.12424095
-0.12963515
-0.056987754
-0.013347167
-0.020858524
-0.011040452
-0.022702297
-0.018697033
0.49319382
0.52084582
0.57496775
0.54517682
0.53617617
0.55633655
0.52070555
0.53678396
0.53895417
0.57666908
0.56243718
0.60238934
0.58900745
0.0075691343
0.0097013305
0.015797092
-0.011422204
0.0030706014
0.018185297
0.0085059895
0.04142641
-0.086272481
-0.058376341
-0.17115814
-0.40501048
-0.29914843
0.41338623
0.54874511
0.54387354
0.78429362
0.56549329
0.51338972
0.66166241
0.78867822
0.21542576
0.44323515
0.2546105
0.92015264
0.82234612
0.99779289
0.536541
0.20724869
0.43574727
0.53268041
0.21279695
0.320148
0.34072441
0.17907945
0.25350855
0.26315621
0.41913799
0.20797611
0.25936042
0.18958125
0.21517186
0.27308736
0.29376347
0.38928018
0.45063075
0.14320329
0.11000541
0.044323906
0.91752621
0.94985411
0.98127541
0.9336642
0.98066234
0.8348687
0.82624416
0.85380459
0.87256601
0.85189073
-0.61197368
-0.71303274
-1.0506975
-0.49943014
0.11283818
0.68123266
0.56328572
1.1206494
0.88042321
1.1079574
1.0554997
1.0017237
0.91653177
0.89477784
0.98441755
0.48156657
0.64588568
0.62056716
0.60342548
0.43506167
0.33968175
0.87434726
0.85714229
0.92859273
0.96136525
0.9033215
0.97717208
0.47951359
0.49810485
0.47238663
0.4930994
0.48365918
0.49011139
-0.13805887
-0.24265098
-0.085759655
-0.09047293
-0.15429976
-0.21594179
0.028192136
0.00064563951
-0.019161517
-0.019559683
0.027811138
-0.0094745472
0.068100907
0.026937504
-0.15854705
-0.053960056
-0.21056896
-0.30826925
-0.36907262
-0.18869917
-0.067366945
-0.046545689
0.3511842
0.63716323
0.47624796
0.59750646
0.42432731
0.53652314
0.49092071
0.44631214
0.48675224
0.36606593
0.38407535
0.35324403
-0.43734805
-0.10083435
1.1720386
1.1007466
0.7265869
0.57007003
0.51354286
0.85865054
0.77398025
0.62815894
0.72417523
0.84492737
0.83432835
0.14168214
0.12678063
0.46463898
0.60027132
0.26203957
0.14218749
0.10871078
0.2730308
0.32285839
)
;

boundaryField
{
    wall-4
    {
        type            zeroGradient;
    }
    velocity-inlet-5
    {
        type            zeroGradient;
    }
    velocity-inlet-6
    {
        type            zeroGradient;
    }
    pressure-outlet-7
    {
        type            fixedValue;
        value           uniform 0;
    }
    wall-8
    {
        type            zeroGradient;
    }
    frontAndBackPlanes
    {
        type            empty;
    }
}


// ************************************************************************* //
