/*--------------------------------*- C++ -*----------------------------------*\
  =========                 |
  \\      /  F ield         | OpenFOAM: The Open Source CFD Toolbox
   \\    /   O peration     | Website:  https://openfoam.org
    \\  /    A nd           | Version:  9
     \\/     M anipulation  |
\*---------------------------------------------------------------------------*/
FoamFile
{
    format      ascii;
    class       surfaceScalarField;
    location    "18";
    object      phi;
}
// * * * * * * * * * * * * * * * * * * * * * * * * * * * * * * * * * * * * * //

dimensions      [0 3 -1 0 0 0 0];

internalField   nonuniform List<scalar> 
1300
(
1.7582594
5.6264299
-7.1554709
1.7582594
-7.1137877
5.6264299
-6.1746448
6.1746448
-1.683414
1.683414
3.7344947
3.6501946
-4.3291907
4.3291907
-4.6868712
4.6868712
-3.0166314
3.0166314
-5.2377022
5.2377022
-5.0563335
5.0563335
4.774866
-4.774866
-5.798994
5.798994
-2.3245171
2.3245171
-5.5729778
5.5729778
1.4744991
-1.4744991
-5.4445156
5.4445156
-0.51281667
0.51281667
-0.5767566
5.1482309
1.1815027
1.1815027
-3.1900141
3.1900141
-4.8392518
4.8392518
6.2143993
-6.2143993
10.811153
-10.811153
-3.6556821
-4.1216035
1.594184
-9.8476284
-5.5196037
-5.5196037
-8.4382704
8.4382704
-2.8118405
2.8145895
1.9560606
-1.9560606
-1.7982246
1.7982246
-6.138253
-0.036391837
-6.138253
6.2078394
-0.033194624
6.2078394
-1.8840621
0.20064812
-1.8840621
5.5075667
-5.5075667
1.4598022
0.22361174
1.4598022
1.332432
-1.332432
-3.7351543
7.469649
3.649535
-3.0535705
8.2018015
-3.3933804
7.043575
-6.7241249
6.7241249
-4.6338261
0.30463548
-4.6338262
4.1879006
0.14129008
4.1879006
-6.6759257
6.6759257
-4.4667893
-0.22008187
-4.4667893
4.9170301
-0.23015895
4.9170301
3.1099832
-3.1099832
-2.7810905
-0.23554092
-2.7810905
3.2060824
-0.18945097
3.2060824
0.35898355
5.2674464
-5.9854135
8.800003
-5.2674464
0.029744135
5.200054
0.037648222
5.200054
-5.0933338
0.037000321
-5.0933338
5.0125672
0.043766257
5.0125672
4.8774013
-0.10253531
4.8774013
-4.8717508
0.096884822
-4.8717508
-3.9649439
-4.1675489
-5.9410676
0.14207362
-5.9410676
-2.364634
0.040116841
-2.364634
2.2778041
0.046713068
2.2778041
-4.2214039
4.2214039
-5.993653
0.42067519
-5.993653
1.3614187
0.11308034
1.3614187
2.0099245
2.5615498
3.7681839
-3.7681838
2.2936847
-5.3568236
-0.087692011
-5.3568236
-5.5641293
-5.2470237
5.5641293
-0.11961364
-0.92538812
0.41257142
-0.92538812
1.2321617
-0.050658914
1.2321617
3.2928651
-0.086782743
-3.2928651
0.10285105
4.4526101
-4.4526101
2.385211
0.8048031
2.385211
-5.5800324
5.5800324
4.9485352
0.064031983
-4.9485352
0.10928343
6.1541989
0.060200436
6.1541989
-6.1927571
-0.021642278
-6.1927571
3.9933313
-8.1149347
-4.1587336
5.6579149
0.14107909
-5.6579148
0.13831112
2.2257476
-0.26968701
2.2257476
-1.7241195
1.7241195
-1.73726
-0.21880058
-1.73726
-2.1316364
0.33341179
-2.1316364
1.5257911
0.2724335
1.5257911
-5.9399751
-0.19827789
-5.9399751
-6.1681491
0.17449615
6.1681491
0.039690311
1.4438069
-1.4438069
-2.0655704
0.18150831
-2.0655704
-5.6890838
-0.25089133
5.6890838
-0.18151713
-5.4223684
-0.085198222
-5.4223685
-1.5180705
-0.21918953
1.5180705
-0.18563847
1.2730885
-0.040926855
-1.2730885
-0.059343517
-3.0543236
5.6158734
-3.3926273
7.0421624
-6.3234261
-0.40069888
-6.3234263
7.0202253
-0.29610042
7.0202252
5.1345858
0.438392
-5.1345857
0.50075959
4.1889112
-0.0010106045
4.1889112
-6.8829633
0.2070376
-6.8829634
6.4905978
0.18532785
6.4905978
4.2982441
-0.1093329
-4.2982441
-0.1685452
5.1020541
-0.18502394
5.1020541
3.3955696
-0.28558639
3.3955696
-2.8204372
-0.28954596
-2.8204372
2.2530839
-2.2530839
2.5212161
-0.26813218
-2.5212161
-0.25987437
-11.148712
11.12707
-0.035803815
-11.112909
5.1642502
5.1642502
4.0895889
0.78781237
4.0895889
-5.0572973
0.1855465
-5.0572973
3.9267137
-8.0854472
4.1630688
-8.1280127
4.141971
-13.989599
4.0121646
-8.1797135
6.2129919
-6.2129919
6.075472
0.13751988
-6.0754721
0.13440445
-2.3973371
0.032703137
-2.3973371
-3.5908367
-0.63056715
-3.5908367
4.8978187
-0.67641487
4.8978187
-1.433773
1.433773
-1.3655817
-0.0681913
1.3655817
-0.0041629539
5.2489395
-0.14688544
-5.2489395
-0.10788409
1.2092763
0.25052593
-1.2092763
0.28388818
4.8177352
-0.36512508
4.8177352
-4.0607533
-0.3918568
-4.0607533
-2.3965743
-0.00076282607
2.3965743
-0.011363261
-5.8230256
0.24299325
-5.8230256
-11.21343
0.10052169
-11.175782
-6.0922354
-6.0922354
2.346035
11.146038
-2.5170727
-0.30336445
2.5170727
-0.29132517
1.5616803
-0.12790735
-1.5616803
-0.16243915
-1.9838447
-0.26923923
1.9838447
-0.25972522
-2.5591107
0.42747431
-2.5591107
-1.2434238
1.2434238
-1.3340218
0.090598024
1.3340219
0.19176924
1.7604711
-0.31666425
1.7604711
2.1961976
0.081606427
-2.1961976
0.13062722
-5.2524818
-0.16988665
-5.2524818
7.1125723
-0.092347138
7.1125724
-3.7182993
-0.34245397
3.7182993
-0.32272977
-0.035279078
11.162349
-5.1289711
0.035637311
5.1289711
-11.22255
11.258187
-3.13959
0.58047921
3.1395899
0.94999897
5.3154668
0.26456554
-5.3154668
0.25816955
6.355536
0.13506189
-6.355536
0.1425441
-3.0715068
-0.51932996
-3.0715068
-5.6616525
-0.66177376
5.6616526
-0.76383387
-11.476054
-0.19407315
11.670127
-11.432287
6.0170988
0.13710014
-6.0170988
11.395287
-1.2685905
-0.17521646
1.2685905
-0.02516675
2.1180145
-0.35754332
2.1180144
5.1013883
-0.2836531
-5.1013884
-0.15109344
-7.0451653
0.16220195
7.0451652
0.06740715
-2.5709034
-0.50060339
2.5709034
-0.45288895
-5.3581568
5.3074979
2.8436446
-3.8965319
-4.2184028
-9.1435556
2.558624
3.0572494
4.8523088
-8.6881753
-5.3014241
-8.5498642
7.283213
-7.0250435
-9.5382081
9.4356728
10.029677
-10.114876
-7.4210247
7.4168617
8.5582353
-8.7438738
3.7635606
3.7060884
10.729798
-10.425162
-16.774377
16.373678
9.9052791
-10.125361
16.703806
-16.496768
-17.366312
17.501374
-7.3586032
7.1230623
-8.465077
8.1755311
-8.7734146
8.4506849
-3.8151891
-4.3128236
11.454248
-11.312175
13.714303
-13.801995
-11.553013
11.973688
4.0865137
1.2209842
4.0455869
-3.6183635
7.3819241
-3.4252115
6.2688561
4.1948029
-8.009992
3.8906443
-8.1090471
7.1979645
6.5163389
-7.0783508
-2.0652048
-7.8190839
7.5493969
-7.585376
7.3256508
11.980651
-12.017042
-3.5963021
7.3023904
-3.4458603
6.5031097
-3.7265421
-3.6944825
3.6134618
1.238847
6.9253186
4.5289297
-7.0663976
-1.4834666
-10.177386
9.8937332
-10.512724
10.120867
-0.4709123
5.7968698
-5.3259575
4.3683395
-1.4673611
7.2642309
5.8158519
6.0013984
5.8705059
-5.6059404
1.1545375
-6.480495
-6.3712116
-3.4357932
3.6173015
3.3773782
-3.1537665
7.8772347
2.1524426
7.6957175
-7.2684408
-2.8464347
-7.4383275
4.5839107
2.832951
4.5157193
5.2450218
3.3132134
5.0258323
5.8702783
-5.9291518
0.058873496
-5.4207127
11.290991
1.3732386
-9.1151953
-7.8763483
6.6763513
4.0534464
6.8176414
-7.536095
-2.8890672
-7.0353353
-10.164643
-6.6097347
-10.826417
11.01154
5.3621379
10.71544
-12.955284
13.022691
6.9881107
2.9171682
6.7579518
-6.2955529
-3.8298079
-6.464098
13.406079
-2.1215822
-11.284497
-10.458798
-6.9075149
10.27347
6.4303356
10.256183
7.2451908
10.398727
4.1048486
9.3012306
-10.535184
3.6276693
-4.4293611
-2.9292421
-4.6892355
4.72496
2.3981024
4.535509
-4.9770449
-3.4880321
-5.2804093
-4.9733318
-3.8000828
5.2589182
2.9166129
-5.3286598
-5.1840643
5.6711138
2.7795711
3.852755
-9.1541792
4.3269585
-8.6397822
-8.1690336
-3.143141
-8.0346292
5.1797263
2.8711303
-8.0508566
-2.8302658
13.004518
-6.4881788
10.939313
-8.2925128
-5.5094826
-8.4003968
-9.1508954
-2.4021175
-8.9763992
-9.5477543
9.0284243
-9.9063536
9.2299387
13.753659
-6.5887037
-7.1649549
-4.8702192
-3.8736546
4.9295627
-0.88397585
-7.2057355
7.264609
0.17618856
6.4450446
7.6660288
6.782053
-4.4652173
-3.1201587
-4.6276564
4.7313525
2.5942983
4.4621133
9.1199727
2.8606779
9.0867781
-8.5353125
-3.4817299
-8.7335904
9.5997834
-9.2663716
3.9409329
-3.9416957
6.8562612
3.2646062
-6.4911361
-3.6862502
8.2278036
-4.0216272
-4.2061764
-12.094804
10.689277
1.4055272
-4.8305728
-0.46223333
0.050583355
-5.5920932
-3.946115
5.4952084
0.50619001
11.195467
7.2493516
-5.5189212
5.7619144
6.1512056
6.2152376
-0.15597403
6.1160262
-5.535547
7.0788428
-3.1070422
-3.9718006
6.9934951
-7.2443865
-1.7400953
-7.0850141
5.3449188
0.45133106
2.3367131
-1.9241417
-2.7570395
-0.67875362
-2.6264123
1.9993638
1.3780144
2.2498897
1.3417187
2.2755828
-3.9179737
0.67753557
3.2404381
-2.576255
-2.4762309
-4.8415974
-1.4103123
6.2519096
7.2867135
2.6070197
-7.1356201
-0.30270742
3.6585647
-3.6118516
-1.1086482
-3.7329492
2.7782607
-3.8869088
-4.6750771
-2.5506995
7.2257767
-3.7821928
-0.84546368
3.9101001
0.60561921
-4.5711556
-3.2479283
4.7899562
0.23587612
-5.0992964
10.674867
-5.5755709
-8.2194552
4.5702983
6.7206927
7.4032493
-9.0857162
4.6623021
4.423414
-2.3650234
5.6460771
1.1715643
5.6450664
-9.2411576
6.3520903
7.9082026
4.0654855
-8.3465947
1.3112593
-7.9298983
10.454654
-9.2177185
-1.2369351
4.8482154
5.6064382
7.4511769
6.3024816
-6.0146401
13.465817
-1.5156497
-7.7020689
9.4455481
-5.3800626
6.0056816
-11.385744
-12.308163
4.6060944
-10.345153
12.543653
-2.1985008
-3.7370742
-9.2182096
14.082227
-1.4048831
-12.677344
9.3105568
-6.5440268
-4.9064771
11.450504
-8.6656091
8.736285
-3.0345984
-5.7016866
-10.913294
-5.5834746
10.751092
2.2715992
-11.083204
14.710873
-1.7819734
6.3378377
0.42011404
6.1528138
4.7949478
-6.8476668
2.052719
3.8706614
-6.9052597
2.626395
-9.4740617
-6.4024118
11.877368
-5.4749563
-9.5455528
-9.0526422
-0.49291063
1.9628986
12.747974
-9.2080894
6.5510238
2.6570657
4.0172122
0.4449011
-3.74908
-0.94015545
0.87474701
6.2309851
-7.1057321
5.410256
5.3234733
4.9369074
1.2940778
4.8982278
2.6511691
-4.6069026
-0.6735067
-5.7163284
1.9162456
-2.7997155
-5.6825408
7.5987864
-6.4385445
0.75600363
-3.7746073
-5.8846723
9.6592796
-6.7038494
5.2526783
5.4221891
7.8469765
-8.1763961
2.2917238
-4.2602569
-3.9161392
4.1468207
-6.9465362
3.0115098
4.5872766
5.7910809
0.60701663
6.2028559
5.6745122
-9.0739862
0.43420397
10.203442
-8.7199752
2.6052185
7.793509
-9.1562424
0.10360029
-7.9310289
1.045259
-7.5334377
-7.0055976
6.6256711
-9.0277886
-4.7600732
8.3148498
0.7719283
-8.35454
-0.6218592
-6.5157667
-3.0319876
-7.0163701
-3.292365
-6.6139886
-9.3070051
-1.7838685
-7.5231366
7.2445557
-7.1821722
-3.6442443
7.9460061
1.2839326
-8.0463682
7.8711518
-8.0879024
7.7303591
0.26984228
6.9947667
7.0518953
3.1782407
-4.6297433
7.807984
-6.6952107
9.5558886
-11.194389
4.4991786
5.3012352
-8.7829651
-5.8931541
5.4907646
4.1090187
5.7631981
9.4098112
-10.873959
1.4641475
-11.074596
12.633942
-1.5593457
-17.157176
6.0825795
-7.7473644
3.6091756
0.33175723
3.6418788
0.92296761
3.1933487
-4.1163163
-3.018728
-3.0300913
-3.0888263
-4.5010579
7.5898842
1.4721247
-4.4672489
2.9951242
-4.6355947
6.1077194
-0.10297265
-4.3642762
7.0351961
-3.8418473
7.3669533
-4.7385674
2.6283859
4.3859563
7.4531026
-3.0671463
5.7253567
-2.4607505
2.4619514
-5.5290977
-2.0391065
-4.7280414
7.1261438
-4.9312382
5.6872418
-0.020411714
5.7076535
-5.4470216
1.4253944
-0.51011427
4.813359
4.91621
5.8211009
-4.5270231
3.9141732
-6.3749237
-1.6149245
-5.767907
-1.1806304
-0.51680601
-5.0256945
5.5425005
6.7355267
-7.2523328
-5.3834562
9.8027473
-4.4192911
8.1063273
-5.565054
-2.5412734
-4.5830037
-4.6833679
4.1555294
1.9604968
10.066824
0.27863848
-5.8436924
-5.2569085
-4.3069096
4.3597726
2.7190702
-2.4777196
3.8832467
2.4271363
-0.090423104
0.81167301
1.4382167
2.4900617
-1.6783887
0.20203679
2.2880249
-1.7221049
2.6809068
0.97765787
-2.7625132
0.13610091
-1.8933853
4.671646
1.3470528
-2.7250672
1.0466785
1.5344851
-4.6415273
6.3648589
-3.1964748
-3.168384
7.899344
1.5099928
-4.7064676
5.5750213
-5.1236903
3.0376954
-4.4480077
-1.6687722
-6.7924625
-4.6400199
-3.2387408
6.233865
-4.3511434
6.9581631
1.5587879
-6.6554557
8.2142436
-4.6962713
2.1455718
-4.1099781
5.0876359
-1.4114481
-2.69853
3.605971
3.6198057
-3.8333622
0.10041298
-0.22739125
3.066216
-3.2936073
-0.8206928
-3.3969478
-7.3247538
7.5606299
-3.7964436
8.4587457
4.0115404
-3.3673637
11.826109
3.2886775
-6.6560412
-4.9307776
-5.7762413
-2.2326272
5.1706221
-1.0608582
-5.4032398
-6.7625448
5.5125726
0.13249385
-9.0712765
9.7373515
-0.66607495
-5.0178302
-1.3342602
6.1824756
-7.6563782
0.75111853
-5.0299833
4.7073681
5.8789324
6.0114262
-12.119403
-0.55794073
-6.7572653
1.1076644
-7.8649297
6.7141025
-3.7826229
8.3887173
-10.967127
7.3228822
-9.683194
7.1517822
-0.7131475
7.2980643
-5.2453455
3.9864326
-9.5699071
-7.2983079
7.3744164
-4.4572482
7.7945304
-5.2112824
13.005813
-6.9932559
8.1351018
4.8707111
-1.8998922
-6.5005047
-7.6405255
5.7406333
0.49457628
6.64739
7.2449477
-4.5937786
6.571441
3.8631273
-8.1233842
-3.0834089
-11.391651
3.2682664
-5.9694614
-2.8708642
6.1391306
4.9761123
5.4210134
2.2229914
-4.480858
8.6013141
-9.0942247
-3.1263579
-3.8792397
7.8633995
-2.1227662
5.1795207
-9.0587603
-2.353917
5.7052542
-0.72412701
-4.9811272
0.88344948
-5.6435227
2.2895135
-7.9330362
6.7382751
-7.3601343
2.359733
-10.107097
-5.6866352
-5.711802
-2.4380348
-5.6498676
-7.9871993
5.5491645
-1.9046199
5.9665319
-8.9099505
8.1858234
-3.7239912
9.2731557
-5.8726628
-1.1437073
6.3255518
1.4048072
10.677963
0.30394904
-6.1971032
-2.6239671
5.4612823
-2.8373153
1.7358055
-4.7217455
0.73953682
3.2898523
4.6094916
-8.6347712
-0.14819395
-6.3452971
-4.1768162
8.285835
5.6259311
12.361458
1.4874991
9.4467278
-1.1608929
10.934227
4.6023052
4.7940745
-4.0344558
5.4986032
1.5080448
6.0072233
-1.1601988
3.7885847
2.48168
2.5217968
1.0900548
2.9946075
1.9216026
4.4200019
0.30368561
-2.7264057
4.7206392
-9.0275488
-1.1230532
-8.2397365
1.1959364
5.9042783
-4.7083419
4.3284915
-1.6094214
1.4911763
0.10062623
-2.4867502
2.386124
-3.8711743
-2.5771733
-0.28914838
-2.1045778
3.1512563
2.5670682
-2.8621079
-1.0090665
0.41918375
-5.0592037
4.0288239
-3.9284109
-0.30860522
7.9056384
-3.6215008
0.32789348
-1.4759289
-3.0690543
-3.7478079
3.611707
11.254577
0.57153257
5.6790059
8.1321625
4.8842342
0.29045558
4.7491329
-6.9476336
-4.7249288
-7.5055743
-0.79147174
5.3910038
3.3008016
9.4471728
8.1715128
6.0487465
-3.0100138
-12.104238
8.1192487
-2.6206455
6.559903
-1.5787759
-6.3542603
6.5470125
3.0088761
-7.3189408
-0.041193513
-6.3954539
-9.0160994
-0.50754835
8.6933718
-10.170415
9.0267073
5.9947197
1.5284168
-4.8431412
-0.86866075
4.7525432
0.041531266
10.975758
-1.2001722
-7.200959
8.4011312
-4.7041062
3.581053
1.0135938
2.869653
3.3997178
1.7902964
-5.4106626
-10.119005
-2.5522901
-2.0892372
-5.7206741
0.5312355
-3.0983037
6.3271084
-2.7460554
3.785835
5.6550758
7.146252
-2.0651651
-5.1871677
6.4844562
-2.6986211
4.4476309
)
;

boundaryField
{
    wall-4
    {
        type            calculated;
        value           uniform 0;
    }
    velocity-inlet-5
    {
        type            calculated;
        value           nonuniform List<scalar> 8(-1.7582594 -1.7582594 -7.3846893 -4.5714743 -7.3846893 -6.446951 -4.5714743 -6.446951);
    }
    velocity-inlet-6
    {
        type            calculated;
        value           uniform -5.6264299;
    }
    pressure-outlet-7
    {
        type            calculated;
        value           nonuniform List<scalar> 8(7.1554709 7.1137877 7.7772855 8.2534444 8.1324928 8.1520648 8.0897825 8.1541356);
    }
    wall-8
    {
        type            calculated;
        value           uniform 0;
    }
    frontAndBackPlanes
    {
        type            empty;
        value           nonuniform List<scalar> 0();
    }
}


// ************************************************************************* //
