/*--------------------------------*- C++ -*----------------------------------*\
  =========                 |
  \\      /  F ield         | OpenFOAM: The Open Source CFD Toolbox
   \\    /   O peration     | Website:  https://openfoam.org
    \\  /    A nd           | Version:  9
     \\/     M anipulation  |
\*---------------------------------------------------------------------------*/
FoamFile
{
    format      ascii;
    class       volScalarField;
    location    "13";
    object      p;
}
// * * * * * * * * * * * * * * * * * * * * * * * * * * * * * * * * * * * * * //

dimensions      [0 2 -2 0 0 0 0];

internalField   nonuniform List<scalar> 
1000
(
1.675598
1.5545201
1.4585397
1.3948836
1.346374
1.303902
1.2663668
1.234195
1.2067947
1.1829571
1.1615628
1.1417989
1.1231218
1.1051822
1.0877669
1.0707527
1.0540719
1.0376877
1.0215795
1.0057336
0.99013858
0.97478346
0.95965676
0.94474651
0.93004051
0.91552652
0.90119256
0.88702706
0.87301902
0.85915801
0.84543429
0.83183874
0.81836283
0.80499865
0.79173881
0.77857645
0.76550515
0.75251895
0.73961229
0.72677998
0.71401717
0.70131935
0.6886823
0.67610207
0.66357499
0.65109759
0.63866667
0.6262792
0.61393235
0.6016235
0.58935017
0.57711007
0.56490102
0.55272103
0.54056819
0.52844076
0.51633706
0.50425556
0.4921948
0.48015342
0.46813017
0.45612387
0.4441334
0.43215774
0.42019593
0.40824706
0.39631028
0.3843848
0.37246987
0.3605648
0.34866895
0.3367817
0.32490251
0.31303085
0.30116623
0.28930819
0.27745628
0.26561012
0.2537693
0.24193349
0.23010234
0.21827557
0.20645288
0.19463402
0.18281874
0.17100679
0.15919796
0.14739205
0.13558885
0.12378819
0.11198989
0.10019381
0.088399798
0.076607726
0.064817471
0.053028912
0.041241982
0.029456485
0.017672604
0.0058896888
1.5583783
1.5034493
1.4424968
1.3909291
1.347659
1.3086907
1.2731045
1.2413319
1.2133709
1.1885931
1.1661912
1.1454898
1.1260082
1.1074201
1.0895066
1.0721218
1.05517
1.0385886
1.0223359
1.0063824
0.9907054
0.97528585
0.96010699
0.94515332
0.93041027
0.91586405
0.90150165
0.88731079
0.87327996
0.85939838
0.84565601
0.83204349
0.81855213
0.80517383
0.79190107
0.77872687
0.7656447
0.7526485
0.73973264
0.72689183
0.71412119
0.70141612
0.68877236
0.67618592
0.66365308
0.65117034
0.63873446
0.62634238
0.61399126
0.60167843
0.58940141
0.57715785
0.5649456
0.55276261
0.54060699
0.52847696
0.51637085
0.5042871
0.49222424
0.48018091
0.46815583
0.45614782
0.44415576
0.43217862
0.42021542
0.40826526
0.39632728
0.38440067
0.3724847
0.36057865
0.34868188
0.33679378
0.32491379
0.31304138
0.30117606
0.28931736
0.27746485
0.26561812
0.25377679
0.24194048
0.23010888
0.21828167
0.20645858
0.19463934
0.18282369
0.17101142
0.15920229
0.14739609
0.13559262
0.12379171
0.11199318
0.10019689
0.088402671
0.076610405
0.06481997
0.053031215
0.041244135
0.029458357
0.017674281
0.00589053
1.4975571
1.471382
1.4329852
1.3918523
1.352767
1.3161762
1.2818785
1.250161
1.2213049
1.1952038
1.1714498
1.1495598
1.12911
1.1097691
1.0912889
1.0734879
1.056236
1.0394405
1.0230344
1.0069693
0.99120891
0.97572521
0.96049533
0.94549982
0.93072155
0.91614506
0.90175624
0.88754208
0.87349054
0.85959048
0.84583156
0.83220417
0.81869943
0.80530906
0.79202539
0.7788413
0.76575017
0.75274584
0.73982255
0.72697498
0.71419814
0.70148741
0.68883844
0.67624722
0.66370998
0.65122319
0.63878357
0.62638804
0.61403373
0.60171795
0.58943819
0.5771921
0.56497749
0.55279232
0.54063467
0.52850276
0.51639489
0.50430951
0.49224515
0.48020041
0.46817403
0.4561648
0.4441716
0.43219339
0.4202292
0.40827811
0.39633927
0.38441187
0.37249516
0.36058842
0.348691
0.3368023
0.32492174
0.31304879
0.30118298
0.28932382
0.27747088
0.26562376
0.25378205
0.2419454
0.23011347
0.21828596
0.20646258
0.19464306
0.18282717
0.17101466
0.15920531
0.14739892
0.13559526
0.12379418
0.11199548
0.10019904
0.088404668
0.07661227
0.064821679
0.053032789
0.041245493
0.029459525
0.017674971
0.0058910009
1.4681486
1.4526505
1.4257806
1.3918567
1.3560557
1.3211044
1.2878024
1.2564494
1.2273187
1.2005272
1.1759397
1.1532475
1.1320956
1.1121669
1.0932087
1.075029
1.0574832
1.0404622
1.0238836
1.0076856
0.99182165
0.9762559
0.96095992
0.94591023
0.93108679
0.91647206
0.90205042
0.8878078
0.87373136
0.85980936
0.84603099
0.83238628
0.81886605
0.80546179
0.79216562
0.77897025
0.76586891
0.75285531
0.73992361
0.72706836
0.71428452
0.70156738
0.68891254
0.67631593
0.66377372
0.65128237
0.63883854
0.62643913
0.61408123
0.60176213
0.5894793
0.57723037
0.56501313
0.55282551
0.54066559
0.52853156
0.51642174
0.50433454
0.49226848
0.48022217
0.46819433
0.45618373
0.44418926
0.43220987
0.42024457
0.40829245
0.39635266
0.38442436
0.37250682
0.36059931
0.34870117
0.33681179
0.32493059
0.31305706
0.30119069
0.28933102
0.27747761
0.26563004
0.25378792
0.24195088
0.23011859
0.21829074
0.20646703
0.19464722
0.18283104
0.17101828
0.15920868
0.14740207
0.1355982
0.12379693
0.11199803
0.10020144
0.088406877
0.076614356
0.064823556
0.053034569
0.041246953
0.029460922
0.017675809
0.0058920228
1.455417
1.4434637
1.4212293
1.3909417
1.3570806
1.323085
1.2903874
1.2593819
1.2302845
1.2032726
1.1783456
1.155296
1.1338144
1.1135968
1.0943932
1.076011
1.0583021
1.0411516
1.0244708
1.0081917
0.99226269
0.97664412
0.96130459
0.94621842
0.93136395
0.91672247
0.9022775
0.88801432
0.87391963
0.85998135
0.84618839
0.83253055
0.81899848
0.8055835
0.79227762
0.77907343
0.76596407
0.75294315
0.74000477
0.72714343
0.714354
0.70163173
0.68897219
0.67637125
0.66382506
0.65133004
0.63888282
0.62648028
0.6141195
0.60179773
0.58951242
0.5772612
0.56504183
0.55285224
0.54069049
0.52855476
0.51644336
0.50435469
0.49228727
0.48023969
0.46821066
0.45619896
0.44420347
0.43222312
0.42025694
0.408304
0.39636342
0.38443441
0.3725162
0.36060806
0.34870934
0.33681942
0.32493772
0.31306371
0.3011969
0.28933682
0.27748302
0.26563509
0.25379263
0.24195528
0.2301227
0.21829457
0.20647061
0.19465056
0.18283415
0.17102118
0.15921139
0.14740459
0.13560054
0.12379913
0.11200008
0.10020336
0.088408651
0.076616043
0.064825068
0.053036021
0.041248148
0.02946212
0.017676617
0.0058930267
1.455417
1.4434637
1.4212293
1.3909417
1.3570806
1.323085
1.2903874
1.2593819
1.2302845
1.2032726
1.1783456
1.155296
1.1338144
1.1135968
1.0943932
1.076011
1.0583021
1.0411516
1.0244708
1.0081917
0.99226269
0.97664413
0.96130459
0.94621842
0.93136395
0.91672247
0.90227749
0.88801431
0.87391964
0.85998135
0.84618839
0.83253055
0.81899848
0.8055835
0.79227762
0.77907343
0.76596406
0.75294315
0.74000477
0.72714343
0.714354
0.70163173
0.68897219
0.67637125
0.66382506
0.65133003
0.63888282
0.62648028
0.6141195
0.60179773
0.58951242
0.5772612
0.56504183
0.55285224
0.54069049
0.52855476
0.51644336
0.50435469
0.49228726
0.48023969
0.46821066
0.45619897
0.44420347
0.43222312
0.42025694
0.40830399
0.39636342
0.38443441
0.3725162
0.36060806
0.34870934
0.33681942
0.32493772
0.31306371
0.3011969
0.28933682
0.27748302
0.26563509
0.25379263
0.24195528
0.2301227
0.21829457
0.2064706
0.19465055
0.18283413
0.17102116
0.15921136
0.14740456
0.13560052
0.12379911
0.11200007
0.10020336
0.088408653
0.076616048
0.064825073
0.053036024
0.041248146
0.029462117
0.017676613
0.0058930249
1.4681486
1.4526505
1.4257806
1.3918567
1.3560557
1.3211044
1.2878024
1.2564494
1.2273187
1.2005272
1.1759397
1.1532475
1.1320956
1.1121669
1.0932087
1.075029
1.0574832
1.0404622
1.0238836
1.0076856
0.99182166
0.9762559
0.96095992
0.94591023
0.93108678
0.91647205
0.90205042
0.8878078
0.87373137
0.85980936
0.84603099
0.83238628
0.81886605
0.80546179
0.79216562
0.77897025
0.76586891
0.75285531
0.73992361
0.72706837
0.71428453
0.70156738
0.68891254
0.67631592
0.66377372
0.65128236
0.63883854
0.62643913
0.61408123
0.60176214
0.58947931
0.57723037
0.56501313
0.5528255
0.54066558
0.52853156
0.51642174
0.50433454
0.49226848
0.48022218
0.46819433
0.45618373
0.44418926
0.43220986
0.42024456
0.40829245
0.39635265
0.38442436
0.37250682
0.36059932
0.34870118
0.3368118
0.3249306
0.31305706
0.30119069
0.28933102
0.27747761
0.26563004
0.25378792
0.24195088
0.23011859
0.21829072
0.20646701
0.19464718
0.18283098
0.17101821
0.15920861
0.147402
0.13559813
0.12379689
0.11199801
0.10020143
0.08840688
0.076614367
0.064823567
0.053034575
0.041246952
0.029460915
0.017675799
0.0058920178
1.4975571
1.471382
1.4329852
1.3918523
1.352767
1.3161762
1.2818785
1.250161
1.2213049
1.1952038
1.1714498
1.1495598
1.12911
1.1097691
1.0912889
1.0734879
1.0562361
1.0394405
1.0230344
1.0069693
0.99120891
0.97572521
0.96049532
0.94549981
0.93072154
0.91614506
0.90175624
0.88754208
0.87349055
0.85959049
0.84583156
0.83220417
0.81869942
0.80530905
0.79202538
0.7788413
0.76575017
0.75274584
0.73982256
0.72697499
0.71419815
0.7014874
0.68883844
0.67624721
0.66370997
0.65122318
0.63878357
0.62638805
0.61403374
0.60171796
0.58943819
0.57719209
0.56497748
0.55279231
0.54063466
0.52850275
0.51639489
0.50430952
0.49224516
0.48020042
0.46817403
0.45616479
0.44417159
0.43219338
0.42022919
0.40827811
0.39633928
0.38441189
0.37249518
0.36058844
0.34869101
0.3368023
0.32492173
0.31304878
0.30118297
0.28932382
0.27747089
0.26562377
0.25378206
0.2419454
0.23011346
0.21828593
0.20646252
0.19464299
0.18282708
0.17101457
0.15920522
0.14739883
0.13559519
0.12379413
0.11199545
0.10019902
0.088404663
0.076612274
0.064821686
0.053032792
0.041245491
0.029459519
0.017674959
0.0058909938
1.5583783
1.5034493
1.4424968
1.3909291
1.347659
1.3086907
1.2731045
1.2413319
1.213371
1.1885931
1.1661912
1.1454898
1.1260082
1.1074201
1.0895066
1.0721218
1.05517
1.0385886
1.0223359
1.0063825
0.9907054
0.97528585
0.96010698
0.94515331
0.93041026
0.91586405
0.90150165
0.8873108
0.87327997
0.85939839
0.84565601
0.83204349
0.81855212
0.80517382
0.79190107
0.77872687
0.7656447
0.75264851
0.73973265
0.72689184
0.71412119
0.70141611
0.68877235
0.67618591
0.66365307
0.65117035
0.63873447
0.6263424
0.61399128
0.60167844
0.5894014
0.57715784
0.56494558
0.55276259
0.54060698
0.52847696
0.51637086
0.50428711
0.49222425
0.48018092
0.46815583
0.45614781
0.44415574
0.4321786
0.42021541
0.40826526
0.3963273
0.3844007
0.37248472
0.36057867
0.34868188
0.33679377
0.32491377
0.31304136
0.30117605
0.28931737
0.27746488
0.26561815
0.2537768
0.24194048
0.23010884
0.21828161
0.20645849
0.19463924
0.18282359
0.17101132
0.15920219
0.14739601
0.13559255
0.12379166
0.11199314
0.10019686
0.088402651
0.076610394
0.064819966
0.053031213
0.04124413
0.029458345
0.017674267
0.0058905228
1.675598
1.5545201
1.4585397
1.3948835
1.346374
1.303902
1.2663668
1.234195
1.2067947
1.1829571
1.1615628
1.1417989
1.1231218
1.1051822
1.0877669
1.0707527
1.0540719
1.0376877
1.0215795
1.0057336
0.99013857
0.97478346
0.95965675
0.94474651
0.93004051
0.91552653
0.90119257
0.88702708
0.87301902
0.85915802
0.84543429
0.83183873
0.81836282
0.80499864
0.79173881
0.77857645
0.76550516
0.75251897
0.7396123
0.72677998
0.71401717
0.70131934
0.68868229
0.67610206
0.66357499
0.6510976
0.63866668
0.62627921
0.61393236
0.6016235
0.58935016
0.57711005
0.564901
0.55272101
0.54056819
0.52844076
0.51633708
0.50425558
0.49219481
0.48015342
0.46813016
0.45612384
0.44413337
0.43215773
0.42019593
0.40824708
0.39631031
0.38438483
0.3724699
0.36056481
0.34866894
0.33678168
0.32490249
0.31303084
0.30116624
0.28930821
0.27745632
0.26561014
0.25376931
0.24193347
0.23010229
0.21827549
0.20645279
0.19463392
0.18281864
0.1710067
0.15919788
0.14739197
0.13558878
0.12378812
0.11198984
0.10019377
0.088399769
0.07660771
0.064817464
0.053028908
0.041241973
0.029456471
0.01767259
0.0058896832
)
;

boundaryField
{
    top
    {
        type            zeroGradient;
    }
    inlet
    {
        type            zeroGradient;
    }
    outlet
    {
        type            fixedValue;
        value           uniform 0;
    }
    bottom
    {
        type            zeroGradient;
    }
    back
    {
        type            empty;
    }
    front
    {
        type            empty;
    }
}


// ************************************************************************* //
