/*--------------------------------*- C++ -*----------------------------------*\
  =========                 |
  \\      /  F ield         | OpenFOAM: The Open Source CFD Toolbox
   \\    /   O peration     | Website:  https://openfoam.org
    \\  /    A nd           | Version:  9
     \\/     M anipulation  |
\*---------------------------------------------------------------------------*/
FoamFile
{
    format      ascii;
    class       volVectorField;
    location    "13";
    object      U;
}
// * * * * * * * * * * * * * * * * * * * * * * * * * * * * * * * * * * * * * //

dimensions      [0 1 -1 0 0 0 0];

internalField   nonuniform List<vector> 
1000
(
(0.91890839 0.035821913 0)
(0.86271384 0.062195638 0)
(0.7870597 0.06251009 0)
(0.69536033 0.054550395 0)
(0.61089745 0.044531651 0)
(0.54411591 0.034015972 0)
(0.49343011 0.02418754 0)
(0.45479413 0.01614423 0)
(0.42544582 0.010265786 0)
(0.40347313 0.0063041445 0)
(0.38715767 0.0037976279 0)
(0.37496221 0.0023103363 0)
(0.36566193 0.0014930136 0)
(0.35836273 0.001085118 0)
(0.35244267 0.00090607329 0)
(0.347482 0.0008410535 0)
(0.34320347 0.00082372594 0)
(0.33942725 0.00081931149 0)
(0.33603793 0.00081185187 0)
(0.33296114 0.00079579993 0)
(0.33014779 0.00077080948 0)
(0.32756385 0.00073870755 0)
(0.32518421 0.0007018882 0)
(0.32298902 0.00066256578 0)
(0.32096172 0.00062250093 0)
(0.31908784 0.00058295956 0)
(0.31735448 0.00054477368 0)
(0.31574995 0.0005084355 0)
(0.3142636 0.00047419168 0)
(0.31288575 0.00044212343 0)
(0.31160756 0.00041220746 0)
(0.31042102 0.00038435953 0)
(0.30931884 0.00035846354 0)
(0.30829439 0.00033439004 0)
(0.30734165 0.00031200767 0)
(0.30645515 0.00029118946 0)
(0.3056299 0.0002718163 0)
(0.30486136 0.00025377827 0)
(0.30414535 0.00023697474 0)
(0.30347807 0.00022131404 0)
(0.30285601 0.00020671249 0)
(0.30227597 0.00019309357 0)
(0.30173497 0.00018038709 0)
(0.3012303 0.00016852835 0)
(0.30075942 0.00015745784 0)
(0.30032001 0.00014712058 0)
(0.29990992 0.00013746599 0)
(0.29952714 0.0001284476 0)
(0.29916982 0.00012002255 0)
(0.29883624 0.00011215147 0)
(0.29852479 0.00010479776 0)
(0.29823398 9.7927388e-05 0)
(0.29796242 9.150846e-05 0)
(0.29770883 8.5510823e-05 0)
(0.29747201 7.9906293e-05 0)
(0.29725084 7.4668346e-05 0)
(0.29704428 6.9772462e-05 0)
(0.29685137 6.5196105e-05 0)
(0.29667119 6.0918483e-05 0)
(0.29650291 5.6920711e-05 0)
(0.29634573 5.3185093e-05 0)
(0.29619891 4.9695009e-05 0)
(0.29606177 4.6434651e-05 0)
(0.29593367 4.3388514e-05 0)
(0.295814 4.0542068e-05 0)
(0.29570223 3.788133e-05 0)
(0.29559782 3.5393649e-05 0)
(0.2955003 3.3067612e-05 0)
(0.29540921 3.0893049e-05 0)
(0.29532413 2.8860963e-05 0)
(0.29524465 2.6963029e-05 0)
(0.29517041 2.519096e-05 0)
(0.29510104 2.3536839e-05 0)
(0.29503625 2.1991943e-05 0)
(0.29497571 2.0548549e-05 0)
(0.29491917 1.9198481e-05 0)
(0.29486636 1.7935624e-05 0)
(0.29481703 1.6753777e-05 0)
(0.29477096 1.5649331e-05 0)
(0.29472793 1.4617265e-05 0)
(0.29468772 1.3655568e-05 0)
(0.29465016 1.2757748e-05 0)
(0.29461507 1.1922446e-05 0)
(0.29458228 1.1140321e-05 0)
(0.29455165 1.0412077e-05 0)
(0.29452304 9.7263355e-06 0)
(0.29449631 9.0890779e-06 0)
(0.29447136 8.4863435e-06 0)
(0.29444804 7.9314866e-06 0)
(0.29442628 7.4038005e-06 0)
(0.29440592 6.9250116e-06 0)
(0.29438693 6.4638129e-06 0)
(0.29436916 6.0526387e-06 0)
(0.29435254 5.6530449e-06 0)
(0.29433706 5.3034411e-06 0)
(0.29432239 4.9810145e-06 0)
(0.29430907 4.6931392e-06 0)
(0.29429558 4.5400507e-06 0)
(0.2942849 4.4086557e-06 0)
(0.29426863 5.0569659e-06 0)
(1.0016583 0.05381943 0)
(1.0359761 0.10128443 0)
(1.0597199 0.11073663 0)
(1.0628947 0.10592201 0)
(1.0515569 0.096228728 0)
(1.0340529 0.083934061 0)
(1.0142795 0.070327064 0)
(0.99360702 0.056981335 0)
(0.97292576 0.04510748 0)
(0.95310739 0.035236749 0)
(0.93479539 0.027401647 0)
(0.91829013 0.021387224 0)
(0.9036238 0.016884495 0)
(0.89068068 0.013569707 0)
(0.87928175 0.01114775 0)
(0.86923241 0.0093736618 0)
(0.86034422 0.0080569319 0)
(0.85244666 0.0070571304 0)
(0.84539241 0.0062752391 0)
(0.83905793 0.0056438267 0)
(0.83334127 0.0051180871 0)
(0.82815885 0.0046686677 0)
(0.82344214 0.0042764137 0)
(0.81913468 0.0039287374 0)
(0.81518962 0.003617205 0)
(0.81156765 0.0033359741 0)
(0.80823543 0.0030808086 0)
(0.80516439 0.0028484726 0)
(0.80232978 0.0026363706 0)
(0.79970999 0.002442337 0)
(0.79728598 0.002264515 0)
(0.79504087 0.0021012851 0)
(0.79295964 0.0019512215 0)
(0.79102882 0.0018130615 0)
(0.78923628 0.001685685 0)
(0.7875711 0.0015680964 0)
(0.78602337 0.0014594107 0)
(0.78458411 0.0013588401 0)
(0.7832451 0.0012656824 0)
(0.78199889 0.0011793107 0)
(0.78083861 0.0010991635 0)
(0.779758 0.0010247363 0)
(0.77875129 0.00095557427 0)
(0.77781319 0.0008912659 0)
(0.77693882 0.00083143782 0)
(0.77612368 0.00077575039 0)
(0.77536362 0.00072389429 0)
(0.7746548 0.00067558738 0)
(0.77399366 0.00063057192 0)
(0.77337693 0.00058861214 0)
(0.77280154 0.00054949151 0)
(0.77226465 0.00051301069 0)
(0.77176365 0.00047898539 0)
(0.77129608 0.0004472446 0)
(0.77085968 0.00041762966 0)
(0.77045234 0.0003899931 0)
(0.77007211 0.00036419849 0)
(0.76971716 0.00034011979 0)
(0.76938579 0.00031764073 0)
(0.76907643 0.00029665422 0)
(0.7687876 0.00027706106 0)
(0.76851792 0.00025876894 0)
(0.76826611 0.00024169143 0)
(0.76803097 0.00022574683 0)
(0.76781139 0.00021085841 0)
(0.76760635 0.0001969537 0)
(0.76741487 0.00018396581 0)
(0.76723606 0.00017183283 0)
(0.76706908 0.00016049859 0)
(0.76691314 0.0001499116 0)
(0.76676752 0.00014002469 0)
(0.76663151 0.0001307929 0)
(0.76650448 0.0001221743 0)
(0.76638583 0.00011412642 0)
(0.76627501 0.00010661096 0)
(0.76617151 9.9588377e-05 0)
(0.76607483 9.3026603e-05 0)
(0.76598455 8.6891843e-05 0)
(0.76590023 8.1161152e-05 0)
(0.76582149 7.5805238e-05 0)
(0.76574793 7.0809231e-05 0)
(0.76567925 6.6141682e-05 0)
(0.76561505 6.1793781e-05 0)
(0.76555512 5.7725578e-05 0)
(0.76549908 5.3938297e-05 0)
(0.7654468 5.0381165e-05 0)
(0.7653979 4.7076542e-05 0)
(0.76535232 4.3957458e-05 0)
(0.76530963 4.1080463e-05 0)
(0.76526989 3.8345201e-05 0)
(0.76523264 3.5856865e-05 0)
(0.76519796 3.3454742e-05 0)
(0.76516549 3.1318637e-05 0)
(0.7651351 2.9199886e-05 0)
(0.76510704 2.7395335e-05 0)
(0.76507987 2.5537951e-05 0)
(0.76505652 2.4083179e-05 0)
(0.76503045 2.2562004e-05 0)
(0.76501432 2.1600974e-05 0)
(0.76498335 2.0986902e-05 0)
(1.0014244 0.026824854 0)
(1.0291272 0.062791351 0)
(1.0654292 0.077736551 0)
(1.098962 0.080597199 0)
(1.1253149 0.07828517 0)
(1.145053 0.0731539 0)
(1.1594858 0.066111279 0)
(1.1694287 0.058162064 0)
(1.1755354 0.050296754 0)
(1.1785738 0.043150707 0)
(1.1793571 0.036972822 0)
(1.178595 0.031771628 0)
(1.1768304 0.027451836 0)
(1.1744518 0.023886766 0)
(1.1717287 0.02094762 0)
(1.1688444 0.018515782 0)
(1.1659195 0.016488088 0)
(1.1630317 0.014779505 0)
(1.1602295 0.013322986 0)
(1.1575415 0.012067131 0)
(1.1549828 0.010972998 0)
(1.1525601 0.010011058 0)
(1.1502747 0.0091587434 0)
(1.1481246 0.0083986026 0)
(1.1461059 0.0077169513 0)
(1.1442134 0.007102891 0)
(1.1424414 0.0065475958 0)
(1.1407838 0.0060437989 0)
(1.1392343 0.005585428 0)
(1.1377869 0.0051673442 0)
(1.1364353 0.0047851545 0)
(1.1351738 0.0044350726 0)
(1.1339968 0.0041138135 0)
(1.1328987 0.0038185113 0)
(1.1318746 0.0035466538 0)
(1.1309195 0.0032960301 0)
(1.1300289 0.0030646873 0)
(1.1291985 0.0028508944 0)
(1.1284242 0.0026531124 0)
(1.1277022 0.0024699682 0)
(1.1270291 0.0023002329 0)
(1.1264014 0.002142803 0)
(1.1258161 0.0019966844 0)
(1.1252703 0.0018609787 0)
(1.1247612 0.0017348719 0)
(1.1242865 0.0016176242 0)
(1.1238437 0.0015085626 0)
(1.1234307 0.0014070729 0)
(1.1230455 0.0013125945 0)
(1.1226861 0.001224614 0)
(1.1223509 0.0011426608 0)
(1.1220381 0.0010663021 0)
(1.1217462 0.00099513944 0)
(1.1214739 0.00092880478 0)
(1.1212198 0.00086695796 0)
(1.1209827 0.00080928421 0)
(1.1207614 0.00075549258 0)
(1.1205548 0.00070531376 0)
(1.120362 0.00065849909 0)
(1.1201821 0.00061481845 0)
(1.1200142 0.0005740587 0)
(1.1198574 0.00053602212 0)
(1.1197111 0.00050052443 0)
(1.1195745 0.00046739368 0)
(1.1194469 0.00043646929 0)
(1.1193278 0.00040760089 0)
(1.1192167 0.00038064924 0)
(1.1191129 0.00035548433 0)
(1.1190159 0.00033198725 0)
(1.1189255 0.00031004696 0)
(1.118841 0.00028956186 0)
(1.1187621 0.00027043558 0)
(1.1186885 0.00025257946 0)
(1.1186197 0.00023590657 0)
(1.1185554 0.00022033925 0)
(1.1184954 0.0002057983 0)
(1.1184394 0.00019221887 0)
(1.1183871 0.00017953015 0)
(1.1183382 0.00016768271 0)
(1.1182926 0.00015661147 0)
(1.11825 0.00014628282 0)
(1.1182103 0.00013662864 0)
(1.1181731 0.00012763257 0)
(1.1181384 0.00011921166 0)
(1.1181059 0.00011137685 0)
(1.1180757 0.00010401718 0)
(1.1180473 9.7193812e-05 0)
(1.118021 9.0744632e-05 0)
(1.1179962 8.4818602e-05 0)
(1.1179733 7.9151036e-05 0)
(1.1179516 7.404186e-05 0)
(1.1179318 6.9027176e-05 0)
(1.1179127 6.4681951e-05 0)
(1.1178954 6.0173794e-05 0)
(1.1178789 5.6596757e-05 0)
(1.1178634 5.2440477e-05 0)
(1.1178499 4.9752324e-05 0)
(1.1178348 4.5810226e-05 0)
(1.117826 4.4319615e-05 0)
(1.1178082 4.0564726e-05 0)
(1.0007347 0.011814721 0)
(1.0178472 0.030860925 0)
(1.0462163 0.04143444 0)
(1.0799018 0.045193569 0)
(1.1132664 0.045502351 0)
(1.143782 0.044080308 0)
(1.1708941 0.041439982 0)
(1.1945687 0.037973678 0)
(1.2148582 0.034195728 0)
(1.2319652 0.030536885 0)
(1.2462683 0.027222042 0)
(1.2582339 0.024313918 0)
(1.2683135 0.021797886 0)
(1.2768875 0.019633658 0)
(1.2842554 0.017773826 0)
(1.2906479 0.016169652 0)
(1.296243 0.014775591 0)
(1.3011791 0.013552299 0)
(1.3055645 0.012467864 0)
(1.3094838 0.011497465 0)
(1.3130042 0.01062216 0)
(1.3161792 0.0098275109 0)
(1.3190526 0.0091024089 0)
(1.3216608 0.0084381757 0)
(1.3240343 0.0078279043 0)
(1.3261995 0.0072659763 0)
(1.3281786 0.0067477113 0)
(1.3299913 0.0062691192 0)
(1.3316544 0.0058267289 0)
(1.3331828 0.0054174733 0)
(1.3345896 0.0050386109 0)
(1.3358862 0.0046876715 0)
(1.3370827 0.0043624173 0)
(1.3381883 0.0040608135 0)
(1.3392108 0.0037810047 0)
(1.3401576 0.0035212969 0)
(1.3410349 0.0032801411 0)
(1.3418486 0.00305612 0)
(1.3426038 0.0028479355 0)
(1.3433051 0.0026543975 0)
(1.3439569 0.0024744145 0)
(1.3445629 0.0023069839 0)
(1.3451267 0.0021511838 0)
(1.3456513 0.0020061659 0)
(1.3461398 0.0018711487 0)
(1.3465947 0.0017454119 0)
(1.3470185 0.0016282907 0)
(1.3474135 0.0015191718 0)
(1.3477816 0.0014174891 0)
(1.3481248 0.0013227188 0)
(1.3484449 0.0012343773 0)
(1.3487435 0.0011520162 0)
(1.349022 0.0010752202 0)
(1.3492818 0.0010036039 0)
(1.3495242 0.00093680951 0)
(1.3497505 0.00087450506 0)
(1.3499616 0.00081638211 0)
(1.3501587 0.0007621544 0)
(1.3503427 0.00071155649 0)
(1.3505145 0.00066434155 0)
(1.3506748 0.00062028092 0)
(1.3508245 0.00057916147 0)
(1.3509643 0.00054078496 0)
(1.3510949 0.00050496636 0)
(1.3512167 0.00047153282 0)
(1.3513305 0.00044032318 0)
(1.3514368 0.00041118746 0)
(1.3515361 0.00038398564 0)
(1.3516287 0.00035858907 0)
(1.3517153 0.00033487659 0)
(1.3517962 0.00031273801 0)
(1.3518717 0.00029206778 0)
(1.3519422 0.00027277021 0)
(1.3520081 0.0002547512 0)
(1.3520696 0.00023792778 0)
(1.3521271 0.0002222149 0)
(1.3521807 0.00020754381 0)
(1.3522309 0.00019383653 0)
(1.3522777 0.00018104138 0)
(1.3523214 0.00016908327 0)
(1.3523622 0.00015792989 0)
(1.3524005 0.00014750014 0)
(1.352436 0.00013778562 0)
(1.3524695 0.0001286851 0)
(1.3525004 0.00012022869 0)
(1.3525296 0.00011227264 0)
(1.3525565 0.00010491799 0)
(1.3525822 9.7939063e-05 0)
(1.3526053 9.1566597e-05 0)
(1.3526281 8.5413983e-05 0)
(1.3526479 7.9943868e-05 0)
(1.3526683 7.4462749e-05 0)
(1.3526849 6.9854881e-05 0)
(1.3527036 6.4866951e-05 0)
(1.3527169 6.1144285e-05 0)
(1.3527348 5.6450647e-05 0)
(1.3527446 5.3746457e-05 0)
(1.3527627 4.913879e-05 0)
(1.3527682 4.7701366e-05 0)
(1.3527887 4.2950466e-05 0)
(1.0005903 0.0034629152 0)
(1.0136865 0.0093660184 0)
(1.0370283 0.013046805 0)
(1.0674202 0.014563261 0)
(1.1000315 0.014854525 0)
(1.1316428 0.014564991 0)
(1.1610745 0.013888338 0)
(1.1880674 0.012919244 0)
(1.2125204 0.011806504 0)
(1.2343939 0.010696424 0)
(1.2538077 0.0096727395 0)
(1.2710339 0.00876282 0)
(1.286401 0.0079659724 0)
(1.3002112 0.0072722143 0)
(1.3127102 0.006668809 0)
(1.3240904 0.0061419261 0)
(1.3345036 0.0056780728 0)
(1.3440716 0.005265321 0)
(1.3528927 0.0048939344 0)
(1.3610463 0.0045563945 0)
(1.3685975 0.0042470683 0)
(1.3756004 0.0039617746 0)
(1.3821012 0.0036973971 0)
(1.3881402 0.0034515831 0)
(1.3937533 0.00322252 0)
(1.3989728 0.0030087718 0)
(1.403828 0.0028091597 0)
(1.4083456 0.0026226801 0)
(1.4125503 0.0024484495 0)
(1.4164646 0.0022856694 0)
(1.4201094 0.0021336055 0)
(1.423504 0.0019915742 0)
(1.4266661 0.0018589351 0)
(1.4296121 0.0017350859 0)
(1.4323573 0.0016194599 0)
(1.4349159 0.0015115236 0)
(1.4373007 0.0014107752 0)
(1.4395241 0.0013167436 0)
(1.441597 0.0012289866 0)
(1.4435301 0.0011470897 0)
(1.4453328 0.0010706649 0)
(1.4470143 0.00099934828 0)
(1.4485827 0.00093279963 0)
(1.4500459 0.0008707003 0)
(1.451411 0.0008127524 0)
(1.4526846 0.00075867764 0)
(1.4538731 0.00070821615 0)
(1.4549822 0.00066112578 0)
(1.4560171 0.00061718063 0)
(1.4569831 0.00057617016 0)
(1.4578847 0.00053789801 0)
(1.4587262 0.00050218067 0)
(1.4595117 0.00046884685 0)
(1.460245 0.00043773629 0)
(1.4609295 0.00040869938 0)
(1.4615685 0.00038159662 0)
(1.4621651 0.00035629792 0)
(1.4627221 0.00033268249 0)
(1.4632422 0.0003106378 0)
(1.4637278 0.00029005926 0)
(1.4641811 0.00027084948 0)
(1.4646045 0.00025291723 0)
(1.4649998 0.00023617746 0)
(1.4653689 0.00022054995 0)
(1.4657136 0.00020595992 0)
(1.4660355 0.00019233736 0)
(1.4663361 0.00017961724 0)
(1.4666168 0.00016773943 0)
(1.4668789 0.00015664826 0)
(1.4671238 0.00014629187 0)
(1.4673524 0.00013662279 0)
(1.467566 0.00012759491 0)
(1.4677654 0.00011916677 0)
(1.4679516 0.00011129664 0)
(1.4681256 0.00010394826 0)
(1.468288 9.7083952e-05 0)
(1.4684397 9.0674069e-05 0)
(1.4685815 8.4684451e-05 0)
(1.4687138 7.9093699e-05 0)
(1.4688375 7.3868594e-05 0)
(1.4689529 6.8996994e-05 0)
(1.4690608 6.4441301e-05 0)
(1.4691614 6.0201462e-05 0)
(1.4692557 5.6227789e-05 0)
(1.4693433 5.2539558e-05 0)
(1.4694257 4.9064175e-05 0)
(1.4695019 4.5857747e-05 0)
(1.4695741 4.2804576e-05 0)
(1.4696401 4.0027721e-05 0)
(1.4697037 3.7328221e-05 0)
(1.4697606 3.4948832e-05 0)
(1.4698171 3.2534217e-05 0)
(1.4698653 3.0538913e-05 0)
(1.4699166 2.8329877e-05 0)
(1.469956 2.6731052e-05 0)
(1.4700044 2.4638861e-05 0)
(1.4700339 2.3491978e-05 0)
(1.470083 2.1421679e-05 0)
(1.4701 2.0814106e-05 0)
(1.4701556 1.8650483e-05 0)
(1.0005903 -0.0034629164 0)
(1.0136865 -0.0093660205 0)
(1.0370283 -0.013046806 0)
(1.0674202 -0.014563261 0)
(1.1000315 -0.014854524 0)
(1.1316428 -0.01456499 0)
(1.1610745 -0.013888339 0)
(1.1880674 -0.012919248 0)
(1.2125204 -0.01180651 0)
(1.2343939 -0.01069643 0)
(1.2538077 -0.009672745 0)
(1.2710339 -0.0087628234 0)
(1.286401 -0.0079659734 0)
(1.3002112 -0.0072722132 0)
(1.3127102 -0.0066688067 0)
(1.3240904 -0.0061419239 0)
(1.3345036 -0.005678072 0)
(1.3440716 -0.0052653221 0)
(1.3528927 -0.0048939373 0)
(1.3610463 -0.0045563982 0)
(1.3685975 -0.0042470716 0)
(1.3756004 -0.0039617762 0)
(1.3821012 -0.0036973963 0)
(1.3881402 -0.0034515799 0)
(1.3937533 -0.0032225154 0)
(1.3989728 -0.0030087673 0)
(1.403828 -0.0028091568 0)
(1.4083456 -0.0026226799 0)
(1.4125503 -0.002448452 0)
(1.4164646 -0.0022856737 0)
(1.4201094 -0.0021336101 0)
(1.423504 -0.0019915774 0)
(1.4266661 -0.0018589357 0)
(1.4296121 -0.0017350838 0)
(1.4323573 -0.0016194557 0)
(1.4349159 -0.0015115189 0)
(1.4373007 -0.0014107718 0)
(1.4395241 -0.0013167425 0)
(1.441597 -0.0012289884 0)
(1.4435301 -0.0011470935 0)
(1.4453328 -0.001070669 0)
(1.4470143 -0.00099935098 0)
(1.4485827 -0.00093279947 0)
(1.4500459 -0.0008706971 0)
(1.451411 -0.000812747 0)
(1.4526846 -0.00075867197 0)
(1.4538731 -0.00070821229 0)
(1.4549822 -0.00066112508 0)
(1.4560171 -0.00061718348 0)
(1.4569831 -0.00057617524 0)
(1.4578847 -0.00053790321 0)
(1.4587262 -0.00050218356 0)
(1.4595117 -0.00046884557 0)
(1.460245 -0.00043773064 0)
(1.4609295 -0.00040869045 0)
(1.4615685 -0.00038158691 0)
(1.4621651 -0.00035629019 0)
(1.4627221 -0.00033267863 0)
(1.4632422 -0.00031063858 0)
(1.4637278 -0.00029006326 0)
(1.4641811 -0.00027085425 0)
(1.4646045 -0.00025291981 0)
(1.4649998 -0.00023617545 0)
(1.4653689 -0.0002205432 0)
(1.4657136 -0.00020594986 0)
(1.4660355 -0.00019232728 0)
(1.4663361 -0.00017961068 0)
(1.4666168 -0.00016773859 0)
(1.466879 -0.00015665389 0)
(1.4671238 -0.00014630193 0)
(1.4673524 -0.00013663388 0)
(1.467566 -0.00012760346 0)
(1.4677654 -0.00011917011 0)
(1.4679516 -0.00011129463 0)
(1.4681256 -0.00010394275 0)
(1.468288 -9.7078584e-05 0)
(1.4684397 -9.0672496e-05 0)
(1.4685815 -8.4688585e-05 0)
(1.4687138 -7.9103387e-05 0)
(1.4688375 -7.3880111e-05 0)
(1.4689529 -6.9005434e-05 0)
(1.4690608 -6.4440759e-05 0)
(1.4691614 -6.0186879e-05 0)
(1.4692557 -5.6197247e-05 0)
(1.4693433 -5.2493661e-05 0)
(1.4694257 -4.9007124e-05 0)
(1.4695019 -4.5794237e-05 0)
(1.4695741 -4.2739994e-05 0)
(1.4696402 -3.9966142e-05 0)
(1.4697038 -3.7272573e-05 0)
(1.4697606 -3.4899868e-05 0)
(1.4698171 -3.2492917e-05 0)
(1.4698653 -3.050502e-05 0)
(1.4699166 -2.8303859e-05 0)
(1.469956 -2.6712981e-05 0)
(1.4700044 -2.4628611e-05 0)
(1.4700339 -2.3487131e-05 0)
(1.470083 -2.1423213e-05 0)
(1.4701 -2.0817687e-05 0)
(1.4701556 -1.8657465e-05 0)
(1.0007347 -0.011814722 0)
(1.0178472 -0.030860927 0)
(1.0462163 -0.04143444 0)
(1.0799018 -0.045193568 0)
(1.1132664 -0.045502349 0)
(1.143782 -0.044080308 0)
(1.1708941 -0.041439984 0)
(1.1945687 -0.037973682 0)
(1.2148582 -0.034195735 0)
(1.2319652 -0.030536891 0)
(1.2462683 -0.027222047 0)
(1.2582339 -0.024313919 0)
(1.2683135 -0.021797885 0)
(1.2768875 -0.019633655 0)
(1.2842554 -0.017773823 0)
(1.2906479 -0.016169651 0)
(1.296243 -0.014775592 0)
(1.3011791 -0.013552302 0)
(1.3055644 -0.012467868 0)
(1.3094838 -0.011497469 0)
(1.3130041 -0.010622162 0)
(1.3161792 -0.0098275106 0)
(1.3190526 -0.0091024059 0)
(1.3216608 -0.0084381708 0)
(1.3240343 -0.0078278992 0)
(1.3261995 -0.0072659728 0)
(1.3281786 -0.0067477107 0)
(1.3299913 -0.0062691217 0)
(1.3316544 -0.0058267336 0)
(1.3331828 -0.0054174784 0)
(1.3345896 -0.0050386145 0)
(1.3358862 -0.0046876722 0)
(1.3370827 -0.004362415 0)
(1.3381883 -0.0040608088 0)
(1.3392108 -0.0037809995 0)
(1.3401576 -0.0035212931 0)
(1.3410349 -0.0032801402 0)
(1.3418486 -0.0030561223 0)
(1.3426038 -0.00284794 0)
(1.3433051 -0.0026544024 0)
(1.3439569 -0.0024744177 0)
(1.3445629 -0.0023069838 0)
(1.3451267 -0.0021511802 0)
(1.3456513 -0.0020061598 0)
(1.3461398 -0.0018711424 0)
(1.3465947 -0.0017454076 0)
(1.3470185 -0.0016282901 0)
(1.3474135 -0.0015191754 0)
(1.3477816 -0.0014174952 0)
(1.3481248 -0.0013227252 0)
(1.3484449 -0.001234381 0)
(1.3487435 -0.0011520152 0)
(1.349022 -0.0010752143 0)
(1.3492818 -0.0010035944 0)
(1.3495243 -0.00093679948 0)
(1.3497505 -0.00087449752 0)
(1.3499617 -0.00081637926 0)
(1.3501587 -0.00076215683 0)
(1.3503427 -0.00071156233 0)
(1.3505145 -0.00066434793 0)
(1.3506748 -0.00062028424 0)
(1.3508245 -0.00057915928 0)
(1.3509643 -0.00054077712 0)
(1.3510949 -0.00050495468 0)
(1.3512167 -0.00047152135 0)
(1.3513306 -0.00044031584 0)
(1.3514368 -0.00041118695 0)
(1.3515361 -0.00038399251 0)
(1.3516287 -0.00035860062 0)
(1.3517153 -0.00033488893 0)
(1.3517962 -0.0003127466 0)
(1.3518717 -0.00029206958 0)
(1.3519422 -0.00027276529 0)
(1.3520081 -0.00025474213 0)
(1.3520696 -0.0002379195 0)
(1.3521271 -0.00022221191 0)
(1.3521808 -0.00020754867 0)
(1.3522309 -0.00019384892 0)
(1.3522777 -0.00018105697 0)
(1.3523214 -0.00016909638 0)
(1.3523622 -0.00015793391 0)
(1.3524005 -0.00014749054 0)
(1.352436 -0.00013776128 0)
(1.3524695 -0.00012864724 0)
(1.3525004 -0.00012018216 0)
(1.3525297 -0.00011222198 0)
(1.3525565 -0.00010486838 0)
(1.3525822 -9.789261e-05 0)
(1.3526054 -9.1523972e-05 0)
(1.3526281 -8.5374437e-05 0)
(1.3526479 -7.9906934e-05 0)
(1.3526683 -7.442897e-05 0)
(1.3526849 -6.982555e-05 0)
(1.3527036 -6.4843485e-05 0)
(1.3527169 -6.1128118e-05 0)
(1.3527348 -5.6441466e-05 0)
(1.3527446 -5.3743163e-05 0)
(1.3527628 -4.914128e-05 0)
(1.3527683 -4.7703862e-05 0)
(1.3527888 -4.2954484e-05 0)
(1.0014244 -0.026824854 0)
(1.0291272 -0.062791351 0)
(1.0654292 -0.07773655 0)
(1.098962 -0.080597197 0)
(1.1253149 -0.07828517 0)
(1.145053 -0.073153901 0)
(1.1594858 -0.066111283 0)
(1.1694287 -0.05816207 0)
(1.1755354 -0.05029676 0)
(1.1785738 -0.043150711 0)
(1.1793571 -0.036972824 0)
(1.178595 -0.031771627 0)
(1.1768304 -0.027451832 0)
(1.1744518 -0.023886762 0)
(1.1717287 -0.020947618 0)
(1.1688444 -0.018515783 0)
(1.1659194 -0.016488091 0)
(1.1630317 -0.01477951 0)
(1.1602295 -0.013322991 0)
(1.1575415 -0.012067135 0)
(1.1549828 -0.010972998 0)
(1.1525601 -0.010011055 0)
(1.1502747 -0.009158738 0)
(1.1481246 -0.0083985969 0)
(1.1461059 -0.0077169474 0)
(1.1442135 -0.0071028904 0)
(1.1424414 -0.0065475987 0)
(1.1407838 -0.0060438044 0)
(1.1392343 -0.005585434 0)
(1.1377869 -0.0051673485 0)
(1.1364353 -0.0047851555 0)
(1.1351738 -0.0044350698 0)
(1.1339968 -0.004113808 0)
(1.1328988 -0.0038185051 0)
(1.1318746 -0.0035466493 0)
(1.1309195 -0.003296029 0)
(1.1300289 -0.00306469 0)
(1.1291985 -0.0028509 0)
(1.1284242 -0.0026531185 0)
(1.1277022 -0.0024699723 0)
(1.1270291 -0.0023002332 0)
(1.1264014 -0.0021427991 0)
(1.1258161 -0.0019966776 0)
(1.1252703 -0.0018609714 0)
(1.1247612 -0.0017348669 0)
(1.1242865 -0.0016176235 0)
(1.1238437 -0.0015085666 0)
(1.1234307 -0.0014070802 0)
(1.1230455 -0.0013126022 0)
(1.1226861 -0.0012246189 0)
(1.1223509 -0.0011426605 0)
(1.1220381 -0.0010662961 0)
(1.1217463 -0.00099512948 0)
(1.1214739 -0.00092879398 0)
(1.1212198 -0.00086695012 0)
(1.1209827 -0.00080928203 0)
(1.1207614 -0.00075549666 0)
(1.1205548 -0.00070532236 0)
(1.120362 -0.00065850829 0)
(1.1201821 -0.00061482411 0)
(1.1200142 -0.00057405775 0)
(1.1198574 -0.00053601401 0)
(1.1197111 -0.00050051163 0)
(1.1195745 -0.00046738041 0)
(1.1194469 -0.00043646051 0)
(1.1193279 -0.00040759996 0)
(1.1192167 -0.00038065674 0)
(1.1191129 -0.00035549789 0)
(1.1190159 -0.00033200179 0)
(1.1189255 -0.00031005723 0)
(1.118841 -0.0002895641 0)
(1.1187621 -0.0002704291 0)
(1.1186885 -0.00025256739 0)
(1.1186197 -0.00023589416 0)
(1.1185555 -0.0002203324 0)
(1.1184955 -0.00020580074 0)
(1.1184394 -0.00019223074 0)
(1.1183871 -0.00017954776 0)
(1.1183382 -0.00016769934 0)
(1.1182926 -0.00015662014 0)
(1.11825 -0.00014627831 0)
(1.1182103 -0.00013660934 0)
(1.1181731 -0.00012760114 0)
(1.1181385 -0.00011917325 0)
(1.118106 -0.00011133804 0)
(1.1180758 -0.00010398265 0)
(1.1180473 -9.7166356e-05 0)
(1.118021 -9.0723335e-05 0)
(1.1179962 -8.4801395e-05 0)
(1.1179733 -7.9134547e-05 0)
(1.1179516 -7.4024537e-05 0)
(1.1179318 -6.9007468e-05 0)
(1.1179127 -6.4661525e-05 0)
(1.1178954 -6.0153935e-05 0)
(1.1178789 -5.6579056e-05 0)
(1.1178634 -5.2428399e-05 0)
(1.11785 -4.9744436e-05 0)
(1.1178348 -4.5804589e-05 0)
(1.1178261 -4.4317479e-05 0)
(1.1178082 -4.0567029e-05 0)
(1.0016583 -0.05381943 0)
(1.0359761 -0.10128443 0)
(1.0597199 -0.11073663 0)
(1.0628947 -0.10592201 0)
(1.0515569 -0.096228729 0)
(1.0340529 -0.083934064 0)
(1.0142795 -0.070327068 0)
(0.99360701 -0.056981339 0)
(0.97292575 -0.045107482 0)
(0.95310739 -0.035236749 0)
(0.9347954 -0.027401645 0)
(0.91829014 -0.02138722 0)
(0.90362381 -0.016884492 0)
(0.89068069 -0.013569706 0)
(0.87928174 -0.01114775 0)
(0.8692324 -0.0093736651 0)
(0.86034421 -0.0080569367 0)
(0.85244665 -0.0070571349 0)
(0.8453924 -0.0062752419 0)
(0.83905793 -0.0056438266 0)
(0.83334128 -0.0051180841 0)
(0.82815886 -0.0046686629 0)
(0.82344215 -0.0042764087 0)
(0.81913469 -0.0039287342 0)
(0.81518962 -0.0036172046 0)
(0.81156764 -0.0033359769 0)
(0.80823542 -0.0030808135 0)
(0.80516438 -0.0028484779 0)
(0.80232978 -0.0026363744 0)
(0.79970999 -0.0024423377 0)
(0.79728598 -0.0022645124 0)
(0.79504088 -0.0021012802 0)
(0.79295965 -0.0019512159 0)
(0.79102882 -0.0018130575 0)
(0.78923628 -0.001685684 0)
(0.78757109 -0.0015680989 0)
(0.78602336 -0.0014594157 0)
(0.7845841 -0.0013588456 0)
(0.7832451 -0.0012656863 0)
(0.78199889 -0.0011793112 0)
(0.78083862 -0.0010991602 0)
(0.77975801 -0.0010247304 0)
(0.7787513 -0.00095556795 0)
(0.77781319 -0.00089126165 0)
(0.77693881 -0.00083143733 0)
(0.77612367 -0.00077575405 0)
(0.7753636 -0.00072390084 0)
(0.77465479 -0.00067559422 0)
(0.77399366 -0.00063057638 0)
(0.77337693 -0.00058861206 0)
(0.77280155 -0.00054948656 0)
(0.77226467 -0.00051300237 0)
(0.77176366 -0.00047897645 0)
(0.77129608 -0.0004472384 0)
(0.77085967 -0.00041762843 0)
(0.77045233 -0.00038999748 0)
(0.77007209 -0.00036420686 0)
(0.76971714 -0.0003401287 0)
(0.76938579 -0.00031764658 0)
(0.76907644 -0.00029665415 0)
(0.76878762 -0.00027705464 0)
(0.76851795 -0.00025875825 0)
(0.76826613 -0.00024168016 0)
(0.76803098 -0.00022573942 0)
(0.76781139 -0.00021085767 0)
(0.76760633 -0.00019696034 0)
(0.76741485 -0.00018397764 0)
(0.76723604 -0.00017184547 0)
(0.76706907 -0.00016050756 0)
(0.76691315 -0.00014991335 0)
(0.76676754 -0.00014001876 0)
(0.76663154 -0.00013078178 0)
(0.76650451 -0.00012216239 0)
(0.76638585 -0.00011411903 0)
(0.76627501 -0.00010661132 0)
(0.76617149 -9.9597109e-05 0)
(0.76607482 -9.3040931e-05 0)
(0.76598454 -8.6906227e-05 0)
(0.76590024 -8.1169997e-05 0)
(0.76582152 -7.5803848e-05 0)
(0.76574798 -7.0796366e-05 0)
(0.7656793 -6.6119507e-05 0)
(0.76561511 -6.1766894e-05 0)
(0.76555517 -5.7700114e-05 0)
(0.76549912 -5.3918656e-05 0)
(0.76544683 -5.0369879e-05 0)
(0.76539791 -4.7072865e-05 0)
(0.76535232 -4.3958736e-05 0)
(0.76530964 -4.1082725e-05 0)
(0.7652699 -3.8344936e-05 0)
(0.76523264 -3.5851234e-05 0)
(0.76519796 -3.3443474e-05 0)
(0.76516549 -3.1303051e-05 0)
(0.7651351 -2.9183558e-05 0)
(0.76510704 -2.7380276e-05 0)
(0.76507988 -2.5527406e-05 0)
(0.76505653 -2.4074384e-05 0)
(0.76503047 -2.2554538e-05 0)
(0.76501434 -2.1599399e-05 0)
(0.76498335 -2.0988793e-05 0)
(0.91890839 -0.035821912 0)
(0.86271385 -0.062195637 0)
(0.78705971 -0.062510089 0)
(0.69536033 -0.054550395 0)
(0.61089744 -0.044531652 0)
(0.54411591 -0.034015973 0)
(0.49343011 -0.024187542 0)
(0.45479412 -0.016144231 0)
(0.42544582 -0.010265786 0)
(0.40347314 -0.0063041433 0)
(0.38715768 -0.003797626 0)
(0.37496221 -0.0023103346 0)
(0.36566194 -0.0014930127 0)
(0.35836272 -0.0010851184 0)
(0.35244267 -0.00090607485 0)
(0.34748199 -0.00084105569 0)
(0.34320346 -0.00082372798 0)
(0.33942725 -0.00081931262 0)
(0.33603793 -0.00081185172 0)
(0.33296115 -0.00079579849 0)
(0.3301478 -0.0007708073 0)
(0.32756386 -0.00073870541 0)
(0.32518421 -0.00070188685 0)
(0.32298902 -0.00066256579 0)
(0.32096171 -0.00062250225 0)
(0.31908784 -0.00058296176 0)
(0.31735448 -0.00054477596 0)
(0.31574995 -0.000508437 0)
(0.3142636 -0.00047419189 0)
(0.31288575 -0.00044212219 0)
(0.31160757 -0.00041220526 0)
(0.31042103 -0.00038435717 0)
(0.30931884 -0.00035846188 0)
(0.30829438 -0.00033438976 0)
(0.30734164 -0.00031200883 0)
(0.30645514 -0.00029119167 0)
(0.3056299 -0.0002718187 0)
(0.30486136 -0.00025377987 0)
(0.30414535 -0.00023697492 0)
(0.30347808 -0.0002213126 0)
(0.30285602 -0.00020670997 0)
(0.30227597 -0.00019309092 0)
(0.30173497 -0.00018038532 0)
(0.30123029 -0.00016852828 0)
(0.30075941 -0.00015745951 0)
(0.30032 -0.00014712345 0)
(0.29990991 -0.00013746898 0)
(0.29952714 -0.00012844944 0)
(0.29916983 -0.00012002249 0)
(0.29883625 -0.0001121493 0)
(0.2985248 -0.00010479422 0)
(0.29823399 -9.7923729e-05 0)
(0.29796242 -9.1505982e-05 0)
(0.29770882 -8.5510606e-05 0)
(0.297472 -7.9908394e-05 0)
(0.29725082 -7.4672094e-05 0)
(0.29704427 -6.9776416e-05 0)
(0.29685137 -6.5198602e-05 0)
(0.2966712 -6.0918542e-05 0)
(0.29650292 -5.6918037e-05 0)
(0.29634574 -5.3180659e-05 0)
(0.29619892 -4.9690474e-05 0)
(0.29606177 -4.6431685e-05 0)
(0.29593366 -4.3388521e-05 0)
(0.29581399 -4.0545043e-05 0)
(0.29570221 -3.7886374e-05 0)
(0.29559781 -3.5398898e-05 0)
(0.2955003 -3.3071019e-05 0)
(0.29540922 -3.0893448e-05 0)
(0.29532415 -2.8858094e-05 0)
(0.29524467 -2.6958104e-05 0)
(0.29517042 -2.5185989e-05 0)
(0.29510105 -2.3533754e-05 0)
(0.29503624 -2.1992286e-05 0)
(0.2949757 -2.0552229e-05 0)
(0.29491916 -1.920433e-05 0)
(0.29486635 -1.7941471e-05 0)
(0.29481704 -1.6757146e-05 0)
(0.29477098 -1.5648804e-05 0)
(0.29472796 -1.461228e-05 0)
(0.29468776 -1.3647292e-05 0)
(0.2946502 -1.2748213e-05 0)
(0.2946151 -1.1913861e-05 0)
(0.2945823 -1.1134682e-05 0)
(0.29455166 -1.0409924e-05 0)
(0.29452305 -9.7274847e-06 0)
(0.29449631 -9.092177e-06 0)
(0.29447136 -8.4899041e-06 0)
(0.29444804 -7.9338847e-06 0)
(0.29442627 -7.4039546e-06 0)
(0.29440591 -6.9223617e-06 0)
(0.29438691 -6.4592147e-06 0)
(0.29436914 -6.0470581e-06 0)
(0.29435253 -5.648202e-06 0)
(0.29433706 -5.2991978e-06 0)
(0.29432239 -4.9768925e-06 0)
(0.29430908 -4.6882787e-06 0)
(0.29429558 -4.5364869e-06 0)
(0.2942849 -4.4082784e-06 0)
(0.29426862 -5.0578974e-06 0)
)
;

boundaryField
{
    top
    {
        type            fixedValue;
        value           uniform (0 0 0);
    }
    inlet
    {
        type            fixedValue;
        value           uniform (1 0 0);
    }
    outlet
    {
        type            zeroGradient;
    }
    bottom
    {
        type            fixedValue;
        value           uniform (0 0 0);
    }
    back
    {
        type            empty;
    }
    front
    {
        type            empty;
    }
}


// ************************************************************************* //
