/*--------------------------------*- C++ -*----------------------------------*\
  =========                 |
  \\      /  F ield         | OpenFOAM: The Open Source CFD Toolbox
   \\    /   O peration     | Website:  https://openfoam.org
    \\  /    A nd           | Version:  9
     \\/     M anipulation  |
\*---------------------------------------------------------------------------*/
FoamFile
{
    format      ascii;
    class       volScalarField;
    location    "20";
    object      p;
}
// * * * * * * * * * * * * * * * * * * * * * * * * * * * * * * * * * * * * * //

dimensions      [0 2 -2 0 0 0 0];

internalField   nonuniform List<scalar> 
918
(
0.37114129
1.5932524
0.017698296
0.33023794
-0.0049190107
1.5639033
-1.1602812
1.1297486
0.39195434
-0.35385057
-0.20010062
0.67936728
1.4353095
1.1953693
-0.9287393
-0.032763727
1.0387532
-0.96726256
0.38138671
-0.024437321
1.2481462
0.34101126
0.36843135
0.34238086
0.84917624
1.1800897
1.298138
0.0086021316
0.0058178913
-0.012147278
-0.00032658264
-0.033485366
-0.024070305
1.4401809
1.4941998
1.5178937
0.43606821
0.34326649
-0.91390356
-1.0405833
-0.97828155
-1.2374711
1.1093785
1.1110326
-0.53092778
1.1304156
1.1512383
0.36624647
0.38661484
0.39581312
0.3369675
0.36687013
0.38301881
0.29545114
-0.36885598
-0.43009546
-0.32263893
-0.30501829
-0.077078872
-0.22077521
-0.22361108
-0.18392872
-0.15217432
0.51840117
0.64052864
0.62623656
0.69311438
0.72610352
1.5303489
1.4937875
1.5207696
1.4675957
1.4579013
1.415168
1.3783225
1.2339226
1.2412008
1.1931061
1.1572592
-1.4671556
-2.5226195
-0.34261016
-0.030460812
-0.0033184166
-0.051981065
-0.052962579
1.0143003
1.0178059
1.0345915
1.0559058
1.1082696
-0.90373875
-1.1801225
0.38380274
0.37668304
0.3726491
0.35446137
0.40027735
0.44527527
-0.013094487
-0.029505595
-0.040205349
-0.0074606274
-0.022953568
1.220347
1.2072275
0.3577934
0.36311172
0.74697192
0.80695298
0.77978756
0.34854375
0.87799109
0.91537551
0.96547253
1.1662359
1.1803416
1.15978
1.2842688
1.2395231
1.3448413
1.3704501
0.023740764
0.00756267
-0.041347028
-0.028988434
-0.018676906
0.44895992
0.4726264
0.44279179
0.42000891
0.41869659
0.28563155
0.14238997
0.43391426
0.45103826
-0.74572933
-0.84062121
-1.0248676
-1.0435438
-1.259354
0.70796574
1.0900349
1.0922318
-0.56883814
-0.41569247
-0.66664236
-0.32627287
-0.41932689
0.3944779
0.38111404
0.39093099
0.35951439
0.36447169
0.3629233
0.36790416
0.3700085
0.38431278
0.36072024
0.50427837
0.23962519
0.19043031
-0.66008239
-0.45341436
-0.63882063
-0.29315823
-0.27913486
-0.062241809
-0.04890447
-0.080967683
-0.097238608
-0.27228694
-0.24703128
-0.25138629
-0.12972272
-0.10324066
0.50554394
0.51159631
0.5002043
0.51044989
0.54877734
0.5551217
0.59771673
0.58481329
1.3042873
1.3279616
1.3726537
1.3356017
-3.9334241
-6.6454283
0.30302984
0.48781742
-0.0022618159
0.0016052298
0.0025415838
0.0089165129
-6.2035886e-05
-0.0042228716
-0.093372453
-0.10454071
-0.073832157
-0.075500515
0.98957679
0.98908574
1.0528398
1.092838
0.97027983
0.9634977
0.39857327
0.39158547
0.39346185
0.38898119
-0.077870766
-0.040398692
-0.057743304
1.1534121
1.18508
1.177299
0.2661955
0.13414218
0.40984105
0.44886766
0.96455173
0.93513901
0.96084674
1.041407
1.0766291
1.3600069
1.3720351
1.4098488
1.40664
1.4549419
1.4472764
1.4057315
0.49340636
0.47383199
0.49867821
0.40091914
0.42491842
0.4148077
0.50940532
0.46524437
0.50065405
-0.026149037
-0.3687994
0.52380887
0.51733493
0.49640461
0.49056422
0.78430641
0.87719559
1.0518935
1.0702302
1.0755374
-0.18652164
-0.27520503
0.12357424
0.094793252
0.47099856
0.49852457
0.4979122
1.2784243
1.2788378
1.3251566
1.2874505
1.2287896
1.251485
-0.39625809
-1.5745468
-0.95299156
0.89755296
0.67396089
0.78038993
-0.11339283
-0.14656011
-0.11823348
1.062779
1.1238834
0.56003228
0.81164837
0.81513553
1.1262129
1.1493284
1.2203033
1.1451696
1.1720844
1.1973607
1.1804451
0.65324305
0.55929963
0.58293592
0.92365554
0.97775708
0.057746994
-0.055582534
-0.098632902
-0.014623955
0.032892331
-0.002242218
1.0842361
1.0220837
1.0956387
0.36744639
0.35948899
0.018332776
0.019884565
0.39286225
0.36503489
0.0021860005
0.0022170885
0.75381499
-0.67728885
0.074713752
0.39231682
0.39676022
0.38140875
-0.34354203
0.26847334
-0.19420193
-0.15035041
-0.093748122
0.65675214
0.53084264
0.51962874
0.011728681
-6.6148916e-05
-0.04674061
-0.55977616
0.37548096
0.35569116
0.37237164
0.35716098
0.38869255
0.0035861293
0.0072095222
0.0022163245
-0.028396165
-0.01651786
-0.002943259
0.47022476
0.48756316
-0.45475199
0.38447756
0.3691464
0.38665073
0.34179582
0.40067788
0.35254851
-0.0065499104
-0.0026092913
-0.021112383
0.29698078
0.46005991
1.0752314
1.244027
1.0832231
0.70082112
0.37200703
0.93204383
1.031682
0.89192219
1.0770727
1.0593866
1.1021152
0.15329772
-0.079505324
0.17175774
0.1113832
0.39080774
0.39724592
0.40262445
0.40202151
0.3921314
0.36763301
0.39012413
0.39166902
0.38695934
0.40339059
-0.27081958
-0.32192201
-0.33193677
-0.41446459
0.27538654
0.55161142
0.18853995
0.21512396
0.0021522446
-0.19601447
-0.18228973
-0.21544827
-0.22361659
-0.2935397
-0.13751957
-0.13452733
-0.10200887
-0.06201942
-0.16120098
-0.27821143
-0.23422188
-0.2339996
0.61982111
0.60465984
0.64444483
0.69752594
0.52084234
0.51398952
0.51602134
0.52039215
0.51748105
0.47111966
0.50006221
0.4893515
-0.0045386274
0.016429829
-0.00012399865
-0.022021448
-0.039382356
-0.013019136
0.008381851
0.013361467
-0.015790277
-0.01290261
-0.051306766
-0.051008236
-0.51208494
-0.67258317
1.0052974
0.86001394
0.03841234
0.36683273
0.3552881
0.34697809
0.38279824
0.36960355
0.37584968
0.37784529
0.37620592
0.44004764
0.41438847
0.48428653
0.5256088
-0.3706497
-0.60670193
-0.34390157
-0.3966668
0.20870301
0.93411597
0.44647236
0.36327208
0.38334461
0.75679648
1.2573071
1.1316989
1.1946362
1.2397845
-0.31511903
0.17849986
-0.1152757
0.56801536
0.78844328
1.0489766
1.1094911
1.1143162
1.0835252
1.0169501
-0.22572524
0.76887643
-0.23919837
-0.22192998
0.1162875
-0.058211828
1.1304462
1.0323471
1.0402789
1.0862188
1.1238093
1.0450835
0.98850088
1.0037679
1.0762395
1.077879
0.70665009
0.33009401
0.2168764
0.21107601
1.0000604
0.77103311
0.86825581
0.70284931
0.40737671
0.41039428
0.39768226
0.43364341
0.42077261
0.41913822
0.4497391
0.46556978
0.41431133
0.38325844
0.42469633
0.39801928
-0.28291595
-0.28575802
-0.23650649
-0.43244248
-0.40767154
-0.5282176
-0.31558321
-0.065234325
-0.098199687
0.09693026
0.22738103
-0.11262705
-0.3247965
-0.2668749
-0.20863684
0.018099162
0.076710231
-0.063303812
0.011677466
-0.0061095742
-0.019808519
0.11779359
0.11842209
-0.2393036
-0.24472672
-0.23498166
-0.23909293
-0.13904621
-0.040506509
-0.037890857
-0.18400767
-0.25294699
-0.16425915
-0.12214935
-0.20944085
-0.24495872
-0.23375167
-0.1817079
-0.012969613
-0.032431254
-0.025221645
-0.13981637
-0.090936456
-0.1288276
0.54846913
0.57160012
0.55868456
0.71644951
0.71110508
0.75540981
0.70992645
0.46847623
0.4930253
0.48258537
0.54182952
0.51441329
0.5577447
0.56664429
0.59995365
0.61190673
0.49776264
0.4765224
0.57643326
0.53394064
0.53795719
0.54446272
0.57755415
0.51864506
0.5317441
-0.0046781136
-0.0064832211
-0.0080798431
-0.038803898
0.0057385183
0.000464376
-0.086440591
-0.025989591
-0.070646618
-0.045400639
-0.089019481
0.00096312745
-0.017391056
-0.33950841
-0.17529158
-0.56490847
-0.59913822
-0.69853871
0.89560893
1.0530202
0.79582037
0.51530958
0.54733004
0.83442718
0.97833007
0.49635985
0.6205532
0.73983806
0.66986224
0.91156251
0.38134937
0.37545302
0.39017134
0.37287029
0.39870081
-0.18728065
0.0020502954
-0.060541243
0.11708405
0.3259422
0.37726593
0.1878176
0.12908633
0.28957415
0.18364193
0.92894416
0.95654132
0.84614968
0.90195827
0.90263894
0.57183744
0.72463742
0.83587428
0.74804389
0.83351941
0.85273332
0.78654477
0.83061823
0.76913843
0.67566431
0.6851341
0.53493293
0.59122359
0.54773652
0.51456203
0.63037476
0.59076348
0.62703449
0.61778419
0.67853378
0.76891546
0.75047516
0.77020986
0.81819556
0.67272555
0.61105842
0.6230015
0.6848859
0.58671795
0.5927401
0.6246033
0.19000458
0.20158877
0.07470042
-0.025409614
0.062372105
-0.10111092
-0.121113
-0.090026903
0.22379689
-0.41206782
-0.39847527
-0.77047168
0.64550988
1.2895361
1.0617639
1.0521133
1.1256971
1.0844925
1.0749928
1.1454992
1.1509699
0.98555227
1.0241946
1.0249554
0.91902687
0.96318605
1.0585944
1.0404308
0.73242547
0.4746386
0.42790425
0.40765694
0.15951269
0.23496548
0.61019554
0.47271406
0.33740938
0.34227151
0.66053627
0.44955102
0.5650299
0.64786944
0.51357167
0.44055455
0.79116441
0.92152714
0.91258544
0.85956605
0.68477565
0.72470259
0.78432484
0.8566541
0.89474216
0.96992663
0.42325656
0.42339807
0.41684157
0.40383967
0.43866901
0.43367959
0.43261243
0.41216581
0.41019636
0.40559893
0.42197199
-0.24407368
-0.2451359
-0.26214067
-0.25939279
-0.19437336
-0.21509602
-0.12388992
-0.16286192
-0.20831961
-0.19257401
-0.21877056
-0.23787673
-0.23099842
-0.21536024
-0.00079354913
0.039302483
-0.030758213
-0.059781049
0.13601654
0.28122799
0.33555469
0.25110906
0.072745781
0.10111937
0.16387622
-0.19728795
-0.15984862
-0.21295161
-0.13221986
-0.13330315
-0.2160179
-0.18931742
-0.19371956
-0.26184026
-0.23159137
-0.1413653
-0.069456434
-0.076102779
-0.094022019
-0.093953502
-0.07813774
0.46731014
0.49225017
0.54723797
0.51467188
0.50807917
0.52779248
0.49355711
0.51019379
0.51354593
0.54759805
0.53394973
0.57329694
0.5606917
-0.054583932
-0.024449701
-0.037685901
-0.064619166
-0.025865014
0.0016652228
-0.017408919
0.044085045
-0.094812823
-0.064220734
-0.17813153
-0.41115488
-0.304467
0.41205365
0.54705114
0.54358633
0.77786329
0.56238946
0.51035815
0.65748305
0.78270909
0.21262097
0.44047734
0.25123612
0.91356448
0.81607287
0.99134545
0.53222557
0.2097668
0.43875314
0.53284399
0.21550539
0.32556435
0.33788799
0.17422664
0.24852567
0.26358655
0.41775947
0.2101392
0.26041158
0.19066232
0.21413182
0.27451094
0.29440299
0.39348916
0.4551355
0.14119534
0.1095031
0.043487393
0.91982872
0.95083905
0.982175
0.93627472
0.98141223
0.82591743
0.8181731
0.84970311
0.86712504
0.84787826
-0.60352358
-0.70199902
-1.0428519
-0.49466425
0.11874078
0.6856879
0.57043483
1.1244532
0.88004058
1.1026483
1.0514702
0.99969916
0.91484187
0.89313143
0.98081664
0.47818886
0.64359901
0.61829894
0.59939316
0.42969043
0.33687712
0.87344909
0.85625588
0.92911079
0.96140574
0.90290294
0.97684178
0.45456215
0.47378101
0.44862884
0.46843793
0.45967698
0.46513461
-0.087787799
-0.15646662
-0.038284093
-0.067839516
-0.12769643
-0.16464848
-0.087987421
-0.083611078
-0.095080863
-0.083986874
-0.046345544
-0.10530619
0.065483374
0.02580426
-0.1629642
-0.053050176
-0.2145147
-0.31319227
-0.37386665
-0.19299609
-0.070543477
-0.048708835
0.34383135
0.62842076
0.4710159
0.58587216
0.41245504
0.52390837
0.4917529
0.44961388
0.48949642
0.36661285
0.38335162
0.36551058
-0.42575584
-0.091161446
1.1761874
1.1073853
0.72986547
0.57817764
0.52028002
0.85761036
0.7736196
0.62670607
0.72309956
0.84355434
0.8326043
0.15046592
0.13313502
0.47928628
0.61479772
0.26700003
0.14733028
0.11362544
0.28077903
0.33165054
)
;

boundaryField
{
    wall-4
    {
        type            zeroGradient;
    }
    velocity-inlet-5
    {
        type            zeroGradient;
    }
    velocity-inlet-6
    {
        type            zeroGradient;
    }
    pressure-outlet-7
    {
        type            fixedValue;
        value           uniform 0;
    }
    wall-8
    {
        type            zeroGradient;
    }
    frontAndBackPlanes
    {
        type            empty;
    }
}


// ************************************************************************* //
