/*--------------------------------*- C++ -*----------------------------------*\
  =========                 |
  \\      /  F ield         | OpenFOAM: The Open Source CFD Toolbox
   \\    /   O peration     | Website:  https://openfoam.org
    \\  /    A nd           | Version:  9
     \\/     M anipulation  |
\*---------------------------------------------------------------------------*/
FoamFile
{
    format      ascii;
    class       surfaceScalarField;
    location    "20";
    object      phi;
}
// * * * * * * * * * * * * * * * * * * * * * * * * * * * * * * * * * * * * * //

dimensions      [0 3 -1 0 0 0 0];

internalField   nonuniform List<scalar> 
1300
(
1.7582594
5.6264299
-7.00017
1.7582594
-7.0448363
5.6264299
-6.1449914
6.1449914
-1.6303308
1.6303308
3.7345853
3.650104
-4.3858529
4.3858529
-4.2096857
4.2096857
-2.6747682
2.6747682
-5.2377064
5.2377064
-5.056596
5.056596
4.7659367
-4.7659367
-5.7394055
5.7394055
-2.252195
2.252195
-5.5376912
5.5376912
1.475586
-1.475586
-5.2056212
5.2056212
-0.45550419
0.45550419
-0.57644802
5.1479224
1.1818113
1.1818113
-3.0053898
3.0053898
-4.8438951
4.8438951
6.214344
-6.214344
10.572217
-10.572217
-3.5720466
-4.1175064
1.596698
-10.004406
-5.4481383
-5.4481383
-8.4382691
8.4382691
-2.8118392
2.8145907
1.8113165
-1.8113165
-1.7958824
1.7958824
-6.1183245
-0.026666989
-6.1183245
6.1726034
-0.027611992
6.1726034
-1.8269085
0.19657776
-1.8269085
5.501973
-5.501973
1.4016008
0.22872994
1.4016008
1.2920821
-1.2920821
-3.7357248
7.4703101
3.6489645
-3.0528845
8.2008068
-3.3940664
7.0441704
-6.6368396
6.6368396
-4.6997566
0.31390367
-4.6997566
4.1426859
0.24316702
4.1426859
-7.1525327
7.1525327
-4.0765885
-0.13309718
-4.0765885
4.3971204
-0.18743472
4.3971204
2.8577922
-2.8577922
-2.4631574
-0.21161077
-2.4631575
2.8644656
-0.18969736
2.8644656
0.35898329
5.2674467
-5.9854131
8.8000039
-5.2674467
0.02974028
5.2000614
0.037644972
5.2000614
-5.0934324
0.03683636
-5.0934324
5.0131717
0.043424335
5.0131717
4.8665466
-0.10060986
4.8665466
-4.8645622
0.098625416
-4.8645622
-3.8860233
-4.3185635
-5.8835477
0.14414225
-5.8835477
-2.2958542
0.043659163
-2.2958542
2.1930428
0.059152188
2.1930428
-4.1802549
4.1802549
-5.9500216
0.4123304
-5.9500216
1.3572569
0.11832903
1.3572569
2.0099925
2.5614818
3.7682519
-3.7682519
2.2926659
-5.0528545
-0.15276665
-5.0528545
-5.3672533
-5.2049633
5.3672532
-0.16163207
-0.86650121
0.41099703
-0.86650122
1.2314449
-0.049633546
1.2314448
3.0107325
-0.14626692
-3.0107325
0.0053427099
4.2429173
-4.2429173
2.2860277
0.719362
2.2860277
-5.5782291
5.5782291
4.9503054
0.062866223
-4.9503054
0.10641035
6.1540378
0.060306219
6.1540378
-6.1927364
-0.021607558
-6.1927364
3.8992437
-8.0167501
-4.2167552
5.592256
0.14714947
-5.5922561
0.14411783
2.0527035
-0.24138703
2.0527035
-1.5586095
1.5586095
-1.6295275
-0.18178895
-1.6295275
-2.1277694
0.33188699
-2.1277694
1.5248316
0.27105078
1.5248316
-5.9288706
-0.1894539
-5.9288706
-6.1293054
0.17928379
6.1293054
0.043298013
1.4307158
-1.4307158
-1.9933928
0.1664843
-1.9933928
-5.6838346
-0.24503598
5.6838346
-0.18186156
-5.4070214
-0.094951593
-5.4070214
-1.4407128
-0.1888147
1.4407128
-0.1486308
1.2637124
-0.032267566
-1.2637124
-0.028369673
-3.0536702
5.615152
-3.3932808
7.0422453
-6.2393052
-0.39753438
-6.2393052
7.0058488
-0.36900926
7.0058488
5.1563435
0.38134758
-5.1563435
0.45658689
4.0181755
0.12451036
4.0181755
-7.3481382
0.19560549
-7.3481383
6.8647193
0.28781331
6.8647193
4.0112602
0.0069153096
-4.0112602
-0.065328304
4.6242926
-0.22717219
4.6242926
3.1192218
-0.26142957
3.1192218
-2.59567
-0.26212228
-2.59567
2.0054873
-2.0054873
2.2391102
-0.23362288
-2.2391102
-0.22404725
-11.148717
11.127109
-0.035794756
-11.112922
5.1642666
5.1642666
4.0793997
0.78714694
4.0793997
-5.0522638
0.18770164
-5.0522638
3.8205292
-8.0372844
4.2870595
-8.1730828
4.2846469
-14.289053
3.9733761
-8.2919397
6.2519251
-6.2519251
6.0312758
0.22064929
-6.0312756
0.14772794
-2.3228157
0.026961504
-2.3228157
-3.5564093
-0.6238456
-3.5564093
4.8443092
-0.66405441
4.8443092
-1.3826882
1.3826882
-1.345958
-0.036730238
1.345958
0.011298944
4.8638472
-0.23955456
-4.8638472
-0.18900735
1.1478311
0.25376971
-1.1478311
0.28132987
4.6820486
-0.43913126
4.6820486
-3.7808783
-0.462039
-3.7808783
-2.314375
-0.0084407122
2.314375
-0.028347255
-5.8219934
0.2437643
-5.8219934
-11.213432
0.10051014
-11.175787
-6.0922263
-6.0922263
2.3460428
11.146047
-2.318274
-0.27739596
2.318274
-0.26557054
1.4586229
-0.075934701
-1.4586229
-0.099986598
-1.7757566
-0.22973076
1.7757566
-0.21714713
-2.5532813
0.42551195
-2.5532813
-1.2401759
1.2401759
-1.3329446
0.092768664
1.3329446
0.19188702
1.7421957
-0.31147988
1.7421957
2.1091459
0.083896926
-2.1091459
0.11575308
-5.2184781
-0.1885433
-5.2184781
7.2753396
-0.26949074
7.2753396
-3.4354531
-0.34542518
3.4354531
-0.31623135
-0.03525596
11.162365
-5.1290107
0.035578278
5.1290107
-11.222671
11.258249
-3.1316925
0.57841119
3.1316925
0.94770718
5.3124318
0.26579723
-5.3124318
0.26016802
6.5615432
0.30317616
-6.5615431
0.30961793
-3.0402895
-0.51611983
-3.0402895
-5.5929991
-0.64630613
5.5929991
-0.74868989
-11.475873
-0.19468178
11.670554
-11.432448
6.0166752
0.13736259
-6.0166752
11.395612
-1.261264
-0.16945179
1.261264
-0.021088129
2.0960287
-0.35383297
2.0960287
5.0313556
-0.34930698
-5.0313556
-0.18712255
-7.3955148
0.047376578
7.3955149
-0.12017534
-2.5453864
-0.49490307
2.5453864
-0.44935774
-5.3500548
5.3004212
2.8507521
-3.7259105
-4.2908396
-8.9308738
2.5553481
3.0598038
4.8480139
-8.9759223
-5.3131302
-8.8318044
7.2798181
-7.01965
-9.5216826
9.4210727
10.038455
-10.133407
-7.3998037
7.4111026
8.6149652
-8.763596
3.7675007
3.7028094
10.956492
-10.642589
-16.690358
16.292823
9.3802802
-9.5133774
17.39197
-17.196364
-18.828704
19.13188
-7.3279451
7.1163343
-8.5785886
8.3164664
-8.7567182
8.4404868
-3.5338876
-4.6391952
12.120452
-11.97631
12.946249
-13.099016
-11.520967
11.933298
4.0700634
1.2303578
4.0377958
-3.619243
7.3867436
-3.4249274
6.2756795
4.3197868
-7.8536744
3.7174975
-8.0083371
6.938804
6.007445
-6.777172
-2.1537018
-7.9107694
7.6693824
-7.6203877
7.4032406
12.004524
-12.031191
-3.5984457
7.3012551
-3.4437995
6.5036034
-3.7229528
-3.6768509
3.6046238
1.2433901
7.2433797
4.8770727
-7.3905293
-1.4412751
-10.156199
9.8068917
-10.473065
10.011026
-0.46454184
5.7942844
-5.3297425
4.3793533
-1.4708294
7.2651137
5.8089887
5.9966904
5.8696431
-5.6038459
1.1500069
-6.4797494
-6.3733391
-3.4352108
3.6016951
3.3749127
-3.1461828
7.8954006
2.1430545
7.713539
-7.2517266
-2.8816801
-7.4402699
4.5458372
2.8652654
4.5091069
5.2617352
3.3532299
5.0729205
5.87207
-5.9366867
0.06461674
-5.434711
11.306781
1.3645684
-9.1115618
-7.8681717
6.8835118
4.0729806
7.1266789
-7.5672889
-3.0753
-7.1107021
-10.199915
-6.4904424
-10.846222
10.904528
5.3882952
10.535519
-12.873208
12.753032
6.3768431
3.003437
6.1894084
-6.3120959
-3.2012813
-6.3774242
13.845964
-3.1969576
-10.649007
-11.240729
-7.5879748
10.952916
6.4390539
11.147041
7.9848388
11.456659
4.6889305
9.1570339
-11.127984
3.5400094
-4.4403739
-2.8875712
-4.6644211
4.6205896
2.4957446
4.4308923
-5.0656987
-3.51289
-5.3430946
-4.9879463
-3.7687719
5.2493759
3.0670904
-5.2190565
-5.2540084
5.5644817
2.8760051
4.0842219
-9.3973521
4.2077177
-8.8469129
-8.7735916
-3.2027184
-8.6258636
5.4129591
2.473876
-7.886835
-2.4407152
12.602754
-6.5953091
10.449052
-7.6068399
-5.4921759
-7.7958472
-9.13659
-2.3843773
-8.9573062
-9.5636562
9.0475363
-9.9390255
9.2749711
13.84416
-6.6887475
-7.1554121
-4.8796536
-3.8839424
4.9080233
-0.87022752
-7.2100257
7.2746425
0.17671786
6.4523973
7.6827551
6.8125276
-4.5061417
-3.1142461
-4.6061283
4.7418725
2.6613681
4.5121418
9.116007
2.8885173
9.088395
-8.5622175
-3.4689738
-8.7516714
9.5845615
-9.2526745
3.8846739
-3.8931146
6.794327
3.2166989
-6.3551957
-3.801003
8.4052922
-3.9306738
-4.4746185
-12.091789
10.672734
1.4190558
-4.8266757
-0.44732243
0.0081817492
-5.5851734
-3.9365092
5.486548
0.51014241
11.182876
7.2463668
-5.5182927
5.762057
6.1522618
6.215128
-0.15821109
6.1031928
-5.5247816
7.0863016
-3.1109236
-3.975378
7.015804
-7.26084
-1.7358674
-7.120793
5.3849256
0.45269904
2.3035614
-1.8925644
-2.7404675
-0.69474332
-2.6247144
1.9818278
1.3930849
2.2355975
1.3294539
2.2722412
-3.9299395
0.67736387
3.2525757
-2.6004856
-2.4688189
-4.8692757
-1.3918231
6.2610988
7.2719686
2.534923
-7.0848461
-0.35542381
3.6631408
-3.6039887
-1.1262159
-3.7430599
2.7731709
-3.8993867
-4.7046364
-2.5571882
7.2618247
-3.7936931
-0.81243514
3.8696279
0.63947904
-4.6330591
-3.2777103
4.8148481
0.25807245
-5.1578979
10.756621
-5.5987231
-8.272144
4.5628537
6.7439272
7.4281191
-9.1087034
4.685685
4.4230184
-2.3647762
5.8354548
1.2912241
5.9599652
-9.1818507
6.1065506
7.8935139
4.0397837
-8.2748614
1.1641593
-8.0176914
10.492259
-9.0759644
-1.4162946
5.2158063
5.2764526
7.5473822
6.2967773
-6.0452646
13.592647
-1.3461269
-7.7298375
9.3638184
-5.3240347
6.0247369
-11.348772
-12.321514
4.5916766
-9.6761907
12.041318
-2.3651277
-3.8861255
-8.9870821
13.562316
-1.278946
-12.28337
9.2565729
-5.5945576
-5.2534742
10.848032
-8.791515
8.4547554
-2.2582045
-6.1965509
-11.03354
-6.1628246
10.986163
1.7668693
-11.489931
15.02994
-2.3328967
5.7137817
0.47562677
5.4866093
4.0161943
-7.0198376
3.0036433
4.7753206
-7.0335251
2.1243442
-9.1441818
-6.953776
12.334591
-5.380815
-10.156494
-9.9530912
-0.20340326
1.9791849
13.050755
-9.9640236
6.9016467
3.0623769
4.0072228
0.50491893
-3.7735999
-0.89082121
0.84496025
6.3899012
-7.2348615
5.2758525
5.1295856
5.1078029
1.2820983
4.9499189
2.7194635
-4.6843483
-0.65874629
-5.8572023
2.0884305
-2.7901119
-5.841512
7.9299425
-6.6315508
0.79003879
-3.9354905
-6.0002321
9.9357226
-6.8230617
5.2697716
5.4868494
7.9311396
-8.3201858
2.3199537
-4.316575
-4.0036109
4.3115971
-7.101709
3.0589513
4.8709912
5.9349564
0.68094799
6.5925172
5.7420739
-9.0663933
0.2194804
10.619147
-9.1778716
3.0276056
8.4290533
-9.9292521
-0.023839082
-8.6497027
0.69579655
-7.2911056
-7.1910384
6.6578154
-9.0421927
-4.6909563
8.3061104
0.78228458
-8.3494084
-0.60789786
-6.5239709
-3.0396853
-7.018874
-3.3015998
-6.6374258
-9.3468645
-1.7862649
-7.5605995
7.2612714
-7.2201435
-3.6260781
7.9688335
1.3061376
-8.0372256
7.8677739
-8.0830857
7.7292527
0.26724486
7.0073976
7.0797725
3.1958301
-4.6426214
7.8384515
-6.6777817
9.566299
-11.222033
4.5442512
5.3485296
-8.8175034
-5.8735033
5.4837772
4.1007843
5.754828
9.4062515
-10.864476
1.4582249
-11.077033
12.636585
-1.5595528
-17.153551
6.0765184
-7.7472995
3.5796718
0.30500203
3.6066334
0.94559829
3.1099576
-4.0555558
-2.9475163
-2.9758636
-3.1585618
-4.5714437
7.7300055
1.4935059
-4.5429198
3.049414
-4.6589237
6.1524296
-0.06649443
-4.4764254
7.0705783
-3.9606208
7.3755803
-4.7254181
2.6501622
4.4446715
7.6349872
-3.1903157
5.8049401
-2.5882411
2.5675066
-5.7578223
-2.0039371
-4.8051643
7.300909
-5.1305583
5.9205971
-0.066047446
5.9866445
-5.4728685
1.5421947
-0.36506556
4.76452
4.7698627
6.0928713
-4.810773
4.1395695
-6.7278107
-1.6182528
-6.0468627
-1.1758715
-0.48604545
-5.0606059
5.5466514
6.7444277
-7.2304731
-5.3683861
9.785394
-4.4170079
8.0923558
-5.5525455
-2.5398104
-4.5743028
-4.6783717
4.1487908
1.954402
10.046758
0.27926351
-5.831809
-5.2455181
-4.2978109
4.3596817
2.7266199
-2.4301175
3.8491732
2.4219357
-0.11837428
0.82039021
1.4152073
2.4780729
-1.6576827
0.19602724
2.2820456
-1.6965371
2.6760049
0.98713593
-2.7599018
0.13518743
-1.9185307
4.6917016
1.334045
-2.7271299
1.0694472
1.5547166
-4.6656402
6.3999561
-3.1939194
-3.2060367
7.9546727
1.5254468
-4.7193662
5.5953463
-5.1426472
3.0585307
-4.4503538
-1.6608355
-6.8034827
-4.6604282
-3.2683376
6.3177515
-4.4616679
6.996591
1.6131151
-6.6411672
8.2542823
-4.718884
2.1616957
-4.1300116
5.1171476
-1.4335456
-2.696466
3.6246615
3.6371632
-3.8440766
0.10101665
-0.21941505
3.0852517
-3.3046667
-0.81413507
-3.4146207
-7.3803636
7.6384361
-3.8113177
8.4970027
4.0271337
-3.4060374
11.90304
3.2838289
-6.6898663
-4.9883151
-5.8007503
-2.2668479
5.1612712
-0.7365691
-5.6408551
-6.9331199
5.6339397
0.32602547
-9.334015
10.225051
-0.89103615
-5.2610345
-0.84551604
6.0613223
-7.4149078
0.38138266
-5.2905635
4.9344877
6.2257118
6.5517372
-11.978345
-0.30502527
-6.5900496
1.367596
-7.9576456
6.6440486
-3.8391407
8.4308172
-11.059644
7.4335655
-9.7535061
7.0145225
-0.94312311
7.4858947
-4.4822514
3.1631118
-9.3259364
-7.5590672
6.8484556
-3.8450186
7.3240824
-4.6701165
11.994199
-7.0030131
7.5677461
4.4264527
-1.9616995
-5.8341477
-6.9806532
5.0189537
0.58709293
6.0737023
7.3709822
-4.6515187
6.7122359
3.9023631
-8.218938
-3.1993459
-11.500373
3.2814353
-6.013524
-2.9255678
6.2070032
5.0055718
5.5104907
2.2033923
-4.6196695
9.0991155
-9.3025188
-3.7183004
-3.472738
7.3813236
-2.3623699
5.4019579
-8.8746958
-1.8891477
5.6907406
-0.69163615
-4.9991045
0.99800688
-5.6889632
2.2812117
-7.9701749
6.760981
-7.3688789
2.354862
-10.102161
-5.6823637
-5.7034518
-2.4337926
-5.6492931
-7.9835193
5.5497267
-1.9070009
5.960773
-8.91292
8.2212838
-3.7236654
9.2733921
-5.8736149
-1.1452591
6.3229726
1.4062801
10.679672
0.34550497
-6.2190083
-2.6627683
5.4726859
-2.8099176
1.6969133
-4.7151009
0.75758497
3.3102353
4.6444374
-8.6951609
-0.12234243
-6.3413507
-4.1748503
8.2756346
5.6105437
12.354971
1.490495
9.4342899
-1.1586553
10.924785
4.5961727
4.7880597
-4.0681974
5.5264223
1.478454
6.0227052
-1.1439609
3.794123
2.4626725
2.5063317
1.097657
2.8627628
1.9070999
4.4049575
0.34940169
-2.6264619
4.7105857
-9.0083966
-1.1212232
-8.2212497
1.1998231
5.8922307
-4.6924077
4.3016784
-1.5750585
1.4917608
0.098666655
-2.4375308
2.3388641
-3.8767113
-2.555905
-0.27385941
-2.0944546
3.1639018
2.597247
-2.8900424
-0.98666893
0.41029403
-5.0707222
4.0400598
-3.9390431
-0.30187993
7.9524023
-3.6441962
0.33952944
-1.4825005
-3.0750912
-3.7698345
3.6346471
11.32574
0.57730019
5.7270168
8.2157362
4.9380259
0.28650717
4.4812091
-6.8463368
-4.6629727
-7.151362
-0.5073134
5.5540088
3.4219392
9.6288156
7.8483919
5.486022
-3.3886738
-12.691193
8.1448892
-2.6184669
6.5853364
-1.5862319
-6.383943
6.5461441
3.020155
-7.3284286
-0.040450257
-6.4243933
-9.0428602
-0.49386316
8.715147
-10.185809
9.0405499
6.0008647
1.5597349
-4.8383609
-0.8650909
4.7455922
0.042467471
10.967252
-1.1986871
-7.1669381
8.3656253
-4.6935436
3.5723204
1.0052577
2.8439156
3.3441218
1.7690634
-5.3978747
-10.090282
-2.5465718
-2.1190684
-5.7526085
0.5084903
-3.1057373
6.3118107
-2.7394903
3.7720003
5.626135
7.1178958
-2.0500676
-5.1804055
6.4670755
-2.6950752
4.4228206
)
;

boundaryField
{
    wall-4
    {
        type            calculated;
        value           uniform 0;
    }
    velocity-inlet-5
    {
        type            calculated;
        value           nonuniform List<scalar> 8(-1.7582594 -1.7582594 -7.3846893 -4.5714743 -7.3846893 -6.446951 -4.5714743 -6.446951);
    }
    velocity-inlet-6
    {
        type            calculated;
        value           uniform -5.6264299;
    }
    pressure-outlet-7
    {
        type            calculated;
        value           nonuniform List<scalar> 8(7.00017 7.0448363 7.689553 8.4077076 8.2045869 8.1159989 8.1075888 8.2580231);
    }
    wall-8
    {
        type            calculated;
        value           uniform 0;
    }
    frontAndBackPlanes
    {
        type            empty;
        value           nonuniform List<scalar> 0();
    }
}


// ************************************************************************* //
