/*--------------------------------*- C++ -*----------------------------------*\
  =========                 |
  \\      /  F ield         | OpenFOAM: The Open Source CFD Toolbox
   \\    /   O peration     | Website:  https://openfoam.org
    \\  /    A nd           | Version:  9
     \\/     M anipulation  |
\*---------------------------------------------------------------------------*/
FoamFile
{
    format      ascii;
    class       volVectorField;
    location    "20";
    object      U;
}
// * * * * * * * * * * * * * * * * * * * * * * * * * * * * * * * * * * * * * //

dimensions      [0 1 -1 0 0 0 0];

internalField   nonuniform List<vector> 
918
(
(0.40794162 -2.2997737e-05 0)
(0.0090455759 2.957628 0)
(-0.016510348 1.8556197 0)
(0.28960193 -0.0087830046 0)
(-0.0064681048 1.8735959 2.5815487e-20)
(-0.011744119 2.9485775 -3.0617051e-18)
(1.0789716 1.6627875 9.6864249e-19)
(0.50963643 0.29805117 -2.3966808e-20)
(1.9884957 0.0032225108 0)
(0.029326325 1.2637942 0)
(-0.022086738 1.2193146 0)
(0.75590123 -0.027558802 0)
(0.012840103 2.9163431 0)
(0.013816154 2.7905128 0)
(0.10253487 3.1904187 5.1349252e-19)
(0.003286981 1.7709453 3.620567e-20)
(0.67346676 0.16555362 1.5501349e-18)
(0.22712925 1.738415 7.757264e-19)
(0.35370205 0.0017020971 0)
(-0.010075835 1.5120731 0)
(0.12161743 0.28861842 -1.2344467e-18)
(1.0467176 -0.022262709 0)
(0.5440301 -0.029325803 0)
(0.24464666 -0.0065400996 0)
(0.87890612 0.003710262 0)
(0.025457785 2.6103354 0)
(-0.0099394341 2.9059753 1.1125964e-18)
(-0.030780868 1.8722885 0)
(-0.047898269 2.0495103 0)
(-0.025082276 1.8624425 0)
(-0.0094603585 2.2437692 0)
(-0.00048962678 1.910108 -2.0209549e-20)
(-0.0016325408 1.7675417 0)
(-0.018161286 2.9813256 -1.1331015e-22)
(-0.018374269 3.0070237 2.3770711e-18)
(0.00086073196 3.001594 0)
(0.41974359 0.022906948 0)
(0.43939018 0.92294069 1.8753643e-19)
(1.175145 1.6357057 -1.1990922e-18)
(1.2476325 1.5176383 1.2301607e-18)
(0.98612943 1.7759506 -2.2026526e-19)
(0.88081272 1.7868602 1.2705353e-18)
(0.62949831 0.35294311 2.329366e-20)
(0.55889922 0.28056076 0)
(1.5456682 0.87794041 0)
(0.56512507 0.36230656 1.0707119e-19)
(0.45476841 0.2998255 -1.116106e-19)
(0.24577861 -0.00059822872 0)
(1.9893208 -0.00016978457 0)
(1.9886732 -0.0029089185 0)
(1.3578976 0.00028555341 0)
(1.8672318 0.0048878904 0)
(1.7377722 0.0029048879 0)
(0.03070761 2.067022 -5.2195437e-19)
(0.05294188 1.475403 0)
(0.052379643 1.3710446 0)
(0.03484078 1.4035233 0)
(0.016824844 1.1778305 0)
(-0.035667604 2.1397566 0)
(-0.02715989 1.3489537 0)
(-0.015261808 1.1767282 0)
(-0.03365715 1.4037999 0)
(-0.022631746 1.2723908 0)
(0.80935258 0.037904967 0)
(0.8666363 -0.045042043 0)
(0.67890827 -0.031638927 0)
(0.91383389 -0.035440283 0)
(0.8265116 -0.020455388 0)
(0.016739025 3.0145155 1.1686839e-18)
(0.012391617 3.0113744 0)
(0.0077287845 3.0035789 0)
(0.013330565 3.0004873 1.2418031e-23)
(0.010557051 2.947631 -1.6690892e-18)
(0.016844251 2.9848904 0)
(0.013438063 2.8938265 0)
(0.017753461 2.9237843 2.6277025e-24)
(0.013874629 2.8180541 0)
(0.017874619 2.9100114 0)
(0.01134904 2.7533147 0)
(0.25389629 3.6543319 0)
(0.1807095 3.5918444 0)
(0.1367511 3.3237615 -4.8044158e-19)
(0.051050002 3.011956 0)
(-0.055594902 2.1887826 0)
(0.001873805 1.947243 -3.568695e-20)
(0.0012585881 1.7896076 5.2717615e-20)
(0.81424023 0.18663538 -5.3401402e-19)
(0.70020853 0.12940639 -5.1551125e-19)
(0.7823032 0.2237489 -1.6071519e-18)
(0.65131687 0.19609402 -1.0654554e-18)
(0.1829456 1.1835965 0)
(0.34848949 1.8734248 -8.1960243e-19)
(0.43997059 1.8585262 1.3638811e-18)
(0.55349932 0.035006314 0)
(0.29217788 0.019860601 0)
(1.2185965 -0.0013401919 0)
(0.73918896 -0.035155007 0)
(0.65290622 0.016799786 -2.0412225e-18)
(0.64686076 -0.026515103 1.6185765e-18)
(-0.017479108 1.6632551 0)
(-0.01214936 1.4745059 0)
(-0.040874723 1.8734844 0)
(-0.023992293 1.7223007 0)
(-0.015370916 1.5551243 0)
(0.21670075 0.33674319 3.7538796e-19)
(0.29280467 0.28496475 0)
(0.50526689 0.018685497 0)
(0.23855195 0.013480977 0)
(0.95707365 -0.026448489 0)
(0.97892627 -0.0060374492 0)
(0.8788809 -0.012569116 0)
(1.2490844 0.058373509 0)
(0.95048308 0.029240071 0)
(0.79511821 0.034378622 2.1660072e-18)
(0.0025153783 2.8630199 9.2050775e-19)
(0.022107223 2.8984995 0)
(0.037735899 2.872262 0)
(0.016276897 2.7008006 0)
(-0.010354833 2.9858113 1.0695832e-18)
(-0.0090305818 2.89099 0)
(-0.011731918 2.9907714 -3.297052e-18)
(-0.009584455 2.9159021 1.1300912e-18)
(-0.053057952 2.157654 0)
(-0.045313292 2.1628766 0)
(0.0010622998 1.9280548 8.519549e-22)
(-0.0005332484 1.898084 0)
(-0.0026157761 1.7627781 0)
(0.72719268 0.054924911 0)
(0.50338911 0.034859215 0)
(0.34021688 -0.016753575 0)
(0.66990292 0.037544161 0)
(0.35350818 0.024290262 0)
(0.52713223 1.1042262 -2.3359005e-19)
(0.56040552 1.1403077 0)
(0.41767656 0.91094178 3.3333541e-20)
(0.32228919 0.69199719 0)
(1.3107369 1.4554888 -3.4878705e-19)
(1.3634498 1.3042925 6.8709151e-19)
(0.56312839 1.9176715 0)
(0.78272879 1.8809773 0)
(0.66778711 1.8609929 0)
(0.15286803 0.25965866 -3.3313737e-19)
(0.68079647 0.32758789 0)
(0.59984938 0.25929214 3.0271075e-19)
(1.4247381 1.2443312 0)
(1.5173681 1.023986 0)
(1.459717 1.087059 -5.5409945e-19)
(1.5997646 0.81221572 0)
(1.6168887 0.68568062 9.5722671e-20)
(0.62797331 0.047979557 0)
(0.57056614 0.038601292 0)
(0.28734069 0.027780258 0)
(0.52561009 0.0084265016 0)
(0.53992927 -0.0013754865 0)
(0.24686249 0.0066076019 0)
(1.4990899 -0.0023854855 0)
(1.869888 -0.0030918741 0)
(1.7318528 -0.00017169276 0)
(0.0467207 2.2631591 2.9310475e-19)
(0.053878626 1.9829274 0)
(0.040000392 2.3569081 4.2020212e-19)
(0.022538439 2.142699 -3.1414236e-19)
(0.16414908 1.7231719 -6.4005553e-19)
(0.079693146 1.567265 0)
(0.10279972 1.5520619 0)
(0.015055236 1.3484471 0)
(0.00056665603 1.1413523 0)
(-0.046838286 2.3549759 1.1411936e-21)
(-0.025235005 2.2116961 0)
(-0.047114356 2.2676686 6.9790981e-20)
(-0.028872153 2.0435351 -1.5257972e-19)
(-0.006950906 1.3256407 0)
(-0.018433514 1.3261987 0)
(-0.0098584347 1.1467342 0)
(-0.038574831 1.4690331 0)
(-0.024945535 1.3415806 0)
(0.98573464 0.053761273 0)
(0.8965665 0.036486615 0)
(0.91808478 0.056834376 0)
(0.7119795 0.036662534 0)
(0.51017339 -0.031800253 0)
(0.74947416 -0.046530596 0)
(0.80601248 -0.044992716 0)
(0.60132297 -0.028949338 0)
(0.0037451379 3.0719458 -9.905542e-21)
(0.010805719 3.0616594 0)
(0.01617376 2.9687992 0)
(0.013257671 2.8677023 0)
(0.7359364 4.2458858 0)
(1.2388038 3.309515 9.4233834e-19)
(0.07382771 3.1421856 0)
(0.030626512 2.9123051 0)
(-0.067860616 2.1434103 0)
(-0.074660365 2.1788049 0)
(-0.061256006 2.1604217 0)
(-0.033248183 2.2335743 3.9038627e-21)
(-0.062427305 2.2079032 0)
(-0.041351988 2.2036375 0)
(-0.012011227 1.8565803 -1.6744373e-20)
(-0.01425006 2.0157447 -7.8576258e-20)
(-0.0014204771 1.9715749 -5.3585985e-20)
(-0.0044212364 1.8111541 0)
(0.84477899 0.14359523 7.9510466e-19)
(0.73544239 0.095098489 -7.7916589e-19)
(0.30787257 1.7130854 0)
(0.21202499 0.95969053 -3.1971893e-19)
(0.2269842 1.8543752 -9.7905569e-19)
(0.13921569 1.4251335 9.8162837e-19)
(0.28694204 -0.011609639 0)
(0.5590272 -0.013515174 0)
(0.54630594 0.0055930963 0)
(0.27333497 -6.2955475e-05 0)
(-0.038146126 1.5445469 0)
(-0.026439713 1.6098217 0)
(-0.019617473 1.4145983 0)
(0.48867588 0.36168927 9.8413739e-19)
(0.38824114 0.34868115 -1.1845945e-18)
(0.3840358 0.29689962 0)
(1.4571369 0.12987373 3.1178889e-20)
(1.4435872 0.1288413 0)
(1.2852544 0.086994605 0)
(1.1126016 0.04373838 0)
(0.8690931 0.10265065 0)
(0.89443405 0.064603134 -3.4841595e-18)
(0.76107115 0.065197703 1.3228773e-18)
(0.0036334063 2.9867085 9.4161311e-19)
(-0.0030010349 2.8667484 4.7406817e-20)
(0.0038508132 3.0539013 -2.0823131e-20)
(0.012754361 3.0472872 7.4958478e-19)
(-0.0093834935 2.9952599 3.681293e-20)
(-0.0083884238 2.9361941 -1.4792989e-22)
(-0.013154755 3.020162 -6.9643188e-19)
(0.0012179995 3.0231607 5.0196928e-19)
(0.0066780317 3.0397905 -7.5012431e-19)
(0.85284173 0.057045549 0)
(0.79397144 0.056408304 0)
(0.60350859 0.03127615 0)
(0.57267906 -0.018682878 0)
(0.59901869 -0.022152823 0)
(0.31509769 -0.014694877 0)
(0.70069405 -0.054004496 0)
(0.64701002 -0.053111677 0)
(0.41821518 -0.032140199 0)
(0.71448257 1.3901393 6.041909e-20)
(0.78186076 1.4713872 0)
(0.16509276 0.35521039 7.3258047e-20)
(0.33742906 0.77618682 5.4549045e-19)
(0.35959296 0.80926256 -3.2385413e-19)
(0.22954616 0.48972127 6.2375775e-19)
(0.42534807 0.97559861 1.7265522e-18)
(0.17041196 0.34597082 4.0459682e-19)
(0.75469606 0.25820419 1.1347212e-18)
(0.72214544 0.2946799 2.8729842e-19)
(0.62671951 0.22650881 5.6993829e-19)
(1.6313911 0.60527102 2.4592299e-19)
(1.6297221 0.46797216 2.3373378e-19)
(0.022884009 2.4189077 1.3043603e-19)
(0.0047840559 2.2139762 0)
(1.1610793 0.064481027 0)
(1.0681408 0.060475298 0)
(1.0025217 0.038571548 0)
(0.010070469 3.0770318 0)
(0.017010506 2.9386589 1.4509943e-18)
(0.016555381 2.953679 0)
(0.013514872 2.8433206 -1.4484233e-18)
(0.0096345045 3.0917279 3.3025298e-19)
(0.0038638145 3.0887236 0)
(0.87247506 1.7612159 -1.4479986e-19)
(1.1379649 2.3733449 2.0554714e-19)
(0.85137045 1.8777418 -9.7054981e-19)
(0.015663128 3.0014714 -8.4463298e-19)
(0.037287928 3.0438898 0)
(0.013296144 2.8772494 0)
(-0.038542732 2.1749702 -8.5798533e-21)
(-0.025760337 2.0977015 2.0124456e-19)
(-0.0094339452 1.9483635 -1.3126816e-20)
(0.34860662 1.5492185 1.0030462e-18)
(0.21726203 0.77452669 -6.902354e-19)
(0.09169851 2.1720358 6.434301e-19)
(0.16811894 2.0328154 -8.1738869e-19)
(0.084301959 1.715612 1.2272439e-19)
(0.014871347 3.1138879 -2.1690855e-18)
(0.017321694 3.1196196 2.4554033e-18)
(-0.0084130357 2.9804978 1.0133644e-18)
(-0.0048178852 2.9779598 -9.8460385e-19)
(-0.007401586 2.8768301 -1.0322909e-18)
(0.0049277004 3.1054558 -2.5633834e-18)
(0.0098472222 3.104636 2.5446625e-18)
(0.38374305 0.8448754 0)
(0.33650801 0.78361028 -1.2573962e-18)
(0.13677203 0.2827271 5.6180926e-19)
(0.41966926 1.0973314 1.1515186e-18)
(0.19543014 0.44185034 -1.7861437e-18)
(1.6039353 0.23662175 5.3291213e-20)
(1.6316128 0.39261995 0)
(1.5891398 0.26466579 4.1668396e-20)
(-0.027965421 2.4093585 3.141245e-22)
(-0.003959656 2.4321174 0)
(-0.016579549 2.2408311 0)
(0.39812137 1.4134787 -3.5897701e-19)
(0.42918316 1.2689719 -8.1103859e-19)
(0.20530302 0.58540881 1.4471682e-18)
(1.1990741 0.0052348608 0)
(1.3343128 0.0018156721 3.218003e-19)
(-0.06514361 2.1176565 0)
(-0.064949285 2.1258255 0)
(1.5138818 -0.0031888697 8.4440453e-22)
(1.1066056 0.015772932 7.1001925e-19)
(-0.036822797 2.2541743 -5.0972526e-21)
(-0.018276333 2.2701099 0)
(0.06638324 3.1844151 6.4092339e-19)
(0.54540913 3.5636841 0)
(1.482927 0.88959914 -4.6417081e-20)
(1.2932383 -0.0023417652 2.4857358e-20)
(1.3693193 0.035538593 0)
(1.998291 0.0051382187 6.13297e-21)
(0.12870354 1.8785981 0)
(0.11930249 2.7342068 0)
(-0.042050877 1.6539147 0)
(-0.08382818 2.8653821 -1.1807722e-19)
(-0.17531883 2.7315431 -5.4069875e-20)
(1.2584923 -0.064477166 1.2240426e-20)
(1.331803 0.080336994 0)
(1.3577233 0.12001142 0)
(-0.093569227 2.1770167 0)
(-0.050615221 2.3839211 0)
(-0.097995039 1.9924643 0)
(0.34019626 1.9887117 -4.3268305e-19)
(1.2988017 0.010880979 0)
(1.1075134 0.010584052 0)
(1.9689535 0.007827707 4.2443387e-19)
(1.6541599 0.016563167 -4.814722e-19)
(1.9055844 0.009312045 0)
(-0.10168905 2.1494436 0)
(-0.083774562 2.1150282 0)
(-0.079623385 2.1400757 0)
(-0.094002195 2.0059968 0)
(-0.06210961 2.0516644 0)
(-0.061858187 2.0336169 0)
(1.3573043 0.069404084 0)
(1.3101255 -0.053948808 2.1938637e-20)
(1.026452 1.7122871 5.9170692e-19)
(1.9560173 -0.0015292313 -4.3241299e-19)
(1.7076291 -0.0074853619 5.0996374e-19)
(1.8973096 -0.0083284515 0)
(1.3184331 -0.0063902951 4.1059457e-19)
(1.1920026 -0.00079695715 -5.2880303e-19)
(0.9415621 0.019219509 0)
(-0.053417013 2.3740503 0)
(-0.037230456 2.3092514 -9.6200448e-21)
(-0.024645283 2.3286379 9.4659706e-21)
(1.5416921 0.38312245 7.0893861e-19)
(1.4515028 0.19404343 0)
(0.08827108 3.0555358 -1.2771347e-18)
(0.048768846 2.8403042 -9.1854066e-20)
(0.18746146 3.1872401 1.936647e-18)
(0.17014178 3.2500666 -2.7099405e-19)
(0.16819749 3.2978249 0)
(0.033749424 3.1361876 3.5421806e-19)
(0.08943303 3.1756957 1.254443e-18)
(0.085938171 3.204472 -6.6208141e-19)
(0.054250487 3.1081075 0)
(0.88345918 0.44949027 0)
(0.76354118 0.52189751 0)
(1.4265207 0.94156932 6.4926732e-20)
(1.4299832 1.1321653 1.4619227e-20)
(1.5010356 0.75546443 0)
(1.546711 0.73386226 0)
(1.2841564 0.00013604935 -8.4993409e-19)
(1.1346737 -0.0040205959 1.1032627e-18)
(1.3682506 0.036731839 0)
(1.2397103 0.048416898 0)
(2.0002849 0.0073183581 0)
(1.8737944 -0.0062079678 0)
(1.9367651 0.0028159153 0)
(1.7305077 -0.017749949 0)
(1.6682922 -0.0084389124 0)
(1.7993759 -0.0071164898 0)
(0.11900566 1.867897 0)
(0.091471573 1.847638 0)
(0.14733747 1.9098506 0)
(0.1537162 1.9381289 0)
(0.13603535 2.7656985 0)
(0.17964559 2.8515844 -3.6946223e-19)
(0.10265891 2.8289209 0)
(0.089801933 2.8532773 1.069037e-19)
(0.024581359 2.8749766 2.1226124e-20)
(-0.0533752 1.6629276 0)
(-0.068374172 1.6551321 0)
(-0.0025706641 1.6713989 0)
(-0.010652552 1.671112 0)
(-0.055017578 2.3784491 2.1722714e-19)
(-0.17030459 2.7982984 -1.688169e-19)
(-0.10667296 2.8998292 -1.8230207e-19)
(-0.12257167 2.8711914 0)
(-0.1752649 2.7315609 1.524573e-19)
(-0.13558877 2.6880358 1.4160036e-19)
(-0.10307248 2.4130675 -1.6610889e-19)
(-0.19285105 2.679959 2.2122893e-19)
(-0.1470218 2.708971 2.3136408e-19)
(1.2734473 -0.057197142 1.3507568e-18)
(1.142335 -0.069735797 -1.6542492e-18)
(1.2468483 -0.059415202 -1.4360785e-18)
(1.1638632 -0.060922255 1.901796e-18)
(1.3419558 0.068241898 0)
(1.2663133 0.08449562 0)
(1.3599617 0.10731248 0)
(1.3355889 0.082243213 0)
(1.2322145 0.082510791 0)
(1.434948 0.17921885 0)
(1.3678013 0.13122989 0)
(1.3170805 0.11907873 0)
(-0.077428251 2.2453119 -6.6603736e-23)
(-0.1036666 2.2055447 0)
(-0.075086252 2.2156615 0)
(-0.077909724 2.4446185 -1.6033925e-20)
(-0.046173482 2.4755839 1.2975682e-21)
(-0.15926435 2.1645873 -2.5187191e-21)
(-0.12524223 2.1415194 2.5289872e-21)
(-0.14422413 2.0594848 0)
(-0.11680394 2.0946254 0)
(-0.11167638 2.1098706 0)
(-0.13141492 1.9461772 0)
(-0.08263947 1.8827102 0)
(0.47951208 1.9944795 7.9405727e-19)
(0.4980287 2.023284 3.4467142e-19)
(0.59502072 2.6451639 -2.2987807e-19)
(0.38111242 2.7726935 5.6222922e-19)
(0.39949559 2.245728 2.6005308e-20)
(1.3926462 0.029866161 0)
(1.3322202 0.024785782 0)
(1.1613703 0.0216719 0)
(1.9770771 0.01179687 0)
(1.9588765 0.0084153423 0)
(1.7208447 0.016452753 0)
(1.6218618 0.017045375 0)
(1.6392008 0.024544716 0)
(1.3388096 -0.045750098 9.577456e-19)
(1.1085686 -0.035155577 -1.1550236e-18)
(1.2895601 -0.049490403 -1.0741159e-18)
(1.1903821 -0.059812905 1.4400834e-18)
(0.98114854 1.7315094 0)
(0.86995142 1.8837248 6.2531756e-19)
(1.1242188 1.5916144 2.9597106e-19)
(1.1809188 1.5944588 -3.9417385e-19)
(1.2791569 2.7210377 3.5563035e-19)
(1.0884811 0.15666628 8.3401648e-19)
(1.4548319 0.20928329 0)
(1.5124838 0.28869489 -5.5153322e-19)
(1.4930525 0.25856613 -2.2252266e-20)
(1.3787039 0.1272995 0)
(0.23714955 2.9373413 7.6476327e-19)
(0.12235602 2.8237263 -1.8510757e-18)
(0.055235839 2.3646749 1.1855956e-18)
(0.085929023 0.10740547 -6.0053142e-19)
(0.3765652 3.4761759 -9.6778648e-20)
(0.24189683 3.3786884 0)
(0.2547038 3.4452396 1.3646429e-19)
(0.28003896 3.093737 -1.9594575e-18)
(0.41360173 3.1814113 0)
(0.015015963 3.1190688 6.5724437e-20)
(0.018308884 3.1325535 -7.1125144e-19)
(0.033511398 3.1174726 1.1054455e-18)
(0.041011146 3.1489356 0)
(0.039258468 3.1582383 0)
(1.3644739 2.8173809 0)
(0.72934668 1.0855 -6.8443991e-19)
(1.3462023 1.3606235 -9.5867501e-20)
(1.2561327 1.4107446 0)
(1.0880383 1.2799326 -8.9120029e-20)
(1.3700821 1.1879866 4.621883e-20)
(0.46842864 0.54485223 -1.4033564e-18)
(0.95000199 0.44358748 -4.09833e-20)
(0.91267523 0.38309429 6.139766e-19)
(0.77691933 0.56701912 4.5412501e-20)
(0.67429898 0.52163488 -1.8807533e-18)
(0.90141359 0.49057513 0)
(0.93259911 0.5852677 9.9957386e-19)
(0.95432459 0.55338437 0)
(0.83502315 0.53241215 0)
(0.80975973 0.46643892 0)
(1.0405213 0.81785638 5.468701e-19)
(1.5306259 0.3967069 -5.9669158e-19)
(1.547691 0.56646678 0)
(1.5675877 0.53174963 0)
(1.0151888 0.30687307 9.1715001e-19)
(1.0613239 0.72190838 -5.5413647e-19)
(0.99434646 0.69642603 9.74457e-19)
(1.2284633 0.53173598 -9.9788879e-19)
(1.2813479 -0.031511044 6.0465441e-19)
(1.2570142 -0.014684543 -5.9554062e-19)
(1.0723962 -0.024032526 0)
(1.3822089 0.061989608 0)
(1.3539143 0.052784651 -5.9735631e-19)
(1.187281 0.059634054 5.9122636e-19)
(1.787172 -0.015148782 0)
(1.6749423 -0.036402164 0)
(1.9049116 -0.009264513 0)
(1.6704602 -0.01810574 0)
(1.9386865 0.0035520184 0)
(1.928547 0.0022819684 0)
(0.084210513 1.8359074 0)
(0.051663321 1.7916859 0)
(0.1655991 1.8247503 1.9867361e-19)
(0.31553325 1.9789052 2.3635722e-19)
(0.19243284 1.9729177 5.3159492e-19)
(0.21399489 1.9935775 -8.5272267e-19)
(0.19912903 1.8637782 0)
(0.14528571 1.9525024 8.7077284e-20)
(0.13862121 1.9440146 0)
(0.36554396 2.2019795 -3.6041726e-20)
(0.3555278 2.5059911 4.5152531e-19)
(0.20435796 1.8962188 -7.8059278e-20)
(0.30605152 1.8462314 1.4636436e-19)
(0.2390871 1.8322553 -1.1918307e-19)
(0.33282645 1.7600709 1.2448351e-19)
(0.24838649 1.9318319 0)
(0.3022197 1.9496117 -5.1543719e-20)
(0.0848788 2.4717878 3.2509181e-20)
(0.040675715 2.8702807 0)
(0.082866036 2.562081 -3.403746e-21)
(0.076420379 2.576944 0)
(0.070010682 2.8663589 -1.196796e-19)
(0.050941156 2.9162275 0)
(-0.016238603 1.8040305 2.2803501e-19)
(0.028695177 1.9280027 0)
(0.067476227 1.7426359 0)
(0.022628519 1.6973657 -2.5934247e-19)
(-0.059379082 2.8919201 -6.8699742e-21)
(-0.0040533152 2.904722 -4.6045963e-20)
(-0.037811846 2.9423287 -2.5873284e-22)
(-0.24585949 2.324737 -1.0926491e-19)
(-0.17606812 2.1948867 -9.3946217e-20)
(-0.081929998 1.6980476 0)
(-0.079456269 1.6931056 0)
(0.12523491 2.028492 -2.8131003e-19)
(0.10514404 1.8338333 -3.1264164e-19)
(0.09806577 1.9325027 3.8468912e-19)
(0.14359638 2.0062603 0)
(-0.17807857 2.3212798 5.1758756e-20)
(-0.15561601 2.4202629 -2.1438969e-20)
(-0.18559529 2.4407809 7.931445e-21)
(-0.27051168 2.282256 1.2921e-19)
(-0.22208629 2.5729057 3.1009774e-20)
(-0.22489408 2.6005586 -1.3118966e-19)
(1.247036 -0.061900546 -7.9211417e-19)
(1.2609782 -0.06358206 8.6426321e-19)
(1.1162429 -0.073405295 0)
(1.4207691 -0.0014308754 1.4198646e-18)
(1.2241158 -0.05090593 -1.5889441e-18)
(1.1781734 -0.049937396 1.8095011e-18)
(1.428949 0.030074968 -1.9461033e-19)
(1.3525371 0.06878993 0)
(1.3459125 0.069754518 6.9185601e-19)
(1.2735597 0.079890446 -6.8524435e-19)
(1.5108617 0.099267346 -4.5185148e-20)
(1.5142181 0.076544306 3.8231295e-19)
(1.6256524 0.091089201 0)
(1.7136551 0.071809746 -1.4921912e-19)
(1.6447706 -0.0054088717 0)
(1.5209372 -0.022832511 0)
(1.8040354 -0.017363855 0)
(1.614622 -0.040635079 0)
(1.7666803 0.013302023 2.8801264e-19)
(1.7671177 -0.0026959195 -5.9157451e-19)
(1.7048906 0.062767741 -2.9791418e-19)
(1.7181716 0.064123174 -3.3962457e-19)
(1.628531 0.11260641 7.1421329e-19)
(1.5004986 0.13697481 0)
(1.5039327 0.19129267 0)
(-0.15909333 2.2996587 2.5890868e-20)
(-0.12539778 2.2258848 7.2311478e-23)
(-0.15004941 2.2356061 0)
(-0.10664846 2.326957 -2.6798186e-20)
(-0.090100431 2.2605035 -6.8020751e-24)
(-0.087113822 2.2903306 3.6150588e-22)
(-0.13035842 2.6577616 -1.3424925e-19)
(-0.16418028 2.5221185 2.8678191e-21)
(-0.19525252 2.5668993 -2.5359521e-20)
(-0.085419104 2.5512914 4.5830128e-20)
(-0.0800076 2.5799308 -5.2312035e-20)
(-0.1963901 2.0958334 3.6392873e-21)
(-0.19002654 2.1617474 -1.8587465e-20)
(0.4810167 1.8835304 -3.7587293e-19)
(0.4392741 1.7939447 -1.8461234e-19)
(0.83814178 1.8981139 -6.0651387e-19)
(0.66616044 1.9862003 -3.3283095e-19)
(0.69099447 1.9911766 0)
(0.6462645 2.6080036 1.9819336e-19)
(0.70332903 2.6240925 3.3449831e-19)
(0.4484534 2.705274 1.1258728e-19)
(0.45642676 2.7078943 -4.2779216e-19)
(0.54349108 2.6384432 4.9275626e-19)
(0.55578802 2.6621998 0)
(0.48640413 2.7200116 -5.2082962e-19)
(0.22208608 2.7815318 9.6433283e-19)
(0.33241347 2.7749607 -4.6748749e-20)
(0.27036061 2.8589199 -1.3519464e-18)
(1.0284894 2.5544181 7.4740332e-19)
(0.89812794 2.5675616 0)
(1.9478491 0.017511951 1.7038593e-20)
(1.6464435 0.026465162 -1.4572816e-20)
(1.6621501 0.027602034 -2.6097709e-19)
(1.8622155 0.027138172 2.6167194e-19)
(1.9783322 0.020648768 0)
(0.87188873 1.6709484 0)
(0.83633039 1.5490348 0)
(1.0055749 1.455876 0)
(0.86210885 1.472275 0)
(1.2858742 2.755609 -1.8874975e-22)
(1.1961979 2.5833562 0)
(0.93934608 2.285907 2.9299111e-21)
(0.88203868 2.5462065 0)
(0.99924721 2.620653 -2.8092701e-19)
(1.0276508 2.6080236 1.9200985e-19)
(1.1212406 0.19042208 0)
(1.0697743 0.21759197 2.3196023e-19)
(1.220827 0.13831462 1.2857896e-18)
(1.1353091 0.13177906 -4.8487468e-19)
(1.0864168 0.094369257 -1.5112141e-18)
(1.4161882 0.31100708 -1.1202343e-18)
(1.2970219 0.38629257 -2.6380557e-20)
(1.2149212 0.35163796 1.2034987e-18)
(1.3271954 0.28608055 9.9681282e-19)
(1.2750242 0.17336214 -1.7067302e-18)
(1.2377664 0.20251344 2.1502404e-19)
(1.2705211 0.28261967 -4.5781429e-19)
(1.2492924 0.2619085 0)
(1.3553318 0.18022682 8.3978193e-19)
(1.4007629 0.23017479 0)
(1.3809864 0.27588348 0)
(1.4705134 0.21766368 3.5708086e-19)
(1.4618177 0.23997619 -2.5005957e-20)
(1.4289692 0.31604809 -1.9946164e-19)
(1.4650802 0.29694767 0)
(1.4902343 -0.031218142 7.1652429e-19)
(1.6837663 0.039009918 8.7965808e-19)
(1.6624581 0.006969899 -6.819656e-19)
(1.6259823 0.042441895 -6.0121609e-19)
(1.4754488 0.0020028727 -1.0208944e-18)
(1.3351174 0.083458366 0)
(1.3475841 0.028232989 0)
(1.2107983 -0.018980471 -6.5931828e-19)
(1.1691157 0.012199754 2.6599728e-19)
(1.5196418 0.075735983 9.0017112e-19)
(1.5216395 0.18246216 -1.0450874e-18)
(1.4926094 0.18947159 9.4724485e-19)
(1.4736464 0.1463799 0)
(1.5540324 0.15454705 0)
(1.6096626 0.11625469 -4.0603215e-19)
(1.602774 0.08829546 -7.3315874e-19)
(0.73386613 1.4847583 9.9251672e-20)
(0.82252714 1.8379076 -1.2488622e-19)
(1.1871232 2.7892894 -1.1186254e-19)
(1.3059365 3.1412294 1.0763312e-20)
(1.3496314 2.835378 -2.2224973e-19)
(1.4054232 2.9043517 -7.4222504e-20)
(1.2777051 2.5806921 2.7395771e-20)
(1.3383478 3.0657641 -3.4645222e-20)
(1.3453227 3.0831063 1.2814032e-19)
(1.3252826 3.3500578 -1.4187243e-19)
(1.4434806 3.1179921 1.4638371e-19)
(1.461667 3.0468621 0)
(0.73606431 1.1551487 -5.6264135e-20)
(0.27708137 1.3821097 7.5171678e-19)
(0.64049504 0.74581692 9.3175063e-19)
(0.41034883 0.3417261 1.0806996e-18)
(0.68738365 0.56905094 1.0523085e-18)
(0.72811577 0.65979556 -1.7246578e-18)
(0.70853083 0.6805111 1.3973317e-18)
(0.62687597 0.59688843 -5.4877618e-19)
(0.55733948 0.49805227 1.2466644e-18)
(1.0386292 0.34847373 -5.1477142e-19)
(0.98227563 0.38861251 0)
(0.95536414 0.34871347 1.85406e-20)
(0.94143579 0.70288608 5.3392291e-19)
(0.9138177 0.66458341 -1.9419243e-18)
(0.77996117 0.67538711 3.106213e-20)
(0.81922601 0.63894859 0)
(0.8464041 1.0197439 5.3462092e-19)
(1.0612972 1.0217931 4.3127577e-19)
(0.98626904 1.1492871 -5.0038074e-19)
(1.1153919 1.0452133 -1.8328289e-19)
(1.2246626 1.1158926 -3.2297734e-20)
(1.1898151 1.1164012 3.2602627e-20)
(1.1092283 0.83548163 -9.1756944e-19)
(1.1615969 0.93937538 1.7194298e-19)
(1.2688069 0.94207845 0)
(1.2918676 0.89430872 -2.4049965e-19)
(1.3194653 0.41484641 2.9112755e-19)
(1.4633511 0.40647876 3.5738829e-19)
(1.3964526 0.36894086 4.6951613e-19)
(1.2906537 0.4864105 -5.9417041e-19)
(1.3663445 0.53859537 0)
(1.4153611 0.52826063 0)
(1.1851521 0.48256722 1.2375428e-20)
(1.1270738 0.38721844 0)
(1.1598752 0.36270282 5.9348627e-19)
(1.1956057 0.36918653 -2.1196144e-20)
(1.2120337 0.56953564 2.615671e-18)
(1.1377379 0.65857372 7.2171153e-19)
(1.1383054 0.59677946 -8.1227686e-19)
(1.0820715 0.58526734 8.7548919e-19)
(1.0430431 0.59495109 5.3374475e-19)
(1.0000518 0.55941843 -5.2295698e-19)
(1.620708 0.04117422 4.8369202e-19)
(1.9229603 0.023982726 0)
(1.886784 0.032923149 3.2130407e-19)
(1.645124 0.039591343 -7.2609687e-19)
(1.8963684 0.0053467111 3.6226696e-19)
(1.8518912 -0.018333466 -7.6281803e-19)
(1.668668 -0.032802318 0)
(1.5640554 -0.026754126 -1.5107758e-19)
(1.8289862 -0.013256099 3.7577567e-19)
(1.662143 -0.016292356 -1.9164166e-19)
(1.5942479 -0.018960449 1.4263769e-19)
(0.021647596 1.7173537 0)
(0.070991861 1.7189808 0)
(0.049711852 1.7756939 0)
(0.011439115 1.7328784 0)
(0.12956371 1.8387536 -4.1154534e-19)
(0.12202817 1.8245013 1.3499299e-19)
(0.13697014 1.8922146 6.8644321e-20)
(0.13468285 1.8150556 -1.1190627e-19)
(0.13006373 1.8512425 2.8657296e-19)
(0.13634623 1.8671552 -2.1862271e-19)
(0.12913793 1.8139876 -2.4132719e-20)
(0.11365442 1.8153058 2.8854506e-19)
(0.094107894 1.7591689 4.2379438e-20)
(0.093709458 1.7577222 3.6326781e-20)
(0.10139996 2.4836003 4.3043517e-21)
(0.094202201 2.5244868 0)
(0.14555958 2.2370561 3.3627988e-20)
(0.14014638 2.0360734 -2.0386259e-20)
(0.24938383 2.2190718 -3.610247e-20)
(0.22265358 2.5961872 0)
(0.26695529 2.585618 -4.0460368e-19)
(0.31721599 2.4881852 2.9085845e-19)
(0.20845691 2.1784669 -7.6162578e-20)
(0.16201814 2.3345223 7.8141747e-20)
(0.15446464 2.4728717 0)
(0.083435149 2.2804363 2.6439603e-19)
(-0.013026086 2.6717583 2.4659889e-19)
(0.012211932 2.4783118 0)
(0.03526439 2.6882845 -1.8805132e-20)
(0.073279286 2.5218261 -1.0751465e-19)
(-0.10053351 1.7579509 -3.4547106e-20)
(-0.11448448 1.7635971 5.3354224e-19)
(-0.15735579 1.8210234 -1.2288022e-19)
(-0.15262993 1.8491496 -2.1861669e-19)
(-0.071922113 1.8134627 0)
(-0.17648042 1.8031123 0)
(-0.11687507 1.8468407 -7.5589481e-20)
(-0.17851993 1.8546726 2.3823224e-20)
(-0.17369679 1.8154061 0)
(-0.11175323 1.7551793 -6.5523851e-20)
(-0.091133239 1.7896616 1.2253733e-19)
(1.5421103 0.040567816 0)
(1.5267997 0.039274378 -6.392906e-20)
(1.8415132 0.022806281 -4.9361388e-19)
(1.6881976 0.041348975 0)
(1.5140335 0.039155101 0)
(1.8247042 0.015240506 1.7635207e-20)
(1.8358499 0.014532582 6.9095312e-19)
(1.7126224 -0.020319877 9.1750114e-19)
(1.6012757 -0.037245065 0)
(1.5210289 -0.035296425 0)
(1.6876997 -0.0087659659 4.921959e-19)
(1.5390441 -0.024025256 0)
(1.508483 -0.040230048 0)
(-0.24243243 2.3057625 0)
(-0.22240601 2.1832773 -6.0313051e-21)
(-0.22551919 2.2574961 -9.6809357e-21)
(-0.19866685 1.9249519 0)
(-0.25255597 2.121052 -3.2531368e-20)
(-0.22194786 2.0590222 -5.1366547e-22)
(-0.19698483 1.9666983 0)
(0.49329831 1.8982045 0)
(0.43964503 1.6784582 2.8256805e-19)
(0.40120626 1.6996153 0)
(0.53032331 1.7192297 -4.5338109e-19)
(0.62921011 1.9006751 0)
(0.56373667 1.8390148 2.4231469e-19)
(1.116644 2.8111408 -1.4580509e-20)
(1.048918 2.5739152 -8.6125645e-19)
(1.0444897 2.4667469 9.5551659e-19)
(0.92525549 2.5545035 2.6345928e-19)
(0.91496018 2.6130932 0)
(0.97950787 2.5944724 0)
(1.0032257 2.5584855 0)
(0.98358202 2.5549935 -9.5281081e-19)
(0.73703333 2.5546331 -3.15347e-19)
(0.86332032 2.5828117 -7.9434997e-20)
(0.86298922 2.5352606 6.3559854e-20)
(0.75276229 2.5872022 0)
(0.85420919 2.5793557 0)
(0.80953137 2.5986246 -3.6114413e-19)
(0.80921668 2.6048554 0)
(0.80768387 1.4317123 0)
(0.69922552 1.2654368 -4.840332e-19)
(0.76384852 1.2676281 -3.0275518e-20)
(0.73778609 1.3793701 0)
(0.729778 1.3544352 7.4136933e-19)
(1.0052867 1.1900966 -1.2066399e-19)
(1.017406 1.32617 0)
(1.0222524 1.2503636 1.6298398e-19)
(0.84118633 1.3886694 0)
(0.86381296 1.2665844 0)
(1.2551057 2.8315739 -1.9894865e-19)
(1.2150073 2.8692617 -1.3251704e-19)
(1.0054037 2.3786103 2.167914e-19)
(1.0044983 2.4091586 -8.240552e-20)
(1.2241298 2.820724 0)
(1.1808663 2.7758512 1.0525085e-19)
(1.2091927 2.6557436 -2.3796642e-19)
(1.1197919 2.4989904 -2.9814346e-20)
(0.67615421 1.6848162 0)
(0.68143391 1.469216 -8.7369103e-20)
(0.71988426 1.5257846 0)
(1.1584764 0.28154466 0)
(1.0905744 0.24206422 0)
(1.019066 0.25266747 0)
(1.1424169 0.31402809 -9.2016951e-19)
(1.0631242 0.29158659 5.4264857e-19)
(1.1821255 0.022840424 -5.2351767e-19)
(1.2335583 0.076011534 0)
(1.2153578 0.10006441 2.3480991e-19)
(1.1406533 0.070566596 9.5766201e-19)
(1.1069367 0.044696591 -6.0567606e-19)
(1.3351312 3.475175 -4.0288821e-19)
(1.3164329 3.4063683 0)
(1.3563517 3.4294344 -8.8320004e-19)
(0.53952075 3.5290755 8.4713451e-19)
(0.78820626 3.0590582 -2.0327452e-19)
(0.64346408 1.1767709 7.277834e-19)
(0.61807906 1.1940625 0)
(0.55387745 0.76275837 -2.2649502e-19)
(0.64553211 1.0104568 1.1317407e-18)
(0.66134966 0.71858581 -3.1570367e-19)
(0.65292188 0.7507122 3.5197423e-19)
(0.82924254 0.72869217 7.3579045e-19)
(0.90389047 0.75370904 0)
(0.83185135 0.85439652 0)
(0.76787268 0.80743462 0)
(1.2640449 0.77584952 7.8721361e-20)
(1.1614185 0.70981381 -6.8802816e-19)
(1.1732795 0.75593218 5.1473536e-19)
(1.2181322 0.67186027 -5.2930784e-19)
(1.3638844 0.6593402 0)
(1.3809796 0.7236942 -1.1976063e-19)
(1.0996178 0.52927786 -1.2075731e-18)
(1.1226312 0.51201013 -1.4392353e-18)
(1.0552646 0.51554251 9.4213706e-19)
(1.0470183 0.48667753 -9.7825329e-19)
(1.1223652 0.42886264 -7.5193881e-19)
(1.0572675 0.42485193 9.3337939e-19)
(1.8734244 0.009872348 -4.1253408e-19)
(1.8957258 0.011528484 8.3742852e-19)
(1.6144435 0.041284036 5.1828861e-19)
(1.6231793 0.04415363 -6.1708653e-19)
(1.7062901 0.037369684 0)
(1.8774272 0.026917617 -1.1136877e-18)
(0.13716487 2.0402449 -2.5917183e-20)
(0.13756396 1.9860996 0)
(0.14119374 2.0263497 -1.0526648e-19)
(0.13442801 2.0172332 9.3889997e-20)
(0.13489507 1.9278072 -1.2161212e-19)
(0.14767702 1.9101455 0)
(-0.28215538 2.2369252 0)
(-0.26239914 2.0105888 2.7106747e-20)
(-0.25313869 2.0145659 -2.4535234e-20)
(-0.26755452 2.134006 -6.728834e-21)
(-0.25765691 2.3010818 3.3640675e-20)
(-0.26330515 2.3291225 -2.5057109e-20)
(0.65283872 1.683252 -8.484894e-20)
(0.61610122 1.7185314 9.2965476e-20)
(0.56834497 1.6938494 2.2712925e-19)
(0.57138509 1.6508316 -1.9011344e-21)
(0.8097195 1.7065571 0)
(0.69123639 1.8124106 4.1665844e-19)
(0.7629173 1.8254604 -4.0461957e-19)
(0.59890461 1.7116834 -2.253075e-19)
(0.67128449 1.6417107 0)
(0.71932169 1.6124972 0)
(0.71479711 2.5236676 4.6171316e-19)
(0.71784907 2.5934805 1.0685237e-18)
(0.76390156 2.593601 -7.6793956e-19)
(0.63577932 2.6003967 -1.7346344e-19)
(0.62041872 2.6583548 2.5317325e-19)
(0.57439161 2.6279192 -6.5037255e-19)
(1.0934115 2.5568542 -5.1366479e-19)
(1.1370859 2.581298 0)