/*--------------------------------*- C++ -*----------------------------------*\
  =========                 |
  \\      /  F ield         | OpenFOAM: The Open Source CFD Toolbox
   \\    /   O peration     | Website:  https://openfoam.org
    \\  /    A nd           | Version:  9
     \\/     M anipulation  |
\*---------------------------------------------------------------------------*/
FoamFile
{
    format      ascii;
    class       volScalarField;
    location    "10";
    object      p;
}
// * * * * * * * * * * * * * * * * * * * * * * * * * * * * * * * * * * * * * //

dimensions      [0 2 -2 0 0 0 0];

internalField   nonuniform List<scalar> 
918
(
0.39146744
1.630456
0.012491526
0.3512416
0.00047861297
1.6010841
-1.1461841
1.1408988
0.42500543
-0.18933921
0.013877851
0.74004732
1.4725244
1.2341459
-0.95261994
0.019141531
1.0441198
-0.9630246
0.39436543
0.0071153051
1.3049111
0.35880285
0.3928786
0.35785887
0.85646759
1.2412253
1.3350208
-0.00037526417
0.0009559003
-0.0024860906
0.0033406995
-0.0092457486
0.0037526616
1.4773599
1.5313795
1.5550844
0.64590545
0.35395665
-0.89988554
-1.0461385
-0.95159429
-1.2141829
1.1129228
1.1177835
-0.51993572
1.1400403
1.1675986
0.48657319
0.42262931
0.42820984
0.35811912
0.39981769
0.41109361
0.40976996
-0.21513415
-0.29966008
-0.12565335
-0.094681919
0.10647913
0.0097205637
0.0071816724
0.021844859
0.030591805
0.62786447
0.73258456
0.72858627
0.74949128
0.76597177
1.5675532
1.530982
1.5579729
1.5048044
1.4951094
1.4524146
1.415583
1.2721008
1.2790581
1.2327436
1.1981455
-1.4993272
-2.5647753
-0.35926172
-0.039452923
0.0022390053
0.028591648
0.034798742
1.0129201
1.0253914
1.0329947
1.0587607
1.14653
-0.88130024
-1.1723316
0.40151317
0.40210811
0.39542363
0.37519573
0.42258252
0.4666351
0.014785019
0.023245392
-0.015835623
0.0088412681
0.0069573475
1.2642432
1.2480449
0.37600521
0.40080671
0.77942524
0.81980911
0.79745232
0.35011785
0.88051186
0.92549927
0.99188679
1.2094346
1.2332641
1.2069364
1.3209428
1.275852
1.3818331
1.4075065
0.016386571
0.0041493421
0.018417404
0.0066259387
0.017252291
0.65622657
0.6749615
0.66486478
0.61645768
0.6182656
0.28881977
0.13675009
0.4562692
0.47451991
-0.7383344
-0.84878774
-1.0075244
-1.0225376
-1.2363791
0.69425072
1.089619
1.0962228
-0.55439081
-0.39482536
-0.6624893
-0.30652823
-0.414392
0.56251262
0.49438602
0.56819645
0.39539851
0.44064305
0.43007816
0.39321107
0.40009597
0.41214065
0.45466697
0.55276844
0.34970241
0.31322029
-0.57157179
-0.34005555
-0.58434781
-0.065994408
-0.046561994
0.12072283
0.14181073
0.099704829
0.09267795
-0.02824301
-0.0049438216
-0.012718699
0.026486811
0.031917136
0.61768304
0.60168763
0.64042678
0.65151562
0.71640713
0.71999921
0.72355133
0.72140523
1.341513
1.3652143
1.4099331
1.3729205
-3.9884603
-6.7214205
0.30281995
0.49385812
0.0028952956
0.0029826663
0.0028936404
0.0019713873
0.0042338631
0.0005731389
0.057110459
0.051314174
0.040015083
0.045635884
0.99142088
0.99828661
1.1060295
1.2247889
0.99779194
1.0028833
0.56530827
0.49043891
0.4282885
0.48775821
0.027810624
0.022694965
0.030385017
1.170786
1.2128654
1.2046615
0.26226707
0.12052279
0.43162735
0.48213323
0.96799943
0.94086371
0.97298739
1.0704028
1.1081175
1.3972134
1.4092538
1.4469533
1.44379
1.4921125
1.4844745
1.4428946
0.65867671
0.67156525
0.66672342
0.56837877
0.63062161
0.62007158
0.71130635
0.68032204
0.70822045
-0.039598122
-0.3882136
0.47841287
0.51455587
0.52748785
0.50633444
0.77035241
0.94484107
1.0493289
1.0682194
1.0780468
-0.17067078
-0.27386139
0.26578431
0.23844917
0.52618973
0.5815452
0.55273139
1.315727
1.3164472
1.3625312
1.3249301
1.2662337
1.2887409
-0.41818542
-1.6086527
-0.98068239
0.9205991
0.68755861
0.79888729
0.079639736
0.065588116
0.065704126
1.1602451
1.2548577
0.61431413
0.83164766
0.80683671
1.1626008
1.1867561
1.2560897
1.1787422
1.2070274
1.2346299
1.2179595
0.57840831
0.48941802
0.49574327
0.96487483
1.0904122
0.054689277
-0.044144227
-0.11888554
0.15489488
0.201715
0.1775171
1.1757897
1.090807
1.2382539
0.37862069
0.3755363
0.010275723
0.018335087
0.41856775
0.38356531
0.0059364604
0.0098199907
0.76649846
-0.7086486
0.10567067
0.44694518
0.55334826
0.42230499
-0.16585554
0.43365659
0.026045545
0.11564024
0.073212574
0.72929496
0.64373203
0.59128249
0.0084729507
0.025212212
0.021865166
-0.48617988
0.41450011
0.4000248
0.41657865
0.39933566
0.42719835
0.010048643
0.0080141884
0.0061626855
0.020832952
0.0086183957
0.015376604
0.66717213
0.6884604
-0.44883885
0.42447756
0.3988468
0.41762231
0.38221233
0.41236377
0.36408486
0.021188252
0.014310051
0.017393875
0.31787061
0.49747427
1.101823
1.3142785
1.0788532
0.70467699
0.37499583
0.95565827
1.0620129
0.9102323
1.1168732
1.0475439
1.098807
0.17895529
-0.054260369
0.19692875
0.14161857
0.46038856
0.52765426
0.53324481
0.58496601
0.45275239
0.43717792
0.43905283
0.44379827
0.42596761
0.4394034
-0.086447721
-0.11121903
-0.18266737
-0.27228403
0.45218985
0.59994611
0.34315434
0.33996145
0.1961646
0.025523764
0.03169445
0.020933336
0.0071800951
0.076698853
0.080560149
0.10062393
0.097209634
0.062934306
0.060228349
0.075230457
0.075457578
0.085535087
0.72197723
0.72318714
0.72917648
0.74317168
0.64750578
0.66269464
0.60621612
0.6388933
0.62092968
0.52096103
0.58575371
0.54662191
0.007391471
0.011059578
0.009255455
0.031413114
0.036448426
0.0194205
0.017269149
0.017605007
0.013575716
0.015366265
0.023197346
0.032794167
-0.47114249
-0.61186265
1.1546485
0.93024489
0.15078535
0.51013279
0.43201758
0.45314927
0.45135773
0.42254342
0.4310527
0.44331513
0.45235373
0.64372259
0.63670622
0.6620433
0.71277146
-0.36628632
-0.58675804
-0.33361662
-0.37990949
0.22140786
0.93190802
0.4997806
0.38148719
0.3821433
0.75482563
1.2015734
1.1009176
1.2711742
1.2953621
-0.33949994
0.17667373
-0.12956577
0.55221856
0.75731597
1.0803388
1.1475905
1.1541044
1.121672
1.0467616
-0.24023768
0.74321224
-0.21835008
-0.21043457
0.11644077
-0.043314924
1.1496417
1.0224044
1.0294648
1.0829002
1.1247234
1.0349523
0.98493225
0.99823098
1.071698
1.0736814
0.7139531
0.36243487
0.24005275
0.23567882
0.98634014
0.77558487
0.87003798
0.70964622
0.58544399
0.55119995
0.5688126
0.62558069
0.59325019
0.61714238
0.62438572
0.63173928
0.49213062
0.45693775
0.53727647
0.50191535
-0.06093578
-0.054175115
-0.11887767
-0.3287621
-0.28904112
-0.41367945
-0.20736758
0.15578771
0.13289432
0.34712356
0.47683818
0.12440016
-0.24825433
-0.16024903
-0.22596756
0.14101142
0.12015474
0.14498916
0.21179127
0.22313286
0.18372302
0.28384852
0.26234779
0.047515891
0.05900851
0.033080668
0.034770468
0.12387721
0.16377512
0.14850325
0.06403126
0.0627481
0.031278611
0.034076297
0.096985371
0.050186549
0.069613373
0.085171792
0.028930603
0.033909576
0.036720204
0.054724495
0.052385239
0.056352426
0.69864089
0.71327963
0.71756598
0.73724763
0.75284531
0.77363031
0.73196822
0.64441276
0.6503575
0.67612642
0.63616789
0.65703739
0.64804305
0.65860797
0.69994055
0.70845657
0.68299695
0.66547944
0.68755
0.68325783
0.66694093
0.66159862
0.64529958
0.61388165
0.58160387
0.023061102
0.015700921
0.020056019
0.019702703
0.015373895
0.018011975
0.054142741
0.044188102
0.050709856
0.042796961
0.047505756
0.020530707
0.02391462
-0.33858275
-0.20608521
-0.55626777
-0.56624204
-0.64949338
1.0540504
1.1965617
0.89387385
0.65684106
0.70729086
0.96271332
1.0504635
0.62437266
0.73347707
0.76553267
0.60871979
1.0007255
0.46392493
0.45829236
0.48963647
0.47431615
0.49840511
-0.19482539
-0.032938042
-0.05590077
0.092873793
0.34569098
0.40761117
0.17699246
-0.014474269
0.13683626
0.041613895
0.92180152
0.94881643
0.84834785
0.89979955
0.90363444
0.58750791
0.73090216
0.82683958
0.74111487
0.83107273
0.85190303
0.78443474
0.83176075
0.7644309
0.68284067
0.68230199
0.59247321
0.60645199
0.58219939
0.54492893
0.71568176
0.67405945
0.69527796
0.68322495
0.71931313
0.77364667
0.75599589
0.78546217
0.81693318
0.69621966
0.64122875
0.64556437
0.69619827
0.63308355
0.65037853
0.67538212
0.24908632
0.26511379
0.11594785
-0.024858557
0.073234311
-0.10997979
-0.12833883
-0.08074473
0.24914632
-0.42862446
-0.41714102
-0.79537481
0.62393628
1.2465744
1.0866819
1.0732605
1.1276226
1.0848817
1.0736897
1.1566299
1.161517
0.97369952
1.0142587
1.01338
0.91852048
0.95937146
1.0544377
1.0398243
0.71785527
0.47866468
0.43156632
0.41657658
0.17539323
0.24392419
0.62105855
0.48470854
0.35577807
0.36553349
0.67047531
0.46950069
0.56668479
0.65922518
0.5374703
0.46208262
0.7928083
0.91449512
0.90527052
0.85174047
0.69234465
0.73159072
0.78668518
0.85451665
0.89237947
0.96249759
0.58226192
0.5592683
0.52209172
0.51308278
0.63037872
0.595076
0.60638082
0.56637759
0.54556607
0.51606708
0.55020343
0.0026125877
0.016987179
-0.022157281
-0.017723663
-0.017955199
-0.034465183
0.077240194
0.0043490935
0.039446166
0.041942962
-0.013052659
-0.020953168
-0.0024707281
0.019206201
0.21830675
0.2600293
0.22491563
0.16032853
0.26489733
0.5041251
0.56160661
0.49426407
0.24879728
0.27455832
0.34730306
0.11397797
0.11819981
0.10235021
0.1366985
0.13262394
0.029472387
0.033080548
0.038919109
0.051145531
0.048384486
0.035084114
0.032360203
0.032146689
0.033903357
0.032872458
0.037132225
0.64491142
0.65566993
0.69204187
0.66202047
0.64732174
0.70755563
0.6827915
0.6662473
0.67888061
0.70341947
0.68427534
0.69345115
0.69950155
0.036579261
0.027591596
0.030317676
0.030996542
0.029396794
0.024244326
0.021274756
-0.18138648
-0.15908384
-0.19763531
-0.23122999
-0.38074026
-0.30283582
0.32827995
0.47640826
0.43014093
0.86987318
0.55815281
0.53482145
0.69894275
0.7946913
0.1731185
0.39657217
0.16725346
1.0760404
0.91555476
1.1217763
0.50439582
0.21561705
0.43472286
0.53359595
0.2292179
0.33071857
0.34186657
0.17265956
0.24549604
0.26726347
0.42004596
0.22283307
0.31965097
0.2549398
0.26126886
0.28858809
0.28645556
0.42996305
0.48810868
0.11746583
0.14485526
0.054096424
0.91492126
0.942922
0.97240148
0.92964066
0.97082072
0.83257879
0.82392131
0.85093943
0.86748981
0.84541113
-0.63127132
-0.73224036
-1.0749814
-0.53509981
0.076961602
0.6526375
0.54330925
1.0711748
0.85993451
1.0861206
1.0385989
0.99110614
0.91086185
0.88512341
0.97020619
0.49684103
0.65511924
0.63160835
0.6139189
0.44868376
0.35423585
0.86849475
0.85273764
0.9224218
0.95579311
0.89805486
0.97178709
0.67312469
0.66587788
0.62484255
0.65070618
0.62813227
0.62903871
0.12367598
0.089456659
0.15308438
0.13361049
0.075711335
0.057429747
0.043431444
0.03482386
0.035244888
0.034283384
0.040287876
0.048698257
-0.041896553
-0.099048475
-0.22658604
-0.20601721
-0.23224327
-0.32157812
-0.37421423
-0.23633496
-0.13477443
-0.075949761
0.39651756
0.76044673
0.47840635
0.7128794
0.49140115
0.63885409
0.41104542
0.45825874
0.47029567
0.32001943
0.31037972
0.32920086
-0.4595878
-0.13186819
1.1128553
1.0482974
0.69218608
0.52375832
0.46764103
0.80985812
0.76517266
0.625332
0.72341802
0.83901753
0.83199214
0.13426308
0.13515122
0.45123094
0.59862832
0.31319455
0.15724568
0.13589801
0.30044473
0.36122756
)
;

boundaryField
{
    wall-4
    {
        type            zeroGradient;
    }
    velocity-inlet-5
    {
        type            zeroGradient;
    }
    velocity-inlet-6
    {
        type            zeroGradient;
    }
    pressure-outlet-7
    {
        type            fixedValue;
        value           uniform 0;
    }
    wall-8
    {
        type            zeroGradient;
    }
    frontAndBackPlanes
    {
        type            empty;
    }
}


// ************************************************************************* //
