/*--------------------------------*- C++ -*----------------------------------*\
  =========                 |
  \\      /  F ield         | OpenFOAM: The Open Source CFD Toolbox
   \\    /   O peration     | Website:  https://openfoam.org
    \\  /    A nd           | Version:  9
     \\/     M anipulation  |
\*---------------------------------------------------------------------------*/
FoamFile
{
    format      ascii;
    class       surfaceScalarField;
    location    "10";
    object      phi;
}
// * * * * * * * * * * * * * * * * * * * * * * * * * * * * * * * * * * * * * //

dimensions      [0 3 -1 0 0 0 0];

internalField   nonuniform List<scalar> 
1300
(
1.7582594
5.6264299
-7.5256736
1.7582594
-7.3888407
5.6264299
-6.1863467
6.1863467
-2.0166781
2.0166781
3.731952
3.6527373
-5.8413279
5.8413279
-5.9287272
5.9287272
-3.8652927
3.8652927
-5.2376888
5.2376888
-5.0555363
5.0555363
4.7895025
-4.7895025
-6.0050245
6.0050245
-2.6218304
2.6218304
-6.1529489
6.1529489
1.4590922
-1.4590922
-6.2436585
6.2436585
-0.69131182
0.69131182
-0.59027219
5.1617465
1.1679871
1.1679871
-3.498674
3.498674
-4.8246098
4.8246098
6.2145487
-6.2145487
11.383127
-11.383127
-3.8574529
-4.0430521
1.6190438
-9.682312
-5.769797
-5.769797
-8.438275
8.438275
-2.8118449
2.814585
3.242315
-3.242315
-1.8427927
1.8427927
-6.2467955
0.060448786
-6.2467955
6.1850167
0.0013299832
6.1850167
-2.2028203
0.18614218
-2.2028203
5.6265809
-5.6265809
1.7800304
0.23664767
1.7800304
1.8850715
-1.8850715
-3.7315944
7.4635464
3.6530949
-3.0649458
8.2266923
-3.3820051
7.0347424
-5.9824955
5.9824955
-5.9354443
0.094116418
-5.9354443
5.7902634
0.051064576
5.7902634
-6.3417263
6.3417263
-5.8542683
-0.074458971
-5.8542683
6.0221808
-0.093453603
6.0221808
4.1359355
-4.1359355
-3.8993755
0.034082736
-3.8993755
3.8086032
0.056689516
3.8086032
0.3589847
5.2674452
-5.9854148
8.7999999
-5.2674452
0.029756356
5.2000302
0.037658671
5.2000303
-5.0930263
0.037490045
-5.0930263
5.0107267
0.044809628
5.0107267
4.8904517
-0.10094919
4.8904517
-4.8861855
0.096682959
-4.8861855
-3.9580086
-3.9700365
-6.1101178
0.10509324
-6.1101178
-2.6926084
0.070777954
-2.6926084
2.5623694
0.059461061
2.5623694
-4.5197552
4.5197552
-6.2618144
0.10886557
-6.2618144
1.4653722
-0.0062799467
1.4653722
2.0157864
2.5556879
3.7740457
-3.7740457
2.3149535
-6.2231863
-0.020472174
-6.2231863
-6.2662614
-5.1168651
6.2662614
-0.022602935
-1.144368
0.45305615
-1.144368
1.2959244
-0.12793728
1.2959244
3.7041477
0.10445552
-3.7041477
0.20547363
4.7209743
-4.7209743
2.6505949
0.84807915
2.6505949
-5.5848036
5.5848036
4.9431338
0.067592843
-4.9431339
0.11852411
6.1546408
0.059907952
6.1546408
-6.1928105
-0.021738195
-6.1928105
4.0519126
-8.0949648
-4.0417199
5.8913986
0.11362595
-5.8913986
0.1216016
3.6226909
-0.38037588
3.6226909
-3.1565466
3.1565466
-2.8231327
-0.4191823
-2.8231327
-2.1537258
0.31093312
-2.1537258
1.5886358
0.25415686
1.5886359
-6.1060709
-0.14072462
-6.1060709
-6.227493
-0.03432144
6.227493
-0.042476254
1.5149702
-1.5149702
-2.357271
0.15445071
-2.357271
-5.8286251
-0.27744582
5.8286251
-0.20204415
-5.5376243
-0.088956628
-5.5376243
-2.3498653
-0.47326746
2.3498653
-0.46479383
1.525259
-0.2293346
-1.525259
-0.35981251
-3.0572509
5.6129388
-3.3897001
7.0427949
-5.77067
-0.21182548
-5.77067
6.1256824
-0.14318677
6.1256824
6.1119572
0.04099172
-6.1119572
0.1765129
5.7807467
0.0095166766
5.7807467
-6.3018437
-0.039882579
-6.3018437
6.3553443
-0.013618075
6.3553443
5.8017082
-0.020961549
-5.8017082
-0.052560096
6.1089992
-0.086818454
6.1089992
4.2158045
-0.079869042
4.2158045
-4.0561185
-0.079817011
-4.0561185
3.7980626
-3.7980626
3.9003872
-0.10232457
-3.9003871
0.0010116808
-11.148713
11.126974
-0.035833297
-11.112879
5.164197
5.164197
4.0951629
0.79528871
4.0951629
-5.0691223
0.18293686
-5.0691223
3.9826669
-8.0243868
3.9937424
-7.951751
3.9830859
-13.665398
3.9690053
-7.9390418
6.2709154
-6.2709154
6.1986054
0.072309963
-6.1986054
0.088487643
-2.7329659
0.040357556
-2.7329659
-4.0241736
-0.49558155
-4.0241736
4.9825923
-0.46283711
4.9825923
-2.2479142
2.2479142
-1.7899242
-0.45799008
1.7899242
-0.32455201
6.1783322
-0.069333003
-6.1783322
-0.044854103
1.4820951
0.29793533
-1.4820951
0.33772716
4.9937615
-0.27278714
4.9937615
-4.47405
-0.24692434
-4.47405
-2.6970411
-0.035924835
2.6970411
-0.04644618
-5.8258806
0.24107708
-5.8258806
-11.213431
0.10055144
-11.175772
-6.0922591
-6.0922591
2.3460158
11.146016
-3.9066142
-0.1495043
3.9066142
-0.28392336
2.7226935
-0.47477933
-2.7226935
-0.43385304
-3.5401749
-0.25788773
3.5401749
-0.38362833
-2.5667096
0.41298378
-2.5667096
-1.2403354
1.2403354
-1.3900776
0.14974226
1.3900775
0.19855839
1.9696923
-0.45472214
1.9696923
2.4709834
0.091385962
-2.4709834
0.11371245
-5.3677288
-0.16989545
-5.3677288
6.2097784
-0.084096052
6.2097784
-4.3170736
-0.15697633
4.3170736
-0.10126911
-0.035352441
11.162327
-5.1288446
0.035818214
5.1288445
-11.222235
11.258053
-3.1427228
0.57601314
3.1427228
0.95244015
5.3232074
0.2615962
-5.3232074
0.25408507
6.3244756
0.030868705
-6.3244756
0.053560127
-3.5605907
-0.46358293
-3.5605907
-5.4115631
-0.35910697
5.411563
-0.42897069
-11.476732
-0.19238143
11.669113
-11.431922
6.018262
0.13637879
-6.0182621
11.394432
-1.2352855
-0.27968474
1.2352854
0.0050499955
2.4697693
-0.50007694
2.4697692
5.2312397
-0.23747825
-5.2312397
-0.13648909
-6.2554572
-0.046386512
6.2554572
-0.045678801
-3.0224385
-0.5381522
3.0224386
-0.55266939
-5.4673738
5.3394365
2.7593185
-4.0404471
-4.0545177
-9.1573122
2.5861395
3.0267993
4.901093
-8.4397116
-5.2256863
-8.31811
7.2943924
-7.0403074
-9.5683601
9.4674109
9.9156166
-10.004573
-7.5127247
7.1881726
7.9356021
-8.400396
3.7516696
3.7118768
12.302126
-12.208009
-13.241021
13.029195
12.209987
-12.284446
12.875366
-12.915249
-14.817489
14.848358
-7.6876054
7.7216882
-8.7849971
8.7051801
-9.0643507
8.9630816
-3.937021
-4.01473
10.863141
-10.758048
14.081369
-14.101842
-11.615349
11.724215
4.1962009
1.1432357
3.9668662
-3.6027398
7.3544094
-3.4320026
6.1913211
4.0250302
-7.9620512
3.9993566
-8.0538743
7.2601445
6.8212249
-7.2375415
-1.9197707
-7.6716951
7.2913192
-7.6465777
7.2629494
12.030547
-11.970098
-3.5770979
7.2889747
-3.465697
6.4924963
-3.7109957
-3.801729
3.7172757
1.1838173
6.679466
4.1836748
-6.7930919
-1.5250181
-10.107631
9.8701524
-10.568421
10.321496
-0.49149001
5.809086
-5.317596
4.3331198
-1.4647428
7.2738289
5.8296496
6.0125865
5.8739074
-5.6123112
1.1663999
-6.4839959
-6.3654718
-3.5473154
3.7017661
3.5198105
-3.2831628
7.8555571
2.0600596
7.6535129
-7.1911425
-2.8134307
-7.3610379
4.675296
2.5128767
4.2173059
5.0775295
2.8580726
4.604262
5.8530298
-5.8597559
0.006726094
-5.3038033
11.156833
1.4292187
-9.1055323
-7.921715
8.1020224
4.2001033
8.153087
-8.1623482
-4.045661
-7.9858353
-8.123196
-5.1178248
-8.4823028
8.3238347
4.7053607
8.180648
-9.631911
9.5862322
8.1650994
4.0448876
8.0716458
-8.072627
-4.211819
-8.1251872
12.553142
-3.2235394
-9.3296024
-8.3056662
-6.5118228
8.3192844
4.556082
9.0124965
5.8358611
9.0660566
4.2773733
8.2757685
-8.8334552
2.3216325
-5.0990808
-2.5885246
-5.0980692
5.0012793
2.7204089
5.0579688
-5.3833905
-3.4016066
-5.5328948
-5.5754665
-3.4888842
5.6553356
3.0498445
-5.7402944
-4.8281263
5.8972707
3.0658109
3.631778
-8.8574642
4.3072638
-8.3219938
-7.5598008
-3.1982467
-7.4713132
4.8861379
3.1289159
-8.0150538
-3.0759133
13.049558
-6.2283334
11.129788
-8.783125
-5.3187166
-8.8279791
-8.7217441
-2.893605
-8.7560656
-8.4007574
7.9371745
-7.9798245
7.5169874
14.867958
-6.1945154
-8.6734422
-4.5986313
-3.8017647
4.9584438
-0.99157757
-7.1481875
7.1549136
0.20622189
6.397543
7.5407786
6.549201
-4.3103245
-3.3362532
-4.7441776
5.082556
2.1803934
4.8246683
8.9324302
3.0981169
8.9337602
-8.6155638
-3.3545345
-8.7562884
9.581697
-9.2707639
3.9208884
-3.9568133
6.8795461
3.4419503
-6.6067589
-3.5008717
8.0297539
-4.0506377
-3.9791162
-12.126264
10.736923
1.3893418
-4.8524356
-0.51931576
0.17199606
-5.6073919
-3.9609682
5.5107089
0.50187759
11.2388
7.277832
-5.5208684
5.7619455
6.1482447
6.2158375
-0.14963426
6.1140215
-5.5380083
6.8824045
-2.894495
-3.9879095
7.0082301
-7.2856759
-1.7480583
-7.0531529
5.3050945
0.36783703
2.4519939
-1.9989378
-2.8034878
-0.74382761
-2.6897753
2.0977461
1.4220644
2.3956815
1.3153181
2.386448
-3.910735
0.7105726
3.2001624
-2.5954169
-2.5725902
-4.7781641
-1.2679055
6.0460697
7.230652
2.6395004
-7.0941629
-0.26687501
3.6618963
-3.6024352
-1.1598847
-3.6182794
2.6170908
-3.7769755
-4.6341714
-2.4189663
7.0531377
-3.5523468
-1.1918307
4.0271262
0.19017965
-4.314956
-3.3567391
4.7341383
-0.12987634
-4.2924333
9.3407078
-5.0482745
-7.6286865
4.6409862
6.5158469
7.1538628
-8.859242
4.4727037
4.3865383
-2.3433952
7.0435924
1.1094946
7.0531091
-10.301241
6.2555796
8.4190703
3.3051445
-8.4600619
0.47422667
-9.8270138
11.751019
-9.4758778
-2.2751415
6.6339665
5.117053
6.7945659
8.0733916
-5.9168213
12.711387
-0.031292846
-9.4445849
9.8583066
-6.5531622
5.1137827
-11.666945
-13.187174
3.7425892
-8.6838416
10.268427
-1.584585
-2.8031193
-6.8287917
11.486961
-1.2677603
-10.219201
6.9128877
-6.4804625
-6.439056
12.919519
-9.704002
10.650875
-3.218499
-7.4323761
-8.080721
-4.834528
8.1271075
1.4591247
-11.888953
14.210585
-3.6131846
7.1248475
0.94679828
7.038029
4.7548676
-7.1914467
2.4365791
4.9491344
-8.1676334
3.2754235
-10.46687
-5.8208532
11.391885
-5.5710322
-9.0190999
-8.0474984
-0.97160152
2.4323006
11.778285
-8.2681617
6.3804452
1.8877165
4.4370397
0.38762861
-4.3347151
-0.76335407
0.49302124
5.9133468
-6.4063681
5.5509901
5.6554456
4.5036563
1.4096905
5.0366113
2.2547079
-4.7526879
-0.78020694
-5.3953739
1.9064897
-2.3455294
-4.7641664
6.6706561
-5.3009061
0.53673971
-3.5151285
-4.7330856
8.2482141
-6.1036531
4.8233771
4.5173306
7.0037705
-6.6029114
1.8698258
-3.3394841
-3.2634273
3.4310803
-5.7766097
2.5566021
4.114054
5.622413
0.79428668
5.7779963
5.6138891
-8.9069122
0.5849184
9.797564
-8.2725458
2.0143656
7.051691
-8.3948107
0.34731229
-7.1240009
1.3304632
-7.5587966
-6.6845907
5.5453408
-8.4389458
-6.121604
8.0549474
0.87881279
-8.012471
-0.74359451
-5.8911973
-2.5095602
-6.4293495
-2.4552801
-5.5245443
-8.3721014
-1.9170487
-6.4550528
6.0201258
-5.7471758
-2.735127
6.1761465
1.3408409
-8.2760671
7.9963823
-8.1097134
7.6096364
0.29905063
6.8558629
6.8482516
3.0464869
-4.5124677
7.5589546
-6.4583075
9.5564244
-11.323312
4.8650048
5.4191176
-8.7736521
-5.9041947
5.5058343
4.0758628
5.7599911
9.9498859
-10.580855
0.63096898
-11.40524
13.15899
-1.7537494
-17.748437
6.3431963
-7.7985508
3.5920384
0.32885
3.632396
0.91869905
3.1587575
-4.0774566
-3.0381142
-3.0845604
-3.0106265
-4.41077
7.4213965
1.4851095
-4.385507
2.9003975
-4.5466102
6.0317198
-0.11904543
-4.2664616
6.8796415
-3.720884
7.2084915
-4.6656557
2.5428358
4.3088699
7.2770881
-2.9682181
5.6150306
-2.1730803
2.2966112
-5.2648293
-2.1141588
-3.989612
6.7100209
-4.2586021
4.7953418
-0.3036528
5.0989946
-5.3466854
1.2960477
-0.84302908
4.8124165
5.0178902
5.4796957
-4.0700052
3.7642498
-5.9373301
-1.5005795
-5.1430434
-1.0289894
-0.39304752
-5.0044563
5.3975038
6.771453
-7.1645005
-5.3308128
9.6948147
-4.3640019
8.0745715
-5.5643904
-2.5101811
-4.5779133
-4.6928505
4.1649296
1.9490919
10.023663
0.27671573
-5.8411062
-5.2612926
-4.3088525
4.2932893
2.5891152
-2.5986337
3.9879755
2.4266376
0.025356309
0.8818905
1.513791
2.4991346
-1.6172441
0.14741964
2.3517149
-1.8515181
2.703186
0.95871029
-2.794572
0.10479665
-1.8946667
4.5117575
1.3054957
-2.7275601
1.1103161
1.615025
-4.50952
6.2174068
-2.9921292
-3.2252776
7.8324318
1.5974454
-4.5895746
5.4557074
-5.0878704
3.0568145
-4.32472
-1.5327601
-6.6206305
-4.5605709
-3.2095905
6.109988
-4.211806
6.8513065
1.4758166
-6.5844315
8.0602481
-4.5944611
2.1754948
-4.0808333
5.0395436
-1.4372587
-2.6435746
3.5267792
3.5263585
-3.7303944
0.11211499
-0.20361516
2.998233
-3.2018481
-0.7787425
-3.3741594
-6.9660562
6.8361798
-3.450971
7.9236747
4.1079836
-2.9100635
10.833738
3.3382384
-6.2483019
-4.2904482
-5.4822789
-1.8617636
5.2920993
-1.1701533
-6.9550339
-8.6025294
6.9759954
0.077113639
-10.632775
12.308131
-1.6753564
-6.4326715
0.17709199
6.4568745
-9.1179928
0.9503594
-5.8425694
6.4655618
7.5750564
7.6521701
-10.45815
0.23894971
-5.7527896
1.9139344
-7.666724
7.0309874
-4.5509527
8.2935419
-9.5012754
6.7661486
-8.1604344
6.0184003
-1.6483237
6.6881223
-4.2515432
2.6414801
-7.4760081
-6.0168834
8.4006995
-4.3558119
9.3474978
-4.950522
14.29802
-8.5637065
8.3567803
5.9412394
-1.7043604
-7.1236187
-8.2018575
6.4974971
0.15492274
7.1929517
6.6994582
-4.4447502
5.9192512
3.2589651
-6.5984492
-2.5176446
-9.3374847
2.7390355
-4.8201541
-2.4028932
5.1419286
4.6008773
4.9885059
1.8785013
-4.2251518
7.9481881
-8.9197897
-2.3771559
-4.3074348
8.0675699
-1.5700728
4.8099433
-9.1173781
-2.7488533
7.2336213
-1.9236947
-5.3099265
-1.0391059
-5.0824981
2.4142656
-7.496764
6.0246803
-6.7682748
2.4320861
-10.230637
-5.8439809
-5.8389309
-2.4757974
-5.633916
-8.2509406
5.7751432
-1.9077442
6.0886382
-9.3903004
7.4666055
-3.7686893
9.5438326
-5.5337536
-0.89559589
6.0864229
1.5232134
11.067046
0.25137203
-6.1555667
-2.5015967
5.3794227
-2.8778259
1.7916926
-4.7530842
0.62633846
3.3031874
4.5292444
-8.6082819
-0.16537027
-6.320937
-4.2015804
8.2774431
5.4932344
12.264687
1.6838326
9.4126487
-1.1352056
11.096481
4.6247855
4.8233439
-4.5098667
5.1408357
0.88763716
5.7526419
-1.1695512
3.7123871
2.4628448
2.5336227
1.0688125
3.0722798
1.9456103
4.3683275
0.29087091
-2.7936895
4.731665
-9.0405175
-1.1094412
-8.2452288
1.222182
5.9310544
-4.7088724
4.2418968
-1.6527816
1.3640708
0.23521853
-2.557726
2.3225075
-3.752691
-2.5323697
-0.18065474
-1.9700734
3.0803894
2.5416841
-2.8997347
-0.85295625
0.38183912
-4.94241
3.9428809
-3.8307659
-0.30440735
7.7558407
-3.5847979
0.38294978
-1.4093031
-2.9912096
-3.7350372
3.6302406
10.105125
0.72861317
5.0568505
7.564793
4.2080538
-0.23669639
5.6875083
-7.2720934
-4.7793618
-7.0331437
-0.0021562323
6.4547183
2.4566412
9.3216435
8.3978807
6.8278078
-2.2895703
-11.20936
8.6769893
-3.5361535
6.9232399
-1.6133133
-5.8834507
6.1825522
3.3738721
-7.061365
0.29309022
-5.5903607
-9.126514
-1.2222289
8.6888343
-9.8448169
8.949221
6.4396607
0.015392
-4.9508946
-0.88803626
4.8011523
0.022191629
11.118673
-1.2270363
-7.2266611
8.4536975
-4.7040181
3.5945769
1.0786791
2.9092964
3.4011866
1.7484051
-5.4782561
-10.187128
-2.3995901
-2.1099299
-5.6248677
0.42120199
-2.9628861
6.3079053
-2.7133285
3.7977243
5.7403689
7.1044397
-2.0639111
-5.1005893
6.427913
-2.6301887
4.4742509
)
;

boundaryField
{
    wall-4
    {
        type            calculated;
        value           uniform 0;
    }
    velocity-inlet-5
    {
        type            calculated;
        value           nonuniform List<scalar> 8(-1.7582594 -1.7582594 -7.3846893 -4.5714743 -7.3846893 -6.446951 -4.5714743 -6.446951);
    }
    velocity-inlet-6
    {
        type            calculated;
        value           uniform -5.6264299;
    }
    pressure-outlet-7
    {
        type            calculated;
        value           nonuniform List<scalar> 8(7.5256736 7.3888407 7.900505 8.0632682 7.9280451 8.0936325 7.9764094 7.9520912);
    }
    wall-8
    {
        type            calculated;
        value           uniform 0;
    }
    frontAndBackPlanes
    {
        type            empty;
        value           nonuniform List<scalar> 0();
    }
}


// ************************************************************************* //
