/*--------------------------------*- C++ -*----------------------------------*\
  =========                 |
  \\      /  F ield         | OpenFOAM: The Open Source CFD Toolbox
   \\    /   O peration     | Website:  https://openfoam.org
    \\  /    A nd           | Version:  9
     \\/     M anipulation  |
\*---------------------------------------------------------------------------*/
FoamFile
{
    format      ascii;
    class       volVectorField;
    location    "10";
    object      U;
}
// * * * * * * * * * * * * * * * * * * * * * * * * * * * * * * * * * * * * * //

dimensions      [0 1 -1 0 0 0 0];

internalField   nonuniform List<vector> 
918
(
(0.41741862 0.0010907589 0)
(0.0090454699 2.9576279 0)
(-0.0019212577 2.0003663 0)
(0.28961193 -0.0085631285 0)
(-0.0025641969 1.9676833 5.5499516e-21)
(-0.011744308 2.9485761 -3.1359731e-18)
(1.0984906 1.6746008 9.5631041e-19)
(0.65715315 0.37262516 -2.3896848e-20)
(1.9886585 0.0034699866 0)
(0.010731198 1.7303423 0)
(-0.012685316 1.7630416 0)
(1.1582636 0.0027000945 0)
(0.012844869 2.916328 0)
(0.013942759 2.7897456 0)
(0.10381819 3.2066002 5.2896407e-19)
(-0.0011944158 1.8940138 -2.0314273e-20)
(0.81450867 0.19828281 1.5426481e-18)
(0.21771007 1.9482234 7.3118096e-19)
(0.34446797 0.00046630622 0)
(-0.0040416435 1.8737547 0)
(0.21035333 0.36713609 -1.274154e-18)
(1.0376844 -0.024455503 0)
(0.54043372 -0.030089594 0)
(0.2298335 0.0046180414 0)
(1.0445166 0.018656597 0)
(0.028486158 2.5950861 0)
(-0.0098991156 2.9061074 1.1431186e-18)
(-0.0079945083 2.0210534 0)
(-0.012323724 2.1075368 0)
(-0.0059980991 2.0193233 0)
(0.0046079051 2.1493927 0)
(0.00031630769 1.9854706 -4.3491125e-21)
(-0.0017893432 1.8990996 0)
(-0.018160358 2.9813313 -1.1623529e-22)
(-0.018372282 3.0070258 2.4347314e-18)
(0.00086274688 3.001595 0)
(0.95268002 0.048073108 0)
(0.45480452 0.94325044 1.90427e-19)
(1.2022544 1.643178 -1.179597e-18)
(1.2860683 1.5488294 1.2321515e-18)
(0.99066279 1.768737 -2.1528314e-19)
(0.8828391 1.8008742 1.2455224e-18)
(0.75273232 0.40689498 2.3237574e-20)
(0.69973672 0.34346394 0)
(1.5888201 0.89962829 0)
(0.695712 0.43242003 1.0717434e-19)
(0.59836486 0.38521032 -1.1169598e-19)
(0.46674401 0.056076134 0)
(1.9880789 -0.00026366829 0)
(1.9885258 -0.0038869388 0)
(1.3775928 -0.0030309792 0)
(1.8646011 0.007922368 0)
(1.7363645 0.0051051765 0)
(0.012341685 1.9263974 -7.1874584e-19)
(0.02092928 1.8742486 0)
(0.030405277 1.7623184 0)
(0.0064019379 1.8653303 0)
(0.0038903671 1.7031948 0)
(0.00092903259 1.9361137 0)
(-0.013841387 1.8738505 0)
(-0.0075960913 1.7385636 0)
(-0.018560113 1.904133 0)
(-0.012417368 1.7894382 0)
(1.2426268 0.0077035923 0)
(1.2265259 0.0056695202 0)
(1.1684262 0.0026695888 0)
(1.2154569 0.0084949927 0)
(1.1404093 0.0091955199 0)
(0.016739536 3.0145152 1.1979347e-18)
(0.012393247 3.0113619 0)
(0.0077305719 3.0035835 0)
(0.013337231 3.0004835 1.2737122e-23)
(0.010557893 2.9476311 -1.7108648e-18)
(0.016850558 2.9848862 0)
(0.013444128 2.8937981 0)
(0.017945367 2.9234895 2.709746e-24)
(0.013919976 2.817781 0)
(0.018376437 2.9093724 0)
(0.011670701 2.7514236 0)
(0.25466091 3.6721594 0)
(0.18132585 3.609895 0)
(0.1385465 3.3391026 -4.9500821e-19)
(0.052535451 3.0259109 0)
(0.00011581141 2.1134545 0)
(-0.0036705173 1.9872595 2.0036278e-20)
(-0.0031810914 1.9013219 -3.1016592e-20)
(0.92081113 0.20969839 -5.3107307e-19)
(0.85481229 0.15867842 -5.1562825e-19)
(0.88600213 0.2496255 -1.59421e-18)
(0.7889147 0.23671901 -1.05841e-18)
(0.2108123 1.4959344 0)
(0.32769388 2.0117852 -8.042959e-19)
(0.43338434 1.9727433 1.3417379e-18)
(0.56957435 0.0053710532 0)
(0.31215745 -0.014545241 0)
(1.2189438 -0.0023485278 0)
(0.73992617 -0.037098362 0)
(0.6504741 0.020390801 -2.1471435e-18)
(0.64882473 -0.024550791 1.701629e-18)
(-0.0039645247 1.964933 0)
(-0.0037923414 1.8689086 0)
(-0.010508735 2.0286016 0)
(-0.0060819075 1.9773065 0)
(-0.0028029561 1.8782543 0)
(0.3339253 0.42292928 3.8606479e-19)
(0.39747785 0.36518428 0)
(0.53123353 0.047484467 0)
(0.24222455 0.029044059 0)
(1.1883989 0.018252823 0)
(1.1426997 0.028760898 0)
(1.1101818 0.015274124 0)
(1.4106685 0.041707181 0)
(1.0752489 0.039843437 0)
(0.95023651 0.037863786 2.1672532e-18)
(0.0034679472 2.8667281 9.4470394e-19)
(0.023518292 2.8969395 0)
(0.041642675 2.8684073 0)
(0.017119217 2.6951645 0)
(-0.010220681 2.9859321 1.1000426e-18)
(-0.0089218673 2.8913568 0)
(-0.011680842 2.9908059 -3.3884201e-18)
(-0.0095699811 2.9159608 1.1609063e-18)
(-0.0040627242 2.1658201 0)
(-0.0021659424 2.1580665 0)
(-0.0006716245 1.9856425 -4.8482767e-22)
(-0.00064728094 1.9765645 0)
(-0.0015066741 1.890596 0)
(1.103789 0.068695239 0)
(1.0733016 0.035435145 0)
(0.9253347 -0.050891809 0)
(0.98451761 0.075127138 0)
(0.80968164 0.057846913 0)
(0.54615284 1.1205124 -2.3830735e-19)
(0.57382565 1.1500561 0)
(0.43766508 0.93987883 3.4662102e-20)
(0.33570618 0.72313915 0)
(1.3489085 1.4801557 -3.4790243e-19)
(1.412576 1.347985 6.9195808e-19)
(0.54208212 1.9750754 0)
(0.76815928 1.8889908 0)
(0.6617302 1.9072842 0)
(0.19203454 0.24711073 -3.2604789e-19)
(0.79480385 0.37157827 0)
(0.73470889 0.31123556 3.0077638e-19)
(1.4568896 1.2719648 0)
(1.546069 1.0414927 0)
(1.5045106 1.1197373 -5.4944497e-19)
(1.6310309 0.82370889 0)
(1.6653037 0.70316834 1.0001074e-19)
(0.87009894 0.098245415 0)
(0.75300168 0.11097105 0)
(0.63522208 0.068675947 0)
(0.57839507 0.057528867 0)
(0.64269859 0.082028026 0)
(0.33665735 0.032243925 0)
(1.497227 -0.0042366449 0)
(1.8701337 -0.0047255716 0)
(1.7321972 -0.0011913826 0)
(0.020152065 2.0064539 3.9008277e-19)
(0.028754342 1.8970803 0)
(0.007350818 2.0271044 6.2788176e-19)
(0.003294405 1.936779 -5.3112342e-19)
(0.13760624 1.9625713 -5.9945216e-19)
(0.04321433 1.9037994 0)
(0.077516859 1.8496081 0)
(0.00056439381 1.8580514 0)
(-9.1337474e-05 1.7023428 0)
(0.00046704529 2.0110004 -1.4820121e-21)
(0.0003281938 1.9325255 0)
(0.0001317171 2.015713 -7.619477e-20)
(-0.0028937669 1.9357847 1.4411734e-19)
(-0.004233858 1.8572158 0)
(-0.009235417 1.861032 0)
(-0.003358393 1.7136244 0)
(-0.015860899 1.9299366 0)
(-0.0091605378 1.82099 0)
(1.317102 0.013364502 0)
(1.2666367 0.0081670628 0)
(1.2916022 0.012473642 0)
(1.217674 0.0099285429 0)
(1.1340565 -0.017225437 0)
(1.2237187 -0.014698983 0)
(1.2352511 0.00095807742 0)
(1.1667018 -0.0027587617 0)
(0.0038048951 3.0718698 -1.0181696e-20)
(0.010833966 3.0617085 0)
(0.016187141 2.9687815 0)
(0.013267677 2.8676534 0)
(0.73759908 4.2651661 0)
(1.2425845 3.3235468 9.5393138e-19)
(0.075761881 3.1538374 0)
(0.031532635 2.9222808 0)
(-0.0055680409 2.1391127 0)
(-0.0061533768 2.1189629 0)
(-0.0032847505 2.1258159 0)
(-0.00033592997 2.1343687 3.3010293e-21)
(-0.003455668 2.1145374 0)
(0.0015830312 2.1203715 0)
(-0.0027981084 1.9142074 5.7097885e-21)
(-0.003955855 2.0033227 4.3059159e-20)
(-0.0037649129 1.9955839 3.1667964e-20)
(-0.0029300511 1.906339 0)
(0.96103338 0.16144688 7.9542044e-19)
(0.89956816 0.114421 -7.764957e-19)
(0.29448062 1.672235 0)
(0.27408908 1.3228827 -3.5478343e-19)
(0.20334876 1.7765567 -1.0089869e-18)
(0.1343108 1.6393625 1.0128125e-18)
(0.60545753 -0.062475176 0)
(0.72531469 -0.10429299 0)
(0.63080474 -0.083008551 0)
(0.42685759 -0.053349841 0)
(-0.012444357 1.9486154 0)
(-0.0083547094 1.9596888 0)
(-0.0065584764 1.8484969 0)
(0.61903222 0.4479329 9.8065194e-19)
(0.50979506 0.44015859 -1.1891994e-18)
(0.50825526 0.38094311 0)
(1.5697374 0.10671254 3.0767335e-20)
(1.5564385 0.11567687 0)
(1.4479899 0.048204523 0)
(1.3427624 0.021448178 0)
(0.98872096 0.10642563 0)
(1.010614 0.063066337 -3.4853979e-18)
(0.91934098 0.070681316 1.3258788e-18)
(0.0047551812 2.9890024 9.6833702e-19)
(-0.0023684794 2.8690615 4.9506015e-20)
(0.0038646044 3.0538273 -2.1378821e-20)
(0.012758758 3.0473461 7.6965684e-19)
(-0.0093686097 2.9952653 3.7795241e-20)
(-0.0083858582 2.9362194 -1.5183664e-22)
(-0.013148373 3.0201617 -7.1426877e-19)
(0.0012224744 3.0231885 5.1482588e-19)
(0.0066823626 3.0397406 -7.7021102e-19)
(1.2619676 0.023383066 0)
(1.1998579 0.044839099 0)
(1.1674945 0.020418181 0)
(0.83656889 -0.089558725 0)
(0.95542831 -0.078385897 0)
(0.7794239 -0.053207464 0)
(1.1706747 -0.041043205 0)
(1.0791291 -0.069770648 0)
(1.0483417 -0.035616413 0)
(0.72571536 1.3972379 6.8554164e-20)
(0.78919234 1.477052 0)
(0.15236784 0.34274425 6.549201e-20)
(0.32190588 0.80822089 5.3054312e-19)
(0.36930266 0.84803329 -3.3257883e-19)
(0.23170798 0.51717752 6.5089528e-19)
(0.52309291 1.0310768 1.7294495e-18)
(0.23555456 0.42993618 4.5791334e-19)
(0.85809835 0.29111792 1.1306853e-18)
(0.8285094 0.33129474 2.8127141e-19)
(0.76044965 0.27288438 5.6870663e-19)
(1.6664896 0.61161418 2.372675e-19)
(1.6864204 0.4785848 2.3206292e-19)
(-0.0014451477 2.0303139 2.4418649e-19)
(-0.0022450827 1.938666 0)
(1.3846999 0.028556675 0)
(1.3427676 0.016684364 0)
(1.2973048 0.012362444 0)
(0.010147015 3.0770607 0)
(0.017079702 2.9385317 1.4934602e-18)
(0.016584685 2.9536283 0)
(0.013536169 2.8432102 -1.4908138e-18)
(0.0098308476 3.0916998 3.4041583e-19)
(0.0040373165 3.0886509 0)
(0.87756966 1.7664834 -1.4998928e-19)
(1.1414484 2.3822204 2.2038223e-19)
(0.85456683 1.8843211 -9.9162411e-19)
(0.017129435 3.0060415 -8.6694637e-19)
(0.03902946 3.0518329 0)
(0.014274954 2.8831671 0)
(-0.0054445523 2.0099134 -1.0439381e-20)
(-0.0043291185 2.008231 -1.0151799e-19)
(-0.0034168626 1.9278888 -5.5653288e-21)
(0.36897451 1.5555164 1.0998213e-18)
(0.31428276 1.1551478 -7.5334698e-19)
(0.048196922 1.9663448 6.6993209e-19)
(0.11551991 1.8827846 -8.2638097e-19)
(0.060415431 1.7764417 1.0718123e-19)
(0.016022065 3.113414 -2.2395231e-18)
(0.018197364 3.1196934 2.5350313e-18)
(-0.0080715347 2.9808607 1.0433071e-18)
(-0.0040902598 2.9789222 -1.0133844e-18)
(-0.0071305879 2.8777922 -1.06276e-18)
(0.0053624402 3.1054058 -2.6439143e-18)
(0.010336412 3.1043719 2.6247755e-18)
(0.47198756 0.87182214 0)
(0.34338842 0.79917382 -1.0714792e-18)
(0.14318562 0.21569126 4.852885e-19)
(0.50933863 1.1679461 1.2366392e-18)
(0.29155221 0.66013627 -1.9130527e-18)
(1.6710392 0.22102354 5.4963862e-20)
(1.6779793 0.39197883 0)
(1.668504 0.26672794 5.0072891e-20)
(-0.0015115541 2.0137438 -1.9173935e-21)
(-0.005450348 2.019425 0)
(-0.0012808854 1.932604 0)
(0.43472722 1.431655 -3.9356871e-19)
(0.48928179 1.3107611 -8.8214618e-19)
(0.31322146 0.91870935 1.5712763e-18)
(1.2445201 0.017906434 0)
(1.320904 0.0078342791 3.5027984e-19)
(-0.005150247 2.1542174 0)
(-0.0087304332 2.1696291 0)
(1.5154248 -0.010963705 -5.4594339e-21)
(1.1132889 0.014560023 7.3958304e-19)
(1.9431528e-05 2.1386042 -4.3158074e-21)
(0.0012447807 2.1430542 0)
(0.0723585 3.1924081 6.4766005e-19)
(0.54891967 3.5804442 0)
(1.465658 0.88647088 -5.7937927e-20)
(1.2918184 -0.074620078 3.9455642e-20)
(1.2870559 0.11748409 0)
(1.9949892 0.0032082787 4.001884e-21)
(0.028353296 2.1340514 0)
(0.022773063 2.1917243 0)
(-0.026847653 2.1481015 0)
(0.0034012617 2.1492733 1.0252187e-19)
(-0.0053648441 2.1464997 4.9293387e-20)
(1.3403093 0.015954952 3.5672302e-21)
(1.3812876 0.038061066 0)
(1.4233859 0.04765401 0)
(-0.0086286934 2.120383 0)
(-0.0034568923 2.1461412 0)
(-0.0073479636 2.1483319 0)
(0.1992653 2.0143833 -3.8710371e-19)
(1.2975038 0.030709251 0)
(1.1377467 0.060752822 0)
(1.9592886 0.0073796107 4.727902e-19)
(1.6381403 0.030846185 -5.2473262e-19)
(1.9030112 0.012344175 0)
(-0.0080905379 2.1267473 0)
(-0.0050130938 2.1463901 0)
(-0.0057940028 2.1391596 0)
(-0.0055484259 2.1527308 0)
(-0.0024774896 2.1453048 0)
(-0.0051443245 2.1539116 0)
(1.3006587 0.14931908 0)
(1.2884323 -0.14880095 9.0831113e-21)
(1.0454298 1.6958523 5.8291996e-19)
(1.9494529 -0.0042403758 -4.7806852e-19)
(1.7084523 -0.016893298 5.4732901e-19)
(1.8966745 -0.01285204 0)
(1.3271809 -0.040993999 4.6272804e-19)
(1.2079923 -0.0092506265 -5.481581e-19)
(0.96879796 -0.011892579 0)
(-0.0025583226 2.1488641 0)
(-0.00060731975 2.1450279 1.7769283e-20)
(-0.0017137794 2.1463692 -1.2894516e-20)
(1.5513888 0.35178203 7.5779501e-19)
(1.4788567 0.097333171 0)
(0.10432255 3.05781 -1.3068045e-18)
(0.056640676 2.8328352 -9.5829381e-20)
(0.19611129 3.2006115 1.9103347e-18)
(0.17447694 3.2588261 -2.7884867e-19)
(0.17239199 3.3086064 0)
(0.03668982 3.1385529 3.620374e-19)
(0.095887484 3.1787853 1.2875228e-18)
(0.092493375 3.2106702 -6.7737799e-19)
(0.061081535 3.107503 0)
(0.92214977 0.45806386 0)
(0.80509448 0.54297168 0)
(1.4024526 0.93525529 9.7828874e-20)
(1.414781 1.142826 -2.3994983e-20)
(1.4799252 0.7428396 0)
(1.535723 0.72820062 0)
(1.2487021 -0.082784586 -1.0320244e-18)
(1.1599026 -0.121019 1.4315362e-18)
(1.2643202 0.1211063 0)
(1.1876803 0.14224707 0)
(1.976088 -0.0052709379 0)
(1.8512848 -0.03075304 0)
(1.9300928 -0.0073836519 0)
(1.7228199 -0.048555691 0)
(1.6648452 -0.031113921 0)
(1.7962823 -0.020478086 0)
(0.023559106 2.1351212 0)
(0.017725157 2.1460701 0)
(0.030118653 2.1337369 0)
(0.040366995 2.1357059 0)
(0.033660349 2.2079882 0)
(0.075955498 2.2222628 -4.4835292e-19)
(0.0099608332 2.2080158 0)
(0.0047503297 2.1936946 2.1032385e-19)
(-0.013301787 2.161691 -2.0832905e-19)
(-0.027774993 2.1494984 0)
(-0.02977524 2.1503959 0)
(-0.0191851 2.1500723 0)
(-0.017385934 2.1429665 0)
(-0.0021046878 2.1469941 -5.8448705e-20)
(-0.0030726049 2.1475445 7.0770773e-20)
(0.003588965 2.1508348 9.2495942e-20)
(0.00020107517 2.1493088 0)
(-0.006378891 2.1493846 -1.1223607e-19)
(-0.0071196955 2.1464895 -6.8275248e-20)
(-0.0008290446 2.1453634 4.5484007e-20)
(-0.0039003131 2.1427565 -9.1998776e-20)
(-0.00047517755 2.1476229 -1.1570323e-19)
(1.3496202 0.010930628 1.5617499e-18)
(1.3406173 -6.6345845e-05 -1.9771169e-18)
(1.3436361 0.02072856 -1.5809179e-18)
(1.3230162 0.022500068 2.0383149e-18)
(1.3724303 0.051578798 0)
(1.3668334 0.056759553 0)
(1.4223866 0.049960921 0)
(1.3902385 0.040459737 0)
(1.4029839 0.031592849 0)
(1.4760312 0.095249397 0)
(1.4379943 0.059370156 0)
(1.4562442 0.056731786 0)
(-0.0046427867 2.1281732 -1.7249108e-21)
(-0.0086911857 2.1149722 0)
(-0.0066663885 2.1184718 0)
(-0.0040790168 2.1484949 1.9393924e-20)
(-0.0047602757 2.1473844 -8.7857835e-22)
(-0.010678463 2.1147301 2.0086878e-20)
(-0.0091063505 2.1259621 -2.0172818e-20)
(-0.0065551072 2.1400024 0)
(-0.0063643178 2.1410657 0)
(-0.0067673275 2.1423441 0)
(-0.0087478152 2.150968 0)
(-0.013904589 2.1581889 0)
(0.34588954 1.9462974 7.2956319e-19)
(0.41591406 1.9991945 3.2033386e-19)
(0.46666026 2.2978397 -2.6149912e-19)
(0.23776629 2.206897 6.5667886e-19)
(0.094489148 2.4578993 9.445537e-20)
(1.3162461 0.082252446 0)
(1.3123611 0.065838642 0)
(1.1408426 0.10416074 0)
(1.9520543 0.0080365123 0)
(1.9491076 0.0094986555 0)
(1.6915615 0.027970608 0)
(1.5907487 0.036880078 0)
(1.5999794 0.04509719 0)
(1.2927008 -0.16717072 1.4068146e-18)
(1.143932 -0.14800844 -1.7229078e-18)
(1.3101998 -0.13601504 -1.4775526e-18)
(1.2881238 -0.094501236 1.9157642e-18)
(1.0071394 1.7000657 0)
(0.86298609 1.8491028 6.1107328e-19)
(1.1448472 1.5751971 2.8504014e-19)
(1.1918017 1.5904928 -3.7943286e-19)
(1.2931977 2.7135563 3.8301132e-19)
(1.1069573 0.15504623 8.3119545e-19)
(1.4809437 0.12847708 0)
(1.5279927 0.23547548 -5.8411375e-19)
(1.5505763 0.20478699 -2.2036437e-20)
(1.3017841 0.16769022 0)
(0.25536111 2.954444 7.3639486e-19)
(0.14362107 2.8342813 -1.855394e-18)
(0.077492851 2.329279 1.2217244e-18)
(0.13078041 0.21984977 -6.107793e-19)
(0.38153865 3.4910487 -1.0555227e-19)
(0.24533432 3.3896026 0)
(0.25738166 3.4600328 1.4891294e-19)
(0.29317572 3.1047977 -1.8844941e-18)
(0.42382815 3.1932715 0)
(0.01634652 3.1186494 6.7624849e-20)
(0.020150087 3.1327572 -7.3627812e-19)
(0.036463344 3.1169667 1.1442756e-18)
(0.044900748 3.1495303 0)
(0.043620233 3.1607159 0)
(1.3703243 2.8249037 0)
(0.68578263 1.0783636 -6.6730751e-19)
(1.3356821 1.3796009 -8.468656e-20)
(1.2551233 1.4155544 0)
(1.0795375 1.2756433 -8.8466418e-20)
(1.3528096 1.1958985 4.7330451e-20)
(0.50564725 0.60639863 -1.4271333e-18)
(0.97076179 0.44180328 -3.8177745e-20)
(0.94703919 0.39554012 6.0459159e-19)
(0.80626777 0.59064971 4.5216285e-20)
(0.72261204 0.57158489 -1.880681e-18)
(0.92946822 0.4935226 0)
(0.93082696 0.57427607 9.9617003e-19)
(0.95419317 0.54411521 0)
(0.86531719 0.54129143 0)
(0.86350402 0.48744276 0)
(1.0007207 0.81403167 5.5469664e-19)
(1.5322658 0.36912223 -6.4112897e-19)
(1.5398734 0.55071845 0)
(1.5700046 0.52185458 0)
(1.0201827 0.30962623 9.0771684e-19)
(1.0196394 0.71099402 -5.5525007e-19)
(0.95036968 0.67939997 9.7950922e-19)
(1.2007135 0.50416816 -1.0098561e-18)
(1.2243344 -0.15665854 8.965432e-19)
(1.1778647 -0.1414136 -7.98812e-19)
(1.1114721 -0.15520296 0)
(1.2995854 0.16203238 0)
(1.2359186 0.150865 -8.6193528e-19)
(1.1678336 0.14536441 8.538755e-19)
(1.5908809 -0.074330003 0)
(1.5065642 -0.15615115 0)
(1.8717216 -0.035512299 0)
(1.6210534 -0.081618587 0)
(1.8656738 -0.024045563 0)
(1.8850076 -0.014788755 0)
(0.010167709 2.1485139 0)
(0.0038868844 2.1427902 0)
(0.0040544338 2.0766741 5.4936455e-20)
(0.15319937 2.0247696 1.8320849e-19)
(0.052923864 2.1205823 3.989119e-19)
(0.079403957 2.1022048 -6.461568e-19)
(0.0072444713 2.0673908 0)
(-0.057175989 2.1459436 -1.3911427e-19)
(-0.042059556 2.1452398 0)
(0.050758807 2.4293881 -1.3058814e-19)
(0.13734846 2.3895867 6.6070862e-19)
(-0.085681508 2.1460585 1.2569451e-19)
(0.069816064 1.9413046 1.0188003e-19)
(-0.012146874 2.0058056 -8.3031088e-20)
(0.028770714 1.8722183 1.2193642e-19)
(-0.058235592 2.1782425 0)
(-0.067611824 2.1946872 -3.8082948e-20)
(-0.027825116 2.1370119 -5.5264269e-20)
(-0.018202092 2.1677181 0)
(-0.024303288 2.1435638 2.2504139e-19)
(-0.028961527 2.1404591 0)
(-0.0060310757 2.1899019 -2.3317152e-19)
(-0.0080721239 2.181748 0)
(-0.0094458363 2.1549158 -3.8193253e-20)
(-0.0020771346 2.1534161 0)
(-0.0069484001 2.162776 0)
(-0.013337192 2.1610871 4.3276094e-20)
(-0.0016389992 2.1502524 4.7639019e-22)
(-0.014110814 2.1583633 2.4721576e-19)
(-0.0041197714 2.1570309 1.61e-21)
(-0.0093388001 2.1333309 4.049346e-20)
(-0.0099315296 2.1379841 2.4610483e-20)
(-0.029264903 2.1511593 0)
(-0.028076929 2.1556064 0)
(-0.0065952761 2.1467794 1.2620183e-19)
(-0.0030349257 2.1583943 7.5285667e-20)
(-0.0044027864 2.1536212 -1.1114171e-19)
(-0.012229737 2.1514567 0)
(-0.0070902105 2.1314012 -6.6283309e-20)
(-0.0044379075 2.1454613 3.066593e-20)
(-0.0050626475 2.1423038 -9.6956793e-21)
(-0.0083308962 2.1345409 -4.7929288e-20)
(-0.0052106116 2.1436077 -1.647468e-20)
(-0.007101462 2.1439865 7.7768472e-20)
(1.3249291 -0.075317967 -1.0353621e-18)
(1.3451525 -0.016683978 1.0501786e-18)
(1.3219198 -0.038284395 0)
(1.3267602 0.059796197 1.4894862e-18)
(1.3229613 0.036094925 -1.6654769e-18)
(1.292941 0.039900417 1.8580138e-18)
(1.3235195 0.099777016 -2.017034e-19)
(1.3149856 0.14223669 0)
(1.3457808 0.088815969 9.3733523e-19)
(1.3202499 0.10457859 -9.3218445e-19)
(1.3886606 0.063220302 -5.5565791e-20)
(1.3827345 0.049626592 4.8245804e-19)
(1.3729847 0.066771834 0)
(1.3654085 0.062692852 -1.7385158e-19)
(1.3703853 0.025981823 0)
(1.361397 0.012945935 0)
(1.5372991 -0.080239616 0)
(1.4315838 -0.11412644 0)
(1.3871728 0.029387212 3.5254448e-19)
(1.4069353 0.012415289 -7.7081639e-19)
(1.3727806 0.060694454 -3.8030226e-19)
(1.3749615 0.051825247 -4.1512255e-19)
(1.366386 0.07721976 8.0290125e-19)
(1.4105478 0.070067312 0)
(1.4149272 0.10851341 0)
(-0.0074666054 2.130012 -2.5518315e-20)
(-0.0088025081 2.119654 -2.3235354e-21)
(-0.0093007069 2.1193112 0)
(-0.0049593412 2.1385044 2.6386697e-20)
(-0.0054851463 2.1314784 3.8769797e-21)
(-0.0037513886 2.1362603 -4.4642784e-21)
(-0.0067982614 2.1486942 5.9642191e-20)
(-0.0038718919 2.146806 -3.4859985e-21)
(-0.004764225 2.1444635 1.7200682e-20)
(-0.0048603587 2.1485706 -2.9302985e-20)
(-0.0064024472 2.1471631 3.5471569e-20)
(-0.010589601 2.1238915 7.0768956e-23)
(-0.010322359 2.1186327 2.7683075e-20)
(0.28738465 1.7700805 -3.5913355e-19)
(0.13002152 1.853288 -2.3398982e-19)
(0.82226734 1.8425782 -5.9252611e-19)
(0.59205406 1.909635 -3.0876811e-19)
(0.65033182 1.9438021 0)
(0.51688816 2.3748062 2.4156422e-19)
(0.63531624 2.3268171 3.7666908e-19)
(0.29403774 2.2470259 9.9249888e-20)
(0.23690599 2.37591 -7.1227117e-19)
(0.30889171 2.427079 6.3354553e-19)
(0.41703918 2.3133443 0)
(0.36702162 2.2168775 -5.8544923e-19)
(0.10590255 2.2165508 1.1428897e-18)
(0.19824981 2.2280804 -7.278954e-20)
(0.13984314 2.2103479 -1.5476134e-18)
(1.0544224 2.6114282 6.6143597e-19)
(0.91107138 2.5259497 0)
(1.9124645 0.015063296 2.0792321e-20)
(1.5934793 0.049583311 -1.7801352e-20)
(1.5995545 0.041732532 -3.306557e-19)
(1.797399 0.030212907 3.3174076e-19)
(1.929753 0.018324178 0)
(0.9254368 1.6374606 0)
(0.87870185 1.5364495 0)
(1.0181463 1.4360693 0)
(0.87235163 1.4816483 0)
(1.3022896 2.7539044 -2.3567135e-22)
(1.2100074 2.5805988 0)
(1.0663853 2.2339012 3.2650032e-21)
(0.90659701 2.6684636 0)
(1.0982333 2.6916178 -1.1208601e-19)
(1.1334003 2.6613716 7.6762697e-20)
(1.1238438 0.19364542 0)
(1.0787906 0.23083341 2.3121507e-19)
(1.2151423 0.162264 1.2858268e-18)
(1.1537302 0.1352805 -4.8244988e-19)
(1.1327936 0.098335655 -1.5069458e-18)
(1.3622626 0.28179104 -1.1521805e-18)
(1.2594099 0.36365317 -2.083328e-20)
(1.1891994 0.33959541 1.1930981e-18)
(1.2787903 0.28616274 9.9555264e-19)
(1.2398203 0.20232067 -1.7058643e-18)
(1.2016625 0.21432198 2.1492379e-19)
(1.2318143 0.28932439 -4.5534334e-19)
(1.2060124 0.26945954 0)
(1.2972845 0.21592578 8.390426e-19)
(1.3230295 0.23215168 0)
(1.3185618 0.27611819 0)
(1.4051768 0.13934954 3.8559431e-19)
(1.3494946 0.20804726 -2.052292e-20)
(1.3670418 0.26536412 -2.0827297e-19)
(1.4178309 0.23235105 0)
(1.3539351 0.032870283 8.0902992e-19)
(1.3636241 0.060479698 1.0056671e-18)
(1.3655027 0.040532647 -7.7817044e-19)
(1.3525371 0.070164076 -6.8153629e-19)
(1.337395 0.062183663 -1.0676114e-18)
(1.2994531 0.15856718 0)
(1.3102438 0.10458648 0)
(1.2978951 0.071261749 -6.7129645e-19)
(1.2531315 0.086281137 2.665669e-19)
(1.3375188 0.10025408 9.5126315e-19)
(1.3488014 0.13264981 -1.1106565e-18)
(1.3492949 0.16286995 9.8851927e-19)
(1.3268587 0.16124296 0)
(1.3637903 0.11220429 0)
(1.3543924 0.090383878 -4.5640627e-19)
(1.3462288 0.095854389 -7.8395303e-19)
(0.75435042 1.4879287 1.3076129e-19)
(0.82418913 1.7946032 -1.6582407e-19)
(1.1798847 2.7653544 -1.3805567e-19)
(1.2930651 3.1428015 1.1022768e-20)
(1.3606361 2.8323549 -2.4324674e-19)
(1.410054 2.9049758 -7.9521583e-20)
(1.2908853 2.5865398 2.5716856e-20)
(1.3363623 3.0611177 -4.7542356e-20)
(1.3469847 3.0705653 1.5927661e-19)
(1.3253113 3.3566233 -1.4797971e-19)
(1.4452131 3.1249885 1.5264548e-19)
(1.4658569 3.0579715 0)
(0.69040047 1.14508 -5.5331964e-20)
(0.30506431 1.4270806 7.2114948e-19)
(0.63618297 0.79746072 9.4859042e-19)
(0.40616222 0.42113916 1.1108307e-18)
(0.71566975 0.61325908 1.0480314e-18)
(0.72685297 0.68016991 -1.7218564e-18)
(0.70077874 0.70809699 1.3933485e-18)
(0.64204472 0.64688498 -5.5394294e-19)
(0.61205758 0.56657239 1.2593122e-18)
(1.0368823 0.34545507 -5.0756123e-19)
(0.99234601 0.38814546 0)
(0.97354149 0.3579735 2.1106054e-20)
(0.90050665 0.68954306 5.3341621e-19)
(0.88766246 0.65220283 -1.9373956e-18)
(0.76531585 0.68668027 3.4386432e-20)
(0.81780415 0.64361076 0)
(0.80443707 1.0147341 5.2802294e-19)
(1.0220554 1.0232926 4.3631373e-19)
(0.94869527 1.1402047 -5.0525945e-19)
(1.0737346 1.0494863 -1.8799387e-19)
(1.1999166 1.1158196 -3.4373435e-20)
(1.1567663 1.1211898 3.4668934e-20)
(1.0750548 0.82776092 -9.3258828e-19)
(1.1222847 0.94159906 1.7634109e-19)
(1.231863 0.93800106 0)
(1.2587136 0.88272926 -2.525006e-19)
(1.281923 0.38776633 2.9811941e-19)
(1.4435539 0.36939883 3.815413e-19)
(1.353349 0.34008421 4.7970438e-19)
(1.2566656 0.45615557 -6.0484529e-19)
(1.3392859 0.5066424 0)
(1.3922239 0.4955103 0)
(1.1654921 0.45834982 1.3463728e-20)
(1.1156821 0.37092384 0)
(1.1379745 0.35162256 5.8939487e-19)
(1.1743543 0.3525929 -1.5737145e-20)
(1.1815367 0.54729767 2.6543927e-18)
(1.1033253 0.6417992 7.3268414e-19)
(1.1049039 0.57711534 -8.1394761e-19)
(1.0507359 0.56448092 8.7725357e-19)
(1.0143751 0.5757642 5.3231184e-19)
(0.98939157 0.54339741 -5.2066241e-19)
(1.4841262 0.10816856 6.5044134e-19)
(1.8265658 0.059703319 0)
(1.8112428 0.05769867 4.0626206e-19)
(1.5522906 0.090348672 -9.4383615e-19)
(1.7520217 -0.0014636346 5.1004414e-19)
(1.7201015 -0.10088686 -1.0648927e-18)
(1.5424232 -0.1382561 0)
(1.4465843 -0.12527343 -2.0325175e-19)
(1.7509966 -0.068393034 4.9907695e-19)
(1.5964981 -0.091764815 -2.5071521e-19)
(1.4936086 -0.10861235 1.9185195e-19)
(-0.0082711983 2.1491514 0)
(-0.0083047866 2.1652305 0)
(0.00039646333 2.1483629 0)
(-0.0064016684 2.1417595 0)
(-0.011838003 2.1468426 -4.15967e-20)
(-0.0062070696 2.1261718 2.2647007e-20)
(-0.03456084 2.1538662 -4.1195207e-20)
(-0.031892502 2.0998987 -5.1043397e-20)
(-0.0054529414 2.1608797 -5.8475611e-20)
(-0.010732219 2.1552445 4.3224186e-20)
(-0.0028613881 2.1543248 -2.239525e-21)
(-3.9642653e-05 2.1639409 2.2779858e-20)
(-0.002840437 2.1625117 2.0793184e-21)
(-0.0040561636 2.1632749 -4.9593196e-21)
(-0.021424063 2.1441907 -2.4096982e-19)
(-0.014400987 2.156989 0)
(-0.017013842 2.1306863 1.2940517e-19)
(-0.026406293 2.1314699 8.6210772e-20)
(-0.0088530774 2.2386879 -8.8284242e-20)
(0.099922526 2.2447885 0)
(0.1156108 2.2596157 -7.3243405e-19)
(0.10189522 2.3304165 5.2061151e-19)
(-0.0093875574 2.1956832 -2.5454102e-19)
(-0.0086452565 2.1677808 1.407699e-19)
(0.0053447111 2.1970207 0)
(-0.0068802611 2.140814 -1.6511379e-19)
(-0.0074252427 2.1397516 -2.0647302e-19)
(-0.00098327452 2.1445002 0)
(-0.012985066 2.1416378 -7.4674579e-21)
(-0.018775298 2.1380931 8.3038083e-20)
(-0.025338782 2.1509974 5.2206673e-21)
(-0.028011735 2.1501621 -9.533683e-20)
(-0.025645648 2.143329 2.0031292e-20)
(-0.017712127 2.1392497 4.260974e-20)
(-0.01409369 2.1528651 0)
(-0.023148357 2.13992 0)
(-0.016851777 2.1560218 3.4497807e-20)
(-0.014654664 2.1370914 -1.0424669e-20)
(-0.021748257 2.143664 0)
(-0.024714717 2.1566861 2.626818e-20)
(-0.021942407 2.1590625 -5.2698425e-20)
(1.3762794 0.11304421 0)
(1.3655404 0.088679178 -8.5239176e-20)
(1.4480125 0.041022488 -6.5070702e-19)
(1.3918437 0.065298339 0)
(1.3599769 0.070551862 0)
(1.4699728 0.025020393 1.5171015e-20)
(1.5183197 0.027894128 9.5782564e-19)
(1.426777 -0.031505692 1.2223904e-18)
(1.4135467 -0.08528956 0)
(1.3773683 -0.068781744 0)
(1.3911885 -0.010175972 6.3559585e-19)
(1.373837 -0.0078254154 0)
(1.3744372 -0.029800395 0)
(-0.0063067184 2.12892 0)
(-0.0096481438 2.1169391 2.003835e-21)
(-0.0087741572 2.1179072 1.5650559e-20)
(-0.012186648 2.1344597 0)
(-0.0093734801 2.1230825 1.9415542e-20)
(-0.0091857893 2.1275912 -8.7003533e-21)
(-0.0095623634 2.1308112 0)
(0.38472742 2.2199629 0)
(0.13318496 1.8305072 3.9304727e-19)
(0.1469449 2.1757319 0)
(0.40311592 1.5989327 -5.5765073e-19)
(0.55491242 1.7490212 0)
(0.42471727 1.6921943 2.7358185e-19)
(1.1691333 2.8737108 -1.2328625e-20)
(1.0719695 2.6574171 -7.6240325e-19)
(1.0548213 2.543664 7.8406942e-19)
(0.9455792 2.5616714 2.7989371e-19)
(0.94507273 2.6922024 0)
(1.0447093 2.6583918 0)
(1.0304592 2.6078601 0)
(1.0239501 2.5650343 -9.6873067e-19)
(0.57343878 2.7155693 -3.3127416e-19)
(0.8546518 2.7097551 -6.5344174e-20)
(0.87639904 2.6642228 5.2157317e-20)
(0.68523099 2.4481423 0)
(0.83763637 2.5485196 0)
(0.78274916 2.4322996 -4.0010187e-19)
(0.75295519 2.6906526 0)
(0.78384431 1.4264694 0)
(0.65548844 1.2571098 -4.8603711e-19)
(0.72566136 1.249412 -3.0939426e-20)
(0.70161431 1.3791102 0)
(0.69739691 1.3622491 7.5135929e-19)
(0.97159165 1.1832229 -1.2142226e-19)
(1.0120087 1.3227485 0)
(1.0028127 1.2379099 1.62735e-19)
(0.81446711 1.3851248 0)
(0.83329859 1.2525315 0)
(1.2686507 2.8166599 -2.1095889e-19)
(1.2140122 2.8383157 -1.6730651e-19)
(1.047236 2.3157023 2.8248276e-19)
(1.0690532 2.3377622 -8.7488538e-20)
(1.2443124 2.8178762 0)
(1.2188108 2.7597047 1.1109539e-19)
(1.2278027 2.663413 -2.5733182e-19)
(1.1257976 2.5055019 -2.8202184e-20)
(0.85017073 1.6242352 0)
(0.76777974 1.4098266 -1.150797e-19)
(0.80135997 1.471024 0)
(1.1297205 0.29033356 0)
(1.0874786 0.25563293 0)
(1.0311061 0.27045802 0)
(1.1170057 0.31159899 -9.1465399e-19)
(1.0572479 0.29567608 5.3608026e-19)
(1.2485349 0.08533117 -5.2321077e-19)
(1.2573789 0.13227165 0)
(1.2292902 0.13969844 2.3519115e-19)
(1.1848403 0.090044744 9.54439e-19)
(1.1837275 0.074035901 -6.0245692e-19)
(1.3346918 3.4876822 -4.1790477e-19)
(1.3138214 3.4162187 0)
(1.3574894 3.4431951 -9.2206512e-19)
(0.53962255 3.5474986 8.8310156e-19)
(0.78499037 3.0784448 -1.7022322e-19)
(0.60897338 1.1705306 6.9200416e-19)
(0.57181133 1.2018233 0)
(0.54058291 0.79944455 -2.1977294e-19)
(0.60730833 0.99296496 1.1015844e-18)
(0.63562529 0.76240294 -3.1625856e-19)
(0.63856935 0.7746729 3.4469873e-19)
(0.78712002 0.73013964 7.328142e-19)
(0.85351829 0.74195833 0)
(0.78075861 0.85195514 0)
(0.72276578 0.80756549 0)
(1.2294204 0.7591431 9.1036403e-20)
(1.127762 0.69536193 -6.9853904e-19)
(1.1399018 0.74265061 5.3077846e-19)
(1.1853799 0.65401239 -5.3932936e-19)
(1.3352428 0.63580201 0)
(1.3515807 0.70517246 -1.2514318e-19)
(1.0832717 0.50580422 -1.2015536e-18)
(1.1056307 0.48716159 -1.4385215e-18)
(1.0532867 0.4958204 9.3678715e-19)
(1.046892 0.46432576 -9.7111413e-19)
(1.1104035 0.40723629 -7.4881148e-19)
(1.0558191 0.40721594 9.2903794e-19)
(1.6853181 0.021098524 -5.9766701e-19)
(1.6818159 0.021190554 1.2039548e-18)
(1.4610746 0.12709821 7.2562478e-19)
(1.4600107 0.13537657 -8.6505035e-19)
(1.4622643 0.11687736 0)
(1.6057472 0.08171664 -1.5381502e-18)
(-0.021696048 2.1262648 3.3250182e-20)
(-0.018880339 2.1459722 0)
(-0.023921582 2.1214317 2.7759291e-19)
(-0.023890162 2.12857 -2.4764429e-19)
(-0.025371949 2.1521015 7.2875087e-20)
(-0.0219919 2.1619497 0)
(-0.0087868931 2.1288028 0)
(-0.016147178 2.1313105 -1.0600005e-20)
(-0.013540634 2.1263749 9.5997791e-21)
(-0.01045543 2.1234395 3.0234523e-21)
(-0.0083989439 2.1262897 -1.9450843e-20)
(-0.0078845665 2.1286796 1.3236422e-20)
(0.81958008 1.59455 1.3504547e-19)
(0.69721279 1.7806625 -1.3547423e-19)
(0.52446324 1.5813251 2.9715755e-19)
(0.58943034 1.7509041 -1.4743419e-20)
(0.87333857 1.636197 0)
(0.68608736 1.6747963 4.2355272e-19)
(0.78353628 1.7446403 -4.1109447e-19)
(0.63653813 1.4951523 -2.9516354e-19)
(0.76771415 1.5186899 0)
(0.82056322 1.5241156 0)
(0.47444288 2.7003364 4.8765101e-19)
(0.56056092 2.5812381 1.2305414e-18)