/*--------------------------------*- C++ -*----------------------------------*\
  =========                 |
  \\      /  F ield         | OpenFOAM: The Open Source CFD Toolbox
   \\    /   O peration     | Website:  https://openfoam.org
    \\  /    A nd           | Version:  9
     \\/     M anipulation  |
\*---------------------------------------------------------------------------*/
FoamFile
{
    format      ascii;
    class       volScalarField;
    location    "0.08";
    object      p;
}
// * * * * * * * * * * * * * * * * * * * * * * * * * * * * * * * * * * * * * //

dimensions      [1 -1 -2 0 0 0 0];

internalField   nonuniform List<scalar> 
10000
(
0
0.0096497863
-0.0090879158
-0.045294164
-0.099676505
-0.17204641
-0.26229939
-0.37044611
-0.49653073
-0.64066262
-0.80292067
-0.98336471
-1.1821241
-1.3992486
-1.6346942
-1.8884337
-2.1603718
-2.4503014
-2.7579634
-3.0830048
-3.4248947
-3.7829528
-4.1563738
-4.544189
-4.9452408
-5.3582025
-5.7815747
-6.213666
-6.6526181
-7.096406
-7.5420622
-7.9917139
-8.4390404
-8.8797395
-9.3124693
-9.7348609
-10.144311
-10.538154
-10.913735
-11.268442
-11.599756
-11.905289
-12.182813
-12.430283
-12.64587
-12.827969
-12.975206
-13.086459
-13.160861
-13.197815
-13.196989
-13.158386
-13.082349
-12.96946
-12.820578
-12.636844
-12.419601
-12.1705
-11.891454
-11.584421
-11.251622
-10.895512
-10.518527
-10.123266
-9.7124327
-9.2886915
-8.8546359
-8.4126324
-7.9639943
-7.5131118
-7.0662523
-6.6212746
-6.1811578
-5.7479145
-5.3234395
-4.9094143
-4.5073186
-4.1184521
-3.7439823
-3.3849129
-3.0420252
-2.7159654
-2.4072167
-2.1161469
-1.8430532
-1.5881805
-1.3515834
-1.1332608
-0.93325893
-0.75147009
-0.5878777
-0.44235426
-0.3147492
-0.20494558
-0.1128211
-0.038304069
0.018677652
0.058205999
0.08173408
0.07996724
0.0036366345
0.0084481005
-0.012173714
-0.049181742
-0.10412226
-0.17690759
-0.26754162
-0.37603247
-0.50248591
-0.64699575
-0.80960633
-0.99044732
-1.1896318
-1.4071352
-1.6429618
-1.8970888
-2.1693848
-2.4596485
-2.7676497
-3.0929987
-3.4351437
-3.793404
-4.1669844
-4.5548938
-4.9559698
-5.3688846
-5.7921217
-6.2239886
-6.662629
-7.1060273
-7.5519933
-7.998931
-8.4437369
-8.8830595
-9.3144015
-9.7352328
-10.142952
-10.53493
-10.90856
-11.261277
-11.590615
-11.89423
-12.169949
-12.415778
-12.629937
-12.810854
-12.957148
-13.067691
-13.141612
-13.178306
-13.177473
-13.139116
-13.063559
-12.951393
-12.803463
-12.620937
-12.40516
-12.157687
-11.880411
-11.575294
-11.244454
-10.890307
-10.51528
-10.121901
-9.7128098
-9.2906188
-8.8579519
-8.4173404
-7.9712451
-7.5230615
-7.0758796
-6.6312871
-6.1915026
-5.7585018
-5.3341545
-4.9201636
-4.5180383
-4.1290892
-3.7544677
-3.3951804
-3.0520026
-2.725626
-2.4165529
-2.1251588
-1.8517029
-1.5964544
-1.3594636
-1.1407548
-0.94037774
-0.75825748
-0.59431071
-0.4484509
-0.32051658
-0.21039932
-0.11801579
-0.04326291
0.013963036
0.053696674
0.077427781
0.075793975
0.029464761
0.032470465
0.010662324
-0.027131386
-0.082560558
-0.15566223
-0.24649254
-0.3551744
-0.48182326
-0.62648089
-0.7892838
-0.97038529
-1.1698072
-1.3876077
-1.623841
-1.8784463
-2.1513063
-2.4423065
-2.7511896
-3.0775436
-3.4208497
-3.7804803
-4.1556099
-4.5452528
-4.9482698
-5.36334
-5.7889355
-6.2233337
-6.6646587
-7.1109044
-7.5599146
-8.0094815
-8.4566239
-8.8986297
-9.3328057
-9.7564765
-10.166969
-10.561617
-10.937783
-11.292886
-11.62444
-11.930116
-12.207747
-12.455321
-12.671002
-12.853181
-13.000479
-13.111746
-13.186114
-13.222998
-13.222159
-13.183603
-13.107598
-12.994727
-12.845826
-12.662059
-12.444793
-12.195597
-11.916369
-11.609137
-11.276068
-10.91953
-10.541948
-10.145866
-9.734008
-9.3089946
-8.8735097
-8.4301877
-7.9817696
-7.5309653
-7.080751
-6.6333346
-6.1908851
-5.7553744
-5.3286692
-4.9125005
-4.5084085
-4.1177181
-3.7415493
-3.3808825
-3.0365059
-2.7090991
-2.3991676
-2.1070743
-1.83304
-1.5773096
-1.33993
-1.1209754
-0.92041642
-0.73812295
-0.57401834
-0.42802222
-0.29999825
-0.18981345
-0.097366069
-0.022546178
0.034768738
0.074594366
0.098432654
0.096909692
0.069336842
0.07155211
0.048891013
0.010494729
-0.045354
-0.11871026
-0.20973441
-0.31857758
-0.44530986
-0.59007688
-0.75304751
-0.93430244
-1.1339316
-1.3520563
-1.5887125
-1.8438708
-2.1174948
-2.4094697
-2.7195346
-3.0473248
-3.39237
-3.7540403
-4.1315302
-4.5238875
-4.9299927
-5.3485171
-5.7779188
-6.2164661
-6.6622542
-7.1132118
-7.5671083
-8.0215323
-8.4737837
-8.9210878
-9.3606891
-9.7898357
-10.205789
-10.605821
-10.98724
-11.347425
-11.683869
-11.994199
-12.276194
-12.527782
-12.747057
-12.932337
-13.082182
-13.195403
-13.271101
-13.308669
-13.307834
-13.268609
-13.191286
-13.076468
-12.925028
-12.738164
-12.517298
-12.264104
-11.980542
-11.668645
-11.330632
-10.968958
-10.586116
-10.184642
-9.7672779
-9.3367645
-8.8958635
-8.4472886
-7.9937705
-7.5381287
-7.0830188
-6.6308798
-6.1839709
-5.7443236
-5.3138412
-4.8942543
-4.487082
-4.0936544
-3.7151061
-3.3523987
-3.0062801
-2.6774163
-2.3662878
-2.073235
-1.7984788
-1.5422067
-1.304445
-1.085177
-0.88442144
-0.70202876
-0.53785404
-0.39183833
-0.26382862
-0.15365912
-0.061206747
0.013652244
0.071027971
0.11093449
0.13490018
0.13356103
0.12478023
0.12643859
0.10324004
0.064430292
0.0083168656
-0.06521869
-0.15636265
-0.26521794
-0.39194845
-0.53674834
-0.69973281
-0.88102846
-1.0808096
-1.2991986
-1.5362606
-1.7920523
-2.066574
-2.3597162
-2.6712737
-3.0009475
-3.3482961
-3.7127132
-4.0934446
-4.4895831
-4.9000242
-5.3234411
-5.7582935
-6.2028336
-6.6551162
-7.1130243
-7.5742791
-8.0364027
-8.496516
-8.9519708
-9.3999254
-9.8375369
-10.261976
-10.670429
-11.060129
-11.428394
-11.772654
-12.090445
-12.379434
-12.637445
-12.862471
-13.052724
-13.206671
-13.323045
-13.400889
-13.439558
-13.438742
-13.398443
-13.318982
-13.200994
-13.045423
-12.853589
-12.626993
-12.367373
-12.076832
-11.757504
-11.411673
-11.041848
-10.650639
-10.240742
-9.8148813
-9.3758946
-8.9266115
-8.469898
-8.0085406
-7.5452099
-7.0827553
-6.6236746
-6.1702877
-5.7246802
-5.28876
-4.8642771
-4.4527809
-4.0555689
-3.6737577
-3.3083013
-2.959896
-2.6291441
-2.3165109
-2.0222906
-1.7467077
-1.4898174
-1.2516554
-1.0321686
-0.83131508
-0.64892854
-0.48482968
-0.33890264
-0.21098952
-0.10091294
-0.0085304447
0.066267751
0.12360457
0.16353815
0.18764641
0.18654366
0.19618911
0.19743248
0.17386199
0.13482342
0.078554082
0.0049375163
-0.086154105
-0.19490472
-0.32153514
-0.46619081
-0.62902374
-0.81025204
-1.010071
-1.2286305
-1.4660833
-1.7225486
-1.9980508
-2.2925394
-2.6058954
-2.937873
-3.2880711
-3.6559472
-4.0408165
-4.4418148
-4.8578594
-5.2876376
-5.7296102
-6.1820158
-6.6428812
-7.110037
-7.5811369
-8.0536604
-8.524502
-8.9910777
-9.4504228
-9.8995868
-10.335631
-10.755649
-11.156783
-11.536247
-11.891356
-12.219515
-12.518243
-12.785217
-13.018291
-13.215528
-13.375255
-13.496085
-13.57696
-13.617173
-13.616366
-13.574522
-13.49202
-13.369588
-13.208232
-13.009412
-12.774798
-12.50623
-12.205932
-11.876205
-11.519529
-11.138528
-10.735851
-10.31433
-9.8768425
-9.4262881
-8.9656155
-8.4977636
-8.0256901
-7.5519559
-7.0796594
-6.6113455
-6.1493911
-5.6959583
-5.2529529
-4.8221001
-4.404998
-4.0029453
-3.6169944
-3.2480423
-2.8967646
-2.5637353
-2.2493215
-1.9537628
-1.6772331
-1.4197438
-1.1812019
-0.96154472
-0.76070185
-0.5784626
-0.41460073
-0.26892684
-0.14125277
-0.031397225
0.060785855
0.13543659
0.19270846
0.23264167
0.25688183
0.25602351
0.28364999
0.28450842
0.26068973
0.22151741
0.16519503
0.091681799
0.00077899552
-0.1077509
-0.23408185
-0.37838864
-0.54091688
-0.7219162
-0.9216091
-1.140235
-1.3780228
-1.6351303
-1.9116502
-2.2076303
-2.5230306
-2.8576669
-3.2112168
-3.5832322
-3.9731025
-4.3800116
-4.8029147
-5.2405272
-5.6913182
-6.1535174
-6.6251222
-7.1038969
-7.5873792
-8.0728916
-8.5576236
-9.0384412
-9.5123475
-9.9762899
-10.427214
-10.8621
-11.277969
-11.671889
-12.041019
-12.382607
-12.693999
-12.972675
-13.216287
-13.422692
-13.590023
-13.716723
-13.80158
-13.843796
-13.842986
-13.799119
-13.712626
-13.584357
-13.415434
-13.207445
-12.962277
-12.682004
-12.369061
-12.025877
-11.655142
-11.259672
-10.842315
-10.405939
-9.9535569
-9.488181
-9.0128731
-8.5307155
-8.0447231
-7.5580396
-7.0734283
-6.593527
-6.1208009
-5.6575443
-5.2057567
-4.7671189
-4.3431638
-3.9351793
-3.5442328
-3.1711585
-2.8165006
-2.480828
-2.1644029
-1.8673868
-1.5898502
-1.3317454
-1.0929364
-0.8732884
-0.67261077
-0.49065322
-0.32715716
-0.18188175
-0.054613393
0.054846741
0.14668503
0.22109014
0.27823738
0.31813749
0.34250279
0.34191921
0.38714646
0.38762234
0.36361074
0.32438044
0.26818022
0.19490562
0.10431463
-0.003780929
-0.12957818
-0.27334314
-0.43535954
-0.61590565
-0.81528935
-1.0338341
-1.2718182
-1.5294703
-1.8069963
-2.1045441
-2.4221501
-2.7597302
-3.1170834
-3.4938664
-3.8895491
-4.3033832
-4.7343838
-5.1813122
-5.6426612
-6.116653
-6.6012443
-7.0941168
-7.5927029
-8.0941406
-8.5958568
-9.0941245
-9.5859063
-10.068029
-10.537292
-10.990519
-11.424574
-11.836369
-12.222887
-12.581194
-12.908424
-13.201802
-13.458699
-13.676691
-13.853643
-13.987766
-14.077665
-14.122422
-14.121624
-14.075228
-13.983692
-13.847991
-13.669455
-13.449898
-13.191438
-12.896423
-12.567637
-12.207744
-11.819652
-11.406299
-10.970723
-10.515998
-10.04524
-9.5616857
-9.0684961
-8.5688833
-8.0658754
-7.563196
-7.0634554
-6.5694918
-6.0838307
-5.6087525
-5.1463502
-4.6984067
-4.2664137
-3.851541
-3.4547881
-3.0769816
-2.7185497
-2.3799479
-2.0613426
-1.7627755
-1.4842799
-1.225669
-0.98671499
-0.76721578
-0.56688014
-0.38539672
-0.22247141
-0.077822225
0.048828112
0.15773058
0.24912137
0.32317915
0.38008781
0.41989231
0.44434615
0.44411385
0.50661261
0.50665618
0.48248725
0.44334794
0.38738205
0.31446115
0.22439684
0.11698127
-0.008066412
-0.1510493
-0.31227829
-0.49211662
-0.6909624
-0.90919009
-1.1471499
-1.4051889
-1.68363
-1.9827189
-2.3026031
-2.6433426
-3.0048774
-3.386977
-3.7892148
-4.2109423
-4.6512605
-5.1089924
-5.5826669
-6.0705105
-6.570435
-7.0800456
-7.5966764
-8.1174135
-8.6391458
-9.1582038
-9.6713782
-10.175293
-10.666545
-11.141764
-11.597647
-12.030951
-12.438483
-12.817092
-13.163651
-13.475061
-13.748321
-13.980624
-14.169476
-14.312803
-14.408984
-14.456928
-14.456143
-14.406589
-14.30879
-14.16387
-13.973389
-13.739508
-13.464709
-13.151679
-12.803546
-12.423325
-12.01419
-11.579324
-11.121924
-10.645224
-10.152493
-9.6471013
-9.1324875
-8.6120686
-8.0890324
-7.5670379
-7.0492096
-6.5384506
-6.0374684
-5.5485843
-5.0738568
-4.615086
-4.1737821
-3.7510702
-3.3478198
-2.9647345
-2.6021627
-2.2604076
-1.939529
-1.6394779
-1.3601223
-1.1011584
-0.86228152
-0.64315825
-0.44340606
-0.26266514
-0.10058062
0.043212954
0.16905356
0.27721033
0.36797445
0.44154627
0.49812959
0.53778801
0.56230759
0.56247244
0.64188186
0.64146196
0.61723033
0.57824623
0.52260568
0.45024248
0.36094532
0.25443296
0.13039582
-0.011494569
-0.17163131
-0.35046438
-0.54844785
-0.76602873
-1.0036744
-1.2618567
-1.5410078
-1.8415011
-2.163646
-2.5076658
-2.8736514
-3.2615141
-3.6709671
-4.101497
-4.5523181
-5.0223368
-5.5101325
-6.0139433
-6.5316456
-7.0607584
-7.5984844
-8.1417553
-8.6872549
-9.2307361
-9.7690958
-10.298659
-10.815768
-11.316849
-11.798436
-12.257146
-12.689622
-13.092475
-13.462257
-13.795453
-14.088576
-14.338323
-14.541737
-14.696355
-14.800248
-14.852101
-14.851322
-14.797874
-14.692377
-14.536169
-14.331098
-14.079753
-13.785072
-13.450298
-13.078921
-12.674448
-12.24036
-11.780047
-11.296912
-10.794317
-10.275783
-9.7447572
-9.2049335
-8.6600423
-8.1131775
-7.5686312
-7.0297175
-6.4994523
-5.980657
-5.4758089
-4.9870034
-4.5159657
-4.064157
-3.6326579
-3.2222595
-2.8334229
-2.4664549
-2.1214991
-1.7983883
-1.4969744
-1.2169374
-0.95785505
-0.71932255
-0.50087707
-0.30204683
-0.12238496
0.038550702
0.18120218
0.30596992
0.41317038
0.50310998
0.57603215
0.63218694
0.67163132
0.69620068
0.69679005
0.79277757
0.79189751
0.76761694
0.72884147
0.67370165
0.60211108
0.51379346
0.40845122
0.28575442
0.14529588
-0.013402663
-0.19084292
-0.38754504
-0.60407332
-0.84102399
-1.0989842
-1.3785166
-1.6801685
-2.00444
-2.351727
-2.7222942
-3.1162413
-3.5334675
-3.9736285
-4.436083
-4.9198519
-5.4235902
-5.9455609
-6.4836105
-7.035158
-7.5972402
-8.1666165
-8.7401304
-9.3117616
-9.8794413
-10.438825
-10.985938
-11.517008
-12.028432
-12.516728
-12.978417
-13.409884
-13.807285
-14.166573
-14.483636
-14.75452
-14.975635
-15.143973
-15.257223
-15.31382
-15.313056
-15.254888
-15.140027
-14.970095
-14.74732
-14.474861
-14.156176
-13.795313
-13.396289
-12.963205
-12.499903
-12.009999
-11.496994
-10.964355
-10.415748
-9.8548971
-9.2857722
-8.7127477
-8.137834
-7.5671552
-7.0038613
-6.4511827
-5.9120248
-5.3889719
-4.884234
-4.3994762
-3.9360931
-3.4949586
-3.0768753
-2.6820215
-2.310557
-1.9623687
-1.637158
-1.3346164
-1.0542007
-0.79534762
-0.55753702
-0.3401823
-0.14268552
0.035513732
0.19495439
0.33613101
0.45948679
0.56544531
0.6543409
0.72645907
0.782065
0.82121456
0.84579503
0.84684333
0.95909383
0.95767378
0.93336124
0.89494014
0.84047475
0.76983993
0.68275831
0.57891546
0.45790795
0.31925266
0.16242541
-0.013138558
-0.20806883
-0.42305345
-0.65880235
-0.91603967
-1.1955033
-1.4979349
-1.8240354
-2.1744049
-2.5495237
-2.9497294
-3.3751533
-3.8256609
-4.3007979
-4.7997441
-5.3212717
-5.8637018
-6.4248545
-7.0020278
-7.5919822
-8.1910112
-8.7946861
-9.4009777
-10.002919
-10.596724
-11.178311
-11.743759
-12.289399
-12.811746
-13.307285
-13.772211
-14.202251
-14.592687
-14.938558
-15.234992
-15.477533
-15.662473
-15.787036
-15.849366
-15.848609
-15.784743
-15.658594
-15.472076
-15.227866
-14.929866
-14.582304
-14.190282
-13.758602
-13.292038
-12.794854
-12.270872
-11.723613
-11.156563
-10.573403
-9.9780945
-9.374699
-8.7669762
-8.1619748
-7.5616537
-6.9704526
-6.3921316
-5.8298809
-5.2863717
-4.7638823
-4.2639687
-3.7879502
-3.3365022
-2.9102421
-2.5091483
-2.1331937
-1.7819795
-1.454988
-1.1516768
-0.87133803
-0.61324666
-0.37669461
-0.16094408
0.034730581
0.21099781
0.36850165
0.50782779
0.62946253
0.73388488
0.82147679
0.89259043
0.94748878
0.98625358
1.010807
1.0123697
1.1404851
1.1384641
1.1142264
1.076277
1.0226307
0.95318529
0.86765047
0.76564465
0.64669985
0.51029619
0.3558567
0.18271829
-0.0098663996
-0.22269558
-0.45660143
-0.71247946
-0.99127755
-1.2939363
-1.6213703
-1.9744354
-2.3538854
-2.7603414
-3.194214
-3.6556324
-4.1443918
-4.6598969
-5.2010923
-5.7663803
-6.3535643
-6.9598274
-7.5817275
-8.2152847
-8.856053
-9.4998814
-10.140625
-10.773707
-11.394547
-11.999003
-12.583435
-13.144516
-13.678876
-14.182661
-14.651179
-15.078839
-15.459451
-15.786811
-16.055292
-16.26029
-16.398457
-16.467642
-16.466883
-16.396188
-16.256488
-16.049949
-15.779807
-15.450865
-15.068548
-14.639222
-14.169023
-13.663553
-13.127517
-12.56474
-11.978654
-11.372562
-10.750118
-10.115508
-9.4732786
-8.8280409
-8.1859399
-7.5511072
-6.9279976
-6.3205985
-5.7323349
-5.165998
-4.6237908
-4.1073157
-3.6176724
-3.1553793
-2.7206846
-2.3133891
-1.9331101
-1.5792422
-1.2510036
-0.94752508
-0.66788456
-0.41116929
-0.17648668
0.037052355
0.23031821
0.40411985
0.55918449
0.69619207
0.81572324
0.91828453
1.004306
1.0741819
1.128195
1.1664643
1.1909273
1.1930612
1.3365955
1.3339722
1.3098679
1.2724866
1.2198598
1.1518813
1.0681994
0.96838376
0.85194411
0.71831616
0.5668348
0.39673812
0.20718624
-0.0027363844
-0.23402599
-0.48776535
-0.76510927
-1.067226
-1.3952793
-1.7504281
-2.1337591
-2.5462244
-2.9885723
-3.461273
-3.9644575
-4.4978271
-5.0605491
-5.6511663
-6.2675191
-6.9066842
-7.5649725
-8.2380209
-8.9209062
-9.6084855
-10.293674
-10.971565
-11.636876
-12.285203
-12.913055
-13.517583
-14.095975
-14.644663
-15.158593
-15.630973
-16.053774
-16.418794
-16.718717
-16.947809
-17.10217
-17.179478
-17.178731
-17.099932
-16.944081
-16.713454
-16.411943
-16.045291
-15.620788
-15.146676
-14.630973
-14.080542
-13.500423
-12.89416
-12.264609
-11.614602
-10.947656
-10.268219
-9.5815413
-8.8925644
-8.2083621
-7.5340368
-6.8745424
-6.2342564
-5.6167871
-5.0251753
-4.461457
-3.9271057
-3.4230261
-2.9495021
-2.5063736
-2.0931456
-1.7089963
-1.3530386
-1.0242147
-0.72134092
-0.4432254
-0.18869788
0.043343516
0.25394032
0.44410594
0.61480885
0.76688155
0.90107352
1.0180455
1.1183566
1.2025
1.2708858
1.3238458
1.3615022
1.3858212
1.3885638
1.5470516
1.5437763
1.5198444
1.4831917
1.4318142
1.3655599
1.2840474
1.186837
1.073405
0.94311781
0.79522592
0.62889019
0.44317887
0.23703857
0.0092863574
-0.24135564
-0.51624379
-0.81680601
-1.1445192
-1.5008814
-1.8873587
-2.3053008
-2.755873
-3.2399838
-3.7581931
-4.310591
-4.8966637
-5.5151656
-6.1640241
-6.8402545
-7.5399047
-8.258071
-8.9890706
-9.7265866
-10.463654
-11.192885
-11.908449
-12.605655
-13.281355
-13.933734
-14.561358
-15.161655
-15.729403
-16.256093
-16.730768
-17.142023
-17.48007
-17.737899
-17.911304
-17.998084
-17.997372
-17.909128
-17.734291
-17.474891
-17.135288
-16.722371
-16.24601
-15.717561
-15.147965
-14.545843
-13.916405
-13.262248
-12.584806
-11.8859
-11.168672
-10.437847
-9.6992666
-8.9603389
-8.2280198
-7.508646
-6.8077992
-6.130428
-5.4804277
-4.8609264
-4.2738815
-3.7205516
-3.2014714
-2.7165655
-2.2652298
-1.846536
-1.4592594
-1.1021087
-0.77366213
-0.47240496
-0.19683154
0.054502694
0.28294194
0.48972987
0.67603331
0.84292392
0.99135669
1.1221798
1.2361054
1.3337584
1.4156844
1.4823202
1.5340405
1.570954
1.5950728
1.5984516
1.771343
1.7673671
1.7437204
1.7079572
1.6580243
1.5937599
1.5147869
1.4206456
1.3107535
1.1844168
1.0408321
0.87908683
0.69813409
0.49677142
0.27364333
0.027272123
-0.24392615
-0.54167399
-0.86780412
-1.2241952
-1.6127399
-2.0352707
-2.4934732
-2.9888029
-3.5223604
-4.0947383
-4.7058686
-5.3548471
-6.0397753
-6.7576624
-7.5043007
-8.2742137
-9.0607886
-9.8562896
-10.653545
-11.441639
-12.213898
-12.965003
-13.692328
-14.395999
-15.077455
-15.73659
-16.368604
-16.962402
-17.502033
-17.970739
-18.355071
-18.646739
-18.841945
-18.939368
-18.938707
-18.839875
-18.643287
-18.350061
-17.964226
-17.493797
-16.952427
-16.356804
-15.722909
-15.061863
-14.378539
-13.673042
-12.94389
-12.191023
-11.417054
-10.627328
-9.8285759
-9.0316785
-8.2437275
-7.4725549
-6.7247223
-6.0057371
-5.3197218
-4.6698113
-4.0577039
-3.4844164
-2.9499609
-2.4538031
-1.9948749
-1.5716559
-1.1823782
-0.82527095
-0.4984667
-0.20005021
0.071807746
0.31882188
0.54257791
0.74453374
0.92604707
1.0883034
1.232371
1.3591929
1.4695323
1.5640897
1.6434399
1.708059
1.7583248
1.7943609
1.8181866
1.8222313
2.0088966
2.0042322
1.9809744
1.9462255
1.8979383
1.8359779
1.7599471
1.6693483
1.5635614
1.4418546
1.3033804
1.1471386
0.97196364
0.77651796
0.55928278
0.31857147
0.052537943
-0.24085726
-0.56382903
-0.91868863
-1.3078179
-1.7336254
-2.1984348
-2.7043712
-3.2532151
-3.8462228
-4.4839318
-5.1659535
-5.8907369
-6.6553777
-7.4554727
-8.2849825
-9.1362783
-10.000302
-10.867503
-11.723656
-12.560168
-13.370161
-14.151542
-14.907689
-15.645627
-16.370805
-17.080405
-17.759339
-18.382731
-18.924235
-19.364579
-19.694817
-19.91359
-20.0221
-20.021492
-19.911673
-19.691602
-19.359872
-18.917998
-18.374796
-17.749524
-17.068619
-16.357066
-15.629959
-14.890109
-14.132043
-13.348746
-12.536876
-11.698583
-10.840806
-9.9720855
-9.1066352
-8.2539887
-7.4232437
-6.6219757
-5.8562382
-5.1303968
-4.4474231
-3.8087745
-3.2148734
-2.6652034
-2.158445
-1.6929156
-1.2664429
-0.8766117
-0.52110674
-0.19754463
0.096470506
0.36312589
0.60443265
0.82225245
1.018249
1.1939335
1.3506373
1.4895516
1.6116939
1.7178884
1.8088808
1.8852664
1.9475586
1.9961372
2.0311448
2.0545805
2.0593178
2.2591135
2.2537621
2.2309536
2.1973645
2.1509696
2.0916378
2.0189484
1.9323844
1.8313136
1.7149776
1.582476
1.4327231
1.2644536
1.0762125
0.866323
0.63287718
0.37374052
0.086547302
-0.23131192
-0.58264157
-0.97039985
-1.3976655
-1.8675219
-2.3829099
-2.9464659
-3.5603199
-4.2258376
-4.9433615
-5.7119112
-6.5288774
-7.3897892
-8.2880559
-9.2148485
-10.159191
-11.108128
-12.047274
-12.957895
-13.832053
-14.667566
-15.472657
-16.264821
-17.061603
-17.866281
-18.657659
-19.393902
-20.030185
-20.537363
-20.908275
-21.149198
-21.267256
-21.266709
-21.147504
-20.905367
-20.53312
-20.024339
-19.386292
-18.648089
-17.854635
-17.047835
-16.249022
-15.454906
-14.647859
-13.810399
-12.934253
-12.021664
-11.080831
-10.130387
-9.1846093
-8.2564979
-7.3569813
-6.494895
-5.6768113
-4.9072694
-4.1887902
-3.5223975
-2.9076855
-2.3433412
-1.8271496
-1.3566006
-0.92870543
-0.54030305
-0.18840603
0.12997012
0.41772915
0.67745541
0.91145532
1.1218755
1.3106329
1.479366
1.629538
1.7624466
1.8791748
1.9806232
2.0675421
2.1405598
2.2001947
2.2468528
2.2806573
2.303612
2.3090392
2.5212828
2.5152374
2.4929612
2.4607044
2.4164426
2.360048
2.2911054
2.2091009
2.1133942
2.0031997
1.8775691
1.7353638
1.5752395
1.3956301
1.1947042
0.97034389
0.72012373
0.44133311
0.13095126
-0.21436661
-0.59824523
-1.0245356
-1.4972102
-2.0202003
-2.5972214
-3.2315305
-3.9256144
-4.6808435
-5.4971154
-6.372421
-7.3024285
-8.280152
-9.2956748
-10.336169
-11.385718
-12.42695
-13.423846
-14.368703
-15.254937
-16.096291
-16.929186
-17.797281
-18.720648
-19.669086
-20.566781
-21.331091
-21.914942
-22.320238
-22.573907
-22.695395
-22.694952
-22.572507
-22.317707
-21.911128
-21.325836
-20.559695
-19.659896
-18.709168
-17.7835
-16.913287
-16.078444
-15.235142
-14.346856
-13.399809
-12.400619
-11.357743
-10.306665
-9.2647153
-8.2478201
-7.2688595
-6.3377096
-5.4613572
-4.6441251
-3.8880049
-3.1930459
-2.5579478
-1.9801901
-1.4564837
-0.98317508
-0.55627136
-0.17177922
0.17407962
0.48494555
0.76422819
1.014976
1.2398598
1.4412627
1.6213249
1.7818582
1.9244558
2.0504753
2.1610332
2.2570764
2.3393764
2.4086088
2.4652705
2.5097868
2.5422232
2.5646078
2.5706981
2.7946048
2.7879169
2.7662731
2.7354909
2.6935713
2.6404229
2.5756477
2.4987395
2.4090505
2.3057811
2.1879582
2.0544189
1.9037655
1.7343349
1.5441528
1.3309015
1.0919043
0.82409553
0.52400848
0.18771896
-0.18913321
-0.61127816
-1.0837227
-1.6115965
-2.199951
-2.8534847
-3.5761797
-4.3708475
-5.2386487
-6.1785891
-7.1869136
-8.2565518
-9.3767642
-10.53292
-11.707289
-12.885318
-13.982168
-15.010376
-15.940648
-16.788968
-17.624461
-18.546696
-19.620212
-20.803833
-21.950919
-22.897736
-23.561773
-23.974134
-24.21521
-24.325627
-24.325315
-24.214253
-23.972222
-23.558523
-22.893028
-21.944424
-20.795018
-19.6087
-18.532728
-17.60849
-16.771228
-15.921056
-14.988603
-13.957846
-12.857693
-11.678635
-10.502637
-9.3449621
-8.223373
-7.1524927
-6.143079
-5.2021564
-4.333442
-3.537915
-2.8143697
-2.1601019
-1.5710677
-1.0425597
-0.56951595
-0.14679666
0.23058301
0.56735416
0.86789808
1.1361441
1.3755834
1.5893097
1.7799412
1.9497755
2.1007955
2.2347039
2.3528899
2.4565007
2.5464779
2.6236321
2.6886575
2.7420382
2.7841778
2.8151069
2.8368342
2.8435561
3.0783169
3.0710521
3.0500724
3.0208672
2.9814913
2.9318972
2.871702
2.8004073
2.7173776
2.6218256
2.5127764
2.3890593
2.2492535
2.0916358
1.9141169
1.7142031
1.4890004
1.2351255
0.94863164
0.62498316
0.25903523
-0.15492767
-0.62310769
-1.1520607
-1.7484749
-2.4188785
-3.1692065
-4.0042513
-4.9270075
-5.9379781
-7.0345272
-8.2101681
-9.4536389
-10.748052
-12.068206
-13.371074
-14.659177
-15.809369
-16.778825
-17.576793
-18.323788
-19.23694
-20.49775
-22.062238
-23.631781
-24.86165
-25.590445
-25.929025
-26.093251
-26.152744
-26.152513
-26.092798
-25.927854
-25.587916
-24.857583
-23.625985
-22.053822
-20.485968
-19.222432
-18.307614
-17.559351
-16.759812
-15.788169
-14.635504
-13.345727
-12.039417
-10.717034
-9.4209075
-8.1760199
-6.9991579
-5.9015856
-4.8896647
-3.9660855
-3.130257
-2.3791621
-1.7080251
-1.1109737
-0.58145802
-0.1127155
0.30176879
0.66816478
0.99222937
1.2791332
1.5334087
1.7589853
1.9592977
2.1372268
2.2952231
2.4353842
2.5594419
2.6688023
2.7646523
2.8479224
2.9194372
2.9798543
3.0296558
3.0691887
3.0984952
3.1195335
3.1268526
3.3718806
3.3638667
3.3434583
3.3158983
3.279251
3.2334924
3.1782573
3.1130719
3.0373316
2.950275
2.8509508
2.7382113
2.610658
2.4665354
2.3036939
2.1195252
1.9109469
1.6743062
1.4051904
1.0984357
0.74808409
0.34734337
-0.11136521
-0.63626557
-1.2360272
-1.919474
-2.6950538
-3.5701619
-4.5503795
-5.6385572
-6.8339351
-8.1313173
-9.5200764
-10.983554
-12.498372
-14.030746
-15.535886
-16.863998
-17.882086
-18.531389
-18.988125
-19.707388
-21.180096
-23.416419
-25.775278
-27.489406
-28.207893
-28.247045
-28.179039
-28.097069
-28.096736
-28.17896
-28.24665
-28.205998
-27.486194
-25.77057
-23.408408
-21.167277
-19.691548
-18.971677
-18.514841
-17.864332
-16.843653
-15.512189
-14.003788
-12.468418
-10.95137
-9.4862312
-8.0961062
-6.7975523
-5.6011905
-4.5121534
-3.5311709
-2.6553568
-1.8790731
-1.194929
-0.59458755
-0.069178869
0.39003702
0.79123596
1.1419873
1.4491169
1.7185766
1.955549
2.1644546
2.3489687
2.512169
2.6566357
2.7845252
2.897563
2.9971414
3.084435
3.1603779
3.2257618
3.281191
3.3271297
3.3638935
3.3915197
3.4119722
3.4200471
3.6749114
3.6654702
3.6454416
3.619562
3.5857791
3.544105
3.494185
3.4355803
3.3677203
3.2898846
3.2011846
3.1005441
2.9866242
2.8576791
2.7115695
2.5456678
2.3567632
2.1409661
1.8934884
1.6085523
1.2793686
0.89801156
0.45537063
-0.058723331
-0.65532578
-1.3460749
-2.1425989
-3.0557141
-4.094518
-5.2652539
-6.5700494
-8.0058317
-9.563385
-11.227492
-12.979799
-14.79789
-16.627456
-18.317077
-19.477005
-19.848293
-19.595773
-19.620129
-21.230637
-24.744892
-28.690366
-31.328268
-31.827126
-31.00504
-30.400274
-30.018327
-30.017386
-30.400832
-31.005309
-31.825322
-31.326169
-28.687851
-24.737422
-21.214635
-19.601289
-19.579414
-19.834114
-19.461955
-18.298393
-16.6031
-14.769307
-12.948096
-11.19363
-9.5279918
-7.9692885
-6.5325439
-5.2268866
-4.0553631
-3.0158468
-2.1021073
-1.304944
-0.61357552
-0.016455418
0.49811505
0.94121214
1.3229714
1.652506
1.9377789
2.1855564
2.4016095
2.5907866
2.7569871
2.9033931
3.0326295
3.1468387
3.2477306
3.3366474
3.4146648
3.4827019
3.5414832
3.591571
3.6333803
3.6672629
3.6931994
3.7132828
3.7227739
3.9860362
3.9746327
3.9548256
3.9306858
3.8998998
3.8625374
3.8182646
3.7666554
3.7071863
3.6392161
3.5619617
3.4744642
3.3754602
3.2633083
3.135957
2.9908626
2.8248095
2.633729
2.4125652
2.1550276
1.8535095
1.4989262
1.0805343
0.58593382
0.0012367279
-0.68859717
-1.4991921
-2.445849
-3.5423888
-4.7996506
-6.223823
-7.8150662
-9.5660348
-11.461599
-13.488895
-15.660173
-17.997063
-20.382511
-22.005553
-22.050276
-20.286766
-18.296165
-19.495849
-25.565882
-32.880068
-37.495227
-37.252563
-34.238128
-32.567906
-31.395724
-31.392715
-32.569691
-34.23793
-37.24975
-37.494519
-32.881161
-25.558966
-19.471611
-18.271928
-20.272974
-22.042261
-21.995858
-20.367578
-17.971537
-15.628953
-13.454673
-11.425543
-9.5288412
-7.7770599
-6.1851138
-4.7602473
-3.5022843
-2.4051264
-1.4579197
-0.6467701
0.043600103
0.62879771
1.1238803
1.5426955
1.8976392
2.1994547
2.4572594
2.678679
2.8699685
3.0362332
3.1815453
3.3091025
3.4214873
3.52073
3.6084424
3.6858789
3.7539896
3.8136123
3.8653787
3.9097992
3.9472573
3.9781181
4.002311
4.0221805
4.0336321
4.3035168
4.2898611
4.270195
4.2479689
4.2203537
4.1875312
4.1491733
4.104894
4.054232
3.9966666
3.9315557
3.858069
3.7750922
3.6811996
3.5745287
3.452712
3.3126634
3.1503254
2.9604771
2.7364752
2.4700286
2.1509163
1.7666921
1.3025237
0.74125541
0.063723947
-0.75068694
-1.7230952
-2.8736769
-4.2195197
-5.7722128
-7.5363241
-9.5067675
-11.662685
-13.980245
-16.515524
-19.491846
-22.97354
-26.206154
-26.455148
-21.89369
-14.711059
-12.983239
-24.371992
-39.583072
-48.956198
-46.768515
-38.063301
-34.156829
-29.942285
-29.94085
-34.151042
-38.054915
-46.761584
-48.957075
-39.587609
-24.368462
-12.942734
-14.683943
-21.891898
-26.461618
-26.204913
-22.952597
-19.460659
-16.479418
-13.942417
-11.624003
-9.4675912
-7.4967685
-5.7322537
-4.1790756
-2.8326546
-1.6815007
-0.70859655
0.10627802
0.78425729
1.346001
1.8106464
2.1952695
2.5147076
2.7814171
3.0056198
3.1956537
3.3581565
3.4983686
3.6203187
3.7270965
3.8211456
3.9043019
3.9779717
4.0432249
4.1008975
4.1516792
4.1960956
4.23458
4.2674848
4.2951438
4.31741
4.3371253
4.3508343
4.625949
4.6092515
4.5899618
4.5701003
4.5458221
4.517742
4.4855061
4.4487902
4.4072458
4.360486
4.3079986
4.2491542
4.1830799
4.108653
4.0243389
3.9280624
3.8169927
3.6873612
3.5339858
3.3500821
3.1269158
2.8532913
2.5150549
2.0948574
1.571909
0.92207902
0.11851676
-0.86739664
-2.0644066
-3.4983375
-5.1879662
-7.1437843
-9.3664187
-11.824042
-14.431252
-17.191666
-20.721125
-26.222765
-33.173514
-36.172522
-27.554562
-7.7132353
5.5703826
-15.689611
-50.815676
-72.911774
-70.262717
-50.551993
-29.656509
-16.729504
-16.72564
-29.632445
-50.516475
-70.255078
-72.92178
-50.827517
-15.725924
5.6177219
-7.7029216
-27.584055
-36.210146
-33.190009
-26.202911
-20.679789
-17.148233
-14.388926
-11.78232
-9.3251559
-7.1027258
-5.1468427
-3.4569127
-2.0225233
-0.82497645
0.1614151
0.96539352
1.6156195
2.1389997
2.5596354
2.8982536
3.1721738
3.3955595
3.5796102
3.733099
3.8628359
3.9740141
4.0703466
4.1546864
4.2291716
4.2953458
4.3543288
4.4069239
4.4537717
4.4953975
4.5322157
4.5645479
4.5927075
4.6170199
4.6368991
4.6562169
4.6729841
4.951833
4.9305627
4.9127379
4.8957272
4.8749315
4.8517656
4.8257919
4.7967817
4.7645201
4.7287755
4.6891139
4.6452722
4.5966533
4.54253
4.4818102
4.412895
4.3333974
4.2401114
4.1282223
3.9911483
3.8200757
3.6031479
3.3247576
2.9650668
2.4993319
1.8976448
1.1254037
0.1442893
-1.0860388
-2.6039162
-4.4380462
-6.6055164
-9.1214106
-11.957882
-14.903185
-17.54087
-20.69008
-28.090704
-44.388467
-59.143106
-46.444062
1.4765204
45.865672
21.064373
-43.574589
-102.60979
-121.25536
-83.10043
-11.050743
37.880786
37.902992
-10.978872
-83.018776
-121.23555
-102.66347
-43.75346
20.891391
45.935272
1.4873471
-46.500762
-59.240282
-44.43995
-28.055026
-20.626482
-17.488321
-14.855863
-11.91328
-9.0784839
-6.5633381
-4.3960306
-2.5616915
-1.0433824
0.18746981
1.1690614
1.9417159
2.5437979
3.0099301
3.3700054
3.6487562
3.8659581
4.0371884
4.1743432
4.2862837
4.3796194
4.4591604
4.5280419
4.5887189
4.6428084
4.6914381
4.7353509
4.7750816
4.8108965
4.84321
4.8722772
4.8983095
4.921535
4.9423785
4.9593681
4.9772044
4.9985868
5.2745952
5.253977
5.2386365
5.2233032
5.2063583
5.1881996
5.1685447
5.1472601
5.1242485
5.0994157