/*--------------------------------*- C++ -*----------------------------------*\
  =========                 |
  \\      /  F ield         | OpenFOAM: The Open Source CFD Toolbox
   \\    /   O peration     | Website:  https://openfoam.org
    \\  /    A nd           | Version:  9
     \\/     M anipulation  |
\*---------------------------------------------------------------------------*/
FoamFile
{
    format      ascii;
    class       volVectorField;
    location    "0.08";
    object      U;
}
// * * * * * * * * * * * * * * * * * * * * * * * * * * * * * * * * * * * * * //

dimensions      [0 1 -1 0 0 0 0];

internalField   nonuniform List<vector> 
10000
(
(-0.0082238205 0.0082501875 0)
(-0.018376851 0.0082510646 0)
(-0.023947215 0.0082878723 0)
(-0.030654342 0.0083142941 0)
(-0.037310272 0.0083488938 0)
(-0.044003679 0.008386048 0)
(-0.0507368 0.0084244146 0)
(-0.057512223 0.0084633059 0)
(-0.064329525 0.0085005231 0)
(-0.07118712 0.0085310105 0)
(-0.078081779 0.0085512215 0)
(-0.085006139 0.0085590031 0)
(-0.091952149 0.0085473325 0)
(-0.098908282 0.0085145595 0)
(-0.10585163 0.0084580729 0)
(-0.11276261 0.0083684455 0)
(-0.1196208 0.0082412227 0)
(-0.12639405 0.0080742409 0)
(-0.13304551 0.0078608359 0)
(-0.1395369 0.0075934623 0)
(-0.14582653 0.0072673062 0)
(-0.15186426 0.0068798018 0)
(-0.15759592 0.0064240398 0)
(-0.16296489 0.0058951393 0)
(-0.16790987 0.0052900275 0)
(-0.17236457 0.004608383 0)
(-0.17625895 0.0038487499 0)
(-0.17952012 0.0030088146 0)
(-0.18206828 0.002088931 0)
(-0.1838227 0.0010853744 0)
(-0.18470382 -8.3213432e-06 0)
(-0.18477922 -0.0012157355 0)
(-0.18396583 -0.0024309879 0)
(-0.1820521 -0.0036852064 0)
(-0.17901991 -0.0049910645 0)
(-0.17485695 -0.0063381473 0)
(-0.16954126 -0.0077117442 0)
(-0.16305779 -0.0090940189 0)
(-0.1554033 -0.010467217 0)
(-0.14659041 -0.011813452 0)
(-0.13664722 -0.013113526 0)
(-0.12561655 -0.014345059 0)
(-0.11355566 -0.015487734 0)
(-0.10053785 -0.016523919 0)
(-0.086653074 -0.017439785 0)
(-0.072006018 -0.018222524 0)
(-0.056716147 -0.018855585 0)
(-0.04090817 -0.019326487 0)
(-0.024712063 -0.01963276 0)
(-0.0082735815 -0.019778027 0)
(0.0082656879 -0.019778035 0)
(0.024704415 -0.019632796 0)
(0.040900311 -0.019326504 0)
(0.056708159 -0.018855516 0)
(0.071997729 -0.018222496 0)
(0.086644394 -0.017439293 0)
(0.10052907 -0.016523734 0)
(0.113547 -0.015487538 0)
(0.12560789 -0.014344722 0)
(0.13663837 -0.013113022 0)
(0.14658165 -0.0118129 0)
(0.15539461 -0.010466729 0)
(0.16304878 -0.0090935831 0)
(0.16953209 -0.0077112869 0)
(0.17484752 -0.0063378891 0)
(0.17900974 -0.0049910051 0)
(0.18204088 -0.003685256 0)
(0.18395366 -0.0024310347 0)
(0.18476602 -0.0012157807 0)
(0.18468951 -8.1088684e-06 0)
(0.18380739 0.0010858366 0)
(0.18205233 0.0020894909 0)
(0.17950355 0.0030091117 0)
(0.17624134 0.0038486855 0)
(0.17234571 0.0046081841 0)
(0.16789003 0.0052900523 0)
(0.16294481 0.0058953706 0)
(0.1575762 0.0064239364 0)
(0.15184467 0.0068789235 0)
(0.14580639 0.0072659023 0)
(0.13951605 0.0075920595 0)
(0.13302483 0.0078594857 0)
(0.12637429 0.0080731359 0)
(0.11960188 0.0082398109 0)
(0.11274467 0.0083663026 0)
(0.1058333 0.0084550749 0)
(0.098889748 0.0085118492 0)
(0.091935257 0.0085446658 0)
(0.084990642 0.0085560864 0)
(0.078067609 0.0085480562 0)
(0.071174846 0.0085274364 0)
(0.064319435 0.0084960421 0)
(0.057504573 0.0084582068 0)
(0.050732252 0.008418742 0)
(0.044002649 0.0083786512 0)
(0.037312286 0.008339505 0)
(0.030659327 0.0083028997 0)
(0.023938039 0.0082719857 0)
(0.018377122 0.0082427447 0)
(0.0082339294 0.0082408372 0)
(-0.0082285204 0.01823651 0)
(-0.018348852 0.018247602 0)
(-0.023888307 0.018321721 0)
(-0.030593063 0.018385935 0)
(-0.037235083 0.018464654 0)
(-0.043921986 0.018554496 0)
(-0.050650951 0.018651287 0)
(-0.057425336 0.018749618 0)
(-0.064248911 0.018843367 0)
(-0.071121438 0.018926629 0)
(-0.078036579 0.018991946 0)
(-0.084990665 0.019030173 0)
(-0.091975042 0.01903377 0)
(-0.098973746 0.01899326 0)
(-0.10597153 0.018897742 0)
(-0.11295074 0.018734131 0)
(-0.11988391 0.01849428 0)
(-0.12674107 0.018163491 0)
(-0.13349068 0.01772954 0)
(-0.1400929 0.017181184 0)
(-0.14650121 0.016505037 0)
(-0.15266772 0.015687879 0)
(-0.15854063 0.014718855 0)
(-0.16405977 0.013587462 0)
(-0.16915945 0.012284733 0)
(-0.17377176 0.010802297 0)
(-0.1778287 0.0091342219 0)
(-0.18125549 0.0072780118 0)
(-0.18397327 0.0052313784 0)
(-0.18590665 0.0029896768 0)
(-0.18699224 0.00054473394 0)
(-0.18718128 -0.0021280886 0)
(-0.18640532 -0.0048833646 0)
(-0.18457237 -0.0077432131 0)
(-0.18162289 -0.010712895 0)
(-0.17751775 -0.013770136 0)
(-0.17222818 -0.016883852 0)
(-0.16573652 -0.020017546 0)
(-0.15803962 -0.023132776 0)
(-0.1491487 -0.02618782 0)
(-0.13908851 -0.029139038 0)
(-0.12790137 -0.031943452 0)
(-0.11564877 -0.034559274 0)
(-0.10240944 -0.036944963 0)
(-0.088277722 -0.039061379 0)
(-0.07335746 -0.040874414 0)
(-0.057768709 -0.042356763 0)
(-0.041648022 -0.043482359 0)
(-0.025140714 -0.044237144 0)
(-0.0084107161 -0.044614878 0)
(0.0084039434 -0.044614903 0)
(0.025134219 -0.044237231 0)
(0.041641474 -0.043482521 0)
(0.057761993 -0.042356923 0)
(0.073350749 -0.04087469 0)
(0.088270319 -0.039061534 0)
(0.10240148 -0.036944875 0)
(0.11564115 -0.034558987 0)
(0.12789375 -0.031943154 0)
(0.13908045 -0.029138623 0)
(0.14914036 -0.026187212 0)
(0.15803122 -0.02313202 0)
(0.1657279 -0.020016685 0)
(0.17221929 -0.016882903 0)
(0.17750828 -0.013769283 0)
(0.18161262 -0.010712022 0)
(0.18456119 -0.0077424496 0)
(0.18639327 -0.0048826052 0)
(0.18716844 -0.0021272493 0)
(0.18697849 0.00054583931 0)
(0.18589176 0.0029909874 0)
(0.18395721 0.0052327939 0)
(0.18123842 0.007279271 0)
(0.17781077 0.0091353276 0)
(0.17375303 0.010803221 0)
(0.16913994 0.012285364 0)
(0.16403951 0.013587597 0)
(0.15851981 0.014718247 0)
(0.15264671 0.015686506 0)
(0.14648011 0.016503242 0)
(0.14007143 0.017179281 0)
(0.13346944 0.01772756 0)
(0.12672025 0.018160828 0)
(0.11986271 0.018490854 0)
(0.1129296 0.018730132 0)
(0.1059506 0.01889319 0)
(0.098953311 0.018989231 0)
(0.091955735 0.019029769 0)
(0.084972678 0.019025654 0)
(0.078020026 0.018986651 0)
(0.071106321 0.018920166 0)
(0.064235691 0.018835607 0)
(0.057414493 0.01874008 0)
(0.050641506 0.018639833 0)
(0.043913747 0.018541157 0)
(0.037228454 0.018448871 0)
(0.030585388 0.018367673 0)
(0.023873283 0.018302718 0)
(0.018342505 0.018242326 0)
(0.0082310282 0.018233389 0)
(-0.0082197265 0.023947829 0)
(-0.018302751 0.023971033 0)
(-0.023812712 0.024056014 0)
(-0.030509688 0.024148322 0)
(-0.037135244 0.024260747 0)
(-0.043807223 0.024390559 0)
(-0.05052887 0.024532265 0)
(-0.057304765 0.024678391 0)
(-0.064135297 0.02482054 0)
(-0.071020361 0.024951649 0)
(-0.07795936 0.025062674 0)
(-0.084945265 0.025140277 0)
(-0.091970612 0.025175766 0)
(-0.099026274 0.025155222 0)
(-0.10609361 0.025062532 0)
(-0.11315053 0.024882999 0)
(-0.12017771 0.02460541 0)
(-0.12714672 0.024208532 0)
(-0.13401788 0.023676457 0)
(-0.14075407 0.022993587 0)
(-0.14731491 0.022143087 0)
(-0.15364767 0.021105888 0)
(-0.15969579 0.019867741 0)
(-0.16540037 0.018414675 0)
(-0.17069763 0.016734001 0)
(-0.17551779 0.014813098 0)
(-0.17978492 0.012643868 0)
(-0.18342239 0.010223395 0)
(-0.1863524 0.0075480503 0)
(-0.18850108 0.0046164903 0)
(-0.18981119 0.0014310628 0)
(-0.19019378 -0.0019921609 0)
(-0.18956469 -0.0056213244 0)
(-0.18786284 -0.0094299585 0)
(-0.18502591 -0.013393719 0)
(-0.18100529 -0.017482227 0)
(-0.17576475 -0.02165361 0)
(-0.16928189 -0.025862157 0)
(-0.16154822 -0.030056803 0)
(-0.15257112 -0.034181808 0)
(-0.14237741 -0.038178278 0)
(-0.13101167 -0.041988078 0)
(-0.11853265 -0.045556031 0)
(-0.10501637 -0.048823052 0)
(-0.090560472 -0.051735006 0)
(-0.075280978 -0.054241772 0)
(-0.059305389 -0.056303552 0)
(-0.042771427 -0.057885363 0)
(-0.025829696 -0.058960453 0)
(-0.0086443432 -0.059509177 0)
(0.0086384098 -0.05950913 0)
(0.025824055 -0.058960377 0)
(0.042765936 -0.0578854 0)
(0.059299921 -0.056303738 0)
(0.075275428 -0.054242087 0)
(0.090554827 -0.051735613 0)
(0.10501055 -0.048823264 0)
(0.11852652 -0.045556076 0)
(0.13100516 -0.041987983 0)
(0.14237054 -0.038178064 0)
(0.15256397 -0.034181423 0)
(0.16154076 -0.030056144 0)
(0.16927386 -0.025861122 0)
(0.17575621 -0.021652283 0)
(0.18099634 -0.017480754 0)
(0.18501601 -0.013391719 0)
(0.18785185 -0.0094280364 0)
(0.18955285 -0.005619355 0)
(0.1901812 -0.0019899802 0)
(0.18979748 0.0014333145 0)
(0.18848624 0.0046187991 0)
(0.1863366 0.0075502158 0)
(0.18340572 0.010225235 0)
(0.17976714 0.012645536 0)
(0.17549846 0.014814762 0)
(0.17067682 0.016735586 0)
(0.16537885 0.018415849 0)
(0.15967438 0.019868201 0)
(0.15362653 0.021105643 0)
(0.14729346 0.022142319 0)
(0.14073187 0.02299236 0)
(0.13399501 0.023674914 0)
(0.12712374 0.024205992 0)
(0.12015526 0.02460216 0)
(0.11312871 0.024879653 0)
(0.10607209 0.025058621 0)
(0.099005075 0.025151141 0)
(0.091950169 0.025171292 0)
(0.084925804 0.025134945 0)
(0.077940917 0.025056221 0)
(0.071003372 0.024943994 0)
(0.064119821 0.024811688 0)
(0.057290619 0.024667863 0)
(0.050516533 0.024520183 0)
(0.043796422 0.02437713 0)
(0.037125251 0.024245903 0)
(0.030501805 0.024133266 0)
(0.023804073 0.024043991 0)
(0.018302176 0.023968054 0)
(0.0082243902 0.023945867 0)
(-0.0082049849 0.030430503 0)
(-0.018239604 0.03046681 0)
(-0.023708103 0.030572269 0)
(-0.030382682 0.030700183 0)
(-0.036984634 0.030859271 0)
(-0.043639868 0.031040089 0)
(-0.050350282 0.03123742 0)
(-0.057122214 0.031444774 0)
(-0.063958937 0.031651524 0)
(-0.070860761 0.031845445 0)
(-0.077827781 0.032015424 0)
(-0.084855676 0.032147544 0)
(-0.091936658 0.032225672 0)
(-0.099061979 0.032234396 0)
(-0.10621719 0.032156609 0)
(-0.11337955 0.031971297 0)
(-0.12052853 0.031657877 0)
(-0.12763856 0.031197454 0)
(-0.13467264 0.030567047 0)
(-0.14159192 0.029741573 0)
(-0.14835351 0.028700418 0)
(-0.15490692 0.027421696 0)
(-0.16119544 0.025882598 0)
(-0.16715742 0.02406259 0)
(-0.172726 0.021943305 0)
(-0.17782875 0.019509984 0)
(-0.1823879 0.016750182 0)
(-0.18632413 0.013653933 0)
(-0.18955677 0.010217539 0)
(-0.19200368 0.0064430225 0)
(-0.1935819 0.0023381663 0)
(-0.19421255 -0.0020685472 0)
(-0.19381749 -0.0067615232 0)
(-0.19231492 -0.01170763 0)
(-0.18964141 -0.016868827 0)
(-0.18574046 -0.022199414 0)
(-0.18056807 -0.027645254 0)
(-0.1740974 -0.033144987 0)
(-0.16631525 -0.03863069 0)
(-0.15722497 -0.044030217 0)
(-0.14684943 -0.049267917 0)
(-0.13523472 -0.054264763 0)
(-0.12244133 -0.05894237 0)
(-0.10854831 -0.063226657 0)
(-0.093658658 -0.067048217 0)
(-0.07789132 -0.070342332 0)
(-0.061381718 -0.073050394 0)
(-0.044278501 -0.075125368 0)
(-0.026742384 -0.076531545 0)
(-0.0089495717 -0.077244673 0)
(0.0089450169 -0.077244397 0)
(0.026738009 -0.0765309 0)
(0.044274183 -0.075124454 0)
(0.061377413 -0.073049378 0)
(0.077886986 -0.07034131 0)
(0.093654204 -0.067047138 0)
(0.10854366 -0.063225599 0)
(0.12243661 -0.058941473 0)
(0.13522971 -0.054263707 0)
(0.14684372 -0.049266681 0)
(0.15721878 -0.044028937 0)
(0.16630873 -0.038629458 0)
(0.1740903 -0.033143644 0)
(0.1805602 -0.027643526 0)
(0.18573225 -0.022197361 0)
(0.18963212 -0.01686654 0)
(0.19230421 -0.011704869 0)
(0.19380602 -0.0067583458 0)
(0.19420026 -0.0020653118 0)
(0.19356853 0.0023412355 0)
(0.19198895 0.0064466757 0)
(0.18954048 0.010221374 0)
(0.18630674 0.013657245 0)
(0.18236985 0.016752871 0)
(0.1778099 0.019512428 0)
(0.17270589 0.021946036 0)
(0.16713585 0.024065572 0)
(0.161173 0.025885011 0)
(0.15488438 0.027422833 0)
(0.14833081 0.028700307 0)
(0.14156865 0.029740604 0)
(0.13464882 0.030565465 0)
(0.12761456 0.031195273 0)
(0.12050489 0.031654827 0)
(0.1133559 0.031967287 0)
(0.10619349 0.032151483 0)
(0.09903896 0.032228389 0)
(0.091914279 0.032218802 0)
(0.084834233 0.032139699 0)
(0.077807763 0.032006622 0)
(0.070842262 0.031835757 0)
(0.063941861 0.031640342 0)
(0.057107 0.031432246 0)
(0.050336322 0.031226073 0)
(0.043626697 0.031026208 0)
(0.036973598 0.030842967 0)
(0.030374351 0.030685478 0)
(0.023700916 0.030557378 0)
(0.018238487 0.030454929 0)
(0.0082074092 0.030413035 0)
(-0.0081804767 0.036941311 0)
(-0.018154092 0.037000565 0)
(-0.023572206 0.037132056 0)
(-0.030213493 0.037298167 0)
(-0.036784109 0.037504779 0)
(-0.043416047 0.037742894 0)
(-0.050109268 0.038004575 0)
(-0.056873842 0.038280655 0)
(-0.063716189 0.038558605 0)
(-0.070636776 0.038823464 0)
(-0.077636196 0.039064026 0)
(-0.084712895 0.039261441 0)
(-0.091860801 0.039397084 0)
(-0.099071246 0.039450975 0)
(-0.10633161 0.039402107 0)
(-0.11362351 0.039226618 0)
(-0.12092487 0.038896554 0)
(-0.12820983 0.038388981 0)
(-0.13544552 0.037674576 0)
(-0.14259213 0.036723476 0)
(-0.14960566 0.035510069 0)
(-0.15643606 0.034004569 0)
(-0.16302559 0.032179283 0)
(-0.16931078 0.03000818 0)
(-0.17522195 0.027467236 0)
(-0.18068337 0.024536028 0)
(-0.18561435 0.02119771 0)
(-0.18992933 0.017439874 0)
(-0.19353839 0.013257001 0)
(-0.19635637 0.0086512228 0)
(-0.19829901 0.0036349505 0)
(-0.19926816 -0.0017736994 0)
(-0.19917337 -0.0075512333 0)
(-0.1979349 -0.013656352 0)
(-0.19547796 -0.020042484 0)
(-0.19173784 -0.026650572 0)
(-0.18666284 -0.033414178 0)
(-0.18021691 -0.040255571 0)
(-0.17238092 -0.047090661 0)
(-0.16315451 -0.053827636 0)
(-0.15255781 -0.060371066 0)
(-0.14063284 -0.066622913 0)
(-0.12744292 -0.072482377 0)
(-0.11307297 -0.077855882 0)
(-0.097629806 -0.082652718 0)
(-0.08124046 -0.086790311 0)
(-0.064049869 -0.090195713 0)
(-0.046218288 -0.092808167 0)
(-0.027919401 -0.094580926 0)
(-0.0093438792 -0.095481813 0)
(0.0093413899 -0.095481476 0)
(0.027916929 -0.094580056 0)
(0.046215545 -0.092806647 0)
(0.064046765 -0.090193579 0)
(0.081237137 -0.086787792 0)
(0.097626273 -0.082649853 0)
(0.11306901 -0.07785272 0)
(0.12743878 -0.07247926 0)
(0.14062866 -0.066619989 0)
(0.15255299 -0.060368259 0)
(0.16314905 -0.053824844 0)
(0.17237496 -0.047087867 0)
(0.18021044 -0.040252929 0)
(0.18665588 -0.03341134 0)
(0.19173019 -0.026647469 0)
(0.19546945 -0.020039406 0)
(0.19792529 -0.013652474 0)
(0.19916247 -0.0075466232 0)
(0.19925581 -0.0017689469 0)
(0.19828601 0.0036396513 0)
(0.19634248 0.0086560932 0)
(0.19352244 0.013262294 0)
(0.18991175 0.017445313 0)
(0.18559588 0.021202745 0)
(0.18066411 0.024540257 0)
(0.17520162 0.027470763 0)
(0.16928876 0.030011358 0)
(0.16300205 0.032181895 0)
(0.15641204 0.034006011 0)
(0.14958155 0.035510035 0)
(0.14256756 0.036722061 0)
(0.13542016 0.03767219 0)
(0.12818387 0.038385721 0)
(0.12089887 0.038892285 0)
(0.11359768 0.039221061 0)
(0.10630596 0.039395831 0)
(0.099046171 0.039443808 0)
(0.091836579 0.039388959 0)
(0.084689931 0.039252361 0)
(0.077614788 0.03905398 0)
(0.070616654 0.038812695 0)
(0.063697258 0.038545476 0)
(0.056858921 0.038266234 0)
(0.0500949 0.037989184 0)
(0.043399237 0.037726697 0)
(0.036772342 0.037487892 0)
(0.030205835 0.037281146 0)
(0.023565066 0.037114104 0)
(0.018151145 0.036983384 0)
(0.0081805425 0.036920666 0)
(-0.0081408153 0.043367038 0)
(-0.018038376 0.043450514 0)
(-0.023399996 0.04361319 0)
(-0.02999826 0.043823937 0)
(-0.036526681 0.044084794 0)
(-0.043125113 0.044388596 0)
(-0.049795785 0.044724444 0)
(-0.056549691 0.045079949 0)
(-0.063396079 0.045441663 0)
(-0.070333851 0.045794917 0)
(-0.077367157 0.046122555 0)
(-0.084498811 0.046403769 0)
(-0.09172221 0.046617339 0)
(-0.099031098 0.046739473 0)
(-0.10641468 0.046743972 0)
(-0.1138573 0.046602747 0)
(-0.12133738 0.046284587 0)
(-0.12883089 0.045758107 0)
(-0.13630774 0.044990209 0)
(-0.1437252 0.043945745 0)
(-0.15104056 0.042589922 0)
(-0.15820539 0.040887771 0)
(-0.16515918 0.038804903 0)
(-0.17183676 0.036308656 0)
(-0.17816571 0.033368469 0)
(-0.18406639 0.029957582 0)
(-0.18945298 0.026054017 0)
(-0.19423476 0.021642403 0)
(-0.19831648 0.016712252 0)
(-0.20159783 0.011260757 0)
(-0.20397962 0.005305416 0)
(-0.2053708 -0.0011318938 0)
(-0.20566659 -0.0080300833 0)
(-0.20476755 -0.01534152 0)
(-0.2025922 -0.02300931 0)
(-0.1990643 -0.03096365 0)
(-0.19412143 -0.039121322 0)
(-0.18771917 -0.0473889 0)
(-0.17983045 -0.055665291 0)
(-0.17044725 -0.063835545 0)
(-0.15958632 -0.071782317 0)
(-0.14728824 -0.079384252 0)
(-0.13361774 -0.086519643 0)
(-0.11866424 -0.093070144 0)
(-0.10254144 -0.098923572 0)
(-0.085385866 -0.10397693 0)
(-0.067354636 -0.10813941 0)
(-0.048622436 -0.11133516 0)
(-0.029378991 -0.11350543 0)
(-0.0098331593 -0.11460937 0)
(0.009832917 -0.11460916 0)
(0.029378747 -0.11350487 0)
(0.048621727 -0.11133402 0)
(0.067353207 -0.10813744 0)
(0.085383749 -0.10397417 0)
(0.10253888 -0.098920229 0)
(0.118661 -0.093066312 0)
(0.13361388 -0.086515464 0)
(0.1472841 -0.079379994 0)
(0.15958178 -0.07177819 0)
(0.17044241 -0.063831481 0)
(0.17982518 -0.055661134 0)
(0.18771326 -0.047384677 0)
(0.19411494 -0.039116539 0)
(0.19905715 -0.030958683 0)
(0.20258447 -0.023004445 0)
(0.20475895 -0.015336414 0)
(0.20565647 -0.0080244281 0)
(0.20535892 -0.0011258746 0)
(0.20396657 0.0053119055 0)
(0.20158384 0.011267252 0)
(0.19830093 0.01671889 0)
(0.1942173 0.021649065 0)
(0.18943395 0.026060075 0)
(0.18404611 0.029962531 0)
(0.17814432 0.033372191 0)
(0.17181384 0.036311504 0)
(0.16513449 0.038807069 0)
(0.15817963 0.040888997 0)
(0.15101424 0.042589766 0)
(0.14369851 0.043944053 0)
(0.13628067 0.044987386 0)
(0.12880335 0.045754461 0)
(0.12130964 0.046280217 0)
(0.11382976 0.046597473 0)
(0.10638751 0.046737958 0)
(0.099004407 0.04673261 0)
(0.091696373 0.046609508 0)
(0.084474312 0.046394428 0)
(0.077344804 0.046111893 0)
(0.070312046 0.045782724 0)
(0.063375294 0.04542745 0)
(0.056532244 0.045064226 0)
(0.049780048 0.04470552 0)
(0.043110331 0.04437027 0)
(0.03651503 0.044067272 0)
(0.029989565 0.043804078 0)
(0.023393879 0.043592473 0)
(0.018037361 0.043427405 0)
(0.0081418906 0.043343221 0)
(-0.0080905856 0.049730777 0)
(-0.017895068 0.049837006 0)
(-0.023185688 0.050038706 0)
(-0.029728016 0.050299764 0)
(-0.036204292 0.050623992 0)
(-0.0427597 0.05100185 0)
(-0.049399582 0.051421666 0)
(-0.056136618 0.051869711 0)
(-0.06297961 0.052332435 0)
(-0.069932741 0.052792655 0)
(-0.077002854 0.053227069 0)
(-0.084192315 0.053614768 0)
(-0.091498084 0.053928985 0)
(-0.098916488 0.054145953 0)
(-0.10643909 0.054232295 0)
(-0.11405254 0.05415583 0)
(-0.12173814 0.053880977 0)
(-0.12947196 0.053368984 0)
(-0.13722473 0.052581977 0)
(-0.1449582 0.051479392 0)
(-0.15262854 0.050016042 0)
(-0.16018532 0.048151465 0)
(-0.16756838 0.045843774 0)
(-0.17471051 0.043052374 0)
(-0.1815362 0.039739256 0)
(-0.18796117 0.035870547 0)
(-0.19389335 0.031417234 0)
(-0.19923568 0.026357296 0)
(-0.20388571 0.02067925 0)
(-0.20773028 0.014380613 0)
(-0.21066006 0.0074683176 0)
(-0.21257271 -3.5971638e-05 0)
(-0.21334606 -0.0081019349 0)
(-0.21287183 -0.016676677 0)
(-0.21105262 -0.025695299 0)
(-0.20779762 -0.035075614 0)
(-0.20303192 -0.044720704 0)
(-0.19670144 -0.05451946 0)
(-0.18876574 -0.064345974 0)
(-0.17920829 -0.074065303 0)
(-0.16804269 -0.083534767 0)
(-0.1553066 -0.092607049 0)
(-0.14106625 -0.10113437 0)
(-0.125416 -0.10897235 0)
(-0.10847793 -0.11598384 0)
(-0.090400321 -0.12204271 0)
(-0.071355111 -0.12703764 0)
(-0.051534527 -0.13087532 0)
(-0.031147962 -0.13348326 0)
(-0.010426588 -0.13481075 0)
(0.010428395 -0.13481063 0)
(0.031149783 -0.13348295 0)
(0.05153598 -0.13087479 0)
(0.071355881 -0.12703673 0)
(0.090400101 -0.12204118 0)
(0.10847688 -0.11598179 0)
(0.12541397 -0.10896977 0)
(0.14106341 -0.10113127 0)
(0.15530311 -0.09260334 0)
(0.16803859 -0.083530596 0)
(0.17920395 -0.07406077 0)
(0.18876118 -0.064341212 0)
(0.19669677 -0.054514105 0)
(0.20302658 -0.044714845 0)
(0.20779082 -0.035069434 0)
(0.21104491 -0.025688963 0)
(0.21286362 -0.016670129 0)
(0.21333644 -0.0080949209 0)
(0.21256127 -2.8179083e-05 0)
(0.21064743 0.0074760608 0)
(0.20771648 0.014388139 0)
(0.20386995 0.020686743 0)
(0.19921745 0.026364808 0)
(0.19387317 0.031424165 0)
(0.18793966 0.035876295 0)
(0.18151354 0.039743657 0)
(0.17468624 0.043055717 0)
(0.16754232 0.045846414 0)
(0.16015805 0.048153381 0)
(0.15260052 0.050017055 0)
(0.14492975 0.051479239 0)
(0.13719597 0.052580569 0)
(0.12944286 0.053366504 0)
(0.12170897 0.053877524 0)
(0.11402354 0.054151324 0)
(0.10641056 0.05422665 0)
(0.098888602 0.054139153 0)
(0.091470799 0.053921411 0)
(0.08416634 0.053604792 0)
(0.076978876 0.053215242 0)
(0.069909672 0.052778581 0)
(0.062957865 0.052317325 0)
(0.056117687 0.051853173 0)
(0.049383176 0.051402918 0)
(0.042745242 0.050981956 0)
(0.036192203 0.050603204 0)
(0.029718897 0.050276973 0)
(0.023177998 0.050014257 0)
(0.017892935 0.049809249 0)
(0.00809266 0.049700232 0)
(-0.0080276666 0.056013244 0)
(-0.017715972 0.056148765 0)
(-0.022922372 0.056395905 0)
(-0.029397123 0.056713889 0)
(-0.035807583 0.057111067 0)
(-0.042309012 0.057573935 0)
(-0.048907915 0.058091023 0)
(-0.055617404 0.05864813 0)
(-0.062449988 0.059229457 0)
(-0.069414561 0.059813844 0)
(-0.076518769 0.060377759 0)
(-0.083769115 0.060897408 0)
(-0.091161839 0.061342746 0)
(-0.098697406 0.061683363 0)
(-0.10637317 0.061884425 0)
(-0.11417582 0.061908108 0)
(-0.12209045 0.061713829 0)
(-0.1300951 0.061256926 0)
(-0.13816134 0.060491193 0)
(-0.14625402 0.059370612 0)
(-0.15433033 0.057842287 0)
(-0.1623385 0.055856599 0)
(-0.17021815 0.053364756 0)
(-0.17790036 0.050315639 0)
(-0.18530606 0.04666325 0)
(-0.19234672 0.042365072 0)
(-0.1989246 0.03738428 0)
(-0.20493152 0.031691033 0)
(-0.2102529 0.0252667 0)
(-0.21477007 0.018105777 0)
(-0.21835972 0.010211951 0)
(-0.22090722 0.0016035414 0)
(-0.22226716 -0.0076736472 0)
(-0.222315 -0.017575674 0)
(-0.2209397 -0.028025442 0)
(-0.21803318 -0.038928701 0)
(-0.21350447 -0.050172687 0)
(-0.2072803 -0.061624908 0)
(-0.19930928 -0.073135176 0)
(-0.18956703 -0.084544706 0)
(-0.17805798 -0.095682146 0)
(-0.16481751 -0.10637068 0)
(-0.14991315 -0.11643255 0)
(-0.13344484 -0.1256936 0)
(-0.11554456 -0.13398784 0)
(-0.096374673 -0.14116221 0)
(-0.076124985 -0.14708189 0)
(-0.055008774 -0.15163311 0)
(-0.033259406 -0.15472755 0)
(-0.011135261 -0.15630333 0)
(0.011139207 -0.15630299 0)
(0.033263362 -0.1547266 0)
(0.055012432 -0.15163182 0)
(0.076128102 -0.14708062 0)
(0.096376856 -0.14116086 0)
(0.11554592 -0.13398677 0)
(0.13344502 -0.12569225 0)
(0.14991231 -0.11643074 0)
(0.16481585 -0.10636835 0)
(0.17805547 -0.095679245 0)
(0.18956407 -0.084541192 0)
(0.19930612 -0.07313111 0)
(0.20727661 -0.061619924 0)
(0.21349969 -0.050167034 0)
(0.21802709 -0.038922287 0)
(0.22093272 -0.028018395 0)
(0.22230751 -0.017568233 0)
(0.22225861 -0.0076657714 0)
(0.22089607 0.0016113269 0)
(0.21834623 0.010220652 0)
(0.21475562 0.018114614 0)
(0.21023715 0.025274898 0)
(0.20491327 0.031699197 0)
(0.19890368 0.037392528 0)
(0.19232405 0.042372636 0)
(0.18528239 0.046669549 0)
(0.17787527 0.050320758 0)
(0.17019113 0.053369201 0)
(0.16231009 0.055860207 0)
(0.15430105 0.057845319 0)
(0.14622404 0.059372416 0)
(0.13813088 0.060491212 0)
(0.13006422 0.061255477 0)
(0.12205953 0.061710879 0)
(0.11414522 0.061903595 0)
(0.10634312 0.061878245 0)
(0.098668586 0.061675483 0)
(0.091133062 0.06133331 0)
(0.083741084 0.060886226 0)
(0.076493448 0.060364599 0)
(0.069390853 0.059798738 0)
(0.062428224 0.059212732 0)
(0.055597854 0.058629779 0)
(0.048890228 0.058070531 0)
(0.042293668 0.057551444 0)
(0.035794877 0.05708656 0)
(0.029387116 0.056687625 0)
(0.022914413 0.05636756 0)
(0.017712941 0.056119178 0)
(0.0080283617 0.05597889 0)
(-0.0079474755 0.062198967 0)
(-0.017496299 0.06237065 0)
(-0.022604154 0.062665765 0)
(-0.028995368 0.063049645 0)
(-0.035325615 0.063527993 0)
(-0.041759738 0.064090387 0)
(-0.048303819 0.064721085 0)
(-0.054975077 0.065405111 0)
(-0.061789216 0.066123307 0)
(-0.068758124 0.066853909 0)
(-0.075891269 0.067572886 0)
(-0.083197758 0.068252089 0)
(-0.090680922 0.068860986 0)
(-0.098342088 0.06936028 0)
(-0.1061803 0.069713724 0)
(-0.11418787 0.069878327 0)
(-0.12235284 0.069807673 0)
(-0.13065685 0.069451805 0)
(-0.13907195 0.06875676 0)
(-0.14756669 0.067666943 0)
(-0.15610076 0.066123994 0)
(-0.16461969 0.064068178 0)
(-0.17306485 0.061439868 0)
(-0.18136628 0.058179231 0)
(-0.18944003 0.054229781 0)
(-0.19719278 0.049538631 0)
(-0.20451981 0.044059518 0)
(-0.21130592 0.037753744 0)
(-0.21742417 0.030591094 0)
(-0.22273953 0.022557976 0)
(-0.22711947 0.013658958 0)
(-0.23041959 0.0039130428 0)
(-0.23248182 -0.0066292209 0)
(-0.23317415 -0.017934125 0)
(-0.2323502 -0.029909537 0)
(-0.22988411 -0.04245078 0)
(-0.22566267 -0.055423217 0)
(-0.21959439 -0.068673768 0)
(-0.21161251 -0.082028629 0)
(-0.20167965 -0.095297605 0)
(-0.18979129 -0.10827782 0)
(-0.17597867 -0.12075841 0)
(-0.16031062 -0.13252694 0)
(-0.14289321 -0.14337499 0)
(-0.12386969 -0.15310252 0)
(-0.10341951 -0.16152535 0)
(-0.081753784 -0.16848096 0)
(-0.059110791 -0.17383202 0)
(-0.035753108 -0.17747199 0)
(-0.011972281 -0.17932621 0)
(0.011979377 -0.17932522 0)
(0.035760109 -0.17746926 0)
(0.059117285 -0.17382818 0)
(0.081759521 -0.16847666 0)
(0.10342391 -0.16152111 0)
(0.1238733 -0.15309931 0)
(0.14289615 -0.14337252 0)
(0.16031255 -0.13252475 0)
(0.17597941 -0.12075636 0)
(0.1897907 -0.10827565 0)
(0.20167832 -0.095295106 0)
(0.21161103 -0.082025656 0)
(0.21959269 -0.068670072 0)
(0.22565999 -0.055418289 0)
(0.22987957 -0.042444196 0)
(0.23234415 -0.029901668 0)
(0.23316724 -0.017925475 0)
(0.23247298 -0.0066198869 0)
(0.23040912 0.0039229197 0)
(0.22710806 0.013669858 0)
(0.22272553 0.022569246 0)
(0.21740792 0.030601761 0)
(0.2112878 0.037763783 0)
(0.20449915 0.044069513 0)
(0.19716964 0.049548477 0)
(0.18941531 0.054238708 0)
(0.18134021 0.058186667 0)
(0.17303684 0.061446049 0)
(0.16459023 0.06407334 0)
(0.15607013 0.066127939 0)
(0.14753455 0.067669514 0)
(0.13903932 0.068757455 0)
(0.13062405 0.069450573 0)
(0.12231976 0.069804575 0)
(0.11415515 0.069873326 0)
(0.10614831 0.069706599 0)
(0.098311272 0.069350848 0)
(0.090650954 0.068848934 0)
(0.083169037 0.068238998 0)
(0.075864793 0.067557852 0)
(0.068733256 0.066836572 0)
(0.061766105 0.066104006 0)
(0.054954381 0.065383619 0)
(0.048285306 0.064697698 0)
(0.041743213 0.064065206 0)
(0.035311896 0.063501378 0)
(0.028984865 0.063020575 0)
(0.022596399 0.062634535 0)
(0.017492476 0.062337742 0)
(0.0079467347 0.062161763 0)
(-0.007847026 0.068271933 0)
(-0.017231761 0.068483757 0)
(-0.022225323 0.068834121 0)
(-0.028515788 0.069292728 0)
(-0.034746758 0.069863736 0)
(-0.041094655 0.070537619 0)
(-0.047570282 0.071297273 0)
(-0.054190693 0.072125823 0)
(-0.060974994 0.073003056 0)
(-0.067937021 0.073906766 0)
(-0.075091002 0.074809645 0)
(-0.082449529 0.075679317 0)
(-0.09002047 0.076484358 0)
(-0.09780981 0.077182818 0)
(-0.1058187 0.077731854 0)
(-0.11404405 0.078083848 0)
(-0.12247768 0.07818672 0)
(-0.1311052 0.077984959 0)
(-0.13990379 0.077416203 0)
(-0.1488428 0.076413753 0)
(-0.15788333 0.074916518 0)
(-0.16697492 0.072850292 0)
(-0.17605761 0.070143971 0)
(-0.18505931 0.066728214 0)
(-0.19389413 0.062534057 0)
(-0.20246338 0.057496384 0)
(-0.2106551 0.051556327 0)
(-0.21834527 0.044664124 0)
(-0.22539448 0.036782175 0)
(-0.23164918 0.027886388 0)
(-0.23695432 0.017969532 0)
(-0.2411498 0.0070499797 0)
(-0.24406863 -0.0048316165 0)
(-0.2455424 -0.01763031 0)
(-0.24539703 -0.03124219 0)
(-0.24348157 -0.045549383 0)
(-0.23965682 -0.060402892 0)
(-0.23381024 -0.075625267 0)
(-0.22585364 -0.091013457 0)
(-0.21573338 -0.10634323 0)
(-0.20343344 -0.12137426 0)
(-0.18897961 -0.13585694 0)
(-0.17244178 -0.14953814 0)
(-0.15393246 -0.16216892 0)
(-0.13360784 -0.17351007 0)
(-0.11166766 -0.18334114 0)
(-0.088348393 -0.19146608 0)
(-0.063918832 -0.19772091 0)
(-0.038676612 -0.20197806 0)
(-0.012953465 -0.20414807 0)
(0.012965231 -0.20414653 0)
(0.038687947 -0.2019738 0)
(0.063929166 -0.19771474 0)
(0.088357222 -0.19145863 0)
(0.11167418 -0.1833336 0)
(0.13361277 -0.17350275 0)
(0.15393681 -0.16216295 0)
(0.1724456 -0.14953354 0)
(0.18898253 -0.13585342 0)
(0.20343494 -0.12137109 0)
(0.21573405 -0.10633994 0)
(0.22585418 -0.091009748 0)
(0.23381085 -0.075620847 0)
(0.23965694 -0.060397329 0)
(0.24347991 -0.045541964 0)
(0.24539339 -0.031232773 0)
(0.24553749 -0.017619277 0)
(0.24406228 -0.0048192754 0)
(0.24114092 0.0070638434 0)
(0.23694287 0.017983769 0)
(0.23163533 0.027900952 0)
(0.22537836 0.03679674 0)
(0.21832702 0.044677854 0)
(0.21063444 0.051569057 0)
(0.20244002 0.05750846 0)
(0.19386847 0.062545294 0)
(0.18503175 0.066737875 0)
(0.17602822 0.070151628 0)
(0.16694374 0.072856471 0)
(0.15785071 0.074920747 0)
(0.14880886 0.076416493 0)
(0.13986895 0.077417201 0)
(0.13107009 0.077983674 0)
(0.1224425 0.078183418 0)
(0.11400909 0.078078541 0)
(0.10578438 0.077724193 0)
(0.097776668 0.077172463 0)
(0.089988952 0.076471139 0)
(0.082419662 0.075664005 0)
(0.075062806 0.074791847 0)
(0.067910741 0.073886587 0)
(0.060950933 0.072981079 0)
(0.054168968 0.072101566 0)
(0.047551022 0.071270919 0)
(0.041078151 0.070509634 0)
(0.034732348 0.069834312 0)
(0.028503739 0.069260898 0)
(0.02221678 0.068800082 0)
(0.01722696 0.068447277 0)
(0.0078455064 0.068232099 0)
(-0.0077255158 0.074212976 0)
(-0.016915549 0.074469398 0)
(-0.021775771 0.074882302 0)
(-0.027945282 0.075424633 0)
(-0.034059229 0.076101561 0)
(-0.040303569 0.076898832 0)
(-0.046691448 0.077803676 0)
(-0.053243466 0.078796619 0)
(-0.059980664 0.079856659 0)
(-0.066922025 0.080960048 0)
(-0.074087368 0.082076563 0)
(-0.081489691 0.083173903 0)
(-0.089142204 0.084214101 0)
(-0.097057567 0.08515408 0)
(-0.10524048 0.085946531 0)
(-0.11369248 0.086538672 0)
(-0.12240941 0.08687168 0)
(-0.13138305 0.086883063 0)
(-0.14059697 0.086504314 0)
(-0.1500181 0.085660202 0)
(-0.15961379 0.084275458 0)
(-0.16933952 0.082267919 0)
(-0.17913199 0.079554373 0)
(-0.18891913 0.076051722 0)
(-0.19861288 0.071677249 0)
(-0.20810986 0.066351187 0)
(-0.21729008 0.060000522 0)
(-0.22601733 0.052561231 0)
(-0.23413951 0.043979428 0)
(-0.24149174 0.034217221 0)
(-0.24789813 0.023260746 0)
(-0.2531665 0.011123997 0)
(-0.25711343 -0.0021569094 0)
(-0.25952851 -0.016526396 0)
(-0.26020661 -0.031890238 0)
(-0.25897538 -0.048112 0)
(-0.2556629 -0.065023929 0)
(-0.25012371 -0.082419995 0)
(-0.24224437 -0.1000637 0)
(-0.23195027 -0.11769214 0)
(-0.2192115 -0.13502129 0)