/*--------------------------------*- C++ -*----------------------------------*\
  =========                 |
  \\      /  F ield         | OpenFOAM: The Open Source CFD Toolbox
   \\    /   O peration     | Website:  https://openfoam.org
    \\  /    A nd           | Version:  9
     \\/     M anipulation  |
\*---------------------------------------------------------------------------*/
FoamFile
{
    format      ascii;
    class       volScalarField;
    location    "22";
    object      p;
}
// * * * * * * * * * * * * * * * * * * * * * * * * * * * * * * * * * * * * * //

dimensions      [0 2 -2 0 0 0 0];

internalField   nonuniform List<scalar> 
400
(
8.8006578e-07
-0.00067187576
-0.0013843287
-0.0019416677
-0.0022189442
-0.0021554283
-0.0017267155
-0.00092512105
0.00023649888
0.0017084794
0.0033883531
0.005113255
0.0066745308
0.0078501551
0.008459451
0.008424762
0.0078144944
0.0068456333
0.0058624258
0.0053000738
0.00065881966
-3.9525266e-05
-0.00056864764
-0.00093959993
-0.0011098236
-0.0010388683
-0.00070472637
-9.4473268e-05
0.00079017418
0.0019172609
0.0032106584
0.0045557756
0.0057830336
0.0067173305
0.007215506
0.0072156237
0.0067710646
0.0060538916
0.0053116581
0.0047396207
0.0014246699
0.00044163815
-0.000115599
-0.00045222913
-0.00061378058
-0.00058376904
-0.00034552392
0.00012081162
0.0008295362
0.0017709869
0.0028953729
0.004099247
0.0052293252
0.0061120638
0.0065949666
0.0065987717
0.0061568565
0.0054226411
0.0045948854
0.0037493791
0.0020151528
0.00068266337
1.776169e-05
-0.00035784639
-0.00057052661
-0.00062551984
-0.00050902472
-0.00018955493
0.00036959289
0.0011854864
0.0022310169
0.003418531
0.0045924712
0.0055580505
0.0061246702
0.006167685
0.0056847543
0.0048181952
0.0037484482
0.0024747646
0.002168216
0.00049708977
-0.00029527031
-0.00074769929
-0.0010572266
-0.0012442207
-0.0012916745
-0.0011502034
-0.00075393001
-5.1965002e-05
0.00095816565
0.0022114227
0.0035458459
0.0047337992
0.0055229819
0.005711027
0.005230437
0.004202766
0.0028073593
0.0009851522
0.0016549102
-0.00031350141
-0.0012377911
-0.0017982842
-0.0022516191
-0.0026268351
-0.0028975131
-0.0029899417
-0.0028013685
-0.0022364895
-0.0012499001
0.00013208697
0.0017458326
0.003328287
0.0045428137
0.005066946
0.0047186662
0.0035673799
0.0017907905
-0.00072470369
0.00028799137
-0.0019185728
-0.00297198
-0.0036703399
-0.0043192218
-0.0049520857
-0.0055289607
-0.0059467502
-0.0060577639
-0.0057061168
-0.0047744382
-0.003257422
-0.00126525
0.0009084168
0.002824346
0.0039880413
0.0040262949
0.0028889148
0.00071660165
-0.0026792523
-0.002075427
-0.00445016
-0.0056257496
-0.00649124
-0.0073917987
-0.0083645923
-0.0093556948
-0.010230499
-0.010789639
-0.010803478
-0.010061983
-0.0084603862
-0.0060394101
-0.003081891
-0.00012501626
0.0021138823
0.0029650671
0.0021368186
-0.00036478436
-0.0048713319
-0.0055231123
-0.0079910352
-0.0092768196
-0.010332656
-0.011536819
-0.012934179
-0.014461406
-0.01595495
-0.017161034
-0.01776456
-0.017436589
-0.015917984
-0.01312149
-0.0092503285
-0.0048976264
-0.0010286842
0.0012707025
0.001279037
-0.0013326807
-0.0072003707
-0.010075793
-0.012563961
-0.01393551
-0.015182814
-0.016717139
-0.018601317
-0.02077282
-0.023047312
-0.025120163
-0.026584775
-0.026967746
-0.025811338
-0.022844098
-0.018072913
-0.012049615
-0.0059505417
-0.0013693864
0.00030190716
-0.0019459001
-0.0093808966
-0.0156838
-0.01813122
-0.019536346
-0.020925564
-0.022756442
-0.025128509
-0.02799556
-0.031164878
-0.034289872
-0.036875193
-0.038292483
-0.037842581
-0.035064188
-0.029599851
-0.021820944
-0.012984097
-0.0051835691
-0.00071440196
-0.0017628781
-0.010790918
-0.022242349
-0.024611791
-0.025944332
-0.027333664
-0.029322817
-0.032077816
-0.035587447
-0.039663074
-0.043925625
-0.0477996
-0.050528457
-0.051234757
-0.048955177
-0.043141896
-0.03376743
-0.021924832
-0.010035449
-0.0014140775
-8.5421804e-06
-0.010224295
-0.029639915
-0.031922612
-0.032977453
-0.034078545
-0.035938137
-0.038830082
-0.042794102
-0.047649991
-0.05298887
-0.058161877
-0.062282519
-0.064263816
-0.062873482
-0.057110567
-0.046475189
-0.031647603
-0.015036447
-0.00086303815
0.0046480677
-0.0055202523
-0.03786467
-0.040047209
-0.040438838
-0.040751193
-0.042013675
-0.044651636
-0.048756695
-0.054142485
-0.060354392
-0.066663667
-0.072059005
-0.075266629
-0.074809765
-0.06926774
-0.057626852
-0.039960117
-0.018246634
0.0027903285
0.014446407
0.0069087632
-0.047229242
-0.049133049
-0.048139294
-0.046881013
-0.046904173
-0.048797303
-0.052666835
-0.058274489
-0.065074516
-0.072230378
-0.078594156
-0.082710755
-0.082878719
-0.07730799
-0.064522623
-0.043933705
-0.016746782
0.012504128
0.032939943
0.032410074
-0.058895469
-0.059638594
-0.055882652
-0.051939831
-0.049971078
-0.05062857
-0.05392726
-0.05949388
-0.066610339
-0.074283748
-0.081189635
-0.08567793
-0.085830415
-0.07952092
-0.064874928
-0.040688171
-0.0072398698
0.032140413
0.06498249
0.077750194
-0.076225253
-0.072612519
-0.063514972
-0.055434218
-0.050723873
-0.049780394
-0.052311048
-0.057662983
-0.06489037
-0.072773492
-0.079777905
-0.084035351
-0.083390359
-0.075347786
-0.057601615
-0.028374173
0.012934238
0.065397395
0.11555243
0.15150713
-0.10809104
-0.089555252
-0.071232748
-0.057231928
-0.049071056
-0.046329094
-0.048076057
-0.053201302
-0.060433242
-0.068294448
-0.075025992
-0.078525575
-0.076387767
-0.065808558
-0.043864484
-0.0078175522
0.044394505
0.11299898
0.18838126
0.27186159
-0.17684437
-0.10828866
-0.076201525
-0.054650281
-0.042991391
-0.038996977
-0.040569367
-0.045926802
-0.053440215
-0.061436993
-0.068026225
-0.070961253
-0.067549927
-0.054738735
-0.029147829
0.013564486
0.078147777
0.17006515
0.28949626
0.47421902
-0.37208235
-0.1247074
-0.054972081
-0.031961579
-0.022062611
-0.020299517
-0.024358362
-0.031956805
-0.041260279
-0.050639553
-0.058315558
-0.062186157
-0.05978132
-0.04805569
-0.02265752
0.021475119
0.092819564
0.21015358
0.40288922
0.77641009
)
;

boundaryField
{
    movingWall
    {
        type            zeroGradient;
    }
    fixedWalls
    {
        type            zeroGradient;
    }
    frontAndBack
    {
        type            empty;
    }
}


// ************************************************************************* //
