/*--------------------------------*- C++ -*----------------------------------*\
  =========                 |
  \\      /  F ield         | OpenFOAM: The Open Source CFD Toolbox
   \\    /   O peration     | Website:  https://openfoam.org
    \\  /    A nd           | Version:  9
     \\/     M anipulation  |
\*---------------------------------------------------------------------------*/
FoamFile
{
    format      ascii;
    class       surfaceScalarField;
    location    "22";
    object      phi;
}
// * * * * * * * * * * * * * * * * * * * * * * * * * * * * * * * * * * * * * //

dimensions      [0 3 -1 0 0 0 0];

internalField   nonuniform List<scalar> 
760
(
1.2697671e-05
-1.2707877e-05
-2.87258e-05
4.142348e-05
-0.00012229243
9.3566637e-05
-0.00025039515
0.00012810274
-0.0003960727
0.00014567757
-0.00054538775
0.00014931509
-0.00068626735
0.00014087962
-0.00080688722
0.00012061988
-0.00089494711
8.8059898e-05
-0.00093838506
4.3437963e-05
-0.00092726914
-1.1115907e-05
-0.00085685705
-7.0412082e-05
-0.00073042523
-0.00012643183
-0.00056133891
-0.00016908633
-0.00037275893
-0.00018857997
-0.00019447393
-0.00017828498
-5.65227e-05
-0.00013795122
1.961348e-05
-7.6136185e-05
3.0410773e-05
-1.0797298e-05
3.0410781e-05
-4.3184767e-05
3.0476898e-05
-0.00020456653
0.00020280527
-0.00046832179
0.00035732193
-0.00080070108
0.00046048207
-0.0011673396
0.00051231615
-0.0015364345
0.00051841003
-0.0018782091
0.0004826542
-0.0021636607
0.00040607161
-0.0023645211
0.00028892027
-0.0024553277
0.00013424456
-0.002418122
-4.8321673e-05
-0.0022453401
-0.00024319392
-0.0019475417
-0.00042423019
-0.0015544583
-0.00056216973
-0.0011143144
-0.00062872385
-0.00068747145
-0.00060512798
-0.00033452486
-0.00049089778
-0.0001008972
-0.0003097638
-1.5523812e-06
-0.00011014208
2.8858394e-05
-0.00011002717
0.00014050408
-0.00040302929
0.00049580742
-0.00083138203
0.00078567469
-0.0013456064
0.00097470647
-0.0018985826
0.0010652924
-0.0024465597
0.0010663871
-0.0029480068
0.00098410133
-0.0033625896
0.00082065438
-0.0036518594
0.00057819008
-0.0037822859
0.00026467106
-0.003729793
-0.00010081461
-0.0034857841
-0.00048720279
-0.0030632499
-0.00084676434
-0.002499974
-0.0011254456
-0.0018582207
-0.0012704771
-0.0012181361
-0.0012452126
-0.00066373303
-0.0010453008
-0.00026308876
-0.00071040802
-4.7956466e-05
-0.00032527435
-1.9098073e-05
-0.0001734384
0.00031394249
-0.00059328769
0.00091565671
-0.0011776857
0.0013700727
-0.0018583549
0.0016553756
-0.0025768877
0.0017838253
-0.0032812811
0.0017707806
-0.0039227613
0.0016255815
-0.0044540993
0.0013519925
-0.0048302197
0.00095431043
-0.0050111924
0.00044564381
-0.0049672122
-0.0001447948
-0.0046843928
-0.00077002213
-0.0041723138
-0.0013588433
-0.0034690979
-0.0018286615
-0.0026439882
-0.0020955867
-0.0017931873
-0.0020960134
-0.0010258435
-0.0018126446
-0.00044021234
-0.0012960391
-9.6723495e-05
-0.00066876318
-0.00011582156
-0.00022979343
0.00054373593
-0.00076506785
0.0014509311
-0.0014914723
0.0020964772
-0.0023225276
0.0024864309
-0.0031901137
0.0026514114
-0.0040367892
0.0026174561
-0.0048099979
0.0023987901
-0.0054589216
0.0020009162
-0.0059341359
0.0014295247
-0.0061897664
0.00070127437
-0.0061883491
-0.00014621203
-0.0059055242
-0.001052847
-0.0053403678
-0.0019239997
-0.0045230761
-0.0026459532
-0.0035229466
-0.0030957161
-0.0024497849
-0.0031691751
-0.0014425283
-0.0028199012
-0.00064122661
-0.0020973407
-0.00014883596
-0.0011611538
-0.00026465749
-0.00027729515
0.00082103109
-0.00091153866
0.0020851746
-0.0017607147
0.0029456533
-0.0027227852
0.0034485015
-0.0037221801
0.0036508063
-0.0046986565
0.0035939324
-0.0055988471
0.0032989808
-0.0063711427
0.0027732118
-0.0069636776
0.0020220597
-0.0073247849
0.0010623818
-0.0074074093
-6.3587624e-05
-0.007171645
-0.0012886112
-0.0065988409
-0.0024968037
-0.0057016377
-0.0035431564
-0.004539985
-0.0042573687
-0.003231818
-0.0044773421
-0.0019490061
-0.0041027131
-0.00088728104
-0.0031590658
-0.00021159266
-0.0018368422
-0.00047625013
-0.00031411243
0.0011351435
-0.001026328
0.0027973903
-0.0019734875
0.0038928127
-0.0030417239
0.0045167379
-0.004150677
0.0047597594
-0.0052398959
0.0046831514
-0.0062580188
0.0043171037
-0.0071554665
0.0036706595
-0.0078803057
0.0027468989
-0.0083767801
0.0015588562
-0.0085853284
0.00014496071
-0.0084512618
-0.0014226777
-0.0079294462
-0.0030186193
-0.0070049171
-0.0044676855
-0.0057150055
-0.0055472803
-0.0041735528
-0.0060187948
-0.0025818267
-0.0056944392
-0.0012040961
-0.0045367963
-0.00029450186
-0.0027464364
-0.00077075197
-0.00033824472
0.0014733882
-0.0011031573
0.0035623029
-0.0021176121
0.0049072676
-0.003259857
0.0056589828
-0.0044473643
0.0059472667
-0.0056219103
0.0058576975
-0.0067368904
0.0054320838
-0.0077479035
0.0046816727
-0.0086063082
0.0036053037
-0.0092551838
0.0022077318
-0.0096269486
0.00051672557
-0.0096491429
-0.0014004834
-0.0092489223
-0.0034188398
-0.0083738917
-0.0053427162
-0.0070220296
-0.0068991423
-0.0052817812
-0.0077590432
-0.0033676456
-0.0076085747
-0.0016173528
-0.006287089
-0.00040826609
-0.0039555231
-0.001179018
-0.00034815305
0.0018215413
-0.0011372051
0.0043513549
-0.0021827701
0.0059528326
-0.0033585925
0.0068348053
-0.0045822069
0.0071708811
-0.0057997797
0.0070752703
-0.0069721472
0.0066044513
-0.0080636173
0.0057731428
-0.0090333893
0.0045750759
-0.0098289412
0.0030032837
-0.010381223
0.0010690072
-0.010604476
-0.0011772304
-0.01040073
-0.0036225853
-0.0096748517
-0.0060685947
-0.0083686364
-0.0082053576
-0.0065156544
-0.0096120252
-0.004309863
-0.0098143661
-0.0021483118
-0.0084486402
-0.00056492193
-0.005538913
-0.0017439399
-0.00034393298
0.0021654743
-0.0011278536
0.0051352756
-0.0021646983
0.0069896773
-0.0033258848
0.0079959919
-0.0045307802
0.0083757765
-0.0057319181
0.0082764082
-0.0069001927
0.0077727258
-0.0080123516
0.0068853017
-0.0090407961
0.0056035205
-0.0099449375
0.0039074251
-0.010663366
0.0017874359
-0.011106717
-0.00073387936
-0.011163392
-0.0035659107
-0.010697099
-0.0065348871
-0.0095825716
-0.0093198855
-0.0077667522
-0.011427845
-0.0053714817
-0.012209637
-0.0028071671
-0.011012955
-0.00077836518
-0.0075677149
-0.0025223051
-0.00032890776
0.0024943821
-0.0010824203
0.0058887882
-0.0020707743
0.0079780313
-0.0031636082
0.0090888258
-0.0042838958
0.0094960641
-0.0053928466
0.0093853591
-0.006474134
0.0088540133
-0.0075205429
0.0079317106
-0.0085229146
0.0066058921
-0.0094603431
0.0048448536
-0.010291332
0.0026184244
-0.010933225
-9.1985464e-05
-0.011283209
-0.0032159273
-0.011173627
-0.0066444691
-0.010415703
-0.010077809
-0.0088467229
-0.012996825
-0.0064557405
-0.014600619
-0.0035815172
-0.013887178
-0.0010642191
-0.010085013
-0.0035865241
-0.00031178582
0.0028061679
-0.0010206833
0.0065976857
-0.001926107
0.0088834551
-0.0028949584
0.010057677
-0.0038568947
0.010458
-0.0047855782
0.010314043
-0.0056807843
0.0097492195
-0.006554477
0.0088054034
-0.0074199138
0.007471329
-0.0082818518
0.0057067916
-0.0091251831
0.0034617557
-0.0099086672
0.00069149876
-0.01052728
-0.002597314
-0.010827032
-0.0063447176
-0.010573639
-0.010331202
-0.009493211
-0.014077253
-0.0073911351
-0.016702695
-0.0044189088
-0.016859404
-0.0014372084
-0.013066713
-0.0050237325
-0.0003100462
0.0031162141
-0.00098037434
0.0072680139
-0.0017790652
0.009682146
-0.002569389
0.010848001
-0.0032946249
0.011183236
-0.0039479318
0.010967349
-0.0045500107
0.010351298
-0.0051348306
0.0093902234
-0.0057399689
0.0080764674
-0.0063985757
0.0063653984
-0.007130179
0.0041933591
-0.0079303097
0.0014916295
-0.0087388525
-0.0017887712
-0.0094303988
-0.0056531712
-0.0097686116
-0.0099929892
-0.0094003628
-0.014445501
-0.0079305876
-0.01817247
-0.0052061616
-0.01958383
-0.0019026103
-0.016370265
-0.0069263428
-0.00035604506
0.0034722593
-0.0010240112
0.00793598
-0.0017042549
0.01036239
-0.0022608334
0.01140458
-0.0026657658
0.011588169
-0.0029440618
0.011245645
-0.0031443076
0.010551544
-0.0033249303
0.0095708461
-0.0035472589
0.0082987961
-0.0038711133
0.0066892528
-0.0043492381
0.004671484
-0.0050184454
0.0021608368
-0.0058766739
-0.00093054259
-0.0068578897
-0.0046719554
-0.0077763334
-0.0090745455
-0.0082658684
-0.013955966
-0.0077687596
-0.018669579
-0.0057511068
-0.021601483
-0.0024366716
-0.0196847
-0.0093630144
-0.00050826701
0.0039805263
-0.0012456487
0.0086733619
-0.0017959145
0.010912655
-0.0020480431
0.011656708
-0.0020325616
0.011572688
-0.0018254912
0.011038575
-0.0015122647
0.010238318
-0.001177937
0.0092365184
-0.00090479248
0.0080256515
-0.00077379955
0.0065582599
-0.00086356765
0.0047612521
-0.0012474317
0.0025447009
-0.0019829009
-0.0001950734
-0.0030819303
-0.0035729259
-0.0044600848
-0.0076963909
-0.0058275286
-0.012588522
-0.0065661916
-0.017930916
-0.0057684607
-0.022399214
-0.002951228
-0.022501932
-0.012314242
-0.0008685595
0.0048490858
-0.0017630014
0.009567804
-0.0021213873
0.011271041
-0.0019368909
0.011472212
-0.0013509792
0.010986776
-0.00051625901
0.010203855
0.00043696846
0.0092850904
0.0013995377
0.0082739493
0.0022723006
0.0071528887
0.002960841
0.0058697195
0.0033690797
0.0043530135
0.0033967331
0.0025170476
0.0029384845
0.00026317518
0.0019095557
-0.002543997
0.00026963648
-0.0060564717
-0.0018542034
-0.010464683
-0.0039516254
-0.015833494
-0.004860851
-0.021489988
-0.0032547086
-0.024108075
-0.015568951
-0.0015910887
0.0064401743
-0.0026108681
0.010587583
-0.002513164
0.011173338
-0.0015899467
0.010548994
-0.00017222241
0.0095690511
0.0014927397
0.0085388928
0.0032328299
0.0075450001
0.0049231661
0.0065836132
0.0064629247
0.0056131302
0.0077574315
0.0045752128
0.0087074415
0.0034030035
0.0092014354
0.0020230538
0.0091032869
0.00036132372
0.0082750426
-0.0017157527
0.0065654192
-0.0043468483
0.0039042011
-0.0078034645
0.00055892917
-0.012488222
-0.0024680705
-0.018462989
-0.0030273228
-0.023548823
-0.018596274
-0.002718361
0.0091585354
-0.0031498735
0.011019095
-0.0018030156
0.0098264802
0.00046667382
0.0082793055
0.0030893852
0.0069463399
0.0057737633
0.0058545147
0.0083628432
0.0049559202
0.010760336
0.0041861199
0.01289343
0.0034800362
0.0146906
0.0027780431
0.016068289
0.0020253146
0.016923234
0.0011681093
0.017119669
0.00016488848
0.016490792
-0.0010868761
0.01481681
-0.0026728657
0.011846633
-0.0048332877
0.0074354738
-0.0080770624
0.0022629173
-0.013290432
-0.001272472
-0.020013433
-0.019868746
-0.0024132772
0.011571813
2.8057361e-05
0.0085777596
0.004255134
0.0055994029
0.0084161106
0.0041183288
0.012231464
0.0031309868
0.015656234
0.0024297448
0.01868651
0.0019256444
0.021329148
0.0015434818
0.023583446
0.0012257382
0.025429181
0.00093230755
0.026820128
0.00063436805
0.027677145
0.00031109247
0.027900174
-5.8141086e-05
0.027347202
-0.00053390381
0.025771616
-0.0010972792
0.022843036
-0.0019047077
0.018054762
-0.0032887889
0.011113581
-0.0063492514
0.0033886732
-0.012288525
-0.016480072
0.011571814
0.020149574
0.025748977
0.029867306
0.032998292
0.035428037
0.037353681
0.038897163
0.040122901
0.041055209
0.041689577
0.04200067
0.041942528
0.041408625
0.040311345
0.038406638
0.035117849
0.028768597
0.016480072
)
;

boundaryField
{
    movingWall
    {
        type            calculated;
        value           uniform 0;
    }
    fixedWalls
    {
        type            calculated;
        value           uniform 0;
    }
    frontAndBack
    {
        type            empty;
        value           nonuniform List<scalar> 0();
    }
}


// ************************************************************************* //
