/*--------------------------------*- C++ -*----------------------------------*\
  =========                 |
  \\      /  F ield         | OpenFOAM: The Open Source CFD Toolbox
   \\    /   O peration     | Website:  https://openfoam.org
    \\  /    A nd           | Version:  9
     \\/     M anipulation  |
\*---------------------------------------------------------------------------*/
FoamFile
{
    format      ascii;
    class       surfaceScalarField;
    location    "0.54";
    object      alphaPhi0.phase1;
}
// * * * * * * * * * * * * * * * * * * * * * * * * * * * * * * * * * * * * * //

dimensions      [0 3 -1 0 0 0 0];

internalField   nonuniform List<scalar> 
19800
(
4.1985274e-88
-8.108117e-87
1.5170147e-87
-9.1532113e-87
7.8500994e-86
-2.9854269e-86
1.3598998e-84
-3.795561e-85
1.7540938e-84
-5.1246317e-85
5.0507551e-85
-2.3595496e-85
1.4946529e-85
-7.9679618e-86
9.5657972e-86
-2.4922102e-86
9.0718855e-86
-2.1138575e-85
9.3106445e-86
-2.1826454e-85
7.7818072e-84
-4.5159662e-85
2.3214335e-81
-1.063422e-82
1.2421381e-79
-5.3711546e-81
1.5492183e-78
-6.8635547e-80
8.210597e-78
-3.9626691e-79
2.9040002e-77
-1.363316e-78
7.8385944e-77
-3.5486295e-78
1.4109779e-76
-6.7566278e-78
1.9033374e-76
-8.6002444e-78
5.3997025e-75
-1.4376587e-76
5.863592e-73
-1.338223e-74
5.6236093e-71
-1.141409e-72
4.5794796e-69
-8.3006313e-71
3.2523559e-67
-5.2684784e-69
2.19087e-65
-3.1550256e-67
1.5774741e-63
-2.0106382e-65
1.1192993e-61
-1.2509107e-63
9.0334553e-60
-8.6115133e-62
1.448164e-57
-1.1211339e-59
6.2442591e-56
-3.765503e-58
1.2176417e-54
-1.0458804e-56
1.8213961e-50
-2.1765862e-53
6.5023793e-47
1.7972532e-49
1.1787979e-46
1.0163804e-48
3.0468452e-46
6.2272323e-48
2.4059989e-46
8.0122565e-48
4.7687606e-47
4.3834563e-48
2.9600819e-48
6.7733778e-49
1.8885025e-48
1.3322272e-49
1.6520968e-48
1.5238857e-49
7.8133733e-48
5.54106e-49
1.1217645e-46
8.6053307e-48
1.3753524e-45
1.2774109e-46
1.4114618e-44
1.5588402e-45
1.1671679e-43
1.4964938e-44
7.6516125e-43
1.1067096e-43
4.0592993e-42
6.4010026e-43
1.7596212e-41
2.9237845e-42
6.0835156e-41
1.0153774e-41
1.493339e-40
2.8732043e-41
1.6574367e-40
3.2897479e-41
1.0482425e-40
2.0424962e-41
2.8727651e-41
6.1666399e-42
4.9937008e-42
8.8596371e-43
2.8083422e-42
5.3659549e-44
5.0142429e-43
-2.1162566e-42
6.6643176e-42
-1.0520495e-41
4.9453519e-40
-7.6326408e-40
5.8100686e-39
-2.4140729e-38
1.9693474e-38
-1.9844958e-37
2.9944112e-39
-6.9993648e-40
1.1717502e-39
-7.4731146e-41
7.7135071e-40
-1.1334055e-41
1.9637068e-40
5.9598824e-42
1.8794819e-41
3.1087733e-42
1.0691917e-42
4.9726193e-43
4.0112233e-44
4.4845761e-44
4.6474356e-46
1.6379276e-45
2.1017234e-48
1.9059362e-47
1.3674411e-50
1.7590575e-49
8.845045e-53
1.5691272e-51
4.893158e-55
1.2090366e-53
3.5037727e-57
8.1958534e-56
5.9779694e-59
9.8152215e-58
3.7020981e-61
1.3572909e-59
8.3176572e-64
8.2701453e-62
1.9961644e-66
4.1878997e-64
1.788049e-70
2.2214266e-66
-6.048962e-71
1.1761858e-68
-6.4461548e-73
6.422666e-71
-4.962204e-75
3.2584177e-73
-2.029956e-76
1.6126622e-75
-8.5589819e-77
5.7091257e-77
-3.4816134e-77
1.9593879e-77
-1.2855197e-77
5.9436449e-78
-4.0298358e-78
1.6184282e-78
-9.4180523e-79
3.5095994e-79
-1.0414526e-79
5.0088852e-80
-2.7951932e-81
2.6926291e-81
-1.2285988e-83
1.4098101e-83
-1.0629584e-86
-1.8692012e-85
-9.225396e-87
-6.7866035e-88
-1.0845125e-86
-2.2506448e-85
-1.3838762e-86
-2.2387794e-85
-9.8609209e-87
-1.0183753e-85
-2.4243668e-87
-2.7976289e-87
-1.7763139e-88
-8.9952118e-88
-1.5658429e-89
-2.5728424e-88
-5.1420971e-90
-6.7501892e-88
-6.6566856e-88
6.0483413e-87
-1.5799128e-86
1.0061989e-84
-9.4447137e-85
3.9763038e-83
-3.3922877e-83
9.659265e-83
-1.1149267e-82
1.0435129e-82
-1.069957e-82
6.8162182e-83
-7.2423049e-83
3.8195575e-83
-4.1387499e-83
9.6893331e-84
-1.4360329e-83
1.2047615e-84
-2.2444884e-84
8.5446158e-85
-4.1583694e-85
2.5956802e-83
-5.1565877e-84
2.1115758e-81
-2.5541536e-82
1.0401378e-79
-9.2817014e-81
1.3881934e-78
-1.1778843e-79
9.0131523e-78
-7.9506161e-79
3.1266624e-77
-2.7921484e-78
7.8704945e-77
-5.8506575e-78
3.3385214e-76
-3.0234655e-77
9.5523602e-75
-4.4590711e-75
4.9469074e-73
-4.423999e-74
2.8723519e-71
-2.2731071e-72
1.7061931e-69
-1.2052068e-70
9.9282803e-68
-6.2026999e-69
5.5898653e-66
-3.0520996e-67
3.1350063e-64
-1.4811887e-65
2.399316e-62
-9.8320168e-64
2.6836002e-60
-9.5136354e-62
2.886893e-58
-7.9788974e-60
2.0901439e-56
-4.3105475e-58
1.9242841e-54
-2.6850986e-56
1.3234097e-51
-6.3117477e-54
3.1815898e-49
7.3557233e-52
1.8728729e-45
4.0481043e-47
8.4958274e-46
4.7984068e-47
4.5341742e-46
1.9016935e-47
1.1235398e-43
9.9586078e-45
9.3437355e-44
1.1957865e-44
7.2386853e-45
3.9303151e-45
1.4145979e-46
1.8322708e-46
1.0991834e-46
2.6147802e-47
1.5715451e-45
2.5225863e-46
1.9831695e-44
3.7549018e-45
2.1165587e-43
4.764034e-44
1.9011243e-42
5.007893e-43
1.3239683e-41
4.0322199e-42
6.498846e-41
2.2642481e-41
2.1637105e-40
8.4435207e-41
5.2196166e-40
2.1497898e-40
1.0830036e-39
4.2854072e-40
1.9005215e-39
7.6083874e-40
2.0456002e-39
7.4354477e-40
1.5988839e-39
4.4898135e-40
7.8779785e-40
1.4055433e-40
3.211612e-40
3.0837767e-42
1.2961418e-40
-2.4971151e-41
8.369441e-41
-2.9479268e-41
1.544764e-38
-1.5614215e-38
8.3131104e-37
-8.3551477e-37
8.1069288e-36
-7.4832619e-36
2.4421718e-35
-1.7379668e-35
3.7946029e-36
-1.9370226e-36
3.8179325e-37
-1.6050637e-37
1.8774402e-37
-1.4908724e-38
7.1718632e-38
5.1706578e-39
1.1889182e-38
4.2276618e-39
1.0721088e-39
1.0376494e-39
6.4438524e-41
1.4718644e-40
1.006851e-42
7.8931889e-42
3.9679408e-45
1.0505521e-43
2.3460238e-47
9.1753446e-46
1.5046181e-49
8.1082309e-48
8.1553219e-52
6.2074716e-50
4.665831e-54
4.0483098e-52
6.4357857e-56
3.5274507e-54
6.7417715e-58
5.81832e-56
1.2563188e-60
4.0011137e-58
1.8057489e-63
1.5430123e-60
-1.4026674e-66
6.9521079e-63
-7.238992e-68
3.5618213e-65
-7.0531878e-70
1.8847576e-67
-4.9854243e-72
9.225888e-70
-3.0293575e-74
4.1666877e-72
-4.0696066e-76
1.7743986e-74
-5.6255877e-77
1.6127538e-76
-1.6565076e-77
1.3946878e-77
-4.7293367e-78
2.8369136e-78
-1.0110739e-78
5.0761427e-79
-1.0555609e-79
5.7212488e-80
-2.9705902e-81
2.2951871e-81
-1.9095688e-83
-1.9809377e-83
-1.657324e-85
-1.1934834e-84
-5.1950317e-85
-4.7307912e-86
-2.4945276e-84
-4.9136298e-85
-3.8718493e-84
-1.7317619e-84
-4.1895507e-84
-2.8226007e-84
-2.4189438e-84
-3.5207315e-84
-1.9930747e-85
-2.1808049e-84
-1.2294151e-86
-1.8556438e-85
-4.8166872e-88
-1.2588587e-86
-1.5640243e-87
3.9642522e-84
-1.3086483e-83
6.7836511e-82
-8.2811e-82
2.7045442e-80
-3.0108233e-80
6.4894409e-80
-9.5991399e-80
6.7741045e-80
-8.9869343e-80
4.4863502e-80
-6.121956e-80
2.4624199e-80
-3.4664615e-80
6.3152486e-81
-1.1992136e-80
8.691134e-82
-1.9263896e-81
6.1451017e-82
-4.240157e-82
1.6347503e-80
-1.1238607e-80
5.3486386e-79
-3.8068134e-79
7.9370682e-78
-6.192899e-78
1.0971077e-76
-9.3636715e-77
1.2017197e-75
-1.0503924e-75
3.1225413e-75
-1.4628577e-75
2.7853056e-75
-8.8033701e-76
2.3720977e-73
-1.8534257e-73
1.2975285e-71
-4.5601211e-72
6.7091479e-70
-8.9521801e-71
3.6561317e-68
-3.6538033e-69
2.0510083e-66
-1.8052901e-67
1.1693036e-64
-9.1307281e-66
6.5291088e-63
-4.4708025e-64
3.6850944e-61
-2.1768985e-62
2.9240838e-59
-1.4868049e-60
3.539249e-57
-1.460012e-58
3.8143464e-55
-1.2415099e-56
2.6825661e-53
-6.2084558e-55
2.725042e-51
-3.8025592e-53
1.0335987e-48
-3.6306391e-51
5.2907442e-46
3.2139385e-48
1.7014091e-42
5.6912466e-44
6.5255888e-43
5.8148851e-44
1.0484389e-43
8.6909678e-45
1.2516129e-40
1.4197453e-41
1.1440354e-40
1.7601382e-41
1.0179518e-41
6.2571274e-42
9.8004096e-44
3.3274182e-43
3.8343663e-44
1.1077497e-44
2.7965747e-43
5.6562212e-44
3.3895727e-42
7.6218064e-43
3.4256692e-41
9.0817148e-42
2.9333623e-40
9.0454113e-41
1.9812095e-39
7.0320474e-40
9.6279589e-39
3.8979327e-39
3.2112114e-38
1.4550786e-38
7.7073699e-38
3.7032884e-38
1.5672439e-37
7.2022382e-38
2.7678469e-37
1.2541403e-37
2.9631342e-37
1.1458274e-37
2.3047322e-37
5.6796574e-38
1.1456339e-37
6.3814536e-39
4.9306328e-38
-1.1954253e-38
2.5670709e-38
-9.7891897e-39
9.6768201e-38
-2.519274e-38
1.4120483e-35
-1.4699034e-35
6.5750112e-34
-6.7488636e-34
6.2956082e-33
-5.8987308e-33
2.0522001e-32
-1.543874e-32
4.2468737e-33
-2.8042794e-33
5.791289e-34
-3.1780282e-34
2.7745334e-34
-3.8779816e-35
6.0663801e-35
6.6053568e-36
7.6640681e-36
4.4456278e-36
7.1429478e-37
9.8635493e-37
4.7454976e-38
1.4118019e-37
8.8176548e-40
8.4375081e-39
3.6515789e-42
1.2379389e-40
2.0877795e-44
1.0839253e-42
1.3400019e-46
9.6573697e-45
7.2646203e-49
7.4385563e-47
4.0421845e-51
4.876841e-49
4.6752824e-53
4.0626395e-51
3.7807519e-55
5.3723205e-53
8.294829e-58
3.6805324e-55
1.1975935e-60
1.6003012e-57
-3.5258302e-63
7.6058053e-60
-7.6186074e-65
4.0010215e-62
-6.8028903e-67
2.0988648e-64
-4.6238207e-69
1.0157039e-66
-2.6921846e-71
4.5056081e-69
-2.5144152e-73
1.8568066e-71
-1.7004055e-74
1.3041563e-73
-3.3540529e-75
7.0515173e-75
-6.2932358e-76
1.0374928e-75
-7.7066562e-77
1.2602971e-76
-6.360386e-78
8.4036873e-78
-4.2149397e-79
2.0288949e-79
-1.3168599e-80
-1.9182504e-80
-3.1947498e-82
-1.578379e-81
-9.396443e-82
-1.1667891e-82
-3.7248083e-81
-1.0082956e-81
-4.7736457e-81
-2.9767252e-81
-4.2520173e-81
-4.1338504e-81
-2.287354e-81
-4.5766237e-81
-1.7275005e-82
-1.9844921e-81
-1.0159605e-83
-1.6222831e-82
-3.7924534e-85
-1.281117e-83
-1.2755116e-84
1.8377069e-81
-7.3848016e-81
3.3635947e-79
-4.981931e-79
1.3489793e-77
-1.8321183e-77
3.1183616e-77
-5.6352616e-77
3.1744437e-77
-5.1780079e-77
2.1463142e-77
-3.5590792e-77
1.1647999e-77
-2.0071079e-77
2.998524e-78
-6.9356078e-78
4.6605268e-79
-1.1333745e-78
3.4976058e-79
-2.9997212e-79
1.0382051e-77
-4.7613946e-78
3.5346747e-76
-2.1026435e-76
5.4643856e-75
-4.2595499e-75
7.9831709e-74
-6.8992801e-74
1.104123e-72
-3.1700487e-73
3.0194686e-72
-1.3387458e-72
2.2172872e-72
-8.6880288e-73
2.2650715e-70
-1.8422458e-70
1.3296362e-68
-8.408635e-69
6.6765028e-67
-8.7774001e-68
3.4173648e-65
-4.4916146e-66
1.7812009e-63
-1.8628316e-64
9.9136106e-62
-9.0050165e-63
5.5263392e-60
-4.3922373e-61
3.1448753e-58
-2.1347541e-59
2.5103634e-56
-1.4461622e-57
3.1012694e-54
-1.4535462e-55
3.5564025e-52
-1.3045706e-53
2.4797855e-50
-6.2383531e-52
2.6104476e-48
-3.7740584e-50
7.9799955e-46
-1.8542212e-48
5.8890821e-43
5.0787263e-45
1.130595e-39
4.6920114e-41
4.0306834e-40
4.5387564e-41
5.4923737e-41
5.4526671e-42
1.0315323e-37
1.3501333e-38
1.0175828e-37
1.776033e-38
1.1020077e-38
7.0929615e-39
9.9499582e-41
4.3891921e-40
1.9343342e-41
6.4958673e-42
3.2764218e-41
1.0463521e-41
4.3509303e-40
1.1442086e-40
4.1731887e-39
1.2881753e-39
3.3938066e-38
1.2239843e-38
2.2094732e-37
9.2234636e-38
1.0525361e-36
5.0463805e-37
3.480836e-36
1.8821178e-36
8.2687768e-36
4.7851476e-36
1.6484939e-35
9.1246686e-36
2.9104818e-35
1.5597826e-35
3.0877221e-35
1.3405695e-35
2.3788757e-35
5.2721736e-36
1.2025562e-35
-1.1486964e-36
5.4087752e-36
-2.9118391e-36
2.815292e-36
-1.7910302e-36
6.4736893e-35
-2.326736e-35
7.4810668e-33
-8.0208904e-33
3.206535e-31
-3.3713278e-31
3.1026776e-30
-2.9677324e-30
1.1050355e-29
-8.8852437e-30
3.0773121e-30
-2.4307819e-30
5.7238953e-31
-3.7924042e-31
2.6721512e-31
-5.605224e-32
3.8995019e-32
5.1111533e-33
3.734455e-33
3.179797e-33
3.5855629e-34
6.4661402e-34
2.6059896e-35
9.3862475e-35
5.6748082e-37
6.179035e-36
2.5616684e-39
1.0170948e-37
1.4264074e-41
9.0884676e-40
9.2069661e-44
8.2222782e-42
5.0334912e-46
6.4492836e-44
2.7854277e-48
4.302263e-46
2.9176857e-50
3.5542493e-48
2.0107156e-52
4.245515e-50
4.1717128e-55
2.7506505e-52
4.5244017e-58
1.2277023e-54
-4.4486766e-60
6.0435083e-57
-6.2917983e-62
3.2666817e-59
-5.1468161e-64
1.6969491e-61
-3.329387e-66
8.0902772e-64
-1.8549689e-68
3.522337e-66
-1.4208172e-70
1.4023527e-68
-8.5802087e-72
8.0699433e-71
-1.834467e-72
3.9243132e-72
-3.8290592e-73
6.2382174e-73
-5.8919255e-74
8.2457048e-74
-5.7997453e-75
6.4291921e-75
-3.5690495e-76
1.1196691e-76
-9.5205723e-78
-2.4883255e-77
-4.0963016e-79
-1.5065365e-78
-1.1543496e-78
-1.8762006e-79
-4.0254406e-78
-1.3581344e-78
-3.9034385e-78
-3.4400625e-78
-3.413021e-78
-4.0844399e-78
-1.5760818e-78
-4.0488083e-78
-1.0937299e-79
-1.6143609e-78
-6.1156285e-81
-1.2307923e-79
-2.1669139e-82
-9.2369561e-81
-8.7611675e-82
6.6880223e-79
-3.1501127e-78
1.2899341e-76
-2.2354171e-76
5.1984248e-75
-8.2967438e-75
1.1692725e-74
-2.4868766e-74
1.1725189e-74
-2.2565486e-74
8.0755809e-75
-1.5660425e-74
4.3526334e-75
-8.8199017e-75
1.1249084e-75
-3.0469951e-75
1.9407285e-76
-5.077141e-76
1.6132217e-76
-1.5563896e-76
5.2196351e-75
-2.2739174e-75
1.8521039e-73
-9.7842216e-74
3.0157843e-72
-2.3597729e-72
4.6209485e-71
-3.972178e-71
5.8587952e-70
-1.9805153e-70
1.6018744e-69
-7.0430368e-70
1.717918e-69
-6.4557064e-70
1.7210886e-67
-1.4603873e-67
1.092133e-65
-8.7093277e-66
5.4572044e-64
-8.6691508e-65
2.6543315e-62
-3.7651446e-63
1.2489829e-60
-1.6729604e-61
6.5740269e-59
-6.9814038e-60
3.5787654e-57
-3.1781794e-58
2.0118592e-55
-1.54435e-56
1.5367383e-53
-1.0028364e-54
1.9645927e-51
-1.0411584e-52
2.3675814e-49
-9.3014411e-51
1.6791144e-47
-4.6897702e-49
1.7878511e-45
-2.7668301e-47
4.8404786e-43
-1.6313975e-45
4.3799601e-40
4.3038933e-42
5.9545007e-37
2.7737664e-38
2.0062235e-37
2.5972067e-38
2.6853074e-38
2.9771127e-39
6.8423377e-35
9.1380439e-36
6.8581474e-35
1.3381613e-35
9.5378902e-36
6.0597779e-36
1.0777447e-37
4.5747842e-37
4.3223679e-39
6.4327582e-39
4.0561307e-39
1.8372167e-39
4.278064e-38
1.3089259e-38
3.914691e-37
1.3864265e-37
3.0096249e-36
1.2595114e-36
1.8786234e-35
9.2311273e-36
8.7262454e-35
5.0075708e-35
2.841342e-34
1.877165e-34
6.6323767e-34
4.8062324e-34
1.286182e-33
9.096991e-34
2.2373247e-33
1.541893e-33
2.3337331e-33
1.2719388e-33
1.7768422e-33
3.9977993e-34
9.1624064e-34
-2.5997073e-34
4.4171437e-34
-3.9643678e-34
2.7547846e-34
-2.4782147e-34
2.642062e-32
-2.7572383e-32
2.5959633e-30
-2.884159e-30
1.0461754e-28
-1.1311664e-28
1.0466372e-27
-1.0243612e-27
4.1200211e-27
-3.5299579e-27
1.551771e-27
-1.4097811e-27
3.92525e-28
-2.9866929e-28
1.7888601e-28
-5.190966e-29
1.9768531e-29
2.8128748e-30
1.4565384e-30
1.692832e-30
1.4160664e-31
3.1730255e-31
1.1176253e-32
4.6731676e-32
2.8182839e-34
3.3621558e-33
1.4272027e-36
6.2790617e-35
7.7595817e-39
5.8032111e-37
5.0243884e-41
5.3399717e-39
2.7490698e-43
4.2679559e-41
1.4950438e-45
2.8712315e-43
1.4824475e-47
2.3615009e-45
8.8126319e-50
2.6473436e-47
1.6093697e-52
1.6504763e-49
1.5501066e-56
7.4735927e-52
-3.9142426e-57
3.7626881e-54
-4.2762813e-59
2.1016614e-56
-3.2147848e-61
1.0794318e-58
-1.9716968e-63
5.0556402e-61
-1.0416783e-65
2.1448638e-63
-6.4361505e-68
8.2053705e-66
-3.1993495e-69
3.8186147e-68
-7.7286977e-70
1.5511117e-69
-1.7676996e-70
2.7767936e-70
-3.0725351e-71
3.8858078e-71
-3.2961269e-72
3.1371659e-72
-2.0021655e-73
9.1769063e-75
-4.9025758e-75
-1.9237177e-74
-4.1121165e-76
-9.6293463e-76
-1.0803076e-75
-2.2618369e-76
-3.0353423e-75
-1.3380157e-75
-2.6458705e-75
-2.924815e-75
-2.075331e-75
-2.9867528e-75
-8.4310291e-76
-2.6634456e-75
-5.4034241e-77
-9.7987096e-76
-2.873961e-78
-6.9862545e-77
-9.6960283e-80
-4.9780711e-78
-4.5043495e-79
1.9993074e-76
-1.0740601e-75
4.0225358e-74
-7.9408382e-74
1.6258625e-72
-2.9672281e-72
3.5876377e-72
-8.7366851e-72
3.5668272e-72
-7.8632483e-72
2.4996106e-72
-5.5137192e-72
1.3410937e-72
-3.1058717e-72
3.4886026e-73
-1.0756584e-72
6.5600126e-74
-1.8271036e-73
5.7641809e-74
-6.2280666e-74
2.1679027e-72
-1.1007622e-72
8.0144556e-71
-4.1153947e-71
1.3772203e-69
-1.1066949e-69
2.4202315e-68
-1.0040937e-68
2.2845649e-67
-9.1294837e-68
6.2419192e-67
-2.7637153e-67
1.1415e-66
-3.7575745e-67
1.085377e-64
-9.5754377e-65
7.4882483e-63
-6.4046434e-63
4.0113493e-61
-3.1243994e-61
1.8634662e-59
-2.9374831e-60
7.935348e-58
-1.2116675e-58
3.834741e-56
-1.9954036e-56
1.9437306e-54
-2.0826976e-55
1.0557663e-52
-8.8373734e-54
7.3643905e-51
-4.7187134e-52
9.5617446e-49
-5.6772465e-50
1.1755277e-46
-5.1519588e-48
8.7806199e-45
-2.7413828e-46
9.0297968e-43
-1.4263097e-44
2.6457351e-40
-1.3738499e-41
2.913826e-37
2.8775908e-39
2.5781691e-34
1.2422943e-35
8.3395584e-35
1.1589214e-35
1.1106403e-35
1.29994e-36
3.5541292e-32
4.62563e-33
3.712421e-32
7.7686783e-33
6.5862412e-33
4.002801e-33
1.0053974e-34
3.7678636e-34
8.3754044e-37
6.3353808e-36
6.022005e-37
2.9909673e-37
3.3918465e-36
1.2239638e-36
2.9235021e-35
1.1706297e-35
2.1117999e-34
1.0151001e-34
1.2548337e-33
7.2363884e-34
5.6443966e-33
3.9015953e-33
1.793673e-32
1.4752246e-32
4.06772e-32
3.824328e-32
7.5615534e-32
7.2638107e-32
1.2670741e-31
1.2362983e-31
1.273924e-31
1.0104956e-31
9.4495221e-32
2.8173048e-32
4.9446778e-32
-2.6273583e-32
3.1745795e-32
-3.6394494e-32
3.4869295e-32
-3.8228102e-32
7.3145075e-30
-8.6190228e-30
6.3106098e-28
-7.3158695e-28
2.4414636e-26
-2.7221704e-26
2.5401215e-25
-2.5429629e-25
1.1160579e-24
-1.0702688e-24
5.7345363e-25
-5.7794974e-25
1.9221014e-25
-1.6055506e-25
8.6240577e-26
-3.2098445e-26
8.1140833e-27
1.0969322e-27
4.8138674e-28
7.2181111e-28
4.5574404e-29
1.2389514e-28
3.8509352e-30
1.8295543e-29
1.1241463e-31
1.4283577e-30
6.7217604e-34
3.11158e-32
3.5595652e-36
3.0293941e-34
2.2923999e-38
2.8306528e-36
1.2491875e-40
2.2981653e-38
6.8011818e-43
1.5743902e-40
6.2621549e-45
1.3080644e-42
3.0854597e-47
1.3760682e-44
4.1667401e-50
7.9645802e-47
-1.19488e-52
3.6405941e-49
-2.5860301e-54
1.9710969e-51
-2.3885757e-56
1.0955279e-53
-1.6602182e-58
5.5349721e-56
-9.572563e-61
2.5295551e-58
-4.7428314e-63
1.0358121e-60
-2.4482283e-65
3.7617805e-63
-9.7887527e-67
1.4619093e-65
-2.6339846e-67
4.8619279e-67
-6.3872532e-68
9.6283138e-68
-1.2039088e-68
1.3794057e-68
-1.4183507e-69
1.0833629e-69
-8.4859528e-71
-2.6415518e-71
-1.8627854e-72
-1.0293189e-71
-3.3491695e-73
-4.4686798e-73
-8.0593709e-73
-2.1287966e-73
-1.7750936e-72
-1.0191383e-72
-1.4258225e-72
-1.928629e-72
-1.0056871e-72
-1.7066737e-72
-3.6502946e-73
-1.3729033e-72
-2.1656688e-74
-4.6779616e-73
-1.0972271e-75
-3.122534e-74
-3.519205e-77
-2.1154758e-75
-1.8256754e-76
5.0626409e-74
-3.0377497e-73
1.0540998e-71
-2.3236002e-71
4.270869e-70
-8.728923e-70
9.2987944e-70
-2.5389343e-69
9.2138769e-70
-2.2746706e-69
6.559285e-70
-1.6114136e-69
3.5149287e-70
-9.100269e-70
9.2074954e-71
-3.1626715e-70
1.8417181e-71
-5.4780288e-71
1.6535395e-71
-1.9826032e-71
7.7669074e-70
-4.5329145e-70
2.9503284e-68
-1.7250481e-68
5.3398139e-67
-4.3443556e-67
9.6720452e-66
-4.258049e-66
7.0015672e-65
-3.1355524e-65
1.8394063e-64
-8.5641175e-65
6.2313921e-64
-3.4638559e-64
5.8471408e-62
-5.3279585e-62
4.3956905e-60
-3.9507313e-60
2.5856745e-58
-2.2324804e-58
1.2726428e-56
-1.0115667e-56
4.9533339e-55
-7.484093e-56
2.1871042e-53
-2.586654e-54
9.9863517e-52
-2.7102038e-52
4.8044758e-50
-5.5431691e-51
2.8594513e-48
-2.2724733e-49
3.6474534e-46
-2.1469461e-47
4.8098397e-44
-2.3425157e-45
3.6051184e-42
-1.2021818e-43
3.5418834e-40
-6.3796777e-42
6.7379846e-38
-2.381728e-40
1.4710117e-34
1.2470987e-36
9.4389884e-32
4.3820464e-33
2.7136673e-32
3.9441113e-33
3.2577046e-33
3.8453582e-34
1.4646312e-29
1.8092747e-30
1.624891e-29
3.5243023e-30
3.6718659e-30
2.0713383e-30
7.5890938e-32
2.4321079e-31
3.5357559e-34
4.9825108e-33
1.2977916e-34
7.9196622e-35
2.1685668e-34
1.1204474e-34
1.7532971e-33
7.9138806e-34
1.1954372e-32
6.5240569e-33
6.7069566e-32
4.5138006e-32
2.892843e-31
2.4164248e-31
8.8399057e-31
9.2011535e-31
1.8966806e-30
2.4037311e-30
3.2613634e-30
4.5610436e-30
5.0486747e-30
7.8397979e-30
4.6839671e-30
6.5448414e-30
3.2740647e-30
1.8788824e-30
1.7491328e-30
-1.5652771e-30
1.2372211e-30
-2.2188863e-30
7.4518118e-30
-8.9119574e-30
1.4186361e-27
-1.8115877e-27
1.1043029e-25
-1.3528633e-25
4.1652707e-24
-4.8140436e-24
4.546221e-23
-4.6529285e-23
2.2489044e-22
-2.7106274e-22
1.5709906e-22
-1.7804179e-22
6.6735766e-23
-7.2680833e-23
3.0060419e-23
-1.4955334e-23
2.6916401e-24
3.3627894e-25
1.35936e-25
2.5151882e-25
1.2132014e-26
3.9516409e-26
1.0827497e-27
5.7752869e-27
3.6579483e-29
4.8624561e-28
2.6683087e-31
1.2525619e-29
1.3838379e-33
1.3137764e-31
8.7535566e-36
1.2391353e-33
4.7176963e-38
1.0195254e-35
2.5508282e-40
7.1159483e-38
2.0322876e-42
5.8609697e-40
7.9153045e-45
5.6303172e-42
4.9099527e-48
3.1130675e-44
-1.0487695e-49
1.4699096e-46
-1.3511451e-51
8.4960794e-49
-1.0955909e-53
4.6633362e-51
-7.0214957e-56
2.3023751e-53
-3.7484457e-58
1.014229e-55
-1.6917365e-60
3.9311467e-58
-7.3218675e-63
1.3179864e-60
-2.4988742e-64
4.295704e-63
-7.3679136e-65
1.2383913e-64
-1.8922833e-65
2.657265e-65
-3.855185e-66
3.8712161e-66
-4.9159569e-67
2.8165956e-67
-2.8321647e-68
-2.0469749e-68
-5.4101247e-70
-4.1722636e-69
-2.237866e-70
-1.7730561e-70
-4.9117966e-70
-1.6080159e-70
-8.5175983e-70
-6.2121438e-70
-6.2853682e-70
-1.0208079e-69
-4.0033503e-70
-7.8822576e-70
-1.3102988e-70
-5.7409541e-70
-7.2248514e-72
-1.8152852e-70
-3.4932587e-73
-1.1355718e-71
-1.0660698e-74
-7.3293487e-73
-6.032398e-74
1.1099644e-71
-7.3173816e-71
2.3788683e-69
-5.7611154e-69
9.6583273e-68
-2.173856e-67
2.0832643e-67
-6.2701019e-67
2.0651071e-67
-5.6084695e-67
1.4922032e-67
-4.0147991e-67
8.0059218e-68
-2.2768346e-67
2.1135863e-68
-7.947762e-68
4.3976836e-69
-1.4046827e-68
3.9824867e-69
-5.1701219e-69
2.3268367e-67
-1.4595266e-67
9.4588397e-66
-5.4895678e-66
1.8472642e-64
-9.9269902e-65
2.823957e-63
-1.3795032e-63
1.7152796e-62
-8.564226e-63
4.4623631e-62
-2.2184239e-62
2.9949829e-61
-1.2129227e-61
2.7482133e-59
-2.523281e-59
2.2556551e-57
-2.0831248e-57
1.4616315e-55
-1.3345486e-55
8.003663e-54
-7.0933543e-54
3.2769615e-52
-2.6705603e-52
1.3646372e-50
-4.9595864e-51
5.4925815e-49
-6.1618075e-50
2.1476439e-47
-2.662988e-48
1.1649044e-45
-1.1644119e-45
1.0808934e-43
-6.66872e-45
1.6076785e-41
-8.1818366e-43
1.1457686e-39
-3.6948454e-41
1.1354926e-37
-2.8237267e-39
6.4498412e-37
-1.114957e-38
6.3685748e-32
3.7149436e-34
2.988518e-29
1.1711868e-30
7.2816328e-30
1.0575966e-30
9.1151002e-31
1.0321127e-31
4.9110391e-27
5.6730238e-28
5.7834868e-27
1.2515445e-27
1.6398589e-27
8.3936549e-28
4.4916015e-29
1.2107928e-28
2.1585197e-31
3.0186348e-30
1.653081e-32
4.0222498e-32
1.539716e-32
1.0493012e-32
8.5403828e-32
4.4083365e-32
5.5003647e-31
3.3572441e-31
2.8858664e-30
2.2431528e-30
1.1764155e-29
1.1835432e-29
3.3912595e-29
4.5147752e-29
6.6469844e-29
1.1791284e-28
9.9104676e-29
2.2048883e-28
1.2913116e-28
3.8383063e-28
9.4402376e-29
3.3518569e-28
5.2336708e-29
1.0945312e-28
2.9187845e-29
-5.9980972e-29
2.8773606e-29
-9.6387939e-29
1.0979155e-27
-2.2999783e-27
1.9135692e-25
-3.4951669e-25
1.4062925e-23
-2.1774636e-23
5.2842305e-22
-6.9584899e-22
6.1055639e-21
-6.7104542e-21
3.4304862e-20
-5.2799959e-20
3.2755677e-20
-5.0563912e-20
1.7972992e-20
-2.5786071e-20
7.1215058e-21
-4.8053419e-21
7.0575987e-22
9.2356542e-23
3.3043368e-23
7.2775578e-23
2.7006545e-24
1.0454503e-23
2.5000611e-25
1.4926985e-24
9.7631104e-27
1.3449564e-25
8.9138632e-29
4.1270161e-27
4.5893248e-31
4.7871859e-29
2.8008551e-33
4.5324247e-31
1.4731807e-35
3.7490644e-33
7.9213086e-38
2.6621902e-35
5.012831e-40
2.1418386e-37
1.31964e-42
1.7963092e-39
-1.8545966e-45
9.7014061e-42
-5.5317283e-47
5.0439638e-44
-5.5646061e-49
2.9955456e-46
-4.0407304e-51
1.6094283e-48
-2.3523846e-53
7.6568862e-51
-1.1196237e-55
3.1770874e-53
-4.2681604e-58
1.1175859e-55
-1.3706181e-60
3.1846346e-58
-5.2247678e-62
7.7184134e-61
-1.7511722e-62
2.5533782e-62
-4.7321358e-63
6.1056614e-63
-1.0288161e-63
8.8101398e-64
-1.3900081e-64
5.3134564e-65
-7.8423268e-66
-9.456556e-66
-1.6054317e-67
-1.3749985e-66
-1.000682e-67
-6.7957315e-68
-2.493875e-67
-9.8722955e-68
-3.4116416e-67
-3.1013478e-67
-2.3149305e-67
-4.4412821e-67
-1.3356695e-67
-3.0106355e-67
-3.9754583e-68
-1.9925101e-67
-2.040386e-69
-5.8593547e-68
-9.4408271e-71
-3.4374869e-69
-2.7441056e-72
-2.1187723e-70
-1.662776e-71
2.1432808e-69
-1.5306317e-68
4.7081276e-67
-1.2359569e-66
1.9149261e-65
-4.6806184e-65
4.1023761e-65
-1.3425032e-64
4.0822901e-65
-1.2020809e-64
2.9923964e-65
-8.6967208e-65
1.609546e-65
-4.9576108e-65
4.2876712e-66
-1.740336e-65
9.1835295e-67
-3.1393031e-66
8.3416181e-67
-1.1657377e-66
5.8837843e-65
-3.7835998e-65
2.754748e-63
-1.7110333e-63
5.6958407e-62
-3.379252e-62
6.8577726e-61
-3.8164356e-61
3.5651747e-60
-1.9665735e-60
1.0217526e-59
-5.0759805e-60
1.295479e-58
-5.2757278e-59
1.3240952e-56
-4.7243746e-57
1.0880468e-54
-3.6758133e-55
7.3566499e-53
-6.7602494e-53
4.5002949e-51
-4.1555231e-51
2.0818172e-49
-1.886159e-49
9.8424281e-48
-8.7095012e-48
3.8921228e-46
-3.2271018e-46
1.1705565e-44
-1.1839031e-45
4.4380303e-43
-2.841258e-44
2.9629066e-41
-3.454416e-41
4.2161236e-39
-1.9229429e-40
2.9375682e-37
-1.0767057e-38
3.2538678e-35
-4.7355739e-36
4.8502769e-33
-3.9705509e-33
2.7674152e-29
3.2636984e-32
8.2434878e-27
2.2969402e-28
2.0395071e-27
2.0594615e-28
1.5340506e-27
1.5387779e-28
1.3980303e-24
1.4856884e-25
1.6805426e-24
3.5196655e-25
5.6992132e-25
2.6283254e-25
2.0733919e-26
4.5885441e-26
1.2055806e-28
1.4215716e-27
1.9753341e-30
2.0832491e-29
1.4676948e-30
1.0208178e-30
3.5154119e-30
2.2262542e-30
2.0430323e-29
1.3762682e-29
1.0013259e-28
8.8155806e-29
3.8230299e-28
4.5674109e-28
1.041002e-27
1.7621178e-27
1.8595362e-27
4.7388283e-27
2.2271298e-27
8.9406554e-27
1.6951783e-27
1.5892098e-26
-2.7053041e-28
1.457057e-26
-1.0178359e-27
5.6379366e-27
-7.5488939e-28
-1.7184352e-27
-4.7614985e-28
-5.0650737e-27
6.2963353e-26
-5.2888638e-25
1.6325338e-23
-5.7757921e-23
1.2869477e-21
-3.0258948e-21
5.0350308e-20
-9.0831876e-20
6.2905498e-19
-9.0640227e-19
3.9299179e-18
-6.4060706e-18
4.71571e-18
-4.9822393e-18
2.5009694e-18
-1.9772178e-18
1.4091426e-18
-5.6901701e-19
1.6215883e-19
2.3075572e-20
7.30646e-21
1.8089054e-20
5.2076441e-22
2.411431e-21
4.7305115e-23
3.2326813e-22
2.1084841e-24
3.0367561e-23
2.4853423e-26
1.1149411e-24
1.3024929e-28
1.4727876e-26
7.4393591e-31
1.3877886e-28
3.7333101e-33
1.136607e-30
2.0688507e-35
8.1628565e-33
9.6532125e-38
6.4996438e-35
1.0113676e-40
4.6515919e-37
-1.4735637e-42
2.4679357e-39
-2.0908658e-44
1.4541226e-41
-1.7859847e-46
8.5209218e-44
-1.1524464e-48
4.4069613e-46
-5.8165225e-51
1.9636972e-48
-2.1940415e-53
7.2581857e-51
-4.6062e-56
2.0169151e-53
-7.0987758e-59
3.2059237e-56
-8.1910216e-60
3.9692556e-59
-3.5629638e-60
4.0587213e-60
-1.0298017e-60
1.2008668e-60
-2.4161774e-61
1.6769258e-61
-3.4261977e-62
6.4297537e-63
-1.8649331e-63
-3.2818951e-63
-5.102187e-65
-3.7477367e-64
-4.2392587e-65
-2.7014733e-65
-1.0726414e-64
-4.9628779e-65
-1.1569482e-64
-1.2920785e-64
-7.2289694e-65
-1.6142764e-64
-3.789757e-65
-9.6712805e-65
-1.0323626e-65
-5.8351691e-65
-4.9401047e-67
-1.600069e-65
-2.1934382e-68
-8.8069952e-67
-6.0769324e-70
-5.1986069e-68
-3.8881245e-69
3.6898e-67
-2.821762e-66
8.288076e-65
-2.3314906e-64
3.3739468e-63
-8.8531037e-63
7.2014312e-63
-2.531352e-62
7.205281e-63
-2.2732454e-62
5.3575629e-63
-1.6625447e-62
2.8932989e-63
-9.5365726e-63
7.7800451e-64
-3.3695257e-63
1.7357574e-64
-6.1955456e-64
1.5925929e-64
-2.4241514e-64
1.2819463e-62
-8.9451878e-63
7.1158947e-61
-4.7231651e-61
1.449078e-59
-9.1274922e-60
1.4317633e-58
-8.5999266e-59
6.4245681e-58
-3.8594366e-58
1.8523633e-57
-1.0247291e-57
3.8128832e-56
-1.6292404e-56
4.7127664e-54
-1.7875044e-54
4.9281551e-52
-1.6421443e-52
4.0995079e-50
-1.2239914e-50
2.4829195e-48
-7.4480456e-49
1.205612e-46
-8.3471149e-47
6.591321e-45
-6.0991992e-45
3.0698744e-43
-2.8420848e-43
9.9788743e-42
-8.9026282e-42
2.7625203e-40
-2.0115618e-40
8.3386456e-39
-3.6806196e-40
8.8944045e-37
-8.5151407e-37
7.3519816e-35
-4.7562752e-35
8.4752689e-33
-1.6772295e-34
4.4217062e-29
-4.3923934e-29
8.5766333e-27
-5.6977513e-29
2.0134628e-24
2.3143979e-26
6.7011342e-25
2.6266112e-26
8.7896451e-23
3.7549114e-24
3.6973163e-22
3.8881453e-23
4.0381076e-22
7.9153465e-23
1.5047696e-22
6.3481591e-23
7.1228749e-24
1.2820283e-23
5.2622377e-26
4.8958271e-25
4.9938587e-28
8.1396347e-27
1.4327767e-28
1.8493234e-28
1.3635098e-28
1.2182063e-28
5.9920186e-28
4.5264648e-28
2.8017722e-27
2.7165911e-27
1.0233816e-26
1.409235e-26
2.7202612e-26
5.6876498e-26
4.6555027e-26
1.6886043e-25
3.9735488e-26
3.6585476e-25
-3.7128696e-26
6.8426379e-25
-1.3112872e-25
6.4801868e-25
-1.2513634e-25
2.9717361e-25
-1.0082415e-25
-2.2871916e-26
-4.8623496e-25
-5.7045727e-25
-2.2645741e-23
-9.3810451e-23
4.7364496e-22
-7.6377568e-21
8.03506e-20
-3.2434125e-19
3.5735039e-18
-9.2329033e-18
4.7360747e-17
-6.8927462e-17
3.5784841e-16
-3.8783115e-16
4.3055077e-16
-9.7859896e-17
2.303805e-16
-7.5493077e-18
1.22046e-16
-1.7686904e-18
2.0335172e-17
5.1124359e-18
1.2731857e-18
3.0263037e-18
8.9270604e-20
4.4475802e-19
7.7230777e-21
5.8807286e-20
3.7756086e-22
5.7197866e-21
5.6251515e-24
2.4621108e-22
3.1040004e-26
3.7724066e-24
1.6036543e-28
3.5227646e-26
7.3626494e-31
2.7925367e-28
4.3039933e-33
1.9659284e-30
1.237984e-35
1.5238879e-32
-1.7363207e-38
9.7161056e-35
-5.5699251e-40
5.368357e-37
-5.8762374e-42
3.3442094e-39
-4.2899295e-44
1.8939863e-41
-2.3241704e-46
9.1443541e-44
-9.8132121e-49
3.5520158e-46
-5.8262039e-52
7.4254172e-49
-1.5437264e-54
4.937607e-52
-6.8275523e-57
1.008498e-54
-7.0093011e-58
3.630443e-57
-5.7620293e-58
4.1033595e-58
-2.0274249e-58
2.1795577e-58
-4.9317839e-59
2.7119856e-59
-7.2141605e-60
-7.5588608e-62
-3.8423204e-61
-8.9116518e-61
-1.7078139e-62
-8.5819608e-62
-1.7002402e-62
-1.0854049e-62
-3.8224404e-62
-2.0712667e-62
-3.4870898e-62
-4.5697928e-62
-1.9325064e-62
-4.9489064e-62
-9.2391656e-63
-2.6459326e-62
-2.3170354e-63
-1.4598723e-62
-1.0359603e-64
-3.7441746e-63
-4.42556e-66
-1.9345508e-64
-1.1679624e-67
-1.0963687e-65
-7.812315e-67
5.7229851e-65
-4.6378844e-64
1.311868e-62
-3.9157189e-62
5.3410642e-61
-1.4895745e-60
1.1378848e-60
-4.2535702e-60
1.1469974e-60
-3.8377488e-60
8.6512909e-61
-2.8383619e-60
4.6963171e-61
-1.6396273e-60
1.2758438e-61
-5.8363389e-61
3.0401982e-62
-1.0918441e-61
2.8550668e-62
-4.81144e-62
2.6215943e-60
-1.9624561e-60
1.5602973e-58
-1.1057539e-58
2.9629727e-57
-2.0101978e-57
2.4753048e-56
-1.6171026e-56
1.0040613e-55
-6.6369491e-56
2.7770213e-55
-1.5520578e-55
8.0440228e-54
-3.1583085e-54
1.1865746e-51
-4.6951168e-52
1.4499991e-49
-5.2206468e-50
1.4402309e-47
-4.4519797e-48
1.2001447e-45
-3.2125547e-46
8.7080424e-44
-2.0467598e-44
5.6138987e-42
-1.1692139e-42
3.0754996e-40
-5.9087726e-41
9.8720904e-39
-2.3866186e-39
3.1132806e-37
-2.8308894e-37
4.6763866e-36
-3.1317464e-36
2.08093e-34
-6.0050511e-36
1.6007516e-32
-3.5763938e-34
1.5563417e-30
-4.8426281e-32
2.623568e-25
-2.3703769e-25