/*--------------------------------*- C++ -*----------------------------------*\
  =========                 |
  \\      /  F ield         | OpenFOAM: The Open Source CFD Toolbox
   \\    /   O peration     | Website:  https://openfoam.org
    \\  /    A nd           | Version:  9
     \\/     M anipulation  |
\*---------------------------------------------------------------------------*/
FoamFile
{
    format      ascii;
    class       volScalarField;
    location    "0.54";
    object      p_rgh;
}
// * * * * * * * * * * * * * * * * * * * * * * * * * * * * * * * * * * * * * //

dimensions      [1 -1 -2 0 0 0 0];

internalField   nonuniform List<scalar> 
10000
(
0
7.912531e-05
0.010204013
0.025906959
0.047179308
0.074325156
0.10740762
0.14645499
0.19150075
0.24258774
0.29975224
0.36299891
0.43236487
0.50786241
0.58950284
0.67727726
0.77113515
0.87104809
0.97700525
1.0889724
1.2069269
1.3308677
1.4607895
1.5967095
1.7386448
1.8865815
2.04046
2.2001852
2.3656441
2.5366725
2.7131387
2.8942413
3.0774327
3.2637028
3.4571063
3.654442
3.8540118
4.0542857
4.2537224
4.4506573
4.6432104
4.8291504
5.0055589
5.1698031
5.3194768
5.4520579
5.5649435
5.6555718
5.7214198
5.7600902
5.7694314
5.7476728
5.6935138
5.6065031
5.4884998
5.3398717
5.1658059
4.9732721
4.7602193
4.5265537
4.2796937
4.0266252
3.7740969
3.5265202
3.2903785
3.0687001
2.8635412
2.6759941
2.5062881
2.3538956
2.2177484
2.096475
1.9885189
1.8922862
1.8063418
1.7293592
1.660059
1.597163
1.5442006
1.4921316
1.4449057
1.4018048
1.3624116
1.3265686
1.2948466
1.2669426
1.2424321
1.2210026
1.2026701
1.1878496
1.1760596
1.1661464
1.1580129
1.1517052
1.147216
1.1445031
1.1435129
1.1440843
1.1462664
1.1539824
-0.0085579525
-0.0086694723
0.0012568908
0.016721115
0.03788306
0.064917856
0.097923608
0.13686077
0.18179326
0.23278572
0.28985054
0.35302729
0.42231948
0.49773685
0.5792977
0.66696132
0.76069843
0.86050343
0.96634792
1.0781987
1.19605
1.319887
1.449681
1.5853896
1.7269742
1.8743846
2.0275677
2.1864753
2.3510075
2.5210142
2.6963471
2.8771038
3.0631569
3.2530103
3.447749
3.6463314
3.8475258
4.0498974
4.2518671
4.4516634
4.6472239
4.8362468
5.0162008
5.1845191
5.3386973
5.4762021
5.5944022
5.6906975
5.7625058
5.8073056
5.8226658
5.8064019
5.7565408
5.6708545
5.5577736
5.4094243
5.2309186
5.026721
4.7990292
4.5518746
4.2921216
4.0267566
3.7624007
3.505763
3.2611325
3.0325353
2.8223289
2.6315763
2.4603944
2.3079917
2.1730327
2.0538998
1.9488011
1.8559738
1.773721
1.7005101
1.6350265
1.5762939
1.5243179
1.4759097
1.4316253
1.3911399
1.3541707
1.3205892
1.2904626
1.2636945
1.2400935
1.219622
1.2021944
1.1875044
1.1752451
1.1650788
1.1568967
1.1506231
1.1462004
1.1435784
1.1426929
1.143341
1.1455848
1.1535042
-0.025159539
-0.025331868
-0.015675214
-0.00047806316
0.020458037
0.047348035
0.080208459
0.11902634
0.16386366
0.21475405
0.27175209
0.334874
0.40413677
0.4795701
0.56113943
0.64881596
0.74259722
0.84245775
0.94834581
1.0602394
1.1781249
1.3019674
1.4317304
1.5673912
1.7089138
1.8562578
2.0093996
2.1683185
2.3329581
2.5032639
2.6791825
2.8611739
3.0484732
3.2405151
3.4373856
3.6384013
3.8425745
4.0485968
4.2548709
4.4595966
4.6606491
4.8556508
5.0420908
5.2173722
5.3789128
5.5241338
5.6503693
5.7549113
5.8350154
5.8879367
5.9109602
5.9015838
5.8579404
5.7798321
5.6589631
5.5043325
5.3162109
5.0976238
4.8527697
4.5874289
4.3090681
4.0257223
3.7451556
3.4746872
3.2191683
2.9825306
2.7670702
2.5737597
2.4022089
2.251225
2.1190415
2.0036123
1.9027905
1.8144854
1.7368146
1.6681093
1.6069412
1.5522546
1.503056
1.4578837
1.4164804
1.378521
1.3437945
1.3121608
1.2835521
1.2578911
1.2350963
1.2150493
1.1975134
1.1823188
1.1698549
1.1596147
1.1514262
1.1451821
1.1408255
1.1383129
1.1375477
1.1382909
1.1406033
1.1487476
-0.047264818
-0.047641448
-0.038140966
-0.023181274
-0.0024384742
0.024252861
0.056939256
0.095634873
0.14036885
0.19119939
0.24815153
0.31124825
0.38052934
0.45598161
0.5375767
0.62532011
0.71919246
0.81914667
0.92514114
1.0371379
1.1550944
1.2789796
1.4087662
1.5444158
1.6858887
1.833175
1.9862981
2.1452867
2.3101898
2.4810624
2.6579753
2.8405127
3.0288907
3.223072
3.4226571
3.6270773
3.8354617
4.0466037
4.2589154
4.4705085
4.6791875
4.8824756
5.0777969
5.262508
5.4339502
5.589487
5.7263997
5.8418846
5.9329885
5.9966184
6.0295927
6.0287348
5.9910831
5.9131727
5.7928579
5.6315808
5.4307527
5.1937725
4.9261762
4.6354651
4.3308831
4.0222654
3.7190038
3.4287071
3.1579477
2.9106353
2.6888244
2.4929097
2.3218887
2.1738338
2.0463054
1.9366297
1.8421503
1.7603701
1.6890659
1.6263675
1.5707425
1.5213819
1.4761958
1.4347847
1.3966894
1.3615782
1.3292544
1.2995853
1.2725139
1.2480082
1.2260247
1.2065035
1.1894496
1.1747699
1.1624167
1.1522304
1.1441235
1.137965
1.1337007
1.1312752
1.1306403
1.131553
1.1340366
1.1424954
-0.075545651
-0.076134709
-0.066817277
-0.052047247
-0.031528131
-0.0050572994
0.027436701
0.065953617
0.11055846
0.16128959
0.21817357
0.28125596
0.35054397
0.42601662
0.50768041
0.59553473
0.68953831
0.78964115
0.89579621
1.0079429
1.1260282
1.2500199
1.3798677
1.5155147
1.6569384
1.80415
1.9571943
2.116154
2.2811318
2.4522293
2.6295467
2.8132568
3.0034033
3.1999905
3.4028702
3.6115765
3.8253973
4.0432013
4.2634218
4.4840644
4.7027744
4.9168877
5.1236673
5.3203826
5.5043215
5.6728372
5.8232042
5.9525488
6.0577135
6.1351472
6.1809746
6.1909395
6.1608501
6.0872326
5.9660216
5.7962671
5.5791587
5.3183158
5.0204552
4.6952718
4.3546786
4.0113769
3.6770973
3.3615432
3.0717341
2.8117055
2.5830517
2.3853295
2.2165155
2.0736488
1.9533159
1.8520095
1.766389
1.6934389
1.6305493
1.5755116
1.5262992
1.4848157
1.4442796
1.4073042
1.3730872
1.3412637
1.3116443
1.284167
1.2588488
1.2357011
1.2147397
1.1959778
1.1794379
1.1650859
1.1529053
1.1428314
1.1348186
1.1287695
1.1246198
1.1223391
1.1218421
1.1229502
1.1256275
1.1344609
-0.10996915
-0.1108258
-0.10168453
-0.087149906
-0.066879049
-0.040630511
-0.0083636465
0.029957708
0.074391052
0.12497997
0.18178448
0.2448291
0.31410651
0.38962858
0.47140507
0.55941023
0.65360156
0.75392771
0.86031311
0.97268265
1.0909813
1.215144
1.345091
1.4807599
1.6221345
1.7692398
1.9221476
2.080989
2.2459385
2.4171944
2.5950224
2.7797237
2.971568
3.1707479
3.3773106
3.5910753
3.8114596
4.0374706
4.267553
4.4995579
4.730856
4.9584958
5.1794635
5.3908676
5.5899645
5.774184
5.9408988
6.0872408
6.2099348
6.305038
6.3679454
6.3932897
6.3752211
6.307856
6.186005
6.0064188
5.7689631
5.4772555
5.1394415
4.7681424
4.3792054
3.9896775
3.6150171
3.2673538
2.95439
2.6799121
2.4446469
2.2468321
2.0829019
1.9484085
1.8386471
1.7490137
1.6753355
1.6139919
1.5619623
1.5168308
1.4768936
1.4411583
1.4075536
1.3760469
1.3462863
1.3180925
1.2913992
1.2662592
1.242761
1.2209855
1.2010453
1.1830347
1.1670167
1.153001
1.1410679
1.1311735
1.1233037
1.1173939
1.1134009
1.1112843
1.110991
1.1122912
1.1151894
1.1244951
-0.15053078
-0.15166301
-0.14275599
-0.12848695
-0.10848475
-0.082510858
-0.050496256
-0.012415088
0.031797943
0.082227345
0.13891842
0.20188821
0.27116385
0.34676586
0.42868425
0.51688925
0.61134063
0.71197062
0.81867732
0.93137108
1.0499736
1.1743788
1.3044778
1.440202
1.5815198
1.728458
1.881121
2.0396788
2.2043774
2.3755308
2.5535488
2.7389718
2.9323475
3.1340804
3.3445571
3.5639011
3.7918483
4.0275893
4.2696187
4.5155521
4.7622989
5.0064077
5.2444322
5.4732391
5.6900851
5.8926006
6.0784767
6.2450641
6.3891104
6.50638
6.5914741
6.6376316
6.6367097
6.580397
6.4605161
6.2706176
6.0084754
5.6773238
5.2868745
4.8539144
4.4003477
3.9497004
3.5229355
3.1355398
2.7955011
2.5060581
2.2659808
2.0714209
1.9166312
1.7951232
1.7004716
1.6267431
1.5687501
1.5222009
1.4836969
1.4505834
1.4208571
1.393433
1.3671902
1.3417062
1.3168061
1.2924864
1.2688498
1.2460921
1.224398
1.2039668
1.1850181
1.1677151
1.152168
1.138525
1.1268581
1.1171757
1.109468
1.1037316
1.0999195
1.0979984
1.0979122
1.099477
1.1026336
1.1124911
-0.19719469
-0.19868006
-0.19003393
-0.17604102
-0.15635957
-0.13069706
-0.098993878
-0.061216457
-0.017256679
0.032969309
0.089500223
0.15238361
0.221666
0.29735841
0.37945466
0.46793182
0.56272888
0.66375296
0.7708967
0.88404097
1.0030597
1.127807
1.2581437
1.3939631
1.535212
1.68191
1.8341737
1.992203
2.1563167
2.3269652
2.5047178
2.6902864
2.8846459
3.0886356
3.3028865
3.5280584
3.764374
4.011435
4.2677415
4.530554
4.7960624
5.059964
5.318079
5.5669105
5.8037934
6.0267821
6.2342676
6.4242254
6.5937067
6.7383272
6.8519546
6.9263417
6.9502113
6.9124891
6.8001794
6.6013289
6.3102656
5.9289666
5.4688881
4.9526409
4.411724
3.8799988
3.3865925
2.9513079
2.5813229
2.278099
2.0372958
1.8517039
1.7124595
1.6104382
1.5369718
1.484502
1.4467481
1.4187339
1.3966661
1.3777918
1.3599493
1.3422615
1.3240933
1.3051078
1.2853484
1.2650336
1.2444696
1.2240239
1.2040494
1.1848801
1.166818
1.1501292
1.1350324
1.1217145
1.1102816
1.1007778
1.0932364
1.087682
1.0840664
1.082395
1.0825863
1.0844251
1.0879052
1.0983122
-0.24997384
-0.25185829
-0.24350661
-0.22984795
-0.21052325
-0.18523844
-0.15392145
-0.11649427
-0.072847118
-0.022896908
0.033437113
0.096223387
0.16550332
0.2413013
0.32362796
0.4124517
0.50768998
0.60923166
0.71695107
0.83069922
0.95029211
1.0755261
1.2062126
1.3421926
1.4833685
1.6297378
1.7813995
1.9385722
2.1016497
2.271212
2.4479793
2.6326405
2.8274411
3.0327727
3.2501345
3.480937
3.7262053
3.9861016
4.2593301
4.5426339
4.8310295
5.1187179
5.4002481
5.6715398
5.9301813
6.1751025
6.4059327
6.6218973
6.8208672
6.9986808
7.1484928
7.261588
7.3200248
7.3118541
7.2180963
7.0145586
6.6910664
6.2462884
5.6932098
5.0628443
4.4020976
3.7619961
3.1840557
2.6925812
2.2926403
1.9803607
1.746469
1.5789797
1.464712
1.3909829
1.3465493
1.3220584
1.3100392
1.3048657
1.3024782
1.3001344
1.295727
1.2889419
1.2794834
1.267318
1.2527829
1.2364085
1.2187811
1.2004704
1.1820042
1.1638858
1.1465443
1.13034
1.115565
1.1024854
1.0912324
1.0818876
1.0745167
1.0691466
1.0657573
1.0643509
1.064848
1.0669982
1.0708953
1.0819278
-0.3088397
-0.31114455
-0.30317507
-0.28989756
-0.27100376
-0.24618454
-0.21531576
-0.17831594
-0.13507287
-0.085462131
-0.029370534
0.033278573
0.10254346
0.17847798
0.26108971
0.3503306
0.4461207
0.54833562
0.65680975
0.77135211
0.89172445
1.0176509
1.1488603
1.2851128
1.4262441
1.5721971
1.7230214
1.8789489
2.0404368
2.208198
2.3832249
2.5668732
2.759855
2.9647023
3.1838843
3.4193715
3.6734608
3.9475527
4.2408534
4.5494088
4.8661852
5.1827552
5.4914656
5.7872757
6.0683327
6.3352218
6.5897135
6.8332066
7.0652863
7.2830673
7.479233
7.6408948
7.749533
7.7892748
7.7260596
7.5296062
7.1734653
6.649203
5.9701193
5.1802442
4.3517144
3.5652455
2.881222
2.328723
1.9031478
1.5921701
1.3785079
1.2432261
1.1672753
1.1336734
1.1283317
1.140006
1.1601109
1.1825559
1.2034285
1.2195375
1.2302186
1.2352414
1.2348058
1.2294758
1.2200107
1.2073174
1.1922869
1.1757553
1.1584784
1.1411154
1.1242441
1.1083354
1.0937147
1.0807466
1.0695638
1.0603543
1.0531525
1.0479989
1.0448509
1.0437335
1.0445449
1.0470761
1.0514327
1.0631191
-0.37375647
-0.37652099
-0.36898991
-0.35618745
-0.33781619
-0.31354004
-0.28322384
-0.24677075
-0.20402367
-0.15482669
-0.0990548
-0.03659667
0.032644519
0.10873224
0.19167168
0.28141845
0.37789134
0.48095672
0.59041012
0.70599878
0.8274199
0.95430801
1.0862845
1.2229996
1.3641899
1.5096834
1.659436
1.8136692
1.972891
2.1379207
2.3098846
2.4901837
2.6803137
2.8828343
3.1013482
3.3390181
3.6008119
3.8900009
4.2072991
4.5477293
4.9007847
5.2532955
5.5936406
5.9152514
6.2174183
6.503767
6.7797187
7.0501656
7.3173914
7.581503
7.8335322
8.0612235
8.2425448
8.3510546
8.3430061
8.1702181
7.7869031
7.1646197
6.3112291
5.2920995
4.2237247
3.2383596
2.4240298
1.8123715
1.3767833
1.0873045
0.91558772
0.83318186
0.81396847
0.83612599
0.88251775
0.94012589
0.99962
1.0547652
1.1023125
1.1390903
1.16589
1.1831291
1.191706
1.1928794
1.1880156
1.1784494
1.1654504
1.1501757
1.1336092
1.1166022
1.099867
1.0839351
1.0693213
1.0563239
1.0451334
1.0359866
1.02893
1.0239924
1.0211275
1.0203223
1.0214973
1.0244367
1.0293173
1.0417438
-0.4446935
-0.44791267
-0.44092166
-0.42869855
-0.41093791
-0.38732828
-0.35771113
-0.32192967
-0.27979115
-0.23112516
-0.17577024
-0.1135641
-0.04438119
0.031852181
0.11515531
0.20550607
0.30282476
0.4069532
0.51765181
0.63460629
0.75742326
0.88563015
1.0187281
1.1562215
1.2976692
1.4427396
1.5912549
1.743352
1.8995343
2.0607013
2.2281408
2.4035283
2.5886115
2.7864397
2.9998126
3.2347548
3.5007422
3.804919
4.1510968
4.5331148
4.9347208
5.3337921
5.7111894
6.058232
6.3767703
6.6759192
6.9670645
7.2604538
7.5627834
7.8761216
8.1952664
8.507342
8.788485
8.9965335
9.0819104
8.9669436
8.563781
7.827892
6.7257169
5.3688083
3.9512029
2.6932854
1.7246272
1.0760723
0.66512051
0.43340939
0.33699645
0.33743577
0.39990805
0.49766072
0.61102671
0.72588838
0.83283793
0.92641733
1.0027382
1.0621378
1.1056537
1.1349496
1.1519963
1.1588925
1.1577373
1.1504185
1.1386396
1.1238949
1.1074142
1.0902678
1.0732493
1.0570221
1.0421419
1.0289518
1.0176984
1.0085598
1.0016271
0.99689709
0.99435834
0.99389984
0.99552857
0.9989792
1.0044001
1.0177062
-0.52155835
-0.52526127
-0.51892001
-0.50737432
-0.49036757
-0.46758746
-0.43881917
-0.40385805
-0.36249002
-0.31450046
-0.25967982
-0.19782361
-0.12877509
-0.052426877
0.031278434
0.12233465
0.22066663
0.32610654
0.43837814
0.55709111
0.68175331
0.81177284
0.94649217
1.085225
1.2273003
1.3721353
1.5193482
1.6689249
1.8212281
1.9773269
2.1385213
2.3070051
2.4839393
2.6730515
2.8756717
3.0979399
3.3620272
3.6785763
4.0602418
4.4986169
4.9691736
5.4319397
5.8528915
6.2215776
6.5456905
6.8443254
7.1382176
7.4450039
7.77719
8.14117
8.5355738
8.9486964
9.3543725
9.7061391
9.9430521
9.9469331
9.5670634
8.6751427
7.2362189
5.3785737
3.4391026
1.806965
0.64768099
0.019257296
-0.29685248
-0.40969169
-0.37924129
-0.25396568
-0.077424946
0.12015216
0.31844694
0.50348763
0.66600718
0.80291652
0.91058662
0.99314699
1.0530125
1.0933599
1.1175783
1.1288396
1.1300354
1.1237153
1.1120674
1.0969177
1.0797795
1.0618692
1.0440871
1.0272078
1.0118196
0.99828774
0.98688599
0.97775898
0.97094085
0.96645299
0.96427114
0.96429208
0.96643836
0.97049609
0.97647679
0.9908299
-0.60425889
-0.60848588
-0.60290068
-0.59218473
-0.57610479
-0.55431718
-0.52657629
-0.49263915
-0.45224365
-0.40510621
-0.35098084
-0.28962812
-0.22082556
-0.14441162
-0.060289328
0.031566095
0.13109427
0.23812278
0.35234246
0.47329911
0.6003867
0.73287695
0.86991674
1.0105725
1.1538609
1.2988717
1.4449182
1.5916694
1.7392092
1.8888123
2.0420442
2.2015425
2.3679206
2.5468962
2.7354014
2.9357152
3.1713863
3.4920455
3.9165241
4.4311652
5.0064707
5.5632327
6.0344799
6.4139326
6.722166
6.9967566
7.2723328
7.5756866
7.9262314
8.3361242
8.8092628
9.3374106
9.8948638
10.426872
10.895381
11.11067
10.82228
9.773022
7.8302599
5.2344474
2.5586511
0.57242645
-0.90041281
-1.4398677
-1.5903208
-1.5037157
-1.2638365
-0.94785484
-0.61584889
-0.29037198
0.013604614
0.28276139
0.50936726
0.69121558
0.83208201
0.93716926
1.0117439
1.0610991
1.0903077
1.1038573
1.1055351
1.0985851
1.0856892
1.0690143
1.0503098
1.0309548
1.0119199
0.99403721
0.97790158
0.96390303
0.95228234
0.94314759
0.93648111
0.93231884
0.93055859
0.93113273
0.93394301
0.93868496
0.94531152
0.96088081
-0.69266957
-0.69750115
-0.69279013
-0.68308291
-0.66810242
-0.64750427
-0.62102411
-0.58834913
-0.5491615
-0.50312413
-0.44992611
-0.38927161
-0.3208642
-0.24446808
-0.15994276
-0.067215904
0.0336932
0.14261431
0.25921398
0.38298724
0.51322927
0.64903757
0.7893288
0.93286909
1.0782907
1.2242079
1.3694504
1.5128005
1.6550374
1.7969136
1.93984
2.0881327
2.2416494
2.4110431
2.5727154
2.7187301
2.8971909
3.2055199
3.6794964
4.3038083
5.0517755
5.7380543
6.2797577
6.6462514
6.8988341
7.1111656
7.3369286
7.6114047
7.9605348
8.4025332
8.9479615
9.5954273
10.325982
11.105603
11.828473
12.373169
12.25729
10.891878
7.8969292
4.0627952
0.50654668
-1.0367214
-2.5140502
-3.1826386
-3.2651371
-2.8847973
-2.3301914
-1.7438383
-1.2062805
-0.72002073
-0.28849526
0.078360037
0.37372182
0.60281823
0.77526854
0.90002192
0.98583831
1.0408111
1.0718643
1.0848506
1.0845523
1.0749383
1.059147
1.0396821
1.0184546
0.99689715
0.97609905
0.95686795
0.93980726
0.92523403
0.913374
0.90423243
0.89781656
0.89406779
0.89288388
0.8941173
0.89777654
0.90330067
0.91067008
0.92768954
-0.78662894
-0.79223703
-0.78847539
-0.77994677
-0.76629218
-0.74713676
-0.72219047
-0.69106037
-0.65337491
-0.60874877
-0.55678387
-0.49708494
-0.42927569
-0.35304631
-0.26817401
-0.17452908
-0.072080535
0.039048058
0.15852095
0.28578505
0.4200484
0.56024344
0.70501369
0.85274704
1.0015913
1.1495212
1.2941664
1.4350386
1.5707275
1.7023166
1.8311497
1.9660665
2.0948078
2.2710933
2.3879142
2.4045271
2.4745495
2.7852137
3.301547
4.065085
5.1182654
6.023935
6.635831
6.9246636
7.0507298
7.1458545
7.2815942
7.4938924
7.8129007
8.2613485
8.85564
9.6029627
10.482621
11.453738
12.400366
13.457065
13.508774
11.093067
5.715716
-0.76269922
-5.7611381
-7.6763332
-7.73667
-6.8898086
-5.6949785
-4.6745187
-3.638284
-2.6270697
-1.832181
-1.1472766
-0.56473182
-0.089074618
0.2759494
0.54975608
0.74879019
0.88761114
0.97921767
1.0348231
1.0633725
1.0721415
1.0669002
1.0522635
1.0317619
1.0080744
0.98326863
0.95879942
0.93575353
0.9148969
0.89676642
0.88159975
0.86952941
0.86047428
0.85444438
0.85128625
0.85082088
0.85290693
0.85756294
0.86401474
0.8722181
0.89094778
-0.88595798
-0.89252531
-0.88978771
-0.88263807
-0.87059096
-0.85317176
-0.8300761
-0.80085177
-0.76504989
-0.72220486
-0.67182902
-0.61342364
-0.54651123
-0.47068273
-0.38560561
-0.2910504
-0.18693067
-0.073295127
0.049576695
0.18111026
0.32042495
0.46630066
0.6171039
0.77079119
0.924954
1.0769257
1.2228752
1.3612975
1.4895892
1.6072334
1.7207001
1.8389816
1.9469087
2.2146232
2.9244681
4.4046039
2.2986898
2.0986246
2.5433886
3.4464346
5.1821311
6.4379671
7.1293471
7.2281405
7.1123896
7.0233223
7.0286851
7.1434529
7.3988348
7.8163724
8.4128729
9.2069598
10.160329
11.211828
12.559047
13.79819
13.666568
8.9210545
-0.36144344
-10.037991
-16.193204
-18.097477
-16.638599
-12.910785
-9.2094262
-6.4797216
-5.043159
-3.580642
-2.4420299
-1.5242513
-0.7749941
-0.19335937
0.23608772
0.54557211
0.76156221
0.90542488
0.99498967
1.044565
1.0651652
1.0653314
1.0517358
1.0294424
1.0022492
0.97291466
0.94348708
0.91543898
0.88975766
0.86712945
0.84787086
0.83216976
0.82000363
0.81128193
0.80582267
0.80347235
0.80394631
0.80711751
0.81293435
0.82046584
0.82963647
0.85034127
-0.99039951
-0.99809533
-0.99655201
-0.99101674
-0.98087821
-0.96553814
-0.94468311
-0.91780036
-0.88433407
-0.84372219
-0.79537675
-0.73869846
-0.6730891
-0.59800064
-0.51296752
-0.41762218
-0.31176714
-0.19535112
-0.068546382
0.06810167
0.2136532
0.36674474
0.52549272
0.6873885
0.84923535
1.0069741
1.1575615
1.2952552
1.4150669
1.510191
1.6039283
1.6773768
1.7386132
3.8847522
4.7279046
4.8703198
3.9899034
1.2250903
1.3510179
2.3792833
4.9139791
7.0051331
7.7966242
7.3916266
6.8688284
6.5870521
6.4633877
6.4615788
6.6239241
6.9647748
7.4893382
8.2187871
9.0348075
9.6773299
10.54588
11.854349
11.133069
3.7564634
-9.0410615
-20.838427
-27.890484
-30.094177
-27.424438
-20.998028
-13.729607
-9.2283674
-6.2333683
-4.3623106
-2.8112871
-1.7873186
-0.8747761
-0.19785296
0.27583724
0.60338675
0.82122181
0.95753227
1.0348424
1.0702022
1.0764243
1.0630771
1.0373764
1.0046417
0.96874172
0.9323922
0.89745577
0.8652843
0.83673896
0.81227114
0.79200077
0.77596561
0.76397487
0.75586342
0.7513282
0.75006236
0.7517801
0.75628358
0.76351032
0.77229613
0.78256039
0.80547641
-1.0996162
-1.1086822
-1.108554
-1.1048977
-1.0970083
-1.0841637
-1.0660075
-1.0419534
-1.0113483
-0.97352671
-0.92777558
-0.87336772
-0.80957584
-0.73570421
-0.65110034
-0.55522866
-0.44769635
-0.32829667
-0.19707558
-0.054462001
0.098628586
0.26071566
0.42971131
0.6026876
0.77577648
0.94406492
1.1019739
1.2414174
1.3518389
1.4179668
1.4848734
1.5172879
1.6465679
5.0004407
4.8518089
4.5668937
3.7999064
-0.36241735
-1.0049625
-0.42555995
3.4143371
7.061879
8.1720692
7.0005207
5.9361811
5.632508
5.4477619
5.3436617
5.4063378
5.6310077
5.9934977
6.4954848
6.8916822
6.5029648
5.8397376
6.1105019
4.9146867
-3.7543505
-17.630693
-29.780026
-36.752752
-39.805513
-36.95223
-29.082902
-18.896976
-11.447627
-7.6899814
-4.7769021
-2.8734311
-1.8494435
-0.83277382
-0.081321446
0.40983004
0.73200001
0.93220683
1.0453795
1.0982899
1.1100946
1.0948244
1.0626953
1.0210769
0.97519468
0.92872362
0.88418101
0.84310991
0.80652658
0.77506681
0.74892121
0.72796941
0.71193642
0.70057018
0.69347535
0.69025187
0.69046862
0.69377091
0.69993406
0.70885591
0.71912116
0.73069187
0.75602685
-1.2132895
-1.223989
-1.2255142
-1.2240563
-1.2188262
-1.2089474
-1.1940069
-1.1733423
-1.1462015
-1.1118202
-1.0693633
-1.0179246
-0.95661458
-0.88458333
-0.80097745
-0.70500417
-0.59602322
-0.47360803
-0.33759813
-0.18822617
-0.026276639
0.14677019
0.32865934
0.51615135
0.7048645
0.88911588
1.0597724
1.2069618
1.3108028
1.3622895
1.4067492
1.4342065
1.4220782
3.2804478
4.3591654
4.0782296
0.89727959
-2.4793365
-5.417864
-6.5161992
-1.081871
3.7253352
5.6070534
3.095815
2.977613
3.7308247
3.8078845
3.704471
3.715597
3.8147462
3.9389767
4.0464481
3.7852338
1.8191606
-1.6010475
-1.7366266
-0.70879422
-12.012099
-24.488761
-35.578962
-42.138192
-44.830208
-42.85777
-34.159116
-21.985352
-12.617525
-8.0216639
-4.9935266
-2.6227963
-1.734621
-0.6507339
0.16777079
0.64587232
0.93497636
1.0945729
1.1668497
1.18191
1.1601816
1.1161779
1.0600926
0.99896827
0.93755878
0.87903943
0.82546717
0.77789913
0.73697618
0.70290783
0.67549196
0.65435312
0.63894256
0.62874298
0.62326782
0.62185902
0.62405777
0.62937914
0.63759883
0.64855851
0.66057109
0.67367249
0.7016408
-1.3310785
-1.3436543
-1.3471152
-1.3482332
-1.3461269
-1.3397312
-1.3285839
-1.3119649
-1.2890071
-1.2588182
-1.2204455
-1.1728412
-1.1149049
-1.0455486
-0.96370117
-0.86827263
-0.75830829
-0.63308772
-0.49213505
-0.33535616
-0.1632958
0.022692497
0.22031064
0.42616067
0.63533172
0.84074293
1.0333359
1.198938
1.3058486
1.3556336
1.4083033
1.4912926
1.454736
1.6193275
1.6109714
2.2311111
-1.203452
-4.5133232
-10.42
-12.776948
-9.3719082
-1.7639341
5.1816976
-3.4939978
-2.4816499
0.3451766
1.3488309
1.5596617
1.6360323
1.6437322
1.5090561
1.1372532
0.16604599
-3.3016019
-9.7274911
-10.59659
-10.449827
-19.045975
-28.702373
-37.398448
-43.046179
-45.402902
-43.26904
-35.024579
-22.669921
-12.746813
-7.329488
-4.3933865
-1.8849391
-0.67161529
-0.20648004
0.58422799
0.99344935
1.2116514
1.3035092
1.3156467
1.2789557
1.2138948
1.1343733
1.0497105
0.96606477
0.88731621
0.81580709
0.75283698
0.69891828
0.654133
0.61812564
0.59024261
0.56967208
0.55570949
0.54748139
0.54428831
0.5453755
0.55016018
0.55804279
0.56877551
0.58217365
0.59623075
0.61109326
0.64191439
-1.4525488
-1.4672904
-1.4730104
-1.47711
-1.4786298
-1.4763051
-1.4696103
-1.4577704
-1.4398137
-1.4147175
-1.3813708
-1.3385865
-1.2850867
-1.219504
-1.1404426
-1.0465215
-0.93638456
-0.80888551
-0.66315135
-0.4986223
-0.31542441
-0.11463795
0.10157576
0.32979522
0.56494082
0.79935638
1.0222935
1.2174141
1.3446801
1.3988672
1.466358
1.5678172
1.6139854
1.8050661
1.7831569
1.121099
-0.99483111
-5.5493891
-11.499638
-14.513967
-11.856643
-0.079468919
11.384458
-6.0820885
-8.1659329
-3.4328738
-1.4076766
-0.79347955
-0.58735263
-0.6250909
-0.97541143
-1.728823
-3.3075223
-7.4757002
-15.927926
-19.985539
-18.720385
-23.744865
-29.023719
-35.454205
-39.406638
-40.991909
-38.851854
-31.005695
-19.805185
-10.676405
-5.6003217
-2.9997056
-0.63649417
0.0099403951
0.53094603
1.1674356
1.4453599
1.5509621
1.5473709
1.4804985
1.3791788
1.2621031
1.1413676
1.0245478
0.91630327
0.8192324
0.734534
0.66249403
0.60304764
0.55533741
0.51843357
0.49121066
0.47241204
0.46090509
0.45565456
0.45565187
0.46006111
0.4681598
0.47921086
0.4929876
0.50928909
0.52571972
0.54261933
0.57652116
-1.5772138
-1.5944607
-1.6027864
-1.6103099
-1.6160089
-1.6184029
-1.6169017
-1.6106626
-1.5986067
-1.579601
-1.5523932
-1.5156074
-1.4677623
-1.4072617
-1.332361
-1.2412874
-1.1322389
-1.003485
-0.85360429
-0.6814529
-0.4865038
-0.26935649
-0.031905112
0.22251051
0.48870621
0.75886141
1.0215578
1.258117
1.4268472
1.5026554
1.5699806
1.6837223
1.8309308
2.1738054
2.5915792
2.4206788
0.7194914
-3.2186139
-8.1116653
-10.571492
-8.4141212
2.9125245
12.39332
-17.234804
-12.656685
-6.7555972
-3.9002289
-2.95303
-2.6355405
-2.6827981
-3.1313041
-4.1421974
-5.9931509
-9.9107452
-17.870227
-24.628945
-22.888962
-23.69901
-26.258216
-30.461153
-32.120086
-32.139022
-29.38352
-22.752226
-13.911388
-6.8412895
-2.999096
-0.98687434
0.3992991
0.78215368
1.5002049
1.8840689
1.9760507
1.9310515
1.807547
1.6453415
1.4688421
1.293171
1.1273505
0.97639183
0.8428291
0.72756159
0.63034123
0.55058739
0.4868754
0.43776733
0.40153124
0.37647506
0.36090648
0.3532758
0.35221272
0.35649993
0.36520687
0.37745572
0.39238658
0.40984719
0.42953666
0.44870194
0.46798805
0.50522478
-1.7045209
-1.7246359
-1.7359732
-1.7474078
-1.7579053
-1.765721
-1.7702071
-1.770473
-1.7653264
-1.7535039
-1.733632
-1.7041788
-1.6634551
-1.6096199
-1.5406233
-1.4542125
-1.3480436
-1.2196992
-1.0669713
-0.88796257
-0.68128725
-0.44678066
-0.18585557
0.098240025
0.40011713
0.71166497
1.0210688
1.3097041
1.5404915
1.6802972
1.7751872
1.9329625
2.1949813
2.6962441
3.4115825
3.7627371
3.1304359
1.0157771
-2.3183972
-3.8630493
-1.6299423
1.2164355
20.83368
-15.070808
-12.889307
-8.6536831
-5.7823133
-4.673951
-4.2844445
-4.3335108
-4.8592959
-5.9876544
-7.7933211
-11.075721
-17.606879
-23.423966
-24.355847
-16.463513
-24.127953
-24.986564
-23.711093
-21.760074
-18.100804
-12.698922
-6.6687685
-2.1761024
0.13533931
1.1597602
1.7749625
2.2812427
2.6393015
2.6892662
2.5477365
2.3218407
2.0592662
1.7898205
1.5312466
1.2934471
1.0811908
0.89614376
0.73818966
0.60607785
0.49787015
0.41257105
0.3468266
0.29846731
0.26500073
0.24411322
0.23357218
0.23142486
0.23602838
0.2459328
0.26008667
0.27744482
0.29710574
0.31897958
0.34263261
0.3649469
0.38695148
0.42772448
-1.8338614
-1.8572491
-1.8720476
-1.8879283
-1.903894
-1.917907
-1.9292472
-1.9369845
-1.9398223
-1.9363708
-1.9251404
-1.9044833
-1.8725696
-1.8273309
-1.7663947
-1.6870183
-1.5862108
-1.4607273
-1.3073175
-1.1230612
-0.90549727
-0.65337009
-0.36737161
-0.050584772
0.29107671
0.64867657
1.0102311
1.3612613
1.674651
1.9117822
2.0922682
2.3027634
2.7079179
3.3984508
4.2822474
5.0804196
5.5241516
4.4135482
1.0628827
-1.9366741
-2.2393797
-1.8207041
9.4006604
-13.842232
-11.318504
-9.8692099
-7.1146188
-6.0101045
-5.5052706
-5.5408173
-6.153268
-7.4372664
-9.0797908
-12.08356
-18.065199
-23.677878
-24.215062
-18.09111
7.9242434
-23.645631
-17.67225
-12.679125
-8.0199338
-3.7521396
-0.0017489766
2.3660002
3.3920106
3.7075562
3.8617986
3.9237761
3.8198505
3.5118007
3.1090789
2.6844554
2.2717912
1.8895799
1.5471425
1.2477682
0.99096579
0.77436919
0.59478636
0.44874162
0.33368516
0.24469948
0.17946957
0.13444376
0.10632236
0.091968304
0.088687071
0.09402766
0.10601805
0.12308591
0.14399665
0.16757474
0.19296626
0.22005107
0.2482978
0.27421766
0.29927925
0.34370303
-1.9645396
-1.9916975
-2.0104592
-2.0313648
-2.0535225
-2.0745715
-2.0936976
-2.1099202
-2.1218464
-2.1279911
-2.1268071
-2.1165891
-2.0954056
-2.0609961
-2.0107003
-1.9413138
-1.8491274
-1.72993
-1.5792173
-1.3925957
-1.1661063
-0.8970052
-0.58488366
-0.23260393
0.15269428
0.55936425
0.97143497
1.3718704
1.734206
2.0221877
2.2374722
2.5375011
3.1580329
4.11845
5.2322832
6.4935501
8.0453522
6.2255823
-0.15085988
-15.793581
-21.584553
-23.222276
-7.0096963
-10.536742
-11.73919
-12.978794
-8.758043
-7.0384701
-6.4353968
-6.3815312
-7.0694896
-8.8094703
-11.187251
-17.693262
-26.989962
-30.226895
-24.819196
-28.842432
16.360823
-29.107636
-14.10231
-5.5233753
0.013856493
3.2986152
5.4382963
6.506764
6.6724081
6.426543
6.0368979
5.5490111
4.9518186
4.2767951
3.6025247
2.9739749
2.4101286
1.91762
1.4959648
1.140548
0.84480087
0.60190804
0.40528784
0.24875355
0.13028489
0.042268091
-0.018884123
-0.057257276
-0.076924382
-0.08183166
-0.075296067
-0.060166058
-0.038774024
-0.012841664
0.016259287
0.047340877
0.079557574
0.11276252
0.1463021
0.17635646
0.20486458
0.25309292
-2.0957084
-2.1272627
-2.1505851
-2.1771825
-2.206352
-2.2353435
-2.2632209
-2.2889608
-2.3110894
-2.3280665
-2.3383581
-2.340291
-2.3318993
-2.3108307
-2.2741756
-2.2183867
-2.1390304
-2.0307968
-1.8876656
-1.7033548
-1.4716398
-1.1874515
-0.84861914
-0.45735925
-0.022451623
0.43972652
0.90325565
1.3403071
1.7135327
1.9780683
2.1070932
2.3530402
3.1607018
4.4342541
5.844744
7.8366468
9.8485414
7.5393103
1.7666978
-27.58989
2.1473156
-50.669842
-17.784054
-26.818678
-18.791653
-20.729189
-16.485762
-8.403808
-7.4727507
-6.774112
-7.4452018
-10.411525
-15.669694
-32.682863
-53.820486
-55.544661
-38.65048
-34.191658
17.192728
-19.488196
-8.1131652
1.4701568
6.9804936
9.3520109
10.473506
10.568535
10.037455
9.1545738
8.1254047
7.0433246
5.9558344
4.9149036
3.969594
3.1425306
2.4369392
1.8458012
1.3570108
0.95679638
0.6318985
0.3707828
0.16395615
0.0053902729
-0.11450119
-0.19826324
-0.25158965
-0.27957586
-0.28721523
-0.27926533
-0.25987345
-0.23239498
-0.19937212
-0.16267002
-0.12373952
-0.083743983
-0.043518316
-0.003147957
0.036541213
0.071415615
0.10385784
0.15609068
-2.2264951
-2.2631674
-2.2917586
-2.3248297
-2.3619563
-2.3999092
-2.4375594
-2.4738462
-2.507258
-2.5362536
-2.559371
-2.5750694
-2.5815037
-2.5764176
-2.5568829
-2.5190443
-2.45786
-2.3669028
-2.238293
-2.0632532
-1.8324804
-1.5372293
-1.1720693
-0.73711987
-0.24148432
0.29382766
0.82672004
1.3136255
1.6955255
1.9082375
1.8397426
2.0428714
2.943609
4.8762044
6.1376877
7.7804667
10.168952
9.5334177
9.6948487
0.48924249
49.232448
68.529737
14.720942
-14.925849
-40.114781
-32.426443
-17.869935
-7.1853291
-6.3581604
-5.5131538
-5.8909089
-9.7367359
-18.076398
-39.937053
-61.498684
-59.289026
-36.943618
-23.842907
6.3451841
-9.0271813
2.7900583
10.123893
13.849097
15.472545
15.724093
14.929953
13.501961
11.794355
10.025699
8.3228233
6.7506293
5.3507051
4.1457687
3.1381746
2.3128922
1.646003
1.1109243
0.68367537
0.34366838
0.074694154
-0.13587578
-0.29250344
-0.40607332
-0.48087195
-0.52215932
-0.53559113
-0.52710165
-0.50240214
-0.46667314
-0.4238936