/*--------------------------------*- C++ -*----------------------------------*\
  =========                 |
  \\      /  F ield         | OpenFOAM: The Open Source CFD Toolbox
   \\    /   O peration     | Website:  https://openfoam.org
    \\  /    A nd           | Version:  9
     \\/     M anipulation  |
\*---------------------------------------------------------------------------*/
FoamFile
{
    format      ascii;
    class       volScalarField;
    location    "8.5";
    object      p;
}
// * * * * * * * * * * * * * * * * * * * * * * * * * * * * * * * * * * * * * //

dimensions      [1 -1 -2 0 0 0 0];

internalField   nonuniform List<scalar> 
5250
(
1.00001
1.00004
1.00011
1.00026
1.00072
1.00165
1.00437
1.01018
1.02624
1.06351
1.16253
1.41936
2.15819
4.33792
10.1691
11.2529
11.1178
11.0836
11.1725
11.395
11.6131
11.753
11.8625
11.9485
12.0152
1.00001
1.00003
1.00011
1.00026
1.00071
1.00162
1.00437
1.00985
1.02658
1.06153
1.16251
1.41234
2.14578
4.29396
10.0803
11.2488
11.1133
11.0749
11.1639
11.3862
11.6039
11.7442
11.8552
11.9426
12.0108
1.00001
1.00003
1.00011
1.00025
1.0007
1.00158
1.00427
1.00962
1.02595
1.06011
1.15854
1.40206
2.11546
4.20272
9.88136
11.2394
11.0996
11.0472
11.1336
11.352
11.5666
11.7048
11.815
11.9015
11.9694
1.00001
1.00003
1.0001
1.00025
1.00067
1.00152
1.00411
1.00925
1.02504
1.05779
1.15277
1.38616
2.06981
4.06442
9.56858
11.2314
11.0801
11.0005
11.0818
11.292
11.5011
11.6347
11.7413
11.8252
11.8933
1.00001
1.00003
1.0001
1.00023
1.00064
1.00144
1.00392
1.00881
1.02368
1.05515
1.14436
1.3658
2.00821
3.88166
9.13561
11.231
11.0575
10.9366
11.0107
11.2092
11.4109
11.5375
11.6383
11.7184
11.7877
1.00001
1.00003
1.00009
1.00022
1.00059
1.00135
1.00363
1.00822
1.02215
1.05112
1.13515
1.33881
1.93315
3.65428
8.57142
11.2407
11.0343
10.8554
10.9199
11.1019
11.2927
11.4078
11.4982
11.5703
11.6398
1.00001
1.00003
1.00008
1.00021
1.00051
1.00132
1.00311
1.00813
1.01888
1.04946
1.11928
1.31297
1.83884
3.3897
7.86862
11.2678
11.0124
10.7568
10.8093
10.9695
11.1438
11.2409
11.3124
11.3673
11.4306
1
1.00002
1.00008
1.00018
1.00049
1.0011
1.00299
1.00675
1.01809
1.042
1.10972
1.27372
1.74241
3.08714
7.03724
11.301
10.9908
10.643
10.6803
10.8107
10.9611
11.0301
11.0694
11.0876
11.1247
1
1.00002
1.00006
1.00017
1.00041
1.00102
1.00253
1.00608
1.01558
1.037
1.09534
1.23763
1.63585
2.77112
6.10892
11.2797
10.9498
10.5205
10.5364
10.6255
10.7409
10.7678
10.7547
10.6986
10.6466
1
1.00002
1.00006
1.00014
1.00037
1.00085
1.00226
1.0052
1.01357
1.03203
1.08201
1.20342
1.53887
2.48186
5.23988
11.0809
10.8338
10.3987
10.369
10.4149
10.476
10.4537
10.3595
10.142
9.82285
1
1.00002
1.00005
1.00013
1.0003
1.00081
1.00182
1.00491
1.01105
1.02967
1.06893
1.18101
1.46293
2.28175
4.66928
10.4744
10.531
10.31
10.1746
10.1821
10.1738
10.0919
9.84871
9.28487
7.85019
1
1.00001
1.00004
1.0001
1.00028
1.00065
1.00171
1.00397
1.01027
1.02448
1.06209
1.15388
1.4024
2.0953
4.12698
9.43908
10.301
10.1715
9.98132
9.93951
9.87046
9.70126
9.32306
8.56533
7.10638
1
1.00001
1.00004
1.00009
1.00024
1.00056
1.00147
1.00335
1.00897
1.0204
1.05439
1.12947
1.34313
1.91847
3.61058
8.25248
10.1593
10.0533
9.81672
9.69841
9.57739
9.33204
8.86442
8.1065
6.97533
1
1.00001
1.00003
1.00008
1.00019
1.0005
1.00114
1.00304
1.00689
1.01849
1.04254
1.11201
1.2777
1.75331
3.10353
6.94014
10.0714
9.95905
9.67762
9.47028
9.29422
9.00704
8.53233
7.84509
6.95913
1
1.00001
1.00003
1.00006
1.00017
1.00037
1.001
1.00228
1.00602
1.01396
1.03604
1.08691
1.22408
1.58402
2.61428
5.52551
9.89175
9.83382
9.57618
9.26768
9.03892
8.73702
8.28688
7.6753
6.93454
1
1.00001
1.00002
1.00005
1.00012
1.00033
1.00074
1.00198
1.00443
1.0119
1.02697
1.07145
1.17127
1.4543
2.22186
4.40381
9.36066
9.6331
9.45297
9.09062
8.81868
8.51218
8.09164
7.54389
6.89952
1
1.00001
1.00002
1.00004
1.0001
1.00025
1.00062
1.00149
1.00381
1.00886
1.02309
1.05439
1.14051
1.35504
1.96398
3.68822
8.16142
9.36642
9.24937
8.95432
8.63503
8.32058
7.92754
7.43373
6.86351
1
1
1.00001
1.00003
1.00008
1.0002
1.00046
1.00124
1.00279
1.0075
1.01688
1.04528
1.10599
1.2802
1.73342
3.04409
6.61278
9.14706
9.08412
8.85359
8.4893
8.15814
7.78657
7.33908
6.82985
1
1
1.00001
1.00003
1.00006
1.00016
1.00036
1.00094
1.00215
1.00561
1.01315
1.03331
1.08113
1.20614
1.53419
2.4509
4.95914
8.84104
8.94692
8.77745
8.40209
8.02941
7.6668
7.25789
6.79977
1
1
1.00001
1.00002
1.00005
1.00011
1.00028
1.00069
1.00164
1.00419
1.00974
1.0253
1.05953
1.15316
1.38709
2.03948
3.833
8.06704
8.77506
8.64611
8.32474
7.92446
7.5664
7.18916
6.77405
1
1
1.00001
1.00001
1.00004
1.00008
1.00022
1.00049
1.00131
1.00292
1.00783
1.01776
1.04667
1.11089
1.28915
1.75658
3.07845
6.52797
8.51612
8.46622
8.25934
7.84867
7.48677
7.13238
6.75327
1
1
1
1.00001
1.00003
1.00006
1.00016
1.00036
1.00094
1.00214
1.00569
1.01276
1.03421
1.07883
1.20701
1.52541
2.42131
4.80073
8.1398
8.32578
8.18348
7.83968
7.44243
7.09113
6.73926
1
1
1
1.00001
1.00002
1.00004
1.00011
1.00027
1.00065
1.00161
1.00382
1.00974
1.02273
1.0584
1.14078
1.36394
1.95558
3.55664
7.27394
8.16669
8.07552
7.81949
7.42993
7.06988
6.73503
1
1
1
1.00001
1.00001
1.00003
1.00007
1.0002
1.00044
1.00119
1.00264
1.00705
1.01593
1.04183
1.09867
1.25608
1.66033
2.78471
5.69
7.91753
7.91372
7.77649
7.44579
7.07161
6.73868
1
1
1
1
1.00001
1.00002
1.00005
1.00013
1.00032
1.00078
1.00191
1.00455
1.01147
1.02697
1.06849
1.16606
1.4275
2.11039
3.86595
7.39587
7.8336
7.73218
7.47142
7.0866
6.7543
1
1
1
1
1.00001
1.00002
1.00004
1.00009
1.00021
1.00056
1.00129
1.00323
1.00784
1.01887
1.04732
1.11477
1.2927
1.76147
3.03107
6.17979
7.64468
7.62287
7.46882
7.13111
6.79444
1
1
1
1
1
1.00001
1.00003
1.00006
1.00016
1.00035
1.00094
1.00209
1.00553
1.01253
1.03253
1.07655
1.19611
1.49645
2.31249
4.40192
7.2174
7.52928
7.44059
7.20934
6.87922
1
1
1
1
1
1.00001
1.00002
1.00004
1.0001
1.00025
1.00059
1.00145
1.00358
1.00848
1.02144
1.05071
1.12823
1.31905
1.83021
3.16041
6.24638
7.36666
7.35867
7.25967
7.03375
1
1
1
1
1
1
1.00001
1.00003
1.00006
1.00017
1.00038
1.00101
1.00224
1.00599
1.01333
1.03532
1.08153
1.21135
1.53097
2.39781
4.57348
6.99547
7.32798
7.30195
7.21608
1
1
1
1
1
1
1.00001
1.00002
1.00004
1.00011
1.00025
1.00065
1.00147
1.00387
1.00863
1.02282
1.05192
1.13473
1.32843
1.85432
3.18159
6.16323
7.23388
7.40741
7.45935
1
1
1
1
1
1
1.00001
1.00001
1.00003
1.00007
1.00017
1.0004
1.001
1.00242
1.00579
1.0145
1.03407
1.08651
1.20991
1.54248
2.39989
4.54486
6.94619
7.61244
7.87788
1
1
1
1
1
1
1
1.00001
1.00002
1.00005
1.00011
1.00028
1.00062
1.00163
1.00362
1.00958
1.02139
1.05625
1.13098
1.33893
1.85932
3.20133
6.21958
7.83191
8.58864
1
1
1
1
1
1
1
1
1.00001
1.00003
1.00007
1.00018
1.00041
1.00106
1.00241
1.00631
1.01414
1.03739
1.0858
1.22299
1.55783
2.4629
4.71504
7.86376
9.66081
1
1
1
1
1
1
1
1
1.00001
1.00002
1.00005
1.00012
1.00031
1.00068
1.00181
1.00405
1.01071
1.02432
1.06313
1.1505
1.39042
2.01698
3.69909
7.67705
10.9393
1
1
1
1
1
1
1
1
1.00001
1.00002
1.00004
1.00009
1.00021
1.00057
1.00127
1.00339
1.0076
1.02026
1.0466
1.1219
1.30153
1.81436
3.24602
7.15785
12.0494
1
1
1
1
1
1
1
1
1.00001
1.00001
1.00003
1.00007
1.00019
1.00043
1.00113
1.00265
1.00668
1.0164
1.04031
1.10142
1.25773
1.68807
2.93692
6.58069
12.7601
1
1
1
1
1
1
1
1
1
1.00001
1.00003
1.00006
1.00017
1.00039
1.00102
1.00241
1.00607
1.01499
1.03694
1.09321
1.23721
1.63406
2.79455
6.30213
12.9611
1
1
1
1
1
1
1
1
1
1.00001
1.00003
1.00006
1.00015
1.00038
1.00091
1.00239
1.0055
1.01476
1.03421
1.0904
1.22435
1.60755
2.71373
6.09385
12.8797
1
1
1
1
1
1
1
1
1
1.00001
1.00002
1.00006
1.00014
1.00038
1.00087
1.0023
1.00537
1.01402
1.03364
1.08647
1.21783
1.58618
2.65357
5.91727
12.6964
1
1
1
1
1
1
1
1
1
1.00001
1.00002
1.00006
1.00014
1.00035
1.00088
1.00212
1.0055
1.01295
1.03404
1.08194
1.21428
1.56567
2.60113
5.74703
12.5048
1
1
1
1
1
1
1
1
1
1.00001
1.00002
1.00006
1.00014
1.00034
1.00087
1.00205
1.00541
1.01253
1.03342
1.07948
1.20918
1.54902
2.55179
5.58651
12.3091
1
1
1
1
1
1
1
1
1
1.00001
1.00002
1.00005
1.00014
1.00033
1.00087
1.00201
1.00525
1.01258
1.03187
1.07914
1.20258
1.53564
2.50568
5.43879
12.1145
1
1
1
1
1
1
1
1
1
1.00001
1.00002
1.00005
1.00014
1.00032
1.00084
1.00203
1.00502
1.01264
1.03076
1.07824
1.19731
1.52358
2.46444
5.30437
11.9173
1
1
1
1
1
1
1
1
1
1.00001
1.00002
1.00005
1.00014
1.00033
1.00081
1.00203
1.00488
1.01256
1.03001
1.07733
1.19283
1.51306
2.42858
5.18729
11.7297
1
1
1
1
1
1
1
1
1
1.00001
1.00002
1.00005
1.00014
1.00031
1.00084
1.00189
1.00512
1.01169
1.03101
1.07374
1.1927
1.50042
2.40022
5.0885
11.5625
1
1
1
1
1
1
1
1
1
1.00001
1.00002
1.00005
1.00013
1.00032
1.0008
1.00193
1.00497
1.01165
1.03052
1.07288
1.18939
1.49298
2.37462
5.00911
11.4219
1
1
1
1
1
1
1
1
1
1.00001
1.00002
1.00005
1.00013
1.00031
1.00079
1.00196
1.00474
1.01209
1.02894
1.07411
1.18465
1.48787
2.35334
4.94915
11.3106
1
1
1
1
1
1
1
1
1
1.00001
1.00002
1.00005
1.00012
1.00033
1.00075
1.00202
1.00456
1.01226
1.02816
1.07442
1.18106
1.48459
2.33685
4.90503
11.2297
1
1
1
1
1
1
1
1
1
1.00001
1.00002
1.00005
1.00013
1.00031
1.00081
1.00184
1.00495
1.01117
1.03021
1.07013
1.18498
1.47593
2.3295
4.87512
11.1776
1
1
1
1
1
1
1
1
1
1.00001
1.00002
1.00005
1.00012
1.00033
1.00075
1.002
1.00455
1.01207
1.02819
1.07308
1.18028
1.47876
2.32168
4.86188
11.1513
3.7842
3.2528
4.23929
4.27918
4.03278
3.93619
3.88443
3.79429
3.68622
3.59034
3.51059
3.42998
3.33929
3.2741
3.2457
3.23795
3.24116
3.27991
3.35077
3.44697
3.55907
3.67779
3.79696
3.91238
4.02177
4.12436
4.22038
4.3106
4.39552
4.47557
4.55114
4.62248
4.68864
4.74813
4.80105
4.848
4.88946
4.92516
4.95749
4.98608
5.00823
5.02374
5.03365
5.03878
5.03902
5.03659
5.02969
5.01732
5.00152
4.98262
4.96059
4.93558
4.90778
4.87732
4.84452
4.80942
4.77229
4.73321
4.6924
4.64996
4.60611
4.5609
4.51456
4.46713
4.41883
4.36967
4.31987
4.26944
4.21858
4.16733
4.11583
4.06416
4.01244
3.96074
3.90919
3.85784
3.80679
3.75609
3.70582
3.65601
3.60671
3.55793
3.50971
3.46207
3.41502
3.3686
3.32281
3.27771
3.23328
3.18962
3.14676
3.10479
3.06379
3.02406
2.98582
2.94953
2.91584
2.88585
2.86105
2.84501
4.69011
4.20313
4.35235
4.2352
4.0041
3.96395
3.93877
3.81082
3.67786
3.56995
3.49231
3.42101
3.34654
3.27733
3.24205
3.23063
3.23306
3.27116
3.34186
3.43882
3.55221
3.67155
3.79113
3.90663
4.01606
4.11842
4.21418
4.30388
4.38828
4.46745
4.54204
4.61396
4.68073
4.7404
4.79377
4.84102
4.88273
4.91916
4.95116
4.97899
5.00119
5.01714
5.02741
5.03259
5.0329
5.03104
5.02495
5.01219
4.9959
4.97709
4.95541
4.93062
4.90301
4.87274
4.84012
4.80521
4.76828
4.72939
4.68879
4.64655
4.6029
4.55789
4.51175
4.46452
4.4164
4.36744
4.3178
4.26755
4.21683
4.16572
4.11433
4.06277
4.01113
3.9595
3.908
3.85669
3.80568
3.75501
3.70476
3.65497
3.60568
3.55691
3.50869
3.46106
3.414
3.36758
3.32181
3.27671
3.23226
3.18857
3.14572
3.10377
3.06288
3.02311
2.98481
2.94838
2.9145
2.88419
2.8589
2.84243
5.50584
4.77824
4.51848
4.2694
4.04636
3.96295
3.88518
3.78005
3.66447
3.56859
3.49793
3.42067
3.34079
3.27188
3.22771
3.21011
3.21954
3.26119
3.32871
3.42322
3.53668
3.65624
3.77771
3.8943
4.00466
4.10769
4.20429
4.295
4.38041
4.46065
4.5364
4.6079
4.67416
4.73382
4.78733
4.83467
4.87657
4.91304
4.94488
4.97196
4.99384
5.00977
5.02014
5.02522
5.02527
5.02377
5.01854
5.00674
4.98901
4.96966
4.9481
4.92361
4.89624
4.86619
4.83375
4.79907
4.76234
4.7237
4.68334
4.64136
4.59796
4.55323
4.50735
4.4604
4.41253
4.36382
4.31442
4.2644
4.21388
4.16295
4.11173
4.06029
4.00877
3.95723
3.90581
3.85456
3.80359
3.75296
3.70273
3.65297
3.60368
3.55493
3.50671
3.45911
3.41207
3.36559
3.31986
3.27483
3.23051
3.18693
3.1441
3.10214
3.06119
3.02137
2.98297
2.94635
2.91213
2.88134
2.85526
2.83798
5.86638
5.08289
4.63916
4.34606
4.1234
3.98301
3.88511
3.7764
3.664
3.56402
3.48561
3.40799
3.33314
3.2728
3.23418
3.21646
3.22182
3.25386
3.32339
3.41768
3.52784
3.64591
3.76548
3.8818
3.99215
4.09567
4.19282
4.28402
4.36977
4.45018
4.52575
4.59667
4.66247
4.72215
4.77567
4.82311
4.8649
4.90128
4.93268
4.95919
4.98059
4.99648
5.00688
5.01198
5.01195
5.01071
5.00641
4.99625
4.97776
4.95757
4.93585
4.91168
4.88476
4.85514
4.8231
4.7888
4.75246
4.71422
4.67426
4.63271
4.58972
4.54542
4.49994
4.45341
4.40593
4.35762
4.30857
4.2589
4.20868
4.15803
4.10704
4.05583
4.00447
3.9531
3.9018
3.85069
3.79981
3.7493
3.69916
3.64949
3.60026
3.55159
3.50336
3.45588
3.40898
3.36282
3.31711
3.27211
3.2278
3.18425
3.14147
3.09955
3.05862
3.01878
2.98031
2.94351
2.90898
2.87765
2.85073
2.83253
6.04722
5.30093
4.79418
4.45727
4.21442
4.03583
3.90906
3.79439
3.68172
3.58316
3.50344
3.42929
3.36144
3.30683
3.27028
3.25507
3.25948
3.28233
3.33829
3.42657
3.52469
3.63091
3.74501
3.8604
3.97178
4.07708
4.17595
4.26862
4.35546
4.43662
4.5125
4.58319
4.64851
4.70791
4.76123
4.8085
4.85003
4.88609
4.91701
4.94294
4.96386
4.97956
4.98995
4.99507
4.995
4.99391
4.99027
4.98162
4.9641
4.94311
4.92081
4.89669
4.87021
4.84114
4.80963
4.77584
4.74
4.70226
4.6628
4.62175
4.57927
4.53548
4.4905
4.44445
4.39745
4.34958
4.30096
4.25167
4.20182
4.15148
4.10078
4.0498
3.99868
3.9475
3.89638
3.84541
3.79471
3.74435
3.69438
3.64475
3.59565
3.54712
3.49922
3.45182
3.405
3.35882
3.31324
3.26831
3.2241
3.18062
3.13795
3.0961
3.05524
3.01543
2.97693
2.94001
2.90521
2.87341
2.8457
2.82656
6.15752
5.47989
4.96185
4.59015
4.32024
4.11859
3.96575
3.84095
3.72915
3.6333
3.55528
3.49211
3.44092
3.40146
3.37679
3.36845
3.37052
3.38057
3.40711
3.46139
3.52886
3.60905
3.71301
3.82653
3.94164
4.05203
4.1548
4.24993
4.33771
4.41918
4.49473
4.56488
4.62949
4.68844
4.74146
4.78858
4.82989
4.86566
4.89616
4.92162
4.94212
4.9576
4.968
4.97325
4.97318
4.97222
4.96911
4.96173
4.94646
4.92537
4.90251
4.87823
4.85204
4.82354
4.79267
4.75953
4.72431
4.68718
4.64832
4.60787
4.56599
4.52278
4.47838
4.43289
4.38643
4.33908
4.29094
4.24209
4.19265
4.14267
4.0923
4.04162
3.99077
3.93985
3.88893
3.83822
3.78774
3.73757
3.68779
3.63861
3.5898
3.54156
3.49375
3.44653
3.3998
3.35374
3.30827
3.2635
3.2194
3.17608
3.13354
3.09185
3.05112
3.01143
2.97301
2.9361
2.90116
2.86908
2.84078
2.82081
6.22882
5.62225
5.11829
4.72961
4.43623
4.21385
4.04539
3.9133
3.80458
3.71801
3.65557
3.61381
3.58574
3.56672
3.55634
3.54942
3.54464
3.53877
3.532
3.53478
3.54992
3.58965
3.66764
3.76648
3.88649
4.00769
4.12046
4.22215
4.31296
4.39535
4.47069
4.5402
4.6042
4.66275
4.71571
4.76292
4.80432
4.84009
4.87048
4.89574
4.91602
4.93142
4.94192
4.94751
4.94747
4.94666
4.94403
4.93777
4.92471
4.90469
4.88194
4.85756
4.83147
4.80338
4.77312
4.74069
4.70619
4.66976
4.63158
4.5918
4.55057
4.508
4.46423
4.41935
4.37347
4.32665
4.27903
4.23064
4.18161
4.13201
4.08198
4.03163
3.98106
3.93045
3.87974
3.82941
3.77937
3.7297
3.6803
3.63137
3.58277
3.53469
3.48701
3.43993
3.39335
3.34745
3.30215
3.25757
3.21368
3.17055
3.12823
3.08677
3.04628
3.00681
2.96861
2.93186
2.89703
2.86491
2.83634
2.81598
6.27565
5.73247
5.25492
4.86464
4.55752
4.32005
4.13854
4.00173
3.89983
3.83195
3.79655
3.7854
3.78773
3.7967
3.80372
3.80053
3.7884
3.75791
3.69469
3.63202
3.60929
3.61733
3.64762
3.71499
3.81186
3.93756
4.06315
4.17732
4.27702
4.36387
4.44072
4.51011
4.57355
4.63137
4.68408
4.73138
4.773
4.80902
4.83962
4.865
4.88533
4.90084
4.91157
4.9176
4.91785
4.91716
4.91487
4.90947
4.89828
4.88018
4.8584
4.83429
4.80831
4.7805
4.75075
4.71898
4.68522
4.64955
4.61212
4.57305
4.53252
4.49063
4.44752
4.40327
4.358
4.31175
4.26466
4.21675
4.16817
4.11898
4.06934
4.01937
3.96918
3.91897
3.86905
3.81921
3.76955
3.72021
3.6711
3.62237
3.57399
3.52612
3.47868
3.43182
3.38551
3.33983
3.2948
3.25046
3.20687
3.16402
3.12203
3.08088
3.04076
3.00166
2.96385
2.92748
2.893
2.8612
2.83274
2.81248
6.30772
5.81858
5.37213
4.9911
4.68047
4.43539
4.24891
4.11391
4.02915
3.99454
3.99717
4.01165
4.0494
4.10868
4.11632
4.10785
4.07788
4.00714
3.87502
3.75877
3.68512
3.66725
3.67547
3.70452
3.77036
3.86239
3.98086
4.10403
4.21649
4.31395
4.39776
4.47075
4.53539
4.59338
4.64574
4.69286
4.73473
4.77122
4.80239
4.82837
4.84915
4.86524
4.87654
4.88324
4.88424
4.88366
4.8817
4.8771
4.8676
4.85171
4.83152
4.80824
4.78268
4.75521
4.72593
4.69478
4.66175
4.62687
4.59024
4.55196
4.51219
4.47102
4.42861
4.38501
4.34035
4.29468
4.2481
4.20067
4.15253
4.10376
4.05452
4.00498
3.95543
3.90591
3.85651
3.80719
3.75795
3.70897
3.66018
3.61177
3.56368
3.51611
3.46896
3.42241
3.37639
3.33104
3.28632
3.24232
3.19907
3.1566
3.11502
3.07432
3.03468
2.99611
2.95889
2.92318
2.88938
2.85833
2.83045
2.81083
6.33179
5.88848
5.47399
5.10944
4.80468
4.56174
4.38105
4.26095
4.21482
4.21968
4.24262
4.29908
4.41072
4.47421
4.46954
4.44494
4.37922
4.24073
4.06061
3.90825
3.80128
3.74305
3.73545
3.74304
3.76869
3.82722
3.91008
4.01365
4.12802
4.23598
4.3321
4.41505
4.48605
4.54729
4.60085
4.64826
4.69028
4.72717
4.75908
4.78573
4.8074
4.82455
4.83688
4.8447
4.84702
4.84657
4.84498
4.84122
4.8334
4.81968
4.80141
4.7795
4.75479
4.7279
4.69913
4.66855
4.6362
4.60206
4.56622
4.52874
4.48974
4.44932
4.40761
4.36467
4.32062
4.27551
4.22945
4.18249
4.13478
4.08645
4.0378
3.98902
3.94017
3.8913
3.84236
3.79352
3.7447
3.69612
3.64772
3.5997
3.55198
3.50478
3.458
3.41182
3.36619
3.32122
3.2769
3.23333
3.19053
3.14856
3.1075
3.06739
3.02841
2.99058
2.95419
2.91944
2.8867
2.85691
2.83014
2.81165
6.35223
5.94847
5.56546
5.22294
4.93306
4.70516
4.54395
4.46443
4.46845
4.49264
4.55763
4.69276
4.82715
4.85137
4.83484
4.77882
4.65153
4.44306
4.24237
4.07583
3.95046
3.86605
3.82073
3.81145
3.81654
3.83547
3.8803
3.94882
4.03311
4.13445
4.23758
4.33313
4.41635
4.48672
4.54604
4.59644
4.63987
4.67748
4.70995
4.73749
4.7603
4.77859
4.79221
4.80167
4.80592
4.80569
4.80458
4.80171
4.79558
4.78391
4.76766
4.74748
4.72413
4.69819
4.6701
4.64012
4.60837
4.57491
4.53979
4.50306
4.46482
4.42512
4.38411
4.34181
4.29836
4.25378
4.20819
4.16168
4.11449
4.0669
4.01905
3.971
3.92277
3.87445
3.82602
3.77766
3.72933
3.68122
3.6333
3.58573
3.53849
3.49172
3.44541
3.39967
3.35451
3.31002
3.26622
3.22316
3.18094
3.13958
3.09921
3.05986
3.02174
2.98493
2.94974
2.9164
2.88531
2.85735
2.83193
2.81543
6.37242
6.00373
5.65259
5.33836
5.0748
4.87801
4.75804
4.75155
4.77192
4.836
4.97641
5.15686
5.23398
5.22371
5.1798
5.0723
4.85742
4.62874
4.4259
4.25779
4.12381
4.0218
3.94924
3.90542
3.88499
3.88668
3.89682
3.92429
3.97953
4.04282
4.12753
4.22521
4.31909
4.40236
4.47308
4.53182
4.5805
4.62105
4.65509
4.68373
4.70767
4.72731
4.74243
4.7535
4.76015
4.76093
4.76029
4.75824
4.75365
4.74436
4.73019
4.712
4.69031
4.66565
4.63853
4.60932
4.57827
4.54549
4.51109
4.4751
4.43762
4.39867
4.35836
4.31672
4.27386
4.2298
4.18467
4.13878
4.0924
4.04565
3.99856
3.95119
3.90357
3.85583
3.80798
3.76018
3.71241
3.66486
3.61749
3.57046
3.52376
3.47753
3.43176
3.38657
3.34197
3.29806
3.25488
3.21248
3.17096
3.13037
3.09087
3.0525
3.01552
2.98005
2.94643
2.91506
2.88601
2.86018
2.83711
2.82402
6.39471
6.05911
5.74336
5.4656
5.24504
5.10031
5.06493
5.08319
5.14407
5.28154
5.48347
5.60143
5.5975
5.56431
5.47059
5.27478
5.03395
4.81092
4.6178
4.4537
4.31535
4.19988
4.10635
4.03421
3.98332
3.95185
3.94351
3.94753
3.9634
3.99927
4.04587
4.1163
4.20387
4.2932
4.37525
4.44631
4.50547
4.55356
4.5924
4.62401
4.64992
4.67115
4.68804
4.70064
4.70921
4.71255
4.71221
4.71087
4.70763
4.70088
4.68885
4.67279
4.65302
4.62996
4.60411
4.5759
4.54567
4.51362
4.47993
4.44464
4.40787
4.36963
4.33
4.28899
4.24667
4.20313
4.15873
4.11367
4.06812
4.02213
3.97574
3.92906
3.8821
3.83502
3.78781
3.74065
3.69351
3.64658
3.59982
3.55341
3.50733
3.46172
3.41658
3.37203
3.32811
3.2849
3.24246
3.20085
3.16021
3.12059
3.0822
3.0451
3.00964
2.97596
2.94459
2.9157
2.88912
2.86678
2.84755
2.83924
6.42155
6.12188
5.84933
5.62401
5.46711
5.41233
5.42765
5.48447
5.61626
5.82224
5.96011
5.96336
5.93593
5.84987
5.66621
5.4284
5.20131
4.99848
4.81919
4.65956
4.51712
4.39033
4.27957
4.18519
4.10849
4.0493
4.00927
3.98531
3.98575
3.99218
4.01105
4.04671
4.09908
4.17567
4.25713
4.33654
4.40753
4.46725
4.51569
4.55434
4.585
4.60936
4.62848
4.64306
4.65322
4.6593
4.65989
4.65924
4.65718
4.65257
4.64324
4.62939
4.61168
4.59044
4.56614
4.53919
4.51
4.47883
4.44593
4.41138
4.37534
4.3378
4.29884
4.25842
4.21669
4.17391
4.13041
4.08626
4.04154
3.99634
3.95071
3.90478
3.85857
3.81222
3.76575
3.71931
3.6729
3.62668
3.58064
3.53494
3.48959
3.4447
3.40032
3.35653
3.31341
3.27103
3.22949
3.18887
3.14932
3.11092
3.07395
3.03853
3.00507
2.97389
2.94531
2.91917
2.89652
2.87929
2.86556
2.86265
6.46406
6.20671
5.99167
5.83848
5.78011
5.79485
5.85216
5.98528
6.18762
6.32319
6.3306
6.3029
6.21601
6.03227
5.80032
5.57754
5.37598
5.19268
5.02418
4.86708
4.72044
4.58432
4.46002
4.34849
4.25135
4.16923
4.10338
4.05357
4.02181
4.00729
4.00921
4.01858
4.03986
4.07914
4.13936
4.21316
4.28784
4.35729
4.41784
4.46785
4.50768
4.53858
4.5621
4.57979
4.59214
4.60041
4.60375
4.60345
4.60221
4.59917
4.59279
4.58129
4.56583
4.54667
4.52419
4.49879
4.47089
4.44081
4.40884
4.37513
4.33986
4.30305
4.26473
4.22494
4.18403
4.14222
4.09966
4.05642
4.01257
3.96822
3.92343
3.87832
3.83293
3.7874
3.74173
3.6961
3.65049
3.60507
3.55984
3.51494
3.47042
3.42635
3.38284
3.33993
3.29776
3.25637
3.21593
3.1765
3.13832
3.10149
3.06638
3.03318
3.00248
2.9745
2.94895
2.92722
2.9104
2.89968
2.89399
2.89457
6.53473
6.33275
6.19591
6.15104
6.16919
6.2355
6.38481
6.58357
6.71012
6.70751
6.67402
6.57763
6.38004
6.1525
5.93584
5.73915
5.55902
5.38919
5.22708
5.07052
4.9199
4.77642
4.64172
4.51715
4.4043
4.30413
4.21772
4.14572
4.08857
4.04766
4.02161
4.01546
4.01826
4.02877
4.05329
4.10093
4.16168
4.23044
4.29806
4.35935
4.41126
4.45269
4.48438
4.50785
4.52456
4.53563
4.54216
4.54318
4.54258
4.5407
4.53648
4.52792
4.51488
4.49799
4.4776
4.45404
4.42773
4.39899
4.36816
4.33545
4.30107
4.26502
4.2274
4.18846
4.14855
4.10775
4.06618
4.0239
3.98101
3.93761
3.89375
3.84958
3.8051
3.76049
3.71574
3.67101
3.62632
3.58181
3.53752
3.49354
3.44997
3.40687
3.36437
3.32251
3.28146
3.24127
3.20216
3.16424
3.12779
3.09302
3.06034
3.03021
3.00308
2.97835
2.95764
2.9425
2.93326
2.9314
2.93246
2.93654
6.65279
6.52564
6.50902
6.53517
6.62126
6.80578
7.00972
7.11909
7.11199
7.06496
6.94477
6.71812
6.48973
6.27812
6.0874
5.91243
5.7466
5.58497
5.42478
5.26696
5.11268
4.96342
4.82088
4.6865
4.56173
4.44763
4.34511
4.25499
4.17773
4.11422
4.0647
4.03066
4.01203
4.00993
4.0126
4.02445
4.05205
4.10546
4.16601
4.23082
4.29208
4.3454
4.38883
4.42222
4.44648
4.4632
4.4734
4.47816
4.47799
4.47695
4.47429
4.46871
4.45827
4.44385
4.42583
4.40444
4.38005
4.35296
4.32356
4.29206
4.25872
4.22352
4.18684
4.14898
4.11017
4.07046
4.02996
3.98875
3.94692
3.90457
3.86175
3.81861
3.77516
3.73157
3.68784
3.64414
3.60048
3.55699
3.51374
3.47082
3.42833
3.38636
3.34501
3.3044
3.26468
3.22598
3.18853
3.15252
3.11832
3.08627
3.05695
3.03085
3.00721
2.98772
2.97451
2.96781
2.96834
2.97125
2.97949
2.99831
6.84925
6.84433
6.8829
6.99884
7.23834
7.46155
7.55829
7.54356
7.47612
7.31744
7.0715
6.82744
6.61239
6.42381
6.25304
6.09154
5.93323
5.77483
5.61513
5.4557
5.29822
5.14433
4.99574
4.85386
4.71999
4.59514
4.48008
4.37562
4.2821
4.20038
4.1308
4.07444
4.03165
4.00516
3.99285
3.98857
3.99274
4.00792
4.04155
4.09579
4.15516
4.21525
4.27019
4.31624
4.35205
4.37803
4.39533
4.40509
4.40844
4.40802
4.40647
4.40291
4.39563
4.38385
4.36836
4.3494
4.32726
4.30218
4.27454
4.24455
4.21241
4.17836
4.14295
4.10633
4.06872
4.0302
3.99088
3.95085
3.91019
3.869
3.82734
3.78535
3.74306
3.7006
3.65803
3.61547
3.57297
3.53066
3.48859
3.4469
3.40565
3.36499
3.32501
3.28591
3.2478
3.21095
3.1756
3.1421
3.11089
3.0826
3.05768
3.03544
3.01742
3.00613
3.00303
3.00433
3.00922
3.02124
3.04549
3.09145
7.18181
7.23
7.37493
7.6722
7.93348
8.02754
8.00486
7.91513
7.71409
7.43742
7.17521
6.94913
6.75611
6.58541
6.42629
6.27111
6.11543
5.95756
5.79722
5.6362
5.47601
5.3185
5.16522
5.01759
4.87672
4.7435
4.61863
4.50281
4.39639
4.30003
4.21413
4.13945
4.07658
4.02679
3.99067
3.9723
3.95604
3.95651
3.96296
3.98126
4.01983
4.07311
4.1312
4.18661
4.23486
4.27354
4.3018
4.32045
4.33061
4.3333
4.33276
4.33087
4.32658
4.31789
4.30501
4.28857
4.2689
4.24617
4.22067
4.19252
4.162
4.12955
4.09563
4.06043
4.02419
3.98699
3.94899
3.91025
3.87088
3.83097
3.79061
3.74987
3.70887
3.66768
3.62641
3.58512
3.54395
3.50294
3.46224
3.42193
3.38214
3.34301
3.30469
3.26739
3.23132
3.19681
3.16422
3.13406
3.10704
3.08354
3.06276
3.047
3.03751
3.03776
3.04024
3.04794
3.06542
3.10105
3.14383
3.20619
7.57298
7.81023
8.15125
8.43229
8.5262
8.4955
8.382
8.13544
7.82583
7.53964
7.29758
7.09437
6.91816
6.75721
6.60243
6.4482
6.29178
6.13254
5.97054
5.80794
5.64563
5.48536
5.32858
5.17654
5.03025
4.8905
4.75792
4.63304
4.51631
4.40834
4.30934
4.21984
4.1405
4.07201
4.01543
3.97172
3.94352
3.92215
3.90925
3.91142
3.92108
3.94389
3.98934
4.04091
4.09508
4.14489
4.18627
4.21748
4.23857
4.25
4.25323
4.25263
4.25051
4.24564
4.23584
4.22199
4.20482
4.18461
4.16153
4.1356
4.10717
4.07673
4.04466
4.01118
3.97652
3.94084
3.90428
3.86697
3.82902
3.79052
3.75155
3.71223
3.67264
3.63287
3.59303
3.55318
3.51349
3.47398
3.43484
3.39613
3.35807
3.32076
3.28446
3.24941
3.21595
3.18451
3.15563
3.13015
3.10832
3.08934
3.07569
3.07006
3.07103
3.07523
3.0866
3.11079
3.15402
3.21143
3.26697
3.33394
8.24044
8.67093
8.98692
9.06977
9.0275
8.88198
8.57712
8.23376
7.92366
7.66326
7.44643
7.26041
7.0929
6.93429
6.77829
6.62133
6.46199
6.30018
6.13675
5.97187
5.80764
5.64524
5.48579
5.33035
5.17975
5.0348
4.89601
4.76399
4.63909
4.52162
4.412
4.31057
4.21794
4.13447
4.06105
3.9985
3.94767
3.91171
3.8828
3.86095
3.8561
3.85992
3.8726
3.90061
3.9467
3.99713
4.04702
4.09106
4.12587
4.14995
4.16372
4.16828
4.16772
4.16553
4.16038
4.14996
4.13552
4.11777
4.09709
4.07362
4.04771
4.01972
3.9899
3.95848
3.92567
3.89171
3.85678
3.82106
3.78464
3.74769
3.71026
3.67251
3.63446
3.59629
3.55803
3.51984
3.48179
3.44401
3.40666
3.36985
3.33381
3.29874
3.26496
3.23279
3.20276
3.17545
3.15182
3.13188
3.11528
3.10364
3.10229
3.10415
3.11073
3.12657
3.15915
3.2096
3.27065
3.33972
3.39924
3.45969
9.21748
9.61204
9.68561
9.62498
9.4324
9.04425
8.66012
8.32555
8.04723
7.81583
7.61781
7.44057
7.27442
7.11285
6.95191
6.78987
6.62619
6.46104
6.29505
6.12842
5.96263
5.79844
5.6368
5.4786
5.3246
5.1755
5.03179
4.89396
4.76229
4.63716
4.51893
4.4079
4.3045
4.20903
4.12208
4.04422
3.97636
3.91938
3.87545
3.84005
3.81201
3.79288
3.79388
3.80001
3.81618
3.84978
3.89488
3.94379
3.98933
4.02712
4.05472
4.07161
4.07846
4.07809
4.07623
4.07141
4.06142
4.04648
4.02799
4.00689
3.98366
3.95838
3.93117
3.90215
3.87155
3.83959
3.80653
3.77256
3.73788
3.70261
3.66689
3.63083
3.59452
3.55811
3.52164
3.48528
3.44911
3.41333
3.37805
3.34351
3.30994
3.27767
3.2471
3.21875
3.19333
3.17197
3.15413
3.14024
3.1322
3.13287
3.1365
3.14669
3.16867
3.21147
3.26711
3.33343
3.40278
3.47117
3.52324
3.56925
10.3579
10.4096
10.3143
10.0378
9.55295
9.10973
8.74408
8.44748
8.2025
7.99244
7.80405
7.62771
7.45722
7.28902
7.12119
6.95313
6.7846
6.61588
6.44719
6.27878
6.11129
5.94546
5.78195
5.62148
5.46469
5.31217
5.16441
5.02182
4.88463
4.75322
4.62791
4.50898
4.39678
4.29149
4.19363
4.10351
4.02188
3.94931
3.88675
3.83548
3.79487
3.75869
3.7326
3.72367
3.72576
3.73413
3.75367
3.7926
3.83642
3.88179
3.9221
3.9534
3.97382
3.98439
3.9848
3.98354
3.97956
3.97082
3.95526
3.93658
3.91571
3.89296
3.86839
3.84198
3.8139
3.7843
3.75345
3.72153
3.68881
3.65543
3.6216
3.58742
3.55304
3.51856
3.48412
3.44983
3.41585
3.38236
3.34959
3.3178
3.28734
3.25865
3.23234
3.20911
3.19045
3.17517
3.16378
3.16095
3.16272
3.1688
3.18419
3.21583
3.26493
3.32716
3.39674
3.46813
3.53359
3.58987
3.62623
3.65564
11.3078
11.1524
10.7279
10.1077
9.58476
9.17748
8.86012
8.6029
8.38263
8.18361
7.99616
7.81474
7.63643
7.45998
7.28477
7.11069
6.93751
6.76528
6.59392
6.42374
6.25435
6.08695
5.92177
5.75934
5.60016
5.44475
5.29346
5.14674
5.00499
4.86844
4.73735
4.61184
4.49231
4.37894
4.27212
4.17208
4.07922
3.99401
3.91731
3.84976
3.79226
3.74634
3.70376
3.67102
3.64988
3.64946
3.65271
3.6634
3.68735
3.72737
3.77077
3.8123
3.84696
3.87181
3.88577
3.88947
3.88856
3.88546
3.87809
3.86337
3.84519
3.82467
3.80232
3.77834
3.75282
3.72585
3.69751
3.66799
3.63752
3.60632
3.57461
3.54255
3.5103
3.47801
3.44583
3.41393
3.38249
3.35176
3.32203
3.29369
3.26723
3.24327
3.22271
3.20702
3.1949
3.18682
3.18742
3.19108
3.20136
3.2235
3.26627
3.32237
3.38919
3.46143
3.53255
3.59624
3.64748
3.68445
3.70399
3.72023
11.982
11.5527
10.7174
10.0901
9.62464
9.28011
9.01068
8.78229
8.57466
8.37698
8.18435
7.99482
7.80791
7.62358
7.4418
7.26247
7.08521
6.90976
6.73583
6.56346
6.39243
6.22337
6.0566
5.89241
5.7311
5.57318
5.41888
5.26868
5.12277
4.98158
4.84528
4.71416
4.58845
4.46833
4.35409
4.24589
4.1441
4.049
3.96102
3.88069
3.80881
3.74579
3.69395
3.64656
3.60649
3.57952
3.5674
3.56842
3.57399
3.5885
3.61851
3.65804
3.70011
3.73757
3.76613
3.78405
3.79208
3.79168
3.78949
3.78375
3.77178
3.75462
3.73436
3.71242
3.68919
3.66472
3.63899
3.61209
3.5842
3.5555
3.52623
3.49657
3.46674
3.43693
3.40735
3.37823
3.34981
3.32246
3.29655
3.27266
3.25148
3.2339
3.22205
3.21246
3.21008
3.21209
3.21881
3.23519
3.26862
3.31843
3.38142
3.45254
3.52634
3.59625
3.65652
3.70364
3.7355
3.75487
3.76117
3.76849
12.3599
11.4495
10.6391
10.0881
9.70532
9.42176
9.18535
8.96975
8.76283
8.55988
8.3597
8.16249
7.96866
7.77846
7.59186
7.40849
7.22792
7.04958
6.87322
6.69859
6.52578
6.35456
6.18603
6.0201
5.85681
5.69657
5.53952
5.38615
5.23662
5.09137
4.95058
4.81456
4.6835
4.5576
4.43706
4.32204
4.21279
4.10949
4.01246
3.92206
3.83876
3.76318
3.69586
3.63885
3.58677
3.54163
3.50801
3.48736
3.48239
3.48463
3.49272
3.51137
3.54758
3.58722
3.62582
3.6581
3.68074
3.69307
3.69501
3.69391
3.69006
3.68132
3.66475
3.64551
3.62436
3.60194
3.5785
3.55419
3.52907
3.50319
3.47671
3.44983
3.4228
3.39588
3.36936
3.34355
3.31884
3.29576
3.27472
3.25684
3.24257
3.23474
3.22915
3.23005
3.2346
3.24658
3.27189
3.31625
3.37382
3.44211
3.51653
3.59063
3.6583
3.7145
3.75666
3.78474
3.79939
3.80573
3.80583
3.8067
12.276
11.1861
10.5227
10.1105
9.81935
9.57584
9.35232
9.13764
8.9272
8.71967
8.51507
8.31388
8.11655
7.92325
7.73383
7.54779
7.36461
7.1838
7.00506
6.82815
6.65313
6.47997
6.30906
6.14116
5.97593
5.81347
5.65392
5.49764
5.34489
5.19603
5.0513
4.91099
4.7753
4.64442
4.51855
4.39777
4.28232
4.1723