/*--------------------------------*- C++ -*----------------------------------*\
  =========                 |
  \\      /  F ield         | OpenFOAM: The Open Source CFD Toolbox
   \\    /   O peration     | Website:  https://openfoam.org
    \\  /    A nd           | Version:  9
     \\/     M anipulation  |
\*---------------------------------------------------------------------------*/
FoamFile
{
    format      ascii;
    class       surfaceScalarField;
    location    "8.5";
    object      phi;
}
// * * * * * * * * * * * * * * * * * * * * * * * * * * * * * * * * * * * * * //

dimensions      [1 0 -1 0 0 0 0];

internalField   nonuniform List<scalar> 
10325
(
0.00840002
2.21669e-11
0.00840005
8.4407e-10
0.00839994
1.09672e-09
0.00840021
8.45347e-09
0.0083996
8.48588e-09
0.00840103
5.25527e-08
0.00839771
4.84335e-08
0.00840435
3.20602e-07
0.00839035
2.26786e-07
0.00841227
1.77418e-06
0.0083746
2.39633e-06
0.00840421
1.0162e-05
0.0083427
2.90604e-05
0.00823301
0.000121788
0.00763096
0.000587129
0.00701451
0.000616767
0.00640599
0.000609122
0.00577353
0.00063236
0.00510848
0.000664812
0.00439801
0.000710293
0.00363137
0.000766372
0.00280799
0.000823189
0.00193128
0.00087644
0.00099878
0.000932064
0.000998579
0.00840002
1.49833e-10
0.00840004
9.60546e-10
0.00839996
3.35738e-09
0.00840016
9.443e-09
0.00839957
2.53903e-08
0.00840113
6.24545e-08
0.00839705
1.59898e-07
0.00840683
3.8594e-07
0.00838545
9.87211e-07
0.00842121
2.4652e-06
0.00836651
6.55264e-06
0.0084096
1.87749e-05
0.00833497
6.12483e-05
0.00822978
0.000243865
0.00762402
0.00117813
0.00700247
0.00123879
0.00640245
0.00120969
0.00577587
0.00125883
0.00511361
0.00132684
0.00439656
0.00142717
0.00362174
0.00154093
0.00278989
0.00165484
0.00190134
0.00176472
0.000963751
0.00186922
0.00196212
0.00840002
2.32997e-10
0.00840004
1.49686e-09
0.00839996
5.04395e-09
0.00840016
1.48276e-08
0.00839957
3.74367e-08
0.0084011
1.01665e-07
0.00839713
2.29125e-07
0.0084065
6.3505e-07
0.00838601
1.41507e-06
0.00841981
3.86639e-06
0.00836806
9.76128e-06
0.00840775
2.84832e-05
0.00833653
9.19075e-05
0.00823462
0.000361758
0.00764088
0.00175704
0.00701695
0.00186334
0.00642476
0.0018025
0.00580658
0.0018769
0.00514956
0.00198358
0.00443521
0.00214145
0.00365784
0.00231793
0.00282026
0.00249236
0.00192089
0.00266375
0.000970936
0.00281874
0.00293288
0.00840002
3.45098e-10
0.00840004
1.76091e-09
0.00839997
7.13542e-09
0.00840011
1.74292e-08
0.00839968
5.3287e-08
0.00840084
1.17226e-07
0.0083975
3.41719e-07
0.00840567
7.20561e-07
0.00838698
2.14152e-06
0.00841864
4.69505e-06
0.00836936
1.36432e-05
0.00840712
3.70402e-05
0.00833802
0.000122137
0.00824543
0.000469855
0.00767823
0.00230912
0.00705847
0.00248414
0.00647491
0.00238682
0.00586746
0.00248419
0.00522075
0.00263009
0.0045137
0.00284819
0.00374266
0.00308898
0.00290075
0.00333418
0.00198946
0.00357464
0.00101151
0.00379633
0.00394452
0.00840002
3.56061e-10
0.00840005
2.54397e-09
0.00839993
8.02911e-09
0.00840023
2.46787e-08
0.00839951
6.03414e-08
0.00840124
1.6558e-07
0.00839725
3.79874e-07
0.00840615
1.05282e-06
0.0083871
2.33197e-06
0.00841807
6.55408e-06
0.00836974
1.59453e-05
0.00840786
4.70943e-05
0.00834095
0.000148837
0.00825965
0.000567354
0.00774379
0.00280866
0.00712917
0.00310014
0.00655244
0.00296454
0.00595857
0.00307798
0.00532596
0.00326255
0.00463381
0.00354015
0.00386942
0.00385334
0.00302856
0.0041747
0.00209751
0.00450545
0.00108005
0.00481365
0.00502452
0.00840002
6.19349e-10
0.00840004
2.22482e-09
0.00839999
1.20467e-08
0.00840009
2.22469e-08
0.00839974
8.8521e-08
0.00840066
1.5064e-07
0.00839794
5.57433e-07
0.00840459
9.5428e-07
0.00838875
3.36964e-06
0.00841647
6.5611e-06
0.00837158
2.05863e-05
0.00840805
5.29192e-05
0.00834468
0.000175165
0.0082823
0.000645589
0.00786807
0.00320562
0.00724297
0.00372745
0.0066707
0.00353793
0.0060897
0.00365891
0.00547449
0.0038776
0.00480195
0.00421259
0.00405219
0.00460306
0.00321108
0.00501568
0.00226218
0.00545422
0.0011855
0.00589012
0.00620978
0.00840002
3.92084e-10
0.00840002
3.64656e-09
0.00840002
9.57117e-09
0.0084
3.57676e-08
0.00840006
7.26564e-08
0.00839966
2.36351e-07
0.00840068
4.70437e-07
0.00839722
1.4447e-06
0.00840394
3.04405e-06
0.00839023
8.75308e-06
0.00840455
2.10439e-05
0.00838186
6.14967e-05
0.00837615
0.000190003
0.00831455
0.000697663
0.0080895
0.00341823
0.00744483
0.00437483
0.0068557
0.00412863
0.00627916
0.00423544
0.00568171
0.00447494
0.00503141
0.00486293
0.00430041
0.00533392
0.00346653
0.00584946
0.0024981
0.0064227
0.00135362
0.00703423
0.00756308
0.00840002
5.36904e-10
0.00840005
3.28386e-09
0.00839996
1.18802e-08
0.0084002
3.22716e-08
0.00839963
8.71128e-08
0.00840101
2.21195e-07
0.0083979
5.37325e-07
0.00840512
1.43011e-06
0.00838971
3.2884e-06
0.00841743
9.11139e-06
0.00837372
2.19527e-05
0.00842021
6.37747e-05
0.0083724
0.000194373
0.0083894
0.000699039
0.00846621
0.00332304
0.00779495
0.00504865
0.00714615
0.00477908
0.00655911
0.00482264
0.00597498
0.00505903
0.00534512
0.00549298
0.0046367
0.00604228
0.00381725
0.006669
0.00284616
0.0073938
0.0016282
0.00825193
0.00919092
0.00840003
5.023e-10
0.00840002
3.18461e-09
0.00840005
1.08249e-08
0.00839997
3.10404e-08
0.00840011
8.29748e-08
0.00839995
1.99045e-07
0.00839981
5.48574e-07
0.0084008
1.20014e-06
0.00839767
3.47339e-06
0.00840409
7.60964e-06
0.00839835
2.20804e-05
0.00840693
5.63803e-05
0.0084245
0.000176778
0.00851153
0.000610423
0.00909246
0.00272624
0.00837838
0.00576502
0.00758248
0.00557655
0.00697821
0.00542728
0.0063779
0.00565937
0.0057692
0.00610202
0.00508366
0.00672787
0.00432053
0.00743236
0.00340209
0.00831235
0.00211206
0.0095417
0.0113026
0.00840002
5.04724e-10
0.00840004
2.43266e-09
0.00839998
1.05062e-08
0.00840015
2.42438e-08
0.00839979
7.67682e-08
0.00840067
1.68675e-07
0.00839889
4.65207e-07
0.00840333
1.08402e-06
0.00839457
2.76923e-06
0.00841368
6.83261e-06
0.00838812
1.73564e-05
0.0084375
4.61352e-05
0.00844001
0.000135164
0.00862067
0.000449166
0.00943172
0.00190249
0.00894261
0.0062507
0.00803384
0.00648464
0.00748376
0.00597715
0.00688117
0.00626194
0.0063035
0.00667984
0.00569377
0.00733786
0.00502942
0.00809672
0.00417823
0.00916361
0.00295182
0.0107682
0.0142541
0.00840003
3.35397e-10
0.00840002
2.79165e-09
0.00840005
7.76558e-09
0.00839996
2.7077e-08
0.00840022
5.90894e-08
0.00839954
1.72593e-07
0.0084014
3.87373e-07
0.00839717
1.02549e-06
0.00840786
2.4481e-06
0.0083874
6.13741e-06
0.00842434
1.55447e-05
0.00838448
4.07443e-05
0.00844198
0.000117301
0.00848238
0.00038405
0.00882694
0.00155959
0.00878919
0.00627699
0.00855066
0.00672151
0.00788714
0.00663997
0.00737885
0.00677
0.00688144
0.0071772
0.00642468
0.0077947
0.00592289
0.00859862
0.00547043
0.00961604
0.00540292
0.0108353
0.0113628
0.00829363
0.00840002
3.53981e-10
0.00840004
2.41869e-09
0.00839999
7.97224e-09
0.00840011
2.39182e-08
0.00839985
5.89354e-08
0.00840048
1.61908e-07
0.00839919
3.60423e-07
0.00840209
1.01554e-06
0.00839606
2.17204e-06
0.00840842
6.25054e-06
0.00838787
1.39026e-05
0.00842071
3.96889e-05
0.00839194
0.000107898
0.0084511
0.000353474
0.00863807
0.00135329
0.00876925
0.00613836
0.00845951
0.00703091
0.00806708
0.00703223
0.00770738
0.00712968
0.00733467
0.00754985
0.00699926
0.00813012
0.00672391
0.00887389
0.00661204
0.00972792
0.00698231
0.0104654
0.0104769
0.00786711
0.00840003
4.22013e-10
0.00840003
2.02364e-09
0.00840002
8.662e-09
0.00840003
1.9954e-08
0.00839997
6.41957e-08
0.00840019
1.33371e-07
0.00839939
4.06988e-07
0.00840176
8.32875e-07
0.0083957
2.48287e-06
0.0084095
5.24484e-06
0.00838482
1.51722e-05
0.00842095
3.60647e-05
0.00838811
0.000106331
0.00843894
0.0003295
0.00854764
0.00122427
0.0089048
0.00577297
0.00861195
0.00732417
0.00828431
0.00736044
0.0079956
0.00741841
0.00775051
0.00779471
0.00753201
0.00834854
0.00742718
0.008979
0.00757131
0.00958332
0.0080093
0.010027
0.00995269
0.00853268
0.00840003
2.96972e-10
0.00840002
2.31138e-09
0.00840003
6.85127e-09
0.00840001
2.27841e-08
0.00840008
5.17558e-08
0.00839983
1.50719e-07
0.00840057
3.34855e-07
0.00839854
9.18214e-07
0.00840395
2.11467e-06
0.00839213
5.5909e-06
0.00841525
1.35758e-05
0.0083838
3.60016e-05
0.00842499
9.80946e-05
0.00841997
0.000305736
0.00856664
0.0010895
0.00935577
0.00496714
0.00901937
0.00766169
0.00860473
0.00777569
0.00833536
0.00768848
0.00815689
0.00797319
0.00805523
0.00844985
0.00807547
0.00895865
0.00826476
0.00939405
0.00863862
0.00965286
0.00952111
0.00906915
0.00840003
3.24452e-10
0.00840004
1.75347e-09
0.00840001
6.94725e-09
0.00840009
1.72564e-08
0.00839992
5.15362e-08
0.00840036
1.17196e-07
0.00839948
3.19255e-07
0.00840177
7.47597e-07
0.00839728
1.91612e-06
0.0084082
4.70721e-06
0.00839049
1.18029e-05
0.00842767
3.04223e-05
0.00840042
8.17453e-05
0.00850244
0.000243785
0.00873426
0.000832174
0.0102266
0.00346515
0.00965203
0.00823671
0.00921924
0.00820943
0.00881029
0.0080981
0.00860012
0.00818375
0.00853633
0.00851395
0.00859358
0.00890131
0.0087848
0.00920225
0.0091024
0.00933506
0.00916558
0.00945729
0.00840003
2.13786e-10
0.00840002
1.65114e-09
0.00840004
4.97182e-09
0.00840001
1.61609e-08
0.00840011
3.72555e-08
0.00839986
1.06727e-07
0.00840066
2.34959e-07
0.0083989
6.54772e-07
0.00840416
1.4393e-06
0.00839421
3.95002e-06
0.0084199
8.93607e-06
0.0083864
2.41834e-05
0.00845967
6.05552e-05
0.00847606
0.000176843
0.00876742
0.000567872
0.00996901
0.00224786
0.0101301
0.00807249
0.0097765
0.00856231
0.00929144
0.00858319
0.00905799
0.00841703
0.00898903
0.00858302
0.00904
0.00885041
0.00920208
0.00904023
0.00945899
0.00907762
0.00888199
0.00974188
0.00840003
2.30474e-10
0.00840003
1.24066e-09
0.00840004
4.83994e-09
0.00840002
1.21647e-08
0.00840005
3.58915e-08
0.00840004
8.03181e-08
0.00840003
2.26535e-07
0.00840038
4.90468e-07
0.00839941
1.37234e-06
0.00840293
2.99917e-06
0.00839751
8.28363e-06
0.00841273
1.90803e-05
0.00840853
5.23562e-05
0.00845284
0.000141492
0.00855809
0.000453034
0.0091146
0.00169255
0.0101166
0.00705662
0.00995938
0.00871794
0.00970473
0.00883707
0.00945517
0.00866647
0.00937716
0.00866144
0.00942147
0.00880571
0.00955128
0.00891011
0.00974886
0.00887983
0.00866477
0.00996548
0.00840003
1.66383e-10
0.00840003
1.13571e-09
0.00840003
3.73945e-09
0.00840002
1.12323e-08
0.00840007
2.79801e-08
0.00839995
7.48475e-08
0.00840036
1.75579e-07
0.00839935
4.63884e-07
0.0084024
1.0801e-06
0.00839595
2.83479e-06
0.00841328
6.67133e-06
0.00838383
1.76469e-05
0.00844014
4.37582e-05
0.00840208
0.000122799
0.0085287
0.000372944
0.00885876
0.00133234
0.010291
0.00561738
0.0102434
0.00876593
0.0100329
0.00904797
0.00979263
0.00890726
0.00971126
0.00874279
0.00974391
0.00877346
0.00984633
0.00880732
0.00999433
0.00873111
0.00850368
0.0101549
0.00840003
1.44415e-10
0.00840003
9.25229e-10
0.00840004
3.10537e-09
0.00840001
9.06369e-09
0.00840009
2.3255e-08
0.00839995
5.91174e-08
0.00840033
1.49304e-07
0.00839969
3.57078e-07
0.00840155
9.23108e-07
0.00839858
2.14086e-06
0.00840678
5.67103e-06
0.00839737
1.31811e-05
0.00842876
3.54583e-05
0.00842607
9.08947e-05
0.00856294
0.000269695
0.00897603
0.000896372
0.0110419
0.00354008
0.0107931
0.00901417
0.0106089
0.0092337
0.0102968
0.00922022
0.0100938
0.00894672
0.0100585
0.00880849
0.0101173
0.00874866
0.01022
0.00862782
0.00838973
0.0103329
0.00840003
1.02481e-10
0.00840003
7.34657e-10
0.00840003
2.34826e-09
0.00840004
7.22726e-09
0.00840002
1.75241e-08
0.00840007
4.78188e-08
0.00840006
1.09257e-07
0.0084001
2.93446e-07
0.00840058
6.58776e-07
0.00839977
1.77001e-06
0.00840436
3.99581e-06
0.00840007
1.06503e-05
0.00842106
2.52395e-05
0.00843168
6.78263e-05
0.00852362
0.000186256
0.0088166
0.000594896
0.0101135
0.00224229
0.0111463
0.00797068
0.0109757
0.00940377
0.0107034
0.00949251
0.010465
0.00918573
0.0103687
0.00890502
0.0103782
0.00873849
0.0104353
0.00857037
0.00831747
0.0105066
0.00840003
8.84231e-11
0.00840003
5.47346e-10
0.00840003
1.94654e-09
0.00840004
5.38121e-09
0.00840002
1.44999e-08
0.0084001
3.60251e-08
0.00839992
9.03557e-08
0.00840053
2.23225e-07
0.00839934
5.43701e-07
0.00840296
1.36257e-06
0.00839658
3.27992e-06
0.00841433
8.35237e-06
0.0083905
2.02817e-05
0.00844825
5.32177e-05
0.00843839
0.000143259
0.00863588
0.000441063
0.00926499
0.00158499
0.0110484
0.00618082
0.0111526
0.00929926
0.011034
0.00961106
0.0107733
0.00944642
0.0106555
0.00902309
0.0106292
0.00876465
0.0106492
0.00854857
0.00828309
0.0106821
0.00840003
7.26314e-11
0.00840003
4.16171e-10
0.00840003
1.5381e-09
0.00840003
4.09844e-09
0.00840003
1.13893e-08
0.00840005
2.69652e-08
0.00840003
7.21242e-08
0.00840022
1.63548e-07
0.00839983
4.41063e-07
0.00840162
9.8306e-07
0.00839828
2.66682e-06
0.00841079
5.99573e-06
0.0083927
1.62381e-05
0.00844549
3.85766e-05
0.00843178
0.00010641
0.00861637
0.000303175
0.00914714
0.0010205
0.0114823
0.0038398
0.0115712
0.0092081
0.0114905
0.00969229
0.0112696
0.0096677
0.0110024
0.0092898
0.0108966
0.0088695
0.0108742
0.00857092
0.008281
0.0108735
0.00840003
5.08236e-11
0.00840003
3.11532e-10
0.00840003
1.1241e-09
0.00840004
3.06603e-09
0.00840003
8.32035e-09
0.00840006
2.04776e-08
0.00840003
5.154e-08
0.00840013
1.26709e-07
0.0084002
3.07337e-07
0.00840024
7.67933e-07
0.00840174
1.83081e-06
0.0084006
4.65265e-06
0.00841074
1.10531e-05
0.0084123
2.86492e-05
0.00845546
7.18896e-05
0.00854943
0.000202066
0.0089438
0.000629487
0.010466
0.00230823
0.0118228
0.0078441
0.0117928
0.00972115
0.0115887
0.00987089
0.0113211
0.00955686
0.0111975
0.00899185
0.0111159
0.00864916
0.00831295
0.0110816
0.00840003
3.5392e-11
0.00840003
2.48529e-10
0.00840003
8.01615e-10
0.00840003
2.43478e-09
0.00840004
6.00101e-09
0.00840002
1.59912e-08
0.0084001
3.75495e-08
0.00839995
9.76675e-08
0.00840051
2.27107e-07
0.00839953
5.88113e-07
0.00840284
1.36966e-06
0.00839763
3.53778e-06
0.00841431
8.38321e-06
0.00839428
2.1626e-05
0.0084551
5.39093e-05
0.00845399
0.000147243
0.00869402
0.000439856
0.00941745
0.0015503
0.0117018
0.00555611
0.0119469
0.00947305
0.0119724
0.00984293
0.0117905
0.00973695
0.0114973
0.00928451
0.0113777
0.00876673
0.00838588
0.0113005
0.00840003
2.76121e-11
0.00840003
1.6677e-10
0.00840003
5.97886e-10
0.00840003
1.64117e-09
0.00840004
4.4127e-09
0.00840003
1.08234e-08
0.00840007
2.75009e-08
0.00840004
6.57462e-08
0.0084002
1.6499e-07
0.00840026
3.92506e-07
0.0084006
9.80368e-07
0.00840218
2.34405e-06
0.00840284
5.83473e-06
0.00841376
1.42113e-05
0.0084268
3.57661e-05
0.00848443
9.22208e-05
0.00866359
0.000259851
0.00938324
0.000828777
0.0119812
0.00295093
0.012486
0.00896233
0.0123697
0.00995627
0.0121127
0.0099912
0.0118325
0.00956052
0.0116563
0.00894073
0.00850002
0.0115377
0.00840003
1.78482e-11
0.00840003
1.24887e-10
0.00840003
3.98741e-10
0.00840003
1.22993e-09
0.00840004
2.97979e-09
0.00840002
8.01906e-09
0.00840007
1.87424e-08
0.00840001
4.81798e-08
0.00840024
1.14295e-07
0.00839998
2.8386e-07
0.00840093
6.90263e-07
0.00840052
1.66547e-06
0.00840315
4.18628e-06
0.00840591
9.89053e-06
0.0084181
2.56392e-05
0.00844095
6.30838e-05
0.00853814
0.000174284
0.00882689
0.000526163
0.00989589
0.00188518
0.0122673
0.00657297
0.0124772
0.0097414
0.0125362
0.00992779
0.012246
0.00984742
0.0119594
0.00922331
0.00866474
0.0117879
0.00840003
1.41743e-11
0.00840003
8.22865e-11
0.00840003
3.06495e-10
0.00840003
8.06991e-10
0.00840003
2.25571e-09
0.00840004
5.34441e-09
0.00840003
1.39198e-08
0.00840009
3.27934e-08
0.00839998
8.2867e-08
0.00840044
1.97912e-07
0.00839977
4.88202e-07
0.00840235
1.19412e-06
0.00839897
2.88543e-06
0.00841193
7.23344e-06
0.00839978
1.73861e-05
0.00845157
4.47774e-05
0.00846401
0.000115247
0.00870096
0.000332716
0.00945699
0.00109893
0.0121665
0.00385254
0.012764
0.00913822
0.0127751
0.00991238
0.0125913
0.0100266
0.012295
0.00951571
0.00887174
0.0120757
0.00840003
9.36602e-12
0.00840003
5.87711e-11
0.00840003
2.03483e-10
0.00840003
5.77048e-10
0.00840003
1.51346e-09
0.00840003
3.75918e-09
0.00840005
9.50964e-09
0.00840003
2.25479e-08
0.00840012
5.73426e-08
0.00840006
1.33392e-07
0.00840036
3.4282e-07
0.0084006
7.87695e-07
0.00840114
2.04096e-06
0.0084046
4.69255e-06
0.00840683
1.21961e-05
0.00842648
2.8917e-05
0.00846246
7.61511e-05
0.00859046
0.000203545
0.00905616
0.000629603
0.0107073
0.0021996
0.0127407
0.00708814
0.0128157
0.00983074
0.0129023
0.00993226
0.0126845
0.00972357
0.00913222
0.0124089
0.00840003
6.12508e-12
0.00840003
4.07523e-11
0.00840003
1.36361e-10
0.00840003
3.99999e-10
0.00840003
1.013e-09
0.00840003
2.62081e-09
0.00840004
6.31772e-09
0.00840003
1.58837e-08
0.00840009
3.79276e-08
0.00840001
9.42184e-08
0.00840048
2.26382e-07
0.00839975
5.58414e-07
0.00840292
1.34561e-06
0.0083986
3.32092e-06
0.00841606
8.0925e-06
0.00839788
2.00491e-05
0.00846882
5.04722e-05
0.00847782
0.000132333
0.00878198
0.000383026
0.00965118
0.00128914
0.0124145
0.00431561
0.0130862
0.00914843
0.0129557
0.0100516
0.0129216
0.00974357
0.00932409
0.0127092
0.00840003
4.00908e-12
0.00840003
2.75365e-11
0.00840003
9.08174e-11
0.00840003
2.70247e-10
0.00840003
6.73262e-10
0.00840003
1.77458e-09
0.00840003
4.16451e-09
0.00840004
1.07292e-08
0.00840006
2.48841e-08
0.00840004
6.34777e-08
0.00840028
1.48088e-07
0.00839997
3.72087e-07
0.0084018
8.83989e-07
0.00839944
2.17853e-06
0.00841089
5.28974e-06
0.00839931
1.29297e-05
0.00845272
3.22629e-05
0.00844892
8.16819e-05
0.00866537
0.000223374
0.0092235
0.00068829
0.0111908
0.00235173
0.0131347
0.00718263
0.0131892
0.00997963
0.0130478
0.00986059
0.00938641
0.0129526
0.00840003
2.91165e-12
0.00840003
1.70528e-11
0.00840003
6.27007e-11
0.00840003
1.68239e-10
0.00840003
4.62373e-10
0.00840003
1.10677e-09
0.00840003
2.85858e-09
0.00840004
6.7043e-09
0.00840003
1.69764e-08
0.00840011
4.00151e-08
0.00840004
9.95341e-08
0.00840037
2.38598e-07
0.00840038
5.82148e-07
0.00840122
1.42388e-06
0.0084034
3.41352e-06
0.0084053
8.53545e-06
0.00842164
2.05238e-05
0.00844279
5.26511e-05
0.00853505
0.000135948
0.00881893
0.000396435
0.00983993
0.00132662
0.0126866
0.00430883
0.0134524
0.00918671
0.0134245
0.00984415
0.00936375
0.0133875
0.00840003
1.71175e-12
0.00840003
1.14903e-11
0.00840003
3.85158e-11
0.00840003
1.12626e-10
0.00840003
2.85008e-10
0.00840003
7.35428e-10
0.00840003
1.76048e-09
0.00840003
4.42044e-09
0.00840004
1.04684e-08
0.00840004
2.60203e-08
0.00840013
6.18667e-08
0.00840004
1.52178e-07
0.00840077
3.64855e-07
0.00839988
8.88163e-07
0.00840479
2.15541e-06
0.00839949
5.21499e-06
0.00842628
1.28161e-05
0.00841101
3.1502e-05
0.00851752
8.03895e-05
0.00863719
0.000218659
0.00931556
0.000676747
0.0113014
0.00229455
0.013474
0.00697862
0.01379
0.00945097
0.00917185
0.0138845
0.00840003
1.07953e-12
0.00840003
6.9256e-12
0.00840003
2.41e-11
0.00840003
6.81704e-11
0.00840003
1.77296e-10
0.00840003
4.49853e-10
0.00840003
1.07829e-09
0.00840004
2.72533e-09
0.00840003
6.28698e-09
0.00840005
1.61805e-08
0.00840007
3.64799e-08
0.0084001
9.48317e-08
0.00840036
2.12264e-07
0.00840021
5.53032e-07
0.00840243
1.24121e-06
0.00840051
3.21199e-06
0.00841572
7.35218e-06
0.00840556
1.88952e-05
0.00847758
4.55341e-05
0.00851993
0.000121862
0.00889103
0.000348485
0.0099526
0.00118054
0.0130321
0.00384496
0.0138463
0.00849218
0.00853688
0.0143561
0.00840003
6.81237e-13
0.00840003
3.9755e-12
0.00840003
1.45073e-11
0.00840003
3.89756e-11
0.00840003
1.06693e-10
0.00840003
2.50403e-10
0.00840003
6.59024e-10
0.00840003
1.46911e-09
0.00840003
3.90125e-09
0.00840005
8.49126e-09
0.00840003
2.25883e-08
0.00840017
4.92065e-08
0.00839997
1.296e-07
0.00840095
2.86664e-07
0.00839969
7.37426e-07
0.00840532
1.67756e-06
0.00839901
4.21285e-06
0.00842666
9.91271e-06
0.00841128
2.47298e-05
0.00851625
6.19965e-05
0.00863272
0.000171362
0.0092886
0.000537686
0.011134
0.0019265
0.0133275
0.00612546
0.00723528
0.0145205
0.00840003
3.30843e-13
0.00840003
2.40264e-12
0.00840003
7.60714e-12
0.00840003
2.34613e-11
0.00840003
5.57366e-11
0.00840003
1.52462e-10
0.00840003
3.34986e-10
0.00840003
9.09204e-10
0.00840003
1.93321e-09
0.00840003
5.25469e-09
0.00840006
1.11893e-08
0.00840001
2.98498e-08
0.00840025
6.51653e-08
0.00839986
1.67918e-07
0.00840149
3.82701e-07
0.00839892
9.38165e-07
0.0084084
2.25278e-06
0.00839558
5.30586e-06
0.00843659
1.33325e-05
0.00841251
3.24267e-05
0.00854118
8.78413e-05
0.00873956
0.00026368
0.0096719
0.000951611
0.0119624
0.00354515
0.00542229
0.0137283
0.00840003
1.98336e-13
0.00840003
1.2155e-12
0.00840003
4.31055e-12
0.00840003
1.19517e-11
0.00840003
3.13829e-11
0.00840003
7.67262e-11
0.00840003
1.88075e-10
0.00840003
4.46945e-10
0.00840003
1.08045e-09
0.00840004
2.54987e-09
0.00840002
6.11533e-09
0.0084001
1.43958e-08
0.00839997
3.44738e-08
0.00840039
8.11626e-08
0.00839982
1.93313e-07
0.00840138
4.56477e-07
0.00840008
1.08259e-06
0.00840501
2.58652e-06
0.00840392
6.19632e-06
0.00842615
1.53826e-05
0.00844199
4.00849e-05
0.00857595
0.000117094
0.00901236
0.000400971
0.010486
0.0017155
0.0036247
0.0122714
0.00840003
1.10523e-13
0.00840003
6.17276e-13
0.00840003
2.35512e-12
0.00840003
6.05335e-12
0.00840003
1.71972e-11
0.00840003
3.84485e-11
0.00840003
1.06218e-10
0.00840003
2.19212e-10
0.00840003
6.21581e-10
0.00840004
1.2246e-09
0.00840001
3.56887e-09
0.00840009
6.81157e-09
0.00839995
1.99463e-08
0.00840029
3.85045e-08
0.0083997
1.0995e-07
0.00840088
2.20985e-07
0.00839917
5.93273e-07
0.00840249
1.29398e-06
0.00839792
3.26668e-06
0.00841151
7.75544e-06
0.00840209
2.04422e-05
0.00845437
5.77693e-05
0.0085696
0.000190659
0.00911611
0.000833257
0.00250711
0.0101703
0.00840003
8.41292e-14
0.00840003
2.90919e-13
0.00840003
1.6606e-12
0.00840003
2.81214e-12
0.00840003
1.18668e-11
0.00840003
1.846e-11
0.00840003
6.92298e-11
0.00840003
1.14981e-10
0.00840003
3.77401e-10
0.00840003
7.1261e-10
0.00840002
1.95653e-09
0.00840004
4.58271e-09
0.00840003
1.00253e-08
0.00839995
2.86677e-08
0.00840026
4.98574e-08
0.008399
1.8249e-07
0.00840225
2.53838e-07
0.00839397
1.10632e-06
0.00840872
1.52821e-06
0.00838463
5.99763e-06
0.00840576
1.22283e-05
0.00838317
4.00591e-05
0.00839725
0.000130251
0.00843077
0.000584329
0.0019899
0.00878757
0.00840003
3.62215e-14
0.00840003
2.59632e-13
0.00840003
8.73269e-13
0.00840003
2.47603e-12
0.00840003
6.10504e-12
0.00840003
1.69992e-11
0.00840003
3.36321e-11
0.00840003
1.06606e-10
0.00840003
1.74935e-10
0.00840002
6.48116e-10
0.00840005
9.59405e-10
0.00839998
3.82433e-09
0.00840014
5.37673e-09
0.00839978
2.28676e-08
0.00840058
3.22633e-08
0.00839869
1.32541e-07
0.00840265
2.01122e-07
0.00839314
7.49218e-07
0.00840955
1.3396e-06
0.00837748
4.25824e-06
0.00840895
1.01605e-05
0.00836061
3.21203e-05
0.00835206
0.000109239
0.00824401
0.000505419
0.00175611
0.00830822
0.00840003
2.53759e-14
0.00840003
1.97399e-13
0.00840003
5.92383e-13
0.00840003
1.90245e-12
0.00840003
4.43144e-12
0.00840003
1.21932e-11
0.00840003
2.72543e-11
0.00840003
7.25135e-11
0.00840003
1.59846e-10
0.00840002
4.18833e-10
0.00840004
9.40345e-10
0.00840001
2.45964e-09
0.00840005
5.41022e-09
0.00839998
1.42924e-08
0.0083999
3.2891e-08
0.00840012
8.29946e-08
0.00839846
2.02393e-07
0.00840114
5.05682e-07
0.00839325
1.26666e-06
0.00839917
3.30149e-06
0.00838491
8.93424e-06
0.00837494
2.74002e-05
0.00834454
9.59229e-05
0.00824302
0.00044719
0.00160225
0.0082343
0.00840003
1.02178e-15
0.00840003
2.44177e-13
0.00840003
1.24695e-13
0.00840003
2.40159e-12
0.00840003
1.13592e-12
0.00840003
1.41725e-11
0.00840003
9.35856e-12
0.00840003
7.60605e-11
0.00840003
8.10781e-11
0.00840003
3.85861e-10
0.00840004
6.21874e-10
0.00840001
1.85171e-09
0.00840003
5.00591e-09
0.00840001
8.35692e-09
0.00839981
3.69162e-08
0.00840033
3.89218e-08
0.00839788
2.59763e-07
0.00840279
2.28586e-07
0.00838992
1.64754e-06
0.00840511
1.78025e-06
0.00837935
8.98985e-06
0.00838186
2.22479e-05
0.00834997
8.45887e-05
0.00826818
0.000391544
0.00145378
0.00826591
0.00840003
2.04402e-14
0.00840003
1.04116e-13
0.00840003
4.01035e-13
0.00840003
1.03441e-12
0.00840003
2.93203e-12
0.00840003
6.31772e-12
0.00840003
1.81806e-11
0.00840003
3.57219e-11
0.00840003
1.08185e-10
0.00840004
2.07984e-10
0.00840001
6.52012e-10
0.00840007
1.14389e-09
0.00839994
3.90584e-09
0.00840023
6.83929e-09
0.00839955
2.48927e-08
0.00840089
3.64662e-08
0.0083978
1.6311e-07
0.00840278
2.63159e-07
0.00839137
9.63568e-07
0.00840688
2.1826e-06
0.00837416
6.58024e-06
0.00839164
2.00348e-05
0.00835706
7.21843e-05
0.0082924
0.000336738
0.00129215
0.00830727
0.00840003
1.262e-14
0.00840003
7.4425e-14
0.00840003
2.77335e-13
0.00840003
6.85731e-13
0.00840003
2.03521e-12
0.00840003
4.30726e-12
0.00840003
1.27739e-11
0.00840003
2.43084e-11
0.00840003
7.79962e-11
0.00840004
1.33275e-10
0.00840001
4.87778e-10
0.00840006
7.9423e-10
0.00839995
3.10551e-09
0.00840016
4.60764e-09
0.00839974
1.96148e-08
0.00840016
3.6456e-08
0.00839927
1.13482e-07
0.00839953
2.72295e-07
0.00839659
7.3277e-07
0.00840037
1.8943e-06
0.00838321
5.51834e-06
0.00839019
1.70182e-05
0.00836374
6.11499e-05
0.00831696
0.000282761
0.0011124
0.00835237
0.00840003
1.23637e-14
0.00840003
2.97121e-14
0.00840003
2.38163e-13
0.00840003
2.71793e-13
0.00840003
1.73942e-12
0.00840003
2.79083e-12
0.00840003
8.9345e-12
0.00840003
2.50775e-11
0.00840003
3.26037e-11
0.00840004
2.07962e-10
0.00840002
1.04696e-10
0.00840005
1.56293e-09
0.00839998
1.55966e-10
0.00840006
1.13754e-08
0.00839994
-1.16482e-09
0.00839973
7.392e-08
0.00840019
-4.81672e-09
0.00839776
4.35231e-07
0.00840049
2.4316e-07
0.00839531
2.24865e-06
0.00839137
3.86024e-06
0.00838846
1.52696e-05
0.00836913
5.10602e-05
0.00833649
0.000232637
0.000928648
0.00838654
0.00840003
2.31104e-14
0.00840003
-3.09368e-14
0.00840003
3.54606e-13
0.00840003
-2.79e-13
0.00840003
2.25601e-12
0.00840003
-1.83851e-12
0.00840003
1.43208e-11
0.00840003
-1.2993e-11
0.00840003
9.01444e-11
0.00840003
-6.56407e-11
0.00840002
5.153e-10
0.00840007
-2.4787e-10
0.00839992
2.86309e-09
0.00840029
1.51942e-09
0.00839939
1.33646e-08
0.0084015
2.82909e-08
0.00839664
6.88479e-08
0.00840707
2.79732e-07
0.00838546
4.28613e-07
0.00841896
1.91077e-06
0.00837002
3.31469e-06
0.00840783
1.33044e-05
0.00836584
4.27976e-05
0.0083521
0.00018671
0.00074874
0.00841158
0.00840003
-1.25599e-14
0.00840003
6.24257e-14
0.00840003
-1.57813e-13
0.00840003
6.45184e-13
0.00840003
-1.07177e-12
0.00840003
3.79426e-12
0.00840003
-6.10402e-12
0.00840003
2.19129e-11
0.00840003
-2.67918e-11
0.00840002
1.20853e-10
0.00840004
-8.32736e-11
0.0084
6.34186e-10
0.00840006
8.24812e-10
0.00839996
2.59395e-09
0.00839997
1.45483e-08
0.00840016
3.91642e-09
0.00839874
1.32845e-07
0.00840162
1.7603e-08
0.00839501
8.89031e-07
0.00840191
6.57194e-07
0.0083942
4.73452e-06
0.00839208
8.90076e-06
0.00837438
3.66341e-05
0.00835957
0.000144035
0.000576645
0.00842979
0.00840003
1.19906e-14
0.00840003
-2.7278e-14
0.00840003
1.18457e-13
0.00840003
-3.28096e-13
0.00840003
1.03097e-12
0.00840003
-2.58796e-12
0.00840003
8.30311e-12
0.00840003
-1.65569e-11
0.00840003
6.04368e-11
0.00840004
-1.08984e-10
0.00840002
3.97294e-10
0.00840006
-5.20636e-10
0.00839997
2.39875e-09
0.00840011
-1.7407e-09
0.00839987
1.19007e-08
0.00839993
1.02504e-08
0.00839999
5.75413e-08
0.0083987
1.41189e-07
0.00839975
3.65305e-07
0.00839901
1.10585e-06
0.0083929
2.54983e-06
0.00839722
8.70946e-06
0.00838489
2.74507e-05
0.00836006
0.000107261
0.000418018
0.00843666
0.00840003
5.6736e-15
0.00840003
-4.93972e-14
0.00840003
1.72054e-13
0.00840003
-4.26418e-13
0.00840003
9.17801e-13
0.00840003
-6.37565e-13
0.00840003
1.337e-12
0.00840003
8.28111e-12
0.00840003
-2.00856e-11
0.00840003
1.40655e-10
0.00840004
-2.83782e-10
0.0084
1.27822e-09
0.00840012
-2.2044e-09
0.00839979
9.34121e-09
0.00840065
-1.35332e-08
0.00839855
6.01777e-08
0.00840373
-7.36724e-08
0.00839207
3.67996e-07
0.00841604
-3.04736e-07
0.00837434
1.64581e-06
0.00842598
6.35562e-07
0.00837434
6.67007e-06
0.00839749
1.87564e-05
0.00836198
7.12327e-05
0.000274168
0.00844266
0.00840003
4.73948e-15
0.00840003
1.71331e-14
0.00840003
2.10946e-14
0.00840003
1.99581e-13
0.00840003
3.42108e-13
0.00840003
4.31713e-13
0.00840003
4.95012e-12
0.00840003
-4.73782e-12
0.00840003
4.7787e-11
0.00840003
-6.58613e-11
0.00840003
4.15459e-10
0.00840003
-5.51695e-10
0.00839999
2.72417e-09
0.00840012
-3.70214e-09
0.00839965
1.70268e-08
0.00840096
-2.15475e-08
0.00839741
9.11725e-08
0.00840605
-1.1308e-07
0.00838746
4.80752e-07
0.00841706
-2.84516e-07
0.00838011
1.73673e-06
0.00840848
1.87155e-06
0.00839076
9.12672e-06
0.00836801
3.61662e-05
0.000136237
0.00845371
0.00840003
0.00840003
0.00840003
0.00840003
0.00840003
0.00840003
0.00840003
0.00840003
0.00840003
0.00840002
0.00840004
0.00839999
0.00840013
0.0083998
0.0084006
0.00839876
0.0084032
0.00839329
0.00841269
0.00837967
0.00842201
0.00837592
0.00840265
0.00836677
0.00846184
0.00394755
0.00434522
0.00153424
0.00240917
-0.000738192
0.00226953
-0.00170818
0.000970024
-0.002383
0.000673488
-0.00271757
0.000332938
-0.00283185
0.000112833
-0.00298928
0.00015659
-0.00317296
0.000183165
-0.00332814
0.000154829
-0.00343968
0.000111297
-0.00351735
7.75355e-05
-0.00356806
5.04141e-05
-0.00362581
5.61195e-05
-0.00368449
5.68521e-05
-0.00372048
3.41244e-05
-0.00372239
-2.29866e-06
-0.00369581
-3.24367e-05
-0.00363868
-6.38736e-05
-0.00354869
-9.70848e-05
-0.00342824
-0.000127016
-0.00328516
-0.000148908
-0.00312461
-0.000164874
-0.00295219
-0.000174859
-0.00277334
-0.000180086
-0.0025902
-0.000183245
-0.00240291
-0.000186063
-0.00221227
-0.000189007
-0.00201625
-0.000193538
-0.00181516
-0.0001977
-0.00160881
-0.000203247
-0.00139468
-0.000210888
-0.001176
-0.000214993
-0.000956977
-0.000215171
-0.000738459
-0.000214554
-0.000518974
-0.000215404
-0.00029728
-0.000217243
-7.16099e-05
-0.000220694
0.000157974
-0.000224672
0.000380696
-0.000217671
0.000594567
-0.000208456
0.000801403
-0.000201215
0.00100287
-0.000195575
0.00119742
-0.000188682
0.00138453
-0.000181494
0.00156663
-0.000176722
0.00174753
-0.000175693
0.00192397
-0.000171755
0.00209408
-0.000165887
0.00225746
-0.000159706
0.00241491
-0.000154231
0.00256597
-0.000148855
0.00271141
-0.00014364
0.00285115
-0.000138657
0.00298492
-0.000133608
0.00311309
-0.000128712
0.00323549
-0.000123869
0.00335246
-0.000119072
0.00346427
-0.000114379
0.00357056
-0.000109716
0.00367195
-0.0001051
0.00376843
-0.000100577
0.00386026
-9.60775e-05
0.00394713
-9.16673e-05
0.00402979
-8.72517e-05
0.00410793
-8.29813e-05
0.00418179
-7.86446e-05