/*--------------------------------*- C++ -*----------------------------------*\
  =========                 |
  \\      /  F ield         | OpenFOAM: The Open Source CFD Toolbox
   \\    /   O peration     | Website:  https://openfoam.org
    \\  /    A nd           | Version:  9
     \\/     M anipulation  |
\*---------------------------------------------------------------------------*/
FoamFile
{
    format      ascii;
    class       volScalarField;
    location    "8.5";
    object      rho;
}
// * * * * * * * * * * * * * * * * * * * * * * * * * * * * * * * * * * * * * //

dimensions      [1 -3 0 0 0 0 0];

internalField   nonuniform List<scalar> 
5250
(
1.40001
1.40003
1.40008
1.4002
1.40048
1.40125
1.4029
1.4076
1.41745
1.44444
1.50159
1.63356
1.90416
2.59004
5.24811
5.744
5.68624
5.66474
5.68632
5.76624
5.85061
5.90309
5.94438
5.97554
6.00237
1.40001
1.40003
1.40008
1.40018
1.40052
1.40113
1.40311
1.40695
1.41842
1.44192
1.50335
1.62836
1.90183
2.57374
5.20888
5.74286
5.68512
5.66191
5.68368
5.76384
5.84824
5.90104
5.94321
5.97525
6.00314
1.40001
1.40003
1.40008
1.40018
1.40051
1.4011
1.40303
1.4068
1.41798
1.44099
1.50107
1.62368
1.89217
2.54212
5.12086
5.74063
5.6816
5.6525
5.67368
5.75222
5.83608
5.88772
5.92996
5.9614
5.98929
1.40001
1.40002
1.40008
1.40017
1.40049
1.40104
1.40298
1.40641
1.41762
1.43907
1.49824
1.61589
1.87785
2.49481
4.98183
5.74026
5.67728
5.63649
5.65564
5.7321
5.81248
5.86515
5.90483
5.93714
5.96549
1.40001
1.40002
1.40007
1.40017
1.40045
1.40103
1.40272
1.40638
1.41614
1.43827
1.49209
1.60778
1.85644
2.43422
4.78788
5.74468
5.67347
5.61472
5.63174
5.70303
5.78197
5.82926
5.86909
5.89847
5.92932
1.40001
1.40002
1.40007
1.40015
1.40044
1.40092
1.40264
1.40567
1.4157
1.43458
1.48811
1.59346
1.83243
2.3596
4.53342
5.75597
5.67181
5.58763
5.60135
5.66607
5.74149
5.78548
5.82033
5.8497
5.88018
1.40001
1.40002
1.40006
1.40016
1.40034
1.401
1.40208
1.40599
1.41273
1.43478
1.47653
1.58398
1.79672
2.27761
4.21257
5.77925
5.67498
5.55582
5.56479
5.61997
5.68895
5.72622
5.75522
5.77704
5.80924
1.40001
1.40002
1.40006
1.40013
1.40035
1.4008
1.40207
1.40494
1.41227
1.42968
1.47122
1.56371
1.76313
2.18536
3.82828
5.81321
5.68551
5.52325
5.52547
5.56776
5.62619
5.65289
5.6702
5.68057
5.7068
1.40001
1.40002
1.40005
1.40011
1.40031
1.40068
1.40192
1.40405
1.41149
1.42458
1.4651
1.54228
1.72614
2.09239
3.39375
5.83334
5.69722
5.4934
5.48456
5.50869
5.55157
5.56037
5.55763
5.54236
5.5465
1.40001
1.40002
1.40004
1.4001
1.40026
1.40064
1.40152
1.40392
1.40902
1.42328
1.45361
1.5281
1.6844
2.01123
2.98474
5.77397
5.68056
5.46952
5.43956
5.44382
5.4633
5.45158
5.41914
5.34952
5.29312
1.40001
1.40002
1.40004
1.4001
1.40021
1.40059
1.40128
1.40348
1.40785
1.42049
1.44687
1.51402
1.6519
1.94705
2.73701
5.508
5.55325
5.4523
5.37936
5.36944
5.35873
5.32495
5.23429
5.0223
4.42577
1.40001
1.40001
1.40003
1.40008
1.4002
1.40049
1.40115
1.40301
1.4068
1.41799
1.44078
1.50024
1.62314
1.88839
2.53119
5.04122
5.45312
5.40334
5.3121
5.28819
5.25482
5.18629
5.04063
4.747
4.11469
1.40001
1.40001
1.40003
1.40006
1.40018
1.40038
1.4011
1.40228
1.40653
1.4139
1.43786
1.48294
1.59865
1.82584
2.3555
4.50022
5.39683
5.3608
5.25501
5.20051
5.151
5.05511
4.86725
4.56162
4.08082
1.40001
1.40001
1.40002
1.40006
1.40013
1.40038
1.40078
1.40223
1.40475
1.4132
1.42887
1.47446
1.56378
1.76959
2.19345
3.89237
5.38118
5.33884
5.21328
5.12187
5.04831
4.93466
4.74492
4.46387
4.08759
1.40001
1.40001
1.40002
1.40005
1.40012
1.40028
1.40069
1.40171
1.40403
1.41039
1.42397
1.45976
1.53597
1.70564
2.04879
3.21755
5.34479
5.31775
5.19896
5.05812
4.9602
4.83616
4.65243
4.40336
4.09103
1.40001
1.40001
1.40002
1.40004
1.40009
1.40024
1.40052
1.40141
1.40316
1.40831
1.41906
1.44813
1.50898
1.65043
1.93169
2.68726
5.1373
5.26343
5.18272
5.01015
4.88913
4.761
4.58341
4.35696
4.08538
1.40001
1.40001
1.40002
1.40003
1.40008
1.40017
1.40048
1.40099
1.40286
1.40596
1.41679
1.4362
1.49248
1.60175
1.84766
2.40088
4.57907
5.16049
5.1147
4.97542
4.83
4.69829
4.53
4.32112
4.07845
1.40001
1.40001
1.40001
1.40003
1.40006
1.40016
1.40032
1.4009
1.40196
1.40531
1.41194
1.43102
1.47021
1.56703
1.7618
2.18251
3.8403
5.08604
5.06093
4.95894
4.78613
4.64379
4.48489
4.29282
4.07272
1.40001
1.40001
1.40001
1.40002
1.40005
1.40011
1.40027
1.40064
1.40163
1.40376
1.40979
1.42225
1.45618
1.52655
1.68673
1.99968
3.0228
4.98895
5.03289
4.95904
4.77976
4.60839
4.44896
4.27128
4.07091
1.40001
1.40001
1.40001
1.40002
1.40004
1.40009
1.40019
1.40053
1.4011
1.40315
1.40655
1.41841
1.43958
1.50033
1.61828
1.87373
2.48825
4.648
4.98981
4.9314
4.77897
4.5884
4.42429
4.25558
4.07093
1.40001
1.40001
1.40001
1.40001
1.40003
1.40006
1.40016
1.40035
1.40093
1.40213
1.40541
1.41286
1.43153
1.47418
1.57118
1.77337
2.2032
3.89333
4.89715
4.87288
4.78
4.58098
4.41031
4.2491
4.07558
1.40001
1.40001
1.40001
1.40001
1.40002
1.40005
1.40012
1.40025
1.40071
1.40147
1.40415
1.40885
1.42411
1.45279
1.52998
1.6809
1.99156
3.01467
4.75825
4.84133
4.7761
4.6099
4.41536
4.2494
4.08786
1.40001
1.40001
1.40001
1.40001
1.40002
1.40004
1.40008
1.40021
1.40044
1.40123
1.40256
1.40726
1.41532
1.44127
1.48976
1.61206
1.84161
2.40546
4.3569
4.80284
4.7584
4.6347
4.44141
4.26387
4.10344
1.40001
1.40001
1.40001
1.40001
1.40001
1.40003
1.40006
1.40015
1.40032
1.40084
1.40192
1.40489
1.41157
1.42835
1.46684
1.55451
1.73753
2.11009
3.55126
4.71946
4.70734
4.64247
4.47873
4.29286
4.12948
1.40001
1.40001
1.40001
1.40001
1.40001
1.40002
1.40004
1.40009
1.40025
1.40053
1.40145
1.40307
1.40855
1.41818
1.44817
1.50467
1.64331
1.88803
2.57511
4.50174
4.7125
4.65825
4.52716
4.3286
4.16132
1.40001
1.40001
1.40001
1.40001
1.40001
1.40002
1.40003
1.40007
1.40017
1.40038
1.40099
1.40216
1.40594
1.41258
1.43417
1.47381
1.57773
1.77371
2.21096
3.87056
4.64968
4.63252
4.5579
4.3825
4.20481
1.40001
1.40001
1.40001
1.40001
1.40001
1.40001
1.40002
1.40005
1.40012
1.40026
1.40066
1.40154
1.40382
1.40922
1.4221
1.45305
1.52245
1.67202
1.95637
2.91279
4.46286
4.6184
4.57326
4.45327
4.27395
1.40001
1.40001
1.40001
1.40001
1.40001
1.40001
1.40002
1.40003
1.40008
1.40017
1.40046
1.40098
1.40272
1.40572
1.4158
1.43392
1.48614
1.58698
1.79988
2.27868
3.97202
4.57136
4.55692
4.50485
4.37391
1.40001
1.40001
1.40001
1.40001
1.40001
1.40001
1.40001
1.40003
1.40005
1.40013
1.40027
1.40073
1.40161
1.40422
1.40965
1.42425
1.45602
1.53165
1.68653
1.988
3.05478
4.40359
4.56788
4.54388
4.48084
1.40001
1.40001
1.40001
1.40001
1.40001
1.40001
1.40001
1.40002
1.40003
1.40009
1.40018
1.40049
1.40104
1.40278
1.4062
1.41598
1.43623
1.48832
1.59418
1.8053
2.30701
3.97844
4.54826
4.6129
4.60813
1.40001
1.40001
1.40001
1.40001
1.40001
1.40001
1.40001
1.40001
1.40003
1.40006
1.40012
1.40031
1.40068
1.40185
1.4039
1.41084
1.42289
1.46035
1.52945
1.69452
1.99162
3.06725
4.39792
4.72273
4.80738
1.40001
1.40001
1.40001
1.40001
1.40001
1.40001
1.40001
1.40001
1.40002
1.40004
1.40008
1.40021
1.40044
1.40118
1.40259
1.4068
1.41529
1.43872
1.48656
1.60062
1.8098
2.32459
3.99468
4.81846
5.12998
1.40001
1.40001
1.40001
1.40001
1.40001
1.40001
1.40001
1.40001
1.40001
1.40003
1.40005
1.40014
1.40029
1.4008
1.40167
1.40465
1.40986
1.4266
1.45775
1.54095
1.69935
2.02604
3.10151
4.74646
5.58309
1.40001
1.40001
1.40001
1.40001
1.40001
1.40001
1.40001
1.40001
1.40001
1.40002
1.40004
1.40009
1.40023
1.4005
1.40129
1.40299
1.40742
1.41776
1.44271
1.49964
1.62566
1.87889
2.51226
4.48519
6.0922
1.40001
1.40001
1.40001
1.40001
1.40001
1.40001
1.40001
1.40001
1.40001
1.40002
1.40003
1.40008
1.40015
1.40042
1.40092
1.4024
1.40556
1.41409
1.43304
1.48041
1.58188
1.80503
2.31248
4.01812
6.42406
1.40001
1.40001
1.40001
1.40001
1.40001
1.40001
1.40001
1.40001
1.40001
1.40001
1.40003
1.40006
1.40013
1.40033
1.40076
1.40204
1.40449
1.41229
1.42704
1.4699
1.55598
1.75559
2.19004
3.58096
6.56419
1.40001
1.40001
1.40001
1.40001
1.40001
1.40001
1.40001
1.40001
1.40001
1.40001
1.40002
1.40005
1.40012
1.4003
1.40069
1.40185
1.40406
1.41123
1.42472
1.46438
1.54411
1.73005
2.11765
3.39086
6.5133
1.40001
1.40001
1.40001
1.40001
1.40001
1.40001
1.40001
1.40001
1.40001
1.40001
1.40002
1.40005
1.40011
1.4003
1.40062
1.40179
1.40376
1.41079
1.42327
1.46187
1.53721
1.71725
2.07994
3.28271
6.41195
1.40001
1.40001
1.40001
1.40001
1.40001
1.40001
1.40001
1.40001
1.40001
1.40001
1.40002
1.40005
1.40011
1.40027
1.40066
1.40155
1.40409
1.40935
1.4246
1.45666
1.53677
1.70502
2.05826
3.20751
6.31412
1.40001
1.40001
1.40001
1.40001
1.40001
1.40001
1.40001
1.40001
1.40001
1.40001
1.40002
1.40004
1.40011
1.40024
1.40068
1.40141
1.40417
1.40869
1.42469
1.45386
1.53502
1.69578
2.04017
3.14071
6.22858
1.40001
1.40001
1.40001
1.40001
1.40001
1.40001
1.40001
1.40001
1.40001
1.40001
1.40002
1.40004
1.40011
1.40023
1.40067
1.40138
1.40406
1.40847
1.42411
1.45245
1.53204
1.6888
2.02355
3.07815
6.14611
1.40001
1.40001
1.40001
1.40001
1.40001
1.40001
1.40001
1.40001
1.40001
1.40001
1.40002
1.40004
1.4001
1.40025
1.40059
1.40154
1.40351
1.40943
1.42131
1.45506
1.52466
1.68661
2.00566
3.02077
6.06736
1.40001
1.40001
1.40001
1.40001
1.40001
1.40001
1.40001
1.40001
1.40001
1.40001
1.40002
1.40004
1.4001
1.40025
1.40056
1.40156
1.40334
1.40947
1.42052
1.45448
1.52154
1.68159
1.99104
2.96823
5.99022
1.40001
1.40001
1.40001
1.40001
1.40001
1.40001
1.40001
1.40001
1.40001
1.40001
1.40002
1.40004
1.4001
1.40025
1.40054
1.40155
1.40327
1.40933
1.42012
1.45371
1.51901
1.67702
1.97878
2.92196
5.91788
1.40001
1.40001
1.40001
1.40001
1.40001
1.40001
1.40001
1.40001
1.40001
1.40001
1.40002
1.40004
1.4001
1.40023
1.4006
1.40139
1.40353
1.40857
1.42101
1.45092
1.51979
1.67007
1.97164
2.88155
5.85348
1.40001
1.40001
1.40001
1.40001
1.40001
1.40001
1.40001
1.40001
1.40001
1.40001
1.40002
1.40004
1.4001
1.40022
1.40062
1.40128
1.40376
1.40776
1.42225
1.44772
1.52106
1.66375
1.96986
2.84593
5.79925
1.40001
1.40001
1.40001
1.40001
1.40001
1.40001
1.40001
1.40001
1.40001
1.40001
1.40002
1.40004
1.40009
1.40025
1.40053
1.4015
1.40314
1.40904
1.41925
1.45167
1.51412
1.66535
1.96756
2.81741
5.7565
1.40001
1.40001
1.40001
1.40001
1.40001
1.40001
1.40001
1.40001
1.40001
1.40001
1.40002
1.40004
1.40009
1.40024
1.40054
1.40141
1.40334
1.40839
1.42019
1.44952
1.5148
1.66143
1.97107
2.79475
5.72657
1.40001
1.40001
1.40001
1.40001
1.40001
1.40001
1.40001
1.40001
1.40001
1.40001
1.40002
1.40004
1.4001
1.40021
1.40061
1.40127
1.40361
1.4077
1.42139
1.44684
1.51741
1.65642
1.97416
2.78032
5.70847
1.40001
1.40001
1.40001
1.40001
1.40001
1.40001
1.40001
1.40001
1.40001
1.40001
1.40002
1.40004
1.40009
1.40024
1.40055
1.40136
1.40341
1.40809
1.42051
1.44813
1.51509
1.65782
1.97149
2.77343
5.70082
2.25211
1.83164
2.15118
2.00297
1.88323
1.86382
1.84852
1.81401
1.775
1.74154
1.7141
1.68469
1.65146
1.62973
1.6223
1.6203
1.62195
1.63832
1.66684
1.70494
1.74905
1.79575
1.84315
1.88851
1.93204
1.97322
2.01216
2.04842
2.08416
2.11664
2.1483
2.17971
2.20898
2.23618
2.26084
2.28381
2.30504
2.32269
2.33947
2.35467
2.3691
2.37905
2.3891
2.39574
2.40152
2.40496
2.40773
2.4076
2.40657
2.40385
2.40027
2.39527
2.38856
2.38175
2.37284
2.3636
2.35284
2.34143
2.32911
2.31632
2.30217
2.28827
2.27296
2.25806
2.24136
2.22584
2.20805
2.1917
2.17339
2.15603
2.1375
2.11943
2.10058
2.08227
2.0631
2.04474
2.02546
2.00708
1.98788
1.96958
1.95047
1.93244
1.91333
1.89576
1.87661
1.85956
1.84051
1.82383
1.80524
1.78869
1.77086
1.75448
1.73751
1.72163
1.70576
1.69106
1.67683
1.66446
1.6534
1.647
2.77526
2.39039
2.34738
2.10443
1.89426
1.84621
1.80196
1.73663
1.67875
1.63704
1.60736
1.57872
1.55001
1.52544
1.5135
1.50869
1.50827
1.5247
1.55355
1.5949
1.64302
1.69427
1.74742
1.79979
1.85002
1.89805
1.94443
1.98906
2.03032
2.07011
2.10694
2.1452
2.18076
2.21455
2.24574
2.27469
2.30102
2.32509
2.34757
2.36879
2.38782
2.40478
2.41886
2.43136
2.441
2.45087
2.45713
2.46218
2.46401
2.46621
2.46556
2.46412
2.46065
2.45637
2.4499
2.44331
2.4344
2.42545
2.41427
2.40341
2.39002
2.37764
2.36248
2.34861
2.33235
2.31695
2.30001
2.28326
2.26564
2.24792
2.22955
2.21115
2.19215
2.17324
2.1539
2.13458
2.11514
2.09561
2.07615
2.05664
2.03714
2.01786
1.99826
1.97934
1.95972
1.9411
1.92173
1.90328
1.88441
1.86603
1.84796
1.82984
1.81266
1.7951
1.77887
1.76242
1.74775
1.73353
1.72188
1.71358
3.27399
2.80685
2.56827
2.3726
2.14587
2.00871
1.86868
1.76317
1.67919
1.62892
1.59432
1.54948
1.51041
1.47908
1.46146
1.45263
1.45264
1.47002
1.5003
1.54386
1.59723
1.65523
1.71496
1.77424
1.8315
1.88675
1.93945
1.99162
2.04037
2.08964
2.13557
2.18202
2.22353
2.26563
2.30212
2.33882
2.3705
2.40203
2.42899
2.45594
2.47814
2.49917
2.51598
2.5311
2.54276
2.55318
2.56267
2.56815
2.57116
2.57277
2.57332
2.57196
2.56912
2.5644
2.55844
2.55114
2.54234
2.53276
2.52157
2.5097
2.49668
2.48255
2.46816
2.45204
2.43645
2.41875
2.40199
2.38311
2.3653
2.34554
2.32689
2.30651
2.28727
2.26649
2.24687
2.22591
2.20601
2.18507
2.16494
2.14427
2.12391
2.10367
2.08317
2.06343
2.04298
2.02359
2.00354
1.98455
1.96516
1.94645
1.92772
1.90937
1.89137
1.87369
1.85659
1.84008
1.82445
1.8102
1.79745
1.78918
3.52518
3.06333
2.75866
2.54937
2.3631
2.21554
2.09147
1.94888
1.8164
1.70212
1.63819
1.57985
1.52956
1.48962
1.46696
1.4591
1.46316
1.48199
1.51738
1.56771
1.62789
1.69344
1.76172
1.82854
1.89339
1.95549
2.01559
2.07439
2.13141
2.18688
2.24019
2.29145
2.34009
2.38561
2.42796
2.46694
2.50315
2.53601
2.56654
2.59364
2.61827
2.63947
2.65744
2.6729
2.68418
2.69525
2.7037
2.7101
2.71133
2.71191
2.71052
2.70856
2.70357
2.6984
2.69002
2.68195
2.67083
2.66013
2.64684
2.63382
2.6187
2.60369
2.58688
2.57025
2.55183
2.53387
2.51402
2.49499
2.47401
2.45409
2.43221
2.41149
2.38897
2.36768
2.34479
2.32329
2.30018
2.27867
2.25538
2.23398
2.21055
2.18936
2.16595
2.14505
2.12217
2.10152
2.07924
2.05854
2.03704
2.01649
1.99584
1.97562
1.95591
1.93634
1.91775
1.89931
1.8824
1.86614
1.85221
1.84181
3.65495
3.24882
2.93742
2.70914
2.53325
2.38036
2.26187
2.14038
2.02217
1.9074
1.80107
1.7121
1.63892
1.5857
1.54918
1.53359
1.53713
1.55499
1.59313
1.65115
1.71687
1.78675
1.86061
1.93516
2.00716
2.07687
2.14236
2.20639
2.2664
2.32489
2.379
2.43093
2.47845
2.52319
2.56353
2.60101
2.63438
2.66526
2.6923
2.7171
2.73846
2.75716
2.77271
2.78548
2.79477
2.80337
2.80973
2.81471
2.81375
2.81216
2.80786
2.80428
2.79723
2.79068
2.78065
2.77103
2.75844
2.74604
2.73141
2.71669
2.70044
2.68389
2.66634
2.64835
2.62968
2.61049
2.59095
2.57072
2.55047
2.52924
2.50842
2.48642
2.46524
2.44274
2.4212
2.39836
2.37639
2.35347
2.33121
2.30842
2.28606
2.26373
2.24161
2.21953
2.19758
2.17565
2.15411
2.13228
2.11128
2.08968
2.06929
2.04808
2.02838
2.00781
1.98899
1.96951
1.9521
1.9347
1.91997
1.90832
3.7355
3.38308
3.09203
2.86024
2.67907
2.52812
2.40395
2.29332
2.18676
2.0891
1.99794
1.91562
1.84701
1.78972
1.75523
1.73643
1.73998
1.75564
1.7874
1.8382
1.89518
1.95574
2.02776
2.10038
2.17453
2.24248
2.30946
2.36918
2.42737
2.47892
2.52893
2.57343
2.616
2.65379
2.68926
2.72047
2.74916
2.77419
2.7969
2.81643
2.83351
2.84773
2.85917
2.8684
2.87407
2.87965
2.88333
2.88613
2.88407
2.88006
2.87388
2.868
2.86008
2.85173
2.84144
2.83026
2.81774
2.80397
2.78942
2.77336
2.75698
2.73896
2.72092
2.70131
2.68185
2.66098
2.64033
2.61848
2.59688
2.57429
2.55195
2.5289
2.50597
2.48274
2.45938
2.43627
2.41263
2.38989
2.36629
2.34423
2.32066
2.29894
2.27544
2.25397
2.23074
2.20946
2.18672
2.16563
2.14353
2.12268
2.10132
2.08086
2.06032
2.04048
2.02095
2.00212
1.98406
1.96722
1.95173
1.94039
3.78721
3.48451
3.21474
2.99203
2.80881
2.65909
2.5343
2.42704
2.33137
2.24525
2.17212
2.10827
2.05765
2.01428
1.98889
1.97343
1.97435
1.98285
1.99867
2.02379
2.05043
2.08863
2.13993
2.20021
2.2686
2.33783
2.40197
2.46059
2.51311
2.56141
2.60558
2.64681
2.68481
2.72043
2.75319
2.78319
2.8099
2.83389
2.85494
2.87338
2.88907
2.90223
2.91285
2.92156
2.92675
2.93185
2.93539
2.93796
2.93668
2.9325
2.92612
2.9193
2.91103
2.90188
2.89135
2.87963
2.86688
2.85284
2.83817
2.82221
2.80592
2.78836
2.77064
2.75162
2.7326
2.71225
2.69199
2.6705
2.64914
2.62669
2.6044
2.5813
2.55819
2.53477
2.51096
2.48761
2.46373
2.44075
2.41657
2.39383
2.36956
2.34702
2.32287
2.30045
2.27665
2.2543
2.23108
2.20879
2.18628
2.16413
2.14243
2.12059
2.09975
2.0785
2.05868
2.03844
2.02007
2.0018
1.9859
1.97302
3.82191
3.55889
3.31334
3.10006
2.92227
2.77291
2.65008
2.54789
2.46063
2.38956
2.33507
2.29278
2.26299
2.23748
2.2251
2.21477
2.21334
2.21014
2.19902
2.18406
2.18873
2.20518
2.23259
2.27388
2.32808
2.39598
2.46428
2.52663
2.58264
2.6324
2.67678
2.71782
2.75486
2.78984
2.82201
2.85147
2.87766
2.90149
2.922
2.94053
2.9558
2.9693
2.97974
2.98878
2.99364
2.99865
3.00185
3.00436
3.00354
2.99964
2.99352
2.98616
2.97787
2.96815
2.95786
2.94573
2.93322
2.91872
2.90404
2.88738
2.8707
2.85214
2.83365
2.81349
2.79346
2.77192
2.75063
2.72797
2.70558
2.68211
2.65881
2.63484
2.61081
2.58674
2.56262
2.53874
2.51433
2.49061
2.46613
2.44252
2.41818
2.3947
2.37072
2.34735
2.32385
2.30059
2.27768
2.25461
2.23234
2.2096
2.18803
2.16579
2.14504
2.12353
2.10378
2.08336
2.06502
2.04658
2.03058
2.01753
3.84873
3.61631
3.39319
3.19235
3.02015
2.876
2.75611
2.66043
2.58688
2.53565
2.50795
2.48034
2.47169
2.47762
2.46942
2.45981
2.45171
2.4318
2.38121
2.33799
2.31198
2.31348
2.32762
2.34938
2.38891
2.43931
2.50308
2.56971
2.63138
2.68561
2.73312
2.77494
2.81228
2.84622
2.8772
2.9056
2.93116
2.95408
2.97411
2.99174
3.00596
3.01875
3.02792
3.03597
3.03957
3.0438
3.04577
3.04789
3.04621
3.04233
3.03506
3.02692
3.01678
3.00604
2.99403
2.98118
2.96736
2.95241
2.93674
2.91983
2.90244
2.88383
2.86491
2.84483
2.82457
2.80318
2.78169
2.75916
2.73654
2.71309
2.68952
2.66549
2.64149
2.61746
2.59311
2.56914
2.54447
2.52065
2.49584
2.47222
2.44748
2.42411
2.39964
2.3765
2.3525
2.32958
2.30622
2.28355
2.26095
2.23862
2.21686
2.19503
2.1742
2.15313
2.1334
2.11351
2.09528
2.07754
2.06164
2.04944
3.87133
3.6627
3.45937
3.27255
3.10793
2.9707
2.85837
2.77347
2.72368
2.69749
2.68137
2.67777
2.70868
2.72689
2.71376
2.70249
2.67936
2.62627
2.55022
2.48501
2.43986
2.41845
2.42152
2.43303
2.45074
2.48527
2.53043
2.58565
2.64713
2.70499
2.75719
2.80215
2.8419
2.8757
2.90656
2.93294
2.95755
2.97853
2.99756
3.01331
3.02711
3.03838
3.04714
3.05395
3.05782
3.06025
3.06164
3.06211
3.06057
3.05619
3.0497
3.04121
3.03167
3.02066
3.00921
2.99627
2.98305
2.96814
2.95301
2.93616
2.91916
2.90059
2.88191
2.86188
2.84172
2.82042
2.79883
2.77637
2.75347
2.73011
2.70626
2.68268
2.65819
2.63449
2.60945
2.58572
2.56034
2.53667
2.51125
2.48767
2.46247
2.43899
2.41421
2.39083
2.36662
2.34339
2.31985
2.29686
2.2741
2.25149
2.2296
2.20756
2.18668
2.16552
2.14589
2.12612
2.1082
2.09083
2.07538
2.06369
3.89215
3.70326
3.51698
3.34458
3.19054
3.06414
2.96367
2.90153
2.88302
2.86886
2.87345
2.91475
2.96415
2.96742
2.95469
2.93279
2.88273
2.79117
2.70101
2.62619
2.57032
2.53364
2.51588
2.51701
2.52605
2.53942
2.56595
2.60368
2.64827
2.70167
2.75596
2.80755
2.85214
2.89152
2.92384
2.95296
2.97706
2.99925
3.01802
3.03481
3.04897
3.06106
3.07068
3.07867
3.08333
3.08621
3.088
3.08943
3.08896
3.08595
3.08056
3.0731
3.06403
3.05334
3.0418
3.02877
3.01521
3.00006
2.98458
2.96745
2.95017
2.9313
2.91241
2.89206
2.87171
2.85009
2.82836
2.80561
2.7827
2.75933
2.73569
2.71193
2.68768
2.66366
2.63895
2.61476
2.58981
2.56554
2.54059
2.51632
2.4916
2.46744
2.44313
2.41919
2.3954
2.37177
2.34859
2.32536
2.30291
2.28021
2.25863
2.23664
2.21615
2.19518
2.17608
2.15663
2.13947
2.12267
2.10782
2.09701
3.91525
3.74178
3.57068
3.41405
3.27398
3.16388
3.0845
3.06324
3.05249
3.06023
3.10262
3.1746
3.20452
3.19293
3.17328
3.13035
3.03566
2.93226
2.83886
2.76118
2.69972
2.65395
2.62194
2.60558
2.59836
2.60548
2.61365
2.6301
2.661
2.69417
2.73821
2.7895
2.83937
2.88416
2.92234
2.95482
2.9815
3.00445
3.0235
3.03978
3.05393
3.06549
3.07543
3.08323
3.08859
3.09121
3.09244
3.09312
3.09225
3.08928
3.08381
3.0764
3.06746
3.05686
3.0453
3.03223
3.01854
3.00337
2.98778
2.9707
2.95337
2.93461
2.91569
2.89546
2.87503
2.8535
2.83161
2.80909
2.78622
2.76314
2.73943
2.71593
2.69152
2.66775
2.64289
2.61898
2.59389
2.56991
2.54482
2.52084
2.49595
2.4721
2.44761
2.42401
2.4001
2.37688
2.35367
2.33093
2.30857
2.28645
2.26512
2.24384
2.22383
2.20375
2.18547
2.16728
2.15128
2.1359
2.12228
2.11406
3.94308
3.78089
3.62594
3.48476
3.36801
3.27882
3.24678
3.23759
3.24651
3.2878
3.36924
3.42123
3.41174
3.39563
3.35707
3.27292
3.16259
3.0593
2.9694
2.89271
2.82954
2.77638
2.73509
2.70267
2.68161
2.66846
2.66815
2.67294
2.68332
2.70428
2.72866
2.7651
2.81132
2.85849
2.9025
2.94034
2.9725
2.99876
3.0203
3.03863
3.05339
3.06668
3.07696
3.08549
3.09192
3.09569
3.09716
3.09804
3.09811
3.09638
3.09233
3.08609
3.07837
3.06862
3.05785
3.04533
3.0322
3.01744
3.00227
2.98552
2.96853
2.95005
2.93141
2.91141
2.89121
2.86982
2.84829
2.826
2.80338
2.78038
2.7568
2.73323
2.70888
2.68497
2.66014
2.63607
2.61107
2.58694
2.56201
2.53793
2.51326
2.48931
2.46505
2.44135
2.41763
2.39428
2.37128
2.3484
2.32633
2.30413
2.28324
2.26206
2.24269
2.22305
2.20578
2.1885
2.17364
2.15965
2.148
2.1425
3.97246
3.82687
3.68774
3.57162
3.47872
3.43775
3.42869
3.43812
3.47703
3.56122
3.62211
3.61728
3.60385
3.56827
3.48855
3.38002
3.27456
3.17972
3.09673
3.02221
2.95762
2.89858
2.84927
2.80502
2.77146
2.74348
2.72709
2.7159
2.7205
2.72597
2.73794
2.75774
2.78479
2.82505
2.86806
2.90984
2.94803
2.97967
3.00673
3.02746
3.04558
3.05928
3.07146
3.08051
3.08774
3.09285
3.09488
3.09607
3.0964
3.09541
3.0924
3.08699
3.07995
3.07086
3.06056
3.04841
3.03546
3.02083
3.00573
2.98905
2.97212
2.95367
2.93508
2.91501
2.89475
2.87343
2.85195
2.82985
2.80729
2.78456
2.76105
2.7378
2.71355
2.6899
2.66521
2.64127
2.61646
2.59235
2.56766
2.54353
2.51915
2.49517
2.47125
2.4476
2.42426
2.40115
2.37854
2.35613
2.3345
2.31299
2.29272
2.27247
2.25407
2.23574
2.22001
2.20412
2.19132
2.18011
2.17153
2.16969
4.01323
3.8812
3.76701
3.67735
3.63483
3.62557
3.63478
3.67543
3.75698
3.81676
3.81438
3.80113
3.76509
3.68561
3.57967
3.47689
3.38328
3.29808
3.22062
3.1479
3.08131
3.01801
2.96156
2.90894
2.86461
2.82572
2.79614
2.77312
2.7603
2.75458
2.75966
2.76621
2.77879
2.79947
2.83063
2.8696
2.90885
2.94641
2.97863
3.0067
3.02869
3.04696
3.06096
3.07199
3.08036
3.08649
3.08989
3.09115
3.09193
3.09185
3.09038
3.08621
3.08034
3.07228
3.06291
3.05145
3.03911
3.02488
3.01014
2.99369
2.9769
2.95858
2.93994
2.91995
2.8998
2.87873
2.85743
2.83552
2.81314
2.79053
2.76721
2.74402
2.72001
2.69641
2.672
2.64817
2.62363
2.59972
2.57527
2.55138
2.52721
2.50344
2.47975
2.45623
2.43321
2.41018
2.38803
2.36581
2.34482
2.32374
2.30444
2.28497
2.26811
2.25129
2.2371
2.22346
2.2135
2.20616
2.2018
2.20264
4.06697
3.9569
3.87149
3.83446
3.82493
3.83499
3.88448
3.96395
4.02054
4.01277
3.99717
3.95699
3.86942
3.7661
3.66648
3.57517
3.49184
3.41341
3.33898
3.26776
3.19903
3.133
3.07121
3.01273
2.96059
2.91326
2.87316
2.8398
2.81384
2.7962
2.7852
2.78532
2.78942
2.79648
2.80989
2.83509
2.86743
2.90402
2.94051
2.97394
3.00247
3.02646
3.0444
3.05908
3.06928
3.07703
3.08229
3.08429
3.08553
3.08576
3.08517
3.08221
3.07727
3.07006
3.06144
3.05065
3.03883
3.02501
3.01069
2.99451
2.97812
2.95999
2.94165
2.92195
2.90219
2.88142
2.86045
2.83874
2.81666
2.79414
2.77107
2.74797
2.72411
2.70063
2.67633
2.65255
2.62824
2.60419
2.58022
2.55605
2.53258
2.50858
2.48564
2.46218
2.4398
2.41719
2.39562
2.3741
2.3538
2.33386
2.31532
2.29791
2.28213
2.2677
2.25492
2.24566
2.23872
2.23695
2.23603
2.23975
4.142
4.05977
4.0328
4.02412
4.03794
4.10511
4.18403
4.23089
4.22052
4.19949
4.14972
4.04743
3.94416
3.84641
3.75871
3.67711
3.60079
3.52646
3.45366
3.38191
3.31168
3.24334
3.17777
3.11535
3.05726
3.00409
2.95584
2.9147
2.8781
2.84998
2.82703
2.81285
2.80489
2.80766
2.81049
2.81831
2.83266
2.86158
2.89432
2.92917
2.96351
2.99273
3.01829
3.03709
3.05257
3.06242
3.06969
3.07376
3.07503
3.07564
3.0758
3.07426
3.07065
3.06456
3.05722
3.04741
3.03672
3.02364
3.01013
2.9944
2.97856
2.96056
2.9427
2.92316
2.9038
2.8832
2.86245
2.84104
2.819
2.79696
2.77382
2.75124
2.72737
2.7043
2.68013
2.65667
2.63255
2.60892
2.58504
2.56145
2.538
2.51465
2.49175
2.46886
2.44678
2.42459
2.40373
2.38269
2.36349
2.34446
2.32771
2.31201
2.29816
2.28587
2.27741
2.27215
2.27154
2.27213
2.27504
2.2879
4.25383
4.22579
4.22087
4.23909
4.33006
4.41705
4.45812
4.44414
4.41484
4.34713
4.23499
4.1225
4.02352
3.93574
3.85707
3.78231
3.70972
3.63735
3.56521
3.49265
3.42146
3.35073
3.28276
3.21672
3.15451
3.09624
3.04201
2.99405
2.94939
2.91297
2.87959
2.85506
2.83511
2.82461
2.8203
2.82161
2.8247
2.83405
2.8518
2.88209
2.91394
2.9478
2.97792
3.00476
3.02496
3.04106
3.05148
3.05867
3.06231
3.06305
3.06408
3.06324
3.06149
3.05633
3.05026
3.04128
3.03159
3.01928
3.00653
2.9915
2.97609
2.95875
2.94128
2.92236
2.9033
2.8832
2.86273
2.84167
2.81994
2.79808
2.77542
2.75288
2.72961
2.70653
2.68291
2.65953
2.63574
2.61237
2.58858
2.56558
2.54199
2.5196
2.49653
2.47487
2.45278
2.43203
2.4115
2.39214
2.37397
2.35706
2.34246
2.32874
2.31761
2.30952
2.30679
2.30642
2.30784
2.31177
2.32372
2.35422
4.43182
4.42249
4.44668
4.55954
4.66423
4.70057
4.68158
4.64315
4.5557
4.42972
4.30896
4.2034
4.11349
4.03424
3.96026
3.8891
3.81752
3.74593
3.67279
3.60001
3.52682
3.45509
3.38452
3.31636
3.25102
3.18905
3.13099
3.07715
3.02736
2.98285
2.94258
2.90837
2.87879
2.85614
2.83927
2.83338
2.82607
2.82973
2.83424
2.84489
2.86595
2.89508
2.92803
2.95866
2.98673
3.0085
3.02597
3.03704
3.04448
3.04723
3.04858
3.04851
3.04811
3.04437
3.03959
3.03176
3.02339
3.01205
3.00043
2.98596
2.97147
2.95448
2.93783
2.91914
2.90083
2.88092
2.86117
2.8402
2.81924
2.79732
2.7755
2.75283
2.73045
2.70723
2.68453
2.66102
2.63819
2.61473
2.59189
2.56888
2.54624
2.524
2.50188
2.48069
2.45955
2.43981
2.42036
2.40281
2.38622
2.37231
2.35905
2.34904
2.34166
2.34081
2.34102
2.3429
2.35121
2.36822
2.39067
2.43209
4.62485
4.68888
4.81753
4.92434
4.95856
4.93716
4.88882
4.78008
4.63928
4.50635
4.39258
4.29674
4.21343
4.13873
4.06659
3.99586
3.92403
3.85189
3.77813
3.70467
3.63067
3.55772
3.48572
3.41576
3.34807
3.28315
3.22117
3.16302
3.10849
3.05808
3.0119
2.96951
2.93266
2.8998
2.87375
2.85275
2.84138
2.83248
2.8278
2.83112
2.83781
2.85038
2.87582
2.90428
2.93452
2.96277
2.98653
3.00487
3.01773
3.0256
3.02872
3.02963
3.0299
3.02871
3.02512
3.01897
3.01135
3.00161
2.99059
2.97759
2.96345
2.94791
2.93143
2.91405
2.89588
2.87703
2.85755
2.83739
2.8168
2.79556
2.77413
2.75208
2.7301
2.70743
2.68521
2.66209
2.6399
2.61665
2.59466
2.57174
2.55011
2.52801
2.50711
2.48625
2.46674
2.4478
2.43061
2.41491
2.40157
2.38949
2.38013
2.37545
2.37483
2.37543
2.38007
2.38984
2.41319
2.44299
2.47282
2.51729
4.92944
5.09319
5.2191
5.24391
5.21674
5.15355
5.01805
4.86084
4.71703
4.59367
4.49026
4.40188
4.32254
4.24853
4.17599
4.10373
4.03071
3.95699
3.88266
3.80773
3.73288
3.65872
3.58557
3.51395
3.4441
3.37702
3.31225
3.2511
3.19254
3.13757
3.08616
3.03772
2.99442
2.9537
2.91956
2.88865
2.86525
2.84813
2.83626
2.82536
2.82573
2.82849
2.83634
2.85136
2.87679
2.90514
2.93273
2.95808
2.97816
2.99301
3.00196
3.00621
3.00679
3.00709
3.00543
3.00118
2.99455
2.98625
2.97616
2.96461
2.95151
2.9374
2.92192
2.90581
2.88829
2.87055
2.85138
2.8324
2.81185
2.79192
2.77028
2.74965
2.72736
2.70614
2.68369
2.66194
2.63968
2.61772
2.5959
2.5742
2.55309
2.53218
2.51226
2.49284
2.47492
2.45805
2.44357
2.43089
2.42014
2.41152
2.40948
2.40891
2.41085
2.41639
2.43298
2.45786
2.49107
2.52829
2.56116
2.60165
5.38161
5.54547
5.56281
5.53239
5.45067
5.27494
5.09718
4.94033
4.80842
4.69801
4.6029
4.51812
4.43907
4.36256
4.28721
4.2121
4.13689
4.06131
3.98556
3.90937
3.83363
3.75832
3.68401
3.61107
3.53965
3.47077
3.40373
3.33972
3.27803
3.21918
3.16335
3.1104
3.06095
3.01486
2.97256
2.93472
2.90107
2.87344
2.85197
2.83557
2.82224
2.81258
2.81461
2.81877
2.82757
2.84536
2.87002
2.8971
2.92285
2.94442
2.96087
2.97134
2.97661
2.97736
2.9777
2.97622
2.97244
2.96545
2.95696
2.94629
2.93504
2.92179
2.90809
2.89258
2.87672
2.85939
2.84174
2.82299
2.80386
2.7841
2.7638
2.74344
2.72232
2.7017
2.68017
2.65945
2.63791
2.61728
2.59609
2.57592
2.55559
2.53639
2.5177
2.50034
2.48446
2.47087
2.45919
2.4498
2.44322
2.44213
2.44267
2.44573
2.4557
2.47657
2.50633
2.54081
2.5793
2.61688
2.64635
2.67792
5.89877
5.90668
5.86749
5.75651
5.54163
5.3396
5.17001
5.0299
4.91367
4.81268
4.72238
4.63794
4.55692
4.47811
4.39936
4.32187
4.24343
4.16625
4.08816
4.01106
3.9338
3.85745
3.78206
3.70795
3.6356
3.56492
3.49616
3.42942
3.36465
3.30239
3.24271
3.18542
3.13132
3.07947
3.03162
2.98644
2.94597
2.90907
2.87753
2.85141
2.8315
2.81276
2.7988
2.79424
2.79551
2.80019
2.80946
2.83031
2.85405
2.87919
2.90205
2.92031
2.93295
2.94049
2.94165
2.94213
2.94107
2.9378
2.93058
2.92148
2.91129
2.89966
2.88734
2.87332
2.85901
2.8427
2.82674
2.80856
2.79128
2.77187
2.75344
2.73333
2.71397
2.69353
2.67365
2.65319
2.63328
2.61326
2.59375
2.57469
2.55629
2.53882
2.5226
2.50788
2.49595
2.48563
2.47735
2.47421
2.47372
2.47452
2.48136
2.49546
2.52178
2.5539
2.59223
2.63078
2.66742
2.69961
2.72
2.74161
6.29329
6.25288
6.08861
5.81817
5.58452
5.39815
5.25072
5.12915
5.02486
4.93038
4.84139
4.75581
4.67127
4.58886
4.50679
4.42676
4.34674
4.26819
4.18921
4.11108
4.03257
3.95508
3.87851
3.80331
3.72927
3.65695
3.58599
3.51718
3.45015
3.38507
3.32203
3.26066
3.2021
3.1454
3.09212
3.04115
2.99404
2.95016
2.91047
2.87493
2.84435
2.82039
2.79753
2.77897
2.76604
2.76555
2.76714
2.77185
2.78293
2.80414
2.82799
2.85111
2.87118
2.88597
2.89531
2.89844
2.89894
2.89893
2.89633
2.89004
2.88094
2.87117
2.85924
2.84727
2.83335
2.81943
2.80385
2.78807
2.77118
2.75402
2.73619
2.71814
2.69958
2.68106
2.66221
2.64363
2.62499
2.60684
2.58899
2.57192
2.55576
2.54088
2.52781
2.5175
2.5093
2.50274
2.50181
2.50217
2.50562
2.51528
2.5368
2.56667
2.60166
2.6418
2.68047
2.71684
2.7456
2.76801
2.77921
2.79274
6.47379
6.36061
6.04234
5.78786
5.59206
5.44319
5.32517
5.22312
5.12995
5.04023
4.95224
4.86505
4.77815
4.69244
4.60798
4.5255
4.44426
4.36442
4.28483
4.20597
4.12717
4.04916
3.97175
3.89552
3.82001
3.7463
3.67332
3.60236
3.53226
3.46416
3.3974
3.33254
3.26975
3.20889
3.15076
3.09488
3.04205
2.99184
2.94502
2.90187
2.86256
2.82794
2.79909
2.77308
2.74973
2.73395
2.72502
2.7251
2.72682
2.73249
2.74672
2.76798
2.79088
2.81217
2.82911
2.84011
2.8462
2.84705
2.84734
2.84586
2.8409
2.83298
2.82285
2.81197