/*--------------------------------*- C++ -*----------------------------------*\
  =========                 |
  \\      /  F ield         | OpenFOAM: The Open Source CFD Toolbox
   \\    /   O peration     | Website:  https://openfoam.org
    \\  /    A nd           | Version:  9
     \\/     M anipulation  |
\*---------------------------------------------------------------------------*/
FoamFile
{
    format      ascii;
    class       volScalarField;
    location    "8.5";
    object      T;
}
// * * * * * * * * * * * * * * * * * * * * * * * * * * * * * * * * * * * * * //

dimensions      [0 0 0 1 0 0 0];

internalField   nonuniform List<scalar> 
5250
(
1.00001
1.00002
1.00006
1.00013
1.00038
1.00076
1.00229
1.00473
1.0136
1.0308
1.08389
1.21643
1.58678
2.34479
2.71274
2.7427
2.73731
2.73923
2.75074
2.76663
2.77893
2.7874
2.79382
2.79941
2.80246
1.00001
1.00002
1.00005
1.00014
1.00034
1.00081
1.00215
1.00486
1.01325
1.03067
1.0826
1.21428
1.57959
2.33573
2.70932
2.74226
2.73673
2.73846
2.74988
2.76566
2.77786
2.78628
2.79266
2.79817
2.80107
1.00001
1.00002
1.00005
1.00013
1.00034
1.00079
1.0021
1.00474
1.01294
1.02995
1.08054
1.20892
1.56522
2.31454
2.70149
2.74102
2.73504
2.73615
2.74726
2.7629
2.77468
2.78321
2.78941
2.79501
2.79786
1.00001
1.00002
1.00005
1.00013
1.00032
1.00078
1.00198
1.00465
1.01231
1.02907
1.07719
1.20097
1.54312
2.28082
2.68898
2.73926
2.73232
2.73234
2.7432
2.75795
2.77019
2.77718
2.7838
2.78843
2.79117
1.00001
1.00002
1.00005
1.00011
1.00032
1.0007
1.00198
1.00424
1.01202
1.02707
1.07374
1.18929
1.51446
2.23248
2.6713
2.73703
2.72859
2.727
2.73718
2.75168
2.76296
2.77094
2.77618
2.78138
2.78327
1.00001
1.00002
1.00004
1.00012
1.00028
1.0007
1.00174
1.00416
1.01082
1.02579
1.06794
1.17627
1.47696
2.16817
2.64701
2.73404
2.72366
2.71987
2.72933
2.74312
2.7536
2.76053
2.76573
2.76912
2.77131
1
1.00001
1.00004
1.0001
1.00027
1.00061
1.00162
1.00383
1.00971
1.02402
1.06127
1.16047
1.43283
2.08359
2.61506
2.72958
2.71674
2.7106
2.71944
2.73263
2.74241
2.74828
2.75184
2.75475
2.75475
1
1.00001
1.00004
1.00009
1.00025
1.00053
1.00152
1.00322
1.00924
1.02037
1.05601
1.14037
1.38355
1.97771
2.57353
2.72165
2.70639
2.69773
2.70611
2.71834
2.72752
2.73173
2.7331
2.73258
2.72915
1
1.00001
1.00003
1.00009
1.00018
1.00054
1.00116
1.00318
1.00731
1.01911
1.04667
1.12346
1.32677
1.85414
2.52008
2.70714
2.69076
2.68117
2.68956
2.70042
2.70865
2.71115
2.70918
2.70247
2.68732
1
1.00001
1.00003
1.00007
1.00019
1.0004
1.00118
1.0024
1.00708
1.01516
1.0421
1.10254
1.27905
1.72761
2.45779
2.68676
2.67006
2.6617
2.66872
2.67843
2.68454
2.68458
2.67632
2.65422
2.5981
1
1.00001
1.00002
1.00006
1.00015
1.00039
1.00091
1.00242
1.00541
1.01482
1.03431
1.09207
1.23986
1.64067
2.38838
2.66235
2.65493
2.64734
2.64799
2.65484
2.65798
2.6533
2.63421
2.58823
2.48325
1
1.00001
1.00002
1.00005
1.00015
1.0003
1.0009
1.00182
1.00539
1.01148
1.03203
1.07679
1.20961
1.5534
2.28264
2.62134
2.64461
2.63544
2.63058
2.63141
2.62972
2.61879
2.58943
2.52612
2.41791
1
1.00001
1.00002
1.00005
1.00011
1.00029
1.00069
1.00172
1.00429
1.01037
1.02663
1.0663
1.17624
1.47103
2.14597
2.56732
2.63546
2.62548
2.6153
2.61086
2.60307
2.5845
2.54974
2.48796
2.39302
1
1.00001
1.00002
1.00004
1.0001
1.00023
1.00059
1.00145
1.00349
1.00897
1.02148
1.05586
1.14389
1.38712
1.98088
2.49622
2.62025
2.61156
2.59888
2.5886
2.57749
2.55538
2.5175
2.46046
2.38351
1
1
1.00001
1.00003
1.00008
1.00018
1.00051
1.00106
1.00314
1.0065
1.01861
1.04242
1.11572
1.30018
1.78643
2.40423
2.59103
2.58895
2.57873
2.56514
2.55122
2.52925
2.49368
2.44028
2.37309
1
1
1.00001
1.00003
1.00006
1.00016
1.00037
1.00097
1.00216
1.00593
1.01318
1.03584
1.08668
1.23363
1.6103
2.29429
2.55094
2.56228
2.55353
2.54023
2.52523
2.50307
2.4716
2.42405
2.36437
1
1
1.00001
1.00002
1.00005
1.00013
1.00028
1.00078
1.00176
1.00459
1.01098
1.02782
1.06984
1.18437
1.48814
2.15068
2.49527
2.54104
2.53175
2.51961
2.50291
2.47938
2.45002
2.40846
2.35603
1
1
1.00001
1.00002
1.00004
1.0001
1.00024
1.0006
1.00139
1.0037
1.00828
1.02262
1.05318
1.14375
1.37746
1.95268
2.41073
2.51786
2.51294
2.49954
2.48323
2.45951
2.43066
2.39347
2.34777
1
1
1
1.00001
1.00003
1.00008
1.00017
1.00049
1.00099
1.00292
1.00611
1.01715
1.03943
1.10615
1.2734
1.71591
2.29682
2.48098
2.48878
2.47799
2.461
2.4393
2.4126
2.37893
2.33847
1
1
1
1.00001
1.00002
1.00005
1.00015
1.00031
1.00086
1.00194
1.00504
1.012
1.0304
1.07605
1.2
1.52385
2.15662
2.42984
2.46205
2.4546
2.43874
2.4179
2.39428
2.3651
2.32961
1
1
1
1.00001
1.00002
1.00004
1.00011
1.00024
1.00065
1.0014
1.00396
1.0085
1.02362
1.055
1.1487
1.38675
1.95617
2.3474
2.4346
2.43239
2.41906
2.39865
2.37659
2.34999
2.31982
1
1
1
1.00001
1.00001
1.00003
1.00007
1.00019
1.00044
1.00109
1.00272
1.0064
1.0167
1.03964
1.10447
1.27049
1.7021
2.22945
2.39495
2.40763
2.3988
2.38087
2.35982
2.33624
2.30805
1
1
1
1
1.00001
1.00002
1.00006
1.00012
1.00034
1.00074
1.00198
1.00454
1.01167
1.02809
1.07205
1.18452
1.48664
2.07
2.33734
2.38055
2.37596
2.36203
2.34204
2.32133
2.29785
1
1
1
1
1.00001
1.00002
1.00004
1.0001
1.00022
1.00059
1.00127
1.00355
1.00761
1.02116
1.04861
1.13124
1.3378
1.8476
2.24316
2.34869
2.35361
2.34511
2.32748
2.30622
2.28459
1
1
1
1
1
1.00001
1.00002
1.00007
1.00014
1.00041
1.00088
1.00236
1.00534
1.01381
1.03295
1.08495
1.21615
1.56489
2.10179
2.30006
2.32723
2.32385
2.3105
2.29203
2.27237
1
1
1
1
1
1.00001
1.00002
1.00005
1.0001
1.00029
1.00058
1.00169
1.00358
1.0098
1.02238
1.05895
1.14708
1.39035
1.91931
2.23527
2.30179
2.30372
2.29412
2.27806
2.26223
1
1
1
1
1
1.00001
1.00001
1.00003
1.00008
1.00017
1.00047
1.00099
1.0028
1.00591
1.01649
1.03725
1.09991
1.25299
1.65485
2.11574
2.26411
2.2824
2.27778
2.26645
2.25341
1
1
1
1
1
1
1.00001
1.00002
1.00004
1.00013
1.00027
1.00076
1.00164
1.00438
1.01004
1.02586
1.06284
1.16364
1.4236
1.94173
2.20164
2.25608
2.26077
2.25614
2.25137
1
1
1
1
1
1
1.00001
1.00001
1.00003
1.00008
1.00019
1.00049
1.00109
1.00297
1.0064
1.0177
1.03992
1.10723
1.27088
1.6886
2.09602
2.22403
2.24594
2.24979
2.25461
1
1
1
1
1
1
1
1.00001
1.00002
1.00005
1.00013
1.00031
1.00073
1.00189
1.00419
1.01128
1.02539
1.0674
1.16662
1.43801
1.93074
2.16883
2.22667
2.24813
2.26624
1
1
1
1
1
1
1
1.00001
1.00002
1.00003
1.00009
1.00018
1.00052
1.0011
1.003
1.00671
1.01744
1.04161
1.10751
1.27439
1.687
2.07444
2.2112
2.25663
2.2942
1
1
1
1
1
1
1
1
1.00001
1.00002
1.00005
1.00013
1.00031
1.00078
1.00176
1.0047
1.01036
1.02783
1.06512
1.17111
1.43831
1.92803
2.17976
2.27556
2.3439
1
1
1
1
1
1
1
1
1.00001
1.00001
1.00004
1.00008
1.00021
1.00049
1.00122
1.00298
1.00705
1.01805
1.04279
1.11113
1.28341
1.70187
2.12834
2.31948
2.42253
1
1
1
1
1
1
1
1
1
1.00001
1.00002
1.00006
1.00015
1.00033
1.0009
1.00191
1.00538
1.01149
1.03165
1.07406
1.19742
1.50289
2.06138
2.39631
2.51389
1
1
1
1
1
1
1
1
1
1.00001
1.00002
1.00004
1.00011
1.00027
1.00061
1.00167
1.00362
1.0101
1.02248
1.06097
1.15189
1.40724
1.96518
2.49396
2.62595
1
1
1
1
1
1
1
1
1
1.00001
1.00002
1.00003
1.0001
1.0002
1.00059
1.0012
1.00347
1.00756
1.0206
1.04904
1.13165
1.34616
1.87745
2.57277
2.72147
1
1
1
1
1
1
1
1
1
1.00001
1.00001
1.00003
1.00009
1.00018
1.00053
1.00109
1.00317
1.00692
1.01896
1.04515
1.12175
1.32233
1.84751
2.602
2.78592
1
1
1
1
1
1
1
1
1
1
1.00001
1.00003
1.00008
1.00018
1.00047
1.00111
1.00281
1.00701
1.0173
1.04426
1.11507
1.31057
1.82661
2.59889
2.81219
1
1
1
1
1
1
1
1
1
1
1.00001
1.00003
1.00007
1.00019
1.0004
1.0012
1.00244
1.0073
1.01579
1.04422
1.10945
1.30243
1.80493
2.58276
2.81512
1
1
1
1
1
1
1
1
1
1.00001
1.00001
1.00003
1.00006
1.00019
1.0004
1.00112
1.00252
1.00671
1.01612
1.04187
1.10747
1.29259
1.78495
2.5618
2.81073
1
1
1
1
1
1
1
1
1
1
1.00001
1.00003
1.00006
1.00018
1.00039
1.00107
1.0025
1.00645
1.01592
1.0405
1.10497
1.28413
1.76547
2.54085
2.80386
1
1
1
1
1
1
1
1
1
1
1.00001
1.00002
1.00007
1.00015
1.00045
1.00091
1.00274
1.00582
1.0164
1.03831
1.10426
1.27469
1.74903
2.52066
2.79535
1
1
1
1
1
1
1
1
1
1
1.00001
1.00002
1.00007
1.00015
1.00044
1.00092
1.00263
1.00584
1.01587
1.03786
1.10167
1.26845
1.73288
2.50188
2.78524
1
1
1
1
1
1
1
1
1
1
1.00001
1.00002
1.00007
1.00015
1.00043
1.00093
1.00254
1.00586
1.01542
1.03753
1.09938
1.26313
1.71825
2.4854
2.77493
1
1
1
1
1
1
1
1
1
1
1.00001
1.00003
1.00007
1.00015
1.00042
1.0009
1.0026
1.00553
1.01577
1.03607
1.0987
1.25779
1.70433
2.47225
2.76546
1
1
1
1
1
1
1
1
1
1
1.00001
1.00003
1.00006
1.00017
1.00036
1.00102
1.00228
1.00608
1.0144
1.03752
1.09473
1.25631
1.68767
2.46414
2.75737
1
1
1
1
1
1
1
1
1
1
1.00001
1.00002
1.00007
1.00014
1.00042
1.00089
1.00249
1.0056
1.01499
1.03588
1.09537
1.2508
1.6745
2.45929
2.75079
1
1
1
1
1
1
1
1
1
1
1.00001
1.00003
1.00006
1.00016
1.00036
1.00101
1.00217
1.00623
1.01355
1.03773
1.09156
1.25099
1.65981
2.45713
2.74539
1
1
1
1
1
1
1
1
1
1
1.00001
1.00003
1.00006
1.00016
1.00038
1.00094
1.00237
1.00564
1.01471
1.03548
1.0933
1.24745
1.652
2.45482
2.74132
1
1
1
1
1
1
1
1
1
1
1.00001
1.00003
1.00006
1.00017
1.00035
1.00103
1.00211
1.00626
1.01335
1.03742
1.09062
1.24879
1.64868
2.45424
2.73854
2.35242
2.48626
2.75897
2.99099
2.998
2.95667
2.94193
2.92833
2.90745
2.88623
2.8673
2.85038
2.83084
2.81258
2.80095
2.79773
2.79765
2.80281
2.81437
2.83046
2.84882
2.86729
2.88406
2.90036
2.91427
2.92625
2.93642
2.94611
2.95263
2.96027
2.9659
2.96897
2.97156
2.97267
2.973
2.97189
2.9697
2.96865
2.96671
2.96455
2.95958
2.95634
2.9497
2.94452
2.93758
2.93196
2.92457
2.91754
2.90959
2.90188
2.89336
2.88478
2.8766
2.86691
2.85832
2.84871
2.83964
2.83011
2.82056
2.81048
2.80108
2.79044
2.7807
2.76964
2.76011
2.74842
2.73899
2.72722
2.71743
2.70603
2.69576
2.68462
2.67423
2.66299
2.65275
2.64141
2.63127
2.62
2.6099
2.59875
2.58882
2.57763
2.56809
2.55671
2.5477
2.53611
2.52753
2.51603
2.50749
2.49651
2.48776
2.4775
2.46866
2.45912
2.45062
2.44187
2.43446
2.42733
2.42257
2.41835
2.36596
2.4617
2.5958
2.81754
2.95935
3.00592
3.06018
3.07214
3.06718
3.05303
3.04178
3.03374
3.02267
3.00784
2.99893
2.9979
3.00099
3.00364
3.01158
3.0186
3.02681
3.03387
3.03739
3.03885
3.03916
3.03775
3.03424
3.0293
3.02594
3.02131
3.01806
3.01117
3.00494
2.99681
2.98846
2.97951
2.97078
2.96197
2.95269
2.94269
2.93225
2.92086
2.9098
2.89783
2.88656
2.87386
2.86308
2.84994
2.83857
2.82537
2.81381
2.80136
2.7896
2.77721
2.7659
2.75336
2.74221
2.72988
2.71897
2.70665
2.69625
2.68378
2.67366
2.6613
2.65097
2.63901
2.62823
2.61669
2.6057
2.59441
2.58352
2.57236
2.56168
2.55072
2.54015
2.52948
2.51897
2.5086
2.49822
2.48803
2.47797
2.46781
2.45823
2.44804
2.43893
2.42884
2.41997
2.41027
2.40137
2.39225
2.38319
2.37468
2.36562
2.35773
2.3491
2.34209
2.33461
2.32928
2.32448
2.32228
2.35437
2.3833
2.4631
2.51925
2.63992
2.76204
2.91075
3.00146
3.05522
3.06708
3.07161
3.09068
3.09659
3.09696
3.09198
3.09382
3.10288
3.10586
3.10618
3.10425
3.09998
3.09247
3.08393
3.07288
3.06117
3.04799
3.03489
3.01915
3.00563
2.98852
2.97391
2.95647
2.943
2.92518
2.91135
2.89401
2.88007
2.86352
2.8501
2.83425
2.82122
2.80642
2.79343
2.77956
2.76683
2.75472
2.74167
2.72938
2.71653
2.7043
2.69199
2.68009
2.66814
2.65664
2.64508
2.63361
2.6225
2.61107
2.60025
2.58913
2.57829
2.56774
2.55668
2.54668
2.53547
2.52584
2.51467
2.50521
2.49417
2.48478
2.47387
2.46452
2.4537
2.44437
2.43367
2.42436
2.41388
2.40457
2.39445
2.38504
2.37542
2.36582
2.3567
2.34695
2.33821
2.32846
2.3198
2.31023
2.30146
2.29223
2.28339
2.27458
2.26591
2.25754
2.24938
2.2417
2.23465
2.22841
2.22391
2.22067
2.3298
2.32299
2.35435
2.38667
2.44288
2.51687
2.60065
2.71283
2.82405
2.93144
2.97882
3.02004
3.05082
3.07592
3.08658
3.0862
3.08275
3.07385
3.06632
3.05207
3.03398
3.01416
2.99236
2.97207
2.95186
2.93224
2.91228
2.89128
2.87025
2.84893
2.82836
2.80843
2.78941
2.77121
2.75374
2.73715
2.72092
2.70575
2.69069
2.6769
2.66316
2.65019
2.63775
2.62517
2.61411
2.60273
2.59237
2.58101
2.57028
2.5593
2.54941
2.53876
2.5295
2.51898
2.51015
2.4998
2.49116
2.48106
2.47238
2.46252
2.45375
2.44407
2.43534
2.42575
2.41722
2.40766
2.39936
2.38978
2.38162
2.37207
2.36405
2.35463
2.34674
2.33746
2.32965
2.32041
2.31276
2.30355
2.29622
2.28708
2.28015
2.2711
2.26447
2.25555
2.24891
2.24026
2.2335
2.22534
2.21838
2.21076
2.20362
2.19648
2.18931
2.18263
2.1757
2.1697
2.16351
2.15886
2.15475
2.15308
2.31635
2.28432
2.28496
2.30339
2.32911
2.37366
2.41954
2.48188
2.54895
2.63
2.72329
2.80417
2.87142
2.91959
2.95538
2.97154
2.9687
2.95518
2.93362
2.90539
2.87418
2.84499
2.81791
2.79283
2.77033
2.74834
2.72893
2.70854
2.69047
2.67165
2.65554
2.63952
2.62581
2.61221
2.60022
2.5882
2.57748
2.56656
2.55685
2.54688
2.53772
2.52847
2.51954
2.51056
2.50218
2.49396
2.48651
2.47781
2.46993
2.46088
2.45353
2.44462
2.43752
2.42866
2.42155
2.41289
2.40572
2.39734
2.38995
2.38175
2.37406
2.36585
2.35781
2.34949
2.34114
2.33268
2.324
2.31545
2.30647
2.29796
2.28873
2.28028
2.27084
2.26243
2.253
2.2447
2.23558
2.2274
2.21865
2.21046
2.202
2.19372
2.18544
2.17729
2.1692
2.16137
2.15335
2.1459
2.13792
2.13089
2.12301
2.1164
2.10875
2.10259
2.09539
2.08988
2.08355
2.07928
2.07503
2.07365
2.30774
2.26772
2.24662
2.24674
2.25764
2.28077
2.30957
2.34479
2.38747
2.43484
2.49127
2.55216
2.60816
2.66079
2.69339
2.71584
2.71195
2.69578
2.66867
2.63625
2.60684
2.58352
2.56353
2.55056
2.5377
2.52973
2.51866
2.51138
2.50181
2.49579
2.48827
2.4834
2.47757
2.47338
2.46836
2.46429
2.45961
2.45548
2.4508
2.44646
2.44184
2.43726
2.4326
2.42734
2.42251
2.41736
2.41276
2.40684
2.40114
2.39423
2.38825
2.3813
2.37507
2.36802
2.36139
2.35433
2.34729
2.34029
2.33298
2.32607
2.31863
2.31179
2.30428
2.29743
2.28985
2.28289
2.27523
2.2681
2.2603
2.25296
2.24505
2.23745
2.22951
2.22166
2.21378
2.20564
2.19795
2.18948
2.18186
2.17302
2.16565
2.15674
2.14959
2.14074
2.1337
2.12507
2.11805
2.10974
2.10269
2.09476
2.08772
2.0802
2.07326
2.06619
2.05954
2.05309
2.04714
2.04183
2.03774
2.03524
2.30259
2.2589
2.22899
2.21304
2.21117
2.21858
2.23476
2.25734
2.28469
2.31833
2.35613
2.39976
2.4397
2.47901
2.50335
2.51805
2.5135
2.49857
2.47405
2.44527
2.42384
2.40614
2.39948
2.39663
2.39844
2.4
2.40164
2.40228
2.40266
2.40239
2.40214
2.4015
2.40087
2.39957
2.39795
2.39585
2.39371
2.39112
2.38838
2.38536
2.38224
2.37886
2.37523
2.37084
2.36661
2.36211
2.358
2.35296
2.34776
2.34155
2.33577
2.32953
2.32361
2.31738
2.31117
2.3048
2.29821
2.29164
2.28466
2.27784
2.27049
2.26342
2.25578
2.24853
2.24068
2.23332
2.22536
2.2179
2.20988
2.20233
2.19428
2.18661
2.17869
2.17087
2.16318
2.15516
2.14761
2.13934
2.13212
2.12376
2.1168
2.10845
2.10164
2.09347
2.08671
2.07889
2.0721
2.06476
2.0579
2.05107
2.0442
2.03787
2.0311
2.02529
2.01881
2.01361
2.00778
2.00364
1.99954
1.99815
2.29883
2.25505
2.22039
2.1969
2.18343
2.18113
2.18634
2.19885
2.21886
2.24508
2.27624
2.31142
2.34329
2.37562
2.39326
2.4024
2.39629
2.38044
2.35223
2.32816
2.30865
2.29654
2.28733
2.28729
2.29228
2.30077
2.30836
2.31465
2.3185
2.32086
2.32258
2.32325
2.32425
2.32412
2.32378
2.323
2.3221
2.32041
2.31878
2.31626
2.31392
2.31072
2.30766
2.30351
2.29988
2.29572
2.2922
2.28777
2.28318
2.2777
2.27217
2.26647
2.26056
2.25485
2.24861
2.24277
2.23622
2.23022
2.22345
2.21733
2.21046
2.20427
2.19736
2.19109
2.18411
2.17772
2.17061
2.16405
2.15683
2.15002
2.14273
2.13567
2.12841
2.12104
2.11373
2.10613
2.09893
2.09118
2.08406
2.07627
2.06916
2.06146
2.0543
2.04681
2.0396
2.03243
2.02519
2.01838
2.01118
2.00473
1.99762
1.99154
1.98462
1.97894
1.97236
1.96725
1.96135
1.95726
1.95307
1.95163
2.29448
2.25259
2.2165
2.18884
2.16966
2.1591
2.15829
2.16487
2.18055
2.2055
2.23132
2.26434
2.29365
2.32165
2.33369
2.33799
2.3286
2.30694
2.27828
2.25078
2.2315
2.21925
2.2107
2.20754
2.20959
2.21676
2.22654
2.23592
2.24335
2.24886
2.2527
2.25557
2.2578
2.2594
2.26055
2.26116
2.26144
2.26119
2.26063
2.25947
2.25845
2.25635
2.25474
2.25185
2.24965
2.24625
2.2439
2.24023
2.2371
2.23263
2.22867
2.2239
2.21951
2.21465
2.20984
2.20474
2.19942
2.19402
2.18826
2.18258
2.17648
2.17053
2.16414
2.15796
2.15131
2.14491
2.13804
2.13143
2.12442
2.11761
2.11054
2.10355
2.0964
2.08916
2.08211
2.07465
2.06768
2.06002
2.05313
2.04533
2.03849
2.03067
2.02387
2.01616
2.00934
2.00185
1.99498
1.98781
1.9809
1.9741
1.96722
1.96082
1.95408
1.94813
1.94172
1.93633
1.93059
1.92616
1.92208
1.92012
2.28979
2.25077
2.21532
2.18583
2.16433
2.14982
2.14581
2.15086
2.16647
2.19002
2.21517
2.24766
2.27972
2.29709
2.3058
2.30267
2.28821
2.26064
2.22917
2.20183
2.18119
2.1668
2.15966
2.15381
2.15289
2.15595
2.16332
2.1732
2.18321
2.19239
2.19969
2.20584
2.20996
2.2138
2.21609
2.2188
2.22022
2.22192
2.22272
2.22348
2.22337
2.22302
2.2223
2.22093
2.21918
2.21721
2.21548
2.21342
2.21096
2.20784
2.20415
2.20022
2.19573
2.19127
2.18622
2.18138
2.17586
2.17069
2.16482
2.15937
2.15325
2.14752
2.14117
2.13515
2.12861
2.12229
2.11561
2.10905
2.10234
2.09554
2.08884
2.08174
2.0752
2.06789
2.06148
2.05395
2.04761
2.03992
2.03358
2.02583
2.01944
2.01178
2.0053
1.99787
1.99131
1.98418
1.97758
1.97081
1.96419
1.95781
1.95126
1.9453
1.93891
1.9334
1.92735
1.92239
1.91699
1.91297
1.90915
1.90742
2.2849
2.2488
2.21544
2.18626
2.16462
2.14979
2.14651
2.15411
2.1699
2.19241
2.22057
2.25401
2.27992
2.28884
2.29087
2.28123
2.25902
2.22857
2.19893
2.17279
2.15174
2.13625
2.12611
2.12
2.11523
2.11453
2.11713
2.12329
2.1321
2.14247
2.15265
2.16074
2.16781
2.17236
2.17675
2.17918
2.18196
2.18337
2.18486
2.18548
2.1858
2.18553
2.1849
2.18353
2.18216
2.18001
2.17825
2.17594
2.1735
2.17032
2.16673
2.1628
2.15853
2.15419
2.14944
2.14483
2.13973
2.13492
2.12953
2.12449
2.11878
2.11346
2.10746
2.10181
2.09552
2.08952
2.08301
2.07669
2.07004
2.06343
2.05678
2.04999
2.04336
2.03639
2.02976
2.02265
2.01601
2.00883
2.00215
1.995
1.98824
1.98117
1.97435
1.96742
1.96057
1.95383
1.94701
1.94053
1.93379
1.92764
1.92103
1.91529
1.90892
1.90368
1.89774
1.89322
1.88806
1.88456
1.88095
1.87963
2.27863
2.24632
2.21629
2.18911
2.17006
2.1585
2.1596
2.17162
2.18861
2.21239
2.24552
2.27418
2.28664
2.29044
2.28525
2.26852
2.24018
2.20999
2.18266
2.15883
2.1385
2.12157
2.10873
2.09842
2.09325
2.08843
2.08734
2.08891
2.09371
2.10082
2.11035
2.12056
2.12961
2.13695
2.14292
2.14719
2.15084
2.1533
2.1555
2.15715
2.15813
2.15896
2.15886
2.15843
2.1577
2.15622
2.15507
2.15367
2.1522
2.15006
2.14744
2.14433
2.14068
2.13681
2.13246
2.12816
2.12341
2.11886
2.11379
2.10899
2.10359
2.09846
2.09272
2.08721
2.08117
2.07525
2.06899
2.0627
2.05633
2.04982
2.04349
2.03676
2.03046
2.0235
2.01718
2.01005
2.00371
1.9965
1.99012
1.98294
1.97651
1.9694
1.96293
1.95594
1.94941
1.94259
1.93606
1.92949
1.92299
1.91675
1.91037
1.90455
1.89841
1.89318
1.88748
1.88305
1.87815
1.87474
1.87155
1.87017
2.27046
2.2436
2.21756
2.19581
2.18024
2.17775
2.18399
2.19809
2.21829
2.24897
2.27852
2.29217
2.29693
2.29414
2.28141
2.25631
2.22841
2.20159
2.17719
2.15548
2.13516
2.11782
2.1019
2.08975
2.0796
2.07334
2.0692
2.0676
2.06788
2.07042
2.07583
2.08413
2.09348
2.10268
2.11038
2.11705
2.12201
2.12588
2.12873
2.13044
2.13203
2.13248
2.13304
2.13286
2.13231
2.13122
2.13005
2.12885
2.12733
2.12547
2.12281
2.11981
2.11614
2.11234
2.10794
2.10364
2.09879
2.09419
2.08906
2.08423
2.07882
2.07369
2.06795
2.06244
2.05636
2.05044
2.04412
2.03792
2.03161
2.02526
2.01903
2.01252
2.00635
1.99967
1.99348
1.98664
1.98039
1.97346
1.96711
1.96018
1.95375
1.94689
1.94041
1.93371
1.92725
1.92078
1.91435
1.9082
1.90185
1.89609
1.8899
1.88463
1.87877
1.87416
1.86893
1.8652
1.86084
1.8584
1.85595
1.85528
2.26313
2.2396
2.22062
2.2045
2.20023
2.20414
2.21622
2.23328
2.26135
2.28887
2.30368
2.30801
2.30596
2.29518
2.27393
2.24844
2.22377
2.20079
2.17871
2.15849
2.1382
2.12052
2.10279
2.08886
2.07541
2.06637
2.05823
2.05437
2.05112
2.05031
2.051
2.05437
2.06075
2.06933
2.07806
2.08643
2.09311
2.09895
2.10262
2.10608
2.10765
2.10936
2.10971
2.11014
2.1098
2.10907
2.10796
2.10685
2.1057
2.10429
2.10211
2.09951
2.09626
2.09278
2.08871
2.08466
2.08009
2.07571
2.07082
2.0662
2.06098
2.05606
2.05051
2.04521
2.03934
2.03363
2.0276
2.02159
2.01553
2.00926
2.00323
1.99675
1.99075
1.98414
1.9781
1.97142
1.96528
1.9586
1.95233
1.9457
1.93932
1.93278
1.92634
1.91991
1.91349
1.9072
1.90087
1.89482
1.88865
1.88298
1.87705
1.87196
1.86645
1.86223
1.8574
1.85418
1.85055
1.849
1.84745
1.84714
2.25497
2.23885
2.22679
2.22277
2.22629
2.23767
2.25407
2.27985
2.30576
2.31938
2.32355
2.32144
2.31135
2.2914
2.2685
2.24586
2.22459
2.20424
2.18401
2.1646
2.14475
2.12659
2.10836
2.09283
2.07773
2.06565
2.05453
2.04644
2.03984
2.03669
2.03391
2.03384
2.03535
2.03996
2.0473
2.05549
2.0637
2.0704
2.07646
2.08036
2.08367
2.08537
2.08659
2.08716
2.0871
2.0867
2.08592
2.08494
2.08385
2.08252
2.08062
2.07822
2.07516
2.07187
2.06793
2.06404
2.05957
2.05534
2.05054
2.04604
2.04099
2.03621
2.03088
2.0257
2.02002
2.01447
2.00864
2.00281
1.99692
1.99085
1.98497
1.97873
1.97283
1.96646
1.96049
1.95401
1.94795
1.9414
1.93525
1.92873
1.92251
1.91613
1.90987
1.9037
1.89744
1.89153
1.88537
1.87975
1.87377
1.86859
1.8629
1.85843
1.85329
1.84975
1.84549
1.84313
1.84079
1.8401
1.84013
1.8398
2.2495
2.24061
2.24056
2.24581
2.25806
2.27633
2.30115
2.32521
2.33655
2.34016
2.33757
2.3272
2.30838
2.28713
2.26654
2.2474
2.22881
2.21037
2.19167
2.17236
2.15312
2.13438
2.11591
2.09911
2.08271
2.06841
2.05517
2.04381
2.03423
2.02659
2.0215
2.01832
2.01676
2.01693
2.01952
2.02509
2.03192
2.03946
2.04635
2.05219
2.0569
2.05976
2.0622
2.06304
2.06381
2.06365
2.06309
2.06222
2.06112
2.06011
2.05859
2.05668
2.05405
2.05117
2.04762
2.04405
2.03988
2.03589
2.03125
2.02693
2.02192
2.01726
2.01192
2.00683
2.00124
1.99585
1.99013
1.9845
1.97874
1.97294
1.96721
1.96124
1.95556
1.94944
1.94373
1.93755
1.93167
1.92557
1.91943
1.91349
1.90714
1.90133
1.89494
1.88919
1.88296
1.8773
1.87135
1.86595
1.86036
1.8554
1.85049
1.84616
1.84228
1.83874
1.83631
1.83443
1.83434
1.83463
1.83605
1.83554
2.24866
2.25036
2.25964
2.27361
2.29567
2.32104
2.3455
2.35571
2.35915
2.35528
2.34298
2.3238
2.30357
2.28509
2.26737
2.25107
2.23431
2.21723
2.19903
2.18036
2.16137
2.14249
2.12389
2.10606
2.08895
2.07275
2.05802
2.04378
2.03219
2.02104
2.01293
2.00614
2.00253
1.9995
1.99882
1.99916
2.00267
2.00856
2.01513
2.02213
2.02764
2.03278
2.03572
2.03851
2.0393
2.04039
2.0402
2.03967
2.03874
2.03787
2.03655
2.03503
2.03266
2.03012
2.02674
2.02344
2.01931
2.0155
2.01088
2.00672
2.00172
1.99724
1.99191
1.98709
1.98163
1.97651
1.97102
1.96557
1.96017
1.95442
1.94911
1.94315
1.93786
1.93182
1.9264
1.92038
1.91476
1.90876
1.90297
1.89704
1.89113
1.88532
1.87942
1.87381
1.86799
1.86275
1.8571
1.85233
1.84712
1.84298
1.83861
1.83529
1.83195
1.82986
1.82854
1.82864
1.82946
1.83078
1.83351
1.83471
2.2542
2.26753
2.28296
2.31144
2.34032
2.36497
2.37357
2.37639
2.37078
2.3566
2.3377
2.31861
2.30081
2.28505
2.26967
2.25476
2.23913
2.22272
2.20498
2.18688
2.16794
2.1494
2.13054
2.11253
2.09478
2.07775
2.06184
2.04602
2.03261
2.01875
2.00832
1.99794
1.99087
1.98514
1.98206
1.97902
1.97892
1.97989
1.98408
1.98958
1.99635
2.00196
2.00754
2.01107
2.0142
2.0155
2.01656
2.01628
2.01542
2.01474
2.01336
2.01228
2.0101
2.0081
2.00499
2.00218
1.99835
1.99487
1.99046
1.98643
1.98159
1.9771
1.97198
1.96721
1.96198
1.95695
1.95172
1.94646
1.94127
1.93583
1.93063
1.92508
1.9198
1.91421
1.90885
1.90322
1.89783
1.89213
1.88676
1.88093
1.87566
1.86974
1.8646
1.8588
1.85379
1.84839
1.84361
1.83892
1.83459
1.83095
1.82746
1.82487
1.82274
1.82228
1.82256
1.82364
1.82549
1.82966
1.83486
1.83842
2.26872
2.28876
2.32194
2.35575
2.38129
2.3909
2.39382
2.38657
2.3706
2.35058
2.33126
2.31452
2.29941
2.28534
2.27178
2.25749
2.24272
2.22658
2.2098
2.19185
2.17376
2.15506
2.13659
2.11818
2.10009
2.08241
2.0652
2.04863
2.03311
2.01823
2.00498
1.99261
1.98251
1.97383
1.96774
1.96276
1.95978
1.95748
1.95755
1.95923
1.96367
1.96968
1.97529
1.98105
1.98506
1.98869
1.99028
1.99162
1.99143
1.99087
1.98974
1.98892
1.98721
1.98565
1.98284
1.98038
1.97675
1.97363
1.96937
1.96571
1.96092
1.95682
1.95174
1.94736
1.94216
1.93751
1.93229
1.92746
1.92224
1.91732
1.91204
1.90707
1.90168
1.89669
1.8912
1.88619
1.88066
1.87558
1.87013
1.86491
1.85961
1.85429
1.84924
1.84399
1.8393
1.83439
1.83027
1.82607
1.82292
1.81974
1.81762
1.81598
1.81604
1.81684
1.81816
1.8213
1.82527
1.83323
1.84107
1.84561
2.29244
2.33198
2.3688
2.39732
2.40729
2.40902
2.40034
2.38274
2.36162
2.34237
2.32589
2.31156
2.29871
2.28576
2.27302
2.25922
2.24476
2.22893
2.21242
2.19483
2.17698
2.15856
2.14017
2.12169
2.10341
2.08541
2.06792
2.05066
2.03406
2.01816
2.00309
1.98948
1.97661
1.96594
1.9562
1.94915
1.94305
1.93859
1.93542
1.93422
1.93443
1.9371
1.94209
1.94792
1.95369
1.9586
1.96241
1.96497
1.96638
1.96656
1.96602
1.96516
1.964
1.96253
1.96032
1.95789
1.95486
1.95178
1.94816
1.94448
1.94033
1.9361
1.93166
1.9271
1.92244
1.91767
1.91283
1.90802
1.9031
1.89828
1.89328
1.88844
1.88334
1.87855
1.87332
1.86863
1.86329
1.8587
1.85334
1.84879
1.84357
1.83903
1.83409
1.82974
1.82522
1.82136
1.81761
1.81466
1.81201
1.81005
1.80914
1.80938
1.81042
1.81244
1.8156
1.82235
1.8298
1.84037
1.84961
1.85419
2.34036
2.38345
2.41071
2.42142
2.42269
2.41286
2.39296
2.37146
2.35173
2.33552
2.3217
2.30915
2.29728
2.28504
2.27243
2.2589
2.24447
2.22904
2.21278
2.19571
2.17814
2.16014
2.14196
2.12369
2.10554
2.08727
2.06942
2.05149
2.03435
2.01758
2.00146
1.98663
1.97205
1.95967
1.94738
1.9379
1.92889
1.92281
1.91659
1.91315
1.9105
1.91053
1.9115
1.91518
1.92068
1.92624
1.93193
1.93623
1.93953
1.94118
1.94181
1.94119
1.94055
1.93934
1.93801
1.93589
1.93343
1.93048
1.9273
1.92372
1.91998
1.91585
1.91172
1.90717
1.90284
1.89804
1.89365
1.88868
1.88435
1.87928
1.87504
1.86989
1.86564
1.86052
1.85613
1.8512
1.84663
1.84192
1.83726
1.83273
1.82812
1.82382
1.81946
1.81557
1.81173
1.80861
1.80579
1.80372
1.80213
1.80182
1.80255
1.80406
1.80643
1.81147
1.81786
1.8282
1.83814
1.84932
1.85812
1.86173
2.39789
2.42665
2.4376
2.43566
2.42271
2.4004
2.37861
2.35932
2.34301
2.32911
2.31701
2.30557
2.29422
2.28261
2.27017
2.2568
2.24243
2.22724
2.21126
2.19468
2.1775
2.15997
2.14211
2.12404
2.10599
2.08765
2.06965
2.05154
2.03391
2.01668
1.99995
1.98402
1.96877
1.95454
1.9414
1.92929
1.91892
1.90961
1.90242
1.89595
1.89099
1.88796
1.8871
1.88736
1.88949
1.89421
1.89994
1.90581
1.91084
1.9148
1.91721
1.91842
1.91824
1.91759
1.9165
1.91518
1.91291
1.91036
1.9071
1.90397
1.9002
1.8967
1.89253
1.88864
1.88415
1.87993
1.87532
1.87093
1.86637
1.86188
1.85747
1.85285
1.84855
1.84379
1.83955
1.83474
1.83053
1.82582
1.82169
1.81719
1.81326
1.80917
1.8056
1.80227
1.79946
1.79725
1.79563
1.79457
1.7948
1.79598
1.79767
1.80126
1.80647
1.81544
1.82497
1.83674
1.84698
1.85704
1.86391
1.86599
2.45832
2.46729
2.46103
2.44124
2.4134
2.38851
2.36784
2.35124
2.33706
2.32499
2.3136
2.3025
2.29106
2.27879
2.26617
2.25236
2.23839
2.22316
2.20786
2.19152
2.17495
2.15782
2.1403
2.12249
2.10435
2.08618
2.06804
2.05008
2.03246
2.01507
1.99805
1.98172
1.96579
1.95102
1.93663
1.92368
1.9113
1.90063
1.89102
1.88317
1.87633
1.87082
1.86711
1.86568
1.86588
1.86695
1.87052
1.876
1.88189
1.88752
1.8921
1.89527
1.89685
1.89702
1.89647
1.89556
1.89434
1.89229
1.88952
1.88645
1.88302
1.87959
1.87569
1.87197
1.86759
1.86374
1.85898
1.8551
1.85017
1.84627
1.84143
1.83746
1.83284
1.82883
1.82439
1.82036
1.81607
1.81204
1.80798
1.80407
1.80038
1.79694
1.7939
1.79146
1.78956
1.78838
1.78793
1.78859
1.78995
1.79281
1.79654
1.80415
1.81258
1.82389
1.83451
1.84561
1.85461
1.86169
1.86645
1.86676
2.51554
2.49701
2.46676
2.43218
2.40284
2.38017
2.36238
2.34817
2.33553
2.32378
2.31228
2.30049
2.28868
2.27595
2.26297
2.24882
2.23444
2.21907
2.20364
2.18757
2.17135
2.15464
2.13755
2.12003
2.10236
2.08444
2.06662
2.04865
2.03093
2.0135
1.99646
1.98015
1.9641
1.94905
1.93427
1.92063
1.90743
1.89537
1.88432
1.87472
1.86657
1.85964
1.85352
1.8494
1.84735
1.84747
1.84805
1.85031
1.85499
1.86094
1.86673
1.87199
1.8758
1.87824
1.87894
1.87869
1.87793
1.87644
1.87456
1.87151
1.86859
1.86494
1.86178
1.85781
1.85433
1.85009
1.84622
1.84185
1.83768
1.83327
1.82899
1.82463
1.82044
1.81616
1.8121
1.80793
1.804
1.80006
1.7964
1.7929
1.78974
1.78701
1.78487
1.78345
1.78252
1.78267
1.78367
1.78546
1.78875
1.7942
1.80258
1.81221
1.82379
1.83437
1.84505
1.85316
1.85988
1.86352
1.86585
1.86496
2.5912
2.5428
2.4832
2.44067
2.40959
2.38687
2.36894
2.35401
2.34009
2.32684
2.31373
2.30065
2.28773
2.27452
2.26098
2.24671
2.23194
2.21649
2.20083
2.18472
2.16842
2.15174
2.1349
2.11766
2.10041
2.08271
2.06529
2.0476
2.0304
2.01326
1.99665
1.98043
1.96463
1.94949
1.93469
1.92068
1.90718
1.89469
1.88299
1.87223
1.86279
1.8544
1.84758
1.84099
1.83622
1.83301
1.83278
1.83326
1.83496
1.83859
1.84436
1.85018
1.85611
1.8607
1.8637
1.86531
1.86527
1.86452
1.86324
1.8614
1.85875
1.85546
1.85207
1.84831
1.84464
1.84061
1.83662
1.83237
1.82813
1.8238
1.81946
1.81517
1.81086
1.80672
1.80263
1.79866
1.79495
1.79126
1.78809
1.78494
1.78268
1.78061
1.77969
1.77905
1.77943
1.78067
1.78326
1.78683
1.79405
1.80251
1.81371
1.82444
1.83565
1.8449
1.85288
1.85819
1.86163
1.86297
1.86341
1.86189
2.66251
2.59021
2.52427
2.47433
2.43849
2.41254
2.39161
2.37341
2.35662
2.34048
2.32468
2.30928
2.2944
2.2798
2.26508
2.25009
2.23455
2.21879
2.20261
2.18643
2.16994
2.1532
2.13653
2.11926
2.1024
2.08484
2.06799
2.05063
2.03403
2.01722
2.00106
1.98497
1.96943
1.9542
1.93953
1.92541
1.91193
1.8991
1.88698
1.87571
1.86516
1.85577
1.84738
1.84014
1.83387
1.82873
1.82554
1.82455
1.82471
1.82592
1.82847
1.83304
1.83837
1.84472
1.84943
1.85335
1.85526
1.8554
1.8546
1.85363
1.85175
1.84927
1.84602
1.84245
1.83865
1.83474
1.83067
1.82665
1.82229
1.81816
1.81367
1.80944
1.80499
1.80084
1.79664
1.79288
1.78916
1.78605
1.78314
1.78097
1.7795
1.77864
1.77869
1.77924
1.78062
1.78346
1.78935
1.79656
1.80674
1.81714
1.82851
1.83865
1.84752
1.85441
1.85903
1.86168
1.86262
1.86254
1.8621
1.85994
2.72318
2.64163
2.57727
2.52973
2.49267
2.46209
2.43567
2.41201
2.38931
2.36792
2.34791
2.32932
2.31201
2.29573
2.27936
2.26323
2.24651
2.23003
2.21301
2.19645
2.17944
2.16263
2.14558
2.12856
2.11156
2.09455
2.07757
2.06083
2.0441
2.02783
2.01157
1.99593
1.98033
1.96555
1.95085
1.93706
1.92349
1.91067
1.89827
1.88648
1.87528
1.86487
1.85522
1.84682
1.83927
1.83278
1.82717
1.82359
1.82183
1.82201
1.8232
1.82559
1.82823
1.83322
1.8383
1.84344
1.84748
1.84954
1.85056
1.85011
1.84882
1.84713
1.84512