/*--------------------------------*- C++ -*----------------------------------*\
  =========                 |
  \\      /  F ield         | OpenFOAM: The Open Source CFD Toolbox
   \\    /   O peration     | Website:  https://openfoam.org
    \\  /    A nd           | Version:  9
     \\/     M anipulation  |
\*---------------------------------------------------------------------------*/
FoamFile
{
    format      ascii;
    class       volVectorField;
    location    "8.5";
    object      U;
}
// * * * * * * * * * * * * * * * * * * * * * * * * * * * * * * * * * * * * * //

dimensions      [0 1 -1 0 0 0 0];

internalField   nonuniform List<vector> 
5250
(
(2.99999 -3.81526e-09 0)
(2.99998 1.34371e-07 0)
(2.99995 9.89507e-08 0)
(2.99988 1.34424e-06 0)
(2.99971 7.24889e-07 0)
(2.99929 7.9958e-06 0)
(2.99825 4.20941e-06 0)
(2.9957 4.68444e-05 0)
(2.98928 2.76305e-05 0)
(2.97317 0.000252392 0)
(2.93076 0.000324135 0)
(2.81212 0.00128042 0)
(2.46496 0.00309337 0)
(1.50654 0.00939179 0)
(0.668174 0.0223291 0)
(0.543189 0.0229813 0)
(0.567033 0.0237599 0)
(0.55845 0.0253873 0)
(0.504521 0.0271879 0)
(0.418293 0.0292428 0)
(0.33685 0.0317409 0)
(0.26811 0.0346392 0)
(0.19844 0.03772 0)
(0.11928 0.0413458 0)
(0.0523065 0.0465432 0)
(2.99999 1.92379e-08 0)
(2.99998 2.72178e-07 0)
(2.99996 5.93176e-07 0)
(2.99989 2.69225e-06 0)
(2.99972 4.42747e-06 0)
(2.9993 1.70123e-05 0)
(2.99828 2.75961e-05 0)
(2.99572 0.000103171 0)
(2.98945 0.000171214 0)
(2.97341 0.000606048 0)
(2.93161 0.00123101 0)
(2.81447 0.00367032 0)
(2.47153 0.00978214 0)
(1.522 0.0289173 0)
(0.677649 0.0677007 0)
(0.54165 0.0663512 0)
(0.566246 0.065824 0)
(0.558311 0.0683986 0)
(0.504422 0.0714045 0)
(0.418361 0.0751225 0)
(0.336882 0.0794874 0)
(0.267539 0.0841741 0)
(0.196851 0.0885794 0)
(0.116363 0.0929097 0)
(0.0489262 0.0972782 0)
(3 5.74162e-08 0)
(2.99998 3.64322e-07 0)
(2.99996 1.25774e-06 0)
(2.99989 3.59518e-06 0)
(2.99973 9.39761e-06 0)
(2.99931 2.43822e-05 0)
(2.99832 5.80059e-05 0)
(2.99582 0.000151339 0)
(2.98969 0.00035397 0)
(2.97405 0.00091469 0)
(2.9333 0.00226705 0)
(2.8193 0.00605389 0)
(2.48591 0.0168288 0)
(1.55587 0.0492465 0)
(0.699637 0.116936 0)
(0.539815 0.112266 0)
(0.566789 0.110276 0)
(0.560938 0.115028 0)
(0.507702 0.120726 0)
(0.422476 0.128024 0)
(0.341319 0.136131 0)
(0.271512 0.144658 0)
(0.199827 0.152853 0)
(0.117885 0.16041 0)
(0.048559 0.166165 0)
(3 8.65042e-08 0)
(2.99998 4.75267e-07 0)
(2.99996 1.80336e-06 0)
(2.99989 4.74202e-06 0)
(2.99974 1.34434e-05 0)
(2.99934 3.24415e-05 0)
(2.99839 8.46435e-05 0)
(2.99597 0.000200396 0)
(2.99008 0.00052251 0)
(2.97501 0.00123811 0)
(2.93588 0.00325568 0)
(2.82664 0.00843675 0)
(2.50765 0.0237145 0)
(1.6086 0.0689891 0)
(0.733505 0.167091 0)
(0.536677 0.157494 0)
(0.568604 0.153585 0)
(0.566663 0.160815 0)
(0.514657 0.169474 0)
(0.430882 0.180694 0)
(0.350294 0.192888 0)
(0.280233 0.205773 0)
(0.207464 0.21849 0)
(0.123302 0.230049 0)
(0.0504278 0.237689 0)
(3 1.01716e-07 0)
(2.99998 6.41676e-07 0)
(2.99996 2.2498e-06 0)
(2.9999 6.26657e-06 0)
(2.99975 1.68691e-05 0)
(2.99937 4.19811e-05 0)
(2.99846 0.000107113 0)
(2.99618 0.00026258 0)
(2.99056 0.000658335 0)
(2.97633 0.00163305 0)
(2.9393 0.00412927 0)
(2.83635 0.0109161 0)
(2.53669 0.0303421 0)
(1.68035 0.0882169 0)
(0.779216 0.218898 0)
(0.531778 0.202979 0)
(0.571736 0.196374 0)
(0.575548 0.205886 0)
(0.525209 0.217368 0)
(0.443396 0.232498 0)
(0.363621 0.249029 0)
(0.293428 0.266758 0)
(0.219462 0.284745 0)
(0.132146 0.301321 0)
(0.0541722 0.311784 0)
(3 1.40906e-07 0)
(2.99999 7.09895e-07 0)
(2.99996 2.98564e-06 0)
(2.9999 6.98679e-06 0)
(2.99977 2.21911e-05 0)
(2.99941 4.71285e-05 0)
(2.99857 0.000139353 0)
(2.99643 0.000298054 0)
(2.99122 0.000841032 0)
(2.97791 0.00190481 0)
(2.94361 0.00514181 0)
(2.84853 0.0130644 0)
(2.5724 0.0368663 0)
(1.77317 0.106419 0)
(0.838267 0.272247 0)
(0.526569 0.248696 0)
(0.577285 0.238811 0)
(0.588563 0.250567 0)
(0.540193 0.264851 0)
(0.460881 0.284065 0)
(0.382242 0.30549 0)
(0.312181 0.329063 0)
(0.236976 0.353799 0)
(0.145636 0.377564 0)
(0.0604235 0.393232 0)
(3 1.51804e-07 0)
(2.99999 8.64569e-07 0)
(2.99997 3.22094e-06 0)
(2.99991 8.60389e-06 0)
(2.99978 2.40159e-05 0)
(2.99947 5.77596e-05 0)
(2.99867 0.000153028 0)
(2.99677 0.000357536 0)
(2.9919 0.000947033 0)
(2.97992 0.00223991 0)
(2.94858 0.00588854 0)
(2.8629 0.0151308 0)
(2.61489 0.0423494 0)
(1.88692 0.122388 0)
(0.912626 0.323949 0)
(0.524361 0.294173 0)
(0.587926 0.281137 0)
(0.607654 0.294781 0)
(0.561122 0.311701 0)
(0.48474 0.335277 0)
(0.407644 0.362346 0)
(0.338165 0.393054 0)
(0.262136 0.426677 0)
(0.166247 0.461186 0)
(0.0709791 0.487022 0)
(3 1.38261e-07 0)
(2.99999 1.04343e-06 0)
(2.99997 3.23631e-06 0)
(2.99992 1.02509e-05 0)
(2.99981 2.41583e-05 0)
(2.99952 6.87796e-05 0)
(2.99882 0.000152079 0)
(2.99709 0.000431172 0)
(2.99279 0.000946907 0)
(2.98202 0.00263654 0)
(2.95436 0.0061534 0)
(2.87896 0.0168607 0)
(2.66258 0.0457184 0)
(2.02103 0.133328 0)
(1.0054 0.367326 0)
(0.533475 0.341441 0)
(0.607656 0.327026 0)
(0.63523 0.340063 0)
(0.590227 0.358325 0)
(0.517164 0.386122 0)
(0.442018 0.419547 0)
(0.373812 0.458892 0)
(0.298195 0.504011 0)
(0.198682 0.554689 0)
(0.0895573 0.601309 0)
(3 1.55714e-07 0)
(2.99999 9.69628e-07 0)
(2.99997 3.41838e-06 0)
(2.99993 9.52753e-06 0)
(2.99983 2.56592e-05 0)
(2.99958 6.33238e-05 0)
(2.99897 0.000163822 0)
(2.99743 0.00039574 0)
(2.99373 0.00101527 0)
(2.98426 0.00248198 0)
(2.96043 0.00637485 0)
(2.89603 0.0164431 0)
(2.71266 0.0454622 0)
(2.17095 0.131499 0)
(1.12534 0.379456 0)
(0.572263 0.38448 0)
(0.643229 0.378108 0)
(0.673873 0.38713 0)
(0.630354 0.406201 0)
(0.561022 0.437024 0)
(0.488269 0.477426 0)
(0.422253 0.525786 0)
(0.349931 0.584754 0)
(0.25216 0.660797 0)
(0.124559 0.750604 0)
(3 1.49392e-07 0)
(2.99999 8.32978e-07 0)
(2.99998 3.16632e-06 0)
(2.99994 8.20551e-06 0)
(2.99985 2.372e-05 0)
(2.99964 5.4651e-05 0)
(2.9991 0.000150571 0)
(2.9978 0.000338661 0)
(2.99453 0.000921723 0)
(2.98649 0.002114 0)
(2.96601 0.0056489 0)
(2.91162 0.0139887 0)
(2.75922 0.0385149 0)
(2.31147 0.109404 0)
(1.2696 0.325772 0)
(0.636994 0.41169 0)
(0.686428 0.433649 0)
(0.716057 0.433891 0)
(0.678135 0.455189 0)
(0.615066 0.487773 0)
(0.546799 0.53475 0)
(0.485279 0.591529 0)
(0.4244 0.668817 0)
(0.343789 0.786883 0)
(0.192377 0.993526 0)
(3 1.22638e-07 0)
(2.99999 7.723e-07 0)
(2.99998 2.69105e-06 0)
(2.99995 7.56014e-06 0)
(2.99987 1.99876e-05 0)
(2.99968 5.01594e-05 0)
(2.99921 0.000125024 0)
(2.99807 0.000308844 0)
(2.99521 0.000759853 0)
(2.98821 0.00187258 0)
(2.97031 0.00466694 0)
(2.92342 0.011787 0)
(2.79188 0.0313603 0)
(2.40714 0.0873715 0)
(1.41125 0.259284 0)
(0.701997 0.453334 0)
(0.705997 0.487048 0)
(0.734568 0.484104 0)
(0.718637 0.504321 0)
(0.669568 0.537151 0)
(0.61267 0.587116 0)
(0.564132 0.651831 0)
(0.532831 0.744631 0)
(0.530609 0.889174 0)
(0.565221 1.13069 0)
(3 1.02481e-07 0)
(2.99999 7.71974e-07 0)
(2.99998 2.33397e-06 0)
(2.99995 7.55853e-06 0)
(2.99989 1.74859e-05 0)
(2.99972 4.95477e-05 0)
(2.99932 0.000110534 0)
(2.99833 0.000301593 0)
(2.99583 0.000679293 0)
(2.98975 0.0018124 0)
(2.97426 0.00422086 0)
(2.93381 0.0111398 0)
(2.8216 0.0286739 0)
(2.49366 0.0805584 0)
(1.5922 0.235274 0)
(0.8043 0.505881 0)
(0.714233 0.52651 0)
(0.744179 0.528276 0)
(0.748086 0.546317 0)
(0.717681 0.580947 0)
(0.679383 0.631499 0)
(0.651016 0.701233 0)
(0.651048 0.799108 0)
(0.703369 0.936116 0)
(0.829116 1.11389 0)
(3 1.14237e-07 0)
(2.99999 6.59077e-07 0)
(2.99998 2.47118e-06 0)
(2.99996 6.49926e-06 0)
(2.9999 1.83009e-05 0)
(2.99976 4.37789e-05 0)
(2.99942 0.00011397 0)
(2.99855 0.000273665 0)
(2.99647 0.000688746 0)
(2.99116 0.00168662 0)
(2.97809 0.00421859 0)
(2.94375 0.0105885 0)
(2.84962 0.0279328 0)
(2.5767 0.0772531 0)
(1.79379 0.224463 0)
(0.935402 0.546231 0)
(0.724667 0.554817 0)
(0.755204 0.559151 0)
(0.774859 0.576823 0)
(0.762471 0.615052 0)
(0.743028 0.667051 0)
(0.736764 0.736366 0)
(0.759652 0.827302 0)
(0.831798 0.938396 0)
(0.971045 1.04744 0)
(3 1.07791e-07 0)
(3 6.46869e-07 0)
(2.99999 2.31926e-06 0)
(2.99997 6.3936e-06 0)
(2.99992 1.73253e-05 0)
(2.9998 4.25501e-05 0)
(2.99951 0.000110861 0)
(2.9988 0.000262264 0)
(2.99701 0.000685715 0)
(2.99269 0.00161203 0)
(2.98166 0.0042181 0)
(2.95361 0.0102763 0)
(2.877 0.0273773 0)
(2.65715 0.0750328 0)
(2.0116 0.217765 0)
(1.09291 0.578381 0)
(0.7503 0.587336 0)
(0.776501 0.590777 0)
(0.806224 0.602319 0)
(0.808866 0.640509 0)
(0.803654 0.693097 0)
(0.813156 0.757852 0)
(0.849966 0.834827 0)
(0.92608 0.919925 0)
(1.05667 0.990851 0)
(3 9.27999e-08 0)
(3 6.08134e-07 0)
(2.99999 2.06828e-06 0)
(2.99997 6.00621e-06 0)
(2.99993 1.55151e-05 0)
(2.99984 4.02285e-05 0)
(2.9996 9.83342e-05 0)
(2.99903 0.000250104 0)
(2.9976 0.00060495 0)
(2.9941 0.00153902 0)
(2.98531 0.00375699 0)
(2.96305 0.00959563 0)
(2.90371 0.0246619 0)
(2.73581 0.0676702 0)
(2.24335 0.19485 0)
(1.29618 0.555542 0)
(0.822015 0.616725 0)
(0.820005 0.627624 0)
(0.847329 0.632124 0)
(0.861156 0.663276 0)
(0.863843 0.71154 0)
(0.880921 0.76922 0)
(0.92383 0.832914 0)
(0.99842 0.898105 0)
(1.11571 0.949388 0)
(3 7.95535e-08 0)
(3 5.05559e-07 0)
(2.99999 1.76883e-06 0)
(2.99998 4.95261e-06 0)
(2.99995 1.31813e-05 0)
(2.99987 3.3164e-05 0)
(2.99968 8.21952e-05 0)
(2.99923 0.000207401 0)
(2.99809 0.00049656 0)
(2.99532 0.00127394 0)
(2.98838 0.00303365 0)
(2.97106 0.00781636 0)
(2.9254 0.019556 0)
(2.79937 0.0527322 0)
(2.43377 0.14873 0)
(1.52841 0.443644 0)
(0.921883 0.636009 0)
(0.871323 0.662945 0)
(0.890857 0.671057 0)
(0.913297 0.689006 0)
(0.922315 0.727547 0)
(0.942414 0.776246 0)
(0.986175 0.828502 0)
(1.05672 0.879225 0)
(1.16027 0.918361 0)
(3 6.59327e-08 0)
(3 4.28314e-07 0)
(2.99999 1.45064e-06 0)
(2.99998 4.18809e-06 0)
(2.99996 1.07906e-05 0)
(2.9999 2.76094e-05 0)
(2.99975 6.79693e-05 0)
(2.99937 0.000168769 0)
(2.99849 0.000412759 0)
(2.99621 0.00101818 0)
(2.99076 0.00249925 0)
(2.97682 0.00618858 0)
(2.94099 0.0155591 0)
(2.84238 0.0406467 0)
(2.55816 0.112264 0)
(1.77204 0.331814 0)
(1.04273 0.666791 0)
(0.905933 0.696347 0)
(0.921137 0.708603 0)
(0.951375 0.71526 0)
(0.97271 0.743062 0)
(0.996861 0.78252 0)
(1.03972 0.824903 0)
(1.10519 0.864605 0)
(1.1962 0.894757 0)
(3 5.8936e-08 0)
(3 3.52942e-07 0)
(2.99999 1.27578e-06 0)
(2.99999 3.47525e-06 0)
(2.99997 9.50094e-06 0)
(2.99992 2.3071e-05 0)
(2.9998 5.98465e-05 0)
(2.99951 0.000141862 0)
(2.99879 0.000364711 0)
(2.99706 0.000864901 0)
(2.99269 0.00220951 0)
(2.98192 0.00535485 0)
(2.95405 0.0136377 0)
(2.87899 0.0352102 0)
(2.66415 0.0969263 0)
(2.03913 0.281415 0)
(1.21483 0.69365 0)
(0.943217 0.728156 0)
(0.948374 0.738162 0)
(0.981567 0.738932 0)
(1.01512 0.756042 0)
(1.04444 0.78753 0)
(1.08615 0.822189 0)
(1.14634 0.853613 0)
(1.22657 0.876866 0)
(3 4.62283e-08 0)
(3 3.06693e-07 0)
(3 1.01807e-06 0)
(2.99999 3.02127e-06 0)
(2.99997 7.62672e-06 0)
(2.99994 1.99533e-05 0)
(2.99985 4.83844e-05 0)
(2.99963 0.000122347 0)
(2.99909 0.000298397 0)
(2.99775 0.000740994 0)
(2.9945 0.00183046 0)
(2.98634 0.00453629 0)
(2.96586 0.0113981 0)
(2.91162 0.0292814 0)
(2.76003 0.079534 0)
(2.31781 0.228242 0)
(1.45614 0.635561 0)
(1.02829 0.741933 0)
(0.995174 0.758947 0)
(1.01696 0.762628 0)
(1.05548 0.770013 0)
(1.08939 0.793054 0)
(1.12885 0.820701 0)
(1.18303 0.845544 0)
(1.25365 0.86341 0)
(3 3.66952e-08 0)
(3 2.46469e-07 0)
(3 8.0852e-07 0)
(2.99999 2.41707e-06 0)
(2.99998 6.03539e-06 0)
(2.99995 1.58496e-05 0)
(2.99988 3.82334e-05 0)
(2.99972 9.63034e-05 0)
(2.99931 0.000233561 0)
(2.99834 0.000577111 0)
(2.99585 0.00141974 0)
(2.98989 0.00347491 0)
(2.97469 0.0086975 0)
(2.93559 0.0218657 0)
(2.82852 0.0578763 0)
(2.52049 0.161962 0)
(1.7292 0.47948 0)
(1.14073 0.748254 0)
(1.04643 0.778477 0)
(1.05531 0.789805 0)
(1.09216 0.789573 0)
(1.13033 0.802474 0)
(1.16821 0.822178 0)
(1.21673 0.840786 0)
(1.27884 0.853927 0)
(3 2.8222e-08 0)
(3 1.89781e-07 0)
(3 6.35206e-07 0)
(2.99999 1.8596e-06 0)
(2.99999 4.73503e-06 0)
(2.99996 1.23604e-05 0)
(2.99991 2.94924e-05 0)
(2.99979 7.61546e-05 0)
(2.99949 0.000177396 0)
(2.99874 0.000461072 0)
(2.99692 0.00106926 0)
(2.9924 0.00277609 0)
(2.98118 0.00656576 0)
(2.95237 0.0169392 0)
(2.87483 0.043155 0)
(2.65411 0.118793 0)
(2.02515 0.348909 0)
(1.30122 0.760893 0)
(1.08941 0.806284 0)
(1.08621 0.817383 0)
(1.1195 0.813204 0)
(1.16374 0.813591 0)
(1.20279 0.825217 0)
(1.24734 0.838401 0)
(1.30243 0.847546 0)
(3 2.39501e-08 0)
(3 1.43087e-07 0)
(3 5.16795e-07 0)
(3 1.40625e-06 0)
(2.99999 3.83715e-06 0)
(2.99997 9.34238e-06 0)
(2.99994 2.40975e-05 0)
(2.99985 5.73578e-05 0)
(2.99963 0.000146145 0)
(2.99908 0.000347696 0)
(2.99778 0.000881429 0)
(2.99447 0.00211699 0)
(2.98648 0.00534747 0)
(2.96601 0.0131442 0)
(2.91242 0.034053 0)
(2.76329 0.0913887 0)
(2.32777 0.263471 0)
(1.54193 0.696007 0)
(1.17012 0.817054 0)
(1.13012 0.834199 0)
(1.14864 0.835345 0)
(1.19198 0.827494 0)
(1.23477 0.830049 0)
(1.27661 0.837725 0)
(1.32546 0.843308 0)
(3 1.83074e-08 0)
(3 1.07771e-07 0)
(3 3.93453e-07 0)
(3 1.0583e-06 0)
(2.99999 2.9077e-06 0)
(2.99998 7.00127e-06 0)
(2.99995 1.82321e-05 0)
(2.99989 4.28032e-05 0)
(2.99973 0.00011029 0)
(2.99935 0.000257852 0)
(2.99839 0.000661458 0)
(2.99612 0.00156065 0)
(2.99036 0.00397383 0)
(2.97629 0.00962472 0)
(2.93968 0.0246156 0)
(2.84063 0.0643829 0)
(2.5576 0.180219 0)
(1.83686 0.524056 0)
(1.29103 0.810416 0)
(1.18138 0.843941 0)
(1.18291 0.855273 0)
(1.21798 0.846695 0)
(1.26264 0.839331 0)
(1.30404 0.839996 0)
(1.34821 0.841673 0)
(3 1.27601e-08 0)
(3 8.29254e-08 0)
(3 2.84692e-07 0)
(3 8.11388e-07 0)
(2.99999 2.11543e-06 0)
(2.99999 5.37561e-06 0)
(2.99997 1.31502e-05 0)
(2.99992 3.30757e-05 0)
(2.99981 7.8808e-05 0)
(2.99954 0.000199858 0)
(2.99886 0.000471076 0)
(2.99723 0.00120416 0)
(2.99319 0.00284071 0)
(2.9832 0.00727108 0)
(2.95775 0.017689 0)
(2.89005 0.0462366 0)
(2.69929 0.124903 0)
(2.1525 0.366349 0)
(1.46428 0.804636 0)
(1.23242 0.865609 0)
(1.21665 0.874341 0)
(1.23909 0.867114 0)
(1.28333 0.852904 0)
(1.32753 0.846582 0)
(1.36956 0.8436 0)
(3 9.34076e-09 0)
(3 6.15029e-08 0)
(3 2.06787e-07 0)
(3 6.02211e-07 0)
(3 1.53726e-06 0)
(2.99999 3.96094e-06 0)
(2.99998 9.60055e-06 0)
(2.99995 2.41411e-05 0)
(2.99987 5.78472e-05 0)
(2.99968 0.000144846 0)
(2.99923 0.000346443 0)
(2.9981 0.000867218 0)
(2.99542 0.00208619 0)
(2.98864 0.00522656 0)
(2.97205 0.0128036 0)
(2.92882 0.0328146 0)
(2.81183 0.0869907 0)
(2.47376 0.249175 0)
(1.74487 0.669012 0)
(1.33424 0.852988 0)
(1.26753 0.876979 0)
(1.27154 0.881169 0)
(1.30699 0.867871 0)
(1.35076 0.855626 0)
(1.39005 0.847626 0)
(3 6.71829e-09 0)
(3 4.29791e-08 0)
(3 1.4632e-07 0)
(3 4.21221e-07 0)
(3 1.08216e-06 0)
(2.99999 2.76092e-06 0)
(2.99998 6.76461e-06 0)
(2.99996 1.66798e-05 0)
(2.99991 4.08191e-05 0)
(2.99978 9.88654e-05 0)
(2.99947 0.000243726 0)
(2.99868 0.000584265 0)
(2.99683 0.00145456 0)
(2.99212 0.00347746 0)
(2.98072 0.00872055 0)
(2.95133 0.0213795 0)
(2.87301 0.0555701 0)
(2.6525 0.150887 0)
(2.05081 0.43888 0)
(1.46645 0.826218 0)
(1.3126 0.882454 0)
(1.30239 0.892947 0)
(1.32683 0.884065 0)
(1.36903 0.865484 0)
(1.4074 0.851286 0)
(3 4.73306e-09 0)
(3 3.05786e-08 0)
(3 1.03793e-07 0)
(3 2.99392e-07 0)
(3 7.69482e-07 0)
(3 1.96335e-06 0)
(2.99999 4.79899e-06 0)
(2.99997 1.18964e-05 0)
(2.99994 2.89697e-05 0)
(2.99985 7.08117e-05 0)
(2.99964 0.000173127 0)
(2.99911 0.0004203 0)
(2.99783 0.00103729 0)
(2.99469 0.00250603 0)
(2.98696 0.00623579 0)
(2.96756 0.015342 0)
(2.91695 0.0391415 0)
(2.77771 0.104468 0)
(2.37468 0.300068 0)
(1.69714 0.74144 0)
(1.38404 0.880745 0)
(1.33889 0.89983 0)
(1.34811 0.899145 0)
(1.38313 0.878346 0)
(1.42045 0.854217 0)
(3 3.47649e-09 0)
(3 2.08201e-08 0)
(3 7.51377e-08 0)
(3 2.03278e-07 0)
(3 5.54224e-07 0)
(3 1.33574e-06 0)
(2.99999 3.4427e-06 0)
(2.99998 8.11304e-06 0)
(2.99996 2.05966e-05 0)
(2.9999 4.8535e-05 0)
(2.99976 0.000122023 0)
(2.9994 0.000290105 0)
(2.99856 0.000721988 0)
(2.99645 0.00174 0)
(2.99141 0.0042961 0)
(2.97868 0.0105402 0)
(2.94653 0.0264703 0)
(2.86054 0.0688191 0)
(2.61577 0.191191 0)
(2.00098 0.541003 0)
(1.50557 0.857377 0)
(1.38408 0.904429 0)
(1.37347 0.908458 0)
(1.3927 0.891399 0)
(1.42424 0.85837 0)
(3 2.29493e-09 0)
(3 1.46753e-08 0)
(3 4.98922e-08 0)
(3 1.43413e-07 0)
(3 3.69812e-07 0)
(3 9.35245e-07 0)
(3 2.31641e-06 0)
(2.99999 5.63171e-06 0)
(2.99997 1.39414e-05 0)
(2.99993 3.33363e-05 0)
(2.99984 8.32882e-05 0)
(2.99961 0.000197015 0)
(2.99904 0.000495086 0)
(2.99767 0.00116935 0)
(2.99428 0.00294861 0)
(2.98601 0.00704806 0)
(2.96514 0.0178001 0)
(2.91079 0.0447766 0)
(2.76083 0.120428 0)
(2.33212 0.347526 0)
(1.70872 0.782615 0)
(1.44235 0.901499 0)
(1.40012 0.91154 0)
(1.40282 0.896069 0)
(1.4188 0.858839 0)
(3 1.49947e-09 0)
(3 1.00779e-08 0)
(3 3.33929e-08 0)
(3 9.83163e-08 0)
(3 2.47276e-07 0)
(3 6.4387e-07 0)
(3 1.53597e-06 0)
(2.99999 3.89861e-06 0)
(2.99998 9.20175e-06 0)
(2.99996 2.31048e-05 0)
(2.99989 5.48426e-05 0)
(2.99974 0.000136339 0)
(2.99937 0.000326279 0)
(2.99849 0.000804557 0)
(2.99631 0.00195129 0)
(2.99104 0.00478044 0)
(2.97786 0.0118129 0)
(2.94455 0.0294586 0)
(2.85549 0.0771274 0)
(2.60199 0.215088 0)
(2.00069 0.587845 0)
(1.55168 0.873606 0)
(1.43356 0.910484 0)
(1.41217 0.889666 0)
(1.40975 0.843957 0)
(3 1.02214e-09 0)
(3 6.56464e-09 0)
(3 2.25122e-08 0)
(3 6.41563e-08 0)
(3 1.66084e-07 0)
(3 4.21124e-07 0)
(3 1.02612e-06 0)
(3 2.54634e-06 0)
(2.99999 6.11301e-06 0)
(2.99997 1.51094e-05 0)
(2.99993 3.61392e-05 0)
(2.99983 8.90717e-05 0)
(2.99959 0.000213773 0)
(2.99903 0.000524532 0)
(2.9976 0.00126489 0)
(2.99422 0.00310274 0)
(2.98568 0.00755888 0)
(2.96468 0.0187388 0)
(2.90948 0.0475147 0)
(2.75804 0.127168 0)
(2.33184 0.365433 0)
(1.73729 0.788614 0)
(1.47049 0.896657 0)
(1.40851 0.874369 0)
(1.38485 0.806695 0)
(3 6.82746e-10 0)
(3 4.19533e-09 0)
(3 1.48143e-08 0)
(3 4.10229e-08 0)
(3 1.09057e-07 0)
(3 2.68708e-07 0)
(3 6.73676e-07 0)
(3 1.62177e-06 0)
(2.99999 4.00346e-06 0)
(2.99998 9.62556e-06 0)
(2.99996 2.3545e-05 0)
(2.99989 5.69392e-05 0)
(2.99974 0.000138149 0)
(2.99937 0.000336688 0)
(2.99846 0.00081113 0)
(2.99628 0.00199494 0)
(2.99087 0.00481578 0)
(2.97767 0.011947 0)
(2.94382 0.0296932 0)
(2.85423 0.0774306 0)
(2.59931 0.216482 0)
(2.00913 0.580785 0)
(1.54548 0.854249 0)
(1.3907 0.853604 0)
(1.3331 0.747751 0)
(3 4.11083e-10 0)
(3 2.70703e-09 0)
(3 9.15444e-09 0)
(3 2.63771e-08 0)
(3 6.73782e-08 0)
(3 1.72634e-07 0)
(3 4.13112e-07 0)
(3 1.04041e-06 0)
(2.99999 2.4357e-06 0)
(2.99999 6.14165e-06 0)
(2.99997 1.42845e-05 0)
(2.99993 3.59335e-05 0)
(2.99983 8.37424e-05 0)
(2.99959 0.00020939 0)
(2.99898 0.000492019 0)
(2.99755 0.00121977 0)
(2.99396 0.00290102 0)
(2.98535 0.00717302 0)
(2.96344 0.0174672 0)
(2.90675 0.0445087 0)
(2.75111 0.118629 0)
(2.31987 0.340927 0)
(1.68852 0.732042 0)
(1.35062 0.795796 0)
(1.24126 0.659881 0)
(3 2.57841e-10 0)
(3 1.58916e-09 0)
(3 5.60479e-09 0)
(3 1.54891e-08 0)
(3 4.10598e-08 0)
(3 1.01062e-07 0)
(3 2.50855e-07 0)
(3 6.04758e-07 0)
(3 1.46981e-06 0)
(2.99999 3.55525e-06 0)
(2.99998 8.51229e-06 0)
(2.99995 2.07413e-05 0)
(2.99988 4.92002e-05 0)
(2.99971 0.000120794 0)
(2.9993 0.000284005 0)
(2.99829 0.000701054 0)
(2.99583 0.00164991 0)
(2.98978 0.00408109 0)
(2.97476 0.00976614 0)
(2.93612 0.0245003 0)
(2.83248 0.0630605 0)
(2.54044 0.176159 0)
(1.86985 0.474597 0)
(1.28723 0.663913 0)
(1.11149 0.537781 0)
(3 1.46718e-10 0)
(3 9.22107e-10 0)
(3 3.1772e-09 0)
(3 8.94836e-09 0)
(3 2.32264e-08 0)
(3 5.75925e-08 0)
(3 1.41932e-07 0)
(3 3.39452e-07 0)
(3 8.32585e-07 0)
(2.99999 1.95942e-06 0)
(2.99998 4.81462e-06 0)
(2.99996 1.12508e-05 0)
(2.99991 2.77169e-05 0)
(2.99978 6.45448e-05 0)
(2.99946 0.000158865 0)
(2.99869 0.000369857 0)
(2.99678 0.000911121 0)
(2.9921 0.00212956 0)
(2.98037 0.00525082 0)
(2.95047 0.0125896 0)
(2.86956 0.0320651 0)
(2.64175 0.084732 0)
(2.02038 0.243018 0)
(1.19655 0.500292 0)
(0.925936 0.409193 0)
(3 7.57576e-11 0)
(3 5.22058e-10 0)
(3 1.70103e-09 0)
(3 5.05112e-09 0)
(3 1.23885e-08 0)
(3 3.26082e-08 0)
(3 7.41903e-08 0)
(3 1.9269e-07 0)
(3 4.2632e-07 0)
(2.99999 1.10735e-06 0)
(2.99999 2.44152e-06 0)
(2.99997 6.2682e-06 0)
(2.99993 1.40235e-05 0)
(2.99982 3.51891e-05 0)
(2.99955 8.0831e-05 0)
(2.99891 0.000196235 0)
(2.99729 0.00046585 0)
(2.99339 0.00109956 0)
(2.98345 0.00268178 0)
(2.95825 0.00640047 0)
(2.89032 0.0160839 0)
(2.69694 0.0420809 0)
(2.14148 0.117985 0)
(1.11874 0.307512 0)
(0.708533 0.279342 0)
(3 4.49489e-11 0)
(3 2.61249e-10 0)
(3 9.47884e-10 0)
(3 2.53741e-09 0)
(3 6.85142e-09 0)
(3 1.61685e-08 0)
(3 4.13714e-08 0)
(3 9.31246e-08 0)
(3 2.38574e-07 0)
(3 5.2594e-07 0)
(2.99999 1.35311e-06 0)
(2.99997 2.9413e-06 0)
(2.99993 7.56956e-06 0)
(2.99984 1.65252e-05 0)
(2.9996 4.19e-05 0)
(2.99901 9.28474e-05 0)
(2.99753 0.000228954 0)
(2.99395 0.000524798 0)
(2.98479 0.0012632 0)
(2.96154 0.0029907 0)
(2.89873 0.00736952 0)
(2.7188 0.0187516 0)
(2.1877 0.0502994 0)
(1.05238 0.135957 0)
(0.512905 0.170511 0)
(3 2.80332e-11 0)
(3 1.28108e-10 0)
(3 5.70504e-10 0)
(3 1.23117e-09 0)
(3 4.09789e-09 0)
(3 7.87494e-09 0)
(3 2.4653e-08 0)
(3 4.62241e-08 0)
(3 1.40217e-07 0)
(3 2.68026e-07 0)
(2.99999 7.72404e-07 0)
(2.99998 1.5797e-06 0)
(2.99994 4.17254e-06 0)
(2.99985 9.35144e-06 0)
(2.99962 2.20742e-05 0)
(2.99907 5.62962e-05 0)
(2.99765 0.000115725 0)
(2.99425 0.000334383 0)
(2.98549 0.000651317 0)
(2.96332 0.00185423 0)
(2.90316 0.0041784 0)
(2.73068 0.0112249 0)
(2.2142 0.0301069 0)
(1.04449 0.0814202 0)
(0.413187 0.133567 0)
(3 1.6976e-11 0)
(3 7.86622e-11 0)
(3 3.61883e-10 0)
(3 7.44996e-10 0)
(3 2.55717e-09 0)
(3 4.99604e-09 0)
(3 1.45606e-08 0)
(3 3.12297e-08 0)
(3 7.77636e-08 0)
(3 1.91575e-07 0)
(2.99999 4.07111e-07 0)
(2.99998 1.18535e-06 0)
(2.99994 2.13769e-06 0)
(2.99985 7.28689e-06 0)
(2.99964 1.12553e-05 0)
(2.99909 4.49154e-05 0)
(2.99776 6.20339e-05 0)
(2.99439 0.000263996 0)
(2.98605 0.000394381 0)
(2.96449 0.00142503 0)
(2.90634 0.00294463 0)
(2.74005 0.00864638 0)
(2.23908 0.0238237 0)
(1.07446 0.0695775 0)
(0.402061 0.121967 0)
(3 8.69331e-12 0)
(3 6.7282e-11 0)
(3 2.12213e-10 0)
(3 6.38327e-10 0)
(3 1.52312e-09 0)
(3 4.25231e-09 0)
(3 8.80334e-09 0)
(3 2.61285e-08 0)
(3 4.84413e-08 0)
(3 1.55682e-07 0)
(2.99999 2.76965e-07 0)
(2.99998 9.19378e-07 0)
(2.99994 1.58007e-06 0)
(2.99986 5.44949e-06 0)
(2.99965 9.53532e-06 0)
(2.99911 3.17675e-05 0)
(2.99784 5.91609e-05 0)
(2.99453 0.000183321 0)
(2.98646 0.000377574 0)
(2.96544 0.00107524 0)
(2.90915 0.00256985 0)
(2.74801 0.00728384 0)
(2.2637 0.0208798 0)
(1.11195 0.0631924 0)
(0.422055 0.11254 0)
(3 3.34055e-12 0)
(3 6.37091e-11 0)
(3 9.97575e-11 0)
(3 6.18936e-10 0)
(3 7.9657e-10 0)
(3 3.76135e-09 0)
(3 5.32783e-09 0)
(3 2.09903e-08 0)
(3 3.53335e-08 0)
(3 1.11534e-07 0)
(2.99999 2.29511e-07 0)
(2.99998 5.86312e-07 0)
(2.99994 1.54114e-06 0)
(2.99986 2.97091e-06 0)
(2.99966 1.03386e-05 0)
(2.99913 1.58029e-05 0)
(2.99789 6.81612e-05 0)
(2.99466 9.26385e-05 0)
(2.98679 0.000422366 0)
(2.9663 0.00070939 0)
(2.91158 0.00243294 0)
(2.75524 0.00610295 0)
(2.28664 0.0185798 0)
(1.14984 0.0568717 0)
(0.449164 0.104011 0)
(3 2.65557e-12 0)
(3 4.98394e-11 0)
(3 7.25271e-11 0)
(3 4.94255e-10 0)
(3 5.82137e-10 0)
(3 2.92839e-09 0)
(3 4.01894e-09 0)
(3 1.56879e-08 0)
(3 2.76643e-08 0)
(3 8.17952e-08 0)
(2.99999 1.87027e-07 0)
(2.99998 3.97237e-07 0)
(2.99994 1.30863e-06 0)
(2.99986 1.91332e-06 0)
(2.99966 9.08083e-06 0)
(2.99916 8.97823e-06 0)
(2.9979 6.18308e-05 0)
(2.99482 5.60279e-05 0)
(2.98698 0.000376193 0)
(2.96711 0.000547352 0)
(2.91373 0.00211157 0)
(2.76144 0.00520526 0)
(2.30797 0.0162523 0)
(1.18607 0.0503033 0)
(0.47798 0.0947442 0)
(3 5.05353e-12 0)
(3 2.65462e-11 0)
(3 1.0294e-10 0)
(3 2.56413e-10 0)
(3 7.49962e-10 0)
(3 1.56865e-09 0)
(3 4.65289e-09 0)
(3 8.90985e-09 0)
(3 2.79725e-08 0)
(3 4.98143e-08 0)
(2.99999 1.70668e-07 0)
(2.99998 2.90796e-07 0)
(2.99995 1.0394e-06 0)
(2.99987 1.75742e-06 0)
(2.99966 6.49868e-06 0)
(2.99918 1.11162e-05 0)
(2.99793 4.03935e-05 0)
(2.99492 7.95943e-05 0)
(2.9872 0.000247106 0)
(2.96775 0.000580861 0)
(2.91554 0.0016581 0)
(2.76713 0.00457126 0)
(2.32643 0.0139351 0)
(1.22051 0.04351 0)
(0.50667 0.0839512 0)
(3 2.52876e-12 0)
(3 1.72395e-11 0)
(3 6.37013e-11 0)
(3 1.57895e-10 0)
(3 4.80449e-10 0)
(3 1.1209e-09 0)
(3 2.57281e-09 0)
(3 7.53398e-09 0)
(3 1.26216e-08 0)
(3 4.85756e-08 0)
(2.99999 6.71157e-08 0)
(2.99998 3.30693e-07 0)
(2.99995 3.96794e-07 0)
(2.99987 2.21718e-06 0)
(2.99967 2.452e-06 0)
(2.99919 1.54773e-05 0)
(2.99796 1.68464e-05 0)
(2.995 9.8262e-05 0)
(2.98739 0.000145858 0)
(2.9683 0.000576825 0)
(2.91707 0.00127525 0)
(2.77201 0.00400534 0)
(2.34232 0.0117624 0)
(1.25148 0.0367435 0)
(0.533085 0.0720267 0)
(3 4.82577e-12 0)
(3 -5.45827e-12 0)
(3 8.77308e-11 0)
(3 -5.14439e-11 0)
(3 5.73711e-10 0)
(3 -8.16816e-11 0)
(3 2.93757e-09 0)
(3 9.82329e-10 0)
(3 1.37445e-08 0)
(3 2.0981e-08 0)
(2.99999 5.68041e-08 0)
(2.99998 2.2357e-07 0)
(2.99995 2.14472e-07 0)
(2.99987 2.04401e-06 0)
(2.99967 6.0618e-07 0)
(2.99919 1.56888e-05 0)
(2.998 3.32458e-06 0)
(2.99503 0.00010852 0)
(2.9876 5.60244e-05 0)
(2.96869 0.000604554 0)
(2.91845 0.000932569 0)
(2.77611 0.00355857 0)
(2.35561 0.00988847 0)
(1.27836 0.0303357 0)
(0.556302 0.0597867 0)
(3 9.45733e-13 0)
(3 4.78221e-12 0)
(3 1.4618e-11 0)
(3 5.46608e-11 0)
(3 8.45705e-11 0)
(3 2.14892e-10 0)
(3 8.96213e-10 0)
(3 4.45979e-10 0)
(3 8.95213e-09 0)
(3 1.0052e-09 0)
(2.99999 7.56475e-08 0)
(2.99998 7.2444e-09 0)
(2.99995 5.78134e-07 0)
(2.99987 1.5116e-07 0)
(2.99968 4.41266e-06 0)
(2.99919 1.40119e-06 0)
(2.99804 3.05908e-05 0)
(2.99504 2.31777e-05 0)
(2.98781 0.00018386 0)
(2.96904 0.000279316 0)
(2.91954 0.00109606 0)
(2.77989 0.00275436 0)
(2.36598 0.00840098 0)
(1.30088 0.024226 0)
(0.575492 0.04758 0)
(3 2.93036e-13 0)
(3 5.0846e-12 0)
(3 -7.16407e-12 0)
(3 4.64865e-11 0)
(3 -2.05811e-12 0)
(3 7.55482e-11 0)
(3 6.15323e-10 0)
(3 -4.83963e-10 0)
(3 7.72956e-09 0)
(3 -8.59199e-09 0)
(2.99999 7.1506e-08 0)
(2.99998 -5.18803e-08 0)
(2.99995 5.50639e-07 0)
(2.99987 -2.46992e-07 0)
(2.99968 4.05471e-06 0)
(2.99921 -4.02728e-07 0)
(2.99802 2.77283e-05 0)
(2.99516 8.04037e-06 0)
(2.98782 0.000173727 0)
(2.96946 0.000182435 0)
(2.92054 0.000975464 0)
(2.78245 0.00220207 0)
(2.37497 0.00680475 0)
(1.31779 0.0186237 0)
(0.589979 0.0358733 0)
(3 1.80618e-12 0)
(3 -1.08316e-11 0)
(3 3.39454e-11 0)
(3 -1.10996e-10 0)
(3 2.09097e-10 0)
(3 -4.34774e-10 0)
(3 7.727e-10 0)
(3 -6.81145e-10 0)
(3 1.42379e-09 0)
(3 9.96702e-09 0)
(2.99999 -1.81599e-08 0)
(2.99998 1.5427e-07 0)
(2.99995 -1.89537e-07 0)
(2.99987 1.35075e-06 0)
(2.99968 -1.44424e-06 0)
(2.99921 1.0827e-05 0)
(2.99804 -8.3674e-06 0)
(2.99516 7.39259e-05 0)
(2.98795 -1.59641e-05 0)
(2.96972 0.000383768 0)
(2.92122 0.000408597 0)
(2.78495 0.00193839 0)
(2.38085 0.00492978 0)
(1.33113 0.0134218 0)
(0.60072 0.0251248 0)
(3 6.89156e-13 0)
(3 -1.60715e-12 0)
(3 1.57076e-11 0)
(3 -1.86028e-12 0)
(3 1.03935e-10 0)
(3 1.13454e-10 0)
(3 5.40298e-10 0)
(3 8.98437e-10 0)
(3 2.62748e-09 0)
(3 9.96218e-09 0)
(2.99999 1.70525e-08 0)
(2.99998 7.38555e-08 0)
(2.99995 9.62987e-08 0)
(2.99987 5.66037e-07 0)
(2.99968 7.60032e-07 0)
(2.99921 4.02215e-06 0)
(2.99807 4.27497e-06 0)
(2.99515 2.71824e-05 0)
(2.98808 3.47178e-05 0)
(2.96982 0.000167935 0)
(2.92184 0.000310919 0)
(2.7864 0.00106349 0)
(2.38528 0.0029173 0)
(1.3401 0.00807288 0)
(0.608432 0.0149416 0)
(3 2.55504e-12 0)
(3 -2.05672e-12 0)
(3 2.64326e-11 0)
(3 -9.31609e-12 0)
(3 2.06755e-10 0)
(3 -2.09595e-10 0)
(3 1.74045e-09 0)
(3 -2.56491e-09 0)
(3 1.27669e-08 0)
(3 -2.07799e-08 0)
(2.99999 9.17009e-08 0)
(2.99998 -1.40419e-07 0)
(2.99995 5.28746e-07 0)
(2.99987 -7.29185e-07 0)
(2.99968 2.7897e-06 0)
(2.99921 -3.05377e-06 0)
(2.99806 1.26736e-05 0)
(2.99519 -1.12522e-05 0)
(2.98807 5.70344e-05 0)
(2.96996 -1.68098e-05 0)
(2.92198 0.000199371 0)
(2.78718 0.000220846 0)
(2.38717 0.000938735 0)
(1.34484 0.00266803 0)
(0.612385 0.00496485 0)
(1.11978 0.999671 0)
(1.00586 0.710958 0)
(0.0966626 0.429332 0)
(-0.42147 0.0227065 0)
(-0.544185 -0.00871607 0)
(-0.690808 -0.023053 0)
(-0.746875 -0.0107262 0)
(-0.798236 0.0124297 0)
(-0.865823 0.0191205 0)
(-0.931229 0.0158542 0)
(-0.984684 0.00835038 0)
(-1.03143 0.00176237 0)
(-1.07976 -0.00158793 0)
(-1.12258 0.000654274 0)
(-1.14634 0.00178174 0)
(-1.15263 0.000439496 0)
(-1.14933 -0.00223226 0)
(-1.13247 -0.00524998 0)
(-1.09866 -0.00841214 0)
(-1.05058 -0.0114821 0)
(-0.992592 -0.0139344 0)
(-0.929241 -0.0154543 0)
(-0.863892 -0.0162969 0)
(-0.798883 -0.0166056 0)
(-0.735666 -0.0165515 0)
(-0.674657 -0.0162679 0)
(-0.615839 -0.0159667 0)
(-0.558786 -0.0157364 0)
(-0.503059 -0.015733 0)
(-0.448518 -0.0159313 0)
(-0.394444 -0.0166229 0)
(-0.340055 -0.0181352 0)
(-0.286629 -0.0191981 0)
(-0.234527 -0.0199158 0)
(-0.18393 -0.0206831 0)
(-0.134472 -0.0213914 0)
(-0.0858505 -0.0221754 0)
(-0.0387607 -0.0233259 0)
(0.0102292 -0.0251791 0)
(0.0604003 -0.0240842 0)
(0.104833 -0.0222591 0)
(0.148472 -0.0211421 0)
(0.190566 -0.0204166 0)
(0.230692 -0.0195694 0)
(0.268283 -0.0186946 0)
(0.305028 -0.0183273 0)
(0.343314 -0.0185585 0)
(0.381215 -0.0181717 0)
(0.417507 -0.0175033 0)
(0.452479 -0.0168933 0)
(0.486487 -0.0164035 0)
(0.519625 -0.0159319 0)
(0.55199 -0.015476 0)
(0.583584 -0.015035 0)
(0.614438 -0.0145878 0)
(0.644607 -0.0141501 0)
(0.6741 -0.0137177 0)
(0.702954 -0.013286 0)
(0.73119 -0.0128615 0)
(0.758829 -0.0124371 0)
(0.785909 -0.0120168 0)
(0.812446 -0.0116011 0)
(0.838465 -0.0111874 0)
(0.86399 -0.010778 0)
(0.88905 -0.0103687 0)
(0.913661 -0.00996573 0)
(0.937847 -0.00955824 0)
(0.961631 -0.009157 0)
(0.985026 -0.00875076 0)
(1.00805 -0.00834802 0)
(1.03072 -0.00794251 0)
(1.05304 -0.00753895 0)
(1.07502 -0.00713527 0)
(1.09666 -0.00673497 0)
(1.11796 -0.00633748 0)
(1.13892 -0.00594643 0)
(1.15954 -0.00556174 0)
(1.17983 -0.00518649 0)
(1.19979 -0.00482155 0)
(1.21942 -0.0044687 0)
(1.23872 -0.00412805 0)
(1.2577 -0.00380025 0)
(1.27636 -0.0034841 0)
(1.29471 -0.00318066 0)
(1.31275 -0.00288748 0)
(1.33047 -0.00260433 0)
(1.34788 -0.00233434 0)
(1.36498 -0.00207448 0)
(1.38175 -0.00181648 0)
(1.39818 -0.00155848 0)
(1.41425 -0.00130857 0)
(1.42994 -0.00106705 0)
(1.44516 -0.00085536 0)
(1.45987 -0.00063462 0)