/*--------------------------------*- C++ -*----------------------------------*\
  =========                 |
  \\      /  F ield         | OpenFOAM: The Open Source CFD Toolbox
   \\    /   O peration     | Website:  https://openfoam.org
    \\  /    A nd           | Version:  9
     \\/     M anipulation  |
\*---------------------------------------------------------------------------*/
FoamFile
{
    format      ascii;
    class       surfaceScalarField;
    location    "0.9";
    object      alphaPhi0.phase1;
}
// * * * * * * * * * * * * * * * * * * * * * * * * * * * * * * * * * * * * * //

dimensions      [0 3 -1 0 0 0 0];

internalField   nonuniform List<scalar> 
8032
(
-9.45403e-101
8.59685e-104
-2.98952e-100
4.581e-101
-1.50666e-96
1.87383e-97
-5.06577e-93
4.99692e-94
-1.36907e-89
9.7854e-91
-2.99892e-86
1.47436e-87
-5.65748e-83
1.66102e-84
-1.07421e-79
9.95619e-82
-2.13174e-76
-1.39711e-77
-3.25969e-73
-5.68749e-74
-3.36289e-70
-7.10483e-71
-1.11806e-67
-3.32814e-68
-9.7295e-66
-4.15743e-66
-2.10136e-64
-1.45766e-63
-1.35727e-63
-7.27456e-62
9.77883e-67
-8.35455e-61
1.35772e-63
-8.3452e-61
2.08753e-64
-7.16278e-62
9.32134e-66
-1.19516e-63
2.21461e-67
-9.70108e-66
5.51039e-69
-8.99616e-67
3.59569e-71
-1.26891e-68
9.03114e-75
-1.02105e-71
1.01075e-78
-8.62223e-76
1.49481e-84
5.72724e-83
8.78798e-88
4.79721e-86
3.95555e-91
4.25947e-89
1.46311e-94
2.82635e-92
4.35144e-98
1.44316e-95
8.63482e-102
5.41155e-99
2.73108e-102
1.32314e-102
2.29588e-105
-6.99741e-100
5.30383e-100
-6.92094e-96
4.27677e-96
-3.35771e-92
1.6763e-92
-1.10576e-88
4.29015e-89
-2.88009e-85
8.06169e-86
-6.05193e-82
1.16532e-82
-1.09503e-78
1.25948e-79
-2.01228e-75
7.25281e-77
-3.88018e-72
-2.79828e-73
-5.60241e-69
-1.0538e-69
-5.2039e-66
-1.18279e-66
-1.4659e-63
-4.84265e-64
-1.08339e-61
-5.23436e-62
-2.05644e-60
-1.64303e-60
-7.56697e-60
-1.57473e-59
5.271e-63
-4.57165e-59
7.57582e-60
-4.57114e-59
2.05384e-60
-1.57432e-59
1.03461e-61
-1.62134e-60
2.7355e-63
-4.60664e-62
6.4107e-65
-9.44337e-63
5.51746e-67
-1.67534e-64
1.66804e-70
-1.77306e-67
1.92432e-74
-1.66385e-71
2.68645e-80
3.56237e-78
1.88242e-83
3.4421e-81
7.89046e-87
3.19065e-84
3.02475e-90
2.20538e-87
9.18566e-94
1.17362e-90
1.8935e-97
4.58591e-94
1.91456e-101
1.17012e-97
1.45131e-101
-1.35997e-95
1.32152e-95
-1.0602e-91
9.90263e-92
-4.81561e-88
3.61094e-88
-1.53925e-84
8.59854e-85
-3.72863e-81
1.50276e-81
-7.28448e-78
2.02002e-78
-1.22508e-74
2.03025e-75
-2.10936e-71
1.08926e-72
-3.82285e-68
-2.87667e-69
-5.05664e-65
-9.8099e-66
-4.10769e-62
-9.72004e-63
-9.53309e-60
-3.43453e-60
-5.95157e-58
-3.1934e-58
-9.97716e-57
-8.97107e-57
-3.40011e-56
-8.00914e-56
2.23167e-59
-2.29546e-55
3.40386e-56
-2.29521e-55
9.96472e-57
-8.00722e-56
5.69143e-58
-8.85563e-57
1.68492e-59
-2.8251e-58
3.85455e-61
-5.05855e-59
4.31239e-63
-1.10865e-60
1.62953e-66
-1.56403e-63
2.01287e-70
-1.68546e-67
2.90734e-76
5.17451e-74
2.08846e-79
5.41852e-77
9.96744e-83
5.39799e-80
4.11103e-86
4.01376e-83
1.28633e-89
2.2967e-86
2.83236e-93
9.64615e-90
3.64019e-97
2.64578e-93
3.53133e-97
-2.60679e-91
2.54541e-91
-1.77049e-87
1.72356e-87
-5.82571e-84
5.67751e-84
-1.74028e-80
1.22301e-80
-3.8119e-77
1.93288e-77
-6.73127e-74
2.34905e-74
-1.02286e-70
2.1346e-71
-1.60106e-67
1.03802e-68
-2.64442e-64
-1.98932e-65
-3.12242e-61
-6.03224e-62
-2.17224e-58
-5.20246e-59
-4.12101e-56
-1.57127e-56
-2.17046e-54
-1.30482e-54
-3.21462e-53
-3.49492e-53
-1.01452e-52
-3.02152e-52
6.14998e-56
-8.33889e-52
1.01555e-52
-8.33805e-52
3.21063e-53
-3.02082e-52
2.07833e-54
-3.45045e-53
6.98989e-56
-1.15712e-54
1.57419e-57
-1.77985e-55
2.25115e-59
-4.83261e-57
1.09362e-62
-9.14688e-60
1.49589e-66
-1.16434e-63
2.42396e-72
4.92325e-70
1.91037e-75
5.73528e-73
1.02573e-78
6.31901e-76
4.67947e-82
5.19748e-79
1.56678e-85
3.28895e-82
4.7671e-89
1.52712e-85
7.01881e-93
4.63655e-89
6.84816e-93
-4.30797e-87
4.22423e-87
-2.58317e-83
2.52515e-83
-7.54745e-80
7.34339e-80
-1.7062e-76
1.39602e-76
-3.30077e-73
1.94885e-73
-5.14538e-70
2.09159e-70
-6.89961e-67
1.67854e-67
-9.56831e-64
7.23188e-65
-1.40335e-60
-1.0219e-61
-1.44876e-57
-2.71674e-58
-8.50003e-55
-2.01788e-55
-1.31186e-52
-5.60728e-53
-5.81817e-51
-4.1569e-51
-7.60807e-50
-9.84381e-50
-2.22376e-49
-7.86295e-49
1.2266e-52
-2.08817e-48
2.22581e-49
-2.08797e-48
7.59868e-50
-7.86128e-49
5.57842e-51
-9.72206e-50
2.14938e-52
-3.70519e-51
4.82622e-54
-4.54192e-52
8.66874e-56
-1.53595e-53
5.5282e-59
-3.91137e-56
8.60818e-63
-6.01887e-60
1.68174e-68
3.52744e-66
1.50278e-71
4.66862e-69
9.19546e-75
5.82503e-72
4.75004e-78
5.42559e-75
2.1024e-81
3.88704e-78
7.19591e-85
2.04502e-81
1.20013e-88
7.03284e-85
1.17662e-88
-6.2905e-83
6.18669e-83
-3.26889e-79
3.20526e-79
-8.27682e-76
8.07907e-76
-1.4674e-72
1.33062e-72
-2.4613e-69
1.61085e-69
-3.32461e-66
1.49881e-66
-3.86119e-63
1.04288e-63
-4.64733e-60
3.91165e-61
-5.92942e-57
-4.08539e-58
-5.27435e-54
-9.50607e-55
-2.57913e-51
-6.61963e-52
-3.22181e-49
-1.56773e-49
-1.20208e-47
-9.7903e-48
-1.38803e-46
-2.04826e-46
-3.75858e-46
-1.5118e-45
1.86751e-49
-3.86354e-45
3.76168e-46
-3.8632e-45
1.38633e-46
-1.5115e-45
1.15407e-47
-2.02367e-46
5.12334e-49
-8.77105e-48
1.16251e-50
-8.78819e-49
2.57897e-52
-3.73556e-50
2.19264e-55
-1.28127e-52
3.97315e-59
-2.42865e-56
9.93457e-65
2.01357e-62
1.02887e-67
3.07616e-65
7.27359e-71
4.42772e-68
4.33344e-74
4.75702e-71
2.44432e-77
3.93021e-74
9.65479e-81
2.38657e-77
1.85811e-84
9.46918e-81
1.82787e-84
-8.07723e-79
7.96014e-79
-3.58782e-75
3.52546e-75
-7.7645e-72
7.59648e-72
-1.09915e-68
1.06915e-68
-1.57652e-65
1.10706e-65
-1.81969e-62
8.80786e-63
-1.8049e-59
5.24114e-60
-1.85581e-56
1.68975e-57
-2.02951e-53
-1.33812e-54
-1.53834e-50
-2.9143e-51
-6.21187e-48
-1.71244e-48
-6.25903e-46
-3.37174e-46
-1.96346e-44
-1.77121e-44
-2.0027e-43
-3.27426e-43
-5.02582e-43
-2.2335e-42
2.23583e-46
-5.49306e-42
5.0295e-43
-5.49262e-42
2.00027e-43
-2.2331e-42
1.8877e-44
-3.23618e-43
9.69475e-46
-1.59493e-44
2.25364e-47
-1.31459e-45
6.06899e-49
-7.12686e-47
6.96019e-52
-3.29542e-49
1.49328e-55
-7.81425e-53
5.01234e-61
9.38544e-59
6.11086e-64
1.67372e-61
5.04574e-67
2.81789e-64
3.51521e-70
3.5404e-67
2.48226e-73
3.41996e-70
1.1472e-76
2.43011e-73
2.58303e-80
1.12787e-76
2.54682e-80
-8.99739e-75
8.8792e-75
-3.38266e-71
3.32866e-71
-6.19586e-68
6.07131e-68
-7.42729e-65
7.23246e-65
-8.60029e-62
6.33975e-62
-8.39807e-59
4.27071e-59
-7.04197e-56
2.15213e-56
-6.11445e-53
5.91233e-54
-5.6688e-50
-3.82051e-51
-3.63437e-47
-7.10308e-48
-1.20357e-44
-3.49971e-45
-9.75345e-43
-5.70771e-43
-2.57161e-41
-2.51943e-41
-2.31813e-40
-4.11634e-40
-5.39368e-40
-2.59574e-39
2.14197e-43
-6.1441e-39
5.39718e-40
-6.14363e-39
2.31537e-40
-2.59532e-39
2.47612e-41
-4.07013e-40
1.47452e-42
-2.28057e-41
3.56486e-44
-1.52841e-42
1.14399e-45
-1.08068e-43
1.78563e-48
-6.74425e-46
4.5946e-52
-2.02588e-49
2.15284e-57
3.61372e-55
3.12428e-60
7.57683e-58
3.03616e-63
1.50697e-60
2.61711e-66
2.23597e-63
2.18383e-69
2.55145e-66
1.19254e-72
2.14193e-69
3.17252e-76
1.17441e-72
3.13293e-76
-8.5678e-71
8.46315e-71
-2.7079e-67
2.66726e-67
-4.1698e-64
4.09031e-64
-4.2029e-61
4.09662e-61
-3.95942e-58
3.01923e-58
-3.24825e-55
1.71051e-55
-2.28631e-52
7.25106e-53
-1.66233e-49
1.68815e-50
-1.29686e-46
-8.7906e-48
-6.99927e-44
-1.39061e-44
-1.89039e-41
-5.72758e-42
-1.22886e-39
-7.71381e-40
-2.72273e-38
-2.85842e-38
-2.17051e-37
-4.12924e-37
-4.68468e-37
-2.40788e-36
1.65938e-40
-5.48584e-36
4.68737e-37
-5.48545e-36
2.168e-37
-2.40753e-36
2.62598e-38
-4.08466e-37
1.8147e-39
-2.60158e-38
4.64133e-41
-1.3722e-39
1.73933e-42
-1.31087e-40
3.72049e-45
-1.1063e-42
1.15915e-48
-4.25398e-46
7.82452e-54
1.1545e-51
1.36261e-56
2.85788e-54
1.56592e-59
6.76094e-57
1.65817e-62
1.19264e-59
1.64572e-65
1.61861e-62
1.06902e-68
1.61618e-65
3.38302e-72
1.05395e-68
3.34433e-72
-6.88641e-67
6.80662e-67
-1.82165e-63
1.79548e-63
-2.34796e-60
2.30481e-60
-1.98083e-57
1.93222e-57
-1.52622e-54
1.19214e-54
-1.04709e-51
5.65532e-52
-6.1568e-49
2.00802e-49
-3.72594e-46
3.95008e-47
-2.43424e-43
-1.63569e-44
-1.10289e-40
-2.20302e-41
-2.41777e-38
-7.57085e-39
-1.25747e-36
-8.39746e-37
-2.34123e-35
-2.60994e-35
-1.6519e-34
-3.33525e-34
-3.30915e-34
-1.79919e-33
1.04612e-37
-3.94592e-33
3.31084e-34
-3.94567e-33
1.65007e-34
-1.79895e-33
2.26216e-35
-3.3008e-34
1.66638e-36
-2.38922e-35
5.00621e-38
-9.21402e-37
2.14091e-39
-1.27452e-37
6.30821e-42
-1.45936e-39
2.39142e-45
-7.23683e-43
2.39511e-50
3.06876e-48
5.03383e-53
8.98248e-51
6.85717e-56
2.539e-53
8.87303e-59
5.34778e-56
1.0522e-61
8.66978e-59
8.16568e-65
1.03419e-61
3.0875e-68
8.05672e-65
3.05441e-68
-4.62446e-63
4.57285e-63
-1.02118e-59
1.00693e-59
-1.09887e-56
1.07915e-56
-7.73919e-54
7.55293e-54
-4.89457e-51
3.89104e-51
-2.80023e-48
1.54163e-48
-1.37119e-45
4.57329e-46
-6.87728e-43
7.59318e-44
-3.75226e-40
-2.46656e-41
-1.4251e-37
-2.8372e-38
-2.52456e-35
-8.12649e-36
-1.04761e-33
-7.40477e-34
-1.63921e-32
-1.92844e-32
-1.02471e-31
-2.18137e-31
-1.9064e-31
-1.0891e-30
5.38675e-35
-2.29967e-30
1.90727e-31
-2.29954e-30
1.02363e-31
-1.08897e-30
1.58704e-32
-2.15996e-31
1.16385e-33
-1.776e-32
4.49298e-35
-6.86203e-34
2.13852e-36
-9.92022e-35
8.71355e-39
-1.5509e-36
4.02045e-42
-9.96339e-40
6.13601e-47
6.78036e-45
1.56282e-49
2.3462e-47
2.52519e-52
7.94592e-50
3.97826e-55
2.00328e-52
5.65112e-58
3.88952e-55
5.25311e-61
5.55734e-58
2.37938e-64
5.18556e-61
2.35503e-64
-2.57382e-59
2.54584e-59
-4.73846e-56
4.67349e-56
-4.25166e-53
4.17635e-53
-2.49668e-50
2.43721e-50
-1.29954e-47
1.04711e-47
-6.19035e-45
3.4607e-45
-2.51968e-42
8.56724e-43
-1.04421e-39
1.20105e-40
-4.75215e-37
-3.01519e-38
-1.51215e-34
-2.9789e-35
-2.15509e-32
-7.10736e-33
-7.11332e-31
-5.3065e-31
-9.35616e-30
-1.15677e-29
-5.18826e-29
-1.15908e-28
-8.97042e-29
-5.35861e-28
2.27007e-32
-1.08941e-27
8.97403e-29
-1.08935e-27
5.1831e-29
-5.35804e-28
9.07808e-30
-1.14835e-28
5.81526e-31
-1.07197e-29
3.37165e-32
-3.62642e-31
1.73673e-33
-6.14608e-32
9.81649e-36
-1.32922e-33
5.49907e-39
-1.10926e-36
1.30682e-43
1.24174e-41
4.04843e-46
5.07342e-44
7.75256e-49
2.06191e-46
1.48286e-51
6.22898e-49
2.5263e-54
1.45018e-51
2.81634e-57
2.48501e-54
1.53007e-60
2.78084e-57
1.51487e-60
-1.17963e-55
1.16702e-55
-1.8102e-52
1.7856e-52
-1.3541e-49
1.33022e-49
-6.62872e-47
6.47122e-47
-2.84567e-44
2.31827e-44
-1.12806e-41
6.3904e-42
-3.81314e-39
1.32002e-39
-1.30296e-36
1.56491e-37
-4.94638e-34
-2.98405e-35
-1.31869e-31
-2.55416e-32
-1.50488e-29
-5.07476e-30
-3.93684e-28
-3.09598e-28
-4.35441e-27
-5.64087e-27
-2.14509e-26
-5.00977e-26
-3.44932e-26
-2.14479e-25
7.83541e-30
-4.1957e-25
3.45056e-26
-4.19549e-25
2.14311e-26
-2.14458e-25
4.23498e-27
-4.96648e-26
3.27302e-28
-5.26134e-27
2.11684e-29
-2.19111e-28
1.1485e-30
-3.00203e-29
9.02782e-33
-9.1967e-31
6.11111e-36
-9.98102e-34
2.30402e-40
1.88245e-38
8.71541e-43
9.06412e-41
1.97327e-45
4.42368e-43
4.57127e-48
1.60121e-45
9.34194e-51
4.47065e-48
1.24918e-53
9.18973e-51
8.14181e-57
1.23356e-53
8.06231e-57
-4.42793e-52
4.38108e-52
-5.66754e-49
5.59058e-49
-3.53691e-46
3.47436e-46
-1.44439e-43
1.40991e-43
-5.12334e-41
4.21447e-41
-1.69067e-38
9.69675e-39
-4.745e-36
1.67256e-36
-1.33496e-33
1.68086e-34
-4.23233e-31
-2.38371e-32
-9.45537e-29
-1.78991e-29
-8.59538e-27
-2.96068e-27
-1.77455e-25
-1.4711e-25
-1.65136e-24
-2.23733e-24
-7.24024e-24
-1.76764e-23
-1.08431e-23
-7.06479e-23
2.21631e-27
-1.34617e-22
1.08465e-23
-1.34611e-22
7.23416e-24
-7.06415e-23
1.61017e-24
-1.75356e-23
1.5025e-25
-2.10062e-24
1.11234e-26
-1.08202e-25
6.20119e-28
-1.1342e-26
6.7849e-30
-5.14323e-28
5.50712e-33
-7.24694e-31
3.36016e-37
2.3656e-35
1.55805e-39
1.33885e-37
4.15603e-42
7.84711e-40
1.16325e-44
3.39961e-42
2.84963e-47
1.13753e-44
4.56732e-50
2.80305e-47
3.56894e-53
4.5103e-50
3.53449e-53
-1.35457e-48
1.34029e-48
-1.44822e-45
1.42843e-45
-7.55122e-43
7.41631e-43
-2.57628e-40
2.51411e-40
-7.56332e-38
6.27963e-38
-2.07983e-35
1.20783e-35
-4.84837e-33
1.74229e-33
-1.12211e-30
1.48895e-31
-2.97723e-28
-1.52864e-29
-5.57424e-26
-1.02498e-26
-4.01199e-24
-1.41182e-24
-6.50222e-23
-5.72242e-23
-5.09424e-22
-7.34552e-22
-1.99516e-21
-5.34673e-21
-2.80544e-21
-2.18179e-20
5.17275e-25
-4.21715e-20
2.80625e-21
-4.21699e-20
1.99362e-21
-2.18141e-20
4.9811e-22
-5.3146e-21
5.61528e-23
-6.9502e-22
4.89714e-24
-4.3848e-23
2.74888e-25
-3.17994e-24
4.1755e-27
-2.33287e-25
4.01555e-30
-4.24075e-28
4.05803e-34
2.47166e-32
2.31308e-36
1.6386e-34
7.24339e-39
1.15282e-36
2.44345e-41
5.96627e-39
7.16475e-44
2.38894e-41
1.37441e-46
7.04672e-44
1.28574e-49
1.3572e-46
1.27342e-49
-3.36035e-45
3.32483e-45
-3.0075e-42
2.96586e-42
-1.31315e-39
1.28928e-39
-3.7512e-37
3.65908e-37
-9.13018e-35
7.6534e-35
-2.09586e-32
1.23346e-32
-4.06171e-30
1.4913e-30
-7.73043e-28
1.08786e-28
-1.72134e-25
-7.7951e-27
-2.69933e-23
-4.79843e-24
-1.52955e-21
-5.57562e-22
-1.9419e-20
-1.87176e-20
-1.28696e-19
-1.98771e-19
-4.47756e-19
-1.14187e-18
-5.72975e-19
-3.63344e-18
9.554e-23
-6.1517e-18
5.73126e-19
-6.15148e-18
4.47495e-19
-3.63324e-18
1.26282e-19
-1.13574e-18
1.71396e-20
-1.90799e-19
1.80108e-21
-1.50761e-20
1.00712e-22
-5.74923e-22
2.11328e-24
-8.5973e-23
2.43875e-27
-2.02979e-25
4.04053e-31
2.14078e-29
2.83903e-33
1.66028e-31
1.04193e-35
1.40083e-33
4.22523e-38
8.63703e-36
1.47965e-40
4.12932e-38
3.38952e-43
1.45487e-40
3.78771e-46
3.34657e-43
3.75145e-46
-6.72194e-42
6.65022e-42
-5.05117e-39
4.97978e-39
-1.85241e-36
1.81791e-36
-4.44396e-34
4.33215e-34
-8.98387e-32
7.60968e-32
-1.72578e-29
1.03085e-29
-2.78436e-27
1.04773e-27
-4.35771e-25
6.55175e-26
-8.18319e-23
-3.12307e-24
-1.08295e-20
-1.877e-21
-4.81386e-19
-1.70586e-19
-4.79403e-18
-3.88427e-18
-2.54205e-17
-2.26383e-17
-7.54984e-17
-6.16703e-18
-9.13684e-17
-6.16172e-18
1.38116e-20
-2.07083e-16
9.13901e-17
-2.07072e-16
7.54567e-17
-6.16443e-18
2.50447e-17
-5.93964e-18
4.32293e-18
-2.17335e-17
4.59918e-19
-3.25261e-18
3.02353e-20
-1.26778e-19
8.63356e-22
-2.4896e-20
1.1995e-24
-7.63176e-23
3.4449e-28
1.59664e-26
3.00124e-30
1.4416e-28
1.27911e-32
1.45744e-30
6.21003e-35
1.06644e-32
2.58983e-37
6.06956e-35
7.06381e-40
2.54666e-37
9.4019e-43
6.97532e-40
9.3144e-43
-1.07603e-38
1.06434e-38
-6.81478e-36
6.71558e-36
-2.10727e-33
2.06669e-33
-4.26178e-31
4.15109e-31
-7.17059e-29
6.14588e-29
-1.15648e-26
7.02643e-27
-1.55625e-24
6.0261e-25
-2.00647e-22
3.24576e-23
-3.26808e-20
-9.63812e-22
-3.66079e-18
-5.4735e-19
-1.16014e-16
-4.33873e-18
-8.23333e-16
0
-3.92868e-15
0
-1.14438e-14
0
-1.31837e-14
-7.93985e-15
1.81394e-18
-2.86141e-14
1.31865e-14
-2.86129e-14
1.14358e-14
-7.92893e-15
3.87637e-15
0
7.57833e-16
0
1.07887e-16
-2.35595e-19
7.45407e-18
-4.07511e-19
2.78128e-19
-5.48538e-18
4.44242e-22
-2.09909e-20
2.54405e-25
1.02908e-23
2.76125e-27
1.08299e-25
1.35264e-29
1.31147e-27
7.82271e-32
1.13292e-29
3.87026e-34
7.64588e-32
1.25202e-36
3.80585e-34
1.97729e-39
1.23649e-36
1.95942e-39
-1.35739e-35
1.34213e-35
-7.2801e-33
7.16925e-33
-1.90737e-30
1.86885e-30
-3.26764e-28
3.1789e-28
-4.58632e-26
3.98487e-26
-6.23573e-24
3.86482e-24
-7.03244e-22
2.81041e-22
-7.58643e-20
1.31444e-20
-9.74577e-18
-5.62569e-19
-9.0612e-16
-4.88838e-19
-2.37576e-14
0
-1.33068e-13
0
-5.43638e-13
0
-1.4462e-12
0
-1.55386e-12
-1.0611e-12
1.95899e-16
-3.32347e-12
1.55416e-12
-3.32333e-12
1.44543e-12
-1.06e-12
5.38443e-13
0
1.25489e-13
0
1.93049e-14
0
1.55787e-15
0
6.94583e-17
-8.10949e-16
1.11856e-19
-3.67743e-18
1.59649e-22
5.15741e-21
2.17037e-24
6.92777e-23
1.21357e-26
1.00565e-24
8.30165e-29
1.01868e-26
4.84887e-31
8.11098e-29
1.85138e-33
4.76692e-31
3.45269e-36
1.82823e-33
3.42185e-36
-1.30384e-32
1.28815e-32
-5.9568e-30
5.85921e-30
-1.33026e-27
1.30136e-27
-1.94195e-25
1.88556e-25
-2.2808e-23
2.01222e-23
-2.63485e-21
1.66683e-21
-2.4785e-19
1.03712e-19
-2.10411e-17
6.48877e-18
-1.66994e-15
-1.06603e-18
-1.49891e-13
0
-3.93405e-12
0
-1.78961e-11
0
-6.29023e-11
0
-1.50958e-10
0
-1.50098e-10
-1.15193e-10
1.73762e-14
-3.15631e-10
1.50125e-10
-3.15619e-10
1.50909e-10
-1.15113e-10
6.25435e-11
0
1.7275e-11
0
3.45954e-12
0
2.28103e-13
0
1.31212e-14
-9.60356e-14
1.35384e-17
-2.68492e-16
8.22442e-20
2.5267e-18
1.40131e-21
3.68555e-20
8.97379e-24
6.38321e-22
7.19058e-26
7.52079e-24
4.92864e-28
7.01913e-26
2.2078e-30
4.84212e-28
4.83344e-33
2.17927e-30
4.78961e-33
-8.15967e-30
8.03829e-30
-3.19909e-27
3.13525e-27
-6.13567e-25
5.9754e-25
-7.69353e-23
7.42698e-23
-8.06535e-21
6.81597e-21
-7.45347e-19
4.96726e-19
-5.12394e-17
5.67382e-17
-1.98519e-14
1.97154e-14
-1.128e-13
8.29871e-14
-2.74049e-11
0
-5.6688e-10
0
-1.99625e-09
0
-5.89832e-09
0
-1.26775e-08
0
-1.16247e-08
-1.01776e-08
1.2466e-12
-2.4254e-08
1.16267e-08
-2.42533e-08
1.26763e-08
-1.01739e-08
5.88504e-09
0
1.96823e-09
0
5.37558e-10
0
2.85325e-11
0
1.83134e-12
-4.28056e-13
1.62609e-14
8.9966e-14
3.18804e-17
1.61929e-14
4.35562e-19
4.12508e-17
5.33468e-21
3.06218e-19
4.68117e-23
4.19525e-21
3.73622e-25
4.55782e-23
1.94907e-27
3.66417e-25
4.9728e-30
1.92132e-27
4.9233e-30
-4.82089e-27
4.75729e-27
-1.63552e-24
1.60568e-24
-2.717e-22
2.65057e-22
-2.94621e-20
2.85444e-20
-2.3605e-18
2.3295e-18
-3.73165e-16
3.66929e-16
-1.42516e-13
1.41941e-13
-6.56367e-12
6.42414e-12
-4.06841e-11
3.27542e-11
-4.44531e-09
0
-6.41369e-08
0
-1.72382e-07
0
-4.24374e-07
0
-8.07193e-07
0
-6.7627e-07
-7.24712e-07
6.75179e-11
-1.4618e-06
6.76382e-07
-1.46177e-06
8.07222e-07
-7.24601e-07
4.24307e-07
0
1.72211e-07
0
6.3864e-08
0
4.21216e-09
0
1.10391e-10
0
6.29096e-12
3.10528e-11
1.35014e-13
6.16128e-12
3.48898e-16
1.34544e-13
2.04406e-18
3.45111e-16
2.52524e-20
2.01955e-18
2.32941e-22
2.4605e-20
1.40265e-24
2.28332e-22
4.1351e-27
1.38255e-24
4.09458e-27
-2.22533e-24
2.19367e-24
-6.60311e-22
6.47306e-22
-9.61007e-20
9.35863e-20
-9.60492e-18
9.29321e-18
-2.07643e-15
2.05169e-15
-4.56616e-13
4.54022e-13
-2.69645e-11
2.65961e-11
-8.28867e-10
8.05405e-10
-5.07922e-09
4.06224e-09
-5.23593e-07
0
-5.00251e-06
0
-1.01758e-05
0
-2.7293e-05
-3.21688e-05
-5.72342e-05
-0.000842185
-4.62998e-05
-0.00156148
4.27855e-09
-0.00189667
4.63068e-05
-0.00189665
5.72364e-05
-0.00156144
2.72921e-05
-0.000842125
1.01757e-05
-3.21327e-05
5.00188e-06
0
5.22586e-07
0
5.18691e-09
0
8.27472e-10
4.05638e-09
2.68831e-11
8.04013e-10
4.54862e-13
2.65126e-11
2.06719e-15
4.52316e-13
9.50011e-18
2.0439e-15
9.49928e-20
9.20472e-18
6.52615e-22
9.26203e-20
2.1991e-24
6.40436e-22
2.16985e-24
-6.21118e-22
6.0983e-22
-1.61854e-19
1.59177e-19
-2.19955e-17
2.13286e-17
-5.66078e-15
5.58848e-15
-1.17113e-12
1.1649e-12
-5.95681e-11
5.86924e-11
-2.73881e-09
2.69768e-09
-7.20825e-08
6.97765e-08
-1.39552e-07
6.27213e-08
-1.27582e-05
0
-0.000295806
-0.00090918
-0.000696271
-0.00338604
-0.000936228
-0.00568948
-0.00081079
-0.00689007
-0.000451798
-0.00715474
3.61069e-08
-0.00727283
0.000451867
-0.00727283
0.000810847
-0.00715472
0.000936258
-0.00689003
0.000696267
-0.00568866
0.000295785
-0.00338588
1.2751e-05
-0.000909015
1.40452e-07
0
7.20779e-08
6.29922e-08
2.73806e-09
6.97725e-08
5.95481e-11
2.69689e-09
1.17067e-12
5.86718e-11
5.65791e-15
1.16444e-12
2.19768e-17
5.58584e-15
1.61743e-19
2.13122e-17
6.20559e-22
1.59057e-19
6.09325e-22
-1.29881e-19
1.27864e-19
-3.06338e-17
3.02482e-17
-6.35998e-15
6.26068e-15
-1.69162e-12
1.68405e-12
-1.0291e-10
1.02088e-10
-4.23359e-09
4.17408e-09
-1.67726e-07
1.65521e-07
-3.40171e-06
3.27779e-06
-8.01716e-06
0
-0.00143882
-0.00225764
-0.00249083
-0.00553847
-0.00242431
-0.00654998
-0.00173731
-0.00715142
-0.00112171
-0.00750567
-0.000551608
-0.00772484
3.86602e-08
-0.00782448
0.000551687
-0.00782448
0.00112179
-0.00772483
0.0017374
-0.00750565
0.00242439
-0.00715138
0.00249085
-0.0065499
0.00143872
-0.00553834
7.99786e-06
-0.00225734
3.40185e-06
0
1.67702e-07
3.27793e-06
4.23297e-09
1.65497e-07
1.02893e-10
4.17345e-09
1.6913e-12
1.02071e-10
6.3584e-15
1.68372e-12
3.06274e-17
6.25906e-15
1.29854e-19
3.02418e-17
1.27836e-19
-1.33566e-17
1.30844e-17
-3.05462e-15
3.04324e-15
-8.29518e-13
8.2708e-13
-7.13268e-11
7.16635e-11
-3.73766e-09
3.73066e-09
-1.39847e-07
1.38565e-07
-4.86805e-06
4.84801e-06
-6.72551e-05
6.40804e-05
-0.00299371
-0.00183853
-0.00367583
-0.00492358
-0.00294534
-0.00626897
-0.00232337
-0.00717194
-0.00172262
-0.00775217
-0.00114734
-0.00808095
-0.000574475
-0.0082977
3.74409e-08
-0.00839899
0.000574552
-0.00839899
0.00114742
-0.00829769
0.00172271
-0.00808094
0.00232346
-0.00775213
0.00294543
-0.00717187
0.00367594
-0.00626885
0.00299357
-0.00492339
6.72695e-05
-0.00183817
4.86718e-06
6.40959e-05
1.39821e-07
4.84715e-06
3.73691e-09
1.3854e-07
7.13118e-11
3.72992e-09
8.29322e-13
7.16485e-11
3.05404e-15
8.26886e-13
1.33543e-17
3.04268e-15
1.30823e-17
-7.24781e-16
7.10495e-16
-1.5606e-13
1.57262e-13
-1.84044e-11
1.88649e-11
-1.26028e-09
1.29344e-09
-5.98096e-08
6.10083e-08
-1.9551e-06
1.97352e-06
-0.000108053
0.000109621
-0.00340148
-0.000407573
-0.00400786
-0.00370936
-0.00357733
-0.0053541
-0.0031802
-0.00666611
-0.00260509
-0.00774705
-0.00194554
-0.00841172
-0.0012948
-0.00873169
-0.000648202
-0.0089443
3.84193e-08
-0.00904723
0.000648282
-0.00904723
0.00129489
-0.00894429
0.00194563
-0.00873168
0.00260519
-0.00841169
0.00318028
-0.00774696
0.0035774
-0.00666597
0.00400794
-0.00535393
0.00340129
-0.00370913
0.000108032
-0.000407316
1.95463e-06
0.000109599
5.9794e-08
1.97306e-06
1.25996e-09
6.09932e-08
1.83999e-11
1.29314e-09
1.56022e-13
1.88608e-11
7.24611e-16
1.57229e-13
7.10355e-16
-1.592e-14
1.55226e-14
-2.81656e-12
2.93488e-12
-2.8116e-10
2.93093e-10
-1.78612e-08
1.84916e-08
-7.835e-07
8.02855e-07
-2.52869e-05
2.61194e-05
-0.00252465
0.000671595
-0.00413364
-0.00191248
-0.00387704
-0.00396595
-0.00395368
-0.00527746
-0.0036503
-0.00696949
-0.0029821
-0.00841525
-0.00219347
-0.00920035
-0.00143894
-0.00948622
-0.00071484
-0.0096684
3.69203e-08
-0.00976211
0.000714918
-0.00976212
0.00143902
-0.0096684
0.00219356
-0.00948622
0.0029822
-0.00920033
0.00365038
-0.00841514
0.0039537
-0.00696928
0.00387705
-0.00527727
0.0041337
-0.00396577
0.0025243
-0.00191219
2.52772e-05
0.000671591
7.83247e-07
2.61096e-05
1.7855e-08
8.02645e-07
2.81061e-10
1.84871e-08
2.81551e-12
2.9303e-10
1.59134e-14
2.93429e-12
1.5519e-14
-1.16684e-13
1.09653e-13
-1.32717e-11
1.59251e-11
-1.24645e-09
1.50161e-09
-7.51343e-08
9.02032e-08
-3.11971e-06
3.7175e-06
-0.000496721
0.000223927
-0.00412851
0.00066539
-0.00365007
-0.00239085
-0.00391963
-0.00369632
-0.00422567
-0.00497049
-0.00398339
-0.00721145
-0.00326045
-0.00913819
-0.00236916
-0.0100916
-0.00153268
-0.0103227
-0.000752451
-0.0104486
3.21201e-08
-0.0105146
0.000752519
-0.0105146
0.00153276
-0.0104486
0.00236925
-0.0103227
0.00326055
-0.0100916
0.00398345
-0.00913804
0.00422564
-0.00721117
0.00391956
-0.00497024
0.00365003
-0.00369618
0.00412857
-0.00239065
0.000496401
0.000665676
3.11708e-06
0.000223817
7.50459e-08
3.71604e-06
1.24463e-09
9.0175e-08
1.32496e-11
1.50134e-09
1.16536e-13
1.59253e-11
1.09653e-13
-7.37944e-13
7.03494e-13
-8.16453e-11
9.60591e-11
-7.66479e-09
8.99512e-09
-4.65057e-07
5.40859e-07
-1.95368e-05
2.24053e-05
-0.0021964
0.00127542
-0.00324312
-0.000113595
-0.00316751
-0.00246639
-0.00364713
-0.00321195
-0.00407572
-0.00449781
-0.00402068
-0.00681891
-0.00331861
-0.00984027
-0.00240318
-0.0110071
-0.00154602
-0.0111799
-0.000750331
-0.0112443
2.32966e-08
-0.0112649
0.00075038
-0.011265
0.00154608
-0.0112443
0.00240325
-0.0111799
0.00331869
-0.0110071
0.0040207
-0.00984005
0.00407561
-0.00681822
0.003647
-0.00449752
0.00316742
-0.00321184
0.00324313
-0.00246629
0.00219611
-0.000113262
1.95304e-05
0.00127524
4.64306e-07
2.24008e-05
7.64276e-09
5.40833e-07
8.13515e-11
8.99807e-09
7.35776e-13
9.61054e-11
7.04293e-13
-1.96914e-12
2.22299e-12
-1.11409e-10
2.02812e-10
-1.02355e-08
1.89317e-08
-6.3704e-07
1.15817e-06
-3.17631e-05
5.35486e-05
-0.00314468
0.00204936
-0.00235532
-0.000903639
-0.00237561
-0.00244591
-0.0025027
-0.00241334
-0.00195574
-0.00116688
-0.00306205
-0.00162775
-0.00304552
-0.00944031
-0.0022189
-0.0118337
-0.00143921
-0.0119595
-0.000697694
-0.0119858
1.08677e-08
-0.0119627
0.000697716
-0.0119627
0.00143924
-0.0119859
0.00221893
-0.0119596
0.00304556
-0.0118337
0.00306164
-0.0094389
0.00195543
-0.00162688
0.00250259
-0.00116668
0.00237548
-0.00241335
0.0023553
-0.00244591
0.00314474
-0.000903399
3.17508e-05
0.00204928
6.34239e-07
5.35349e-05
1.01246e-08
1.15826e-06
1.07007e-10
1.89485e-08
1.9595e-12
2.00481e-10
2.22967e-12
-4.91741e-12
6.37425e-12
-4.77028e-10
6.59471e-10
-4.68539e-08
6.43265e-08
-3.08241e-06
4.15224e-06
-0.000527866
0.000345851
-0.00225464
0.00204997
-0.00147714
-0.00168284
-0.00137417
-0.00242525
-0.000465716
-0.000596581
-7.0589e-05
-3.99485e-06
-0.00090011
-7.99505e-05
-0.00238087
-0.0073245
-0.00181931
-0.0123952
-0.00121612
-0.0125627
-0.000599082
-0.0126029
-3.20347e-09
-0.0125617
0.000599074
-0.0125617
0.00121611
-0.0126029
0.00181929
-0.0125627
0.00238084
-0.0123952
0.000899354
-0.00732197
7.04852e-05
-7.97897e-05
0.000465764
-3.98854e-06
0.00137412
-0.000596631
0.00147713
-0.00242535
0.00225474
-0.0016827
0.000527643
0.00205019
3.07777e-06
0.000345684
4.62508e-08
4.15072e-06
4.53649e-10
6.43822e-08
4.84493e-12
6.47068e-10
6.40873e-12
-1.25202e-11
1.65026e-11
-9.33172e-10
1.54812e-09
-9.50126e-08
1.56597e-07
-6.48518e-06
1.04814e-05
-0.00104875
0.000938606
-0.00149166
0.00135648
-0.000913272
-0.00226363
-0.000344014
-0.00101876
-2.24943e-06
-1.06603e-08
-6.13868e-06
-7.21448e-08
-0.00011651
-7.81146e-06
-0.00162241
-0.00558102
-0.00136267
-0.012655
-0.000950019
-0.0129754
-0.000480498
-0.0130724
-1.78313e-08
-0.0130422
0.00048046
-0.0130422
0.000949975
-0.0130724
0.00136261
-0.0129754
0.00162231
-0.0126549
0.000116246
-0.00557878
6.12962e-06
-7.80559e-06
2.24673e-06
-7.21109e-08
0.000344023
-1.07262e-08
0.000913279
-0.00101893
0.00149174
-0.00226356
0.00104857
0.00135683
6.48172e-06
0.00093836
9.37159e-08
1.04786e-05
8.75774e-10
1.56701e-07
1.23801e-11
1.50652e-09
1.66031e-11
-2.31296e-11
3.51757e-11
-1.29248e-09
2.74519e-09
-1.39387e-07
2.92539e-07
-9.89607e-06
2.01646e-05
-0.00155036
0.00174194
-0.00133164
0.000515036
-0.000531062
-0.00217112
-1.77282e-08
-5.76704e-09
-1.37004e-08
-5.16168e-09
-4.75676e-08
-2.84221e-08
-4.17418e-06
-3.6189e-06
-0.000922352
-0.00414145
-0.000969735
-0.0126076
-0.000704827
-0.0132403
-0.000365932
-0.0134113
-3.03309e-08
-0.0134081
0.000365868
-0.0134081
0.000704753
-0.0134113
0.000969642
-0.0132403
0.000922079
-0.0126074
4.16907e-06
-0.00414032
4.73318e-08
-3.61804e-06
1.37286e-08
-2.85623e-08
1.7822e-08
-5.2118e-09
0.000531156
-5.81868e-09
0.00133172
-0.0021712
0.00155022
0.000515431
9.8931e-06
0.00174167
1.37704e-07
2.01605e-05
1.18146e-09
2.92635e-07
2.2725e-11
2.6599e-09
3.54248e-11
-3.28173e-11
6.14829e-11
-1.36032e-09
3.91798e-09
-1.75047e-07
4.64593e-07
-1.43171e-05
3.42818e-05
-0.00159255
0.00264702
-0.00170453
-2.09695e-05
-1.15764e-08
-0.00153165
-8.12189e-09
-1.24279e-08
-5.24074e-11
-3.84017e-09
0
-2.65258e-08
-1.66232e-06
-1.93063e-06
-0.000490103
-0.00278532
-0.000663208
-0.0121753
-0.000504045
-0.0133995
-0.000266661
-0.0136487
-3.9723e-08
-0.0136747
0.000266578
-0.0136747
0.000503952
-0.0136487
0.000663096
-0.0133994
0.000489948
-0.0121748
1.66152e-06
-0.00278495
0
-1.93064e-06
6.01536e-11
-2.67273e-08
8.19492e-09
-3.87478e-09
1.16829e-08
-1.24719e-08
0.00170471
-0.00153187
0.00159246
-2.04966e-05
1.43112e-05
0.00264684
1.73529e-07
3.42732e-05
1.18838e-09
4.64587e-07
3.20688e-11
3.81067e-09
6.22733e-11
-3.17686e-11
8.82466e-11
-1.62746e-09
5.23218e-09
-2.92421e-07
7.52048e-07
-7.7622e-05
8.27884e-05
-0.00182627
0.00352185
-0.00246147
-2.76577e-05
-1.2417e-06
-0.00125195
-8.56775e-09
-1.25033e-06
-1.16985e-08
-5.31466e-09
0
-2.9658e-08
-6.99406e-07
-1.20907e-06
-0.000250852
-0.00186013
-0.000424432
-0.0117489
-0.000340544
-0.0134833
-0.000182747
-0.0138065
-4.55063e-08
-0.0138574
0.000182652
-0.0138574
0.000340442
-0.0138065
0.000424318
-0.0134833
0.000250742
-0.0117484
6.99492e-07
-0.00185978
0
-1.20901e-06
1.17443e-08
-2.99331e-08
8.6583e-09
-5.36257e-09
1.24347e-06
-1.25201e-06
0.00246172
-0.00125228
0.00182613
-2.7004e-05
7.75139e-05
0.00352179
2.90896e-07
8.27058e-05
1.3945e-09
7.51614e-07
3.27111e-11
5.16909e-09
9.21287e-11
-4.01699e-11
9.69829e-11
-3.33475e-09
8.09616e-09
-8.38633e-07
1.57839e-06
-0.000407861
0.000311122
-0.0021456
0.00413169
-0.00326271
0.000476252
-0.000143292
-0.00131997
-9.71235e-09
-0.000144537
-7.41069e-09
-1.28446e-08
0
-1.2196e-08
-4.76511e-07
-7.03054e-07
-0.000101528
-0.00145317
-0.000219428
-0.0113291
-0.000197043
-0.0135057
-0.000109287
-0.0138942
-4.85073e-08
-0.0139667
0.000109188
-0.0139667
0.000196939
-0.0138942
0.000219321
-0.0135057
0.000101455
-0.0113286
4.76463e-07
-0.0014527
0
-7.02809e-07
7.47644e-09
-1.22764e-08
9.79516e-09
-1.28771e-08
0.000143447
-0.000144693
0.00326277
-0.00132017
0.0021455
0.000476843
0.000407663
0.00413156
8.37363e-07
0.000310901
3.03943e-09
1.57741e-06
4.48985e-11
8.12596e-09
1.06509e-10
0
6.97729e-11
0
5.24405e-09
0
1.30296e-06
-0.000299634
0.000320969
-0.00205345
0.00418204
-0.0035265
0.00137277
-0.00148711
-0.00135985
-1.28733e-06
-0.000414014
-9.76494e-09
-1.28546e-06
-1.42228e-08
-5.71878e-09
-7.07181e-07
-6.50435e-09
2.72036e-05
-0.00126401
-1.73775e-05
-0.0108951
-6.32936e-05
-0.0134593
-4.15307e-05
-0.013916
-4.95773e-08
-0.0140082
4.14296e-05
-0.0140081
6.31935e-05
-0.013916
1.72719e-05
-0.0134592
-2.72388e-05
-0.0108946
7.06754e-07
-0.00126352
1.42343e-08
-6.56005e-09
9.79506e-09
-5.76212e-09
1.28894e-06
-1.28691e-06
0.00148768
-0.000414284
0.00352635
-0.00135976
0.00205311
0.00137333
0.000299412
0.0041817
0
0.000320737
0
1.30258e-06
0
5.79644e-09
7.96875e-11
4.09771e-12
4.03798e-11
4.47155e-09
6.49349e-10
1.92271e-06
1.64631e-07
7.73064e-05
6.39057e-05
-0.000830927
0.00280124
-0.00236853
0.00235225
-0.0017065
-0.000806961
-7.09741e-05
-0.000523818
-2.68586e-08
-7.22307e-05
-4.11025e-10
-3.16517e-08
7.16631e-11
-7.09693e-09
0.000137726
-0.00107662
0.000171169
-0.0105624
6.41383e-05
-0.013351
2.13077e-05
-0.0138732
-4.82472e-08
-0.0139868
-2.13992e-05
-0.0139868
-6.42378e-05
-0.0138731
-0.000171255
-0.013351
-0.00013774
-0.0105619
-7.23338e-11
-0.00107619
4.14459e-10
-7.15907e-09
2.69153e-08
-3.17339e-08
7.10526e-05
-7.23105e-05
0.0017068
-0.000524094
0.00236802
-0.000806634
0.000830422
0.00235262
-7.73867e-05
0.00280044
-1.91985e-06
6.38053e-05
-4.7238e-09
1.7187e-07
-4.45357e-12
7.17959e-10