/*--------------------------------*- C++ -*----------------------------------*\
  =========                 |
  \\      /  F ield         | OpenFOAM: The Open Source CFD Toolbox
   \\    /   O peration     | Website:  https://openfoam.org
    \\  /    A nd           | Version:  9
     \\/     M anipulation  |
\*---------------------------------------------------------------------------*/
FoamFile
{
    format      ascii;
    class       volScalarField;
    location    "0.9";
    object      p;
}
// * * * * * * * * * * * * * * * * * * * * * * * * * * * * * * * * * * * * * //

dimensions      [1 -1 -2 0 0 0 0];

internalField   nonuniform List<scalar> 
4096
(
-0.000647488
0
0.00126601
0.00311756
0.00548691
0.00828811
0.0114187
0.0147633
0.0181944
0.0215794
0.0247857
0.0276865
0.0301647
0.0321189
0.0334687
0.0341577
0.0341575
0.0334679
0.0321177
0.030163
0.0276844
0.0247831
0.0215763
0.0181909
0.0147593
0.0114142
0.00828309
0.00548125
0.0031111
0.00125841
-9.87644e-06
-0.000655977
-0.0532382
-0.0525678
-0.0512529
-0.0493321
-0.0468743
-0.0439688
-0.0407216
-0.0372531
-0.033694
-0.0301827
-0.0268568
-0.023848
-0.0212776
-0.0192506
-0.0178507
-0.017136
-0.0171362
-0.0178515
-0.0192519
-0.0212794
-0.0238502
-0.0268594
-0.0301858
-0.0336976
-0.0372572
-0.0407262
-0.0439739
-0.04688
-0.0493384
-0.0512599
-0.0525754
-0.0532456
-0.106524
-0.105804
-0.104392
-0.102329
-0.0996903
-0.0965706
-0.0930841
-0.0893601
-0.0855389
-0.0817683
-0.0781966
-0.0749656
-0.0722054
-0.0700288
-0.0685255
-0.0677581
-0.0677583
-0.0685263
-0.0700302
-0.0722073
-0.074968
-0.0781995
-0.0817717
-0.0855428
-0.0893645
-0.0930889
-0.0965759
-0.0996961
-0.102335
-0.104398
-0.105811
-0.10653
-0.160558
-0.159762
-0.1582
-0.155918
-0.152999
-0.149547
-0.14569
-0.141569
-0.137341
-0.133169
-0.129215
-0.125639
-0.122584
-0.120175
-0.118511
-0.117661
-0.117662
-0.118512
-0.120176
-0.122586
-0.125642
-0.129219
-0.133172
-0.137345
-0.141574
-0.145695
-0.149553
-0.153005
-0.155924
-0.158206
-0.159769
-0.160565
-0.215424
-0.214522
-0.212752
-0.210166
-0.206858
-0.202945
-0.198572
-0.1939
-0.189104
-0.184371
-0.179886
-0.175828
-0.172361
-0.169627
-0.167738
-0.166774
-0.166774
-0.167739
-0.169628
-0.172363
-0.175831
-0.17989
-0.184375
-0.189109
-0.193905
-0.198578
-0.202951
-0.206864
-0.210173
-0.212759
-0.214529
-0.215431
-0.27124
-0.270199
-0.268156
-0.265171
-0.26135
-0.256831
-0.251778
-0.246378
-0.240835
-0.235361
-0.230173
-0.225477
-0.221465
-0.2183
-0.216114
-0.214998
-0.214998
-0.216115
-0.218302
-0.221467
-0.225481
-0.230177
-0.235366
-0.24084
-0.246384
-0.251785
-0.256838
-0.261357
-0.265178
-0.268163
-0.270207
-0.271248
-0.328162
-0.326944
-0.324554
-0.321061
-0.316588
-0.311296
-0.305376
-0.299046
-0.292544
-0.286121
-0.280031
-0.274516
-0.269803
-0.266084
-0.263514
-0.262203
-0.262203
-0.263516
-0.266086
-0.269806
-0.27452
-0.280035
-0.286126
-0.29255
-0.299052
-0.305383
-0.311304
-0.316596
-0.321069
-0.324562
-0.326953
-0.32817
-0.386393
-0.384956
-0.382133
-0.378006
-0.37272
-0.366461
-0.359455
-0.351958
-0.344252
-0.336635
-0.329407
-0.32286
-0.31726
-0.312841
-0.309787
-0.308228
-0.308228
-0.309789
-0.312843
-0.317263
-0.322864
-0.329412
-0.336641
-0.344259
-0.351965
-0.359463
-0.36647
-0.372729
-0.378015
-0.382142
-0.384965
-0.386403
-0.446193
-0.444485
-0.441131
-0.436225
-0.429937
-0.422485
-0.414136
-0.405194
-0.395993
-0.38689
-0.378244
-0.370407
-0.3637
-0.358405
-0.354745
-0.352875
-0.352876
-0.354746
-0.358408
-0.363704
-0.370412
-0.37825
-0.386896
-0.396001
-0.405202
-0.414145
-0.422495
-0.429947
-0.436235
-0.441141
-0.444496
-0.446203
-0.507888
-0.505852
-0.501852
-0.495998
-0.488488
-0.479579
-0.469584
-0.458865
-0.447822
-0.436883
-0.426483
-0.417045
-0.408964
-0.402579
-0.398164
-0.395909
-0.39591
-0.398166
-0.402582
-0.408968
-0.417051
-0.426489
-0.43689
-0.447831
-0.458874
-0.469594
-0.479589
-0.488499
-0.49601
-0.501864
-0.505864
-0.5079
-0.571891
-0.569462
-0.564683
-0.557684
-0.548695
-0.538017
-0.526019
-0.513129
-0.499828
-0.486631
-0.474067
-0.462653
-0.45287
-0.445135
-0.439784
-0.437051
-0.437052
-0.439786
-0.445139
-0.452874
-0.462659
-0.474074
-0.486639
-0.499838
-0.513139
-0.52603
-0.538029
-0.548707
-0.557697
-0.564696
-0.569475
-0.571905
-0.638723
-0.635822
-0.630113
-0.621742
-0.610976
-0.598163
-0.583738
-0.568208
-0.552149
-0.536184
-0.520959
-0.507108
-0.495222
-0.485818
-0.479309
-0.475983
-0.475984
-0.479311
-0.485822
-0.495228
-0.507115
-0.520967
-0.536193
-0.55216
-0.56822
-0.58375
-0.598177
-0.610989
-0.621756
-0.630128
-0.635837
-0.638737
-0.709034
-0.705576
-0.698764
-0.688761
-0.675873
-0.660501
-0.643149
-0.62442
-0.605002
-0.585648
-0.567154
-0.5503
-0.53582
-0.524352
-0.516409
-0.512351
-0.512352
-0.516412
-0.524356
-0.535826
-0.550308
-0.567163
-0.585658
-0.605014
-0.624433
-0.643163
-0.660515
-0.675888
-0.688777
-0.69878
-0.705592
-0.70905
-0.783646
-0.779535
-0.771426
-0.7595
-0.744097
-0.725674
-0.704812
-0.682219
-0.658718
-0.635221
-0.612712
-0.592159
-0.574474
-0.560454
-0.550738
-0.545772
-0.545773
-0.550741
-0.560459
-0.574481
-0.592168
-0.612722
-0.635233
-0.658731
-0.682234
-0.704827
-0.72569
-0.744114
-0.759518
-0.771444
-0.779554
-0.783665
-0.863595
-0.858728
-0.849112
-0.834939
-0.816582
-0.794549
-0.769499
-0.742257
-0.713804
-0.685246
-0.657805
-0.632691
-0.611045
-0.593867
-0.581956
-0.575867
-0.575868
-0.58196
-0.593873
-0.611053
-0.6327
-0.657817
-0.68526
-0.71382
-0.742274
-0.769516
-0.794567
-0.816601
-0.834959
-0.849132
-0.858748
-0.863616
-0.950184
-0.944454
-0.933112
-0.916352
-0.894565
-0.868299
-0.838287
-0.805478
-0.771035
-0.736294
-0.702789
-0.672044
-0.645499
-0.624412
-0.60978
-0.6023
-0.602301
-0.609784
-0.624418
-0.645508
-0.672055
-0.702803
-0.736309
-0.771052
-0.805497
-0.838307
-0.868319
-0.894586
-0.916374
-0.933135
-0.944477
-0.950208
-1.04506
-1.03837
-1.02508
-1.00539
-0.979685
-0.948519
-0.912684
-0.873249
-0.831582
-0.789291
-0.748323
-0.710615
-0.678007
-0.652075
-0.634069
-0.624862
-0.624863
-0.634074
-0.652083
-0.678017
-0.710628
-0.748338
-0.789309
-0.831602
-0.87327
-0.912707
-0.948542
-0.979709
-1.00542
-1.02511
-1.03839
-1.04509
-1.15029
-1.14255
-1.12715
-1.10422
-1.07413
-1.03739
-0.994814
-0.947565
-0.897231
-0.845722
-0.795555
-0.749233
-0.709117
-0.677172
-0.654971
-0.643618
-0.64362
-0.654976
-0.677181
-0.709129
-0.749248
-0.795572
-0.845742
-0.897253
-0.947588
-0.99484
-1.03742
-1.07415
-1.10425
-1.12718
-1.14258
-1.15032
-1.26847
-1.25964
-1.24202
-1.21565
-1.1808
-1.1379
-1.08768
-1.03134
-0.970698
-0.907954
-0.846434
-0.789412
-0.739955
-0.700533
-0.673145
-0.65916
-0.659162
-0.673151
-0.700543
-0.739969
-0.789429
-0.846454
-0.907977
-0.970723
-1.03137
-1.08771
-1.13793
-1.18084
-1.21568
-1.24205
-1.25967
-1.2685
-1.40282
-1.39294
-1.37313
-1.34332
-1.30359
-1.25416
-1.19555
-1.12889
-1.05616
-0.979724
-0.904008
-0.833372
-0.772296
-0.723729
-0.690031
-0.672846
-0.672848
-0.690039
-0.723741
-0.772312
-0.833392
-0.904032
-0.979751
-1.05619
-1.12892
-1.19559
-1.25419
-1.30363
-1.34336
-1.37316
-1.39297
-1.40285
-1.55728
-1.54651
-1.52481
-1.49191
-1.44762
-1.39177
-1.3245
-1.24656
-1.15967
-1.06672
-0.972939
-0.885407
-0.810652
-0.75051
-0.708115
-0.686285
-0.686288
-0.708124
-0.750525
-0.810671
-0.88543
-0.972966
-1.06675
-1.1597
-1.24659
-1.32454
-1.39181
-1.44766
-1.49195
-1.52485
-1.54655
-1.55732
-1.7366
-1.72531
-1.70239
-1.66736
-1.6196
-1.55836
-1.48313
-1.39389
-1.29138
-1.17885
-1.06303
-0.956591
-0.865405
-0.78772
-0.7329
-0.704852
-0.704855
-0.732911
-0.787738
-0.865428
-0.956618
-1.06306
-1.17888
-1.29142
-1.39393
-1.48317
-1.55841
-1.61964
-1.66741
-1.70244
-1.72535
-1.73665
-1.9463
-1.93513
-1.91229
-1.87701
-1.82815
-1.76412
-1.68344
-1.58537
-1.46916
-1.33341
-1.18438
-1.04876
-0.942327
-0.859299
-0.795646
-0.761647
-0.761651
-0.795659
-0.859321
-0.942355
-1.04879
-1.18442
-1.33345
-1.4692
-1.58542
-1.68348
-1.76417
-1.8282
-1.87706
-1.91234
-1.93518
-1.94635
-2.19251
-2.18252
-2.16187
-2.12958
-2.08396
-2.02227
-1.94197
-1.83961
-1.70538
-1.53788
-1.37534
-1.2097
-1.08098
-1.01807
-0.977082
-0.955288
-0.955292
-0.977095
-1.0181
-1.08101
-1.20974
-1.37538
-1.53793
-1.70543
-1.83967
-1.94202
-2.02232
-2.08401
-2.12964
-2.16192
-2.18257
-2.19257
-2.48156
-2.4743
-2.45907
-2.43488
-2.39976
-2.35041
-2.27966
-2.16467
-1.99754
-1.82683
-1.66064
-1.53064
-1.42257
-1.36614
-1.33187
-1.31686
-1.31687
-1.33188
-1.36616
-1.42259
-1.53068
-1.66068
-1.82689
-1.99761
-2.16473
-2.27972
-2.35047
-2.39982
-2.43494
-2.45913
-2.47436
-2.48162
-2.81921
-2.81681
-2.81153
-2.80287
-2.79091
-2.77047
-2.69735
-2.54644
-2.39843
-2.3008
-2.1803
-2.05756
-1.9649
-1.90043
-1.85172
-1.8303
-1.8303
-1.85174
-1.90046
-1.96494
-2.05762
-2.18036
-2.30087
-2.3985
-2.54651
-2.69743
-2.77054
-2.79098
-2.80294
-2.81159
-2.81688
-2.81927
-3.20948
-3.21459
-3.22496
-3.24261
-3.2727
-3.28482
-3.1766
-3.06141
-3.06708
-3.05816
-2.90645
-2.73406
-2.59409
-2.49524
-2.42015
-2.38937
-2.38937
-2.42018
-2.49528
-2.59414
-2.73413
-2.90655
-3.05826
-3.06716
-3.0615
-3.17669
-3.2849
-3.27277
-3.24268
-3.22502
-3.21466
-3.20955
-3.65318
-3.66852
-3.70127
-3.76121
-3.84894
-3.88109
-3.80536
-3.88072
-4.01581
-3.98129
-3.76741
-3.51542
-3.30446
-3.16069
-3.05037
-3.00709
-3.0071
-3.0504
-3.16074
-3.30453
-3.51552
-3.76753
-3.98141
-4.01591
-3.88081
-3.80545
-3.88118
-3.84901
-3.76127
-3.70134
-3.66859
-3.65325
-4.14633
-4.17366
-4.23366
-4.34435
-4.48144
-4.498
-4.66107
-4.90189
-5.05821
-5.08456
-4.85904
-4.48938
-4.15441
-3.94078
-3.77723
-3.7145
-3.71451
-3.77727
-3.94086
-4.15452
-4.48952
-4.8592
-5.08469
-5.05831
-4.90197
-4.66114
-4.49807
-4.4815
-4.34441
-4.23373
-4.17373
-4.1464
-4.67999
-4.71913
-4.80696
-4.96323
-5.13972
-5.18924
-5.53726
-5.94211
-6.18827
-6.42741
-6.29584
-5.74854
-5.18293
-4.8453
-4.60557
-4.50515
-4.50517
-4.60563
-4.84539
-5.18307
-5.74877
-6.29605
-6.42754
-6.18835
-5.94217
-5.53729
-5.18927
-5.13978
-4.96328
-4.80702
-4.71919
-4.68006
-5.24049
-5.28982
-5.40162
-5.57889
-5.74166
-5.98947
-6.4301
-6.86497
-7.30611
-7.75333
-7.72367
-7.17434
-6.2837
-5.78229
-5.47492
-5.32894
-5.32896
-5.47498
-5.78238
-6.28387
-7.17461
-7.72386
-7.75338
-7.30615
-6.865
-6.43011
-5.98949
-5.74174
-5.57895
-5.40168
-5.28988
-5.24055
-5.81479
-5.8704
-5.99669
-6.16799
-6.25415
-6.63877
-7.13779
-7.64114
-8.11236
-8.21458
-8.22789
-8.05617
-7.176
-6.61127
-6.29005
-6.12087
-6.12089
-6.2901
-6.61135
-7.17616
-8.0563
-8.22791
-8.2146
-8.11236
-7.64113
-7.13779
-6.63882
-6.25423
-6.16804
-5.99675
-5.87047
-5.81485
-6.39253
-6.44991
-6.57866
-6.73464
-6.74008
-7.05571
-7.66587
-8.27517
-8.41301
-8.43393
-8.51407
-8.47295
-7.83154
-7.29756
-7.00057
-6.8336
-6.83361
-7.00062
-7.29762
-7.83166
-8.47297
-8.51403
-8.43392
-8.41301
-8.27516
-7.66585
-7.05575
-6.74013
-6.7347
-6.57872
-6.44997
-6.3926
-6.96913
-7.02666
-7.15136
-7.29293
-7.27705
-7.34958
-8.19088
-8.61424
-8.60709
-8.62907
-8.68872
-8.69435
-8.30005
-7.8475
-7.59282
-7.44333
-7.44334
-7.59285
-7.84755
-8.30013
-8.69435
-8.68868
-8.62906
-8.60709
-8.61424
-8.19082
-7.34961
-7.27709
-7.29299
-7.15142
-7.02671
-6.96919
-7.53681
-7.60001
-7.72927
-7.85803
-7.8558
-7.7974
-8.64013
-8.81538
-8.80285
-8.81311
-8.85264
-8.8848
-8.64921
-8.28597
-8.07713
-7.94848
-7.94849
-8.07715
-8.286
-8.64925
-8.8848
-8.85262
-8.8131
-8.80285
-8.81537
-8.64008
-7.7974
-7.85586
-7.85812
-7.72933
-7.60006
-7.53686
-8.08531
-8.16286
-8.31728
-8.44204
-8.45922
-8.38154
-8.97311
-9.03056
-9.02165
-9.01342
-9.03352
-9.07747
-8.93747
-8.63875
-8.46721
-8.35674
-8.35674
-8.46723
-8.63876
-8.93749
-9.07747
-9.03351
-9.01341
-9.02165
-9.03054
-8.97306
-8.38153
-8.4593
-8.44214
-8.31734
-8.1629
-8.08534
-8.58865
-8.69504
-8.9146
-9.1243
-9.23711
-9.1798
-9.34414
-9.29732
-9.28084
-9.2502
-9.23997
-9.27178
-9.18966
-8.91487
-8.77258
-8.67297
-8.67296
-8.77259
-8.91486
-9.18968
-9.27179
-9.23997
-9.2502
-9.28085
-9.29731
-9.3442
-9.18007
-9.23727
-9.12439
-8.91463
-8.69505
-8.58866
-9.0068
-9.158
-9.47837
-9.89496
-10.2991
-10.2829
-9.9661
-9.68288
-9.60253
-9.52919
-9.46554
-9.46065
-9.4036
-9.10941
-8.99689
-8.89756
-8.89755
-8.9969
-9.10934
-9.40365
-9.46066
-9.46555
-9.5292
-9.60256
-9.68292
-9.96626
-10.2831
-10.2992
-9.89495
-9.47834
-9.15797
-9.00677
-9.29676
-9.48235
-9.88063
-10.4306
-11.254
-11.54
-10.8884
-10.2344
-9.96057
-9.79572
-9.66078
-9.61151
-9.54274
-9.26133
-9.13594
-9.04455
-9.04455
-9.13593
-9.26131
-9.54275
-9.61151
-9.66079
-9.79574
-9.96061
-10.2345
-10.8887
-11.54
-11.2539
-10.4305
-9.88054
-9.48228
-9.2967
-9.40539
-9.58392
-9.98483
-10.5242
-11.2226
-11.5484
-10.9223
-10.4432
-10.1511
-9.93828
-9.76206
-9.67188
-9.60327
-9.33541
-9.19887
-9.12251
-9.1225
-9.19886
-9.3354
-9.60326
-9.67187
-9.76205
-9.93828
-10.1511
-10.4433
-10.9224
-11.5482
-11.2224
-10.5241
-9.98469
-9.58381
-9.40529
-9.32611
-9.4718
-9.79348
-10.2402
-10.6944
-10.8791
-10.6809
-10.4106
-10.1536
-9.92585
-9.7346
-9.61869
-9.53106
-9.31562
-9.1885
-9.12611
-9.12611
-9.18849
-9.3156
-9.53105
-9.61866
-9.73457
-9.92583
-10.1535
-10.4106
-10.6808
-10.8789
-10.6942
-10.2401
-9.79333
-9.47168
-9.326
-9.13078
-9.24334
-9.48361
-9.83385
-10.2125
-10.4099
-10.3742
-10.1871
-9.97745
-9.76628
-9.58399
-9.46365
-9.32001
-9.21119
-9.11893
-9.06987
-9.06987
-9.1189
-9.21116
-9.31999
-9.46361
-9.58394
-9.76623
-9.9774
-10.1871
-10.3741
-10.4097
-10.2123
-9.83368
-9.48347
-9.24322
-9.13067
-8.89632
-8.98173
-9.15906
-9.4165
-9.72201
-9.91505
-9.93095
-9.82476
-9.67223
-9.50705
-9.3594
-9.24638
-9.09103
-9.08437
-9.0239
-8.97995
-8.97994
-9.02387
-9.08432
-9.09098
-9.24632
-9.35934
-9.50698
-9.67215
-9.82466
-9.93084
-9.9149
-9.72185
-9.41635
-9.15893
-8.98163
-8.89623
-8.66943
-8.73136
-8.85771
-9.0362
-9.24388
-9.39976
-9.45018
-9.40786
-9.3164
-9.20741
-9.10787
-9.02397
-8.92345
-8.9456
-8.90248
-8.85948
-8.85948
-8.90245
-8.94553
-8.92337
-9.02391
-9.1078
-9.20733
-9.31631
-9.40775
-9.45006
-9.39962
-9.24374
-9.03608
-8.85761
-8.73127
-8.66936
-8.47376
-8.51583
-8.60033
-8.71803
-8.85225
-8.96682
-9.02348
-9.01749
-8.97282
-8.91384
-8.86154
-8.82023
-8.78227
-8.7791
-8.75572
-8.7207
-8.72069
-8.75569
-8.77904
-8.78219
-8.82016
-8.86147
-8.91377
-8.97273
-9.0174
-9.02338
-8.96671
-8.85215
-8.71794
-8.60025
-8.51576
-8.4737
-8.3176
-8.34464
-8.39835
-8.47327
-8.5583
-8.63418
-8.67974
-8.68968
-8.67531
-8.65284
-8.63585
-8.62655
-8.62124
-8.60818
-8.60246
-8.5775
-8.5775
-8.60243
-8.60813
-8.62118
-8.62649
-8.63579
-8.65277
-8.67524
-8.6896
-8.67965
-8.6341
-8.55822
-8.4732
-8.3983
-8.34459
-8.31755
-8.20084
-8.21759
-8.25037
-8.29568
-8.34642
-8.39219
-8.42272
-8.43595
-8.4377
-8.43659
-8.44056
-8.45002
-8.46028
-8.44481
-8.45248
-8.43705
-8.43704
-8.45245
-8.44476
-8.46023
-8.44997
-8.44051
-8.43654
-8.43764
-8.43589
-8.42266
-8.39213
-8.34636
-8.29563
-8.25033
-8.21755
-8.2008
-8.1199
-8.12971
-8.14857
-8.17404
-8.20193
-8.22682
-8.24431
-8.25433
-8.26094
-8.26915
-8.28233
-8.30062
-8.31486
-8.29456
-8.3149
-8.30902
-8.30901
-8.31488
-8.29452
-8.31482
-8.30058
-8.28229
-8.2691
-8.26089
-8.25428
-8.24426
-8.22677
-8.20189
-8.174
-8.14854
-8.12968
-8.11987
-8.06866
-8.07385
-8.08365
-8.09637
-8.10956
-8.12056
-8.12815
-8.13323
-8.13907
-8.14882
-8.16395
-8.18344
-8.19533
-8.17791
-8.204
-8.20255
-8.20254
-8.20398
-8.17788
-8.1953
-8.18341
-8.16392
-8.14879
-8.13904
-8.1332
-8.12812
-8.12053
-8.10953
-8.09635
-8.08362
-8.07383
-8.06863
-8.04065
-8.04287
-8.04688
-8.0516
-8.05562
-8.05779
-8.05818
-8.05842
-8.06143
-8.06963
-8.0835
-8.10055
-8.11051
-8.09828
-8.12203
-8.12207
-8.12206
-8.12202
-8.09826
-8.11048
-8.10053
-8.08348
-8.06961
-8.06141
-8.0584
-8.05816
-8.05776
-8.05559
-8.05158
-8.04686
-8.04285
-8.04063
-8.03031
-8.03068
-8.03111
-8.03094
-8.02938
-8.02612
-8.02185
-8.01845
-8.01858
-8.02408
-8.03495
-8.04892
-8.05667
-8.05
-8.06578
-8.06549
-8.06549
-8.06577
-8.04998
-8.05664
-8.0489
-8.03492
-8.02406
-8.01856
-8.01843
-8.02183
-8.0261
-8.02936
-8.03092
-8.03109
-8.03066
-8.0303
-8.03323
-8.0325
-8.03083
-8.02782
-8.02309
-8.01674
-8.00975
-8.00396
-8.00167
-8.00436
-8.01193
-8.02252
-8.02752
-8.02575
-8.03146
-8.02971
-8.02971
-8.03145
-8.02574
-8.02751
-8.0225
-8.01191
-8.00434
-8.00165
-8.00394
-8.00973
-8.01673
-8.02307
-8.02781
-8.03082
-8.03249
-8.03322
-8.04606
-8.04473
-8.04194
-8.03745
-8.03113
-8.0233
-8.01496
-8.0078
-8.00374
-8.00397
-8.00835
-8.0153
-8.01671
-8.0176
-8.01516
-8.01147
-8.01146
-8.01515
-8.01759
-8.01669
-8.01528
-8.00834
-8.00395
-8.00372
-8.00779
-8.01495
-8.02328
-8.03112
-8.03744
-8.04192
-8.04472
-8.04605
-8.06634
-8.06473
-8.06144
-8.05636
-8.04948
-8.0412
-8.03248
-8.02476
-8.01961
-8.01795
-8.01959
-8.0232
-8.02053
-8.02162
-8.01378
-8.00834
-8.00833
-8.01377
-8.02161
-8.02051
-8.02318
-8.01958
-8.01794
-8.0196
-8.02475
-8.03247
-8.04119
-8.04947
-8.05635
-8.06143
-8.06472
-8.06632
-8.09225
-8.09058
-8.0872
-8.08207
-8.07527
-8.06722
-8.05875
-8.05108
-8.04545
-8.0426
-8.04205
-8.043
-8.03712
-8.03816
-8.02548
-8.0183
-8.0183
-8.02547
-8.03815
-8.03711
-8.04298
-8.04204
-8.04259
-8.04544
-8.05107
-8.05874
-8.06721
-8.07526
-8.08206
-8.08719
-8.09057
-8.09224
-8.1225
-8.1209
-8.11767
-8.11283
-8.1065
-8.09906
-8.09126
-8.08405
-8.0784
-8.07479
-8.07281
-8.07189
-8.0639
-8.06617
-8.04742
-8.03828
-8.03828
-8.04741
-8.06616
-8.06389
-8.07188
-8.0728
-8.07478
-8.07839
-8.08404
-8.09125
-8.09906
-8.10649
-8.11282
-8.11766
-8.12089
-8.12249
-8.15613
-8.15467
-8.15173
-8.14737
-8.14172
-8.13513
-8.12822
-8.12174
-8.11641
-8.11251
-8.10965
-8.10754
-8.09744
-8.10106
-8.07577
-8.06472
-8.06471
-8.07576
-8.10105
-8.09743
-8.10753
-8.10964
-8.1125
-8.1164
-8.12173
-8.12821
-8.13512
-8.14171
-8.14736
-8.15172
-8.15466
-8.15613
-8.19244
-8.19114
-8.18857
-8.18477
-8.1799
-8.17426
-8.16834
-8.16275
-8.15797
-8.15411
-8.15084
-8.14809
-8.13564
-8.13905
-8.10856
-8.09577
-8.09577
-8.10856
-8.13904
-8.13563
-8.14808
-8.15083
-8.15411
-8.15796
-8.16274
-8.16834
-8.17425
-8.17989
-8.18476
-8.18856
-8.19113
-8.19243
-8.23086
-8.22976
-8.22757
-8.22436
-8.22028
-8.21559
-8.21069
-8.20603
-8.20193
-8.19836
-8.19497
-8.19192
-8.17755
-8.1787
-8.14473
-8.13027
-8.13027
-8.14472
-8.17869
-8.17755
-8.19191
-8.19496
-8.19835
-8.20192
-8.20603
-8.21068
-8.21558
-8.22027
-8.22435
-8.22756
-8.22975
-8.23085
-8.27098
-8.27007
-8.26826
-8.26562
-8.2623
-8.25851
-8.25458
-8.25084
-8.24747
-8.24431
-8.24099
-8.23778
-8.22224
-8.21959
-8.18271
-8.16667
-8.16667
-8.18271
-8.21959
-8.22223
-8.23777
-8.24098
-8.24431
-8.24746
-8.25083
-8.25457
-8.2585
-8.26229
-8.26562
-8.26825
-8.27006
-8.27098
-8.31247
-8.31173
-8.31028
-8.30819
-8.30556
-8.3026
-8.29955
-8.29667
-8.29402
-8.29135
-8.28824
-8.28504
-8.26887
-8.2616
-8.22168
-8.20409
-8.20408
-8.22167
-8.26159
-8.26886
-8.28503
-8.28823
-8.29134
-8.29401
-8.29666
-8.29955
-8.30259
-8.30555
-8.30818
-8.31028
-8.31173
-8.31246
-8.35505
-8.35448
-8.35336
-8.35175
-8.34976
-8.34756
-8.34532
-8.34321
-8.3412
-8.33902
-8.33629
-8.33332
-8.31686
-8.30374
-8.26096
-8.24175
-8.24175
-8.26095
-8.30374
-8.31686
-8.33331
-8.33628
-8.33902
-8.3412
-8.34321
-8.34532
-8.34755
-8.34976
-8.35174
-8.35335
-8.35447
-8.35504
-8.3985
-8.39808
-8.39726
-8.3961
-8.39468
-8.39315
-8.39163
-8.39016
-8.3887
-8.38701
-8.38474
-8.38214
-8.36587
-8.34514
-8.29979
-8.2789
-8.2789
-8.29979
-8.34514
-8.36586
-8.38213
-8.38473
-8.387
-8.3887
-8.39015
-8.39162
-8.39315
-8.39468
-8.39609
-8.39725
-8.39807
-8.39849
-8.44263
-8.44234
-8.44179
-8.44103
-8.44013
-8.43918
-8.43823
-8.4373
-8.4363
-8.43504
-8.43329
-8.43108
-8.41579
-8.38538
-8.33765
-8.31507
-8.31507
-8.33765
-8.38537
-8.41579
-8.43108
-8.43328
-8.43503
-8.4363
-8.43729
-8.43823
-8.43917
-8.44013
-8.44102
-8.44179
-8.44234
-8.44262
-8.48729
-8.48713
-8.48682
-8.48642
-8.48596
-8.48548
-8.48501
-8.48451
-8.48386
-8.48296
-8.48183
-8.48032
-8.46707
-8.42424
-8.3741
-8.34981
-8.34981
-8.3741
-8.42424
-8.46706
-8.48032
-8.48182
-8.48295
-8.48385
-8.4845
-8.48501
-8.48548
-8.48595
-8.48641
-8.48682
-8.48712
-8.48729
-8.53238
-8.53232
-8.53223
-8.53212
-8.53203
-8.53196
-8.53188
-8.5317
-8.53126
-8.53061
-8.53032
-8.53054
-8.52096
-8.46192
-8.40852
-8.38247
-8.38247
-8.40852
-8.46192
-8.52096
-8.53054
-8.53031
-8.5306
-8.53126
-8.53169
-8.53188
-8.53196
-8.53202
-8.53212
-8.53222
-8.53232
-8.53237
-8.57778
-8.57782
-8.5779
-8.57805
-8.57827
-8.57854
-8.57878
-8.5788
-8.5784
-8.57766
-8.57796
-8.58015
-8.57884
-8.49825
-8.43983
-8.41212
-8.41212
-8.43983
-8.49825
-8.57883
-8.58015
-8.57795
-8.57766
-8.57839
-8.5788
-8.57877
-8.57854
-8.57826
-8.57804
-8.57789
-8.57781
-8.57777
-8.6234
-8.62351
-8.62375
-8.62412
-8.62462
-8.62518
-8.62566
-8.6258
-8.6252
-8.62364
-8.62193
-8.61637
-8.62815
-8.53001
-8.46696
-8.43821
-8.4382
-8.46696
-8.53001
-8.62815
-8.61636
-8.62192
-8.62364
-8.62519
-8.62579
-8.62566
-8.62517
-8.62461
-8.62412
-8.62375
-8.62351
-8.62339
-8.66918
-8.66937
-8.66974
-8.6703
-8.67103
-8.67184
-8.67255
-8.67281
-8.67204
-8.66961
-8.66543
-8.64416
-8.66214
-8.55681
-8.49068
-8.46136
-8.46136
-8.49068
-8.55681
-8.66214
-8.64416
-8.66543
-8.6696
-8.67204
-8.6728
-8.67254
-8.67183
-8.67102
-8.67029
-8.66973
-8.66936
-8.66918
-8.7151
-8.71534
-8.71583
-8.71655
-8.71748
-8.7185
-8.71941
-8.71985
-8.71917
-8.71648
-8.71129
-8.67935
-8.6887
-8.57996
-8.51264
-8.48305
-8.48305
-8.51264
-8.57996
-8.6887
-8.67935
-8.71129
-8.71648
-8.71917
-8.71984
-8.71941
-8.71849
-8.71747
-8.71655
-8.71582
-8.71534
-8.71509
-8.76113
-8.76143
-8.76201
-8.76287
-8.76395
-8.76513
-8.7662
-8.76681
-8.76641
-8.76428
-8.75944
-8.72734
-8.70806
-8.60096
-8.53492
-8.50548
-8.50548
-8.53492
-8.60095
-8.70806
-8.72733
-8.75943
-8.76428
-8.7664
-8.7668
-8.7662
-8.76512
-8.76394
-8.76286
-8.76201
-8.76142
-8.76113
-8.80729
-8.80763
-8.8083
-8.80926
-8.81046
-8.81175
-8.81289
-8.81355
-8.81336
-8.81223
-8.80924
-8.78853
-8.72888
-8.62326
-8.56004
-8.53116
-8.53116
-8.56004
-8.62325
-8.72888
-8.78852
-8.80924
-8.81222
-8.81335
-8.81354
-8.81288
-8.81174
-8.81045
-8.80926
-8.80829
-8.80762
-8.80728
-8.85359
-8.85397
-8.85471
-8.85577
-8.85706
-8.8584
-8.85952
-8.86002
-8.85954
-8.85806
-8.85414
-8.85863
-8.75432
-8.64977
-8.59045
-8.56285
-8.56285
-8.59045
-8.64977
-8.75432
-8.85863
-8.85414
-8.85806
-8.85953
-8.86002
-8.85951
-8.85839
-8.85705
-8.85577
-8.85471
-8.85396
-8.85358
-8.90007
-8.90049
-8.90131
-8.90246
-8.90383
-8.90521
-8.90626
-8.90646
-8.90512
-8.90043
-8.88013
-8.91203
-8.78001
-8.68172
-8.62886
-8.6039
-8.6039
-8.62886
-8.68172
-8.78001
-8.91203
-8.88013
-8.90042
-8.90512
-8.90646
-8.90625
-8.90521
-8.90382
-8.90245
-8.9013
-8.90049
-8.90006
-8.94679
-8.94725
-8.94814
-8.94938
-8.95085
-8.9523
-8.95336
-8.95349
-8.95205
-8.94716
-8.92435
-8.92812
-8.80679
-8.72402
-8.67956
-8.65839
-8.65839
-8.67956
-8.72402
-8.80679
-8.92811
-8.92435
-8.94716
-8.95204
-8.95349
-8.95336
-8.9523
-8.95085
-8.94938
-8.94813
-8.94724
-8.94678
-8.9938
-8.9943
-8.99527
-8.99661
-8.99817
-8.99969
-9.00074
-9.00066
-8.99839
-8.99246
-8.99869
-8.94592
-8.84652
-8.7832
-8.74806
-8.73132
-8.73132
-8.74806
-8.78319
-8.84652
-8.94592
-8.99868
-8.99246
-8.99839
-9.00065
-9.00073
-8.99969
-8.99817
-8.99661
-8.99526
-8.9943
-8.99379
-9.0412
-9.04174
-9.04278
-9.04422
-9.04587
-9.04744
-9.04836
-9.04748
-9.0419
-9.03094
-9.06409
-8.98321
-8.90843
-8.86447
-8.83945
-8.82756
-8.82756
-8.83945
-8.86447
-8.90843
-8.9832
-9.06409
-9.03094
-9.0419
-9.04747
-9.04836
-9.04744
-9.04586
-9.04421
-9.04278
-9.04174
-9.04119
-9.08908
-9.08967
-9.09078
-9.09231
-9.09404
-9.09572
-9.09674
-9.0956
-9.08941
-9.10239
-9.10522
-9.04376
-8.99835
-8.97285
-8.9579
-8.95082
-8.95082
-8.95789
-8.97285
-8.99834
-9.04376
-9.10522
-9.10239
-9.0894
-9.09559
-9.09674
-9.09572
-9.09403
-9.0923
-9.09077
-9.08966
-9.08908
-9.13761
-9.13822
-9.1394
-9.14102
-9.14279
-9.14453
-9.14592
-9.14529
-9.15006
-9.19131
-9.17535
-9.14267
-9.1228
-9.11222
-9.10616
-9.10335
-9.10335
-9.10616
-9.11222
-9.1228
-9.14266
-9.17535
-9.19131
-9.15005
-9.14529
-9.14591
-9.14453
-9.14278
-9.14101
-9.13939
-9.13821
-9.1376
-9.18696
-9.1876
-9.18885
-9.19066
-9.19241
-9.19405
-9.19608
-9.20503
-9.25688
-9.28942
-9.28633
-9.28236
-9.2826
-9.2839
-9.28507
-9.28571
-9.28571
-9.28507
-9.28389
-9.2826
-9.28236
-9.28633
-9.28941
-9.25687
-9.20502
-9.19608
-9.19404
-9.1924
-9.19065
-9.18885
-9.18759
-9.18696
-9.23754
-9.23815
-9.23952
-9.24201
-9.2435
-9.24473
-9.26598
-9.3234
-9.39058
-9.42725
-9.44741
-9.46419
-9.47758
-9.48737
-9.49379
-9.49695
-9.49695
-9.49379
-9.48737
-9.47758
-9.46419
-9.4474
-9.42724
-9.39058
-9.32339
-9.26597
-9.24473
-9.24349
-9.242
-9.23952
-9.23814
-9.23754
-9.28964
-9.29022
-9.29111
-9.29441
-9.3162
-9.36768
-9.42959
-9.50858
-9.57477
-9.62115
-9.65667
-9.68435
-9.7053
-9.72037
-9.73013
-9.73491
-9.73491
-9.73013
-9.72037
-9.7053
-9.68434
-9.65666
-9.62114
-9.57476
-9.50857
-9.42958
-9.36767
-9.31619
-9.29441
-9.29111
-9.29021
-9.28964
-9.39447
-9.4038
-9.42752
-9.46763
-9.51888
-9.58765
-9.66887
-9.74766
-9.81264
-9.86436
-9.90528
-9.93735
-9.96183
-9.97954
-9.99104
-9.99669
-9.99669
-9.99104
-9.97954
-9.96183
-9.93734
-9.90527
-9.86436
-9.81264
-9.74765
-9.66886
-9.58764
-9.51887
-9.46763
-9.42751
-9.4038
-9.39446
-9.66723
-9.68472
-9.71929
-9.76929
-9.82933
-9.89703
-9.96846
-10.0355
-10.0945
-10.1441
-10.1848
-10.2174
-10.2426
-10.2611
-10.2731
-10.2791
-10.2791
-10.2731
-10.2611
-10.2426
-10.2174
-10.1848
-10.1441
-10.0945
-10.0355
-9.96845
-9.89703
-9.82933
-9.76929
-9.71928
-9.68471
-9.66722
-10.0549
-10.069
-10.0964
-10.1354
-10.1846
-10.2407
-10.2987
-10.3546
-10.4057
-10.4504
-10.4882
-10.5191
-10.5433
-10.5612
-10.573
-10.5788
-10.5788
-10.573
-10.5612
-10.5433
-10.519
-10.4882
-10.4504
-10.4057
-10.3546
-10.2987
-10.2407
-10.1845
-10.1354
-10.0964
-10.069
-10.0549
-10.4508
-10.462
-10.484
-10.5158
-10.5554
-10.6001
-10.647
-10.6933
-10.7368
-10.7758
-10.8095
-10.8375
-10.8598
-10.8765
-10.8875
-10.893
-10.893
-10.8875
-10.8765
-10.8598
-10.8375
-10.8095
-10.7758
-10.7368
-10.6933
-10.647
-10.6001
-10.5554
-10.5158
-10.484
-10.462
-10.4508
-10.8486
-10.8577
-10.8754
-10.9009
-10.9326
-10.9686
-11.0068
-11.0452
-11.0816
-11.115
-11.1443
-11.169
-11.189
-11.2039
-11.2139
-11.2189
-11.2189
-11.2139
-11.2039
-11.189
-11.169
-11.1443
-11.115
-11.0816
-11.0452
-11.0068
-10.9686
-10.9326
-10.9009
-10.8754
-10.8577
-10.8486
-11.2459
-11.2532
-11.2674
-11.2879
-11.3134
-11.3425
-11.3737
-11.4052
-11.4357
-11.4639
-11.489
-11.5105
-11.5279
-11.5411
-11.55
-11.5544
-11.5544
-11.55
-11.5411
-11.5279
-11.5105
-11.489
-11.4639
-11.4357
-11.4052
-11.3737
-11.3425
-11.3134
-11.2879
-11.2674
-11.2532
-11.2459
-11.6415
-11.6474
-11.6588
-11.6753
-11.6959
-11.7195
-11.7449
-11.7709
-11.7961
-11.8198
-11.8411
-11.8595
-11.8745
-11.886
-11.8938
-11.8976
-11.8976
-11.8938
-11.886
-11.8745
-11.8595
-11.8411
-11.8198
-11.7961
-11.7709
-11.7449
-11.7195
-11.6959
-11.6753
-11.6588
-11.6474
-11.6415
-12.0349
-12.0397
-12.0489
-12.0622
-12.0789
-12.098
-12.1188
-12.1401
-12.161
-12.1808
-12.1987
-12.2143
-12.2272
-12.237
-12.2437
-12.2471
-12.2471
-12.2437
-12.237
-12.2272
-12.2143
-12.1987
-12.1808
-12.161
-12.1401
-12.1188
-12.098
-12.0789
-12.0622
-12.0489
-12.0397
-12.0349
-12.4261
-12.4299
-12.4374
-12.4481
-12.4617
-12.4772
-12.4942
-12.5117
-12.529
-12.5454
-12.5605
-12.5736
-12.5845
-12.5929
-12.5986
-12.6015
-12.6015
-12.5986
-12.5929
-12.5845
-12.5736
-12.5605
-12.5454
-12.529
-12.5117
-12.4942
-12.4772
-12.4616
-12.4481
-12.4374
-12.4299
-12.4261
-12.815
-12.8182
-12.8242
-12.8329
-12.8439
-12.8566
-12.8704
-12.8848
-12.8991
-12.9128
-12.9253
-12.9363
-12.9455
-12.9526
-12.9574
-12.9599
-12.9599
-12.9574
-12.9526
-12.9455
-12.9363
-12.9253
-12.9127
-12.8991
-12.8848
-12.8704
-12.8566
-12.8439
-12.8329
-12.8242
-12.8181
-12.815
-13.202
-13.2045
-13.2094
-13.2165
-13.2255
-13.2358
-13.2471
-13.2589
-13.2707
-13.282
-13.2925
-13.3017
-13.3094
-13.3154
-13.3194
-13.3215
-13.3215
-13.3194
-13.3154
-13.3094
-13.3017
-13.2925
-13.282
-13.2707
-13.2589
-13.2471
-13.2358
-13.2254
-13.2165
-13.2094
-13.2045
-13.202
-13.5872
-13.5892
-13.5932
-13.599
-13.6063
-13.6147
-13.624
-13.6337
-13.6434
-13.6528
-13.6615
-13.6691
-13.6756
-13.6806
-13.684
-13.6857
-13.6857
-13.684
-13.6806
-13.6756
-13.6691
-13.6615
-13.6528
-13.6434
-13.6337
-13.624
-13.6147
-13.6063
-13.599
-13.5932
-13.5892
-13.5872
-13.9708
-13.9725
-13.9757
-13.9804
-13.9864
-13.9933
-14.0009
-14.0089
-14.0169
-14.0246
-14.0318
-14.0382
-14.0436
-14.0477
-14.0506
-14.052
-14.052
-14.0506
-14.0477
-14.0436
-14.0382
-14.0318
-14.0246
-14.0169
-14.0089
-14.0009
-13.9933
-13.9864
-13.9804
-13.9757
-13.9725
-13.9708
-14.3531
-14.3545
-14.3571
-14.361
-14.3658
-14.3715
-14.3777
-14.3843
-14.3909
-14.3973
-14.4032
-14.4085
-14.413
-14.4165
-14.4188
-14.4201
-14.4201
-14.4188
-14.4165
-14.413
-14.4085
-14.4032
-14.3973
-14.3909
-14.3843
-14.3777
-14.3715
-14.3658
-14.361
-14.3571
-14.3545
-14.3531
-14.7343
-14.7354
-14.7376
-14.7407
-14.7447
-14.7493
-14.7544
-14.7598
-14.7653
-14.7705
-14.7755
-14.7799
-14.7836
-14.7865
-14.7884
-14.7894
-14.7894
-14.7884
-14.7865
-14.7836
-14.7799
-14.7755
-14.7705
-14.7653
-14.7598
-14.7544
-14.7493
-14.7447
-14.7407
-14.7376
-14.7354
-14.7343
-15.1145
-15.1154
-15.1172
-15.1198
-15.123
-15.1268
-15.131
-15.1355
-15.1399
-15.1443
-15.1484
-15.152
-15.1551
-15.1575
-15.1591
-15.16
-15.16
-15.1591
-15.1575
-15.1551
-15.152
-15.1484
-15.1443
-15.1399
-15.1355
-15.131
-15.1268
-15.123
-15.1198
-15.1172
-15.1154
-15.1145
-15.4939
-15.4947
-15.4961
-15.4982
-15.5009
-15.504
-15.5075
-15.5111
-15.5148
-15.5184
-15.5218
-15.5248
-15.5273
-15.5293
-15.5307
-15.5314
-15.5314
-15.5307
-15.5293
-15.5273
-15.5248
-15.5218
-15.5184
-15.5148
-15.5111
-15.5075
-15.504
-15.5009
-15.4982
-15.4961
-15.4947
-15.4939
-15.8727
-15.8733
-15.8745
-15.8762
-15.8784
-15.881
-15.8838
-15.8868
-15.8899
-15.8928
-15.8956
-15.8981
-15.9002
-15.9018
-15.903
-15.9035
-15.9035
-15.903
-15.9018
-15.9002
-15.8981
-15.8956
-15.8928
-15.8899
-15.8868
-15.8838
-15.881
-15.8784
-15.8762
-15.8745
-15.8733
-15.8727
-16.2509
-16.2514
-16.2524
-16.2538
-16.2556
-16.2577
-16.26
-16.2625
-16.265
-16.2674
-16.2697
-16.2718
-16.2735
-16.2749
-16.2758
-16.2763
-16.2763
-16.2758
-16.2749
-16.2735
-16.2718
-16.2697
-16.2674
-16.265