/*--------------------------------*- C++ -*----------------------------------*\
  =========                 |
  \\      /  F ield         | OpenFOAM: The Open Source CFD Toolbox
   \\    /   O peration     | Website:  https://openfoam.org
    \\  /    A nd           | Version:  9
     \\/     M anipulation  |
\*---------------------------------------------------------------------------*/
FoamFile
{
    format      ascii;
    class       volScalarField;
    location    "0.9";
    object      p_rgh;
}
// * * * * * * * * * * * * * * * * * * * * * * * * * * * * * * * * * * * * * //

dimensions      [1 -1 -2 0 0 0 0];

internalField   nonuniform List<scalar> 
4096
(
-3.29831
-3.29766
-3.2964
-3.29454
-3.29218
-3.28937
-3.28624
-3.2829
-3.27947
-3.27608
-3.27288
-3.26998
-3.2675
-3.26554
-3.26419
-3.2635
-3.2635
-3.26419
-3.26554
-3.2675
-3.26998
-3.27288
-3.27609
-3.27947
-3.2829
-3.28625
-3.28938
-3.29218
-3.29455
-3.2964
-3.29767
-3.29832
-3.29897
-3.2983
-3.29698
-3.29506
-3.2926
-3.2897
-3.28645
-3.28298
-3.27942
-3.27591
-3.27259
-3.26958
-3.26701
-3.26498
-3.26358
-3.26287
-3.26287
-3.26358
-3.26498
-3.26701
-3.26958
-3.27259
-3.27592
-3.27943
-3.28299
-3.28646
-3.2897
-3.29261
-3.29507
-3.29699
-3.29831
-3.29898
-3.30032
-3.2996
-3.29819
-3.29613
-3.29349
-3.29037
-3.28688
-3.28316
-3.27934
-3.27557
-3.272
-3.26876
-3.266
-3.26383
-3.26232
-3.26156
-3.26156
-3.26233
-3.26383
-3.26601
-3.26877
-3.272
-3.27557
-3.27934
-3.28316
-3.28689
-3.29037
-3.29349
-3.29613
-3.2982
-3.29961
-3.30033
-3.30242
-3.30163
-3.30007
-3.29779
-3.29487
-3.29141
-3.28756
-3.28344
-3.27921
-3.27504
-3.27108
-3.26751
-3.26445
-3.26204
-3.26038
-3.25953
-3.25953
-3.26038
-3.26204
-3.26445
-3.26751
-3.27109
-3.27504
-3.27921
-3.28344
-3.28756
-3.29142
-3.29487
-3.29779
-3.30007
-3.30164
-3.30243
-3.30536
-3.30446
-3.30269
-3.3001
-3.29679
-3.29288
-3.28851
-3.28383
-3.27904
-3.27431
-3.26982
-3.26576
-3.2623
-3.25956
-3.25767
-3.25671
-3.25671
-3.25767
-3.25956
-3.2623
-3.26577
-3.26983
-3.27431
-3.27904
-3.28384
-3.28851
-3.29289
-3.2968
-3.30011
-3.30269
-3.30446
-3.30537
-3.30924
-3.3082
-3.30616
-3.30317
-3.29935
-3.29484
-3.28978
-3.28438
-3.27884
-3.27336
-3.26818
-3.26348
-3.25947
-3.2563
-3.25412
-3.253
-3.253
-3.25412
-3.25631
-3.25947
-3.26348
-3.26818
-3.27337
-3.27884
-3.28439
-3.28979
-3.29484
-3.29936
-3.30318
-3.30617
-3.30821
-3.30925
-3.31423
-3.31302
-3.31063
-3.30713
-3.30266
-3.29737
-3.29145
-3.28512
-3.27862
-3.27219
-3.2661
-3.26059
-3.25587
-3.25216
-3.24959
-3.24827
-3.24828
-3.24959
-3.25216
-3.25588
-3.26059
-3.26611
-3.2722
-3.27862
-3.28512
-3.29146
-3.29738
-3.30267
-3.30714
-3.31063
-3.31302
-3.31424
-3.32053
-3.3191
-3.31627
-3.31215
-3.30686
-3.3006
-3.2936
-3.2861
-3.27839
-3.27078
-3.26355
-3.257
-3.2514
-3.24698
-3.24393
-3.24237
-3.24237
-3.24393
-3.24698
-3.2514
-3.257
-3.26355
-3.27078
-3.2784
-3.28611
-3.2936
-3.30061
-3.30687
-3.31216
-3.31628
-3.31911
-3.32054
-3.3284
-3.32669
-3.32334
-3.31843
-3.31215
-3.30469
-3.29634
-3.2874
-3.2782
-3.2691
-3.26045
-3.25262
-3.24591
-3.24061
-3.23695
-3.23508
-3.23508
-3.23695
-3.24062
-3.24591
-3.25262
-3.26046
-3.2691
-3.27821
-3.28741
-3.29635
-3.3047
-3.31216
-3.31844
-3.32335
-3.3267
-3.32841
-3.33816
-3.33613
-3.33213
-3.32628
-3.31876
-3.30986
-3.29986
-3.28914
-3.2781
-3.26716
-3.25676
-3.24732
-3.23924
-3.23286
-3.22844
-3.22619
-3.22619
-3.22844
-3.23286
-3.23924
-3.24733
-3.25677
-3.26717
-3.27811
-3.28915
-3.29987
-3.30987
-3.31878
-3.32629
-3.33214
-3.33614
-3.33818
-3.35024
-3.34781
-3.34303
-3.33603
-3.32704
-3.31636
-3.30436
-3.29147
-3.27817
-3.26498
-3.25241
-3.241
-3.23121
-3.22348
-3.21813
-3.2154
-3.2154
-3.21813
-3.22348
-3.23122
-3.241
-3.25242
-3.26498
-3.27818
-3.29148
-3.30437
-3.31637
-3.32705
-3.33604
-3.34304
-3.34782
-3.35025
-3.36514
-3.36224
-3.35653
-3.34816
-3.33739
-3.32458
-3.31015
-3.29462
-3.27856
-3.2626
-3.24737
-3.23352
-3.22164
-3.21223
-3.20572
-3.2024
-3.2024
-3.20573
-3.21224
-3.22164
-3.23353
-3.24738
-3.26261
-3.27857
-3.29463
-3.31016
-3.32459
-3.3374
-3.34817
-3.35654
-3.36225
-3.36515
-3.38352
-3.38006
-3.37325
-3.36324
-3.35035
-3.33498
-3.31763
-3.2989
-3.27948
-3.26013
-3.24164
-3.22478
-3.2103
-3.19883
-3.19089
-3.18683
-3.18683
-3.19089
-3.19884
-3.21031
-3.22479
-3.24164
-3.26014
-3.2795
-3.29892
-3.31765
-3.335
-3.35037
-3.36326
-3.37326
-3.38007
-3.38353
-3.4062
-3.40209
-3.39398
-3.38205
-3.36665
-3.34822
-3.32736
-3.30477
-3.28127
-3.25777
-3.23526
-3.21471
-3.19702
-3.183
-3.17329
-3.16832
-3.16832
-3.17329
-3.18301
-3.19703
-3.21472
-3.23527
-3.25778
-3.28128
-3.30478
-3.32738
-3.34824
-3.36666
-3.38207
-3.39399
-3.4021
-3.40621
-3.43421
-3.42935
-3.41973
-3.40556
-3.3872
-3.36517
-3.34012
-3.31288
-3.28442
-3.25586
-3.22842
-3.20331
-3.18166
-3.16449
-3.15257
-3.14649
-3.14649
-3.15258
-3.16449
-3.18167
-3.20332
-3.22844
-3.25588
-3.28444
-3.31289
-3.34014
-3.36519
-3.38722
-3.40558
-3.41975
-3.42937
-3.43423
-3.46887
-3.46314
-3.4518
-3.43504
-3.41325
-3.38699
-3.35697
-3.32416
-3.28972
-3.25498
-3.22148
-3.19073
-3.16419
-3.1431
-3.12847
-3.12099
-3.12099
-3.12847
-3.14311
-3.1642
-3.19074
-3.22149
-3.255
-3.28974
-3.32418
-3.35699
-3.38701
-3.41327
-3.43506
-3.45182
-3.46316
-3.46889
-3.51181
-3.50512
-3.49184
-3.47215
-3.44644
-3.41527
-3.37944
-3.34
-3.29834
-3.25605
-3.21508
-3.17737
-3.14476
-3.11883
-3.10082
-3.09162
-3.09162
-3.10083
-3.11884
-3.14477
-3.17738
-3.21509
-3.25606
-3.29836
-3.34003
-3.37946
-3.4153
-3.44646
-3.47217
-3.49186
-3.50515
-3.51184
-3.56511
-3.55737
-3.54197
-3.51905
-3.48895
-3.45221
-3.40964
-3.36239
-3.31205
-3.26055
-3.21038
-3.16406
-3.12394
-3.092
-3.06979
-3.05844
-3.05844
-3.0698
-3.092
-3.12395
-3.16407
-3.2104
-3.26057
-3.31208
-3.36241
-3.40966
-3.45224
-3.48898
-3.51908
-3.542
-3.5574
-3.56514
-3.63136
-3.62253
-3.60491
-3.57854
-3.5437
-3.5008
-3.45057
-3.39424
-3.33359
-3.27085
-3.20933
-3.1523
-3.10285
-3.06342
-3.03604
-3.02205
-3.02205
-3.03604
-3.06343
-3.10286
-3.15232
-3.20935
-3.27087
-3.33361
-3.39426
-3.4506
-3.50083
-3.54373
-3.57858
-3.60494
-3.62257
-3.63139
-3.71378
-3.7039
-3.68409
-3.65428
-3.61455
-3.56512
-3.50651
-3.43985
-3.36712
-3.29068
-3.21497
-3.14433
-3.08326
-3.03469
-3.00099
-2.98381
-2.98381
-3.001
-3.0347
-3.08327
-3.14435
-3.21499
-3.29071
-3.36715
-3.43988
-3.50655
-3.56515
-3.61459
-3.65432
-3.68412
-3.70393
-3.71381
-3.81631
-3.80554
-3.78384
-3.75094
-3.70665
-3.6508
-3.58353
-3.50559
-3.4187
-3.32574
-3.23197
-3.14444
-3.06968
-3.00954
-2.96715
-2.94532
-2.94532
-2.96716
-3.00956
-3.0697
-3.14446
-3.23199
-3.32577
-3.41873
-3.50562
-3.58357
-3.65084
-3.70669
-3.75098
-3.78388
-3.80558
-3.81635
-3.9437
-3.93241
-3.90949
-3.87446
-3.82669
-3.76546
-3.69023
-3.60098
-3.49848
-3.38595
-3.27015
-3.16378
-3.07264
-2.99496
-2.94023
-2.91227
-2.91227
-2.94024
-2.99498
-3.07266
-3.16381
-3.27018
-3.38598
-3.49851
-3.60102
-3.69027
-3.7655
-3.82674
-3.8745
-3.90953
-3.93245
-3.94374
-4.10147
-4.0903
-4.06745
-4.03217
-3.98331
-3.91929
-3.8386
-3.74053
-3.62432
-3.48875
-3.34185
-3.20921
-3.10592
-3.20316
-3.44163
-3.58143
-3.58142
-3.44162
-3.20317
-3.10594
-3.20924
-3.34188
-3.48879
-3.62436
-3.74058
-3.83865
-3.91934
-3.98336
-4.03222
-4.0675
-4.09035
-4.10152
-4.29575
-4.28575
-4.2651
-4.23282
-4.18719
-4.1255
-4.0452
-3.94285
-3.80862
-3.64759
-3.85968
-5.80268
-8.43795
-10.8522
-12.1123
-12.5723
-12.5723
-12.1123
-10.8521
-8.43778
-5.80254
-3.85964
-3.64763
-3.80867
-3.9429
-4.04525
-4.12556
-4.18725
-4.23287
-4.26515
-4.2858
-4.2958
-4.53286
-4.5256
-4.51037
-4.48619
-4.45106
-4.40171
-4.33096
-4.21598
-4.04973
-5.95224
-11.8429
-15.2382
-16.2564
-16.1999
-16.1657
-16.1507
-16.1507
-16.1657
-16.2
-16.2564
-15.2381
-11.8426
-5.95191
-4.04979
-4.21605
-4.33102
-4.40177
-4.45113
-4.48625
-4.51043
-4.52566
-4.53292
-4.81858
-4.81618
-4.8109
-4.80224
-4.79028
-4.76984
-4.69675
-4.54672
-7.64562
-15.4018
-16.6386
-16.5158
-16.4232
-16.3587
-16.31
-16.2886
-16.2886
-16.31
-16.3587
-16.4232
-16.5159
-16.6386
-15.4015
-7.64507
-4.5468
-4.69683
-4.76991
-4.79035
-4.80231
-4.81096
-4.81625
-4.81864
-5.15692
-5.16203
-5.17239
-5.19005
-5.22014
-5.23231
-5.12514
-7.83563
-16.2704
-17.1409
-16.9892
-16.8168
-16.6768
-16.578
-16.5029
-16.4721
-16.4721
-16.5029
-16.578
-16.6769
-16.8168
-16.9893
-17.141
-16.2701
-7.83513
-5.12523
-5.23239
-5.22021
-5.19012
-5.17246
-5.16209
-5.15698
-5.54869
-5.56403
-5.59678
-5.65671
-5.74446
-5.77724
-6.89563
-15.5344
-17.723
-17.6885
-17.4746
-17.2226
-17.0116
-16.8679
-16.7575
-16.7143
-16.7143
-16.7576
-16.8679
-17.0117
-17.2227
-17.4747
-17.6886
-17.7231
-15.5339
-6.89533
-5.77733
-5.74453
-5.65678
-5.59685
-5.5641
-5.54876
-5.98991
-6.01724
-6.07724
-6.18793
-6.32509
-6.40123
-12.3248
-18.2335
-18.3898
-18.4157
-18.1905
-17.821
-17.4861
-17.2724
-17.1089
-17.0461
-17.0462
-17.1089
-17.2725
-17.4862
-17.8212
-18.1907
-18.4159
-18.3899
-18.2336
-12.324
-6.40122
-6.32515
-6.18799
-6.0773
-6.01731
-5.98998
-6.47163
-6.51077
-6.5986
-6.75488
-6.9319
-8.23567
-17.0337
-18.8982
-19.1401
-19.3613
-19.1757
-18.7046
-18.139
-17.8014
-17.5617
-17.4612
-17.4613
-17.5617
-17.8015
-18.1392
-18.7049
-19.1758
-19.3614
-19.1401
-18.8982
-17.0332
-8.23535
-6.93195
-6.75493
-6.59867
-6.51084
-6.4717
-6.9802
-7.02953
-7.14133
-7.31862
-7.4822
-11.2628
-19.0104
-19.4454
-19.5582
-16.6918
-14.9329
-19.3509
-18.8643
-18.3628
-18.0555
-17.9095
-17.9095
-18.0555
-18.3629
-18.8644
-19.3506
-14.9322
-16.6916
-19.5583
-19.4454
-19.0104
-11.262
-7.48227
-7.31868
-7.14139
-7.0296
-6.98026
-7.50257
-7.55818
-7.68447
-7.85582
-8.10508
-14.6173
-19.3425
-19.8121
-15.7857
-10.497
-10.1997
-17.3321
-19.381
-18.8163
-18.4951
-18.3259
-18.3259
-18.4951
-18.8164
-19.3812
-17.3301
-10.1992
-10.4969
-15.7861
-19.8121
-19.3425
-14.6165
-8.10505
-7.85587
-7.68453
-7.55825
-7.50263
-8.02838
-8.08576
-8.21451
-8.37061
-8.99477
-16.7687
-19.4947
-17.3215
-10.7932
-10.0698
-10.1606
-15.2164
-19.661
-19.127
-18.8301
-18.6631
-18.6631
-18.8301
-19.1271
-19.6611
-15.2144
-10.1605
-10.0698
-10.7933
-17.3218
-19.4947
-16.7681
-8.99458
-8.37067
-8.21457
-8.08582
-8.02844
-8.55305
-8.61057
-8.73528
-8.87708
-10.2633
-17.8873
-18.8977
-11.6583
-10.191
-10.213
-10.2727
-14.0631
-19.754
-19.3014
-19.0468
-18.8973
-18.8973
-19.0468
-19.3015
-19.7541
-14.062
-10.2727
-10.213
-10.191
-11.6585
-18.8979
-17.8871
-10.2629
-8.87714
-8.73534
-8.61063
-8.5531
-9.06879
-9.13199
-9.26125
-9.39036
-11.9008
-17.9609
-16.3037
-10.3474
-10.3349
-10.3451
-10.3847
-13.0968
-19.5353
-19.3644
-19.1555
-19.0269
-19.0269
-19.1556
-19.3644
-19.535
-13.0964
-10.3847
-10.3451
-10.3349
-10.3474
-16.3045
-17.9606
-11.9003
-9.39045
-9.26132
-9.13204
-9.06884
-9.56536
-9.64291
-9.79734
-9.93252
-13.6853
-18.1598
-14.9958
-10.5106
-10.5017
-10.4935
-10.5136
-12.2768
-19.003
-19.3416
-19.1701
-19.0596
-19.0596
-19.1701
-19.3416
-19.0027
-12.2766
-10.5136
-10.4935
-10.5017
-10.5106
-14.9968
-18.1595
-13.6847
-9.9326
-9.79739
-9.64295
-9.5654
-10.0168
-10.1232
-10.3427
-10.6893
-15.7354
-18.5615
-15.6862
-10.7255
-10.709
-10.6783
-10.6681
-11.8943
-18.6347
-19.2422
-19.0999
-19.0003
-19.0003
-19.0999
-19.2422
-18.6343
-11.8941
-10.6681
-10.6783
-10.709
-10.7255
-15.6878
-18.5615
-15.7349
-10.6893
-10.3428
-10.1232
-10.0168
-10.383
-10.5342
-10.8549
-11.4217
-16.761
-19.277
-17.4027
-11.5793
-10.9787
-10.9054
-10.8417
-11.7909
-18.2638
-19.0612
-18.9487
-18.8493
-18.8493
-18.9487
-19.0611
-18.2636
-11.7906
-10.8417
-10.9054
-10.9788
-11.5799
-17.4036
-19.277
-16.7603
-11.4216
-10.8548
-10.5342
-10.383
-10.621
-10.8066
-11.205
-11.7903
-16.5801
-20.1613
-18.6577
-12.7179
-11.2848
-11.12
-10.985
-11.7207
-17.8875
-18.8363
-18.7122
-18.6208
-18.6208
-18.7122
-18.8363
-17.8872
-11.7204
-10.9851
-11.12
-11.2849
-12.7188
-18.6583
-20.1611
-16.5789
-11.7901
-11.2049
-10.8065
-10.621
-10.6777
-10.8562
-11.2572
-11.7966
-13.8646
-18.3576
-17.2613
-12.7012
-11.5227
-11.2106
-11.0344
-11.5347
-17.5558
-18.5347
-18.3995
-18.3232
-18.3232
-18.3995
-18.5347
-17.5555
-11.5345
-11.0344
-11.2106
-11.5229
-12.7013
-17.2615
-18.3567
-13.8635
-11.7964
-11.2571
-10.8561
-10.6776
-10.5465
-10.6922
-11.0139
-11.4606
-11.9191
-13.0316
-12.8222
-11.7896
-11.3779
-11.147
-10.955
-11.1978
-17.1807
-18.1387
-18.0113
-17.9512
-17.9512
-18.0112
-18.1387
-17.1805
-11.1977
-10.955
-11.147
-11.3778
-11.7896
-12.8219
-13.031
-11.9189
-11.4605
-11.0137
-10.6921
-10.5464
-10.2992
-10.4118
-10.6521
-11.0023
-11.381
-11.5788
-11.5448
-11.3556
-11.146
-10.9349
-10.7525
-10.7834
-15.7427
-17.5637
-17.5643
-17.5195
-17.5195
-17.5643
-17.5637
-15.7429
-10.7834
-10.7524
-10.9348
-11.1459
-11.3556
-11.5447
-11.5787
-11.3808
-11.0021
-10.6519
-10.4117
-10.2991
-10.0129
-10.0983
-10.2756
-10.533
-10.8385
-11.0316
-11.0476
-10.9413
-10.7888
-10.6236
-10.4759
-10.417
-11.8555
-16.0702
-17.094
-17.054
-17.054
-17.094
-16.0702
-11.856
-10.417
-10.4759
-10.6236
-10.7888
-10.9412
-11.0475
-11.0314
-10.8384
-10.5329
-10.2755
-10.0982
-10.0128
-9.73403
-9.79596
-9.92231
-10.1008
-10.3085
-10.4644
-10.5148
-10.4725
-10.3811
-10.2721
-10.1725
-10.1095
-9.98806
-14.4436
-16.599
-16.558
-16.558
-16.599
-14.4434
-9.98799
-10.1095
-10.1724
-10.2721
-10.381
-10.4724
-10.5147
-10.4642
-10.3083
-10.1007
-9.92221
-9.79587
-9.73396
-9.48643
-9.52849
-9.613
-9.7307
-9.86492
-9.97949
-10.0362
-10.0302
-9.98558
-9.92654
-9.87421
-9.83302
-9.79495
-13.6664
-16.0782
-16.0437
-16.0437
-16.0781
-13.6662
-9.79487
-9.83295
-9.87414
-9.92646
-9.98549
-10.0301
-10.036
-9.97938
-9.86482
-9.73061
-9.61292
-9.52843
-9.48636
-9.27834
-9.30538
-9.35909
-9.43401
-9.51903
-9.59492
-9.64047
-9.65041
-9.63605
-9.61357
-9.59659
-9.58729
-9.58198
-13.2891
-15.5499
-15.5249
-15.5249
-15.5499
-13.2888
-9.58192
-9.58723
-9.59652
-9.6135
-9.63597
-9.65033
-9.64039
-9.59483
-9.51896
-9.43394
-9.35903
-9.30533
-9.27829
-9.10964
-9.12639
-9.15918
-9.20449
-9.25522
-9.30099
-9.33153
-9.34475
-9.34651
-9.3454
-9.35032
-9.35892
-9.3691
-13.1085
-15.0244
-15.0089
-15.0089
-15.0243
-13.1083
-9.36905
-9.35887
-9.35027
-9.34534
-9.34644
-9.34469
-9.33146
-9.30093
-9.25516
-9.20444
-9.15913
-9.12635
-9.1096
-8.97677
-8.98658
-9.00545
-9.03091
-9.0588
-9.08369
-9.10118
-9.1112
-9.11781
-9.12602
-9.14818
-9.15789
-9.17328
-12.8236
-14.5113
-14.5054
-14.5054
-14.5112
-12.8234
-9.1732
-9.15785
-9.14814
-9.12597
-9.11776
-9.11115
-9.10113
-9.08364
-9.05876
-9.03087
-9.00541
-8.98655
-8.97674
-8.8736
-8.8788
-8.88859
-8.90132
-8.9145
-8.9255
-8.93309
-8.93817
-8.94401
-8.95376
-8.97795
-8.98843
-9.0474
-12.4681
-14.0248
-14.0234
-14.0234
-14.0248
-12.468
-9.04735
-8.98839
-8.97792
-8.95373
-8.94398
-8.93814
-8.93306
-8.92547
-8.91447
-8.90129
-8.88856
-8.87877
-8.87357
-8.79366
-8.79588
-8.79989
-8.80461
-8.80863
-8.8108
-8.81119
-8.81143
-8.81444
-8.82264
-8.84499
-8.85357
-8.92023
-12.1549
-13.5673
-13.5674
-13.5674
-13.5673
-12.1548
-8.92019
-8.85354
-8.84496
-8.82262
-8.81442
-8.8114
-8.81117
-8.81077
-8.8086
-8.80459
-8.79987
-8.79586
-8.79364
-8.73139
-8.73176
-8.73219
-8.73202
-8.73046
-8.7272
-8.72293
-8.71953
-8.71966
-8.72516
-8.73706
-8.75
-8.81895
-11.9314
-13.1355
-13.1353
-13.1353
-13.1355
-11.9313
-8.81891
-8.74998
-8.73704
-8.72514
-8.71964
-8.71951
-8.7229
-8.72718
-8.73044
-8.732
-8.73217
-8.73174
-8.73137
-8.68238
-8.68165
-8.67998
-8.67697
-8.67223
-8.66589
-8.6589
-8.65311
-8.65082
-8.65351
-8.66108
-8.67166
-8.75399
-11.7698
-12.7257
-12.7239
-12.7239
-12.7257
-11.7698
-8.75395
-8.67164
-8.66106
-8.65349
-8.6508
-8.65309
-8.65888
-8.66587
-8.67222
-8.67695
-8.67996
-8.68163
-8.68237
-8.64328
-8.64195
-8.63915
-8.63466
-8.62835
-8.62051
-8.61218
-8.60502
-8.60096
-8.60118
-8.60557
-8.61251
-8.7524
-11.5931
-12.3338
-12.3302
-12.3302
-12.3338
-11.5931
-8.75237
-8.6125
-8.60555
-8.60117
-8.60094
-8.605
-8.61216
-8.6205
-8.62833
-8.63465
-8.63914
-8.64193
-8.64327
-8.61162
-8.61001
-8.60672
-8.60164
-8.59476
-8.58648
-8.57776
-8.57005
-8.5649
-8.56324
-8.56487
-8.56848
-8.79203
-11.3765
-11.9569
-11.9515
-11.9515
-11.9569
-11.3765
-8.792
-8.56847
-8.56486
-8.56322
-8.56488
-8.57003
-8.57775
-8.58647
-8.59475
-8.60163
-8.60671
-8.61
-8.61161
-8.5856
-8.58393
-8.58055
-8.57542
-8.56862
-8.56057
-8.5521
-8.54443
-8.53881
-8.53596
-8.53541
-8.53635
-8.81095
-11.1348
-11.5931
-11.5859
-11.5859
-11.5931
-11.1347
-8.81093
-8.53634
-8.5354
-8.53595
-8.5388
-8.54442
-8.55209
-8.56056
-8.56861
-8.57541
-8.58054
-8.58392
-8.58559
-8.56392
-8.56232
-8.55909
-8.55424
-8.54791
-8.54048
-8.53268
-8.52547
-8.51982
-8.51621
-8.51423
-8.5133
-8.80244
-10.8863
-11.2395
-11.2304
-11.2304
-11.2395
-10.8863
-8.80241
-8.51329
-8.51422
-8.5162
-8.51981
-8.52546
-8.53267
-8.54047
-8.5479
-8.55424
-8.55908
-8.56231
-8.56391
-8.54562
-8.54416
-8.54122
-8.53685
-8.5312
-8.52462
-8.5177
-8.51123
-8.5059
-8.502
-8.49913
-8.49703
-8.79134
-10.6372
-10.8923
-10.8813
-10.8813
-10.8923
-10.6372
-8.79132
-8.49702
-8.49913
-8.50199
-8.50589
-8.51122
-8.5177
-8.52461
-8.5312
-8.53685
-8.54121
-8.54415
-8.54561
-8.52999
-8.5287
-8.52613
-8.52233
-8.51745
-8.51181
-8.5059
-8.5003
-8.49552
-8.49168
-8.48839
-8.48565
-8.7957
-10.3813
-10.5496
-10.5368
-10.5368
-10.5496
-10.3812
-8.79568
-8.48564
-8.48839
-8.49167
-8.49552
-8.5003
-8.50589
-8.51181
-8.51745
-8.52232
-8.52612
-8.52869
-8.52998
-8.51648
-8.51538
-8.51319
-8.50998
-8.5059
-8.50121
-8.49632
-8.49166
-8.48756
-8.48398
-8.4806
-8.47754
-8.80069
-10.1108
-10.2102
-10.1957
-10.1957
-10.2102
-10.1108
-8.80067
-8.47754
-8.48059
-8.48398
-8.48755
-8.49165
-8.49631
-8.50121
-8.50589
-8.50998
-8.51318
-8.51537
-8.51648
-8.50468
-8.50376
-8.50195
-8.49932
-8.49599
-8.4922
-8.48827
-8.48453
-8.48116
-8.47801
-8.47468
-8.47147
-8.78544
-9.82516
-9.87264
-9.8566
-9.8566
-9.87264
-9.82515
-8.78543
-8.47146
-8.47467
-8.478
-8.48115
-8.48452
-8.48826
-8.49219
-8.49598
-8.49931
-8.50194
-8.50375
-8.50467
-8.49423
-8.4935
-8.49205
-8.48995
-8.48732
-8.48436
-8.48131
-8.47843
-8.47578
-8.47311
-8.47
-8.4668
-8.75032
-9.52759
-9.53606
-9.51847
-9.51847
-9.53606
-9.52758
-8.7503
-8.46679
-8.46999
-8.4731
-8.47577
-8.47842
-8.48131
-8.48435
-8.48731
-8.48994
-8.49204
-8.49349
-8.49423
-8.48488
-8.48431
-8.48319
-8.48158
-8.47959
-8.47739
-8.47515
-8.47304
-8.47103
-8.46885
-8.46611
-8.46315
-8.6983
-9.21924
-9.1998
-9.1806
-9.1806
-9.1998
-9.21923
-8.69829
-8.46314
-8.46611
-8.46885
-8.47103
-8.47304
-8.47515
-8.47738
-8.47959
-8.48157
-8.48318
-8.4843
-8.48487
-8.4764
-8.47597
-8.47516
-8.47399
-8.47258
-8.47105
-8.46952
-8.46806
-8.4666
-8.4649
-8.46264
-8.46003
-8.62219
-8.90015
-8.8631
-8.84221
-8.84221
-8.86309
-8.90015
-8.62218
-8.46003
-8.46263
-8.4649
-8.46659
-8.46805
-8.46952
-8.47104
-8.47257
-8.47399
-8.47515
-8.47597
-8.47639
-8.4686
-8.46831
-8.46776
-8.467
-8.4661
-8.46515
-8.4642
-8.46326
-8.46227
-8.46101
-8.45926
-8.45705
-8.51179
-8.57181
-8.52542
-8.50284
-8.50284
-8.52542
-8.57181
-8.51178
-8.45704
-8.45925
-8.461
-8.46226
-8.46326
-8.46419
-8.46514
-8.46609
-8.46699
-8.46775
-8.4683
-8.46859
-8.46133
-8.46116
-8.46086
-8.46045
-8.45999
-8.45952
-8.45905
-8.45854
-8.45789
-8.457
-8.45586
-8.45436
-8.35912
-8.23688
-8.18633
-8.16204
-8.16204
-8.18633
-8.23688
-8.35912
-8.45435
-8.45586
-8.45699
-8.45789
-8.45853
-8.45904
-8.45951
-8.45998
-8.46044
-8.46085
-8.46116
-8.46132
-8.45448
-8.45443
-8.45433
-8.45422
-8.45413
-8.45406
-8.45399
-8.4538
-8.45336
-8.45271
-8.45242
-8.45264
-8.15702
-7.89864
-7.84521
-7.81916
-7.81916
-7.84521
-7.89864
-8.15701
-8.45264
-8.45242
-8.4527
-8.45336
-8.45379
-8.45398
-8.45406
-8.45413
-8.45422
-8.45433
-8.45442
-8.45447
-8.44795
-8.44799
-8.44807
-8.44822
-8.44844
-8.44871
-8.44895
-8.44897
-8.44857
-8.44783
-8.44813
-8.45032
-7.8988
-7.5594
-7.50099
-7.47327
-7.47327
-7.50098
-7.5594
-7.8988
-8.45032
-8.44813
-8.44783
-8.44856
-8.44897
-8.44894
-8.44871
-8.44843
-8.44821
-8.44806
-8.44798
-8.44794
-8.44164
-8.44175
-8.44199
-8.44236
-8.44285
-8.44342
-8.4439
-8.44404
-8.44344
-8.44188
-8.44017
-8.43109
-7.57265
-7.21563
-7.15257
-7.12382
-7.12382
-7.15257
-7.21562
-7.57265
-8.43109
-8.44016
-8.44187
-8.44343
-8.44403
-8.4439
-8.44341
-8.44285
-8.44236
-8.44199
-8.44175
-8.44163
-8.43549
-8.43567
-8.43605
-8.43661
-8.43733
-8.43815
-8.43886
-8.43911
-8.43835
-8.43592
-8.43174
-8.3095
-7.19927
-6.86689
-6.80076
-6.77143
-6.77143
-6.80076
-6.86689
-7.19927
-8.3095
-8.43173
-8.43591
-8.43834
-8.43911
-8.43885
-8.43814
-8.43733
-8.4366
-8.43604
-8.43567
-8.43549
-8.42947
-8.42972
-8.43021
-8.43093
-8.43185
-8.43287
-8.43379
-8.43422
-8.43355
-8.43086
-8.42567
-8.11987
-6.78406
-6.5145
-6.44717
-6.41759
-6.41759
-6.44717
-6.5145
-6.78406
-8.11987
-8.42566
-8.43085
-8.43354
-8.43422
-8.43378
-8.43287
-8.43184
-8.43092
-8.4302
-8.42971
-8.42947
-8.42358
-8.42387
-8.42446
-8.42531
-8.42639
-8.42757
-8.42865
-8.42925
-8.42885
-8.42673
-8.42188
-7.80271
-6.35074
-6.15995
-6.09392
-6.06447
-6.06447
-6.09392
-6.15995
-6.35074
-7.80271
-8.42188
-8.42672
-8.42885
-8.42925
-8.42864
-8.42757
-8.42638
-8.42531
-8.42445
-8.42386
-8.42357
-8.4178
-8.41814
-8.41881
-8.41978
-8.42097
-8.42226
-8.4234
-8.42406
-8.42387
-8.42274
-8.41976
-7.31246
-5.93633
-5.80671
-5.7435
-5.71462
-5.71462
-5.7435
-5.80671
-5.93633
-7.31247
-8.41975
-8.42274
-8.42387
-8.42406
-8.4234
-8.42225
-8.42097
-8.41977
-8.4188
-8.41813
-8.41779
-8.41217
-8.41255
-8.41329
-8.41435
-8.41564
-8.41698
-8.4181
-8.4186
-8.41812
-8.41665
-8.41272
-6.64436
-5.56225
-5.45769
-5.39837
-5.37077
-5.37077
-5.39837
-5.45769
-5.56225
-6.64437
-8.41272
-8.41664
-8.41811
-8.4186
-8.41809
-8.41698
-8.41563
-8.41435
-8.41329
-8.41254
-8.41216
-8.40672
-8.40714
-8.40796
-8.40911
-8.41048
-8.41186
-8.4129
-8.41311
-8.41177
-8.40708
-8.2917
-5.87126
-5.2124
-5.1141
-5.06124
-5.03628
-5.03628
-5.06124
-5.1141
-5.2124
-5.87127
-8.2917
-8.40707
-8.41176
-8.41311
-8.4129
-8.41185
-8.41047
-8.4091
-8.40795
-8.40713
-8.40671
-8.4015
-8.40197
-8.40286
-8.4041
-8.40557
-8.40702
-8.40808
-8.40821
-8.40676
-8.40188
-7.46427
-5.15172
-4.86364
-4.78086
-4.7364
-4.71523
-4.71523
-4.7364
-4.78086
-4.86363
-5.15172
-7.46428
-8.40187
-8.40676
-8.4082
-8.40807
-8.40702
-8.40556
-8.4041
-8.40285
-8.40196
-8.4015
-8.39659
-8.39709
-8.39806
-8.3994
-8.40096
-8.40248
-8.40351
-8.40343
-8.40118
-8.39525
-6.25095
-4.62927
-4.52782
-4.4645
-4.42936
-4.41262
-4.41262
-4.42936
-4.46449
-4.52782
-4.62927
-6.25097
-8.39524
-8.40117
-8.40343
-8.40351
-8.40247
-8.40095
-8.39939
-8.39805
-8.39708
-8.39658
-8.39205
-8.3926
-8.39364
-8.39507
-8.39672
-8.39829
-8.3992
-8.39833
-8.39276
-7.96375
-4.9006
-4.28899
-4.2142
-4.17023
-4.14521
-4.13332
-4.13332
-4.14521
-4.17023
-4.21419
-4.28899
-4.90061
-7.96377
-8.39275
-8.39832
-8.3992
-8.39829
-8.39672
-8.39507
-8.39363
-8.39259
-8.39204
-8.38801
-8.38859
-8.3897
-8.39123
-8.39296
-8.39464
-8.39566
-8.39452
-8.38833
-6.06965
-4.04604
-3.97398
-3.92857
-3.90307
-3.88812
-3.88104
-3.88104
-3.88812
-3.90307
-3.92857
-3.97398
-4.04604
-6.06969
-8.38832
-8.39451
-8.39565
-8.39463
-8.39296
-8.39123
-8.3897
-8.38858
-8.388
-8.3846
-8.38521
-8.38639
-8.38801
-8.38978
-8.39152
-8.39291
-8.39228
-7.31396
-4.09341
-3.73005
-3.69735
-3.67748
-3.6669
-3.66084
-3.65803
-3.65803
-3.66084
-3.6669
-3.67748
-3.69735
-3.73004
-4.09343
-7.314
-8.39228
-8.3929
-8.39151
-8.38977
-8.388
-8.38638
-8.3852
-8.38459
-8.38202
-8.38266
-8.38391
-8.38572
-8.38747
-8.3891
-8.39114
-7.71487
-4.18218
-3.46859
-3.46548
-3.46151
-3.46174
-3.46304
-3.46421
-3.46485
-3.46485
-3.46421
-3.46304
-3.46174
-3.4615
-3.46547
-3.46858
-4.18223
-7.71492
-8.39113
-8.3891
-8.38746
-8.38571
-8.38391
-8.38265
-8.38202
-8.38067
-8.38127
-8.38265
-8.38514
-8.38663
-8.38786
-7.41812
-3.8016
-3.1942
-3.23085
-3.25101
-3.2678
-3.28118
-3.29098
-3.2974
-3.30055
-3.30055
-3.29739
-3.29097
-3.28118
-3.26779
-3.25101
-3.23084
-3.19419
-3.80166
-7.4182
-8.38785
-8.38662
-8.38513
-8.38265
-8.38127
-8.38067
-8.38084
-8.38141
-8.3823
-8.38561
-7.7837
-5.7493
-3.20511
-2.93665
-3.00283
-3.04921
-3.08473
-3.11241
-3.13337
-3.14844
-3.1582
-3.16298
-3.16298
-3.15819
-3.14844
-3.13336
-3.11241
-3.08473
-3.04921
-3.00283
-2.93664
-3.20514
-5.74942
-7.78377
-8.3856
-8.3823
-8.38141
-8.38084
-6.70808
-6.49235
-5.87363
-4.6591
-3.38899
-2.69174
-2.72144
-2.80019
-2.86517
-2.91689
-2.95781
-2.98988
-3.01436
-3.03207
-3.04357
-3.04922
-3.04922
-3.04357
-3.03207
-3.01436
-2.98987
-2.9578
-2.91688
-2.86516
-2.80018
-2.72143
-2.69175
-3.38906
-4.65926
-5.87377
-6.49247
-6.70819
-2.60124
-2.54534
-2.45503
-2.44756
-2.5069
-2.57414
-2.64545
-2.71247
-2.77145
-2.82111
-2.8618
-2.89439
-2.91963
-2.93806
-2.95011
-2.95605
-2.95605
-2.95011
-2.93806
-2.91963
-2.89439
-2.86179
-2.8211
-2.77144
-2.71246
-2.64544
-2.57414
-2.5069
-2.44756
-2.45504
-2.54536
-2.60127
-2.35637
-2.37048
-2.39785
-2.4369
-2.486
-2.54219
-2.60019
-2.65606
-2.70718
-2.75189
-2.78963
-2.8205
-2.84475
-2.86264
-2.87442
-2.88026
-2.88026
-2.87442
-2.86264
-2.84475
-2.8205
-2.78962
-2.75188
-2.70718
-2.65606
-2.60018
-2.54219
-2.486
-2.4369
-2.39784
-2.37048
-2.35637
-2.37668
-2.38794
-2.40996
-2.44167
-2.48131
-2.52605
-2.57292
-2.61922
-2.66275
-2.70176
-2.73543
-2.76345
-2.78576
-2.80238
-2.8134
-2.81888
-2.81888
-2.8134
-2.80238
-2.78575
-2.76345
-2.73543
-2.70175
-2.66275
-2.61921
-2.57292
-2.52604
-2.4813
-2.44167
-2.40995
-2.38793
-2.37667
-2.39893
-2.40803
-2.42579
-2.45126
-2.48295
-2.51895
-2.5572
-2.59558
-2.632
-2.66534
-2.69465
-2.7194
-2.73932
-2.75431
-2.7643
-2.76929
-2.76928
-2.7643
-2.7543
-2.73932
-2.71939
-2.69464
-2.66533
-2.63199
-2.59557
-2.55719
-2.51894
-2.48294
-2.45125
-2.42578
-2.40803
-2.39893
-2.4207
-2.42801
-2.44226
-2.4627
-2.48821
-2.51736
-2.54852
-2.58008
-2.6105
-2.6387
-2.66382
-2.68529
-2.70274
-2.71595
-2.72482
-2.72925
-2.72925
-2.72481
-2.71595
-2.70273
-2.68528
-2.66382
-2.6387
-2.61049
-2.58007
-2.54851
-2.51735
-2.48821
-2.4627
-2.44225
-2.428
-2.42069
-2.44077
-2.44665
-2.45812
-2.47459
-2.49518
-2.5188
-2.54421
-2.57015
-2.59541
-2.61908
-2.64039
-2.65877
-2.67384
-2.68532
-2.69305
-2.69694
-2.69694
-2.69305
-2.68532
-2.67383
-2.65877
-2.64039
-2.61908
-2.59541
-2.57014
-2.5442
-2.5188
-2.49518
-2.47458
-2.45811
-2.44665
-2.44076
-2.45868
-2.46342
-2.47266
-2.48596
-2.50262
-2.5218
-2.54253
-2.56383
-2.58476
-2.60453
-2.62247
-2.63807
-2.65094
-2.6608
-2.66746
-2.67082
-2.67082
-2.66746
-2.6608
-2.65094
-2.63807
-2.62247
-2.60453
-2.58476
-2.56383
-2.54252
-2.52179
-2.50262
-2.48596
-2.47266
-2.46341
-2.45867
-2.4743
-2.47813
-2.4856
-2.49636
-2.50987
-2.52546
-2.54239
-2.55989
-2.57719
-2.59364
-2.60867
-2.62182
-2.63273
-2.64112
-2.64681
-2.64968
-2.64968
-2.64681
-2.64112
-2.63273
-2.62182
-2.60867
-2.59364
-2.57719
-2.55989
-2.54239
-2.52546
-2.50986
-2.49636
-2.4856
-2.47813
-2.47429
-2.48772
-2.49083
-2.49688
-2.5056
-2.51657
-2.52927
-2.54312
-2.55749
-2.57177
-2.58543
-2.59797
-2.609
-2.61819
-2.62529
-2.63011
-2.63255
-2.63255
-2.63011
-2.62529
-2.61819
-2.609
-2.59797
-2.58542
-2.57177
-2.55748
-2.54311
-2.52927
-2.51657
-2.5056
-2.49687
-2.49082
-2.48772
-2.49914
-2.50166
-2.50657
-2.51366
-2.52259
-2.53295
-2.54427
-2.55608
-2.56786
-2.57918
-2.58962
-2.59884
-2.60654
-2.61251
-2.61658
-2.61864
-2.61864
-2.61658
-2.61251
-2.60654
-2.59883
-2.58962
-2.57918
-2.56786
-2.55607
-2.54427
-2.53294
-2.52258
-2.51366
-2.50657
-2.50166
-2.49914
-2.50878
-2.51083
-2.51482
-2.52059
-2.52787
-2.53633
-2.54561
-2.5553
-2.56502
-2.57438
-2.58305
-2.59074
-2.59718
-2.60218
-2.60559
-2.60732
-2.60732
-2.60559
-2.60218
-2.59717
-2.59073
-2.58305
-2.57438
-2.56502
-2.5553
-2.5456
-2.53633
-2.52787
-2.52059
-2.51482
-2.51083
-2.50878
-2.51687
-2.51854
-2.52179
-2.5265
-2.53244
-2.53936
-2.54696
-2.55493
-2.56294
-2.57068
-2.57787
-2.58425
-2.58962
-2.5938
-2.59665
-2.5981
-2.5981
-2.59665
-2.59379
-2.58962
-2.58425
-2.57786
-2.57068
-2.56294
-2.55493
-2.54696
-2.53936
-2.53244
-2.52649
-2.52179
-2.51854
-2.51687
-2.52364
-2.525
-2.52765
-2.53149
-2.53635
-2.54201
-2.54825
-2.5548
-2.5614
-2.56779
-2.57374
-2.57904
-2.5835
-2.58698
-2.58936
-2.59057
-2.59057
-2.58936
-2.58698
-2.5835
-2.57904
-2.57374
-2.56779
-2.56139
-2.5548
-2.54825
-2.54201
-2.53635
-2.53149
-2.52765
-2.52499
-2.52364
-2.52927
-2.53038
-2.53255
-2.53569
-2.53967
-2.54431
-2.54943
-2.55481
-2.56025
-2.56552
-2.57045
-2.57484
-2.57854
-2.58143
-2.58342
-2.58442
-2.58442
-2.58342
-2.58143
-2.57854
-2.57484
-2.57045
-2.56552
-2.56024
-2.55481
-2.54942
-2.54431
-2.53966
-2.53569
-2.53255
-2.53038
-2.52927
-2.53396
-2.53487
-2.53664
-2.53921
-2.54247
-2.54627
-2.55047
-2.5549
-2.55938
-2.56373
-2.5678
-2.57144
-2.57451
-2.57691
-2.57855
-2.57939
-2.57939
-2.57855
-2.57691
-2.57451
-2.57144
-2.5678
-2.56373
-2.55938
-2.5549
-2.55047
-2.54627
-2.54246
-2.53921
-2.53664
-2.53486
-2.53396
-2.53785
-2.53859
-2.54004
-2.54215
-2.54482
-2.54794
-2.55139
-2.55503
-2.55872
-2.56231
-2.56567
-2.56868
-2.57122
-2.57321
-2.57458
-2.57527
-2.57527
-2.57457
-2.57321
-2.57122
-2.56868
-2.56567
-2.56231
-2.55872
-2.55503
-2.55139
-2.54794
-2.54481
-2.54214
-2.54004
-2.53859
-2.53784
-2.54107
-2.54167
-2.54286
-2.54459
-2.54678
-2.54934
-2.55218
-2.55518
-2.55821
-2.56118
-2.56395
-2.56643
-2.56854
-2.57018
-2.57131
-2.57189
-2.57189
-2.57131
-2.57018
-2.56854
-2.56643
-2.56395
-2.56118
-2.55821
-2.55518
-2.55218
-2.54934
-2.54678
-2.54459
-2.54286
-2.54167
-2.54106
-2.54373
-2.54423
-2.5452
-2.54662
-2.54842
-2.55053
-2.55286
-2.55532
-2.55782
-2.56026
-2.56255
-2.56461
-2.56634
-2.56771
-2.56864
-2.56912
-2.56912
-2.56864
-2.56771
-2.56634
-2.56461
-2.56255
-2.56026
-2.55782
-2.55532
-2.55286
-2.55052
-2.54842
-2.54662
-2.5452
-2.54423
-2.54373
-2.54593
-2.54634
-2.54714
-2.5483
-2.54978
-2.55151
-2.55343
-2.55546
-2.55752
-2.55953
-2.56142
-2.56311
-2.56455
-2.56567
-2.56645
-2.56684
-2.56684
-2.56645
-2.56567
-2.56455
-2.56311
-2.56142
-2.55953
-2.55752
-2.55546
-2.55343
-2.55151
-2.54978
-2.5483
-2.54714
-2.54634
-2.54593
-2.54775
-2.54809
-2.54874
-2.5497
-2.55091
-2.55234
-2.55391
-2.55558
-2.55728
-2.55894
-2.56049
-2.56189
-2.56308
-2.56401
-2.56465
-2.56497
-2.56497
-2.56465
-2.56401
-2.56308
-2.56189
-2.56049
-2.55894
-2.55728
-2.55558
-2.55391
-2.55234
-2.55091
-2.5497
-2.54874
-2.54809
-2.54775
-2.54925
-2.54953
-2.55007
-2.55085
-2.55185
-2.55302
-2.55432
-2.55569
-2.55709
-2.55846