/*--------------------------------*- C++ -*----------------------------------*\
  =========                 |
  \\      /  F ield         | OpenFOAM: The Open Source CFD Toolbox
   \\    /   O peration     | Website:  https://openfoam.org
    \\  /    A nd           | Version:  9
     \\/     M anipulation  |
\*---------------------------------------------------------------------------*/
FoamFile
{
    format      ascii;
    class       surfaceScalarField;
    location    "0.9";
    object      phi;
}
// * * * * * * * * * * * * * * * * * * * * * * * * * * * * * * * * * * * * * //

dimensions      [0 3 -1 0 0 0 0];

internalField   nonuniform List<scalar> 
8032
(
-2.8603e-05
2.86029e-05
-5.6263e-05
2.76679e-05
-8.18717e-05
2.56087e-05
-0.000104402
2.25306e-05
-0.000122968
1.85651e-05
-0.000136838
1.38705e-05
-0.000145465
8.6272e-06
-0.0001485
3.03453e-06
-0.000145821
-2.67913e-06
-0.000137512
-8.30904e-06
-0.000123876
-1.3635e-05
-0.000105433
-1.84437e-05
-8.28886e-05
-2.25441e-05
-5.71158e-05
-2.57728e-05
-2.91156e-05
-2.80001e-05
2.09169e-08
-2.91365e-05
2.91573e-05
-2.91363e-05
5.71568e-05
-2.79995e-05
8.29286e-05
-2.57718e-05
0.000105471
-2.25427e-05
0.000123913
-1.84419e-05
0.000137546
-1.36329e-05
0.000145853
-8.30664e-06
0.00014853
-2.67645e-06
0.000145492
3.03746e-06
0.000136862
8.63034e-06
0.000122988
1.38738e-05
0.00010442
1.85685e-05
8.18858e-05
2.2534e-05
5.62742e-05
2.56116e-05
2.86056e-05
2.76686e-05
2.86056e-05
-2.98399e-05
5.84429e-05
-5.87073e-05
5.65354e-05
-8.54325e-05
5.2334e-05
-0.000108948
4.60464e-05
-0.000128329
3.79464e-05
-0.000142815
2.83564e-05
-0.000151833
1.7645e-05
-0.000155018
6.21971e-06
-0.000152229
-5.46852e-06
-0.000143563
-1.69749e-05
-0.000129337
-2.78608e-05
-0.000110088
-3.76929e-05
-8.65533e-05
-4.60786e-05
-5.96437e-05
-5.26823e-05
-3.04054e-05
-5.72384e-05
2.11205e-08
-5.9563e-05
3.04475e-05
-5.95626e-05
5.96852e-05
-5.72372e-05
8.65937e-05
-5.26803e-05
0.000110127
-4.60758e-05
0.000129374
-3.76893e-05
0.000143598
-2.78566e-05
0.000152262
-1.69701e-05
0.000155048
-5.4631e-06
0.00015186
6.22565e-06
0.000142839
1.76514e-05
0.00012835
2.83631e-05
0.000108965
3.79534e-05
8.54455e-05
4.60534e-05
5.87165e-05
5.23408e-05
2.98436e-05
5.65415e-05
5.84492e-05
-3.21093e-05
9.05522e-05
-6.31746e-05
8.76008e-05
-9.19384e-05
8.10978e-05
-0.000117256
7.13639e-05
-0.000138132
5.8822e-05
-0.000153745
4.39702e-05
-0.000163479
2.73783e-05
-0.000166936
9.67745e-06
-0.00016396
-8.44476e-06
-0.000154648
-2.62873e-05
-0.000139341
-4.31669e-05
-0.000118618
-5.84167e-05
-9.32693e-05
-7.14269e-05
-6.42769e-05
-8.16746e-05
-3.27695e-05
-8.87458e-05
2.14516e-08
-9.23539e-05
3.28122e-05
-9.23533e-05
6.4319e-05
-8.87439e-05
9.33103e-05
-8.16715e-05
0.000118657
-7.14227e-05
0.000139379
-5.84113e-05
0.000154683
-4.31605e-05
0.000163993
-2.62799e-05
0.000166966
-8.4365e-06
0.000163506
9.6865e-06
0.000153769
2.7388e-05
0.000138152
4.39805e-05
0.000117272
5.88328e-05
9.19511e-05
7.13748e-05
6.31832e-05
8.11087e-05
3.21134e-05
8.76114e-05
9.05627e-05
-3.55354e-05
0.000126088
-6.9919e-05
0.000121984
-0.000101764
0.000112943
-0.000129806
9.94061e-05
-0.000152944
8.19602e-05
-0.000170269
6.12947e-05
-0.00018109
3.81999e-05
-0.000184966
1.35529e-05
-0.000181714
-1.16966e-05
-0.000171433
-3.6568e-05
-0.000154497
-6.01023e-05
-0.000131543
-8.13706e-05
-0.000103449
-9.95217e-05
-7.13006e-05
-0.000113823
-3.63537e-05
-0.000123693
2.19838e-08
-0.00012873
3.63974e-05
-0.000128729
7.13437e-05
-0.00012369
0.000103491
-0.000113818
0.000131584
-9.95159e-05
0.000154536
-8.13634e-05
0.000171469
-6.00937e-05
0.000181747
-3.6558e-05
0.000184996
-1.16854e-05
0.000181118
1.35651e-05
0.000170293
3.8213e-05
0.000152965
6.13086e-05
0.000129823
8.19748e-05
0.000101777
9.9421e-05
6.99275e-05
0.000112958
3.55396e-05
0.000121999
0.000126102
-4.02619e-05
0.00016635
-7.92252e-05
0.000160948
-0.000115325
0.000149043
-0.000147133
0.000131214
-0.000173403
0.00010823
-0.000193099
8.09914e-05
-0.000205436
5.05361e-05
-0.0002099
1.8017e-05
-0.000206277
-1.53193e-05
-0.000194667
-4.81776e-05
-0.000175486
-7.92837e-05
-0.00014945
-0.000107407
-0.000117554
-0.000131417
-8.10352e-05
-0.000150342
-4.13218e-05
-0.000163406
2.27426e-08
-0.000170074
4.1367e-05
-0.000170073
8.10797e-05
-0.000163403
0.000117598
-0.000150336
0.000149492
-0.00013141
0.000175526
-0.000107397
0.000194705
-7.92726e-05
0.000206312
-4.81649e-05
0.000209931
-1.53051e-05
0.000205464
1.80326e-05
0.000193124
5.05529e-05
0.000173424
8.10092e-05
0.00014715
0.000108248
0.000115338
0.000131233
7.92339e-05
0.000149062
4.02663e-05
0.000160967
0.000166369
-4.64685e-05
0.000212818
-9.14476e-05
0.000205927
-0.00013314
0.000190735
-0.000169904
0.000167978
-0.000200301
0.000138627
-0.000223133
0.000103823
-0.00023748
6.48832e-05
-0.000242738
2.32753e-05
-0.000238645
-1.94126e-05
-0.000225301
-6.15219e-05
-0.000203172
-0.000101412
-0.000173081
-0.000137498
-0.000136176
-0.000168322
-9.38895e-05
-0.000192628
-4.7883e-05
-0.000209412
2.37453e-08
-0.000217981
4.79303e-05
-0.000217979
9.3936e-05
-0.000209408
0.000136221
-0.000192621
0.000173125
-0.000168313
0.000203214
-0.000137486
0.000225339
-0.000101398
0.000238681
-6.15063e-05
0.000242771
-1.93952e-05
0.000237509
2.32944e-05
0.000223159
6.49037e-05
0.000200323
0.000103845
0.000169922
0.000138649
0.000133154
0.000168002
9.14566e-05
0.000190759
4.6473e-05
0.000205951
0.000212842
-5.43798e-05
0.000267198
-0.00010703
0.000258577
-0.000155861
0.000239566
-0.000198959
0.000211077
-0.000234643
0.00017431
-0.000261503
0.000130683
-0.000278448
8.18284e-05
-0.000284752
2.95798e-05
-0.000280087
-2.40782e-05
-0.000264548
-7.70609e-05
-0.000238665
-0.000127294
-0.000203392
-0.000172771
-0.000160071
-0.000211643
-0.000110389
-0.00024231
-5.63065e-05
-0.000263495
2.50071e-08
-0.000274312
5.63563e-05
-0.000274311
0.000110438
-0.00026349
0.000160119
-0.000242302
0.000203437
-0.000211632
0.000238709
-0.000172757
0.000264588
-0.000127278
0.000280124
-7.70422e-05
0.000284787
-2.40573e-05
0.000278478
2.96026e-05
0.000261529
8.18529e-05
0.000234666
0.000130708
0.000198978
0.000174337
0.000155875
0.000211105
0.000107039
0.000239595
5.43845e-05
0.000258606
0.000267226
-6.42745e-05
0.000331473
-0.000126524
0.000320827
-0.000184297
0.00029734
-0.000235345
0.000262125
-0.000277681
0.000216646
-0.000309629
0.00016263
-0.000329879
0.000102079
-0.000337546
3.72468e-05
-0.000332208
-2.94156e-05
-0.000313951
-9.53186e-05
-0.000283377
-0.000157868
-0.000241599
-0.000214548
-0.000190207
-0.000263035
-0.000131206
-0.000301311
-6.69365e-05
-0.000327764
2.65444e-08
-0.000341275
6.69893e-05
-0.000341273
0.000131258
-0.000327759
0.000190258
-0.000301301
0.000241648
-0.000263022
0.000283423
-0.000214532
0.000313994
-0.000157849
0.000332248
-9.52966e-05
0.000337582
-2.93911e-05
0.000329911
3.72736e-05
0.000309657
0.000102107
0.000277705
0.00016266
0.000235365
0.000216678
0.000184312
0.000262158
0.000126534
0.000297373
6.42794e-05
0.00032086
0.000331506
-7.64939e-05
0.000407967
-0.000150605
0.000394938
-0.000219445
0.000366179
-0.000280352
0.000323033
-0.000330965
0.000267259
-0.000369274
0.00020094
-0.000393692
0.000126496
-0.000403126
4.66802e-05
-0.000397026
-3.5515e-05
-0.000375451
-0.000116894
-0.000339088
-0.000194231
-0.000289244
-0.000264392
-0.00022781
-0.000324469
-0.000157192
-0.000371928
-8.02097e-05
-0.000404747
2.83775e-08
-0.000421513
8.02661e-05
-0.000421511
0.000157248
-0.00040474
0.000227864
-0.000371918
0.000289295
-0.000324454
0.000339137
-0.000264374
0.000375497
-0.000194209
0.000397069
-0.000116868
0.000403164
-3.54865e-05
0.000393726
4.67112e-05
0.000369304
0.00012653
0.00033099
0.000200975
0.000280373
0.000267295
0.00021946
0.00032307
0.000150616
0.000366218
7.6499e-05
0.000394976
0.000408005
-9.14502e-05
0.000499417
-0.000180092
0.00048358
-0.000262511
0.000448598
-0.000335551
0.000396072
-0.00039639
0.000328098
-0.000442605
0.000247155
-0.000472257
0.000156148
-0.000483979
5.84025e-05
-0.000477051
-4.24434e-05
-0.000451476
-0.000142469
-0.000408033
-0.000237674
-0.000348261
-0.000324164
-0.000274423
-0.000398307
-0.000189422
-0.000456929
-9.66771e-05
-0.000497491
3.05321e-08
-0.000518221
9.67378e-05
-0.000518218
0.000189481
-0.000497484
0.000274481
-0.000456917
0.000348317
-0.00039829
0.000408086
-0.000324143
0.000451525
-0.000237648
0.000477096
-0.000142439
0.00048402
-4.24106e-05
0.000472293
5.8438e-05
0.000442637
0.000156186
0.000396416
0.000247195
0.000335572
0.00032814
0.000262527
0.000396115
0.000180103
0.000448642
9.14556e-05
0.000483624
0.00049946
-0.000109635
0.000609052
-0.000215962
0.000589907
-0.000314944
0.00054758
-0.000402833
0.000483961
-0.00047625
0.000401515
-0.00053226
0.000303165
-0.000568474
0.000192363
-0.000583172
7.30998e-05
-0.000575392
-5.02235e-05
-0.000545045
-0.000172815
-0.000493002
-0.000289716
-0.000421075
-0.000396091
-0.000331982
-0.0004874
-0.000229244
-0.000559667
-0.000117031
-0.000609704
3.30415e-08
-0.000635285
0.000117097
-0.000635282
0.000229309
-0.000609695
0.000332045
-0.000559653
0.000421135
-0.00048738
0.000493059
-0.000396066
0.000545098
-0.000289687
0.00057544
-0.000172781
0.000583215
-5.0186e-05
0.000568513
7.31404e-05
0.000532293
0.000192406
0.000476278
0.00030321
0.000402855
0.000401562
0.000314961
0.000484009
0.000215974
0.000547629
0.000109641
0.000589956
0.000609101
-0.000131629
0.000740681
-0.00025937
0.000717649
-0.000378461
0.000666671
-0.000484453
0.000589954
-0.000573298
0.00049036
-0.000641427
0.000371294
-0.00068588
0.000236817
-0.000704465
9.1685e-05
-0.000695891
-5.87981e-05
-0.000659909
-0.000208796
-0.000597475
-0.000352151
-0.000510719
-0.000482847
-0.000402915
-0.000595204
-0.000278353
-0.000684229
-0.000142142
-0.000745915
3.59469e-08
-0.000777463
0.000142213
-0.000777459
0.000278423
-0.000745905
0.000402983
-0.000684213
0.000510784
-0.000595181
0.000597536
-0.000482818
0.000659966
-0.000352117
0.000695943
-0.000208758
0.000704512
-5.87554e-05
0.000685922
9.17311e-05
0.000641462
0.000236865
0.000573328
0.000371345
0.000484477
0.000490413
0.000378478
0.000590008
0.000259382
0.000666726
0.000131635
0.000717704
0.000740736
-0.000158101
0.000898782
-0.000311659
0.000871206
-0.000455072
0.000810084
-0.000583075
0.000717957
-0.000690814
0.0005981
-0.00077394
0.00045442
-0.000828763
0.000291639
-0.000852463
0.000115385
-0.000843285
-6.79754e-05
-0.000800723
-0.000251359
-0.000725789
-0.000427085
-0.000620984
-0.000587652
-0.000490261
-0.000725926
-0.000338871
-0.00083562
-0.0001731
-0.000911685
3.93001e-08
-0.000950602
0.000173178
-0.000950598
0.000338947
-0.000911673
0.000490335
-0.000835601
0.000621054
-0.0007259
0.000725855
-0.000587619
0.000800784
-0.000427046
0.000843341
-0.000251315
0.000852513
-6.79268e-05
0.000828807
0.000115437
0.000773978
0.000291694
0.000690846
0.000454478
0.0005831
0.000598159
0.000455091
0.000718017
0.000311672
0.000810145
0.000158108
0.000871268
0.000898844
-0.000189821
0.0010886
-0.000374371
0.00105576
-0.000547101
0.000982813
-0.000701803
0.000872658
-0.000832667
0.000728965
-0.000934376
0.000556129
-0.0010023
0.000359564
-0.00103279
0.000145869
-0.00102342
-7.73425e-05
-0.000973268
-0.000301509
-0.000883363
-0.00051699
-0.000756622
-0.000714392
-0.000597839
-0.000884709
-0.000413466
-0.00101999
-0.000211277
-0.00111387
4.31663e-08
-0.00116192
0.000211363
-0.00116192
0.00041355
-0.00111386
0.00059792
-0.00101997
0.000756699
-0.000884679
0.000883435
-0.000714355
0.000973334
-0.000516945
0.00102348
-0.000301459
0.00103284
-7.72873e-05
0.00100235
0.000145928
0.000934417
0.000359626
0.0008327
0.000556194
0.000701829
0.000729031
0.000547121
0.000872726
0.000374384
0.000982881
0.000189828
0.00105582
0.00108867
-0.000227645
0.00131625
-0.000449239
0.00127735
-0.000657187
0.00119076
-0.000844211
0.00105968
-0.00100337
0.000888127
-0.00112816
0.000680918
-0.00121273
0.000444136
-0.00125229
0.000185429
-0.0012435
-8.61311e-05
-0.00118475
-0.000360265
-0.00107699
-0.000624753
-0.000923607
-0.00086777
-0.00073045
-0.00107787
-0.000505493
-0.00124495
-0.000258396
-0.00136097
4.76276e-08
-0.00142037
0.000258491
-0.00142036
0.000505586
-0.00136096
0.000730539
-0.00124492
0.000923692
-0.00107783
0.00107706
-0.000867727
0.00118482
-0.000624702
0.00124357
-0.000360208
0.00125235
-8.60685e-05
0.00121278
0.000185496
0.0011282
0.000444206
0.00100341
0.000680989
0.000844238
0.0008882
0.000657207
0.00105976
0.000449253
0.00119084
0.000227652
0.00127743
0.00131632
-0.000272505
0.00158875
-0.000538165
0.00154301
-0.000788263
0.00144086
-0.00101434
0.00128576
-0.00120814
0.00108193
-0.00136168
0.000834456
-0.00146753
0.000549992
-0.00151935
0.000237251
-0.00151248
-9.3008e-05
-0.00144418
-0.000428565
-0.0013152
-0.000753727
-0.00112948
-0.0010535
-0.000894152
-0.00131319
-0.000619182
-0.00151992
-0.000316628
-0.00166352
5.27815e-08
-0.00173705
0.000316733
-0.00173704
0.000619284
-0.00166351
0.000894251
-0.00151989
0.00112957
-0.00131315
0.00131529
-0.00105345
0.00144426
-0.000753669
0.00151255
-0.000428499
0.00151942
-9.29368e-05
0.00146759
0.000237326
0.00136172
0.00055007
0.00120817
0.000834536
0.00101437
0.00108201
0.000788284
0.00128584
0.000538179
0.00144094
0.000272512
0.00154309
0.00158884
-0.000325377
0.00191413
-0.00064316
0.00186079
-0.000943492
0.00174119
-0.00121665
0.00155891
-0.00145286
0.00131814
-0.00164235
0.00102394
-0.00177562
0.000683264
-0.00184417
0.000305802
-0.00184144
-9.57457e-05
-0.00176289
-0.00050711
-0.00160884
-0.000907784
-0.00138378
-0.00127855
-0.00109662
-0.00160035
-0.00075989
-0.00185665
-0.000388726
-0.00203469
5.87498e-08
-0.00212583
0.000388842
-0.00212582
0.000760004
-0.00203467
0.00109673
-0.00185662
0.00138388
-0.0016003
0.00160893
-0.00127849
0.00176298
-0.000907717
0.00184151
-0.000507035
0.00184424
-9.56645e-05
0.00177568
0.000305887
0.0016424
0.000683351
0.0014529
0.00102403
0.00121668
0.00131823
0.000943514
0.001559
0.000643174
0.00174128
0.000325384
0.00186088
0.00191422
-0.000387216
0.00230135
-0.000766238
0.00223982
-0.00112613
0.00210109
-0.0014559
0.00188868
-0.00174409
0.00160634
-0.00197872
0.00125857
-0.0021476
0.000852143
-0.00223922
0.000397418
-0.00224425
-9.07062e-05
-0.00215526
-0.000596104
-0.00197168
-0.00109136
-0.00169875
-0.00155148
-0.00134774
-0.00195136
-0.000934553
-0.00226984
-0.000478267
-0.00249097
6.57035e-08
-0.00260416
0.000478397
-0.00260416
0.000934679
-0.00249095
0.00134786
-0.0022698
0.00169886
-0.0019513
0.00197179
-0.00155142
0.00215535
-0.00109128
0.00224434
-0.000596018
0.00223929
-9.06132e-05
0.00214766
0.000397514
0.00197877
0.000852241
0.00174413
0.00125867
0.00145593
0.00160643
0.00112616
0.00188878
0.000766252
0.00210118
0.000387223
0.00223991
0.00230144
-0.000458871
0.00276022
-0.00090924
0.00269019
-0.00133931
0.00253116
-0.00173692
0.00228628
-0.00208881
0.00195823
-0.00238039
0.00155015
-0.00259593
0.00106768
-0.00271966
0.000521148
-0.00273832
-7.20448e-05
-0.0026396
-0.000694823
-0.00242163
-0.00130933
-0.00209047
-0.00188265
-0.00166055
-0.00238128
-0.00115224
-0.00277815
-0.00058987
-0.00305334
7.38866e-08
-0.00319411
0.000590016
-0.0031941
0.00115238
-0.00305331
0.00166068
-0.0027781
0.00209059
-0.00238121
0.00242174
-0.00188257
0.0026397
-0.00130924
0.00273841
-0.000694723
0.00271973
-7.19377e-05
0.00259599
0.000521257
0.00238044
0.00106779
0.00208885
0.00155026
0.00173695
0.00195834
0.00133934
0.00228639
0.000909254
0.00253127
0.000458877
0.00269029
0.00276032
-0.00054093
0.00330115
-0.00107355
0.00322281
-0.00158564
0.00304325
-0.00206416
0.0027648
-0.00249411
0.00238818
-0.00285784
0.00191388
-0.00313508
0.00134492
-0.00330394
0.000690007
-0.00334539
-3.05935e-05
-0.00323952
-0.000800693
-0.00298209
-0.00156676
-0.00257884
-0.00228589
-0.00204931
-0.00291082
-0.00142153
-0.00340593
-0.000727476
-0.00374739
8.35689e-08
-0.00392167
0.000727641
-0.00392165
0.00142169
-0.00374736
0.00204946
-0.00340588
0.00257899
-0.00291074
0.00298222
-0.0022858
0.00323963
-0.00156666
0.00334549
-0.000800577
0.00330402
-3.04682e-05
0.00313515
0.000690129
0.00285789
0.00134505
0.00249415
0.001914
0.00206419
0.0023883
0.00158566
0.00276491
0.00107357
0.00304336
0.000540936
0.00322292
0.00330126
-0.000633522
0.00393467
-0.00125971
0.003849
-0.00186663
0.00365017
-0.00244102
0.00333918
-0.00296642
0.00291359
-0.00342186
0.00236932
-0.00378125
0.00170432
-0.00401395
0.000922702
-0.00409083
4.62884e-05
-0.00398044
-0.000911079
-0.00367033
-0.00187688
-0.00316525
-0.00279097
-0.00250243
-0.00357363
-0.00172717
-0.00418118
-0.000880701
-0.00459386
9.36503e-08
-0.00480246
0.000880887
-0.00480245
0.00172735
-0.00459382
0.0025026
-0.00418112
0.0031654
-0.00357355
0.00367047
-0.00279086
0.00398056
-0.00187675
0.00409093
-0.000910939
0.00401403
4.64265e-05
0.00378132
0.000922844
0.00342191
0.00170446
0.00296646
0.00236945
0.00244104
0.00291371
0.00186665
0.00333931
0.00125972
0.00365029
0.000633527
0.00384911
0.00393478
-0.000736037
0.00467071
-0.00146682
0.00457978
-0.00218185
0.0043652
-0.00286875
0.00402609
-0.00351049
0.00355532
-0.00408247
0.0029413
-0.00455019
0.00217204
-0.00486893
0.00124144
-0.00498429
0.000161643
-0.00484482
-0.00105054
-0.00441316
-0.00230855
-0.00372484
-0.00347929
-0.00287689
-0.00442159
-0.00194448
-0.00511359
-0.000975936
-0.00556241
9.65278e-08
-0.00577849
0.000976129
-0.00577848
0.00194467
-0.00556237
0.00287707
-0.00511352
0.00372502
-0.00442149
0.00441332
-0.00347916
0.00484496
-0.00230839
0.0049844
-0.00105038
0.00486901
0.000161809
0.00455025
0.00124161
0.00408252
0.00217219
0.00351052
0.00294145
0.00286877
0.00355546
0.00218186
0.00402622
0.00146683
0.00436532
0.000736041
0.0045799
0.00467082
-0.000846779
0.00551749
-0.00169183
0.00542483
-0.00252772
0.00520109
-0.00334482
0.00484318
-0.00412685
0.00433735
-0.00484368
0.00365813
-0.00544169
0.00277005
-0.00583897
0.00163873
-0.00592761
0.000250277
-0.0055923
-0.00138585
-0.0048443
-0.00305655
-0.00384301
-0.00448058
-0.00279223
-0.00547237
-0.00179145
-0.00611437
-0.00086905
-0.00648481
7.78728e-08
-0.00664762
0.00086921
-0.00664761
0.00179162
-0.00648478
0.00279242
-0.00611431
0.00384321
-0.00547228
0.00484449
-0.00448044
0.00559246
-0.00305636
0.00592773
-0.00138565
0.00583906
0.000250479
0.00544174
0.00163892
0.00484371
0.00277022
0.00412687
0.00365829
0.00334483
0.0043375
0.00252773
0.00484332
0.00169184
0.00520122
0.000846781
0.00542496
0.00551761
-0.000962584
0.00648007
-0.0019287
0.00639095
-0.00289618
0.00616857
-0.00386086
0.00580786
-0.00480788
0.00528438
-0.0056904
0.00454065
-0.006402
0.00348165
-0.00676087
0.0019976
-0.00654895
3.83541e-05
-0.00560244
-0.00233237
-0.00431038
-0.00434861
-0.00310013
-0.00569083
-0.00211853
-0.00645396
-0.00132524
-0.00690766
-0.000639738
-0.00717031
4.97672e-08
-0.00728741
0.00063984
-0.0072874
0.00132535
-0.00717029
0.00211866
-0.00690763
0.00310028
-0.0064539
0.00431057
-0.00569073
0.00560263
-0.00434843
0.00654911
-0.00233212
0.00676098
3.86081e-05
0.00640206
0.00199784
0.00569043
0.00348185
0.00480789
0.00454083
0.00386086
0.00528453
0.00289618
0.005808
0.0019287
0.0061687
0.000962584
0.00639107
0.00648019
-0.00107849
0.00755856
-0.0021676
0.00748006
-0.00327327
0.00727425
-0.00440001
0.00693459
-0.00552841
0.00641278
-0.00655777
0.00557001
-0.00724503
0.0041689
-0.00719758
0.00195015
-0.00605592
-0.0011033
-0.00453926
-0.00384903
-0.00332245
-0.00556542
-0.00244402
-0.00656925
-0.00173081
-0.00716717
-0.00111873
-0.00751974
-0.000550552
-0.00773849
3.86137e-08
-0.007838
0.000550631
-0.007838
0.00111882
-0.00773848
0.0017309
-0.00751972
0.00244413
-0.00716713
0.00332258
-0.00656918
0.00453944
-0.00556529
0.00605612
-0.0038488
0.00719771
-0.00110299
0.00724509
0.00195046
0.00655779
0.00416916
0.00552841
0.00557021
0.00439999
0.00641294
0.00327326
0.00693473
0.00216759
0.00727437
0.00107849
0.00748017
0.00755868
-0.00118762
0.00874618
-0.00239457
0.00868701
-0.00363824
0.00851792
-0.00493079
0.00822714
-0.00621635
0.00769834
-0.00725172
0.00660539
-0.00751038
0.00442756
-0.00638636
0.000826134
-0.0047592
-0.00273046
-0.00366182
-0.00494641
-0.00294345
-0.0062838
-0.00232632
-0.00718639
-0.00172626
-0.00776723
-0.00115027
-0.00809573
-0.000576065
-0.00831269
3.7582e-08
-0.0084141
0.000576142
-0.0084141
0.00115035
-0.00831268
0.00172635
-0.00809572
0.00232641
-0.00776719
0.00294355
-0.00718631
0.00366193
-0.00628368
0.00475936
-0.00494623
0.00638654
-0.00273016
0.00751048
0.000826516
0.00725174
0.0044279
0.00621633
0.00660562
0.00493076
0.00769851
0.00363822
0.00822727
0.00239455
0.00851803
0.00118761
0.00868712
0.00874629
-0.00128143
0.0100276
-0.0025917
0.00999728
-0.00396028
0.00988649
-0.00538613
0.00965299
-0.00668815
0.00900037
-0.00741634
0.00733358
-0.00664787
0.00365909
-0.00499496
-0.000826779
-0.00399735
-0.00372807
-0.00358414
-0.00535962
-0.00319143
-0.00667651
-0.00261449
-0.00776332
-0.00195219
-0.00842953
-0.00129897
-0.00874896
-0.000650207
-0.00896145
3.85559e-08
-0.00906435
0.000650287
-0.00906435
0.00129905
-0.00896145
0.00195228
-0.00874895
0.00261459
-0.0084295
0.00319151
-0.00776324
0.0035842
-0.00667637
0.00399743
-0.00535945
0.0049951
-0.00372784
0.00664803
-0.00082641
0.00741638
0.00365955
0.00668812
0.00733388
0.00538608
0.00900055
0.00396024
0.00965311
0.00259168
0.0098866
0.00128142
0.00999738
0.0100277
-0.00135114
0.0113788
-0.00273938
0.0113855
-0.00419475
0.0113419
-0.00564168
0.0110999
-0.0067294
0.0100881
-0.00673375
0.00733793
-0.00522634
0.00215168
-0.0041179
-0.00193522
-0.0038813
-0.00396467
-0.00396667
-0.00527425
-0.00366265
-0.00698052
-0.00299133
-0.00843464
-0.00219945
-0.00922141
-0.0014424
-0.00950602
-0.000716395
-0.00968745
3.70157e-08
-0.00978078
0.000716473
-0.00978079
0.00144248
-0.00968745
0.00219955
-0.00950602
0.00299144
-0.00922139
0.00366274
-0.00843454
0.00396669
-0.00698032
0.0038813
-0.00527406
0.00411795
-0.00396449
0.00522648
-0.00193493
0.00673385
0.00215218
0.00672938
0.00733835
0.00564163
0.0100883
0.0041947
0.0111
0.00273935
0.0113419
0.00135113
0.0113856
0.0113788
-0.00138988
0.0127686
-0.00282139
0.012817
-0.00430062
0.0128211
-0.00563218
0.0124315
-0.00638938
0.0108453
-0.00546996
0.0064185
-0.00410444
0.000786166
-0.00364351
-0.00239615
-0.00392378
-0.0036844
-0.00423364
-0.00496439
-0.00399076
-0.0072234
-0.00326607
-0.00915933
-0.00237283
-0.0101147
-0.0015348
-0.010344
-0.00075328
-0.010469
3.21657e-08
-0.0105341
0.000753348
-0.0105341
0.00153487
-0.010469
0.00237292
-0.0103441
0.00326618
-0.0101146
0.00399082
-0.00915918
0.00423362
-0.00722312
0.00392371
-0.00496415
0.00364348
-0.00368426
0.0041045
-0.00239595
0.0054701
0.000786579
0.0063894
0.00641905
0.00563215
0.0108455
0.00430057
0.0124316
0.00282136
0.0128212
0.00138986
0.0128171
0.0127687
-0.0013938
0.0141624
-0.00282319
0.0142464
-0.00422907
0.014227
-0.00531954
0.013522
-0.00554873
0.0110745
-0.00414629
0.00501606
-0.00322597
-0.000134161
-0.00316058
-0.00246153
-0.00364922
-0.00319576
-0.00412571
-0.0044879
-0.00402833
-0.00732079
-0.00331816
-0.0098695
-0.002403
-0.0110298
-0.00154598
-0.0112011
-0.000750213
-0.0112647
2.32684e-08
-0.0112843
0.000750262
-0.0112843
0.00154604
-0.0112648
0.00240307
-0.0112011
0.00331825
-0.0110298
0.00402836
-0.00986929
0.00412563
-0.00732039
0.00364909
-0.00448761
0.00316049
-0.00319566
0.00322597
-0.00246144
0.00414638
-0.000133831
0.00554879
0.00501664
0.00531951
0.0110748
0.00422902
0.0135221
0.00282316
0.014227
0.00139378
0.0142465
0.0141625
-0.00136539
0.0155278
-0.00274487
0.0156259
-0.00400664
0.0154887
-0.00482821
0.0143435
-0.00443107
0.0106773
-0.00311879
0.00370379
-0.00233441
-0.000918541
-0.00235917
-0.00243677
-0.00294745
-0.00260749
-0.003677
-0.00375835
-0.00374091
-0.00725688
-0.00303656
-0.0105738
-0.00221358
-0.0118528
-0.00143635
-0.0119783
-0.000696486
-0.0120046
1.0762e-08
-0.0119808
0.000696508
-0.0119808
0.00143638
-0.0120046
0.00221361
-0.0119783
0.0030366
-0.0118528
0.0037409
-0.0105736
0.00367684
-0.00725633
0.00294727
-0.00375803
0.00235905
-0.00260744
0.00233438
-0.00243677
0.00311886
-0.000918304
0.00443119
0.0037043
0.00482819
0.0106778
0.0040066
0.0143437
0.00274483
0.0154888
0.00136537
0.0156259
0.0155278
-0.00131498
0.0168428
-0.00261241
0.0169233
-0.0037221
0.0165984
-0.00430219
0.0149236
-0.00337119
0.00974633
-0.0022425
0.00257509
-0.0014665
-0.00169454
-0.00145561
-0.00244766
-0.00197217
-0.00209092
-0.00255373
-0.00317679
-0.00280087
-0.00700973
-0.00236537
-0.0110093
-0.00181062
-0.0124075
-0.00121144
-0.0125775
-0.000597147
-0.0126189
-3.38571e-09
-0.012578
0.000597138
-0.012578
0.00121143
-0.0126189
0.0018106
-0.0125775
0.00236533
-0.0124075
0.00280075
-0.011009
0.00255352
-0.0070091
0.00197202
-0.00317652
0.00145551
-0.00209094
0.00146649
-0.00244775
0.00224259
-0.0016944
0.00337134
0.00257555
0.0043022
0.00974697
0.00372206
0.0149238
0.00261237
0.0165985
0.00131496
0.0169234
0.0168428
-0.00125078
0.0180936
-0.00246152
0.0181341
-0.00344946
0.0175864
-0.00381513
0.0152893
-0.00266387
0.00859507
-0.00158216
0.00149338
-0.00096455
-0.00231215
-0.0010541
-0.00235811
-0.00142774
-0.00171728
-0.00151399
-0.00309054
-0.00168312
-0.0068406
-0.00162113
-0.0110713
-0.00135462
-0.012674
-0.000945345
-0.0129868
-0.000478465
-0.0130858
-1.80533e-08
-0.0130564
0.000478426
-0.0130564
0.0009453
-0.0130858
0.00135456
-0.0129868
0.00162104
-0.012674
0.00168299
-0.011071
0.00151395
-0.00684006
0.00142771
-0.00309028
0.00105406
-0.00171729
0.000964577
-0.00235826
0.00158226
-0.00231208
0.00266398
0.00149383
0.00381517
0.00859578
0.00344942
0.0152896
0.00246147
0.0175864
0.00125075
0.0181341
0.0180936
-0.00117515
0.0192687
-0.00230804
0.019267
-0.00323053
0.0185088
-0.00348342
0.0155422
-0.0023884
0.00750005
-0.00143534
0.000540323
-0.00108211
-0.00266538
-0.00139752
-0.0020427
-0.00146739
-0.00164741
-0.00113378
-0.00342415
-0.00099766
-0.00697673
-0.00105529
-0.0110137
-0.000963629
-0.0127657
-0.000701084
-0.0132493
-0.000364173
-0.0134227
-3.05464e-08
-0.0134206
0.000364109
-0.0134206
0.00070101
-0.0134227
0.000963536
-0.0132493
0.00105517
-0.0127657
0.000997557
-0.0110133
0.0011338
-0.00697631
0.00146743
-0.00342391
0.00139754
-0.00164741
0.0010822
-0.00204291
0.00143546
-0.00266534
0.00238851
0.000540772
0.00348348
0.0075008
0.00323048
0.0155426
0.00230798
0.0185089
0.00117512
0.0192669
0.0192687
-0.00106482
0.0203335
-0.00210568
0.0203078
-0.0029852
0.0193884
-0.00320175
0.0157587
-0.00236219
0.00666049
-0.00177372
-4.81471e-05
-0.00172932
-0.00270978
-0.00199936
-0.00177266
-0.00174062
-0.00190615
-0.00109416
-0.00407062
-0.000675428
-0.00739546
-0.000667294
-0.0110218
-0.000658761
-0.0127742
-0.000501213
-0.0134069
-0.000265236
-0.0136587
-3.98741e-08
-0.0136858
0.000265153
-0.0136858
0.000501121
-0.0136587
0.000658649
-0.0134068
0.000667157
-0.0127742
0.000675363
-0.0110216
0.0010942
-0.00739515
0.0017407
-0.00407041
0.00199944
-0.00190614
0.00172945
-0.00177292
0.00177386
-0.00270976
0.00236226
-4.76331e-05
0.00320178
0.00666129
0.00298511
0.0157593
0.00210559
0.0193884
0.00106477
0.0203078
0.0203334
-0.000895504
0.021229
-0.00179341
0.0212057
-0.00264007
0.020235
-0.00294411
0.0160628
-0.00267363
0.00639001
-0.00266714
-5.46375e-05
-0.00286067
-0.00251626
-0.00272656
-0.00190677
-0.00214337
-0.00248933
-0.00119835
-0.00501565
-0.000515073
-0.00807873
-0.000398622
-0.0111383
-0.000420637
-0.0127522
-0.000338081
-0.0134894
-0.000181506
-0.0138152
-4.55897e-08
-0.0138672
0.000181411
-0.0138672
0.00033798
-0.0138152
0.000420523
-0.0134894
0.000398494
-0.0127521
0.000515022
-0.0111381
0.00119841
-0.00807853
0.00214348
-0.00501548
0.00272663
-0.0024893
0.0028608
-0.00190709
0.00266727
-0.00251622
0.0026736
-5.39647e-05
0.00294404
0.00639085
0.00263989
0.0160634
0.00179327
0.0202351
0.000895433
0.0212056
0.0212289
-0.000609313
0.0218384
-0.00127589
0.0218723
-0.00202697
0.0209861
-0.00257033
0.0166062
-0.00299517
0.00681485
-0.00357126
0.000521457
-0.00389139
-0.00219613
-0.00334614
-0.00245202
-0.00244692
-0.00338854
-0.00128451
-0.00617806
-0.000408278
-0.00895496
-0.00017533
-0.0113712
-0.000215707
-0.0127118
-0.00019451
-0.0135106
-0.000108061
-0.0139017
-4.85856e-08
-0.0139752
0.000107962
-0.0139752
0.000194406
-0.0139017
0.000215602
-0.0135106
0.000175222
-0.0127118
0.000408241
-0.0113711
0.00128457
-0.00895486
0.00244704
-0.00617795
0.00334623
-0.00338849
0.00389145
-0.00245231
0.0035712
-0.00219597
0.00299514
0.000522095
0.00257019
0.0068158
0.00202672
0.0166069
0.0012757
0.0209861
0.000609216
0.0218721
0.0218381
-0.000192231
0.0220306
-0.000468877
0.0221489
-0.000897665
0.0214149
-0.00164101
0.0173495
-0.00278103
0.00795487
-0.00384291
0.00158333
-0.00424607
-0.00179296
-0.00353481
-0.00316329
-0.00239331
-0.00453004
-0.0011684
-0.00740297
-0.000234714
-0.00988865
6.48186e-05
-0.0116708
-1.36401e-05
-0.0126334
-6.06809e-05
-0.0134636
-4.0213e-05
-0.0139222
-4.96973e-08
-0.0140154
4.01116e-05
-0.0140154
6.05805e-05
-0.0139221
1.35257e-05
-0.0134635
-6.49054e-05
-0.0126333
0.00023468
-0.0116707
0.00116841
-0.00988859
0.00239336
-0.0074029
0.00353488
-0.00453001
0.00424597
-0.00316341
0.00384268
-0.00179268
0.00278074
0.00158403
0.00164064
0.0079559
0.000897369
0.0173502
0.000468683
0.0214148
0.000192141
0.0221486
0.0220302
0.000302259
0.0217283
0.000604687
0.0218465
0.000819724
0.0211999
0.000382131
0.0177871
-0.00116192
0.00949892
-0.00255583
0.00297725
-0.0033841
-0.000964695
-0.00293101
-0.00361638
-0.0017306
-0.00573044
-0.000695948
-0.00843762
7.5138e-05
-0.0106597
0.000326949
-0.0119226
0.000175786
-0.0124822
6.70099e-05
-0.0133548
2.24189e-05
-0.0138776
-4.82712e-08
-0.0139929
-2.25105e-05
-0.0139929
-6.71093e-05
-0.0138775
-0.000175871
-0.0133547
-0.000327034
-0.0124822
-7.52007e-05
-0.0119225
0.000695859
-0.0106596
0.00173048
-0.00843752
0.00293085
-0.00573038
0.00338369
-0.00361625
0.00255526
-0.000964246
0.00116135
0.00297794
-0.00038269
0.00949994
-0.000820019
0.0177875
-0.000604851
0.0211996
-0.000302333
0.0218461
0.0217279
0.000807366
0.020921
0.00168031
0.0209736
0.00257675
0.0203034
0.00288874
0.0174751
0.00161487
0.0107728
0.000356441
0.00423568
-0.00050509
-0.000103164
-0.000761196
-0.00336027
-0.000337618
-0.00615402
0.000139164
-0.00891441
0.00054131
-0.0110619
0.00063167
-0.0120129
0.000391464
-0.012242
0.000208892
-0.0131722
8.66415e-05
-0.0137553
-4.57485e-08
-0.0139062