/*--------------------------------*- C++ -*----------------------------------*\
  =========                 |
  \\      /  F ield         | OpenFOAM: The Open Source CFD Toolbox
   \\    /   O peration     | Website:  https://openfoam.org
    \\  /    A nd           | Version:  9
     \\/     M anipulation  |
\*---------------------------------------------------------------------------*/
FoamFile
{
    format      ascii;
    class       volVectorField;
    location    "0.9";
    object      U;
}
// * * * * * * * * * * * * * * * * * * * * * * * * * * * * * * * * * * * * * //

dimensions      [0 1 -1 0 0 0 0];

internalField   nonuniform List<vector> 
4096
(
(-0.00460144 0.00453109 0)
(-0.0136928 0.00438499 0)
(-0.0222869 0.0040586 0)
(-0.0300587 0.00357069 0)
(-0.0366924 0.00294218 0)
(-0.0419278 0.00219813 0)
(-0.0455597 0.00136703 0)
(-0.0474404 0.000479593 0)
(-0.047498 -0.000423408 0)
(-0.0457262 -0.00131593 0)
(-0.0421845 -0.00216015 0)
(-0.0370075 -0.0029221 0)
(-0.0303926 -0.00357173 0)
(-0.0225948 -0.00408322 0)
(-0.0139166 -0.00443607 0)
(-0.00469555 -0.0046161 0)
(0.00470893 -0.00461607 0)
(0.0139298 -0.00443597 0)
(0.0226078 -0.00408306 0)
(0.0304052 -0.00357151 0)
(0.0370196 -0.00292182 0)
(0.042196 -0.00215982 0)
(0.045737 -0.00131555 0)
(0.047508 -0.000422983 0)
(0.0474495 0.000480057 0)
(0.0455679 0.00136752 0)
(0.0419349 0.00219864 0)
(0.0366984 0.0029427 0)
(0.0300637 0.00357119 0)
(0.0222911 0.00405899 0)
(0.013695 0.00438503 0)
(0.00460163 0.00453141 0)
(-0.00479952 0.0138058 0)
(-0.0142833 0.0133602 0)
(-0.0232486 0.0123665 0)
(-0.0313564 0.0108803 0)
(-0.0382785 0.00896586 0)
(-0.043743 0.00669937 0)
(-0.0475356 0.00416807 0)
(-0.0495043 0.0014682 0)
(-0.049567 -0.0012924 0)
(-0.0477201 -0.0040101 0)
(-0.0440271 -0.00658158 0)
(-0.0386265 -0.00890378 0)
(-0.0317241 -0.0108841 0)
(-0.0235859 -0.0124434 0)
(-0.0145275 -0.0135192 0)
(-0.00490192 -0.0140681 0)
(0.00491543 -0.014068 0)
(0.0145409 -0.0135189 0)
(0.023599 -0.012443 0)
(0.0317368 -0.0108834 0)
(0.0386387 -0.00890294 0)
(0.0440387 -0.00658058 0)
(0.0477309 -0.00400895 0)
(0.0495771 -0.00129111 0)
(0.0495134 0.00146961 0)
(0.0475437 0.00416959 0)
(0.0437501 0.00670097 0)
(0.0382845 0.0089675 0)
(0.0313611 0.010882 0)
(0.0232523 0.012368 0)
(0.0142853 0.0133611 0)
(0.00480002 0.0138071 0)
(-0.00516443 0.0236394 0)
(-0.0153698 0.0228764 0)
(-0.0250183 0.0211771 0)
(-0.0337456 0.0186339 0)
(-0.0411997 0.0153576 0)
(-0.0470874 0.0114783 0)
(-0.0511773 0.00714521 0)
(-0.053306 0.00252311 0)
(-0.0533832 -0.00220723 0)
(-0.0514013 -0.00686393 0)
(-0.0474302 -0.0112691 0)
(-0.0416176 -0.0152483 0)
(-0.0341846 -0.0186427 0)
(-0.0254176 -0.0213159 0)
(-0.0156569 -0.0231604 0)
(-0.00528345 -0.0241016 0)
(0.00529717 -0.0241014 0)
(0.0156705 -0.02316 0)
(0.0254309 -0.0213151 0)
(0.0341975 -0.0186416 0)
(0.0416299 -0.0152469 0)
(0.0474419 -0.0112674 0)
(0.0514123 -0.00686198 0)
(0.0533933 -0.00220505 0)
(0.0533152 0.0025255 0)
(0.0511855 0.00714778 0)
(0.0470945 0.011481 0)
(0.0412056 0.0153604 0)
(0.0337503 0.0186368 0)
(0.0250217 0.0211799 0)
(0.0153718 0.022879 0)
(0.00516506 0.0236421 0)
(-0.00571536 0.0343772 0)
(-0.0170099 0.0332691 0)
(-0.0276902 0.030801 0)
(-0.0373543 0.0271066 0)
(-0.0456132 0.022346 0)
(-0.0521422 0.0167081 0)
(-0.0566839 0.0104087 0)
(-0.0590559 0.00368743 0)
(-0.0591568 -0.00319546 0)
(-0.0569745 -0.00997381 0)
(-0.0525845 -0.0163865 0)
(-0.0461494 -0.0221807 0)
(-0.0379136 -0.0271247 0)
(-0.0281941 -0.0310194 0)
(-0.017369 -0.0337071 0)
(-0.0058619 -0.0350787 0)
(0.00587596 -0.0350785 0)
(0.0173829 -0.0337064 0)
(0.0282078 -0.0310183 0)
(0.0379268 -0.0271231 0)
(0.0461621 -0.0221787 0)
(0.0525965 -0.0163841 0)
(0.0569857 -0.00997104 0)
(0.0591672 -0.00319236 0)
(0.0590653 0.00369084 0)
(0.0566922 0.0104124 0)
(0.0521493 0.0167119 0)
(0.0456192 0.0223501 0)
(0.037359 0.0271107 0)
(0.0276936 0.0308052 0)
(0.0170119 0.0332732 0)
(0.00571604 0.0343812 0)
(-0.00647539 0.0464079 0)
(-0.0192726 0.0449149 0)
(-0.0313773 0.0415888 0)
(-0.0423356 0.0366089 0)
(-0.0517076 0.0301901 0)
(-0.0591248 0.0225854 0)
(-0.0642941 0.0140851 0)
(-0.067006 0.00501145 0)
(-0.067143 -0.00428606 0)
(-0.0646871 -0.0134476 0)
(-0.0597208 -0.0221178 0)
(-0.0524265 -0.0299546 0)
(-0.0430802 -0.0366438 0)
(-0.032042 -0.0419151 0)
(-0.0197421 -0.0455536 0)
(-0.00666372 -0.0474106 0)
(0.00667827 -0.0474103 0)
(0.0197565 -0.0455527 0)
(0.0320561 -0.0419135 0)
(0.0430939 -0.0366417 0)
(0.0524396 -0.0299519 0)
(0.0597332 -0.0221147 0)
(0.0646987 -0.0134439 0)
(0.0671537 -0.004282 0)
(0.0670157 0.0050159 0)
(0.0643026 0.0140899 0)
(0.0591321 0.0225905 0)
(0.0517137 0.0301954 0)
(0.0423404 0.0366143 0)
(0.0313808 0.0415943 0)
(0.0192747 0.0449204 0)
(0.00647609 0.0464133 0)
(-0.00747337 0.0601741 0)
(-0.0222441 0.058243 0)
(-0.0362203 0.0539401 0)
(-0.0488806 0.0474958 0)
(-0.0597184 0.0391864 0)
(-0.0683079 0.0293369 0)
(-0.0743081 0.018321 0)
(-0.0774735 0.006555 0)
(-0.0776638 -0.00550988 0)
(-0.0748533 -0.0174069 0)
(-0.0691324 -0.0286723 0)
(-0.0607088 -0.0388596 0)
(-0.0499 -0.0475593 0)
(-0.0371226 -0.0544174 0)
(-0.0228761 -0.0591527 0)
(-0.00772275 -0.0615699 0)
(0.00773794 -0.0615695 0)
(0.0228912 -0.0591515 0)
(0.0371373 -0.0544155 0)
(0.0499143 -0.0475567 0)
(0.0607224 -0.0388563 0)
(0.0691453 -0.0286683 0)
(0.0748653 -0.0174024 0)
(0.0776749 -0.00550482 0)
(0.0774834 0.00656054 0)
(0.0743169 0.018327 0)
(0.0683155 0.0293432 0)
(0.0597247 0.039193 0)
(0.0488856 0.0475026 0)
(0.0362239 0.0539469 0)
(0.0222463 0.0582499 0)
(0.0074741 0.0601808 0)
(-0.0087454 0.076182 0)
(-0.0260319 0.0737453 0)
(-0.0423956 0.0683134 0)
(-0.0572296 0.0601758 0)
(-0.0699427 0.0496776 0)
(-0.0800357 0.0372256 0)
(-0.0871061 0.0232887 0)
(-0.0908607 0.00839075 0)
(-0.0911292 -0.00689881 0)
(-0.087874 -0.0219891 0)
(-0.0811946 -0.036289 0)
(-0.0713298 -0.0492291 0)
(-0.0586497 -0.0602858 0)
(-0.0436434 -0.0690061 0)
(-0.0268995 -0.0750292 0)
(-0.00908249 -0.0781045 0)
(0.00909848 -0.078104 0)
(0.0269153 -0.0750278 0)
(0.0436589 -0.0690038 0)
(0.0586647 -0.0602826 0)
(0.0713441 -0.0492251 0)
(0.0812082 -0.0362842 0)
(0.0878866 -0.0219836 0)
(0.0911408 -0.00689269 0)
(0.0908712 0.00839744 0)
(0.0871153 0.0232959 0)
(0.0800436 0.0372332 0)
(0.0699493 0.0496855 0)
(0.0572348 0.060184 0)
(0.0423993 0.0683217 0)
(0.0260342 0.0737536 0)
(0.00874615 0.0761903 0)
(-0.0103362 0.0950181 0)
(-0.0307697 0.0919914 0)
(-0.0501224 0.0852415 0)
(-0.0676816 0.0751247 0)
(-0.0827511 0.0620649 0)
(-0.0947393 0.0465619 0)
(-0.103165 0.0291937 0)
(-0.107675 0.010609 0)
(-0.108058 -0.00848472 0)
(-0.104258 -0.02735 0)
(-0.0963846 -0.0452445 0)
(-0.0847143 -0.0614508 0)
(-0.0696826 -0.0753083 0)
(-0.0518693 -0.0862436 0)
(-0.0319765 -0.0937998 0)
(-0.0107986 -0.0976589 0)
(0.0108156 -0.0976583 0)
(0.0319933 -0.0937982 0)
(0.0518858 -0.0862409 0)
(0.0696985 -0.0753045 0)
(0.0847295 -0.0614461 0)
(0.0963989 -0.0452388 0)
(0.104271 -0.0273435 0)
(0.10807 -0.00847747 0)
(0.107686 0.0106169 0)
(0.103175 0.0292022 0)
(0.0947476 0.0465709 0)
(0.0827579 0.0620742 0)
(0.067687 0.0751343 0)
(0.0501263 0.0852513 0)
(0.0307721 0.0920012 0)
(0.010337 0.0950279 0)
(-0.0123007 0.117367 0)
(-0.0366212 0.113648 0)
(-0.0596696 0.105349 0)
(-0.0806047 0.0929029 0)
(-0.0986009 0.0768235 0)
(-0.112953 0.0577166 0)
(-0.12308 0.0362853 0)
(-0.12855 0.0133239 0)
(-0.129098 -0.0102976 0)
(-0.124644 -0.0336674 0)
(-0.115304 -0.0558609 0)
(-0.101399 -0.0759816 0)
(-0.0834457 -0.0932008 0)
(-0.0621365 -0.106798 0)
(-0.0383156 -0.116199 0)
(-0.0129418 -0.121001 0)
(0.0129599 -0.121 0)
(0.0383335 -0.116197 0)
(0.062154 -0.106795 0)
(0.0834627 -0.0931964 0)
(0.101416 -0.075976 0)
(0.115319 -0.0558543 0)
(0.124658 -0.0336598 0)
(0.129111 -0.0102891 0)
(0.128562 0.0133331 0)
(0.12309 0.0362951 0)
(0.112961 0.057727 0)
(0.0986082 0.0768344 0)
(0.0806104 0.092914 0)
(0.0596737 0.10536 0)
(0.0366236 0.113659 0)
(0.0123015 0.117379 0)
(-0.0147048 0.144035 0)
(-0.0437841 0.1395 0)
(-0.0713631 0.129373 0)
(-0.0964459 0.114175 0)
(-0.11805 0.0945216 0)
(-0.13533 0.0711373 0)
(-0.147581 0.0448694 0)
(-0.154269 0.0166827 0)
(-0.155058 -0.0123623 0)
(-0.14983 -0.0411439 0)
(-0.138706 -0.0685162 0)
(-0.122059 -0.093363 0)
(-0.100502 -0.114649 0)
(-0.0748683 -0.131471 0)
(-0.0461797 -0.143107 0)
(-0.0156012 -0.149054 0)
(0.0156207 -0.149053 0)
(0.046199 -0.143105 0)
(0.0748872 -0.131467 0)
(0.10052 -0.114644 0)
(0.122077 -0.0933566 0)
(0.138722 -0.0685085 0)
(0.149845 -0.0411351 0)
(0.155072 -0.0123525 0)
(0.154281 0.0166933 0)
(0.147592 0.0448807 0)
(0.135339 0.0711492 0)
(0.118058 0.094534 0)
(0.0964519 0.114188 0)
(0.0713674 0.129386 0)
(0.0437866 0.139513 0)
(0.0147057 0.144048 0)
(-0.0176276 0.17597 0)
(-0.0524946 0.170473 0)
(-0.0855926 0.158188 0)
(-0.115742 0.139736 0)
(-0.141773 0.115843 0)
(-0.162665 0.0873689 0)
(-0.177561 0.0553268 0)
(-0.185795 0.020877 0)
(-0.186934 -0.0146932 0)
(-0.180807 -0.0500092 0)
(-0.167531 -0.0836547 0)
(-0.147538 -0.114241 0)
(-0.121557 -0.140477 0)
(-0.0905967 -0.161229 0)
(-0.0558994 -0.175594 0)
(-0.0188891 -0.182937 0)
(0.0189102 -0.182936 0)
(0.0559203 -0.175591 0)
(0.0906171 -0.161225 0)
(0.121577 -0.140471 0)
(0.147556 -0.114234 0)
(0.167548 -0.0836458 0)
(0.180823 -0.0499991 0)
(0.186949 -0.014682 0)
(0.185808 0.0208891 0)
(0.177573 0.0553398 0)
(0.162675 0.0873826 0)
(0.141781 0.115857 0)
(0.115749 0.13975 0)
(0.0855971 0.158203 0)
(0.0524973 0.170488 0)
(0.0176285 0.175985 0)
(-0.021162 0.214294 0)
(-0.063031 0.207665 0)
(-0.102819 0.192835 0)
(-0.139133 0.170534 0)
(-0.170575 0.141613 0)
(-0.195916 0.107081 0)
(-0.214105 0.0681343 0)
(-0.224305 0.0261601 0)
(-0.225954 -0.0172851 0)
(-0.218801 -0.0605217 0)
(-0.202948 -0.101799 0)
(-0.178888 -0.139391 0)
(-0.147495 -0.17168 0)
(-0.109989 -0.197248 0)
(-0.0678896 -0.214958 0)
(-0.0229462 -0.224015 0)
(0.0229692 -0.224014 0)
(0.0679123 -0.214955 0)
(0.110011 -0.197243 0)
(0.147516 -0.171673 0)
(0.178909 -0.139382 0)
(0.202966 -0.101789 0)
(0.218819 -0.0605101 0)
(0.22597 -0.0172723 0)
(0.224319 0.0261739 0)
(0.214117 0.0681491 0)
(0.195927 0.107097 0)
(0.170583 0.141629 0)
(0.139139 0.17055 0)
(0.102824 0.192851 0)
(0.0630338 0.207682 0)
(0.0211629 0.21431 0)
(-0.0254153 0.260326 0)
(-0.0757162 0.252371 0)
(-0.123582 0.234548 0)
(-0.167367 0.20771 0)
(-0.20541 0.172839 0)
(-0.236228 0.1311 0)
(-0.25852 0.0838956 0)
(-0.271234 0.0328709 0)
(-0.273628 -0.0200996 0)
(-0.265333 -0.0729669 0)
(-0.246412 -0.123565 0)
(-0.217428 -0.169741 0)
(-0.179423 -0.209467 0)
(-0.133881 -0.240962 0)
(-0.0826711 -0.262793 0)
(-0.0279496 -0.273962 0)
(0.0279748 -0.273961 0)
(0.0826959 -0.262789 0)
(0.133905 -0.240956 0)
(0.179446 -0.20946 0)
(0.21745 -0.169732 0)
(0.246432 -0.123554 0)
(0.265352 -0.0729537 0)
(0.273645 -0.020085 0)
(0.271249 0.0328866 0)
(0.258534 0.0839122 0)
(0.236239 0.131118 0)
(0.20542 0.172856 0)
(0.167374 0.207728 0)
(0.123587 0.234566 0)
(0.0757192 0.25239 0)
(0.0254163 0.260345 0)
(-0.0305102 0.315619 0)
(-0.0909195 0.306119 0)
(-0.148498 0.284795 0)
(-0.201315 0.252632 0)
(-0.2474 0.210742 0)
(-0.284957 0.160453 0)
(-0.31238 0.103382 0)
(-0.328324 0.0414675 0)
(-0.331807 -0.0230428 0)
(-0.322283 -0.0876526 0)
(-0.299739 -0.149674 0)
(-0.264806 -0.206412 0)
(-0.218729 -0.255312 0)
(-0.163325 -0.294128 0)
(-0.100898 -0.321055 0)
(-0.0341216 -0.334836 0)
(0.0341492 -0.334835 0)
(0.100926 -0.321051 0)
(0.163352 -0.294122 0)
(0.218754 -0.255303 0)
(0.26483 -0.2064 0)
(0.299761 -0.149661 0)
(0.322304 -0.0876376 0)
(0.331825 -0.0230263 0)
(0.32834 0.0414853 0)
(0.312394 0.1034 0)
(0.284969 0.160472 0)
(0.24741 0.210762 0)
(0.201323 0.252652 0)
(0.148503 0.284816 0)
(0.0909227 0.30614 0)
(0.0305113 0.31564 0)
(-0.0365835 0.381986 0)
(-0.109054 0.370701 0)
(-0.178267 0.345314 0)
(-0.241973 0.306941 0)
(-0.29784 0.256817 0)
(-0.343702 0.19642 0)
(-0.377561 0.127587 0)
(-0.397689 0.0525759 0)
(-0.402767 -0.0259323 0)
(-0.391987 -0.104897 0)
(-0.365196 -0.180969 0)
(-0.323092 -0.250753 0)
(-0.267162 -0.311016 0)
(-0.199643 -0.358911 0)
(-0.123395 -0.39216 0)
(-0.0417419 -0.409182 0)
(0.0417724 -0.409181 0)
(0.123425 -0.392155 0)
(0.199672 -0.358904 0)
(0.26719 -0.311006 0)
(0.323118 -0.25074 0)
(0.365221 -0.180953 0)
(0.392009 -0.10488 0)
(0.402787 -0.0259135 0)
(0.397706 0.0525959 0)
(0.377576 0.127608 0)
(0.343715 0.196442 0)
(0.29785 0.25684 0)
(0.24198 0.306964 0)
(0.178273 0.345336 0)
(0.109058 0.370724 0)
(0.0365846 0.382008 0)
(-0.0437834 0.461525 0)
(-0.130572 0.448205 0)
(-0.213659 0.418151 0)
(-0.290451 0.372606 0)
(-0.358211 0.312896 0)
(-0.414323 0.240616 0)
(-0.456294 0.157807 0)
(-0.481885 0.0670601 0)
(-0.489307 -0.0284439 0)
(-0.477354 -0.125008 0)
(-0.445634 -0.218429 0)
(-0.394896 -0.304399 0)
(-0.326929 -0.378793 0)
(-0.244504 -0.437986 0)
(-0.151197 -0.4791 0)
(-0.0511627 -0.500152 0)
(0.0511965 -0.50015 0)
(0.15123 -0.479095 0)
(0.244536 -0.437977 0)
(0.326959 -0.378781 0)
(0.394925 -0.304384 0)
(0.445661 -0.218411 0)
(0.477378 -0.124989 0)
(0.489328 -0.0284226 0)
(0.481904 0.0670827 0)
(0.45631 0.15783 0)
(0.414336 0.240641 0)
(0.358221 0.31292 0)
(0.290459 0.372631 0)
(0.213665 0.418177 0)
(0.130575 0.44823 0)
(0.0437845 0.46155 0)
(-0.0522641 0.556646 0)
(-0.155943 0.541043 0)
(-0.255494 0.505706 0)
(-0.347963 0.451978 0)
(-0.430165 0.381221 0)
(-0.498954 0.295079 0)
(-0.551207 0.195741 0)
(-0.583999 0.0861256 0)
(-0.594874 -0.0300319 0)
(-0.582027 -0.148243 0)
(-0.544655 -0.263182 0)
(-0.483533 -0.369331 0)
(-0.400827 -0.461372 0)
(-0.300023 -0.534671 0)
(-0.185621 -0.585592 0)
(-0.0628316 -0.611663 0)
(0.0628692 -0.611661 0)
(0.185657 -0.585586 0)
(0.300058 -0.534661 0)
(0.400861 -0.461358 0)
(0.483564 -0.369313 0)
(0.544684 -0.263162 0)
(0.582053 -0.148221 0)
(0.594897 -0.0300077 0)
(0.584018 0.0861511 0)
(0.551223 0.195768 0)
(0.498967 0.295106 0)
(0.430176 0.381248 0)
(0.347972 0.452006 0)
(0.2555 0.505733 0)
(0.155946 0.541071 0)
(0.0522652 0.556674 0)
(-0.0621758 0.670071 0)
(-0.185634 0.651965 0)
(-0.304602 0.61076 0)
(-0.415776 0.547854 0)
(-0.515497 0.464546 0)
(-0.6 0.362404 0)
(-0.665368 0.24365 0)
(-0.707748 0.111471 0)
(-0.723734 -0.0298026 0)
(-0.710595 -0.174738 0)
(-0.666842 -0.316514 0)
(-0.593233 -0.447979 0)
(-0.492447 -0.562178 0)
(-0.368929 -0.653132 0)
(-0.228374 -0.716283 0)
(-0.0773323 -0.7486 0)
(0.0773744 -0.748598 0)
(0.228415 -0.716276 0)
(0.368969 -0.653121 0)
(0.492485 -0.562161 0)
(0.593268 -0.447959 0)
(0.666874 -0.316491 0)
(0.710623 -0.174712 0)
(0.723758 -0.0297751 0)
(0.707769 0.1115 0)
(0.665386 0.24368 0)
(0.600014 0.362434 0)
(0.515508 0.464576 0)
(0.415784 0.547884 0)
(0.304607 0.610789 0)
(0.185638 0.651994 0)
(0.0621769 0.670101 0)
(-0.0736494 0.804817 0)
(-0.22006 0.784051 0)
(-0.361753 0.736502 0)
(-0.495131 0.663543 0)
(-0.616068 0.56625 0)
(-0.720101 0.445909 0)
(-0.802312 0.304563 0)
(-0.857591 0.145511 0)
(-0.881164 -0.0263308 0)
(-0.868871 -0.204411 0)
(-0.818094 -0.379956 0)
(-0.729525 -0.543476 0)
(-0.606535 -0.685576 0)
(-0.454826 -0.798623 0)
(-0.28168 -0.87705 0)
(-0.0954165 -0.917184 0)
(0.0954638 -0.917181 0)
(0.281727 -0.877042 0)
(0.454871 -0.798609 0)
(0.606577 -0.685557 0)
(0.729564 -0.543452 0)
(0.818129 -0.379929 0)
(0.868902 -0.204382 0)
(0.88119 -0.0262992 0)
(0.857613 0.145544 0)
(0.80233 0.304596 0)
(0.720115 0.445942 0)
(0.616079 0.566283 0)
(0.495139 0.663576 0)
(0.361758 0.736534 0)
(0.220063 0.784083 0)
(0.0736505 0.804848 0)
(-0.0867723 0.964136 0)
(-0.259513 0.940677 0)
(-0.427549 0.886527 0)
(-0.587111 0.80292 0)
(-0.733671 0.690472 0)
(-0.862024 0.549863 0)
(-0.96602 0.382592 0)
(-1.03883 0.191735 0)
(-1.07369 -0.0174285 0)
(-1.06427 -0.236855 0)
(-1.0061 -0.455161 0)
(-0.899523 -0.65914 0)
(-0.748676 -0.836336 0)
(-0.561353 -0.977417 0)
(-0.347476 -1.07541 0)
(-0.11768 -1.12561 0)
(0.117733 -1.1256 0)
(0.347528 -1.0754 0)
(0.561404 -0.977401 0)
(0.748723 -0.836314 0)
(0.899566 -0.659112 0)
(1.00614 -0.45513 0)
(1.0643 -0.236821 0)
(1.07372 -0.0173932 0)
(1.03886 0.191772 0)
(0.966038 0.382629 0)
(0.862038 0.5499 0)
(0.733682 0.690508 0)
(0.587118 0.802956 0)
(0.427555 0.886562 0)
(0.259516 0.940711 0)
(0.0867733 0.96417 0)
(-0.101556 1.15141 0)
(-0.304066 1.12542 0)
(-0.502263 1.06479 0)
(-0.692423 0.970456 0)
(-0.869793 0.842248 0)
(-1.02845 0.679744 0)
(-1.16077 0.483288 0)
(-1.25767 0.255042 0)
(-1.30917 0.000211849 0)
(-1.30528 -0.270469 0)
(-1.23828 -0.542523 0)
(-1.10661 -0.798525 0)
(-0.916773 -1.02152 0)
(-0.683384 -1.19848 0)
(-0.420906 -1.32008 0)
(-0.142083 -1.38175 0)
(0.142143 -1.38175 0)
(0.420965 -1.32007 0)
(0.68344 -1.19846 0)
(0.916827 -1.02149 0)
(1.10666 -0.798493 0)
(1.23832 -0.542485 0)
(1.30532 -0.270429 0)
(1.3092 0.000254015 0)
(1.25769 0.255084 0)
(1.16079 0.483329 0)
(1.02846 0.679785 0)
(0.869802 0.842288 0)
(0.692429 0.970495 0)
(0.502268 1.06483 0)
(0.304068 1.12545 0)
(0.101556 1.15144 0)
(-0.117889 1.36995 0)
(-0.353434 1.34188 0)
(-0.585603 1.27548 0)
(-0.811081 1.1712 0)
(-1.02524 1.02766 0)
(-1.22161 0.842588 0)
(-1.39086 0.614215 0)
(-1.5202 0.342837 0)
(-1.59328 0.0328498 0)
(-1.59267 -0.304162 0)
(-1.50205 -0.650557 0)
(-1.31766 -0.98284 0)
(-1.06448 -1.26212 0)
(-0.774645 -1.4717 0)
(-0.467843 -1.61182 0)
(-0.155995 -1.6827 0)
(0.156056 -1.68269 0)
(0.467904 -1.61181 0)
(0.774706 -1.47168 0)
(1.06454 -1.26209 0)
(1.31772 -0.982801 0)
(1.5021 -0.650512 0)
(1.59271 -0.304113 0)
(1.59331 0.0329 0)
(1.52022 0.342885 0)
(1.39088 0.614262 0)
(1.22162 0.842633 0)
(1.02525 1.0277 0)
(0.811087 1.17124 0)
(0.585607 1.27552 0)
(0.353435 1.34192 0)
(0.117889 1.36999 0)
(-0.135486 1.62271 0)
(-0.406804 1.59342 0)
(-0.676409 1.5228 0)
(-0.941948 1.41066 0)
(-1.19955 1.25385 0)
(-1.44238 1.04715 0)
(-1.65781 0.78464 0)
(-1.82449 0.461303 0)
(-1.91079 0.075521 0)
(-1.87788 -0.363616 0)
(-1.69433 -0.817082 0)
(-1.3968 -1.23099 0)
(-1.06045 -1.56355 0)
(-0.726659 -1.802 0)
(-0.418909 -1.94854 0)
(-0.13637 -2.01373 0)
(0.13642 -2.01373 0)
(0.418962 -1.94852 0)
(0.726716 -1.80198 0)
(1.06051 -1.56352 0)
(1.39686 -1.23095 0)
(1.69439 -0.817028 0)
(1.87793 -0.363557 0)
(1.91082 0.0755791 0)
(1.82451 0.46136 0)
(1.65783 0.784693 0)
(1.44238 1.0472 0)
(1.19955 1.25389 0)
(0.941951 1.4107 0)
(0.67641 1.52284 0)
(0.406805 1.59345 0)
(0.135486 1.62275 0)
(-0.153828 1.9119 0)
(-0.462648 1.88273 0)
(-0.772291 1.81057 0)
(-1.08219 1.69446 0)
(-1.39016 1.52884 0)
(-1.68833 1.30289 0)
(-1.95483 0.999039 0)
(-2.14527 0.594669 0)
(-2.18263 0.0853104 0)
(-1.9897 -0.511454 0)
(-1.59495 -1.15322 0)
(-1.16019 -1.65663 0)
(-0.81772 -1.94553 0)
(-0.541136 -2.11267 0)
(-0.310154 -2.20515 0)
(-0.100532 -2.24641 0)
(0.100564 -2.2464 0)
(0.310188 -2.20514 0)
(0.541173 -2.11265 0)
(0.817765 -1.9455 0)
(1.16024 -1.65659 0)
(1.59502 -1.15315 0)
(1.98975 -0.511379 0)
(2.18268 0.0853832 0)
(2.14529 0.594736 0)
(1.95485 0.9991 0)
(1.68833 1.30294 0)
(1.39016 1.52888 0)
(1.08219 1.6945 0)
(0.772291 1.81061 0)
(0.462648 1.88277 0)
(0.153828 1.91194 0)
(-0.17211 2.23842 0)
(-0.518547 2.21131 0)
(-0.869301 2.14162 0)
(-1.22671 2.02783 0)
(-1.59109 1.8605 0)
(-1.95002 1.61373 0)
(-2.25529 1.23555 0)
(-2.38647 0.682312 0)
(-2.19842 -0.0555817 0)
(-1.67283 -0.999335 0)
(-1.22196 -1.6324 0)
(-0.905435 -1.98572 0)
(-0.658759 -2.18964 0)
(-0.451282 -2.31284 0)
(-0.265709 -2.38685 0)
(-0.0874521 -2.42008 0)
(0.0874769 -2.42008 0)
(0.265735 -2.38685 0)
(0.45131 -2.31283 0)
(0.658791 -2.18963 0)
(0.905473 -1.98569 0)
(1.222 -1.63235 0)
(1.6729 -0.999251 0)
(2.19848 -0.0554829 0)
(2.3865 0.682398 0)
(2.2553 1.23562 0)
(1.95002 1.61379 0)
(1.59108 1.86055 0)
(1.2267 2.02787 0)
(0.869298 2.14166 0)
(0.518545 2.21135 0)
(0.172109 2.23846 0)
(-0.189234 2.6013 0)
(-0.57114 2.57874 0)
(-0.961745 2.51713 0)
(-1.36726 2.41483 0)
(-1.79034 2.25129 0)
(-2.20158 1.9569 0)
(-2.4555 1.42687 0)
(-2.32265 0.581115 0)
(-1.74332 -0.659746 0)
(-1.30843 -1.46912 0)
(-1.03834 -1.93396 0)
(-0.841493 -2.21589 0)
(-0.647157 -2.39357 0)
(-0.459331 -2.49839 0)
(-0.276433 -2.56656 0)
(-0.0928472 -2.59801 0)
(0.0928713 -2.59801 0)
(0.276458 -2.56655 0)
(0.459358 -2.49839 0)
(0.647186 -2.39356 0)
(0.841523 -2.21586 0)
(1.03838 -1.93392 0)
(1.30847 -1.46905 0)
(1.74338 -0.659641 0)
(2.32269 0.581227 0)
(2.45552 1.42696 0)
(2.20158 1.95697 0)
(1.79033 2.25135 0)
(1.36725 2.41487 0)
(0.961739 2.51717 0)
(0.571137 2.57878 0)
(0.189233 2.60133 0)
(-0.20386 2.99709 0)
(-0.616228 2.98199 0)
(-1.04186 2.93558 0)
(-1.49104 2.85343 0)
(-1.96433 2.67797 0)
(-2.35094 2.26484 0)
(-2.37219 1.41992 0)
(-1.83273 -0.0497125 0)
(-1.38773 -1.11205 0)
(-1.18907 -1.70646 0)
(-1.09715 -2.08645 0)
(-0.940367 -2.38445 0)
(-0.732026 -2.58024 0)
(-0.518928 -2.68546 0)
(-0.310819 -2.75592 0)
(-0.106369 -2.78935 0)
(0.106394 -2.78935 0)
(0.310846 -2.75592 0)
(0.518955 -2.68546 0)
(0.732057 -2.58023 0)
(0.940399 -2.38442 0)
(1.09717 -2.08641 0)
(1.18909 -1.7064 0)
(1.38776 -1.11197 0)
(1.83279 -0.0495746 0)
(2.37223 1.42004 0)
(2.35094 2.26492 0)
(1.96432 2.67802 0)
(1.49102 2.85347 0)
(1.04185 2.93562 0)
(0.616223 2.98202 0)
(0.203858 2.99712 0)
(-0.214635 3.41955 0)
(-0.649375 3.4149 0)
(-1.10051 3.38997 0)
(-1.58239 3.32089 0)
(-2.05255 3.06924 0)
(-2.28669 2.40103 0)
(-1.9362 0.922067 0)
(-1.44395 -0.505619 0)
(-1.22354 -1.29434 0)
(-1.26935 -1.72572 0)
(-1.25579 -2.18233 0)
(-1.08142 -2.57946 0)
(-0.830862 -2.81107 0)
(-0.579593 -2.91087 0)
(-0.340784 -2.97684 0)
(-0.119605 -3.00944 0)
(0.119629 -3.00944 0)
(0.34081 -2.97683 0)
(0.579622 -2.91087 0)
(0.830896 -2.81106 0)
(1.08145 -2.57943 0)
(1.25581 -2.18228 0)
(1.26935 -1.72566 0)
(1.22355 -1.29428 0)
(1.44398 -0.505512 0)
(1.93626 0.922246 0)
(2.2867 2.40114 0)
(2.05253 3.06931 0)
(1.58237 3.32093 0)
(1.10049 3.39 0)
(0.649368 3.41493 0)
(0.214633 3.41957 0)
(-0.22053 3.85994 0)
(-0.667153 3.86812 0)
(-1.1323 3.86411 0)
(-1.62635 3.77499 0)
(-2.0229 3.3795 0)
(-2.00231 2.30902 0)
(-1.50001 0.406524 0)
(-1.17285 -0.746816 0)
(-1.17918 -1.24892 0)
(-1.33893 -1.64318 0)
(-1.35881 -2.27327 0)
(-1.18243 -2.80945 0)
(-0.901841 -3.08597 0)
(-0.621935 -3.17021 0)
(-0.356266 -3.22097 0)
(-0.128866 -3.24898 0)
(0.128887 -3.24898 0)
(0.356288 -3.22097 0)
(0.621962 -3.17022 0)
(0.901873 -3.08596 0)
(1.18246 -2.80941 0)
(1.35882 -2.27319 0)
(1.33891 -1.64311 0)
(1.17915 -1.24887 0)
(1.17285 -0.746736 0)
(1.50005 0.406664 0)
(2.00235 2.30918 0)
(2.02289 3.37957 0)
(1.62633 3.77503 0)
(1.13228 3.86414 0)
(0.667145 3.86815 0)
(0.220527 3.85996 0)
(-0.221054 4.30715 0)
(-0.667727 4.32895 0)
(-1.13167 4.33405 0)
(-1.58966 4.16703 0)
(-1.8661 3.53398 0)
(-1.57518 1.79753 0)
(-1.16435 0.0814846 0)
(-0.938236 -0.802714 0)
(-1.07981 -1.1149 0)
(-1.28199 -1.53859 0)
(-1.35805 -2.35421 0)
(-1.19346 -3.05352 0)
(-0.914072 -3.39117 0)
(-0.633187 -3.45486 0)
(-0.352187 -3.4825 0)
(-0.13127 -3.49615 0)
(0.131285 -3.49616 0)
(0.352202 -3.4825 0)
(0.633211 -3.45487 0)
(0.914095 -3.39117 0)
(1.19348 -3.05347 0)
(1.35804 -2.3541 0)
(1.28195 -1.53851 0)
(1.07976 -1.11486 0)
(0.938219 -0.802669 0)
(1.16437 0.0816004 0)
(1.57521 1.79772 0)
(1.8661 3.53408 0)
(1.58964 4.16707 0)
(1.13166 4.33407 0)
(0.667718 4.32897 0)
(0.221051 4.30717 0)
(-0.216564 4.75194 0)
(-0.652897 4.78283 0)
(-1.10066 4.76374 0)
(-1.4877 4.47639 0)
(-1.59197 3.53336 0)
(-1.20839 1.3585 0)
(-0.850798 -0.171298 0)
(-0.661914 -0.782514 0)
(-0.83499 -0.948263 0)
(-1.10232 -1.39316 0)
(-1.27571 -2.40264 0)
(-1.07246 -3.30379 0)
(-0.833919 -3.68736 0)
(-0.596504 -3.72547 0)
(-0.323715 -3.73515 0)
(-0.123749 -3.73199 0)
(0.123757 -3.73199 0)
(0.323719 -3.73516 0)
(0.596521 -3.72549 0)
(0.83392 -3.68736 0)
(1.07248 -3.30372 0)
(1.27569 -2.40251 0)
(1.10225 -1.39305 0)
(0.834936 -0.948233 0)
(0.661884 -0.782499 0)
(0.850816 -0.171202 0)
(1.20842 1.35869 0)
(1.59199 3.53348 0)
(1.48769 4.47643 0)
(1.10064 4.76376 0)
(0.652888 4.78284 0)
(0.216561 4.75195 0)
(-0.208534 5.18189 0)
(-0.62813 5.21331 0)
(-1.05042 5.14422 0)
(-1.36868 4.70512 0)
(-1.29371 3.31623 0)
(-0.932514 0.999851 0)
(-0.544602 -0.417418 0)
(-0.404998 -0.77849 0)
(-0.546721 -0.757686 0)
(-0.751006 -1.05456 0)
(-0.935512 -2.29078 0)
(-0.798722 -3.48787 0)
(-0.659008 -3.90869 0)
(-0.50803 -3.94669 0)
(-0.27426 -3.95383 0)
(-0.106778 -3.9409 0)
(0.106776 -3.9409 0)
(0.274253 -3.95384 0)
(0.508035 -3.9467 0)
(0.658979 -3.90869 0)
(0.79872 -3.48778 0)
(0.93545 -2.29055 0)
(0.750942 -1.05445 0)
(0.546684 -0.757682 0)
(0.404974 -0.778504 0)
(0.544627 -0.417361 0)
(0.932545 0.999997 0)
(1.29375 3.31643 0)
(1.36867 4.70518 0)
(1.0504 5.14424 0)
(0.62812 5.21332 0)
(0.208531 5.1819 0)
(-0.198198 5.59535 0)
(-0.597599 5.61599 0)
(-0.991249 5.47851 0)
(-1.26685 4.85054 0)
(-1.06605 2.94683 0)
(-0.713846 0.664643 0)
(-0.344005 -0.650281 0)
(-0.302744 -0.790838 0)
(-0.381627 -0.568498 0)
(-0.494559 -0.938042 0)
(-0.537101 -2.15626 0)
(-0.520668 -3.54085 0)
(-0.463692 -4.02953 0)
(-0.39605 -4.10347 0)
(-0.217471 -4.12465 0)
(-0.0857688 -4.11206 0)
(0.0857579 -4.11206 0)
(0.217455 -4.12466 0)
(0.396041 -4.10347 0)
(0.463649 -4.02953 0)
(0.520655 -3.54073 0)
(0.537068 -2.15607 0)
(0.49455 -0.937968 0)
(0.381615 -0.56851 0)
(0.302738 -0.790875 0)
(0.34403 -0.650251 0)
(0.713879 0.664784 0)
(1.06609 2.94706 0)
(1.26685 4.85062 0)
(0.991232 5.47853 0)
(0.597587 5.61599 0)
(0.198194 5.59534 0)
(-0.18606 5.98134 0)
(-0.562294 5.9888 0)
(-0.930452 5.78078 0)
(-1.1902 4.94182 0)
(-0.951524 2.56444 0)
(-0.60338 0.324807 0)
(-0.383569 -0.820969 0)
(-0.348992 -0.722698 0)
(-0.485625 -0.506526 0)
(-0.434033 -1.00739 0)
(-0.330035 -2.16804 0)
(-0.329148 -3.52345 0)
(-0.308943 -4.07643 0)
(-0.292063 -4.20642 0)
(-0.164053 -4.24997 0)
(-0.0656262 -4.24486 0)
(0.0656072 -4.24486 0)
(0.164029 -4.24997 0)
(0.292042 -4.20642 0)
(0.308897 -4.07642 0)
(0.329122 -3.52333 0)
(0.330016 -2.1679 0)
(0.434048 -1.00731 0)
(0.485628 -0.506525 0)
(0.349015 -0.722758 0)
(0.383603 -0.820954 0)
(0.603421 0.324956 0)
(0.951562 2.56468 0)
(1.1902 4.94193 0)
(0.930431 5.7808 0)
(0.562278 5.9888 0)
(0.186054 5.98133 0)
(-0.167983 6.34673 0)
(-0.511194 6.33871 0)
(-0.854647 6.06447 0)
(-1.10082 5.00398 0)
(-0.878787 2.22227 0)
(-0.617477 0.0367439 0)
(-0.599397 -0.88043 0)
(-0.561561 -0.56349 0)
(-0.635037 -0.537481 0)
(-0.466264 -1.1656 0)
(-0.254212 -2.27364 0)
(-0.204564 -3.51443 0)
(-0.197247 -4.08715 0)
(-0.208466 -4.27081 0)
(-0.118061 -4.33941 0)
(-0.0483391 -4.34388 0)
(0.048314 -4.34388 0)
(0.118031 -4.33941 0)
(0.208437 -4.2708 0)
(0.197201 -4.08713 0)
(0.204527 -3.51432 0)
(0.25421 -2.27352 0)
(0.466289 -1.16553 0)
(0.635052 -0.537483 0)
(0.561598 -0.563564 0)
(0.599445 -0.880422 0)
(0.617509 0.0368918 0)
(0.878808 2.2225 0)
(1.10081 5.00413 0)
(0.854611 6.06449 0)
(0.511169 6.3387 0)
(0.167975 6.34671 0)
(-0.140726 6.65798 0)
(-0.430956 6.65033 0)
(-0.742219 6.34088 0)
(-0.97705 5.0977 0)
(-0.86053 2.04286 0)
(-0.819362 -0.0666794 0)
(-0.959508 -0.840507 0)
(-0.889684 -0.548097 0)
(-0.812063 -0.66654 0)
(-0.537997 -1.42385 0)
(-0.234707 -2.45219 0)
(-0.122842 -3.53734 0)
(-0.113578 -4.08507 0)
(-0.14171 -4.30844 0)
(-0.0792767 -4.40131 0)
(-0.0338269 -4.41457 0)
(0.033798 -4.41457 0)
(0.0792449 -4.40131 0)
(0.141677 -4.30842 0)
(0.113537 -4.08504 0)
(0.122805 -3.53726 0)
(0.234711 -2.45211 0)
(0.538027 -1.42379 0)
(0.81209 -0.666531 0)
(0.889727 -0.548181 0)
(0.959555 -0.840498 0)
(0.819369 -0.0665327 0)
(0.86052 2.04312 0)
(0.977009 5.09789 0)
(0.742159 6.3409 0)
(0.43092 6.6503 0)
(0.140715 6.65794 0)
(-0.0911888 6.91748 0)
(-0.296046 6.90908 0)
(-0.547402 6.59575 0)
(-0.771861 5.17289 0)
(-0.86158 2.0564 0)
(-1.03555 0.0338874 0)
(-1.24785 -0.741087 0)
(-1.20882 -0.645437 0)
(-0.962205 -0.909779 0)
(-0.583549 -1.7811 0)
(-0.227134 -2.72133 0)
(-0.059639 -3.59539 0)
(-0.0420265 -4.07722 0)
(-0.0838824 -4.325 0)
(-0.0452367 -4.44009 0)
(-0.0211188 -4.46048 0)
(0.0210881 -4.46048 0)
(0.0452038 -4.44009 0)
(0.0838499 -4.32498 0)
(0.041992 -4.07719 0)
(0.0596083 -3.59533 0)
(0.22714 -2.72129 0)
(0.583575 -1.78106 0)
(0.962248 -0.909766 0)
(1.20885 -0.64556 0)
(1.24784 -0.74107 0)
(1.03553 0.0340577 0)
(0.861562 2.05668 0)
(0.771793 5.17312 0)
(0.547322 6.59575 0)
(0.296 6.90903 0)
(0.0911718 6.91741 0)
(-0.0195144 7.04796 0)
(-0.0992033 7.06918 0)
(-0.215861 6.79945 0)
(-0.369836 5.36984 0)
(-0.720769 2.23921 0)
(-1.07104 0.278121 0)
(-1.32504 -0.673786 0)
(-1.31745 -0.940504 0)
(-1.00136 -1.28183 0)
(-0.540679 -2.20508 0)
(-0.185717 -3.03657 0)
(0.0166246 -3.69527 0)
(0.0258059 -4.06091 0)
(-0.0295928 -4.32056 0)
(-0.0139945 -4.45715 0)
(-0.00907206 -4.48309 0)
(0.00904062 -4.48309 0)
(0.0139617 -4.45714 0)
(0.0295624 -4.32055 0)
(-0.0258352 -4.06089 0)
(-0.0166482 -3.69523 0)
(0.185716 -3.03655 0)
(0.540684 -2.20506 0)
(1.00139 -1.28183 0)
(1.31744 -0.940586 0)
(1.32498 -0.673715 0)
(1.07096 0.278314 0)
(0.720675 2.23952 0)
(0.369709 5.37009 0)
(0.215779 6.79944 0)
(0.0991576 7.0691 0)
(0.0195039 7.04785 0)
(0.0476947 7.03739 0)
(0.15298 7.08365 0)
(0.21803 6.86806 0)
(0.34142 5.67303 0)
(-0.15311 2.73039 0)
(-0.623278 0.650555 0)
(-0.948119 -0.554111 0)
(-1.10855 -1.18219 0)
(-0.794585 -1.70642 0)
(-0.354515 -2.58917 0)
(-0.0707298 -3.32298 0)
(0.107257 -3.79184 0)
(0.0990281 -4.02697 0)
(0.0251638 -4.29693 0)
(0.0139501 -4.45303 0)
(0.00196722 -4.48521 0)
(-0.00199882 -4.48521 0)
(-0.0139802 -4.45302 0)
(-0.0251939 -4.29691 0)
(-0.0990564 -4.02695 0)
(-0.107272 -3.79182 0)
(0.0707084 -3.32296 0)
(0.354481 -2.58915 0)
(0.794554 -1.70641 0)
(1.10844 -1.18218 0)
(0.947965 -0.553999 0)
(0.623103 0.650803 0)
(0.15292 2.73076 0)
(-0.341556 5.67321 0)
(-0.218095 6.868 0)
(-0.153018 7.08353 0)
(-0.0477052 7.03726 0)
(0.1251 6.86935 0)
(0.403048 6.90355 0)
(0.651405 6.70582 0)
(1.00775 5.72726 0)
(0.752049 3.38135 0)
(0.256426 1.33279 0)
(0.0133421 -0.0221357 0)
(-0.296859 -1.09432 0)
(-0.218318 -1.95036 0)
(-0.0142965 -2.824 0)
(0.114511 -3.51406 0)
(0.21089 -3.84545 0)
(0.180115 -3.96466 0)
(0.0854503 -4.25092 0)
(0.0441879 -4.42748 0)
(0.0125117 -4.47079 0)
(-0.0125415 -4.47079 0)
(-0.0442172 -4.42747 0)
(-0.0854786 -4.25091 0)
(-0.180142 -3.96464 0)
(-0.210917 -3.84543 0)
(-0.114561 -3.51402 0)
(0.0142224 -2.82395 0)
(0.218208 -1.9503 0)
(0.296699 -1.09423 0)
(-0.0135288 -0.0219691 0)
(-0.256614 1.33301 0)
(-0.752255 3.38165 0)
(-1.00781 5.72734 0)
(-0.651446 6.70572 0)
(-0.403069 6.9034 0)
(-0.125107 6.8692 0)