/*--------------------------------*- C++ -*----------------------------------*\
  =========                 |
  \\      /  F ield         | OpenFOAM: The Open Source CFD Toolbox
   \\    /   O peration     | Website:  https://openfoam.org
    \\  /    A nd           | Version:  9
     \\/     M anipulation  |
\*---------------------------------------------------------------------------*/
FoamFile
{
    format      ascii;
    class       volScalarField;
    location    "10";
    object      p;
}
// * * * * * * * * * * * * * * * * * * * * * * * * * * * * * * * * * * * * * //

dimensions      [0 2 -2 0 0 0 0];

internalField   nonuniform List<scalar> 
1000
(
1.6755749
1.554497
1.4585165
1.3948604
1.3463509
1.3038788
1.2663436
1.2341719
1.2067715
1.1829339
1.1615396
1.1417758
1.1230986
1.1051591
1.0877438
1.0707296
1.0540487
1.0376645
1.0215563
1.0057104
0.99011539
0.97476029
0.95963359
0.94472336
0.93001735
0.91550336
0.90116938
0.88700387
0.8729958
0.8591348
0.84541109
0.83181554
0.81833965
0.80497549
0.79171565
0.77855328
0.76548197
0.75249575
0.73958907
0.72675676
0.71399396
0.70129616
0.68865912
0.67607891
0.66355183
0.65107443
0.63864349
0.62625599
0.61390912
0.60160026
0.58932694
0.57708685
0.56487784
0.55269786
0.54054504
0.52841758
0.51631386
0.50423231
0.49217152
0.48013013
0.46810689
0.45610061
0.44411018
0.43213455
0.42017275
0.40822385
0.39628702
0.38436149
0.37244652
0.36054145
0.34864563
0.33675846
0.32487936
0.31300779
0.30114323
0.28928524
0.27743338
0.26558729
0.25374661
0.24191103
0.23008021
0.21825384
0.20643163
0.19461328
0.18279854
0.17098718
0.15917901
0.14737386
0.13557156
0.12377196
0.11197486
0.1001801
0.088387478
0.076596854
0.064808087
0.053021114
0.041235856
0.02945219
0.017670109
0.0058891094
1.5583552
1.5034261
1.4424736
1.3909059
1.3476359
1.3086676
1.2730813
1.2413087
1.2133478
1.1885699
1.166168
1.1454667
1.125985
1.107397
1.0894834
1.0720987
1.0551468
1.0385654
1.0223127
1.0063592
0.9906822
0.97526267
0.96008382
0.94513016
0.93038711
0.91584089
0.90147847
0.88728759
0.87325674
0.85937516
0.84563279
0.83202029
0.81852895
0.80515066
0.79187792
0.7787037
0.76562152
0.7526253
0.73970942
0.72686861
0.71409796
0.70139291
0.68874918
0.67616276
0.66362993
0.65114719
0.63871129
0.62631918
0.61396804
0.60165519
0.58937816
0.57713463
0.5649224
0.55273945
0.54058384
0.5284538
0.51634766
0.50426387
0.49220097
0.48015761
0.46813254
0.45612455
0.44413254
0.43215543
0.42019225
0.40824207
0.39630404
0.38437737
0.37246134
0.36055527
0.34865852
0.33677049
0.3248906
0.31301829
0.30115305
0.2892944
0.27744193
0.26559525
0.25375401
0.24191789
0.23008658
0.21825977
0.20643714
0.19461841
0.1828033
0.17099159
0.15918307
0.14737759
0.13557496
0.12377506
0.11197769
0.10018269
0.088389856
0.076599031
0.064810059
0.053022857
0.04123739
0.029453444
0.017671207
0.0058896094
1.4975339
1.4713588
1.432962
1.3918291
1.3527438
1.316153
1.2818554
1.2501378
1.2212817
1.1951806
1.1714266
1.1495366
1.1290868
1.1097459
1.0912658
1.0734647
1.0562129
1.0394173
1.0230112
1.0069461
0.9911857
0.97570202
0.96047215
0.94547666
0.9306984
0.91612191
0.90173307
0.88751889
0.87346733
0.85956726
0.84580834
0.83218096
0.81867624
0.80528589
0.79200223
0.77881815
0.76572701
0.75272265
0.73979934
0.72695175
0.71417491
0.70146419
0.68881525
0.67622406
0.66368683
0.65120004
0.63876041
0.62636485
0.61401051
0.6016947
0.58941493
0.57716886
0.56495428
0.55276915
0.54061152
0.52847961
0.51637172
0.5042863
0.49222188
0.48017711
0.46815072
0.4561415
0.44414835
0.43217019
0.42020603
0.40825494
0.39631606
0.3843886
0.37247181
0.36056503
0.34866762
0.33677897
0.32489851
0.31302568
0.30115997
0.28930088
0.27744798
0.26560089
0.25375925
0.24192276
0.23009109
0.21826396
0.20644105
0.19462206
0.18280672
0.17099479
0.15918604
0.14738032
0.13557747
0.12377735
0.11197977
0.10018461
0.088391625
0.076600683
0.064811573
0.053024223
0.041238535
0.029454362
0.017671747
0.0058899387
1.4681254
1.4526273
1.4257574
1.3918335
1.3560325
1.3210812
1.2877793
1.2564262
1.2272955
1.200504
1.1759165
1.1532243
1.1320725
1.1121437
1.0931855
1.0750058
1.0574601
1.0404391
1.0238605
1.0076624
0.99179845
0.9762327
0.96093674
0.94588707
0.93106364
0.91644891
0.90202726
0.88778462
0.87370816
0.85978614
0.84600776
0.83236306
0.81884285
0.80543861
0.79214246
0.7789471
0.76584575
0.75283213
0.7399004
0.72704514
0.71426129
0.70154415
0.68888934
0.67629275
0.66375057
0.65125922
0.63881539
0.62641595
0.61405802
0.60173889
0.58945605
0.57720712
0.56498991
0.55280233
0.54064244
0.52850842
0.51639858
0.50431134
0.49224523
0.48019888
0.46817101
0.45616042
0.44416599
0.43218665
0.4202214
0.40826929
0.39632946
0.38440111
0.37248349
0.36057592
0.34867777
0.33678844
0.32490734
0.31303393
0.30116768
0.2893081
0.27745474
0.26560721
0.25376516
0.24192826
0.23009621
0.21826873
0.2064455
0.19462623
0.18281063
0.17099847
0.1591895
0.14738356
0.13558047
0.12378013
0.11198234
0.10018699
0.08839383
0.076602764
0.064813483
0.053026025
0.041240057
0.029455763
0.017672634
0.0058908411
1.4553939
1.4434405
1.4212061
1.3909186
1.3570574
1.3230618
1.2903642
1.2593587
1.2302613
1.2032494
1.1783224
1.1552728
1.1337913
1.1135736
1.0943701
1.0759879
1.0582789
1.0411285
1.0244476
1.0081685
0.99223948
0.97662092
0.96128141
0.94619526
0.9313408
0.91669932
0.90225434
0.88799114
0.87389643
0.85995813
0.84616516
0.83250733
0.81897527
0.80556032
0.79225446
0.77905028
0.76594091
0.75291998
0.73998157
0.7271202
0.71433076
0.7016085
0.68894898
0.67634807
0.66380191
0.65130689
0.63885967
0.62645711
0.61409629
0.60177449
0.58948917
0.57723795
0.5650186
0.55282905
0.54066733
0.52853162
0.51642021
0.5043315
0.49226403
0.4802164
0.46818735
0.45617565
0.44418019
0.4321999
0.42023376
0.40828083
0.39634024
0.38441117
0.37249288
0.36058469
0.34868595
0.33679606
0.32491446
0.31304058
0.30117389
0.28931391
0.27746019
0.26561231
0.25376992
0.2419327
0.23010036
0.21827259
0.20644911
0.19462961
0.18281381
0.17100146
0.15919231
0.1473862
0.13558294
0.12378243
0.11198448
0.10018899
0.088395678
0.076604514
0.064815089
0.053027561
0.041241372
0.029457031
0.01767351
0.0058917631
1.4553939
1.4434405
1.4212061
1.3909186
1.3570574
1.3230618
1.2903642
1.2593587
1.2302613
1.2032494
1.1783224
1.1552728
1.1337913
1.1135736
1.0943701
1.0759879
1.0582789
1.0411285
1.0244476
1.0081685
0.99223948
0.97662092
0.96128141
0.94619526
0.9313408
0.91669932
0.90225434
0.88799114
0.87389643
0.85995813
0.84616515
0.83250733
0.81897527
0.80556032
0.79225446
0.77905028
0.76594091
0.75291998
0.73998157
0.7271202
0.71433076
0.7016085
0.68894898
0.67634807
0.66380191
0.6513069
0.63885967
0.62645711
0.61409629
0.60177449
0.58948916
0.57723794
0.5650186
0.55282905
0.54066733
0.52853162
0.51642021
0.5043315
0.49226402
0.4802164
0.46818734
0.45617565
0.44418019
0.4321999
0.42023377
0.40828084
0.39634025
0.38441118
0.37249288
0.36058468
0.34868594
0.33679605
0.32491445
0.31304058
0.3011739
0.28931392
0.27746019
0.26561231
0.25376991
0.24193269
0.23010034
0.21827257
0.20644909
0.1946296
0.18281381
0.17100146
0.15919231
0.1473862
0.13558293
0.12378242
0.11198446
0.10018897
0.088395668
0.07660451
0.06481509
0.053027563
0.04124137
0.029457017
0.01767349
0.005891752
1.4681254
1.4526273
1.4257574
1.3918335
1.3560325
1.3210812
1.2877793
1.2564262
1.2272955
1.200504
1.1759165
1.1532243
1.1320725
1.1121437
1.0931855
1.0750058
1.0574601
1.0404391
1.0238604
1.0076624
0.99179844
0.9762327
0.96093674
0.94588707
0.93106364
0.91644891
0.90202727
0.88778462
0.87370816
0.85978613
0.84600775
0.83236306
0.81884285
0.80543862
0.79214247
0.77894711
0.76584576
0.75283213
0.7399004
0.72704513
0.71426128
0.70154415
0.68888934
0.67629275
0.66375058
0.65125923
0.63881539
0.62641595
0.61405801
0.60173888
0.58945604
0.57720711
0.5649899
0.55280233
0.54064245
0.52850843
0.51639859
0.50431135
0.49224523
0.48019887
0.468171
0.45616041
0.44416599
0.43218666
0.42022141
0.40826931
0.39632948
0.38440111
0.37248348
0.3605759
0.34867774
0.33678842
0.32490733
0.31303394
0.3011677
0.28930812
0.27745475
0.2656072
0.25376512
0.24192821
0.23009616
0.21826867
0.20644546
0.19462621
0.18281063
0.17099846
0.15918949
0.14738353
0.13558043
0.12378008
0.11198229
0.10018695
0.088393806
0.076602758
0.064813489
0.053026031
0.041240053
0.029455737
0.01767259
0.0058908169
1.4975339
1.4713588
1.432962
1.3918291
1.3527438
1.316153
1.2818554
1.2501378
1.2212817
1.1951806
1.1714266
1.1495366
1.1290868
1.1097459
1.0912658
1.0734647
1.0562129
1.0394173
1.0230112
1.0069461
0.9911857
0.97570201
0.96047215
0.94547667
0.93069841
0.91612191
0.90173307
0.88751889
0.87346732
0.85956725
0.84580833
0.83218096
0.81867624
0.80528589
0.79200225
0.77881816
0.76572701
0.75272264
0.73979933
0.72695174
0.7141749
0.70146418
0.68881525
0.67622407
0.66368684
0.65120005
0.63876041
0.62636485
0.61401049
0.60169468
0.58941492
0.57716885
0.56495429
0.55276916
0.54061154
0.52847963
0.51637173
0.5042863
0.49222187
0.48017709
0.4681507
0.4561415
0.44414836
0.43217022
0.42020606
0.40825497
0.39631607
0.38438858
0.37247178
0.36056499
0.34866758
0.33677895
0.32489852
0.31302571
0.30115999
0.28930089
0.27744797
0.26560084
0.25375918
0.24192267
0.23009101
0.2182639
0.20644101
0.19462204
0.18280671
0.17099477
0.159186
0.14738026
0.13557739
0.12377727
0.11197971
0.10018457
0.088391612
0.076600688
0.064811582
0.053024224
0.041238522
0.029454337
0.017671711
0.0058899203
1.5583552
1.5034261
1.4424736
1.3909059
1.3476359
1.3086676
1.2730813
1.2413087
1.2133478
1.1885699
1.166168
1.1454667
1.125985
1.107397
1.0894834
1.0720987
1.0551468
1.0385654
1.0223127
1.0063592
0.9906822
0.97526267
0.96008383
0.94513018
0.93038712
0.9158409
0.90147847
0.88728759
0.87325673
0.85937515
0.84563279
0.83202029
0.81852896
0.80515068
0.79187793
0.77870371
0.76562152
0.75262529
0.7397094
0.72686859
0.71409795
0.70139291
0.68874919
0.67616278
0.66362994
0.6511472
0.63871129
0.62631917
0.61396801
0.60165517
0.58937815
0.57713463
0.56492242
0.55273947
0.54058387
0.52845382
0.51634766
0.50426385
0.49220094
0.48015759
0.46813253
0.45612456
0.44413257
0.43215547
0.42019228
0.40824208
0.39630403
0.38437733
0.37246129
0.36055523
0.3486585
0.3367705
0.32489063
0.31301833
0.30115307
0.2892944
0.27744188
0.26559517
0.25375391
0.2419178
0.23008651
0.21825973
0.20643712
0.1946184
0.18280328
0.17099154
0.159183
0.14737749
0.13557487
0.12377498
0.11197764
0.10018268
0.088389858
0.076599036
0.064810057
0.053022847
0.041237378
0.029453429
0.017671192
0.0058895999
1.6755749
1.554497
1.4585165
1.3948604
1.3463509
1.3038788
1.2663436
1.2341718
1.2067715
1.1829339
1.1615396
1.1417758
1.1230986
1.1051591
1.0877438
1.0707296
1.0540487
1.0376645
1.0215563
1.0057104
0.99011539
0.97476029
0.9596336
0.94472337
0.93001736
0.91550336
0.90116937
0.88700386
0.87299579
0.85913479
0.84541108
0.83181555
0.81833966
0.8049755
0.79171566
0.77855328
0.76548196
0.75249574
0.73958906
0.72675675
0.71399395
0.70129616
0.68865914
0.67607893
0.66355184
0.65107443
0.63864348
0.62625597
0.6139091
0.60160025
0.58932694
0.57708686
0.56487786
0.55269788
0.54054505
0.52841758
0.51631384
0.50423229
0.49217149
0.48013012
0.46810689
0.45610064
0.44411022
0.43213459
0.42017277
0.40822385
0.396287
0.38436144
0.37244648
0.36054142
0.34864562
0.33675848
0.32487939
0.31300781
0.30114324
0.28928521
0.27743331
0.2655872
0.25374652
0.24191094
0.23008015
0.21825381
0.2064316
0.19461325
0.18279849
0.1709871
0.15917891
0.14737376
0.13557147
0.12377189
0.11197482
0.10018008
0.088387466
0.076596841
0.064808077
0.05302111
0.041235857
0.029452183
0.017670089
0.005889097
)
;

boundaryField
{
    top
    {
        type            zeroGradient;
    }
    inlet
    {
        type            zeroGradient;
    }
    outlet
    {
        type            fixedValue;
        value           uniform 0;
    }
    bottom
    {
        type            zeroGradient;
    }
    back
    {
        type            empty;
    }
    front
    {
        type            empty;
    }
}


// ************************************************************************* //
