/*--------------------------------*- C++ -*----------------------------------*\
  =========                 |
  \\      /  F ield         | OpenFOAM: The Open Source CFD Toolbox
   \\    /   O peration     | Website:  https://openfoam.org
    \\  /    A nd           | Version:  9
     \\/     M anipulation  |
\*---------------------------------------------------------------------------*/
FoamFile
{
    format      ascii;
    class       surfaceScalarField;
    location    "10";
    object      phi;
}
// * * * * * * * * * * * * * * * * * * * * * * * * * * * * * * * * * * * * * //

dimensions      [0 3 -1 0 0 0 0];

internalField   nonuniform List<scalar> 
1890
(
0.0093061957
0.00069380425
0.0082843931
0.0010218027
0.0073298986
0.00095449449
0.0064869553
0.00084294334
0.0057695845
0.0007173708
0.00518986
0.00057972444
0.004738168
0.00045169204
0.00439519
0.000342978
0.0041390268
0.00025616317
0.003949107
0.00018991983
0.003807888
0.00014121897
0.0037013782
0.0001065098
0.003619058
8.2320224e-05
0.0035534117
6.5646246e-05
0.0034992845
5.4127254e-05
0.0034532444
4.6040046e-05
0.0034130501
4.0194288e-05
0.0033772574
3.5792752e-05
0.0033449386
3.2318756e-05
0.0033154893
2.944928e-05
0.0032885008
2.6988577e-05
0.0032636805
2.4820303e-05
0.003240805
2.2875484e-05
0.0032196926
2.111242e-05
0.0032001879
1.9504657e-05
0.0031821539
1.8034017e-05
0.0031654672
1.6686727e-05
0.0031500158
1.5451365e-05
0.0031356979
1.4317864e-05
0.0031224209
1.3277074e-05
0.0031101003
1.2320594e-05
0.0030986595
1.1440722e-05
0.0030880291
1.0630435e-05
0.0030781457
9.8833643e-06
0.003068952
9.1937697e-06
0.0030603955
8.5564954e-06
0.0030524286
7.966921e-06
0.0030450077
7.4209095e-06
0.0030380929
6.9147553e-06
0.0030316477
6.4451343e-06
0.0030256387
6.0090608e-06
0.0030200348
5.6038463e-06
0.0030148078
5.2270657e-06
0.0030099313
4.8765259e-06
0.003005381
4.5502383e-06
0.0030011346
4.2463944e-06
0.0029971713
3.9633441e-06
0.0029934717
3.6995768e-06
0.002990018
3.4537052e-06
0.0029867935
3.2244523e-06
0.0029837829
3.0106411e-06
0.0029809717
2.8111859e-06
0.0029783466
2.6250859e-06
0.0029758952
2.4514183e-06
0.0029736059
2.2893325e-06
0.0029714679
2.1380432e-06
0.002969471
1.9968223e-06
0.002967606
1.8649926e-06
0.0029658641
1.7419213e-06
0.0029642371
1.6270151e-06
0.0029627173
1.5197194e-06
0.0029612978
1.419516e-06
0.0029599719
1.3259258e-06
0.0029587334
1.2385068e-06
0.0029575766
1.1568528e-06
0.002956496
1.0805896e-06
0.0029554866
1.0093676e-06
0.0029545438
9.4285669e-07
0.002953663
8.8074134e-07
0.0029528403
8.2271758e-07
0.0029520717
7.6849735e-07
0.0029513539
7.1780858e-07
0.0029506836
6.7040387e-07
0.0029500575
6.2605831e-07
0.002949473
5.8457226e-07
0.0029489273
5.4576047e-07
0.0029484178
5.0945157e-07
0.0029479423
4.7546831e-07
0.0029474987
4.4364481e-07
0.0029470848
4.1379627e-07
0.0029466991
3.8577393e-07
0.0029463397
3.5940581e-07
0.0029460052
3.3459869e-07
0.002945694
3.1120577e-07
0.0029454049
2.8920873e-07
0.0029451365
2.6844271e-07
0.0029448875
2.4896313e-07
0.002944657
2.30507e-07
0.0029444437
2.1324433e-07
0.002944247
1.9673617e-07
0.0029440657
1.8139623e-07
0.0029438992
1.6650891e-07
0.0029437464
1.5294716e-07
0.0029436069
1.3953149e-07
0.002943479
1.278519e-07
0.002943363
1.1596606e-07
0.0029432566
1.0634298e-07
0.0029431603
9.6312247e-08
0.002943071
8.9274717e-08
8.5822923e-08
0.010339525
0.00035427932
0.010570754
0.00079057335
0.010606301
0.00091894821
0.010547572
0.00090167137
0.010422317
0.00084262624
0.010244356
0.00075768559
0.010039421
0.00065662744
0.0098287427
0.00055365586
0.009625135
0.00045977083
0.0094353013
0.00037975354
0.0092624277
0.00031409258
0.0091075332
0.00026140426
0.008970154
0.00021969949
0.0088489023
0.00018689787
0.0087419716
0.00016105803
0.0086474927
0.00014051895
0.008563694
0.00012399296
0.0084890108
0.00011047599
0.0084221096
9.9219861e-05
0.0083618775
8.9681395e-05
0.0083073954
8.1470664e-05
0.0082579079
7.4307848e-05
0.0082127929
6.7990503e-05
0.0081715353
6.237e-05
0.0081337049
5.7335024e-05
0.0080989388
5.280019e-05
0.0080669272
4.8698268e-05
0.0080374036
4.4974952e-05
0.0080101361
4.1585387e-05
0.0079849213
3.8491844e-05
0.0079615798
3.5662156e-05
0.0079399519
3.3068615e-05
0.0079198951
3.0687179e-05
0.0079012816
2.8496858e-05
0.0078839962
2.647925e-05
0.0078679345
2.4618153e-05
0.0078530022
2.2899252e-05
0.0078391132
2.1309854e-05
0.0078261893
1.9838669e-05
0.0078141588
1.8475618e-05
0.0078029562
1.7211674e-05
0.0077925213
1.603873e-05
0.0077827989
1.4949484e-05
0.0077737381
1.3937339e-05
0.007765292
1.2996323e-05
0.0077574174
1.2121011e-05
0.0077500743
1.1306463e-05
0.0077432257
1.0548168e-05
0.0077368374
9.8419972e-06
0.0077308777
9.1841606e-06
0.0077253171
8.5711741e-06
0.0077201285
7.9998304e-06
0.0077152864
7.467175e-06
0.0077107673
6.970485e-06
0.0077065494
6.5072498e-06
0.0077026123
6.0751524e-06
0.0076989371
5.6720507e-06
0.0076955062
5.2959594e-06
0.007692303
4.9450335e-06
0.0076893125
4.6175544e-06
0.0076865203
4.3119197e-06
0.0076839131
4.0266367e-06
0.0076814787
3.7603174e-06
0.0076792056
3.5116761e-06
0.0076770829
3.2795235e-06
0.0076751008
3.0627594e-06
0.0076732498
2.8603621e-06
0.0076715213
2.6713756e-06
0.0076699071
2.4948996e-06
0.0076683997
2.3300811e-06
0.0076669921
2.1761124e-06
0.0076656776
2.032231e-06
0.0076644503
1.8977284e-06
0.0076633044
1.7719472e-06
0.0076622347
1.6542923e-06
0.0076612363
1.5442076e-06
0.0076603046
1.4411893e-06
0.0076594353
1.3447382e-06
0.0076586245
1.2544e-06
0.0076578686
1.1696898e-06
0.0076571641
1.0902061e-06
0.007656508
1.0154831e-06
0.0076558974
9.4523669e-07
0.0076553296
8.7902955e-07
0.0076548021
8.1676451e-07
0.0076543126
7.5795659e-07
0.0076538589
7.0274904e-07
0.0076534389
6.5041976e-07
0.0076530506
6.0149364e-07
0.0076526926
5.5472524e-07
0.0076523625
5.1141238e-07
0.0076520598
4.693046e-07
0.0076517815
4.3126789e-07
0.007651528
3.930586e-07
0.0076512952
3.6061017e-07
0.0076510855
3.2561115e-07
0.0076508917
3.0006532e-07
0.0076507208
2.6727222e-07
0.0076505579
2.5205318e-07
2.1793923e-07
0.010188704
0.00016557515
0.010530487
0.000448791
0.010851453
0.00059798177
0.011124174
0.00062895025
0.011350581
0.00061621887
0.011524486
0.00058378055
0.01164633
0.0005347842
0.011724155
0.00047583049
0.011767999
0.00041592665
0.011786639
0.000361114
0.011787114
0.00031361712
0.011775058
0.00027346026
0.011754861
0.00023989719
0.011729768
0.00021199032
0.011702054
0.00018877261
0.011673239
0.00016933388
0.011644339
0.00015289296
0.011616003
0.00013881182
0.011588629
0.00012659378
0.011562446
0.00011586444
0.011537572
0.00010634494
0.011514052
9.7827005e-05
0.011491889
9.0153372e-05
0.011471056
8.3203377e-05
0.011451509
7.6882622e-05
0.011433193
7.1115565e-05
0.011416051
6.5840292e-05
0.011400021
6.1004904e-05
0.011385042
5.6565064e-05
0.011371051
5.2482335e-05
0.01135799
4.872303e-05
0.011345801
4.5257398e-05
0.01133443
4.2059009e-05
0.011323822
3.9104289e-05
0.011313929
3.6372137e-05
0.011304704
3.3843618e-05
0.011296101
3.1501697e-05
0.01128808
2.9331016e-05
0.011280601
2.7317699e-05
0.011273628
2.5449179e-05
0.011267125
2.3714057e-05
0.011261062
2.210197e-05
0.011255408
2.060348e-05
0.011250135
1.9209977e-05
0.011245218
1.7913596e-05
0.011240632
1.6707137e-05
0.011236354
1.5584002e-05
0.011232364
1.453813e-05
0.011228642
1.3563947e-05
0.01122517
1.2656318e-05
0.011221931
1.1810506e-05
0.011218909
1.1022137e-05
0.011216089
1.0287168e-05
0.011213457
9.6018633e-06
0.011211002
8.9627683e-06
0.01120871
8.366686e-06
0.011206572
7.8106572e-06
0.011204576
7.2919372e-06
0.011202713
6.8079771e-06
0.011200974
6.3564061e-06
0.011199351
5.9350155e-06
0.011197836
5.5417486e-06
0.011196421
5.1746909e-06
0.011195101
4.832062e-06
0.011193868
4.5122106e-06
0.011192717
4.2136024e-06
0.011191643
3.9348139e-06
0.01119064
3.6745163e-06
0.011189703
3.4314673e-06
0.011188829
3.204498e-06
0.011188012
2.9925077e-06
0.01118725
2.7944581e-06
0.011186538
2.6093798e-06
0.011185874
2.4363621e-06
0.011185254
2.2745742e-06
0.011184675
2.1232298e-06
0.011184134
1.981624e-06
0.01118363
1.8490607e-06
0.011183159
1.7249297e-06
0.011182721
1.6085755e-06
0.011182311
1.4994798e-06
0.01118193
1.3969987e-06
0.011181574
1.3007677e-06
0.011181243
1.2101266e-06
0.011180935
1.1249734e-06
0.011180648
1.0445186e-06
0.011180382
9.6907831e-07
0.011180135
8.9744526e-07
0.011179906
8.3067565e-07
0.011179694
7.6658464e-07
0.011179498
7.0772079e-07
0.011179317
6.4984595e-07
0.01117915
5.9860466e-07
0.011178997
5.4552304e-07
0.011178855
5.0254796e-07
0.011178728
4.5256471e-07
0.011178608
4.2000168e-07
0.011178505
3.7064566e-07
0.011178404
3.5256988e-07
3.0175187e-07
0.010097182
6.8393556e-05
0.010346961
0.00019901112
0.010662469
0.00028247387
0.010982753
0.00030866649
0.011290229
0.00030874342
0.011575251
0.00029875788
0.011829022
0.00028101346
0.012047865
0.00025698755
0.012233272
0.00023051982
0.01238924
0.0002051459
0.012520295
0.00018256236
0.012630755
0.00016299958
0.012724428
0.00014622491
0.012804515
0.00013190312
0.012873613
0.00011967426
0.012933772
0.00010917461
0.012986596
0.00010006906
0.013033332
9.2076361e-05
0.01307495
8.4975251e-05
0.013112216
7.8598615e-05
0.013145739
7.2822308e-05
0.013176012
6.7553945e-05
0.013203441
6.2723931e-05
0.013228366
5.8278902e-05
0.013251071
5.417699e-05
0.013271802
5.0384432e-05
0.01329077
4.6873162e-05
0.013308155
4.3619177e-05
0.013324119
4.060146e-05
0.0133388
3.7801285e-05
0.013352321
3.5201762e-05
0.013364791
3.2787545e-05
0.013376306
3.054461e-05
0.01338695
2.8460107e-05
0.0133968
2.6522236e-05
0.013405923
2.4720145e-05
0.013414381
2.3043847e-05
0.013422228
2.1484145e-05
0.013429513
2.003256e-05
0.013436281
1.8681275e-05
0.013442572
1.7423074e-05
0.013448422
1.6251298e-05
0.013453866
1.5159789e-05
0.013458933
1.4142862e-05
0.013463652
1.3195255e-05
0.013468047
1.2312101e-05
0.013472142
1.1488895e-05
0.013475958
1.0721461e-05
0.013479516
1.0005928e-05
0.013482834
9.338707e-06
0.013485928
8.7164632e-06
0.013488814
8.1361015e-06
0.013491507
7.5947462e-06
0.013494019
7.0897273e-06
0.013496363
6.6185637e-06
0.013498551
6.1789518e-06
0.013500593
5.76875e-06
0.013502499
5.3859667e-06
0.013504278
5.0287489e-06
0.013505939
4.6953687e-06
0.01350749
4.3842166e-06
0.013508938
4.093791e-06
0.013510289
3.8226919e-06
0.013511552
3.5696167e-06
0.013512731
3.3333512e-06
0.013513832
3.1127673e-06
0.01351486
2.9068138e-06
0.01351582
2.7145106e-06
0.013516716
2.534943e-06
0.013517553
2.36725e-06
0.013518335
2.2106264e-06
0.013519065
2.0643103e-06
0.013519747
1.9275914e-06
0.013520384
1.7998027e-06
0.013520978
1.6803286e-06
0.013521533
1.5685873e-06
0.01352205
1.4640545e-06
0.013522533
1.3662117e-06
0.013522983
1.2746135e-06
0.013523403
1.188774e-06
0.013523794
1.1083263e-06
0.013524158
1.0327897e-06
0.013524497
9.6191557e-07
0.013524812
8.9518645e-07
0.013525105
8.3256394e-07
0.013525376
7.7338257e-07
0.013525627
7.1797801e-07
0.013525859
6.652795e-07
0.013526073
6.1632568e-07
0.013526271
5.6911853e-07
0.013526452
5.2611046e-07
0.013526619
4.8334961e-07
0.013526771
4.4617168e-07
0.01352691
4.0666064e-07
0.013527037
3.7586643e-07
0.013527151
3.381321e-07
0.013527256
3.1527033e-07
0.013527349
2.7728751e-07
0.013527437
2.6508472e-07
2.2740071e-07
0.010068394
5.1868405e-14
0.010267405
1.4411743e-13
0.010549879
2.1332762e-13
0.010858545
3.0725455e-14
0.011167288
-2.6560089e-13
0.011466046
-4.3937532e-13
0.01174706
-3.1773483e-13
0.012004047
1.3386636e-13
0.012234567
7.3836036e-13
0.012439713
1.2258302e-12
0.012622275
1.4122141e-12
0.012785275
1.0990775e-12
0.0129315
3.9532536e-13
0.013063403
-5.1383274e-13
0.013183077
-1.2277712e-12
0.013292252
-1.3206424e-12
0.013392321
-9.302188e-13
0.013484397
1.7118163e-13
0.013569373
1.5704243e-12
0.013647971
2.6693716e-12
0.013720793
3.3603997e-12
0.013788347
3.2987535e-12
0.013851071
2.4028013e-12
0.01390935
1.1975379e-12
0.013963527
3.3938657e-13
0.014013912
1.3907943e-13
0.014060785
5.7996811e-13
0.014104404
2.0118121e-12
0.014145005
3.9276994e-12
0.014182807
6.198056e-12
0.014218009
7.8677033e-12
0.014250796
8.5302098e-12
0.014281341
8.4597071e-12
0.014309801
7.6191439e-12
0.014336323
6.8176199e-12
0.014361043
6.6602628e-12
0.014384087
7.3729466e-12
0.014405571
9.4471882e-12
0.014425604
1.2160576e-11
0.014444285
1.526287e-11
0.014461708
1.8088591e-11
0.014477959
1.994732e-11
0.014493119
2.1058426e-11
0.014507262
2.124255e-11
0.014520457
2.1358058e-11
0.014532769
2.2071727e-11
0.014544258
2.360732e-11
0.014554979
2.649717e-11
0.014564985
3.011692e-11
0.014574324
3.3969956e-11
0.01458304
3.7270728e-11
0.014591176
3.9056759e-11
0.014598771
3.9735436e-11
0.014605861
3.8985517e-11
0.014612479
3.8070564e-11
0.014618658
3.7954303e-11
0.014624427
3.8758305e-11
0.014629813
4.1189757e-11
0.014634842
4.4015786e-11
0.014639537
4.6224369e-11
0.014643921
4.6774169e-11
0.014648015
4.4332912e-11
0.014651838
3.9696341e-11
0.014655407
3.2586035e-11
0.01465874
2.5232858e-11
0.014661853
1.9096067e-11
0.01466476
1.418581e-11
0.014667475
1.0669095e-11
0.01467001
9.5331481e-12
0.014672377
5.6751895e-12
0.014674587
-7.7411849e-13
0.014676652
-1.2979806e-11
0.014678579
-2.7564332e-11
0.014680379
-4.5674221e-11
0.014682059
-6.359674e-11
0.014683628
-7.9521088e-11
0.014685092
-9.1978828e-11
0.014686459
-1.0079964e-10
0.014687733
-1.0673314e-10
0.014688922
-1.1344192e-10
0.014690031
-1.2001934e-10
0.014691063
-1.3073521e-10
0.014692025
-1.4101146e-10
0.014692921
-1.5308326e-10
0.014693754
-1.6080535e-10
0.014694527
-1.6511368e-10
0.014695245
-1.6247443e-10
0.014695911
-1.5582915e-10
0.014696527
-1.4254876e-10
0.014697096
-1.2909502e-10
0.014697622
-1.1098328e-10
0.014698106
-9.3563604e-11
0.014698552
-7.3231617e-11
0.014698959
-4.8863745e-11
0.014699335
-2.8867727e-11
0.014699673
1.9504398e-11
0.014699988
5.5446348e-11
0.014700265
1.4150233e-10
0.01470053
2.4700427e-10
2.0748556e-10
0.010068394
-6.8393556e-05
0.010267405
-0.00019901112
0.010549879
-0.00028247387
0.010858545
-0.00030866649
0.011167288
-0.00030874342
0.011466046
-0.00029875789
0.01174706
-0.00028101346
0.012004047
-0.00025698755
0.012234567
-0.00023051982
0.012439713
-0.00020514589
0.012622275
-0.00018256236
0.012785275
-0.00016299957
0.0129315
-0.00014622491
0.013063403
-0.00013190313
0.013183077
-0.00011967427
0.013292252
-0.00010917461
0.013392321
-0.00010006907
0.013484397
-9.2076361e-05
0.013569373
-8.4975248e-05
0.013647971
-7.8598609e-05
0.013720793
-7.2822302e-05
0.013788347
-6.7553939e-05
0.013851071
-6.2723927e-05
0.01390935
-5.82789e-05
0.013963527
-5.417699e-05
0.014013912
-5.0384432e-05
0.014060785
-4.687316e-05
0.014104404
-4.3619172e-05
0.014145005
-4.0601452e-05
0.014182807
-3.7801272e-05
0.014218009
-3.5201747e-05
0.014250796
-3.2787529e-05
0.014281341
-3.0544595e-05
0.014309801
-2.8460095e-05
0.014336323
-2.6522225e-05
0.014361043
-2.4720133e-05
0.014384087
-2.3043833e-05
0.014405571
-2.1484126e-05
0.014425604
-2.0032536e-05
0.014444285
-1.8681245e-05
0.014461708
-1.742304e-05
0.014477959
-1.625126e-05
0.014493119
-1.5159752e-05
0.014507262
-1.4142825e-05
0.014520457
-1.3195217e-05
0.014532769
-1.2312062e-05
0.014544258
-1.1488851e-05
0.01455498
-1.072141e-05
0.014564985
-1.0005871e-05
0.014574324
-9.3386424e-06
0.01458304
-8.7163937e-06
0.014591177
-8.1360298e-06
0.014598771
-7.5946751e-06
0.014605861
-7.0896582e-06
0.01461248
-6.6184962e-06
0.014618658
-6.1788839e-06
0.014624427
-5.7686787e-06
0.014629813
-5.3858899e-06
0.014634842
-5.0286662e-06
0.014639537
-4.6952825e-06
0.014643921
-4.3841314e-06
0.014648015
-4.0937122e-06
0.014651838
-3.8226244e-06
0.014655407
-3.5695628e-06
0.014658741
-3.3333101e-06
0.014661853
-3.1127361e-06
0.01466476
-2.9067893e-06
0.014667475
-2.7144902e-06
0.01467001
-2.5349269e-06
0.014672377
-2.3672419e-06
0.014674587
-2.2106324e-06
0.014676652
-2.0643394e-06
0.014678579
-1.9276509e-06
0.014680379
-1.7998954e-06
0.01468206
-1.6804526e-06
0.014683628
-1.5687375e-06
0.014685093
-1.4642234e-06
0.014686459
-1.3663937e-06
0.014687733
-1.2748055e-06
0.014688922
-1.1889775e-06
0.014690031
-1.1085452e-06
0.014691063
-1.033029e-06
0.014692025
-9.6217685e-07
0.014692921
-8.9546858e-07
0.014693754
-8.3285885e-07
0.014694527
-7.7368165e-07
0.014695245
-7.182689e-07
0.014695911
-6.6555399e-07
0.014696527
-6.1657615e-07
0.014697096
-5.6934297e-07
0.014697622
-5.2630638e-07
0.014698106
-4.8351511e-07
0.014698552
-4.4630332e-07
0.014698959
-4.0675053e-07
0.014699335
-3.7590992e-07
0.014699673
-3.3811109e-07
0.014699988
-3.1518293e-07
0.014700265
-2.7710712e-07
0.01470053
-2.6475204e-07
-2.2710793e-07
0.010097182
-0.00016557515
0.010346961
-0.000448791
0.010662469
-0.00059798177
0.010982753
-0.00062895025
0.011290229
-0.00061621887
0.011575251
-0.00058378056
0.011829022
-0.0005347842
0.012047865
-0.00047583049
0.012233272
-0.00041592665
0.01238924
-0.00036111399
0.012520295
-0.00031361711
0.012630755
-0.00027346026
0.012724428
-0.00023989719
0.012804515
-0.00021199032
0.012873613
-0.00018877261
0.012933772
-0.00016933388
0.012986596
-0.00015289296
0.013033332
-0.00013881182
0.01307495
-0.00012659378
0.013112216
-0.00011586444
0.013145739
-0.00010634493
0.013176012
-9.7827002e-05
0.013203441
-9.0153372e-05
0.013228366
-8.3203379e-05
0.013251071
-7.6882625e-05
0.013271803
-7.1115566e-05
0.01329077
-6.5840288e-05
0.013308155
-6.1004896e-05
0.013324119
-5.6565052e-05
0.0133388
-5.2482321e-05
0.013352321
-4.8723017e-05
0.013364791
-4.5257388e-05
0.013376306
-4.2059003e-05
0.01338695
-3.9104285e-05
0.0133968
-3.6372133e-05
0.013405923
-3.3843611e-05
0.013414381
-3.1501684e-05
0.013422228
-2.9330996e-05
0.013429513
-2.7317672e-05
0.013436281
-2.5449149e-05
0.013442572
-2.3714028e-05
0.013448423
-2.2101943e-05
0.013453866
-2.0603457e-05
0.013458933
-1.9209956e-05
0.013463652
-1.7913574e-05
0.013468047
-1.670711e-05
0.013472142
-1.5583966e-05
0.013475959
-1.4538084e-05
0.013479517
-1.3563893e-05
0.013482834
-1.265626e-05
0.013485928
-1.1810449e-05
0.013488814
-1.1022085e-05
0.013491507
-1.0287123e-05
0.013494019
-9.601823e-06
0.013496363
-8.9627281e-06
0.013498551
-8.3666406e-06
0.013500593
-7.8106015e-06
0.013502499
-7.291871e-06
0.013504278
-6.8079034e-06
0.013505939
-6.356332e-06
0.01350749
-5.9349502e-06
0.013508938
-5.5416985e-06
0.01351029
-5.1746593e-06
0.013511552
-4.8320456e-06
0.013512731
-4.5122017e-06
0.013513832
-4.2135926e-06
0.01351486
-3.9347961e-06
0.01351582
-3.6744918e-06
0.013516717
-3.4314431e-06
0.013517554
-3.2044861e-06
0.013518336
-2.9925221e-06
0.013519066
-2.7945061e-06
0.013519748
-2.6094646e-06
0.013520384
-2.436476e-06
0.013520979
-2.2747056e-06
0.013521533
-2.1233652e-06
0.013522051
-1.9817553e-06
0.013522534
-1.8491865e-06
0.013522984
-1.7250598e-06
0.013523403
-1.6087201e-06
0.013523794
-1.4996558e-06
0.013524159
-1.3972077e-06
0.013524497
-1.3010105e-06
0.013524812
-1.210385e-06
0.013525105
-1.1252321e-06
0.013525376
-1.044756e-06
0.013525627
-9.692883e-07
0.013525859
-8.9762324e-07
0.013526073
-8.3083634e-07
0.01352627
-7.6673305e-07
0.013526452
-7.0787135e-07
0.013526618
-6.4999122e-07
0.013526771
-5.9874085e-07
0.01352691
-5.4562853e-07
0.013527036
-5.0261057e-07
0.013527151
-4.5257252e-07
0.013527256
-4.1996416e-07
0.013527349
-3.7060427e-07
0.013527437
-3.5257954e-07
-3.0170544e-07
0.010188704
-0.00035427932
0.010530487
-0.00079057335
0.010851453
-0.00091894821
0.011124174
-0.00090167137
0.011350581
-0.00084262624
0.011524486
-0.00075768559
0.01164633
-0.00065662744
0.011724155
-0.00055365586
0.011767999
-0.00045977083
0.011786639
-0.00037975353
0.011787114
-0.00031409258
0.011775058
-0.00026140426
0.011754861
-0.00021969949
0.011729768
-0.00018689787
0.011702054
-0.00016105803
0.011673239
-0.00014051895
0.011644339
-0.00012399296
0.011616003
-0.00011047599
0.011588629
-9.9219856e-05
0.011562446
-8.9681392e-05
0.011537572
-8.1470664e-05
0.011514052
-7.4307851e-05
0.01149189
-6.7990509e-05
0.011471056
-6.2370004e-05
0.011451509
-5.7335025e-05
0.011433193
-5.2800186e-05
0.011416051
-4.8698259e-05
0.011400021
-4.497494e-05
0.011385042
-4.1585375e-05
0.011371051
-3.8491836e-05
0.01135799
-3.5662152e-05
0.011345801
-3.3068617e-05
0.01133443
-3.0687183e-05
0.011323822
-2.8496861e-05
0.011313929
-2.6479248e-05
0.011304704
-2.4618143e-05
0.011296101
-2.2899235e-05
0.01128808
-2.1309833e-05
0.011280601
-1.9838647e-05
0.011273628
-1.8475599e-05
0.011267125
-1.7211661e-05
0.011261062
-1.6038724e-05
0.011255408
-1.4949482e-05
0.011250135
-1.3937336e-05
0.011245218
-1.2996313e-05
0.011240632
-1.212099e-05
0.011236355
-1.1306431e-05
0.011232365
-1.0548129e-05
0.011228643
-9.841957e-06
0.01122517
-9.1841259e-06
0.011221931
-8.5711491e-06
0.011218909
-7.9998154e-06
0.011216089
-7.4671658e-06
0.011213458
-6.9704743e-06
0.011211002
-6.5072303e-06
0.011208711
-6.0751193e-06
0.011206572
-5.6720045e-06
0.011204576
-5.2959058e-06
0.011202713
-4.9449819e-06
0.011200974
-4.617515e-06
0.011199351
-4.311899e-06
0.011197836
-4.026635e-06
0.011196422
-3.7603285e-06
0.011195101
-3.5116885e-06
0.011193869
-3.279526e-06
0.011192718
-3.0627451e-06
0.011191644
-2.8603327e-06
0.01119064
-2.6713424e-06
0.011189704
-2.4948789e-06
0.011188829
-2.3300883e-06
0.011188013
-2.1761553e-06
0.011187251
-2.0323069e-06
0.011186539
-1.8978246e-06
0.011185875
-1.7720461e-06
0.011185254
-1.6543783e-06
0.011184675
-1.5442737e-06
0.011184135
-1.4412406e-06
0.01118363
-1.3447888e-06
0.01118316
-1.2544696e-06
0.011182721
-1.1697936e-06
0.011182311
-1.0903503e-06
0.01118193
-1.0156588e-06
0.011181574
-9.4542621e-07
0.011181243
-8.7920883e-07
0.011180935
-8.1691658e-07
0.011180648
-7.5807274e-07
0.011180382
-7.0283759e-07
0.011180134
-6.5049602e-07
0.011179905
-6.0157893e-07
0.011179693
-5.5483059e-07
0.011179497
-5.1153918e-07
0.011179316
-4.6943617e-07
0.011179149
-4.3138251e-07
0.011178996
-3.9313315e-07
0.011178854
-3.6064935e-07
0.011178727
-3.2562144e-07
0.011178607
-3.0008938e-07
0.011178504
-2.6732456e-07
0.011178404
-2.522196e-07
-2.1802358e-07
0.010339525
-0.00069380425
0.010570754
-0.0010218027
0.010606301
-0.00095449449
0.010547572
-0.00084294334
0.010422317
-0.0007173708
0.010244356
-0.00057972443
0.010039421
-0.00045169204
0.0098287427
-0.000342978
0.009625135
-0.00025616317
0.0094353013
-0.00018991984
0.0092624277
-0.00014121898
0.0091075332
-0.0001065098
0.008970154
-8.2320225e-05
0.0088489023
-6.5646245e-05
0.0087419716
-5.412725e-05
0.0086474927
-4.604004e-05
0.008563694
-4.0194284e-05
0.0084890108
-3.579275e-05
0.0084221096
-3.2318758e-05
0.0083618775
-2.9449285e-05
0.0083073954
-2.6988583e-05
0.0082579079
-2.4820308e-05
0.0082127929
-2.2875485e-05
0.0081715353
-2.1112417e-05
0.0081337049
-1.950465e-05
0.0080989388
-1.8034009e-05
0.0080669272
-1.668672e-05
0.0080374037
-1.5451361e-05
0.0080101361
-1.4317865e-05
0.0079849214
-1.3277079e-05
0.0079615798
-1.2320601e-05
0.0079399519
-1.1440728e-05
0.0079198952
-1.0630436e-05
0.0079012817
-9.8833596e-06
0.0078839962
-9.19376e-06
0.0078679346
-8.5564831e-06
0.0078530022
-7.9669098e-06
0.0078391133
-7.4209026e-06
0.0078261894
-6.9147542e-06
0.0078141589
-6.4451388e-06
0.0078029563
-6.0090677e-06
0.0077925214
-5.603852e-06
0.007782799
-5.227066e-06
0.0077737382
-4.8765185e-06
0.0077652921
-4.5502236e-06
0.0077574176
-4.2463754e-06
0.0077500745
-3.9633259e-06
0.0077432259
-3.6995641e-06
0.0077368376
-3.453701e-06
0.0077308779
-3.2244564e-06
0.0077253174
-3.0106492e-06
0.0077201287
-2.8111924e-06
0.0077152867
-2.6250844e-06
0.0077107676
-2.4514058e-06
0.0077065498
-2.2893099e-06
0.0077026127
-2.1380154e-06
0.0076989375
-1.9967975e-06
0.0076955065
-1.8649779e-06
0.0076923034
-1.7419207e-06
0.0076893129
-1.6270277e-06
0.0076865207
-1.519738e-06
0.0076839136
-1.419532e-06
0.0076814792
-1.32593e-06
0.0076792061
-1.238495e-06
0.0076770834
-1.1568277e-06
0.0076751013
-1.0805595e-06
0.0076732503
-1.0093455e-06
0.0076715218
-9.4285339e-07
0.0076699076
-8.8076141e-07
0.0076684002
-8.2275777e-07
0.0076669925
-7.6854486e-07
0.007665678
-7.1784957e-07
0.0076644507
-6.7042563e-07
0.0076633047
-6.2605785e-07
0.007662235
-5.8455635e-07
0.0076612365
-5.457433e-07
0.0076603047
-5.0944902e-07
0.0076594354
-4.7549208e-07
0.0076586245
-4.4369427e-07
0.0076578685
-4.1386447e-07
0.0076571639
-3.8584167e-07
0.0076565077
-3.594601e-07
0.007655897
-3.34627e-07
0.007655329
-3.1121122e-07
0.0076548014
-2.8919903e-07
0.0076543118
-2.684361e-07
0.0076538579
-2.4897071e-07
0.0076534379
-2.3054023e-07
0.0076530495
-2.1329446e-07
0.0076526914
-1.9679455e-07
0.0076523614
-1.8143895e-07
0.0076520585
-1.6652645e-07
0.0076517802
-1.529353e-07
0.0076515267
-1.3951133e-07
0.0076512939
-1.2784619e-07
0.0076510842
-1.1599575e-07
0.0076508904
-1.0639039e-07
0.0076507195
-9.6374914e-08
0.0076505566
-8.9340377e-08
-8.5866018e-08
0.0093061957
0.0082843931
0.0073298986
0.0064869553
0.0057695845
0.00518986
0.004738168
0.00439519
0.0041390268
0.003949107
0.003807888
0.0037013782
0.003619058
0.0035534117
0.0034992845
0.0034532444
0.0034130501
0.0033772574
0.0033449386
0.0033154893
0.0032885008
0.0032636804
0.003240805
0.0032196926
0.0032001879
0.0031821539
0.0031654672
0.0031500158
0.0031356979
0.0031224209
0.0031101003
0.0030986595
0.0030880291
0.0030781458
0.003068952
0.0030603955
0.0030524286
0.0030450077
0.0030380929
0.0030316478
0.0030256387
0.0030200349
0.0030148078
0.0030099313
0.0030053811
0.0030011347
0.0029971714
0.0029934718
0.0029900181
0.0029867936
0.002983783
0.0029809718
0.0029783467
0.0029758953
0.002973606
0.002971468
0.0029694712
0.0029676062
0.0029658643
0.0029642372
0.0029627175
0.002961298
0.0029599721
0.0029587336
0.0029575768
0.0029564962
0.0029554869
0.002954544
0.0029536632
0.0029528404
0.0029520718
0.002951354
0.0029506836
0.0029500576
0.0029494731
0.0029489273
0.0029484179
0.0029479423
0.0029474986
0.0029470847
0.0029466989
0.0029463394
0.0029460049
0.0029456937
0.0029454045
0.0029451361
0.0029448871
0.0029446566
0.0029444432
0.0029442465
0.0029440651
0.0029438986
0.0029437457
0.0029436063
0.0029434784
0.0029433624
0.002943256
0.0029431596
0.0029430703
)
;

boundaryField
{
    top
    {
        type            calculated;
        value           uniform 0;
    }
    inlet
    {
        type            calculated;
        value           nonuniform List<scalar> 10(-0.01 -0.01 -0.01 -0.01 -0.01 -0.01 -0.01 -0.01 -0.01 -0.01);
    }
    outlet
    {
        type            calculated;
        value           nonuniform List<scalar> 10(0.0029429852 0.0076504258 0.011178321 0.013527511 0.014700757 0.014700757 0.013527511 0.01117832 0.0076504244 0.0029429844);
    }
    bottom
    {
        type            calculated;
        value           uniform 0;
    }
    back
    {
        type            empty;
        value           nonuniform List<scalar> 0();
    }
    front
    {
        type            empty;
        value           nonuniform List<scalar> 0();
    }
}


// ************************************************************************* //
