/*--------------------------------*- C++ -*----------------------------------*\
  =========                 |
  \\      /  F ield         | OpenFOAM: The Open Source CFD Toolbox
   \\    /   O peration     | Website:  https://openfoam.org
    \\  /    A nd           | Version:  9
     \\/     M anipulation  |
\*---------------------------------------------------------------------------*/
FoamFile
{
    format      ascii;
    class       volVectorField;
    location    "10";
    object      U;
}
// * * * * * * * * * * * * * * * * * * * * * * * * * * * * * * * * * * * * * //

dimensions      [0 1 -1 0 0 0 0];

internalField   nonuniform List<vector> 
1000
(
(0.91890839 0.035821913 0)
(0.86271384 0.062195638 0)
(0.7870597 0.06251009 0)
(0.69536033 0.054550395 0)
(0.61089745 0.044531651 0)
(0.54411592 0.034015971 0)
(0.49343012 0.024187539 0)
(0.45479413 0.016144229 0)
(0.42544582 0.010265785 0)
(0.40347313 0.0063041452 0)
(0.38715766 0.0037976296 0)
(0.3749622 0.0023103384 0)
(0.36566192 0.0014930151 0)
(0.35836272 0.0010851184 0)
(0.35244267 0.00090607236 0)
(0.34748201 0.00084105165 0)
(0.34320348 0.00082372396 0)
(0.33942726 0.0008193102 0)
(0.33603793 0.00081185183 0)
(0.33296114 0.00079580118 0)
(0.33014778 0.00077081158 0)
(0.32756384 0.00073870971 0)
(0.3251842 0.00070188955 0)
(0.32298902 0.00066256582 0)
(0.32096172 0.00062249959 0)
(0.31908785 0.00058295733 0)
(0.31735449 0.0005447714 0)
(0.31574996 0.00050843401 0)
(0.3142636 0.00047419157 0)
(0.31288574 0.00044212473 0)
(0.31160755 0.00041220969 0)
(0.31042101 0.00038436187 0)
(0.30931883 0.0003584651 0)
(0.30829438 0.00033439025 0)
(0.30734164 0.00031200643 0)
(0.30645515 0.00029118726 0)
(0.30562991 0.00027181397 0)
(0.30486136 0.00025377669 0)
(0.30414535 0.00023697457 0)
(0.30347807 0.00022131536 0)
(0.302856 0.00020671484 0)
(0.30227595 0.0001930961 0)
(0.30173496 0.00018038882 0)
(0.30123028 0.00016852863 0)
(0.30075941 0.00015745649 0)
(0.30032001 0.00014711809 0)
(0.29990993 0.0001374633 0)
(0.29952715 0.00012844576 0)
(0.29916983 0.00012002239 0)
(0.29883624 0.00011215317 0)
(0.29852478 0.00010480086 0)
(0.29823396 9.7930832e-05 0)
(0.2979624 9.1510972e-05 0)
(0.29770881 8.5511497e-05 0)
(0.297472 7.9904825e-05 0)
(0.29725083 7.4665375e-05 0)
(0.29704428 6.9769294e-05 0)
(0.29685137 6.5194265e-05 0)
(0.29667119 6.0919274e-05 0)
(0.2965029 5.6924476e-05 0)
(0.2963457 5.3191225e-05 0)
(0.29619887 4.9702021e-05 0)
(0.29606173 4.6440687e-05 0)
(0.29593362 4.3392318e-05 0)
(0.29581396 4.0543246e-05 0)
(0.2957022 3.7880887e-05 0)
(0.29559779 3.5393432e-05 0)
(0.29550027 3.3069644e-05 0)
(0.29540917 3.0898654e-05 0)
(0.29532407 2.886987e-05 0)
(0.29524458 2.6973225e-05 0)
(0.29517033 2.5199175e-05 0)
(0.29510098 2.3539159e-05 0)
(0.29503622 2.1985465e-05 0)
(0.29497574 2.0531359e-05 0)
(0.29491928 1.9170607e-05 0)
(0.29486657 1.7897386e-05 0)
(0.29481736 1.6705494e-05 0)
(0.29477144 1.5589047e-05 0)
(0.29472861 1.4541281e-05 0)
(0.29468866 1.3556889e-05 0)
(0.29465144 1.262965e-05 0)
(0.29461677 1.1756548e-05 0)
(0.29458451 1.0932536e-05 0)
(0.29455452 1.0157514e-05 0)
(0.29452667 9.4257134e-06 0)
(0.29450082 8.7395318e-06 0)
(0.29447688 8.0892328e-06 0)
(0.2944547 7.4810945e-06 0)
(0.29443423 6.8990283e-06 0)
(0.29441533 6.3578576e-06 0)
(0.29439797 5.8328662e-06 0)
(0.29438201 5.3538051e-06 0)
(0.29436742 4.8840993e-06 0)
(0.29435407 4.4718711e-06 0)
(0.29434186 4.0698662e-06 0)
(0.29433087 3.730641e-06 0)
(0.29432046 3.4377666e-06 0)
(0.294312 3.2007837e-06 0)
(0.29430085 3.2969504e-06 0)
(1.0016583 0.05381943 0)
(1.0359761 0.10128444 0)
(1.0597199 0.11073663 0)
(1.0628947 0.10592202 0)
(1.0515569 0.096228728 0)
(1.0340529 0.083934061 0)
(1.0142795 0.070327062 0)
(0.99360703 0.056981333 0)
(0.97292577 0.045107479 0)
(0.9531074 0.03523675 0)
(0.93479538 0.02740165 0)
(0.91829012 0.021387228 0)
(0.90362379 0.016884499 0)
(0.89068067 0.013569709 0)
(0.87928174 0.011147749 0)
(0.86923242 0.0093736589 0)
(0.86034423 0.008056928 0)
(0.85244667 0.007057127 0)
(0.84539241 0.0062752379 0)
(0.83905793 0.0056438282 0)
(0.83334126 0.0051180909 0)
(0.82815884 0.0046686724 0)
(0.82344212 0.0042764175 0)
(0.81913467 0.0039287388 0)
(0.81518961 0.0036172034 0)
(0.81156765 0.00333597 0)
(0.80823544 0.0030808035 0)
(0.8051644 0.0028484684 0)
(0.80232979 0.002636369 0)
(0.79970999 0.0024423385 0)
(0.79728597 0.0022645192 0)
(0.79504086 0.0021012905 0)
(0.79295963 0.0019512259 0)
(0.7910288 0.0018130634 0)
(0.78923627 0.0016856836 0)
(0.7875711 0.0015680923 0)
(0.78602338 0.0014594054 0)
(0.78458411 0.0013588357 0)
(0.78324511 0.0012656807 0)
(0.78199889 0.0011793125 0)
(0.7808386 0.0010991683 0)
(0.77975798 0.0010247425 0)
(0.77875127 0.00095557962 0)
(0.77781317 0.00089126845 0)
(0.7769388 0.0008314366 0)
(0.77612367 0.0007757459 0)
(0.77536362 0.00072388831 0)
(0.7746548 0.00067558238 0)
(0.77399367 0.00063057019 0)
(0.77337693 0.00058861481 0)
(0.77280152 0.00054949816 0)
(0.77226463 0.00051301934 0)
(0.77176362 0.00047899315 0)
(0.77129605 0.00044724885 0)
(0.77085965 0.00041762893 0)
(0.77045232 0.000389988 0)
(0.7700721 0.00036419145 0)
(0.76971715 0.00034011433 0)
(0.76938578 0.00031764025 0)
(0.76907642 0.00029666053 0)
(0.76878757 0.00027707364 0)
(0.76851788 0.00025878491 0)
(0.76826605 0.00024170634 0)
(0.76803091 0.0002257565 0)
(0.76781134 0.00021086021 0)
(0.76760631 0.00019694794 0)
(0.76741484 0.00018395501 0)
(0.76723605 0.00017182072 0)
(0.76706908 0.00016048756 0)
(0.76691315 0.00014990072 0)
(0.76676754 0.00014000819 0)
(0.76663157 0.00013076082 0)
(0.76650461 0.00012211316 0)
(0.76638606 0.00011402335 0)
(0.76627539 0.00010645369 0)
(0.76617209 9.9369114e-05 0)
(0.76607567 9.2737656e-05 0)
(0.76598571 8.6527289e-05 0)
(0.76590178 8.0708525e-05 0)
(0.76582352 7.5249561e-05 0)
(0.76575057 7.0124033e-05 0)
(0.76568261 6.5301846e-05 0)
(0.76561933 6.0764788e-05 0)
(0.76556047 5.6486002e-05 0)
(0.76550574 5.2459425e-05 0)
(0.76545496 4.865626e-05 0)
(0.76540782 4.5084006e-05 0)
(0.7653642 4.1700054e-05 0)
(0.76532379 3.8531807e-05 0)
(0.76528656 3.5508513e-05 0)
(0.76525214 3.2697555e-05 0)
(0.7652206 2.998003e-05 0)
(0.76519152 2.7500699e-05 0)
(0.76516499 2.5053476e-05 0)
(0.76514076 2.2920033e-05 0)
(0.76511842 2.0727436e-05 0)
(0.76509896 1.8999958e-05 0)
(0.76507921 1.7046506e-05 0)
(0.76506603 1.5898461e-05 0)
(0.76504426 1.4301849e-05 0)
(1.0014244 0.026824855 0)
(1.0291272 0.062791352 0)
(1.0654292 0.077736553 0)
(1.098962 0.0805972 0)
(1.1253149 0.078285171 0)
(1.145053 0.0731539 0)
(1.1594858 0.066111278 0)
(1.1694287 0.058162063 0)
(1.1755354 0.050296754 0)
(1.1785738 0.043150708 0)
(1.1793571 0.036972825 0)
(1.1785949 0.031771632 0)
(1.1768304 0.02745184 0)
(1.1744518 0.023886768 0)
(1.1717287 0.02094762 0)
(1.1688444 0.018515781 0)
(1.1659195 0.016488085 0)
(1.1630317 0.014779502 0)
(1.1602295 0.013322984 0)
(1.1575415 0.012067132 0)
(1.1549828 0.010973001 0)
(1.1525601 0.010011062 0)
(1.1502747 0.0091587474 0)
(1.1481246 0.0083986049 0)
(1.1461059 0.0077169509 0)
(1.1442134 0.0071028881 0)
(1.1424414 0.0065475914 0)
(1.1407838 0.0060437947 0)
(1.1392344 0.0055854256 0)
(1.1377869 0.0051673445 0)
(1.1364353 0.0047851575 0)
(1.1351738 0.0044350773 0)
(1.1339968 0.0041138181 0)
(1.1328987 0.0038185142 0)
(1.1318746 0.003546654 0)
(1.1309195 0.0032960276 0)
(1.1300289 0.0030646831 0)
(1.1291985 0.0028508904 0)
(1.1284242 0.0026531102 0)
(1.1277022 0.0024699689 0)
(1.1270291 0.0023002366 0)
(1.1264014 0.0021428086 0)
(1.1258161 0.0019966901 0)
(1.1252702 0.0018609827 0)
(1.1247612 0.0017348728 0)
(1.1242865 0.0016176221 0)
(1.1238437 0.0015085586 0)
(1.1234307 0.0014070691 0)
(1.1230455 0.0013125929 0)
(1.1226861 0.0012246161 0)
(1.1223509 0.0011426667 0)
(1.1220381 0.0010663106 0)
(1.1217462 0.00099514818 0)
(1.1214739 0.00092881135 0)
(1.1212198 0.0008669607 0)
(1.1209827 0.00080928302 0)
(1.1207614 0.00075548895 0)
(1.1205548 0.0007053106 0)
(1.120362 0.00065849943 0)
(1.1201821 0.0006148245 0)
(1.1200142 0.00057407083 0)
(1.1198574 0.00053603843 0)
(1.119711 0.00050054135 0)
(1.1195744 0.000467407 0)
(1.1194469 0.0004364755 0)
(1.1193278 0.00040759856 0)
(1.1192167 0.00038063853 0)
(1.1191129 0.00035546696 0)
(1.119016 0.00033196346 0)
(1.1189255 0.00031001459 0)
(1.118841 0.00028951342 0)
(1.1187622 0.00027035905 0)
(1.1186885 0.00025245747 0)
(1.1186198 0.00023572069 0)
(1.1185556 0.00022006847 0)
(1.1184957 0.00020542528 0)
(1.1184398 0.00019172286 0)
(1.1183876 0.00017889417 0)
(1.1183389 0.00016687922 0)
(1.1182934 0.00015561461 0)
(1.118251 0.00014504852 0)
(1.1182116 0.00013511971 0)
(1.1181747 0.00012579071 0)
(1.1181404 0.00011700157 0)
(1.1181085 0.00010873817 0)
(1.1180788 0.00010093263 0)
(1.1180511 9.3604785e-05 0)
(1.1180256 8.6654919e-05 0)
(1.1180017 8.016008e-05 0)
(1.1179798 7.3945424e-05 0)
(1.1179592 6.8203337e-05 0)
(1.1179406 6.2602944e-05 0)
(1.117923 5.757745e-05 0)
(1.1179072 5.2470561e-05 0)
(1.1178924 4.8211708e-05 0)
(1.1178789 4.3459192e-05 0)
(1.117867 4.0153383e-05 0)
(1.1178547 3.5542907e-05 0)
(1.117847 3.3586347e-05 0)
(1.1178332 2.8851789e-05 0)
(1.0007347 0.011814722 0)
(1.0178472 0.030860927 0)
(1.0462163 0.041434441 0)
(1.0799018 0.04519357 0)
(1.1132664 0.045502351 0)
(1.143782 0.044080308 0)
(1.1708941 0.041439982 0)
(1.1945687 0.037973678 0)
(1.2148582 0.034195729 0)
(1.2319652 0.030536887 0)
(1.2462683 0.027222045 0)
(1.2582339 0.024313921 0)
(1.2683135 0.021797888 0)
(1.2768875 0.01963366 0)
(1.2842554 0.017773827 0)
(1.2906479 0.016169652 0)
(1.296243 0.01477559 0)
(1.3011791 0.013552297 0)
(1.3055645 0.012467863 0)
(1.3094838 0.011497466 0)
(1.3130042 0.010622162 0)
(1.3161792 0.0098275136 0)
(1.3190526 0.0091024116 0)
(1.3216607 0.0084381774 0)
(1.3240343 0.0078279044 0)
(1.3261995 0.0072659746 0)
(1.3281786 0.0067477085 0)
(1.3299913 0.0062691164 0)
(1.3316544 0.0058267271 0)
(1.3331829 0.0054174733 0)
(1.3345896 0.0050386128 0)
(1.3358862 0.0046876747 0)
(1.3370827 0.0043624208 0)
(1.3381882 0.004060816 0)
(1.3392108 0.0037810055 0)
(1.3401576 0.0035212959 0)
(1.3410349 0.003280139 0)
(1.3418486 0.0030561177 0)
(1.3426038 0.0028479342 0)
(1.3433051 0.0026543981 0)
(1.3439569 0.0024744171 0)
(1.3445629 0.0023069879 0)
(1.3451267 0.0021511882 0)
(1.3456513 0.0020061695 0)
(1.3461398 0.0018711507 0)
(1.3465947 0.001745412 0)
(1.3470185 0.0016282896 0)
(1.3474135 0.0015191707 0)
(1.3477816 0.0014174892 0)
(1.3481248 0.0013227213 0)
(1.3484449 0.0012343822 0)
(1.3487435 0.0011520229 0)
(1.349022 0.0010752273 0)
(1.3492818 0.00100361 0)
(1.3495242 0.00093681353 0)
(1.3497505 0.00087450669 0)
(1.3499616 0.00081638215 0)
(1.3501587 0.00076215452 0)
(1.3503427 0.0007115585 0)
(1.3505145 0.00066434714 0)
(1.3506748 0.00062029038 0)
(1.3508245 0.00057917397 0)
(1.3509643 0.00054079832 0)
(1.3510948 0.00050497782 0)
(1.3512167 0.00047153997 0)
(1.3513305 0.00044032443 0)
(1.3514368 0.00041118215 0)
(1.3515361 0.00038397401 0)
(1.3516288 0.00035857007 0)
(1.3517153 0.00033484817 0)
(1.3517961 0.00031269368 0)
(1.3518716 0.0002919986 0)
(1.3519421 0.00027266213 0)
(1.3520079 0.00025458961 0)
(1.3520694 0.00023769416 0)
(1.3521268 0.00022189347 0)
(1.3521803 0.00020711344 0)
(1.3522302 0.00019328078 0)
(1.3522768 0.0001803318 0)
(1.3523203 0.00016819778 0)
(1.3523607 0.00015682556 0)
(1.3523985 0.00014614752 0)
(1.3524335 0.00013612712 0)
(1.3524662 0.00012669303 0)
(1.3524965 0.00011783719 0)
(1.3525247 0.00010947037 0)
(1.3525507 0.00010163291 0)
(1.352575 9.4184106e-05 0)
(1.352597 8.7253908e-05 0)
(1.3526179 8.0583414e-05 0)
(1.3526364 7.4483507e-05 0)
(1.3526544 6.8446588e-05 0)
(1.3526695 6.3153183e-05 0)
(1.3526851 5.7589954e-05 0)
(1.3526969 5.3169816e-05 0)
(1.3527109 4.7887665e-05 0)
(1.3527193 4.4540624e-05 0)
(1.3527326 3.9280384e-05 0)
(1.3527371 3.7363534e-05 0)
(1.3527512 3.1796597e-05 0)
(1.0005903 0.0034629159 0)
(1.0136865 0.0093660197 0)
(1.0370283 0.013046806 0)
(1.0674202 0.014563261 0)
(1.1000315 0.014854525 0)
(1.1316428 0.014564991 0)
(1.1610745 0.013888338 0)
(1.1880674 0.012919245 0)
(1.2125205 0.011806506 0)
(1.2343939 0.010696427 0)
(1.2538077 0.0096727422 0)
(1.2710339 0.0087628223 0)
(1.286401 0.0079659739 0)
(1.3002112 0.0072722148 0)
(1.3127102 0.0066688086 0)
(1.3240903 0.0061419252 0)
(1.3345036 0.005678072 0)
(1.3440716 0.0052653208 0)
(1.3528927 0.004893935 0)
(1.3610463 0.0045563959 0)
(1.3685975 0.00424707 0)
(1.3756004 0.0039617763 0)
(1.3821012 0.0036973981 0)
(1.3881402 0.003451583 0)
(1.3937533 0.0032225188 0)
(1.3989728 0.0030087699 0)
(1.403828 0.0028091579 0)
(1.4083456 0.0026226791 0)
(1.4125503 0.0024484496 0)
(1.4164646 0.0022856709 0)
(1.4201094 0.0021336079 0)
(1.423504 0.0019915769 0)
(1.426666 0.0018589372 0)
(1.4296121 0.001735087 0)
(1.4323573 0.0016194597 0)
(1.4349159 0.0015115225 0)
(1.4373007 0.001410774 0)
(1.4395241 0.0013167429 0)
(1.441597 0.0012289872 0)
(1.4435301 0.0011470918 0)
(1.4453328 0.001070668 0)
(1.4470143 0.00099935179 0)
(1.4485827 0.00093280268 0)
(1.4500459 0.00087070233 0)
(1.451411 0.00081275327 0)
(1.4526846 0.00075867773 0)
(1.4538731 0.00070821632 0)
(1.4549822 0.00066112686 0)
(1.4560172 0.0006171833 0)
(1.4569831 0.00057617453 0)
(1.4578847 0.00053790355 0)
(1.4587262 0.0005021865 0)
(1.4595117 0.00046885187 0)
(1.460245 0.0004377398 0)
(1.4609295 0.00040870122 0)
(1.4615685 0.00038159727 0)
(1.4621651 0.00035629847 0)
(1.4627221 0.00033268407 0)
(1.4632422 0.00031064139 0)
(1.4637278 0.00029006514 0)
(1.4641812 0.00027085708 0)
(1.4646045 0.00025292544 0)
(1.4649998 0.00023618462 0)
(1.4653689 0.00022055492 0)
(1.4657136 0.00020596203 0)
(1.4660355 0.00019233679 0)
(1.4663361 0.00017961473 0)
(1.4666168 0.00016773557 0)
(1.466879 0.00015664292 0)
(1.4671238 0.0001462837 0)
(1.4673523 0.00013660819 0)
(1.4675658 0.00012756956 0)
(1.4677652 0.00011912425 0)
(1.4679513 0.00011123129 0)
(1.4681251 0.00010385308 0)
(1.4682873 9.6953778e-05 0)
(1.4684388 9.050129e-05 0)
(1.4685801 8.4463331e-05 0)
(1.468712 7.8812528e-05 0)
(1.4688351 7.3518328e-05 0)
(1.4689497 6.8558522e-05 0)
(1.4690567 6.3902611e-05 0)
(1.4691563 5.9536498e-05 0)
(1.4692491 5.5426662e-05 0)
(1.4693353 5.1573148e-05 0)
(1.4694157 4.7931333e-05 0)
(1.46949 4.4526473e-05 0)
(1.4695594 4.1285159e-05 0)
(1.469623 3.8280501e-05 0)
(1.4696827 3.5375651e-05 0)
(1.4697366 3.2739203e-05 0)
(1.4697882 3.0104049e-05 0)
(1.469833 2.7828212e-05 0)
(1.4698778 2.5388196e-05 0)
(1.4699138 2.3503274e-05 0)
(1.4699538 2.1169863e-05 0)
(1.4699803 1.9758537e-05 0)
(1.4700185 1.741893e-05 0)
(1.4700335 1.6623607e-05 0)
(1.4700749 1.4131693e-05 0)
(1.0005903 -0.0034629159 0)
(1.0136865 -0.0093660197 0)
(1.0370283 -0.013046806 0)
(1.0674202 -0.014563261 0)
(1.1000315 -0.014854525 0)
(1.1316428 -0.014564991 0)
(1.1610745 -0.013888338 0)
(1.1880674 -0.012919245 0)
(1.2125205 -0.011806506 0)
(1.2343939 -0.010696427 0)
(1.2538077 -0.0096727419 0)
(1.2710339 -0.0087628221 0)
(1.286401 -0.0079659738 0)
(1.3002112 -0.0072722149 0)
(1.3127102 -0.0066688089 0)
(1.3240903 -0.0061419255 0)
(1.3345036 -0.0056780721 0)
(1.3440716 -0.0052653207 0)
(1.3528927 -0.0048939346 0)
(1.3610463 -0.0045563953 0)
(1.3685975 -0.0042470694 0)
(1.3756004 -0.0039617757 0)
(1.3821012 -0.0036973977 0)
(1.3881402 -0.0034515828 0)
(1.3937533 -0.0032225189 0)
(1.3989728 -0.0030087699 0)
(1.403828 -0.0028091577 0)
(1.4083456 -0.0026226785 0)
(1.4125503 -0.0024484487 0)
(1.4164646 -0.0022856696 0)
(1.4201094 -0.0021336064 0)
(1.423504 -0.0019915753 0)
(1.426666 -0.0018589357 0)
(1.4296121 -0.0017350856 0)
(1.4323573 -0.0016194585 0)
(1.4349159 -0.0015115212 0)
(1.4373007 -0.0014107724 0)
(1.4395241 -0.0013167409 0)
(1.441597 -0.0012289846 0)
(1.4435301 -0.0011470886 0)
(1.4453328 -0.0010706643 0)
(1.4470143 -0.00099934792 0)
(1.4485827 -0.00093279872 0)
(1.4500459 -0.00087069836 0)
(1.451411 -0.00081274923 0)
(1.4526846 -0.00075867342 0)
(1.4538731 -0.00070821153 0)
(1.4549822 -0.00066112136 0)
(1.4560172 -0.00061717702 0)
(1.4569831 -0.00057616755 0)
(1.4578847 -0.00053789606 0)
(1.4587262 -0.00050217884 0)
(1.4595117 -0.00046884426 0)
(1.460245 -0.00043773236 0)
(1.4609295 -0.00040869388 0)
(1.4615685 -0.00038158977 0)
(1.4621651 -0.00035629055 0)
(1.4627222 -0.00033267548 0)
(1.4632422 -0.00031063215 0)
(1.4637278 -0.00029005556 0)
(1.4641812 -0.0002708476 0)
(1.4646045 -0.00025291672 0)
(1.4649998 -0.00023617708 0)
(1.465369 -0.0002205488 0)
(1.4657137 -0.00020595723 0)
(1.4660356 -0.00019233293 0)
(1.4663361 -0.00017961147 0)
(1.4666169 -0.00016773256 0)
(1.466879 -0.00015664029 0)
(1.4671238 -0.00014628197 0)
(1.4673524 -0.00013660814 0)
(1.4675658 -0.00012757223 0)
(1.4677652 -0.00011913019 0)
(1.4679513 -0.00011124079 0)
(1.4681251 -0.00010386585 0)
(1.4682874 -9.6969206e-05 0)
(1.4684388 -9.0518653e-05 0)
(1.4685802 -8.4482151e-05 0)
(1.468712 -7.8832577e-05 0)
(1.4688351 -7.3540072e-05 0)
(1.4689498 -6.8582234e-05 0)
(1.4690567 -6.3929016e-05 0)
(1.4691563 -5.9565442e-05 0)
(1.4692491 -5.5457957e-05 0)
(1.4693353 -5.1605734e-05 0)
(1.4694157 -4.7964258e-05 0)
(1.46949 -4.4558437e-05 0)
(1.4695594 -4.1315585e-05 0)
(1.469623 -3.830861e-05 0)
(1.4696827 -3.5401544e-05 0)
(1.4697366 -3.2762355e-05 0)
(1.4697882 -3.0124194e-05 0)
(1.469833 -2.7844729e-05 0)
(1.4698778 -2.5399612e-05 0)
(1.4699138 -2.3509529e-05 0)
(1.4699538 -2.1167514e-05 0)
(1.4699803 -1.9749243e-05 0)
(1.4700185 -1.7396929e-05 0)
(1.4700335 -1.6582059e-05 0)
(1.4700749 -1.4093319e-05 0)
(1.0007347 -0.011814722 0)
(1.0178472 -0.030860927 0)
(1.0462163 -0.041434441 0)
(1.0799018 -0.04519357 0)
(1.1132664 -0.045502351 0)
(1.143782 -0.044080308 0)
(1.1708941 -0.041439982 0)
(1.1945687 -0.037973677 0)
(1.2148582 -0.034195729 0)
(1.2319652 -0.030536886 0)
(1.2462683 -0.027222045 0)
(1.2582339 -0.024313921 0)
(1.2683135 -0.021797889 0)
(1.2768875 -0.01963366 0)
(1.2842554 -0.017773827 0)
(1.2906479 -0.016169652 0)
(1.296243 -0.01477559 0)
(1.3011791 -0.013552297 0)
(1.3055645 -0.012467863 0)
(1.3094838 -0.011497465 0)
(1.3130042 -0.010622161 0)
(1.3161792 -0.0098275132 0)
(1.3190526 -0.0091024115 0)
(1.3216607 -0.0084381775 0)
(1.3240343 -0.0078279044 0)
(1.3261995 -0.0072659746 0)
(1.3281786 -0.0067477082 0)
(1.3299913 -0.0062691157 0)
(1.3316544 -0.0058267261 0)
(1.3331829 -0.005417472 0)
(1.3345896 -0.0050386114 0)
(1.3358862 -0.0046876734 0)
(1.3370827 -0.0043624197 0)
(1.3381882 -0.0040608151 0)
(1.3392108 -0.0037810047 0)
(1.3401576 -0.0035212949 0)
(1.3410349 -0.0032801375 0)
(1.3418486 -0.0030561157 0)
(1.3426038 -0.0028479316 0)
(1.3433051 -0.0026543951 0)
(1.3439569 -0.0024744139 0)
(1.3445629 -0.0023069848 0)
(1.3451267 -0.0021511852 0)
(1.3456513 -0.0020061665 0)
(1.3461398 -0.0018711475 0)
(1.3465947 -0.0017454084 0)
(1.3470185 -0.0016282853 0)
(1.3474135 -0.0015191657 0)
(1.3477816 -0.0014174835 0)
(1.3481249 -0.0013227151 0)
(1.3484449 -0.0012343758 0)
(1.3487435 -0.0011520166 0)
(1.349022 -0.0010752214 0)
(1.3492818 -0.0010036042 0)
(1.3495242 -0.00093680775 0)
(1.3497505 -0.00087450055 0)
(1.3499617 -0.00081637532 0)
(1.3501588 -0.00076214695 0)
(1.3503427 -0.0007115504 0)
(1.3505145 -0.00066433894 0)
(1.3506748 -0.00062028278 0)
(1.3508246 -0.00057916743 0)
(1.3509643 -0.00054079317 0)
(1.3510949 -0.00050497398 0)
(1.3512168 -0.00047153699 0)
(1.3513306 -0.00044032184 0)
(1.3514369 -0.0004111795 0)
(1.3515361 -0.00038397135 0)
(1.3516288 -0.00035856789 0)
(1.3517154 -0.00033484724 0)
(1.3517962 -0.00031269503 0)
(1.3518717 -0.00029200282 0)
(1.3519422 -0.00027266961 0)
(1.352008 -0.00025460005 0)
(1.3520694 -0.00023770689 0)
(1.3521268 -0.00022190772 0)
(1.3521803 -0.0002071286 0)
(1.3522303 -0.00019329666 0)
(1.3522769 -0.00018034885 0)
(1.3523203 -0.00016821647 0)
(1.3523608 -0.00015684681 0)
(1.3523985 -0.00014617144 0)
(1.3524336 -0.00013615363 0)
(1.3524662 -0.00012672115 0)
(1.3524965 -0.00011786577 0)
(1.3525247 -0.0001094981 0)
(1.3525507 -0.00010165903 0)
(1.352575 -9.4208063e-05 0)
(1.352597 -8.7276096e-05 0)
(1.3526179 -8.060379e-05 0)
(1.3526363 -7.4502452e-05 0)
(1.3526543 -6.8463486e-05 0)
(1.3526694 -6.3167387e-05 0)
(1.3526851 -5.7600131e-05 0)
(1.3526969 -5.3175243e-05 0)
(1.3527108 -4.7886965e-05 0)
(1.3527192 -4.4534338e-05 0)
(1.3527325 -3.9268565e-05 0)
(1.3527371 -3.7346968e-05 0)
(1.3527512 -3.1779547e-05 0)
(1.0014244 -0.026824855 0)
(1.0291272 -0.062791352 0)
(1.0654292 -0.077736553 0)
(1.098962 -0.0805972 0)
(1.1253149 -0.078285171 0)
(1.145053 -0.0731539 0)
(1.1594858 -0.066111278 0)
(1.1694287 -0.058162063 0)
(1.1755354 -0.050296753 0)
(1.1785738 -0.043150708 0)
(1.1793571 -0.036972825 0)
(1.1785949 -0.031771632 0)
(1.1768304 -0.02745184 0)
(1.1744518 -0.023886769 0)
(1.1717287 -0.02094762 0)
(1.1688444 -0.018515781 0)
(1.1659195 -0.016488084 0)
(1.1630317 -0.014779502 0)
(1.1602295 -0.013322984 0)
(1.1575415 -0.012067132 0)
(1.1549828 -0.010973 0)
(1.1525601 -0.010011062 0)
(1.1502747 -0.0091587476 0)
(1.1481246 -0.0083986051 0)
(1.1461059 -0.007716951 0)
(1.1442134 -0.0071028879 0)
(1.1424414 -0.0065475908 0)
(1.1407838 -0.0060437938 0)
(1.1392344 -0.0055854245 0)
(1.1377869 -0.0051673435 0)
(1.1364353 -0.0047851567 0)
(1.1351738 -0.0044350767 0)
(1.1339968 -0.0041138179 0)
(1.1328987 -0.0038185139 0)
(1.1318746 -0.0035466535 0)
(1.1309195 -0.0032960267 0)
(1.1300289 -0.0030646817 0)
(1.1291985 -0.0028508884 0)
(1.1284242 -0.0026531079 0)
(1.1277022 -0.0024699666 0)
(1.1270291 -0.0023002345 0)
(1.1264014 -0.0021428068 0)
(1.1258161 -0.0019966886 0)
(1.1252702 -0.0018609812 0)
(1.1247612 -0.001734871 0)
(1.1242865 -0.0016176196 0)
(1.1238437 -0.0015085552 0)
(1.1234308 -0.001407065 0)
(1.1230455 -0.0013125884 0)
(1.1226861 -0.0012246116 0)
(1.1223509 -0.0011426626 0)
(1.1220381 -0.001066307 0)
(1.1217462 -0.00099514509 0)
(1.1214739 -0.00092880836 0)
(1.1212198 -0.00086695736 0)
(1.1209827 -0.00080927896 0)
(1.1207614 -0.00075548398 0)
(1.1205548 -0.00070530496 0)
(1.1203621 -0.00065849361 0)
(1.1201821 -0.00061481917 0)
(1.1200142 -0.00057406665 0)
(1.1198574 -0.00053603564 0)
(1.1197111 -0.00050053989 0)
(1.1195745 -0.00046740631 0)
(1.1194469 -0.00043647486 0)
(1.1193279 -0.00040759742 0)
(1.1192167 -0.00038063671 0)
(1.1191129 -0.00035546499 0)
(1.119016 -0.00033196226 0)
(1.1189255 -0.00031001523 0)
(1.1188411 -0.00028951677 0)
(1.1187622 -0.00027036527 0)
(1.1186886 -0.00025246625 0)
(1.1186198 -0.00023573109 0)
(1.1185557 -0.00022007946 0)
(1.1184957 -0.00020543611 0)
(1.1184398 -0.00019173335 0)
(1.1183876 -0.00017890474 0)
(1.1183389 -0.00016689093 0)
(1.1182934 -0.00015562832 0)
(1.1182511 -0.00014506512 0)
(1.1182115 -0.00013513891 0)
(1.1181747 -0.0001258119 0)
(1.1181404 -0.00011702315 0)
(1.1181084 -0.00010875882 0)
(1.1180788 -0.0001009511 0)
(1.1180511 -9.3620952e-05 0)
(1.1180255 -8.6668972e-05 0)
(1.1180016 -8.0173294e-05 0)
(1.1179797 -7.395826e-05 0)
(1.1179591 -6.8216454e-05 0)
(1.1179405 -6.261542e-05 0)
(1.1179229 -5.7588378e-05 0)
(1.1179071 -5.2478288e-05 0)
(1.1178923 -4.8216061e-05 0)
(1.1178788 -4.3460273e-05 0)
(1.1178669 -4.0152865e-05 0)
(1.1178546 -3.5542248e-05 0)
(1.1178469 -3.3593977e-05 0)
(1.1178331 -2.8854753e-05 0)
(1.0016583 -0.05381943 0)
(1.0359761 -0.10128444 0)
(1.0597199 -0.11073663 0)
(1.0628947 -0.10592202 0)
(1.0515569 -0.096228728 0)
(1.0340529 -0.083934061 0)
(1.0142795 -0.070327062 0)
(0.99360703 -0.056981333 0)
(0.97292577 -0.045107479 0)
(0.9531074 -0.03523675 0)
(0.93479538 -0.02740165 0)
(0.91829012 -0.021387228 0)
(0.90362379 -0.0168845 0)
(0.89068067 -0.013569709 0)
(0.87928174 -0.011147749 0)
(0.86923242 -0.0093736586 0)
(0.86034423 -0.0080569276 0)
(0.85244667 -0.0070571267 0)
(0.84539241 -0.0062752377 0)
(0.83905793 -0.0056438283 0)
(0.83334126 -0.0051180911 0)
(0.82815884 -0.0046686727 0)
(0.82344212 -0.0042764178 0)
(0.81913467 -0.0039287389 0)
(0.81518962 -0.0036172032 0)
(0.81156765 -0.0033359695 0)
(0.80823544 -0.0030808028 0)
(0.8051644 -0.0028484677 0)
(0.80232979 -0.0026363685 0)
(0.79970999 -0.0024423383 0)
(0.79728597 -0.0022645193 0)
(0.79504086 -0.0021012907 0)
(0.79295963 -0.0019512261 0)
(0.79102881 -0.0018130633 0)
(0.78923627 -0.0016856831 0)
(0.7875711 -0.0015680913 0)
(0.78602338 -0.0014594042 0)
(0.78458412 -0.0013588343 0)
(0.78324512 -0.0012656796 0)
(0.78199889 -0.0011793117 0)
(0.78083861 -0.0010991679 0)
(0.77975799 -0.0010247424 0)
(0.77875128 -0.00095557949 0)
(0.77781318 -0.00089126797 0)
(0.77693882 -0.00083143554 0)
(0.77612368 -0.00077574417 0)
(0.77536363 -0.00072388611 0)
(0.77465482 -0.00067558005 0)
(0.77399369 -0.00063056812 0)
(0.77337695 -0.00058861331 0)
(0.77280154 -0.00054949727 0)
(0.77226465 -0.00051301887 0)
(0.77176364 -0.00047899267 0)
(0.77129607 -0.0004472479 0)
(0.77085968 -0.00041762724 0)
(0.77045235 -0.00038998551 0)
(0.77007213 -0.00036418849 0)
(0.76971719 -0.00034011142 0)
(0.76938582 -0.00031763797 0)
(0.76907646 -0.00029665934 0)
(0.76878761 -0.00027707357 0)
(0.76851792 -0.00025878568 0)
(0.7682661 -0.0002417073 0)
(0.76803096 -0.000225757 0)
(0.76781139 -0.00021085982 0)
(0.76760636 -0.00019694663 0)
(0.76741489 -0.00018395336 0)
(0.76723609 -0.00017181962 0)
(0.76706912 -0.00016048791 0)
(0.7669132 -0.00014990314 0)
(0.76676759 -0.00014001251 0)
(0.76663162 -0.00013076646 0)
(0.76650465 -0.00012211904 0)
(0.7663861 -0.00011402856 0)
(0.76627542 -0.00010645774 0)
(0.76617211 -9.9372171e-05 0)
(0.76607569 -9.2740475e-05 0)
(0.76598571 -8.6530965e-05 0)
(0.76590178 -8.0713828e-05 0)
(0.76582351 -7.5257058e-05 0)
(0.76575055 -7.0133196e-05 0)
(0.76568258 -6.5311947e-05 0)
(0.76561929 -6.0774449e-05 0)
(0.76556042 -5.6494288e-05 0)
(0.76550568 -5.2465737e-05 0)
(0.76545488 -4.8660887e-05 0)
(0.76540773 -4.5087634e-05 0)
(0.76536411 -4.1703944e-05 0)
(0.76532369 -3.8536501e-05 0)
(0.76528645 -3.5514422e-05 0)
(0.76525203 -3.2703775e-05 0)
(0.76522048 -2.9985646e-05 0)
(0.76519139 -2.7504576e-05 0)
(0.76516486 -2.5055501e-05 0)
(0.76514062 -2.292124e-05 0)
(0.76511828 -2.0728781e-05 0)
(0.76509882 -1.9002387e-05 0)
(0.76507908 -1.7051297e-05 0)
(0.76506589 -1.5910635e-05 0)
(0.76504412 -1.4310206e-05 0)
(0.91890839 -0.035821913 0)
(0.86271384 -0.062195638 0)
(0.7870597 -0.06251009 0)
(0.69536033 -0.054550395 0)
(0.61089745 -0.044531651 0)
(0.54411592 -0.034015971 0)
(0.49343012 -0.024187539 0)
(0.45479413 -0.016144229 0)
(0.42544582 -0.010265785 0)
(0.40347313 -0.0063041453 0)
(0.38715766 -0.0037976297 0)
(0.3749622 -0.0023103386 0)
(0.36566192 -0.0014930152 0)
(0.35836272 -0.0010851183 0)
(0.35244267 -0.0009060722 0)
(0.34748201 -0.00084105143 0)
(0.34320348 -0.00082372376 0)
(0.33942726 -0.00081931009 0)
(0.33603793 -0.00081185186 0)
(0.33296114 -0.00079580135 0)
(0.33014778 -0.00077081181 0)
(0.32756384 -0.00073870992 0)
(0.3251842 -0.00070188963 0)
(0.32298902 -0.00066256573 0)
(0.32096172 -0.00062249934 0)
(0.31908785 -0.00058295699 0)
(0.31735449 -0.00054477109 0)
(0.31574996 -0.00050843383 0)
(0.31426361 -0.00047419158 0)
(0.31288574 -0.00044212492 0)
(0.31160755 -0.00041220997 0)
(0.31042101 -0.00038436212 0)
(0.30931883 -0.00035846519 0)
(0.30829438 -0.00033439011 0)
(0.30734165 -0.00031200607 0)
(0.30645515 -0.00029118677 0)
(0.30562991 -0.0002718135 0)
(0.30486137 -0.00025377638 0)
(0.30414536 -0.0002369745 0)
(0.30347807 -0.00022131553 0)
(0.30285601 -0.00020671516 0)
(0.30227596 -0.0001930964 0)
(0.30173496 -0.00018038892 0)
(0.30123029 -0.00016852843 0)
(0.30075942 -0.00015745598 0)
(0.30032002 -0.00014711737 0)
(0.29990994 -0.00013746258 0)
(0.29952716 -0.00012844524 0)
(0.29916984 -0.00012002222 0)
(0.29883625 -0.00011215338 0)
(0.29852479 -0.0001048013 0)
(0.29823397 -9.7931275e-05 0)
(0.29796241 -9.1511136e-05 0)
(0.29770882 -8.5511224e-05 0)
(0.29747201 -7.9904109e-05 0)
(0.29725085 -7.4664389e-05 0)
(0.2970443 -6.9768369e-05 0)
(0.29685139 -6.5193714e-05 0)
(0.29667121 -6.091931e-05 0)
(0.29650291 -5.6925114e-05 0)
(0.29634572 -5.3192203e-05 0)
(0.29619889 -4.9702995e-05 0)
(0.29606174 -4.6441232e-05 0)
(0.29593364 -4.3392211e-05 0)
(0.29581398 -4.0542518e-05 0)
(0.29570222 -3.7879831e-05 0)
(0.29559782 -3.5392576e-05 0)
(0.29550029 -3.3069458e-05 0)
(0.29540919 -3.08994e-05 0)
(0.29532409 -2.8871492e-05 0)
(0.29524459 -2.6975225e-05 0)
(0.29517034 -2.5200998e-05 0)
(0.29510099 -2.3540188e-05 0)
(0.29503622 -2.1985505e-05 0)
(0.29497575 -2.0530582e-05 0)
(0.29491929 -1.9169567e-05 0)
(0.29486657 -1.7896744e-05 0)
(0.29481736 -1.6705815e-05 0)
(0.29477144 -1.5590377e-05 0)
(0.2947286 -1.4543444e-05 0)
(0.29468864 -1.3559061e-05 0)
(0.29465141 -1.2631315e-05 0)
(0.29461674 -1.1757054e-05 0)
(0.29458448 -1.0932003e-05 0)
(0.29455449 -1.0156179e-05 0)
(0.29452664 -9.4243915e-06 0)
(0.29450078 -8.7387153e-06 0)
(0.29447683 -8.0895464e-06 0)
(0.29445465 -7.482216e-06 0)
(0.29443418 -6.9007392e-06 0)
(0.29441527 -6.3590966e-06 0)
(0.29439791 -5.8332378e-06 0)
(0.29438195 -5.352946e-06 0)
(0.29436736 -4.8828449e-06 0)
(0.29435401 -4.4711371e-06 0)
(0.2943418 -4.0708073e-06 0)
(0.29433081 -3.7330186e-06 0)
(0.29432039 -3.4422693e-06 0)
(0.29431193 -3.2058834e-06 0)
(0.29430077 -3.3000486e-06 0)
)
;

boundaryField
{
    top
    {
        type            fixedValue;
        value           uniform (0 0 0);
    }
    inlet
    {
        type            fixedValue;
        value           uniform (1 0 0);
    }
    outlet
    {
        type            zeroGradient;
    }
    bottom
    {
        type            fixedValue;
        value           uniform (0 0 0);
    }
    back
    {
        type            empty;
    }
    front
    {
        type            empty;
    }
}


// ************************************************************************* //
