/*--------------------------------*- C++ -*----------------------------------*\
  =========                 |
  \\      /  F ield         | OpenFOAM: The Open Source CFD Toolbox
   \\    /   O peration     | Website:  https://openfoam.org
    \\  /    A nd           | Version:  9
     \\/     M anipulation  |
\*---------------------------------------------------------------------------*/
FoamFile
{
    format      ascii;
    class       volScalarField;
    location    "0.31";
    object      alpha.phase1;
}
// * * * * * * * * * * * * * * * * * * * * * * * * * * * * * * * * * * * * * //

dimensions      [0 0 0 0 0 0 0];

internalField   nonuniform List<scalar> 
10000
(
4.8435737e-98
4.8435737e-98
1.625839e-97
1.4550927e-95
1.4783737e-93
1.3336013e-91
1.1000502e-89
8.7400554e-88
7.2494734e-86
7.6757186e-84
1.2125924e-81
2.4175468e-79
5.0680166e-77
1.1163703e-75
7.092563e-75
2.5351821e-74
5.7799135e-74
1.9946901e-73
2.3049426e-73
2.4334553e-73
2.5513049e-73
2.6368002e-73
2.6741406e-73
8.6874227e-72
8.7033912e-70
7.5380819e-68
8.1785953e-66
1.0932409e-63
2.1886009e-61
1.2911052e-58
5.2932918e-57
1.9959193e-56
2.4411778e-55
1.1739463e-54
1.3747244e-53
4.1881493e-52
1.3127822e-50
3.7639949e-49
9.7399196e-48
2.2403251e-46
4.4787018e-45
7.6322917e-44
1.105158e-42
1.356785e-41
1.3582196e-40
1.0555619e-39
6.4133138e-39
3.0931407e-38
1.1193949e-37
2.8717448e-37
2.9188852e-37
1.1648096e-37
3.1564387e-38
6.2251037e-39
9.1200077e-40
9.3502318e-41
5.8058888e-42
1.8744291e-43
2.8035911e-45
1.7875779e-47
7.4557143e-50
6.397908e-53
4.0797846e-56
2.6341234e-57
9.2840754e-57
3.8590836e-56
5.3425077e-56
4.7642546e-56
1.4316174e-56
1.0962201e-57
4.3416885e-59
8.366298e-62
1.032771e-63
1.1206425e-65
8.6313937e-68
6.6974273e-70
9.2905267e-72
3.8816404e-72
2.0292295e-72
1.1651037e-72
9.0189242e-73
6.5535857e-73
3.5932459e-73
1.150425e-73
5.2166223e-74
1.7787997e-74
4.8092624e-75
1.022692e-75
5.9200035e-77
9.70389e-79
8.408765e-81
5.065114e-83
2.3509492e-85
9.2728602e-88
3.6159717e-90
1.6183478e-92
8.2860232e-95
4.6581333e-97
6.8021906e-98
6.8021906e-98
4.9593383e-98
1.5126355e-96
1.500532e-95
1.4836712e-93
1.3386771e-91
1.1065136e-89
8.7904022e-88
7.2898554e-86
7.7168681e-84
1.2189314e-81
2.1901279e-79
9.579975e-78
9.2760489e-77
1.2302094e-75
7.3344312e-75
2.9235264e-74
6.7143186e-74
1.9820454e-73
8.1673223e-73
2.8689686e-72
3.3209014e-72
1.5452083e-72
3.4811192e-73
9.1849873e-72
1.2077247e-69
1.4357618e-69
2.6071739e-69
2.2826193e-66
4.8519415e-63
1.8756834e-58
5.1851208e-57
2.5033679e-56
2.3200061e-53
2.0117463e-52
3.5657246e-51
1.0623666e-49
3.0739795e-48
8.1007603e-47
1.9183095e-45
4.025998e-44
7.3546352e-43
1.1481436e-41
1.5117461e-40
1.6570128e-39
1.4442265e-38
9.0385576e-38
3.6352052e-37
9.4193428e-37
2.0537443e-36
3.7453839e-36
3.7894897e-36
2.1113062e-36
9.5809729e-37
3.5825771e-37
8.2551243e-38
1.0492265e-38
7.1330026e-40
2.5952845e-41
4.5887267e-43
3.9898608e-45
1.5019144e-47
1.5927265e-50
6.6188961e-54
1.4198802e-54
9.0395889e-54
1.5344633e-53
1.480359e-53
3.8515806e-54
8.8949718e-57
1.3377676e-57
5.7144816e-59
4.4836079e-61
4.5578718e-66
1.2493254e-68
1.1395875e-69
8.0379557e-70
1.2034109e-70
4.4457112e-71
6.4815384e-72
1.8191434e-72
7.7780319e-72
6.3251871e-72
1.4354119e-72
1.5247953e-73
8.2781419e-74
3.2300895e-74
1.1369579e-74
3.266002e-75
7.0905964e-76
5.4480458e-77
9.764299e-79
8.4608991e-81
5.0963615e-83
2.3653067e-85
9.3289955e-88
3.6380236e-90
1.6244819e-92
8.3897341e-95
2.466126e-96
7.0403583e-98
3.8036003e-95
1.4787329e-93
1.0453574e-91
1.0953056e-90
7.8473722e-89
6.5058983e-87
5.233352e-85
4.3995852e-83
4.7508097e-81
7.6892233e-79
1.414503e-76
6.1768819e-75
2.8418991e-74
7.5728743e-74
1.5994841e-73
3.4789758e-72
6.232316e-72
1.9841805e-72
4.3174747e-70
1.4407796e-69
1.5624997e-69
3.902742e-70
8.6824761e-71
4.8376607e-70
2.1779336e-68
2.7144328e-69
7.4505086e-67
8.8546867e-60
1.7467071e-57
9.0904327e-56
6.4151192e-55
7.8741865e-54
2.8437087e-50
1.3767024e-49
8.9811839e-49
2.0426095e-47
5.61376e-46
1.4165236e-44
3.2071641e-43
6.428417e-42
1.1216013e-40
1.6750491e-39
2.1149506e-38
2.2307665e-37
1.8881509e-36
1.1678687e-35
4.7345139e-35
1.2390076e-34
2.661601e-34
4.9456605e-34
5.0062467e-34
2.7307439e-34
1.2558854e-34
4.6516349e-35
1.0634275e-35
1.3735125e-36
9.8205532e-38
3.9171161e-39
8.0070938e-41
8.3919706e-43
3.9301706e-45
6.2944687e-48
5.232549e-51
1.7837046e-51
9.3342194e-51
1.441518e-50
1.3215968e-50
3.1580828e-51
7.9750099e-55
2.0439309e-55
1.5631403e-56
6.0898461e-58
3.8258135e-60
2.9852039e-66
4.7389555e-69
6.0401991e-68
1.1589789e-67
3.1922392e-68
3.6865741e-69
3.4030977e-70
3.5454821e-69
3.884676e-69
8.0054775e-70
2.9786746e-71
2.4368508e-71
9.7086736e-72
4.2122944e-72
1.3908963e-72
3.9141027e-73
3.1625215e-74
5.6041268e-76
4.780135e-78
2.8387881e-80
1.3018737e-82
5.0811016e-85
1.9595089e-87
8.742019e-90
2.06842e-91
2.5197047e-93
5.015222e-95
1.2894563e-92
6.9518766e-91
6.4473485e-89
4.2391663e-87
1.0133369e-85
2.8216799e-84
2.2834951e-82
1.9556577e-80
2.1535435e-78
3.5677069e-76
6.7347932e-74
3.0256716e-72
1.4366916e-71
3.9297213e-71
1.066995e-70
4.8792263e-69
3.4951586e-69
1.0995027e-69
1.9335787e-67
5.3033848e-67
5.4162199e-67
8.7909617e-68
5.4193132e-68
6.345948e-67
2.8021739e-65
1.5963203e-66
1.1204989e-59
1.6084033e-56
1.5854908e-54
5.1287756e-53
3.9627961e-52
7.5410051e-51
2.9474914e-47
1.0482547e-46
2.6740809e-46
3.1410316e-45
7.9235132e-44
1.9075592e-42
4.1189381e-41
7.871651e-40
1.3099699e-38
1.867019e-37
2.2535708e-36
2.2814545e-35
1.8702645e-34
1.1379484e-33
4.6166323e-33
1.2134576e-32
2.5722715e-32
4.8439442e-32
4.9055167e-32
2.634477e-32
1.2256881e-32
4.5193672e-33
1.0317529e-33
1.3597851e-34
1.0247327e-35
4.4832868e-37
1.0585205e-38
1.3250334e-40
7.3436262e-43
1.9273858e-45
3.5698346e-48
2.0353623e-48
7.8294903e-48
1.0552734e-47
8.3823712e-48
1.6068205e-48
6.6022658e-52
1.3101149e-52
9.1993889e-54
4.0910927e-55
3.627918e-57
2.0093237e-59
1.3108844e-65
3.4158176e-65
7.0763418e-65
1.9431294e-65
2.3517547e-66
1.3505032e-67
8.4920447e-67
1.8156564e-66
4.1149544e-67
1.7218674e-68
1.3761282e-68
4.8016302e-69
1.9890007e-69
6.3109424e-70
1.7197072e-70
1.3514522e-71
2.3378579e-73
1.9527023e-75
1.1397791e-77
5.1502587e-80
1.9852665e-82
7.5777914e-85
1.0214106e-86
1.4132128e-88
1.1631608e-90
1.6374026e-92
3.3827672e-90
2.1989528e-88
2.3165403e-86
1.8924607e-84
1.1715176e-82
3.2180996e-81
7.8430881e-80
6.8083916e-78
7.6567259e-76
1.3005509e-73
2.5240569e-71
1.1689385e-69
5.7529803e-69
1.81152e-68
8.6578443e-68
2.3091401e-66
1.4036807e-66
2.3189196e-66
6.7270429e-65
1.6000064e-64
1.5239144e-64
2.140109e-65
2.7688018e-65
2.745653e-64
1.0923427e-62
5.3150171e-60
2.1053824e-56
1.2635019e-53
8.6556909e-52
2.075528e-50
1.861447e-49
5.6317633e-48
1.3340997e-44
5.3763622e-44
9.6770121e-44
4.4419877e-43
9.0234293e-42
2.0550793e-40
4.2160069e-39
7.6533483e-38
1.210609e-36
1.6420445e-35
1.8897967e-34
1.8308466e-33
1.4498593e-32
8.6578883e-32
3.5031706e-31
9.2072237e-31
1.9213691e-30
3.6389853e-30
3.687071e-30
1.9645766e-30
9.2653154e-31
3.414399e-31
7.8052163e-32
1.0505258e-32
8.3419671e-34
4.0070488e-35
1.087331e-36
1.6047099e-38
1.13059e-40
4.0980171e-43
2.1795433e-45
1.8956718e-45
5.4204517e-45
6.4248308e-45
3.7209672e-45
4.6048037e-46
4.4818105e-49
6.5191211e-50
3.7988775e-51
1.7639175e-52
1.6729972e-54
1.1987846e-56
4.886165e-59
1.6456949e-61
3.3295297e-62
1.0063656e-62
1.2743241e-63
6.3449833e-65
8.6299299e-65
6.7440425e-64
1.497345e-64
7.7447489e-66
5.8556217e-66
1.9877307e-66
7.3883659e-67
2.2462362e-67
5.911153e-68
4.5108775e-69
7.6084562e-71
6.2165742e-73
3.5616876e-75
1.4891525e-77
5.5466874e-80
3.3777625e-82
5.4371833e-84
5.1902892e-86
3.5764134e-88
4.1326783e-90
7.2139551e-88
5.3151055e-86
6.1630944e-84
5.4847412e-82
4.1009027e-80
2.3546065e-78
5.9063765e-77
1.9367398e-75
2.2340495e-73
3.8941644e-71
7.7739414e-69
3.7169601e-67
1.8988324e-66
7.3581503e-66
7.5658228e-65
7.7551342e-64
4.5640655e-64
8.1694829e-64
1.925961e-62
4.1625593e-62
3.5379769e-62
4.5953908e-63
1.3525401e-62
7.2337628e-62
6.454382e-60
2.4726459e-56
1.5822297e-53
3.8242386e-51
1.0924072e-49
8.1947673e-48
7.3230475e-47
3.3110924e-45
2.1247939e-42
1.7491812e-41
3.648576e-41
7.8489807e-41
8.7719443e-40
1.8292442e-38
3.5462627e-37
6.0900979e-36
9.1216597e-35
1.1728025e-33
1.2815304e-32
1.1834395e-31
9.0184241e-31
5.2682587e-30
2.121021e-29
5.5635246e-29
1.141815e-28
2.1653031e-28
2.1952252e-28
1.1655832e-28
5.5765723e-29
2.0574691e-29
4.7158431e-30
6.4881609e-31
5.4347872e-32
2.8710214e-33
8.937336e-35
1.537003e-36
1.3694331e-38
6.6068348e-41
9.3897617e-43
1.3651487e-42
3.0653999e-42
3.2650206e-42
1.3392216e-42
1.0613776e-43
2.4812543e-46
2.5439186e-47
1.0287932e-48
5.4326116e-50
5.2676229e-52
3.9791152e-54
5.3915857e-56
2.1935098e-58
1.5280984e-59
4.3583323e-60
5.6632372e-61
3.3093086e-62
2.1190375e-62
2.065969e-61
4.4722241e-62
2.8346875e-63
2.0528025e-63
6.8484127e-64
2.2507497e-64
6.5471554e-65
1.6625088e-65
1.2312091e-66
2.0239968e-68
1.6180498e-70
8.4057984e-73
3.1089222e-75
1.1534722e-77
1.6818068e-79
1.6696107e-81
1.3516749e-83
8.3813161e-86
8.4654463e-88
1.2922538e-85
1.0450066e-83
1.2877809e-81
1.2479912e-79
9.9730371e-78
6.8593143e-76
3.5893568e-74
4.805948e-73
5.5112038e-71
9.870707e-69
2.0001776e-66
1.0008271e-64
5.4032799e-64
2.737611e-63
3.8621749e-62
2.0998672e-61
1.2450091e-61
2.2402353e-61
4.7930165e-60
9.6181015e-60
6.5563147e-60
9.1271672e-61
5.7395205e-60
2.6502177e-59
2.8040299e-57
7.6810153e-54
1.6010858e-51
1.8280659e-49
2.2945698e-48
8.1214152e-46
1.8348192e-44
1.6406899e-42
8.4261486e-41
5.2377342e-39
1.419023e-38
2.0040138e-38
8.1432724e-38
1.3778995e-36
2.5030591e-35
4.0461043e-34
5.7122024e-33
6.9352671e-32
7.1649149e-31
6.2770471e-30
4.5818259e-29
2.6086684e-28
1.0425297e-27
2.7258322e-27
5.4981275e-27
1.0401037e-26
1.055233e-26
5.6030845e-27
2.7206482e-27
1.005683e-27
2.3128348e-28
3.2563017e-29
2.8835813e-30
1.6779654e-31
5.9537379e-33
1.1749961e-34
1.2770441e-36
8.4590369e-39
3.500431e-40
8.1215583e-40
1.401932e-39
1.3528355e-39
4.0863017e-40
2.3715903e-41
1.1056544e-43
7.7704333e-45
1.1625456e-46
1.8382601e-47
1.2219058e-49
1.4410874e-51
2.1347563e-53
4.0070745e-56
7.0300886e-57
1.6122623e-57
2.1813449e-58
1.2510348e-59
4.8433473e-60
5.3871692e-59
1.15545e-59
8.7039567e-61
5.9354146e-61
1.9905889e-61
5.784473e-62
1.6088714e-62
3.94138e-63
2.8325956e-64
4.5389249e-66
3.5135368e-68
1.5376351e-70
5.620383e-73
4.8793491e-75
4.6378296e-77
3.8190963e-79
2.7561102e-81
1.5937221e-83
1.4537916e-85
1.9905005e-83
1.7338773e-81
2.2329266e-79
2.3078496e-77
1.984385e-75
1.4585785e-73
9.2517326e-72
4.0621993e-70
1.171536e-68
2.1417105e-66
4.1334673e-64
2.3280788e-62
1.4136454e-61
8.9612971e-61
1.1659366e-59
4.8039839e-59
2.9286384e-59
5.3778235e-59
1.0748016e-57
2.0168509e-57
7.9617351e-58
1.7792557e-58
2.0806249e-57
1.2458876e-56
6.2427485e-55
3.9759303e-52
2.8002016e-50
1.1092208e-48
6.8760628e-46
7.5015783e-45
3.9978612e-42
9.2788972e-40
6.2182383e-39
1.4041729e-36
5.4598384e-36
6.505293e-36
9.9595414e-36
9.0806762e-35
1.5031962e-33
2.2748352e-32
3.0122601e-31
3.4358269e-30
3.3398621e-29
2.76195e-28
1.920984e-27
1.0617215e-26
4.2032091e-26
1.0945679e-25
2.1681802e-25
4.0760068e-25
4.138555e-25
2.2052038e-25
1.0871651e-25
4.0262834e-26
9.29349e-27
1.3413542e-27
1.2587704e-28
8.045505e-30
3.2126545e-31
7.2155641e-33
9.5697087e-35
9.4723956e-37
1.4288229e-37
3.8300906e-37
5.3342038e-37
4.2810122e-37
9.0724862e-38
4.65753e-39
3.9466219e-41
2.0578026e-42
2.0599416e-44
1.4542038e-44
3.9600236e-47
5.6328466e-49
9.8805251e-52
5.9205108e-54
2.8442568e-54
5.4113039e-55
7.25866e-56
3.7681029e-57
1.1673951e-57
1.2215976e-56
2.621719e-57
2.2919348e-58
1.4675412e-58
5.0377783e-59
1.3117601e-59
3.5396693e-60
8.0418472e-61
5.6115309e-62
8.7695271e-64
5.8977768e-66
2.4618775e-68
1.3558906e-70
1.3037032e-72
9.6308161e-75
6.9715952e-77
4.6525317e-79
2.5515389e-81
2.1423925e-83
2.682837e-81
2.487936e-79
3.3173447e-77
3.5948198e-75
3.3115976e-73
2.606567e-71
1.816805e-69
1.0472903e-67
2.3481474e-66
3.6470104e-64
7.0464894e-62
4.7484666e-60
3.3901913e-59
2.630506e-58
2.758535e-57
9.5753676e-57
6.0434324e-57
1.2068331e-56
2.2012603e-55
3.8769038e-55
7.5136143e-56
4.3543431e-56
7.2122441e-55
4.392348e-54
9.7206265e-53
6.3640452e-51
7.3226421e-49
1.6238181e-46
2.2326524e-44
9.0018418e-43
8.3165025e-40
3.0119273e-37
1.7355089e-36
1.992352e-34
1.4874398e-33
2.0197799e-33
2.0626593e-33
6.0015468e-33
7.7888617e-32
1.0928322e-30
1.3504211e-29
1.4401003e-28
1.3100868e-27
1.0160676e-26
6.6878739e-26
3.5680835e-25
1.3951254e-24
3.6115262e-24
7.0049951e-24
1.3038897e-23
1.3250249e-23
7.1064725e-24
3.5657883e-24
1.3245526e-24
3.0716377e-25
4.5576662e-26
4.5517381e-27
3.1941475e-28
1.4247253e-29
3.6362314e-31
5.9841511e-33
1.1321251e-34
6.0918633e-35
1.4090602e-34
1.6145924e-34
8.0788052e-35
9.1303402e-36
4.80989e-37
1.1745304e-38
4.4489187e-40
1.5320816e-42
6.2989932e-43
1.5751629e-44
3.2358646e-47
1.0380885e-50
2.2217632e-51
8.8769458e-52
1.635417e-52
2.0078886e-53
1.2036376e-54
3.3021749e-55
2.4321016e-54
5.2805125e-55
5.257416e-56
3.2026727e-56
1.1194708e-56
2.7131838e-57
7.4641705e-58
1.4335438e-58
9.7237574e-60
1.4799723e-61
8.5187388e-64
3.6869849e-66
3.7356176e-68
2.5397897e-70
1.6209088e-72
1.0699358e-74
6.7163559e-77
3.5251969e-79
2.7568588e-81
3.2068357e-79
3.1418588e-77
4.3131477e-75
4.854492e-73
4.7073759e-71
3.9904453e-69
2.999567e-67
1.992815e-65
9.8044212e-64
5.4119327e-62
1.0773733e-59
8.5868107e-58
7.7056725e-57
8.4145696e-56
5.5251152e-55
1.6964622e-54
1.1076465e-54
2.5827457e-54
4.0759672e-53
6.8830278e-53
1.2092508e-53
1.0584083e-53
2.027492e-52
1.3164212e-51
1.8699356e-50
9.7401377e-49
1.7637983e-46
7.7146201e-44
9.120009e-44
2.1939103e-40
1.3983442e-37
3.413138e-35
3.0523679e-34
2.0927112e-32
3.018473e-31
5.8883968e-31
5.0228518e-31
5.8798454e-31
3.6193769e-30
4.5299404e-29
5.1894926e-28
5.1447111e-27
4.3556011e-26
3.1448973e-25
1.9403717e-24
9.9069177e-24
3.8072207e-23
9.7611253e-23
1.8431519e-22
3.3991081e-22
3.4584931e-22
1.8631885e-22
9.5625222e-23
3.5724019e-23
8.3424979e-24
1.2798287e-24
1.3707732e-25
1.0576609e-26
5.2489857e-28
1.532849e-29
3.2992878e-31
1.9929042e-32
2.3213602e-32
4.2698525e-32
4.0977364e-32
1.0580414e-32
1.2919898e-34
2.9927012e-35
3.8062183e-36
7.6322225e-38
7.6091219e-41
4.1489126e-42
5.7167637e-43
3.2070548e-46
1.9339124e-48
7.7293413e-49
2.5769492e-49
4.4469849e-50
4.4345257e-51
3.7735511e-52
9.1850313e-53
4.326167e-52
9.5471853e-53
1.0625419e-53
6.3099835e-54
2.2411797e-54
5.1384717e-55
1.4585407e-55
2.2583968e-56
1.491474e-57
2.1451159e-59
1.1078594e-61
9.45819e-64
6.9878873e-66
4.0316891e-68
2.3192324e-70
1.422028e-72
8.4722912e-75
4.2781092e-77
3.1398884e-79
3.4357616e-77
3.5381537e-75
4.9826863e-73
5.7913459e-71
5.8549684e-69
5.2518355e-67
4.2669403e-65
3.1337442e-63
2.0451921e-61
7.2940047e-60
1.4854425e-57
1.3885219e-55
1.6777766e-54
1.8147045e-53
9.5053323e-53
2.7010644e-52
1.8234271e-52
5.20506e-52
6.6429442e-51
1.1239681e-50
1.8161788e-51
2.4237477e-51
5.371883e-50
3.8907896e-49
1.4876451e-48
1.5568562e-46
5.8792096e-44
1.1259829e-41
6.8220871e-42
9.4552709e-39
2.0251346e-35
6.0080623e-34
4.6379211e-32
4.1632825e-31
4.1799694e-29
1.3697238e-28
1.2948222e-28
9.3031395e-29
1.8237824e-28
1.6369032e-27
1.7173444e-26
1.5738891e-25
1.2328299e-24
8.2269795e-24
4.6994412e-23
2.2686525e-22
8.5537214e-22
2.1982286e-21
4.1031261e-21
7.570986e-21
7.716263e-21
4.1325876e-21
2.1348588e-21
7.9092167e-22
1.8546226e-22
2.9687249e-23
3.4508538e-24
2.9356129e-25
1.6197105e-26
5.5288745e-28
1.7888453e-29
3.9331481e-30
8.4790512e-30
1.3241968e-29
1.1766273e-29
2.6266853e-30
6.6874619e-33
4.3286454e-33
1.3198603e-33
1.0472876e-35
4.2713558e-39
3.1224448e-40
1.806688e-42
2.1834851e-44
3.0787776e-46
2.5291471e-46
6.6567149e-47
1.0788093e-47
9.3780445e-49
1.1374516e-49
2.2977661e-50
6.9279523e-50
1.5719042e-50
1.9103517e-51
1.2057387e-51
4.6727147e-52
9.1711154e-53
2.6917256e-53
3.2665993e-54
2.0425622e-55
2.5468016e-57
1.8150216e-59
1.7235923e-61
1.0543255e-63
5.4701182e-66
2.9022199e-68
1.6690631e-70
9.4852077e-73
4.6220246e-75
3.1993507e-77
3.3278585e-75
3.5897853e-73
5.1731623e-71
6.186133e-69
6.482194e-67
6.089975e-65
5.2744593e-63
4.2383397e-61
3.2548387e-59
2.2132495e-57
1.860764e-55
2.0657092e-53
3.5225259e-52
3.1251011e-51
1.4363477e-50
3.8897177e-50
2.7199637e-50
9.6353302e-50
9.8672204e-49
1.6789319e-48
2.5095014e-49
4.7397799e-49
1.1640452e-47
9.561803e-47
4.7113294e-46
4.3459305e-45
1.5591064e-42
1.5242292e-40
1.5021982e-40
1.0003474e-38
4.4889781e-33
1.5706823e-32
9.6885806e-30
1.5459164e-29
7.1840723e-27
3.0418905e-26
3.2449525e-26
1.9910899e-26
1.5502839e-26
5.4878438e-26
4.9423035e-25
4.1606753e-24
2.994295e-23
1.8349674e-22
9.6261923e-22
4.3501046e-21
1.6229417e-20
4.475497e-20
9.1350445e-20
1.6631073e-19
1.689638e-19
9.2269676e-20
4.3457389e-20
1.4788377e-20
3.4245869e-21
5.7580289e-22
7.3069462e-23
6.8543089e-24
4.2364877e-25
1.7813084e-26
1.2254628e-27
8.7947447e-28
2.4266327e-27
3.316173e-27
2.6976771e-27
5.3245643e-28
5.2789351e-31
4.4585495e-31
2.6136755e-31
1.1629204e-33
1.6044627e-38
1.0615123e-38
5.0729345e-40
6.0686532e-43
8.5672305e-44
6.5887623e-44
1.511497e-44
2.3485296e-45
1.7399961e-46
3.0448018e-47
5.1491934e-48
1.0025133e-47
2.3895551e-48
3.0698594e-49
2.1121002e-49
8.2580552e-50
1.7342304e-50
4.5010757e-51
4.7264411e-52
2.5181195e-53
2.806324e-55
3.3013112e-57
2.4785893e-59
1.3591764e-61
6.5271027e-64
3.2349237e-66
1.7546143e-68
9.5372105e-71
4.4927121e-73
2.9420824e-75
2.9348467e-73
3.3086268e-71
4.8701336e-69
5.9767219e-67
6.4658679e-65
6.3227528e-63
5.7717728e-61
5.008762e-59
4.3526919e-57
4.1278402e-55
2.8006349e-53
3.0117252e-51
6.3995938e-50
4.5755269e-49
1.9342543e-48
5.0895864e-48
3.7902885e-48
1.6197447e-47
1.35655e-46
2.291119e-46
3.1727664e-47
8.3685193e-47
2.2521979e-45
2.2808959e-44
1.1743235e-43
4.0889942e-43
1.438881e-42
9.2883545e-41
1.8130269e-40
1.0733494e-37
3.3766339e-31
1.4894251e-30
3.9920136e-29
1.067756e-28
1.0180377e-24
5.316119e-24
6.4753784e-24
4.6744705e-24
1.8411393e-24
2.2815774e-24
1.2632926e-23
9.5921993e-23
6.3069348e-22
3.5348883e-21
1.727177e-20
7.3848141e-20
2.7296307e-19
8.1829302e-19
1.8698183e-18
3.1835752e-18
3.1992056e-18
1.8977192e-18
7.9907817e-19
2.4488862e-19
5.5829785e-20
9.781698e-21
1.324484e-21
1.3683767e-22
9.7377084e-24
5.7796184e-25
1.3278674e-25
2.1771151e-25
5.3556181e-25
6.5438044e-25
4.6585707e-25
7.9084376e-26
5.87902e-29
5.3605216e-29
2.6582144e-29
1.4500732e-31
6.1617374e-38
3.2340456e-38
2.4920327e-38
1.5321142e-41
3.4049177e-41
1.4532728e-41
3.0923082e-42
4.0231639e-43
3.0314365e-44
7.2342877e-45
1.0301651e-45
1.3152076e-45
3.4016634e-46
4.4172919e-47
3.1231006e-47
1.2026503e-47
2.7131444e-48
6.5193439e-49
6.6775418e-50
3.0124605e-51
4.4401995e-53
4.5619103e-55
3.0318932e-57
1.5434408e-59
6.9722946e-62
3.2539696e-64
1.6701026e-66
8.6938169e-69
3.9628312e-71
2.459552e-73
2.3707656e-71
2.7890675e-69
4.1876087e-67
5.2646675e-65
5.8637737e-63
5.9431016e-61
5.6789262e-59
5.2522012e-57
5.0586135e-55
5.8148472e-53
7.5078235e-51
4.7118302e-49
9.2529811e-48
5.8380371e-47
2.3418113e-46
6.0590887e-46
5.3953512e-46
2.4718876e-45
1.7231235e-44
2.8527187e-44
3.7318717e-45
1.4036259e-44
3.8962461e-43
4.5745189e-42
2.4638418e-41
1.2281895e-40
1.1267525e-40
1.5881123e-40
9.9714628e-39
4.4096332e-35
2.1638639e-29
1.8397475e-28
9.3204752e-28
7.938157e-28
1.2328861e-22
7.5558345e-22
1.053028e-21
8.4945163e-22
3.3910975e-22
1.4483791e-22
3.2121526e-22
1.9781245e-21
1.1975229e-20
6.0938182e-20
2.7380884e-19
1.0910319e-18
3.7188272e-18
1.0326734e-17
2.2874204e-17
3.6135376e-17
3.6302664e-17
2.2914857e-17
9.9516762e-18
3.2217646e-18
7.8175381e-19
1.4518149e-19
2.1232844e-20
2.4911645e-21
2.1691854e-22
2.5024764e-23
1.6698631e-23
4.9580922e-23
9.4431539e-23
1.0561094e-22
6.2382439e-23
8.8050458e-24
6.3541424e-27
5.8991868e-27
1.610351e-27
5.069872e-30
1.71032e-35
2.7717375e-37
1.5144971e-38
4.7153812e-39
8.7422247e-39
3.141455e-39
5.7518974e-40
6.2866735e-41
6.1315292e-42
1.5222199e-42
1.8340381e-43
1.5808415e-43
4.5208794e-44
5.714535e-45
4.0189381e-45
1.503176e-45
3.47776e-46
7.9877056e-47
9.1356477e-48
3.650274e-49
5.9478653e-51
5.3093658e-53
3.2634531e-55
1.5721246e-57
6.7505591e-60
2.9834495e-62
1.4519587e-64
7.2411164e-67
3.1946695e-69
1.8808555e-71
1.7632352e-69
2.1625759e-67
3.3084723e-65
4.2550202e-63
4.8690474e-61
5.0993521e-59
5.0770178e-57
4.9648753e-55
5.2066316e-53
6.8792358e-51
1.1388879e-48
7.7434069e-47
1.135635e-45
6.6106188e-45
2.5634598e-44
6.5481046e-44
7.1249924e-44
3.400334e-43
2.0196093e-42
3.2396987e-42
4.4398161e-43
2.3120645e-42
6.5447233e-41
8.7863704e-40
5.1012741e-39
2.4505738e-38
3.4668773e-38
2.0269641e-38
3.6687107e-36
1.2317819e-32
7.8200593e-28
3.8778682e-26
5.1561172e-26
4.8196342e-26
1.7154037e-20
1.0545713e-19
1.5199662e-19
1.2792373e-19
6.0211938e-20
1.2731031e-20
1.1366317e-20
3.937482e-20
2.1619938e-19
9.7979808e-19
3.7223602e-18
1.2285085e-17
3.5733393e-17
9.1636538e-17
1.8447205e-16
2.8276111e-16
2.7559398e-16
1.8593455e-16
8.5893291e-17
2.9760415e-17
8.194582e-18
1.7609556e-18
3.1397889e-19
4.5672481e-20
5.5801303e-21
1.7509584e-21
2.5816472e-21
8.6113311e-21
1.3733127e-20
1.4470437e-20
7.2978688e-21
9.0779563e-22
1.2149764e-25
1.8721385e-25
8.5449719e-26
5.7343204e-30
6.8010681e-33
1.1137636e-35
4.4518021e-37
1.6863511e-36
1.9734746e-36
6.1880739e-37
9.6483366e-38
9.5659282e-39
1.3914592e-39
2.8269596e-40
2.8943565e-41
1.7532295e-41
5.5746152e-42
6.6655268e-43
4.5691301e-43
1.6489329e-43
3.8325832e-44
8.4946853e-45
1.0781019e-45
4.4967004e-47
6.6043458e-49
5.4174463e-51
3.151138e-53
1.454035e-55
5.9793209e-58
2.51342e-60
1.1613499e-62
5.5473374e-65
2.3682281e-67
1.3227682e-69
1.2128207e-67
1.5498985e-65
2.4139138e-63
3.1720385e-61
3.7231231e-59
4.0197295e-57
4.1559421e-55
4.2748702e-53
4.8306961e-51
7.120195e-49
1.3647237e-46
9.7230519e-45
1.2180979e-43
6.7202762e-43
2.548469e-42
6.4722388e-42
8.5178738e-42
4.2167681e-41
2.181747e-40
3.3228107e-40
6.6952148e-41
3.8196546e-40
9.6347751e-39
1.3999339e-37
9.2044381e-37
4.5322662e-36
8.5542488e-36
5.3449938e-36
1.8849493e-33
1.4480653e-30
7.0927341e-28
3.0156325e-24
1.4740004e-23
1.0169944e-23
4.2956818e-18
1.9905938e-17
2.7276632e-17
1.9719483e-17
8.5419239e-18
1.5728297e-18
4.7911746e-19
8.438615e-19
3.4597206e-18
1.3708043e-17
4.0858014e-17
1.0633386e-16
2.5697336e-16
4.9743442e-16
9.212628e-16
1.4365428e-15
1.4751808e-15
9.6891073e-16
4.5543392e-16
1.8459256e-16
5.6270095e-17
1.5944382e-17
3.9483303e-18
7.2921293e-19
1.6907993e-19
1.2403485e-19
4.0077515e-19
1.2177906e-18
1.9482541e-18
2.3971028e-18
9.4801621e-19
1.1211705e-19
2.3991813e-24
3.9067665e-24
1.8037702e-24
4.4601736e-29
2.7310106e-30
2.9939998e-34
1.4866659e-34
4.3676903e-34
3.9106909e-34
1.1016127e-34
1.4849484e-35
1.3609722e-36
2.7763441e-37
4.6204005e-38
4.0407933e-39
1.804602e-39
6.2945231e-40
7.1459245e-41
4.6275854e-41
1.6072251e-41
3.7159603e-42
7.9855829e-43
1.0848912e-43
4.6392117e-45
6.3904819e-47
4.9505284e-49
2.7638128e-51
1.2321315e-53
4.8812865e-56
1.9587257e-58
8.5998619e-61
3.9316355e-63
1.6230437e-65
8.5959736e-68
7.7458973e-66
1.031119e-63
1.6336098e-61
2.1910393e-59
2.6339823e-57
2.9260728e-55
3.1333316e-53
3.3776529e-51
4.084966e-49
6.5969756e-47
1.3988141e-44
1.026127e-42
1.1636217e-41
6.1770281e-41
2.3083649e-40
5.8835992e-40
9.2657615e-40
4.7226356e-39
2.1689348e-38
3.0805831e-38
1.1415036e-38
6.5622678e-38
1.1905665e-36
2.0664073e-35
1.5055341e-34
7.7993489e-34
1.7705293e-33
1.3138688e-33
7.755062e-31
4.0528677e-28
1.3076869e-23
8.1249575e-22
1.3409804e-21
7.6010167e-22
3.777166e-16
2.6332615e-15
3.466775e-15
2.8124946e-15
1.2049112e-15
2.1075772e-16
2.1685013e-17
2.0197853e-17
4.3780359e-17
1.3217116e-16
3.4833312e-16
7.2490305e-16
1.2437039e-15
2.0022265e-15
2.9833122e-15
4.6716274e-15
4.8982486e-15
2.8301723e-15
1.7118711e-15
8.7749597e-16
3.7098848e-16
1.1823817e-16
2.7493275e-17
7.977902e-18
5.0885001e-18
8.5275854e-18
5.1927767e-17
1.9148318e-16
3.0726467e-16
3.3763933e-16
1.8863128e-16
1.30318e-17
7.3803391e-22
9.2959073e-22
1.7913325e-22
1.5661036e-26
4.9022551e-28
6.9383583e-32
3.961911e-32
1.0405017e-31
6.6659937e-32
1.7635127e-32
1.9771359e-33
2.0169462e-34
4.8356025e-35
6.6192002e-36
4.9811247e-37
1.7211649e-37
6.4600636e-38
7.4139227e-39
4.1906722e-39
1.402357e-39
3.210327e-40
6.7159941e-41
9.5852105e-42
4.1744812e-43
5.5194226e-45
4.1051308e-47
2.2216896e-49
9.633652e-52
3.6953492e-54
1.4202724e-56
5.9292686e-59
2.5915244e-61
1.0333523e-63
5.1836723e-66
4.6099066e-64
6.391989e-62
1.0294038e-59
1.4077789e-57
1.7310253e-55
1.9752524e-53
2.1860809e-51
2.4628108e-49
3.1726826e-47
5.5466372e-45
1.268334e-42
9.4861045e-41
1.0010401e-39
5.156103e-39
1.9087712e-38
4.9140277e-38
9.1815358e-38
4.7853637e-37
1.9816438e-36
2.5837859e-36
1.7715431e-36
1.2057177e-35
1.3903413e-34
2.8627718e-33
2.3575188e-32
1.264458e-31
2.8416284e-31
3.0267398e-31
3.7872086e-28
7.6070674e-25
2.2568073e-20
5.567839e-20
3.8617921e-20
7.0448679e-21
7.7627307e-17
3.2356851e-16
3.2556048e-16
3.2197524e-16
6.0385025e-14
3.5743797e-14
3.6445357e-15
3.7715345e-16
4.7200896e-16
1.2750722e-15
7.8308811e-15
1.2252416e-14
1.3324055e-14
7.6850633e-14
3.0292067e-14
1.3774607e-14
1.3841544e-14
5.066517e-14
9.6009486e-15
6.7436158e-15
7.8777573e-15
5.8421434e-15
8.4445845e-16
1.5174289e-16
1.2242778e-16
1.0639996e-15
7.7587821e-15
1.485733e-14
1.3610907e-14
2.6754191e-16
6.6113085e-17
9.9658057e-18
6.7718002e-20
8.7387167e-20
5.4662042e-20
1.531802e-21
1.7571232e-24
2.0190148e-29
8.8048386e-30
2.0581847e-29
1.0581364e-29
2.6662692e-30
2.455808e-31
3.3148613e-32
7.2935427e-33
8.2750326e-34
5.404975e-35
1.5140402e-35
5.9996138e-36
8.507482e-37
3.3963707e-37
1.10035e-37
2.4903725e-38
5.0927222e-39
7.5669123e-40
3.3518438e-41
4.3157982e-43
3.1173152e-45
1.6480692e-47
6.9903884e-50
2.608076e-52
9.6320462e-55
3.8260883e-57
1.5965223e-59
6.1394394e-62
2.9121707e-64
2.5650018e-62
3.7049107e-60
6.0604737e-58
8.4428761e-56
1.0605082e-53
1.2410368e-51
1.4169116e-49
1.6646953e-47
2.2762104e-45
4.2696091e-43
1.0355511e-40
7.8387345e-39
7.8095376e-38
3.919961e-37
1.4424789e-36
3.7672221e-36
8.2801385e-36
4.3878573e-35
1.6607562e-34
1.9651576e-34
2.4612364e-34
2.0429438e-33
1.5752138e-32
3.5885107e-31
3.3388981e-30
1.7132948e-29
4.5610461e-29
8.0626817e-29
1.8982938e-24
9.0576536e-20
1.9083309e-18
2.399743e-18
1.191851e-18
7.151314e-21
4.5253926e-20
5.125022e-19
1.7498397e-18
5.1857102e-12
3.964126e-14
1.689189e-14
1.4946085e-14
1.6407758e-14
2.0741854e-14
4.1455145e-14
6.9170584e-14
1.0117941e-13
2.2989333e-13
3.222915e-13
3.1418154e-13
1.7545294e-13
1.0948717e-13
1.9694542e-13
1.5404367e-13
9.6177987e-14
6.3229973e-14
3.6459457e-14
1.0927682e-14
7.3553369e-15
6.024104e-15
5.5223311e-15
2.4008158e-16
6.9385361e-17
2.7931945e-18
9.6340075e-19
2.0403274e-19
9.125611e-20
6.8021276e-20
2.7402572e-18
3.4584347e-18
1.3358188e-18
8.0831881e-20
1.4213155e-26
3.7133615e-27
2.9555831e-27
1.5659927e-27
3.6419715e-28
2.963195e-29
5.5061917e-30
9.4553429e-31
8.9856319e-32
5.1451749e-33
1.219861e-33
4.9653178e-34
7.9754451e-35
2.4834452e-35
7.7860877e-36
1.743368e-36
3.5002931e-37
5.394146e-38
2.4338081e-39
3.0841634e-41
2.1826713e-43
1.134553e-45
4.7310588e-48
1.7242279e-50
6.1391957e-53
2.3222125e-55
9.2356462e-58
3.4185062e-60
1.5298416e-62
1.3384328e-60
2.0142655e-58
3.3442568e-56
4.7410572e-54
6.0756131e-52
7.2801737e-50
8.5602772e-48
1.0470409e-45
1.5153713e-43
3.0279224e-41
7.6948982e-39
5.8578793e-37
5.5501986e-36
2.7198276e-35
9.9670797e-35
2.6474996e-34
6.7809863e-34
3.6362425e-33
1.2725714e-32
1.3682861e-32
3.0169572e-32
3.0473295e-31
1.8083606e-30
3.9584895e-29
4.4471855e-28
1.6789883e-27
8.5581828e-26
1.3770375e-25
3.4171435e-19
1.3332712e-17
5.1200384e-17
4.5237847e-17
1.2454779e-17
4.5253926e-20
2.8942092e-12
1.6889106e-10
1.7379482e-10
5.5742256e-09
8.8097581e-10
7.2343637e-12
1.5459629e-14
5.2849099e-14
1.3716993e-13
4.1495745e-14
1.0878272e-13
2.0256671e-13
2.8521579e-13
2.0166309e-13
3.9244797e-14
1.1058243e-14
1.8856461e-13
2.0491625e-13
2.0485865e-13
2.0101874e-13
1.7517371e-13
8.0673648e-14
2.4229798e-14
7.3658795e-15
6.0344084e-15
2.8164312e-15
-6.8161318e-14
2.2512596e-10
9.2223573e-10
2.7931945e-18
8.0939249e-19
9.1375641e-12
2.0389954e-11
2.7536514e-18
7.5621552e-17
6.9019949e-17
5.2381897e-18
1.0720122e-22
1.1116685e-24
3.9272945e-25
2.0382146e-25
4.3683672e-26
3.364729e-27
7.7135677e-28
1.0472945e-28
8.4357788e-30
4.282349e-31
8.9196652e-32
3.651824e-32
6.3427791e-33
1.6365053e-33
4.9776879e-34
1.1051516e-34
2.1887471e-35
3.4969433e-36
1.6122852e-37
2.0282932e-39
1.4169246e-41
7.2832526e-44
2.9999294e-46
1.0724522e-48
3.6941531e-51
1.3321098e-53
5.040758e-56
1.7915099e-58
7.5422192e-61
6.5690262e-59
1.0302828e-56
1.7347065e-54
2.4999539e-52
3.2640355e-50
3.9987497e-48
4.8348766e-46
6.1481721e-44
9.3972088e-42
1.9878316e-39
5.2410683e-37
3.9886709e-35
3.6042617e-34
1.724289e-33
6.2959967e-33
1.7026975e-32
5.0286713e-32
2.7168196e-31
8.863239e-31
8.8408659e-31
3.2515289e-30
3.9527263e-29
2.2009602e-28
3.8121518e-27
5.3676138e-26
1.9987088e-25
6.5346665e-24
4.4273882e-21
5.7133385e-17
9.4789158e-16
2.2111245e-15
1.2557923e-15
1.2591158e-17
2.532909e-08
4.8195333e-08
2.2370972e-08
4.6574762e-06
4.6514352e-06
6.6853141e-07
9.1096054e-11
6.0315549e-13
5.9804773e-14
1.2996639e-13
2.6141717e-13
5.7380465e-15
3.0007649e-15
9.2243702e-16
-5.6983729e-13
-1.5253619e-12
-8.5745604e-13
2.8690376e-14
-2.9230908e-13
-3.86625e-14
1.5340396e-13
1.1127898e-13
3.7401982e-14
2.3356731e-14
7.5025809e-15
1.039406e-14
2.5536281e-13
2.6142399e-09
1.7758304e-07
1.3415806e-06
1.9455663e-06
4.9674611e-07
5.0105543e-12
1.6857617e-10
4.4836294e-18
5.5056948e-16
5.4073873e-16
1.9554366e-16
6.9850544e-18
2.7558091e-23
5.5625064e-23
2.2786786e-23
4.7787502e-24
3.897163e-25
9.0100394e-26
9.8451978e-27
6.8167755e-28
3.1064704e-29
5.8609317e-30
2.3804264e-30
4.3635611e-31
9.7128959e-32
2.8784654e-32
6.359378e-33
1.2485931e-33
2.0723368e-34
9.8071935e-36
1.234321e-37
8.5685585e-40
4.3788309e-42
1.7896592e-44
6.3019314e-47
2.1077887e-49
7.2569398e-52
2.6082516e-54
8.8752274e-57
3.5023997e-59
3.0413169e-57
4.9722901e-55
8.4822728e-53
1.241207e-50
1.6487135e-48
2.0618199e-46
2.5597588e-44
3.380505e-42
5.4463678e-40
1.2127863e-37