/*--------------------------------*- C++ -*----------------------------------*\
  =========                 |
  \\      /  F ield         | OpenFOAM: The Open Source CFD Toolbox
   \\    /   O peration     | Website:  https://openfoam.org
    \\  /    A nd           | Version:  9
     \\/     M anipulation  |
\*---------------------------------------------------------------------------*/
FoamFile
{
    format      ascii;
    class       surfaceScalarField;
    location    "0.31";
    object      alphaPhi0.phase1;
}
// * * * * * * * * * * * * * * * * * * * * * * * * * * * * * * * * * * * * * //

dimensions      [0 3 -1 0 0 0 0];

internalField   nonuniform List<scalar> 
19800
(
8.0826433e-102
-1.2733824e-100
3.474663e-101
-1.5614501e-100
3.7453941e-99
-3.6036758e-99
4.4830985e-97
-3.7673124e-97
4.6065795e-95
-3.5173739e-95
4.2124829e-93
-2.9056299e-93
3.6294837e-91
-2.271756e-91
3.2203803e-89
-1.9169374e-89
3.6519426e-87
-2.4427313e-87
6.1387473e-85
-4.8792631e-85
1.1099311e-82
-9.0235522e-83
4.693129e-81
-9.7417208e-82
9.7226792e-80
-1.043706e-80
1.7525992e-78
-1.4848368e-79
1.0334085e-77
-8.6405105e-79
3.4130968e-77
-2.9061989e-78
7.9918813e-77
-6.2033764e-78
2.1974068e-76
-1.9870504e-77
2.4056122e-76
-2.1570225e-77
2.5592225e-76
-2.137884e-77
2.6881275e-76
-2.0036372e-77
2.7593172e-76
-1.7660501e-77
2.8111968e-76
-1.4774872e-77
1.7745644e-74
-3.8376187e-76
1.7823667e-72
-2.7888284e-74
1.526562e-70
-2.6749548e-74
1.6365595e-68
-1.4654079e-74
2.1593435e-66
8.6677158e-69
4.2530576e-64
4.936436e-66
2.4224549e-61
4.564202e-63
8.3864448e-60
2.516156e-61
2.9909725e-59
1.1891147e-60
3.6173892e-58
1.7523855e-59
1.6563359e-57
9.8622583e-59
1.9994327e-56
1.3295865e-57
5.8916253e-55
4.6000609e-56
1.7253396e-53
1.6196251e-54
4.5760802e-52
5.172895e-53
1.0853328e-50
1.4813655e-51
2.26402e-49
3.7463996e-50
4.0540049e-48
8.1790851e-49
6.1007868e-47
1.512209e-47
7.6729011e-46
2.3592218e-46
8.0013274e-45
3.0965904e-45
6.5900011e-44
3.2871695e-44
4.0414295e-43
2.6861305e-43
1.8282727e-42
1.7007728e-42
5.9094058e-42
8.4699429e-42
1.1411152e-41
3.1357704e-41
4.9698838e-42
8.1538479e-41
-6.0368593e-42
8.3271108e-41
-4.4519443e-42
3.3098215e-41
-1.4909789e-42
8.8533151e-42
-3.159693e-43
1.7081264e-42
-4.3318865e-44
2.4265157e-43
-3.4182784e-45
2.3917e-44
-1.3455999e-46
1.4163399e-45
-2.3740985e-48
4.3295425e-47
-1.7407993e-50
6.0920471e-49
-8.206342e-53
3.6323132e-51
-7.8523724e-56
1.4090231e-53
-5.3362397e-59
1.1190793e-56
-1.9334767e-60
6.5712794e-60
-7.4332754e-60
3.8719058e-61
-2.437087e-59
1.2465836e-60
-4.821667e-59
4.6342304e-60
-5.009359e-59
5.7080468e-60
-2.3845031e-59
4.4553696e-60
-2.1698207e-60
1.148986e-60
-9.2382379e-62
7.2791515e-62
-1.8596835e-64
2.2666215e-63
-2.3403968e-66
3.1401903e-66
-2.5886411e-68
2.2802163e-68
-2.0233479e-70
3.8419181e-71
-1.5843785e-72
-1.3023246e-74
-1.7681132e-74
-1.8497259e-74
-6.3710058e-75
-4.0703279e-76
-3.1488521e-75
-2.2671997e-76
-1.6240071e-75
-1.4245058e-76
-1.2144678e-75
-9.5348854e-77
-9.2873587e-76
-8.6190063e-77
-5.7289249e-76
-7.1845563e-77
-1.9397169e-76
-4.3479753e-77
-8.6888585e-77
-1.6451464e-77
-3.4099687e-77
-8.5621351e-78
-1.0757085e-77
-3.9052202e-78
-2.8238354e-78
-1.4338192e-78
-4.7896119e-79
-4.345646e-79
-3.6629458e-80
-9.8507783e-80
-6.6812064e-82
-3.0015975e-80
-5.5211208e-84
-6.5656016e-82
-3.0994614e-86
-5.6729053e-84
-1.3148817e-88
-3.2589182e-86
-4.6238755e-91
-1.3995058e-88
-1.5590648e-93
-4.9322578e-91
-5.8636883e-96
-1.6495789e-93
-2.4655039e-98
-6.172242e-96
-1.1080114e-100
-2.6844804e-98
-1.2306259e-101
-3.9936046e-100
-2.8619335e-100
7.3207872e-101
-2.6901251e-100
1.4541033e-98
-1.6153315e-98
2.1752423e-96
-2.0331779e-96
2.616827e-94
-2.4388612e-94
2.7022355e-92
-2.5088242e-92
2.4878197e-90
-2.2975615e-90
2.1649175e-88
-1.9879867e-88
1.950143e-86
-1.7845179e-86
2.2662822e-84
-2.0840382e-84
3.9244632e-82
-3.6333487e-82
7.2817572e-80
-6.6819131e-80
2.7462358e-78
-2.3719238e-78
1.1128069e-77
-6.8586154e-78
2.8943932e-77
-1.2496916e-77
6.6997969e-77
-2.3068951e-77
1.1719672e-76
-3.5017853e-77
1.3068521e-76
-2.7728162e-77
3.5045156e-76
-3.9160599e-77
2.497007e-75
-4.0424427e-76
4.739149e-75
-1.0497652e-75
4.6342169e-75
-9.4255693e-76
9.0263712e-76
-2.7473919e-76
4.2591319e-76
-3.6088644e-77
1.9353881e-74
-4.402416e-76
1.4657939e-72
-3.3298605e-74
1.6840057e-72
-1.4026916e-74
3.880511e-72
1.9819812e-74
4.6192322e-69
5.7906596e-71
9.622609e-66
2.0889929e-67
3.5619703e-61
1.4739345e-62
8.6004848e-60
3.9412265e-61
4.0582537e-59
2.7626077e-60
3.8045958e-56
4.9530813e-57
3.0778531e-55
4.9151487e-56
5.3946668e-54
9.8056411e-55
1.534817e-52
3.248477e-53
4.1589894e-51
1.0359661e-51
1.0174059e-49
2.9869188e-50
2.2164854e-48
7.6924639e-49
4.2350026e-47
1.7459059e-47
6.956109e-46
3.4295755e-46
9.6213799e-45
5.7243194e-45
1.1025835e-43
8.0105589e-44
1.0265069e-42
9.2724804e-43
7.3117113e-42
8.4769215e-42
3.5100364e-41
5.5233863e-41
9.9134983e-41
2.2921992e-40
1.6762793e-40
6.0563156e-40
1.9831176e-40
1.3320766e-39
7.0126649e-41
2.4317412e-39
-1.0159311e-40
2.4740715e-39
-1.2457559e-40
1.3927336e-39
-8.1450818e-41
6.3412903e-40
-2.8881102e-41
2.3540719e-40
-5.0783904e-42
5.3236485e-41
-4.4197542e-43
6.5831961e-42
-1.9571163e-44
4.3241417e-43
-4.0695309e-46
1.5114904e-44
-4.0584585e-48
2.5542905e-46
-1.7211679e-50
2.1124885e-48
-2.0266582e-53
7.518856e-51
-8.2365257e-57
7.5104552e-54
-1.0842562e-57
2.9186445e-57
-4.5375091e-57
5.8866994e-58
-1.3339786e-56
3.4209385e-57
-1.4133478e-56
5.3195603e-57
-6.5354762e-57
4.6395108e-57
-1.6810687e-59
1.0768909e-57
-2.5930947e-60
1.0929935e-60
-1.2316265e-61
1.6483449e-61
-1.0172921e-63
6.0347663e-63
-1.0620122e-68
5.2832572e-65
-2.8291011e-71
1.9970941e-70
-1.7475508e-72
2.6856233e-73
-1.2480742e-72
-4.20586e-77
-2.9027019e-73
-1.9532116e-74
-1.1891216e-73
-1.6450289e-74
-2.0010597e-74
-8.6474568e-75
-7.6660705e-75
-1.8868924e-75
-1.4963525e-74
-1.217196e-75
-2.5346166e-74
-4.193059e-75
-1.7908503e-74
-6.187842e-75
-1.0802316e-74
-4.0954532e-75
-6.3842815e-75
-2.884263e-75
-4.3771433e-75
-1.8751032e-75
-2.1570187e-75
-1.80309e-75
-7.520182e-76
-1.2366513e-75
-2.2699033e-76
-4.7504706e-76
-2.1055906e-77
-1.9332253e-76
-3.8548156e-79
-1.9953791e-77
-3.1423429e-81
-3.7471678e-79
-1.7403092e-83
-3.0804478e-81
-7.2929179e-86
-1.7149725e-83
-2.5361701e-88
-7.2095501e-86
-8.4620013e-91
-2.5063087e-88
-3.1533028e-93
-8.3119001e-91
-1.3179049e-95
-3.0648759e-93
-5.1511439e-98
-1.2702665e-95
-1.5980217e-100
-5.7027977e-98
-6.1568256e-100
3.082624e-98
-1.1270218e-97
6.2699898e-96
-8.5748629e-96
9.5895202e-94
-1.0366888e-93
1.1317007e-91
-1.0157403e-91
1.1798836e-89
-1.0771878e-89
1.0995133e-87
-9.9743373e-88
9.7090111e-86
-8.7426246e-86
8.9012828e-84
-7.9785976e-84
1.0563749e-81
-9.5215698e-82
1.8751908e-79
-1.7032727e-79
3.5823335e-77
-3.2167049e-77
1.4017876e-75
-1.1771768e-75
5.8686621e-75
-3.5271432e-75
1.5152901e-74
-6.6901404e-75
3.3284473e-74
-1.2904298e-74
5.4156717e-74
-2.4418539e-74
3.6289034e-74
-1.4671802e-74
3.5013141e-74
-1.1768089e-74
1.3275312e-72
-2.5547894e-73
2.2522729e-72
-5.6569881e-73
2.0290432e-72
-4.7209432e-73
1.9017561e-73
-7.4048454e-74
1.2922577e-73
-1.6978005e-74
1.3080158e-72
-1.0551413e-73
2.7190294e-71
-2.2636808e-72
2.9153015e-72
-2.2357189e-75
1.5566447e-69
3.1948246e-71
1.817525e-62
7.6231997e-64
3.4768107e-60
2.25044e-61
1.6451104e-58
1.5436228e-59
1.0975114e-57
1.3395291e-58
1.3901416e-56
1.9515074e-57
4.5098542e-53
8.1147739e-54
1.9703312e-52
4.4223804e-53
1.3118627e-51
3.2021328e-52
2.9925571e-50
7.9984203e-51
7.7502867e-49
2.3958512e-49
1.8198458e-47
6.5438024e-48
3.8011749e-46
1.5948431e-46
6.9593139e-45
3.4238335e-45
1.0959171e-43
6.3670777e-44
1.456164e-42
1.0084762e-42
1.6072877e-41
1.3433935e-41
1.4469594e-40
1.4869139e-40
1.0066685e-39
1.3133049e-39
4.8109621e-39
8.4272379e-39
1.3789653e-38
3.5231538e-38
2.3575157e-38
9.450042e-38
2.7789144e-38
2.0674134e-37
1.0370487e-38
3.8887519e-37
-1.368352e-38
3.9621749e-37
-1.7155342e-38
2.163115e-37
-1.1159439e-38
9.8991562e-38
-3.9101032e-39
3.6259124e-38
-6.946841e-40
8.1503803e-39
-6.3292343e-41
1.0294229e-39
-3.0608551e-42
7.1607197e-41
-7.3342686e-44
2.7655182e-42
-8.7902522e-46
5.4492299e-44
-4.6244877e-48
5.4808448e-46
-8.2008823e-51
2.4519936e-48
-6.178712e-54
3.7376741e-51
-1.3849415e-54
2.9391076e-54
-5.2083456e-54
9.4696349e-55
-1.274908e-53
4.5807636e-54
-1.3402632e-53
6.5473557e-54
-5.5188874e-54
5.4857447e-54
-1.444988e-57
1.1864685e-54
-3.7636818e-58
2.6325728e-58
-3.3181226e-59
5.8241472e-59
-1.3783345e-60
3.7084173e-60
-9.0488364e-63
1.1361951e-61
-7.2143292e-69
5.1112111e-64
-6.0816619e-72
2.3514251e-70
-4.0283001e-71
1.0707364e-73
-1.6977582e-70
-1.4024724e-72
-8.7855176e-71
-1.3153002e-71
-1.3176717e-71
-6.6346817e-72
-5.2671366e-72
-1.5262532e-72
-7.8530326e-72
-1.074256e-72
-1.4559159e-71
-2.5323377e-72
-1.0739004e-71
-4.3290781e-72
-6.3465388e-72
-2.9919798e-72
-3.5213892e-72
-1.9738235e-72
-2.287021e-72
-1.2393662e-72
-1.0643282e-72
-9.6669945e-73
-3.5421856e-73
-6.1057452e-73
-1.0299436e-73
-2.2270435e-73
-9.2234087e-75
-8.674411e-74
-1.6419686e-76
-8.6630807e-75
-1.3081521e-78
-1.588745e-76
-7.1076441e-81
-1.2787917e-78
-2.9316639e-83
-6.9939315e-81
-1.0063594e-85
-2.8966477e-83
-3.3221744e-88
-9.940545e-86
-1.2270689e-90
-3.2561263e-88
-5.1454425e-93
-1.1861852e-90
-2.0030118e-95
-5.5332516e-93
-6.1085903e-98
-2.7538848e-95
-2.2919868e-97
9.2196899e-96
-4.008677e-95
2.0338369e-93
-3.2948525e-93
3.2151626e-91
-4.1091287e-91
3.955478e-89
-4.1825578e-89
4.0631965e-87
-3.6695464e-87
3.812149e-85
-3.4159028e-85
3.4202333e-83
-3.0376571e-83
3.1961497e-81
-2.8212912e-81
3.88023e-79
-3.4462474e-79
7.0747935e-77
-6.3391528e-77
1.394829e-74
-1.2330263e-74
5.6832538e-73
-4.6694273e-73
2.4925903e-72
-1.4742776e-72
6.7838279e-72
-3.0029244e-72
1.577995e-71
-6.4709555e-72
2.7434026e-71
-1.4145174e-71
1.8243901e-71
-8.385305e-72
2.2215664e-71
-8.8636346e-72
5.5193393e-70
-1.2521357e-70
8.1864359e-70
-2.3439918e-70
6.6872443e-70
-1.8290534e-70
8.050134e-71
-2.1156208e-71
7.8931531e-71
-1.05426e-71
1.4667379e-69
-8.0787696e-71
3.1703903e-68
-9.0582225e-70
1.7328615e-69
2.594486e-71
2.394184e-62
7.7744605e-64
3.3619232e-59
1.9596545e-60
3.1957078e-57
2.7371935e-58
9.4912671e-56
1.1361108e-56
7.0498409e-55
1.0640389e-55
1.3798834e-53
2.3703652e-54
4.5710737e-50
1.0531798e-50
1.3472827e-49
4.1748707e-50
3.4599151e-49
1.1727084e-49
4.6057225e-48
1.5004383e-48
1.1175464e-46
4.0923021e-47
2.5085448e-45
1.058895e-45
5.0034007e-44
2.444874e-44
8.7453555e-43
4.9728138e-43
1.3153861e-41
8.7678858e-42
1.6705449e-40
1.3179285e-40
1.7658627e-39
1.6698758e-39
1.5292837e-38
1.7660285e-38
1.0339064e-37
1.5048979e-37
4.8851485e-37
9.4703761e-37
1.4091295e-36
3.953402e-36
2.4260747e-36
1.0635612e-35
2.8602123e-36
2.2947503e-35
1.145425e-36
4.3756504e-35
-1.3166639e-36
4.4635241e-35
-1.7081785e-36
2.4015433e-35
-1.1141942e-36
1.113687e-35
-3.8962614e-37
4.0711912e-36
-7.0477844e-38
9.1687362e-37
-6.7581876e-39
1.1864829e-37
-3.5823697e-40
8.7408323e-39
-9.9127835e-42
3.723091e-40
-1.4192056e-43
8.5246103e-42
-8.8324395e-46
1.0306447e-43
-2.564655e-48
5.4942445e-46
-3.7085363e-51
1.3818885e-48
-1.6081143e-51
2.4370552e-51
-5.0504903e-51
1.318807e-51
-9.5221529e-51
4.7391834e-51
-9.6000829e-51
5.9473753e-51
-2.9452861e-51
4.351542e-51
-1.2630759e-54
7.5959328e-52
-2.5464514e-55
2.7808294e-55
-1.9976128e-56
4.7921561e-56
-9.4316104e-58
2.8257211e-57
-8.7427731e-60
1.0036006e-58
-4.9588076e-62
6.5598386e-61
-1.6633838e-68
2.2917598e-63
-3.5459584e-68
6.1297012e-70
-1.0252944e-67
-1.8861923e-69
-5.2910565e-68
-7.1791325e-69
-8.4279163e-69
-4.3813413e-69
-4.0586231e-69
-1.1421644e-69
-3.8559175e-69
-9.1701208e-70
-6.8899541e-69
-1.0745409e-69
-5.2581286e-69
-2.3651465e-69
-3.0472868e-69
-1.7023227e-69
-1.5706123e-69
-1.0905426e-69
-9.5535223e-70
-6.3469058e-70
-4.1693921e-70
-4.1980634e-70
-1.3185316e-70
-2.4109235e-70
-3.6769417e-71
-8.3027893e-71
-3.1701035e-72
-3.0734742e-71
-5.4777909e-74
-2.9619953e-72
-4.2588832e-76
-5.2929717e-74
-2.2673068e-78
-4.1649092e-76
-9.1946243e-81
-2.2348348e-78
-3.1123993e-83
-9.1115377e-81
-1.0156386e-85
-3.0843544e-83
-3.741504e-88
-9.9761861e-86
-1.555784e-90
-3.9296087e-88
-5.9271364e-93
-1.9967273e-90
-1.7017303e-95
-9.7152262e-93
-7.6251726e-95
2.215407e-93
-1.1134915e-92
5.2342618e-91
-9.7751626e-91
8.5441874e-89
-1.2608742e-88
1.0884247e-86
-1.3223911e-86
1.1699519e-84
-1.209898e-84
1.0967895e-82
-9.8732675e-83
9.9106685e-81
-8.7379656e-81
9.4465474e-79
-8.2676329e-79
1.1741684e-76
-1.0341607e-76
2.2012097e-74
-1.9573403e-74
4.4841841e-72
-3.9275222e-72
1.9052592e-70
-1.5453227e-70
8.7724718e-70
-5.1850512e-70
2.5245011e-69
-1.2467951e-69
6.1920056e-69
-2.9145395e-69
1.0682686e-68
-6.2072825e-69
7.5925943e-69
-3.8687163e-69
1.3472116e-68
-4.7965007e-69
1.8568889e-67
-4.8918764e-68
2.5157456e-67
-8.0686056e-68
1.7390217e-67
-5.8293983e-68
2.8593656e-68
-5.6457983e-69
5.3329403e-68
-6.1337548e-69
6.1901825e-67
-2.3767096e-68
2.5289413e-65
-3.9961015e-67
1.1774688e-62
1.8168639e-64
4.6075062e-59
2.0433396e-60
2.6989709e-56
2.0030186e-57
1.7736575e-54
1.8838351e-55
3.9511909e-53
5.7114774e-54
3.449809e-52
6.1357185e-53
1.0656276e-50
2.1516716e-51
2.1593472e-47
5.7342632e-48
6.5834847e-47
2.5604027e-47
1.1357934e-46
5.0449063e-47
6.2196645e-46
2.5080554e-46
1.3002799e-44
5.4715785e-45
2.7749049e-43
1.3323896e-43
5.2666056e-42
2.909101e-42
8.7574939e-41
5.5964586e-41
1.2539203e-39
9.3425776e-40
1.5176121e-38
1.3317344e-38
1.5315747e-37
1.6035441e-37
1.271258e-36
1.6180685e-36
8.321003e-36
1.3285144e-35
3.8720955e-35
8.1877075e-35
1.1180192e-34
3.40341e-34
1.9272255e-34
9.145853e-34
2.264824e-34
1.9415464e-33
9.791051e-35
3.7229184e-33
-9.4750679e-35
3.8015017e-33
-1.298213e-34
2.0315902e-33
-8.5745107e-35
9.5650381e-34
-3.0126727e-35
3.5015277e-34
-5.5678841e-36
7.9153682e-35
-5.6272396e-37
1.0490649e-35
-3.2765252e-38
8.1710786e-37
-1.0428525e-39
3.8359275e-38
-1.7611508e-41
1.0136698e-39
-1.3932852e-43
1.451321e-41
-5.5777874e-46
9.8849225e-44
-1.8315982e-48
3.4497226e-46
-1.5303313e-48
1.7552361e-48
-4.0171498e-48
1.4550449e-48
-5.9333051e-48
3.9172637e-48
-5.1024746e-48
4.3427188e-48
-8.9759277e-49
2.3327287e-48
-9.0497473e-52
2.6391436e-49
-1.3414198e-52
2.3042708e-52
-8.5067528e-54
2.9285259e-53
-4.1697264e-55
1.4425731e-54
-4.1364466e-57
5.4092159e-56
-3.0304e-59
3.8421622e-58
-1.254964e-61
1.7989889e-60
-3.9585737e-64
3.3955989e-63
-7.7258188e-65
-8.3046476e-66
-2.7067012e-65
-3.5522459e-66
-4.69685e-66
-2.4454996e-66
-2.792907e-66
-7.3412406e-67
-1.7570564e-66
-6.851759e-67
-2.7178186e-66
-5.8103136e-67
-2.1204814e-66
-1.0585048e-66
-1.2162689e-66
-7.8815555e-67
-5.7978381e-67
-4.8949117e-67
-3.2954201e-67
-2.6269599e-67
-1.3458679e-67
-1.6234584e-67
-4.0371591e-68
-7.9187692e-68
-1.0783064e-68
-2.5668603e-68
-8.9423314e-70
-8.9936689e-69
-1.4988129e-71
-8.3427448e-70
-1.1365495e-73
-1.4507306e-71
-5.9258105e-76
-1.1151735e-73
-2.3612653e-78
-5.8695925e-76
-7.8785787e-81
-2.3729523e-78
-2.5464976e-83
-7.8742821e-81
-9.3152692e-86
-2.6132775e-83
-3.7863682e-88
-1.1337715e-85
-1.4049886e-90
-5.6302032e-88
-3.8147647e-93
-2.6678872e-90
-1.9822998e-92
4.4271081e-91
-2.5203626e-90
1.110119e-88
-2.3435455e-88
1.8713648e-86
-3.1175525e-86
2.4577755e-84
-3.3788063e-84
2.7412875e-82
-3.1889801e-82
2.6960504e-80
-2.7224058e-80
2.4528889e-78
-2.1826155e-78
2.3666073e-76
-2.0673991e-76
3.0129399e-74
-2.6473417e-74
5.8102938e-72
-5.1558415e-72
1.2237189e-69
-1.0686576e-69
5.4253063e-68
-4.3794588e-68
2.6250505e-67
-1.5705952e-67
7.9988886e-67
-4.384171e-67
2.0823108e-66
-1.1055019e-66
3.417835e-66
-2.2159728e-66
2.6373171e-66
-1.5013923e-66
5.2405216e-66
-1.9826378e-66
5.3411482e-65
-1.6142903e-65
6.8178135e-65
-2.4080945e-65
3.5116697e-65
-1.5826163e-65
6.46284e-66
-1.3291399e-66
3.2059851e-65
-3.2341374e-66
1.6684671e-64
-7.1883808e-66
1.5143649e-62
-2.1561736e-64
5.636366e-59
1.2974637e-60
3.5543893e-56
1.983755e-57
8.3011806e-54
7.4716453e-55
2.3091385e-52
2.8352007e-53
1.6217613e-50
2.7078656e-51
1.39941e-49
2.8787272e-50
6.4616194e-48
1.4979807e-48
3.7847634e-45
1.062347e-45
2.3545449e-44
9.7357105e-45
4.2783932e-44
2.2091116e-44
9.7128809e-44
5.1214912e-44
1.2733257e-42
6.1109529e-43
2.5382463e-41
1.3561978e-41
4.5634606e-40
2.788628e-40
7.191756e-39
5.0602222e-39
9.7679702e-38
7.9784304e-38
1.1226652e-36
1.0755801e-36
1.0776803e-35
1.227155e-35
8.5446268e-35
1.1781346e-34
5.3982916e-34
9.2930356e-34
2.46803e-33
5.5952115e-33
7.1224235e-33
2.3117956e-32
1.2285912e-32
6.1955914e-32
1.4402952e-32
1.2929629e-31
6.7073878e-33
2.4821145e-31
-5.3794564e-33
2.5372218e-31
-7.8687002e-33
1.3524601e-31
-5.2762903e-33
6.4677046e-32
-1.8655163e-33
2.3739511e-32
-3.5252585e-34
5.3899041e-33
-3.7576833e-35
7.3167606e-34
-2.4064166e-36
6.0256679e-35
-8.7919304e-38
3.1193069e-36
-1.7306089e-39
9.4835413e-38
-1.7308858e-41
1.587114e-39
-9.1832159e-44
1.3718961e-41
-7.1762925e-46
6.3990887e-44
-8.4689252e-46
8.7530681e-46
-2.5649327e-45
1.2141339e-45
-3.0920302e-45
2.5859347e-45
-2.108242e-45
2.587379e-45
-2.1746622e-46
9.9016357e-46
-5.2689943e-49
7.2036054e-47
-5.5469784e-50
1.518403e-49
-2.3858018e-51
1.3666245e-50
-1.319264e-52
4.684694e-52
-1.3427446e-54
2.0175321e-53
-1.0325342e-56
1.4802155e-55
-1.4215918e-58
7.4707503e-58
-5.6438523e-61
4.97681e-60
-3.8897228e-62
-8.9177727e-64
-1.2006495e-62
-1.8657716e-63
-2.3245932e-63
-1.150298e-63
-1.5574614e-63
-4.2410512e-64
-8.2194969e-64
-4.4213098e-64
-9.21983e-64
-3.0213761e-64
-7.3343546e-64
-4.0212429e-64
-4.1341357e-64
-3.0839308e-64
-1.8147269e-64
-1.8364752e-64
-9.6232295e-65
-9.0566425e-65
-3.6758426e-65
-5.2447831e-65
-1.0452896e-65
-2.2162072e-65
-2.6727983e-66
-6.753538e-66
-2.1317725e-67
-2.2351321e-66
-3.4654579e-69
-1.9927204e-67
-2.5628484e-71
-3.3697058e-69
-1.3081801e-73
-2.5300706e-71
-5.1223592e-76
-1.3236738e-73
-1.6848788e-78
-5.1855129e-76
-5.4154383e-81
-1.6974614e-78
-1.9364103e-83
-6.307143e-81
-7.6560388e-86
-2.6755966e-83
-2.7628833e-88
-1.2913248e-85
-7.1165834e-91
-5.9535993e-88
-4.2004276e-90
7.5431979e-89
-4.7898475e-88
1.9948731e-86
-4.6891902e-86
3.4581418e-84
-6.4081308e-84
4.6981971e-82
-7.1827053e-82
5.4042725e-80
-7.0012846e-80
5.5318037e-78
-6.1862171e-78
5.2910775e-76
-5.2044144e-76
5.1331582e-74
-4.4782358e-74
6.6924032e-72
-5.8971085e-72
1.3277032e-69
-1.1814722e-69
2.8910361e-67
-2.5548827e-67
1.3375721e-65
-1.0821561e-65
6.803091e-65
-4.243616e-65
2.1925683e-64
-1.3178225e-64
6.0053692e-64
-3.5033989e-64
9.3445678e-64
-6.6875582e-64
8.0020007e-64
-5.0328319e-64
1.753821e-63
-7.1079218e-64
1.3622969e-62
-4.6993205e-63
1.6602808e-62
-6.4204869e-63
5.2434547e-63
-2.7541993e-63
1.402835e-63
-2.9041215e-64
1.4654533e-62
-1.4331039e-63
6.4217084e-62
-3.5879942e-63
6.6813115e-60
-5.1333685e-62
1.8048057e-56
5.4618341e-58
3.6978822e-54
2.4261074e-55
3.9913917e-52
3.9789129e-53
4.9089994e-51
7.115683e-52
1.7228816e-48
3.0046882e-49
3.7558279e-47
8.4495217e-48
3.2817717e-45
8.6372627e-46
1.6156553e-43
4.8536103e-44
7.9305547e-42
3.3511805e-42
1.5726486e-41
9.8062045e-42
2.1401609e-41
1.4857971e-41
1.1194081e-40
6.4204816e-41
1.9599592e-39
1.1497852e-39
3.3203694e-38
2.2090297e-38
4.9346286e-37
3.7654459e-37
6.3287363e-36
5.5870944e-36
6.8803758e-35
7.1026879e-35
6.2554625e-34
7.6523445e-34
4.7161383e-33
6.9616732e-33
2.8637809e-32
5.2544457e-32
1.2825798e-31
3.0808205e-31
3.6947349e-31
1.2628041e-30
6.3777847e-31
3.3722214e-30
7.4608904e-31
6.9153916e-30
3.7251025e-31
1.3244304e-29
-2.437158e-31
1.3553704e-29
-3.859163e-31
7.2301975e-30
-2.6324452e-31
3.5122366e-30
-9.3741276e-32
1.2928751e-30
-1.8129223e-32
2.9485803e-31
-2.0420725e-33
4.1015848e-32
-1.4406211e-34
3.5766385e-33
-6.0040821e-36
2.043208e-34
-1.356908e-37
7.0947421e-36
-1.6548499e-39
1.3657036e-37
-1.1893784e-41
1.4441526e-39
-2.7496547e-43
9.286477e-42
-4.6821634e-43
3.7231693e-43
-1.2772073e-42
8.2499359e-43
-1.3626949e-42
1.3582022e-42
-7.0772537e-43
1.2370262e-42
-5.0533107e-44
3.5035476e-43
-2.4599867e-46
1.8751473e-44
-1.7990725e-47
7.9181372e-47
-2.6680344e-49
4.9067656e-48
-4.3754338e-50
6.2374606e-50
-3.2239948e-52
8.1002129e-51
-3.8641186e-54
4.1023739e-53
-5.834819e-56
3.2702996e-55
-9.9935665e-59
2.447119e-57
-1.8101689e-59
1.5071193e-61
-4.6659842e-60
-9.7157391e-61
-1.1040791e-60
-4.8497256e-61
-7.9148634e-61
-2.2800807e-61
-4.1134914e-61
-2.4741559e-61
-3.1037218e-61
-1.3779693e-61
-2.221886e-61
-1.3317948e-61
-1.2154295e-61
-1.0399133e-61
-4.8946137e-62
-5.8746945e-62
-2.4211301e-62
-2.6565593e-62
-8.6539215e-63
-1.441224e-62
-2.3334074e-63
-5.3739366e-63
-5.7130421e-64
-1.5402465e-63
-4.3843738e-65
-4.8100438e-64
-6.9153853e-67
-4.1191421e-65
-4.9890109e-69
-6.7726957e-67
-2.4940881e-71
-4.9979758e-69
-9.6069099e-74
-2.5428281e-71
-3.1309412e-76
-9.7974917e-74
-9.8790829e-79
-3.5126863e-76
-3.440388e-81
-1.2855637e-78
-1.3178475e-83
-5.3072636e-81
-4.6233899e-86
-2.4822023e-83
-1.1322729e-88
-1.1129739e-85
-7.4721132e-88
1.1165317e-86
-7.8127579e-86
3.1003125e-84
-8.0183719e-84
5.5109231e-82
-1.122673e-81
7.7276436e-80
-1.297423e-79
9.201947e-78
-1.3107981e-77
9.7408582e-76
-1.1979921e-75
9.7438081e-74
-1.0498037e-73
9.9700027e-72
-9.5126157e-72
1.3064207e-69
-1.1604159e-69
2.6656075e-67
-2.4051692e-67
5.9980026e-65
-5.5512647e-65
2.8956358e-63
-2.36169e-63
1.5481124e-62
-1.0503714e-62
5.2580839e-62
-3.4355341e-62
1.4757635e-61
-9.4107018e-62
2.2332379e-61
-1.748263e-61
2.1552351e-61
-1.4838358e-61
5.2738768e-61
-2.2832853e-61
3.1531753e-60
-1.2352304e-60
3.7013368e-60
-1.5563478e-60
5.4514224e-61
-3.096463e-61
3.2225455e-61
-7.7702175e-62
5.7834386e-60
-6.0813111e-61
3.1015707e-59
-1.6175421e-60
1.522984e-57
-4.2820403e-60
9.6314733e-55
3.5216102e-56
6.6126057e-53
5.0771621e-54
2.5862921e-51
2.8839497e-52
1.5130553e-48
2.5269852e-49
1.6030594e-47
3.2346548e-48
8.6544746e-45
2.1317852e-45
1.7923296e-42
5.6085286e-43
1.1525286e-41
4.1288119e-42
2.3455227e-39
1.0177956e-39
5.7425889e-39
4.2492767e-39
6.3449631e-39
5.4065782e-39
1.0929229e-38
8.7779998e-39
1.3000523e-37
8.4271049e-38
2.0565916e-36
1.4705845e-36
2.8688874e-35
2.3437211e-35
3.457169e-34
3.259156e-34
3.5364138e-33
3.8902083e-33
3.0298043e-32
3.9412541e-32
2.16044e-31
3.3822201e-31
1.254148e-30
2.4307441e-30
5.4811341e-30
1.3827079e-29
1.573396e-29
5.6124748e-29
2.716406e-29
1.4925094e-28
3.1690371e-29
3.0055937e-28
1.6907957e-29
5.7212258e-28
-8.7869613e-30
5.862043e-28
-1.5405509e-29
3.1400147e-28
-1.0724215e-29
1.5498228e-28
-3.8522061e-30
5.7198157e-29
-7.6427575e-31
1.3102328e-29
-9.1236089e-32
1.870078e-30
-7.0739883e-33
1.7300292e-31
-3.3217203e-34
1.0868581e-32
-8.5466153e-36
4.2528224e-34
-1.2706298e-37
9.3331394e-36
-1.289707e-39
1.2075318e-37
-1.151575e-40
1.1655984e-39
-2.524643e-40
1.7099887e-40
-4.987333e-40
4.3954587e-40
-5.0872008e-40
5.8599208e-40
-1.7033798e-40
4.4648071e-40
-1.0255423e-41
8.895988e-41
-9.1471431e-44
4.2325707e-42
-4.9923497e-45
3.2697006e-44
-3.4463923e-47
1.5090719e-45
-2.5210061e-47
1.2802813e-47
-1.0874256e-49
7.3914804e-48
-1.5802647e-51
1.5636403e-50
-2.8236678e-54
1.5011086e-52
-1.2423133e-56
1.3058963e-55
-6.465118e-57
5.8923558e-59
-1.6273747e-57
-3.9076536e-58
-5.1257923e-58
-1.8706225e-58
-3.7245851e-58
-1.1490683e-58
-1.6770527e-58
-1.2162637e-58
-8.6005444e-59
-5.5466824e-59
-5.9630042e-59
-3.9056019e-59
-3.1237756e-59
-3.0590338e-59
-1.1516112e-59
-1.6253476e-59
-5.3163132e-60
-6.734538e-60
-1.7804102e-60
-3.4228574e-60
-4.5562748e-61
-1.1717936e-60
-1.0686306e-61
-3.2066058e-61
-7.8977727e-63
-9.0894241e-62
-1.2095709e-64
-7.4778274e-63
-8.5139487e-67
-1.1958205e-64
-4.1763178e-69
-8.7202131e-67
-1.5861456e-71
-4.2884606e-69
-5.098087e-74
-1.7213113e-71
-1.5728406e-76
-6.3114534e-74
-5.3132891e-79
-2.2579365e-76
-1.9684895e-81
-9.0407277e-79
-6.7095141e-84
-4.090371e-81
-1.5645709e-86
-1.782495e-83
-1.1403454e-85
1.456347e-84
-1.1121835e-83
4.2324431e-82
-1.1929902e-81
7.6993075e-80
-1.7081342e-79
1.1109525e-77
-2.0296199e-77
1.3699601e-75
-2.1214233e-75
1.5040233e-73
-2.0148456e-73
1.5655701e-71
-1.8354391e-71
1.6820766e-69
-1.7444741e-69
2.2688793e-67
-2.0950802e-67
4.7529135e-65
-4.4481656e-65
1.105597e-62
-1.0440534e-62
5.5624781e-61
-4.5948271e-61
3.1239591e-60
-2.2867849e-60
1.1150842e-59
-7.9320611e-60
3.1665358e-59
-2.1912487e-59
5.102526e-59
-4.0266903e-59
5.6287047e-59
-3.8941991e-59
1.4375827e-58
-6.6272415e-59
6.6877473e-58
-2.9465436e-58
7.6246981e-58
-3.4734268e-58
9.5351361e-59
-5.151181e-59
9.14161e-59
-2.3999453e-59
2.0583012e-57
-2.1481235e-58
1.1178684e-56
-5.6449172e-58
2.4091687e-55
1.6543135e-60
1.5972886e-53
7.0196709e-55
1.8216855e-51
1.6247884e-52
3.9638718e-49
5.392165e-50
5.2590412e-47
8.432687e-48
2.0639873e-45
4.736876e-46
1.8627549e-42
5.0903132e-43
5.925983e-40
2.0689507e-40
3.2645339e-39
1.3097574e-39
3.6640042e-37
1.6193543e-37
1.7517194e-36
1.291392e-36
1.8424954e-36
1.8595696e-36
1.7886472e-36
2.0085856e-36
7.8309134e-36
6.1415994e-36
1.0949908e-34
8.3588222e-35
1.4274061e-33
1.2341968e-33
1.6084265e-32
1.6017716e-32
1.5405526e-31
1.7877954e-31
1.2367631e-30
1.6950209e-30
8.2846853e-30
1.3637796e-29
4.5656689e-29
9.2707183e-29
1.9363962e-28
5.0879719e-28
5.5233134e-28
2.0391711e-27
9.5168858e-28
5.3898788e-27
1.1041555e-27
1.0626969e-26
6.2628408e-28
2.0033782e-26
-2.5025169e-28
2.0554001e-26
-5.0178901e-28
1.1087934e-26
-3.5826928e-28
5.5742358e-27
-1.301278e-28
2.0646585e-27
-2.6575316e-29
4.7540093e-28
-3.3780504e-30
6.9799356e-29
-2.8786712e-31
6.8770516e-30
-1.5117646e-32
4.7467696e-31
-4.4197024e-34
2.0763105e-32
-8.1210309e-36
5.1847512e-34
-1.2514859e-37
8.3459628e-36
-5.030755e-38
1.5471616e-37
-1.1120739e-37
8.108311e-38
-1.5494885e-37
1.809708e-37
-1.2236585e-37
1.9932536e-37
-1.8579851e-38
9.5316162e-38
-1.0853496e-39
9.8587775e-39
-2.8197491e-41
4.9719715e-40
-1.1330062e-42
1.1180219e-41
-3.2831921e-45
3.7590974e-43
-1.3936022e-45
1.0948869e-45
-4.4941241e-47
3.4456419e-46
-9.5525079e-50
7.1332443e-48
-2.7736691e-53
9.5710133e-51
-4.9325538e-54
1.6209154e-54
-2.2207298e-54
3.2660893e-56
-5.084887e-55
-1.4062376e-55
-2.2343413e-55
-6.7016898e-56
-1.6015284e-55
-5.4031033e-56
-5.8629516e-56
-5.271033e-56
-2.1234335e-56
-2.7205889e-56
-1.4279526e-56
-1.025925e-56
-7.0716496e-57
-7.9169205e-57
-2.3849277e-57
-3.9302084e-57
-1.0283829e-57
-1.4920465e-57
-3.2337193e-58
-7.10611e-58
-7.8683102e-59
-2.3001026e-58
-1.7685293e-59
-6.0048665e-59
-1.2602856e-60
-1.5237242e-59
-1.8761829e-62
-1.2053726e-60
-1.2904831e-64
-1.8804132e-62
-6.218771e-67
-1.3321194e-64
-2.3338501e-69
-6.5381254e-67
-7.3515039e-72
-2.76754e-69
-2.2137981e-74
-9.9457069e-72
-7.239032e-77
-3.4723876e-74
-2.5897226e-79
-1.3456845e-76
-8.5686527e-82
-5.8799945e-79
-1.9039457e-84
-2.4882177e-81
-1.5179784e-83
1.6926923e-82
-1.3999637e-81
5.1373513e-80
-1.5660882e-79
9.5505545e-78
-2.2900353e-77
1.4150198e-75
-2.7920995e-75
1.8015924e-73
-3.0109858e-73
2.0553105e-71
-2.9693294e-71
2.2274078e-69
-2.8202999e-69
2.5101871e-67
-2.8077946e-67
3.5736571e-65
-3.5572178e-65
7.6028491e-63
-7.2571113e-63
1.8270221e-60
-1.755236e-60
9.5588658e-59
-8.0244294e-59
5.6334472e-58
-4.4216115e-58
2.119056e-57
-1.6120859e-57
6.0115489e-57
-4.4761977e-57
1.0402009e-56
-8.262954e-57
1.3270813e-56
-9.1709688e-57
3.5338981e-56
-1.735504e-56
1.3032266e-55
-6.2922449e-56
1.4600157e-55
-7.1624205e-56
2.7067469e-56
-1.1575219e-56
2.7329514e-56
-7.8255142e-57
6.0955673e-55
-7.0510143e-56
3.4952775e-54
-1.9620619e-55
4.7635714e-53
1.4703148e-55
2.5520186e-51
1.340639e-52
4.5918941e-49
4.6911608e-50
1.1316342e-46
2.9690986e-47
1.3004633e-46
3.9867723e-47
5.2841603e-43
1.3194922e-43
3.2389741e-40
9.7773448e-41
7.1651287e-38
2.5924693e-38
6.1021858e-37
2.5925774e-37
4.0869126e-35
1.8588439e-35
4.2967016e-34
2.8992841e-34
5.4220582e-34
5.9486037e-34
4.4054191e-34
5.3451221e-34
5.5861635e-34
6.5703942e-34
5.0621744e-33
4.2281737e-33
6.1314953e-32
5.5586044e-32
6.4274991e-31
6.695226e-31
5.7315841e-30
6.9540909e-30
4.2860734e-29
6.1392746e-29
2.6759557e-28
4.5984737e-28
1.3863054e-27
2.9286287e-27
5.6584242e-27
1.5371665e-26
1.5964616e-26
6.0535142e-26
2.7337461e-26
1.5849784e-25
3.140065e-26
3.0431001e-25
1.8901525e-26
5.6869031e-25
-5.5274546e-27
5.8449986e-25
-1.3291615e-26
3.1683161e-25
-9.8020198e-27
1.6298573e-25
-3.6131068e-27
6.0725839e-26
-7.6417425e-28
1.408401e-26
-1.0427415e-28
2.1390109e-27
-9.7848295e-30
2.2613833e-28
-5.7234123e-31
1.7165489e-29
-1.912127e-32
8.3551071e-31
-4.502492e-34
2.3894587e-32
-1.5500875e-35
5.0475031e-34
-1.7267863e-35
2.9986747e-35
-3.9073364e-35
3.4055493e-35
-4.199965e-35
6.0888067e-35
-1.9493463e-35
5.6540776e-35
-2.5835947e-37
1.4081667e-35
-6.1223531e-38
1.5709494e-37
-9.0811109e-39
3.5208844e-38
-2.0459278e-40
4.1452122e-39
-2.0955661e-43
7.3943984e-41
-1.1092219e-44
6.2687978e-44
-1.6121256e-45
2.6271152e-45
-9.9176186e-49
2.5266149e-46
-4.8452896e-51
1.0952058e-49
-1.7552308e-51
3.6340748e-52
-7.017318e-52
1.3472461e-53
-1.4686984e-52
-4.6881876e-53
-8.3974546e-53
-2.2921514e-53
-6.149446e-53
-2.4349189e-53
-1.7807149e-53
-2.6037316e-53
-4.7494962e-54
-1.046534e-53
-3.0627178e-54
-2.4274407e-54
-1.4177771e-54
-1.8136749e-54
-4.3756951e-55
-8.370526e-55
-1.7649921e-55
-2.9179869e-55
-5.2241519e-56
-1.3055454e-55
-1.210617e-56
-3.990503e-56
-2.6110656e-57
-9.9590403e-57
-1.7972234e-58
-2.2845536e-57
-2.6038346e-60
-1.7397769e-58
-1.7539211e-62
-2.7057462e-60
-8.3428952e-65
-1.8243174e-62
-3.0717317e-67
-9.5171719e-65
-9.4843112e-70
-3.9504207e-67
-2.7854064e-72
-1.3915391e-69
-8.8031742e-75
-4.7376825e-72
-3.03624e-77
-1.7743686e-74
-9.741961e-80
-7.4759225e-77
-2.063013e-82
-3.0687658e-79
-1.7855703e-81
1.7689386e-80
-1.5745797e-79
5.5978818e-78
-1.8342748e-77
1.0623843e-75
-2.7364579e-75
1.6137525e-73
-3.4184991e-73
2.1168126e-71
-3.796027e-71
2.5025136e-69
-3.8768703e-69
2.8288366e-67
-3.840029e-67
3.3425869e-65
-4.0108185e-65
5.0183194e-63
-5.3562893e-63
1.0988547e-60
-1.0655924e-60
2.7244612e-58
-2.6565463e-58
1.4786434e-56
-1.2650492e-56
9.1208181e-56
-7.6571037e-56
3.5547248e-55
-2.8823674e-55
1.0190327e-54
-8.0995973e-55
1.8760956e-54
-1.5214618e-54
2.7913359e-54
-1.9469016e-54
7.7883442e-54
-4.0867255e-54
2.3308147e-53
-1.2256715e-53
2.5984122e-53
-1.3646456e-53
7.0041581e-54
-2.8466762e-54
9.770521e-54
-2.5768781e-54
1.6754321e-52
-1.9544864e-53