/*--------------------------------*- C++ -*----------------------------------*\
  =========                 |
  \\      /  F ield         | OpenFOAM: The Open Source CFD Toolbox
   \\    /   O peration     | Website:  https://openfoam.org
    \\  /    A nd           | Version:  9
     \\/     M anipulation  |
\*---------------------------------------------------------------------------*/
FoamFile
{
    format      ascii;
    class       volScalarField;
    location    "0.31";
    object      p_rgh;
}
// * * * * * * * * * * * * * * * * * * * * * * * * * * * * * * * * * * * * * //

dimensions      [1 -1 -2 0 0 0 0];

internalField   nonuniform List<scalar> 
10000
(
0
0.021713586
0.05812132
0.10525028
0.16552675
0.23994748
0.32890413
0.43264087
0.55150366
0.68582509
0.83587334
1.0019975
1.184499
1.3836765
1.5998005
1.8330479
2.0835218
2.3511964
2.6358464
2.9370871
3.2543821
3.5870149
3.9341675
4.2949022
4.6680901
5.0520606
5.4439103
5.8378757
6.2363765
6.6408887
7.0486187
7.4571157
7.8639903
8.2668454
8.6632364
9.0506651
9.4265859
9.7883688
10.13325
10.458657
10.762295
11.042091
11.296172
11.522864
11.720675
11.888286
12.024572
12.128627
12.199737
12.237348
12.2411
12.210901
12.147048
12.04996
11.920271
11.758828
11.566672
11.345018
11.095357
10.819474
10.519411
10.1976
9.8566406
9.4990044
9.127246
8.743867
8.3513162
7.9521453
7.5488627
7.1439064
6.7396112
6.3382475
5.9419243
5.5552697
5.1724805
4.793277
4.4242111
4.0679622
3.7257998
3.3986623
3.0874075
2.7927575
2.5151757
2.2548886
2.0119052
1.7860594
1.5770591
1.3846497
1.2085759
1.0485654
0.90434719
0.77565344
0.66224269
0.56387497
0.48030652
0.4113993
0.3570623
0.31661385
0.28883076
0.28041869
-0.0032887251
0.011509039
0.045394064
0.09141424
0.15097125
0.22489778
0.31337738
0.41667222
0.53511447
0.66897412
0.81861178
0.98432904
1.1664029
1.3651299
1.5807388
1.8134206
2.0632908
2.3302928
2.6142329
2.9148021
3.2314955
3.5635787
3.9100809
4.2698022
4.6412741
5.0229557
5.4144153
5.8145789
6.2187582
6.6274416
7.0388844
7.4509535
7.8613399
8.2676469
8.6673969
9.0580458
9.4369982
9.8016185
10.149273
10.47746
10.78385
11.066295
11.322862
11.551803
11.751568
11.920802
12.058345
12.163253
12.234809
12.272498
12.276043
12.245357
12.180678
12.082403
11.951165
11.787825
11.593499
11.369505
11.117386
10.838979
10.536343
10.211786
9.8678569
9.50705
9.1319144
8.7450509
8.3490256
7.9464094
7.5397189
7.1314116
6.723815
6.3191408
5.9194919
5.5272403
5.1404387
4.7636372
4.3974362
4.0431517
3.7023292
3.3762859
3.0660415
2.7722956
2.4954819
2.235811
1.9933179
1.7679097
1.5593722
1.3674581
1.191902
1.0324172
0.88871418
0.7605156
0.64757201
0.54964063
0.46645533
0.39785757
0.34373664
0.30342502
0.27570851
0.26745515
-0.028870713
-0.016665054
0.015382465
0.060060163
0.11868384
0.19180884
0.27957451
0.38220512
0.499949
0.63316762
0.78218413
0.94728712
1.1287901
1.3269665
1.5420717
1.7743324
2.0238435
2.2905745
2.5744035
2.8750539
3.1920439
3.5247064
3.8721784
4.2333421
4.6067321
4.990183
5.3876706
5.7918432
6.2014664
6.6156074
7.032608
7.4503776
7.8666037
8.2788456
8.6845643
9.0811275
9.4658721
9.8361454
10.189316
10.522853
10.834372
11.12166
11.382706
11.615694
11.819011
11.991254
12.131235
12.237973
12.310709
12.348923
12.352331
12.320847
12.254722
12.154376
12.020472
11.853924
11.655875
11.427721
11.171079
10.887838
10.580121
10.25024
9.9006967
9.5340584
9.1529555
8.7600342
8.3579567
7.9493567
7.5368432
7.1229198
6.7099514
6.3001628
5.8955559
5.4977572
5.1072417
4.7273094
4.3593837
4.0041604
3.6629012
3.3367282
3.0265373
2.7329666
2.4564047
2.1970357
1.9548866
1.7298747
1.5218134
1.330464
1.1555294
0.99669201
0.85365531
0.72613217
0.61382454
0.51648144
0.43382754
0.36573257
0.31206726
0.27210643
0.2445589
0.23645132
-0.069889248
-0.058773601
-0.028024516
0.015503186
0.073073982
0.14523661
0.23209229
0.33376417
0.45057849
0.58287928
0.73097486
0.8952004
1.0758697
1.2732926
1.4877826
1.7195629
1.9687508
2.2353998
2.5194536
2.820678
3.1386723
3.4728831
3.8225803
4.1868988
4.5649915
4.956399
5.3542059
5.762697
6.178628
6.5999155
7.0245162
7.4502138
7.8746157
8.2951934
8.7093064
9.1142324
9.5072337
9.885598
10.246636
10.587741
10.906454
11.200488
11.467752
11.706354
11.914612
12.091054
12.234438
12.343737
12.418163
12.457175
12.460501
12.428056
12.360082
12.257011
12.119513
11.948577
11.745419
11.511499
11.248511
10.958411
10.643359
10.305789
9.9482458
9.5733305
9.1837685
8.7823084
8.3717152
7.9547162
7.5340189
7.1122175
6.6917331
6.2748694
5.8637075
5.4600797
5.0656172
4.6824476
4.3109488
3.9531599
3.610172
3.2829048
2.9720838
2.6782382
2.4016756
2.142522
1.9007726
1.6763157
1.4689319
1.2783571
1.1042673
0.9463214
0.80419405
0.67756237
0.56610099
0.46954186
0.38757219
0.32005429
0.26691572
0.22742902
0.20017915
0.19219633
-0.12701846
-0.11666351
-0.086857777
-0.044442755
0.011996211
0.083032007
0.16867514
0.26912023
0.38469367
0.51572575
0.66257254
0.82558197
1.0051092
1.201539
1.4152061
1.6463599
1.8952071
2.1618835
2.4463826
2.7485444
3.0680658
3.4044725
3.7571019
4.1251207
4.5075189
4.903117
5.3093585
5.7256149
6.1500317
6.5805502
7.0149876
7.4510044
7.8860948
8.3176058
8.7427799
9.1587909
9.562779
9.9518984
10.323345
10.674401
11.002502
11.305267
11.580514
11.826262
12.040764
12.222493
12.370162
12.482702
12.559302
12.599409
12.602709
12.56909
12.49881
12.392344
12.250393
12.073973
11.864355
11.623063
11.351858
11.052827
10.728194
10.380472
10.012322
9.6264631
9.225721
8.8129992
8.3912029
7.9631878
7.5317636
7.0996382
6.669356
6.2433161
5.8237288
5.4125719
5.011597
4.6224503
4.2470314
3.8860106
3.540539
3.2115084
2.8995549
2.6051061
2.3283833
2.0694367
1.8281958
1.6044842
1.3980259
1.2085125
1.0355743
0.87882566
0.73792232
0.61249729
0.50219271
0.40668911
0.32566294
0.25893499
0.20647828
0.16758847
0.14076726
0.13309303
-0.19941409
-0.18961789
-0.1606635
-0.11932048
-0.064065221
0.0056264572
0.089843833
0.18879547
0.30280289
0.43224628
0.57749987
0.73895316
0.91704734
1.1122091
1.3248058
1.5551813
1.8036441
2.0703979
2.3555178
2.6589551
2.9805086
3.3197913
3.6762274
4.0490519
4.4372921
4.8398024
5.2546723
5.6804616
6.1153441
6.5572175
7.0037855
7.4525819
7.900962
8.3461246
8.7851628
9.2151037
9.6329185
10.035577
10.420112
10.783669
11.123544
11.437227
11.722421
11.977049
12.199282
12.387545
12.540509
12.65706
12.736338
12.777791
12.781093
12.746115
12.673104
12.56253
12.415146
12.231992
12.01439
11.763945
11.482502
11.172252
10.835563
10.47506
10.093537
9.6938985
9.2791266
8.8522977
8.4164732
7.9746683
7.5298563
7.0848923
6.6424758
6.205152
5.7752591
5.35487
4.9458138
4.5496714
4.1686937
3.8032318
3.4543701
3.1229026
2.8093495
2.5140163
2.2370177
1.9782981
1.7376876
1.5149157
1.3096309
1.1214657
0.95000945
0.79480043
0.65544708
0.53152575
0.42264346
0.32845189
0.24860668
0.18293106
0.13133843
0.093156124
0.066817131
0.059542472
-0.28662602
-0.27740693
-0.24927198
-0.20902186
-0.1551238
-0.086953954
-0.0044066747
0.092731068
0.20483751
0.33231547
0.47557826
0.63510523
0.81139428
1.0049124
1.216125
1.445494
1.6934143
1.9601826
2.2460012
2.5509491
2.8749383
3.2176942
3.5787399
3.9573669
4.3526458
4.7637811
5.1887635
5.6259259
6.0733524
6.5288529
6.9900191
7.4542346
7.9186852
8.3803929
8.8362665
9.2831333
9.717751
10.13687
10.537322
10.916066
11.27022
11.597108
11.894303
12.159632
12.391183
12.587313
12.74665
12.868053
12.950599
12.993708
12.997058
12.960483
12.88425
12.768806
12.614934
12.423702
12.196503
11.934996
11.641166
11.317303
10.965937
10.589867
10.192073
9.7756679
9.3438449
8.8998767
8.4470315
7.9885174
7.5275009
7.0670314
6.6099778
6.1590449
5.7167359
5.2852839
4.8666575
4.4625158
4.0744764
3.7034812
3.3504308
3.0159699
2.7004758
2.4041027
2.1268192
1.868431
1.6286639
1.4071402
1.2034061
1.0169913
0.84740736
0.69411939
0.55667679
0.43460392
0.32746863
0.23489337
0.15652231
0.092108909
0.041584581
0.0042493553
-0.021475798
-0.028301676
-0.38832499
-0.37969382
-0.35240715
-0.3134046
-0.26100729
-0.19457284
-0.11399484
-0.018999583
0.090818495
0.21589908
0.35674408
0.51389681
0.68790077
0.87932332
1.088759
1.3167724
1.5638636
1.8304713
2.1169508
2.4235256
2.7502548
3.0970053
3.4634004
3.8487651
4.2521448
4.6735863
5.1103723
5.5608027
6.0229189
6.4944523
6.972851
7.4553024
7.9387914
8.4201331
8.8960131
9.3630044
9.8176027
10.256302
10.675679
11.072449
11.443508
11.785986
12.097311
12.375217
12.617705
12.823063
12.989863
13.116949
13.20337
13.248482
13.251959
13.213573
13.13361
13.012506
12.851071
12.650381
12.41191
12.137373
11.828887
11.488898
11.120116
10.725539
10.308391
9.8720271
9.4199091
8.9555611
8.4824969
8.0041551
7.5239166
7.0450578
6.570677
6.1036918
5.6467862
5.2023463
4.7724732
4.3590102
3.9626988
3.5852912
3.2274329
2.8895848
2.5719496
2.2745005
1.9970473
1.7392434
1.5006781
1.2808177
1.0790709
0.8948743
0.72763613
0.57674541
0.44165543
0.321841
0.2168215
0.12616721
0.049544924
-0.013349322
-0.062616628
-0.098945282
-0.12394504
-0.13026748
-0.504131
-0.49612768
-0.46983026
-0.4321896
-0.38148303
-0.31705897
-0.23876175
-0.14629302
-0.03921072
0.083008831
0.22093148
0.37514689
0.54629796
0.73508696
0.9422224
1.1683833
1.4142234
1.6803564
1.9673097
2.2754864
2.6051347
2.9562936
3.3287195
3.7217742
4.1340323
4.5676549
5.0178874
5.4835342
5.9626296
6.4527712
6.9512113
7.4549198
7.9606477
8.4649567
8.9642612
9.4548399
9.9328759
10.394546
10.836106
11.253959
11.644728
12.005327
12.333016
12.625424
12.880482
13.096423
13.271793
13.405408
13.49631
13.543791
13.547476
13.507092
13.422943
13.295422
13.125339
12.913783
12.662286
12.372669
12.047152
11.688351
11.299198
10.882928
10.443066
9.9832925
9.5073812
9.0191522
8.5223936
8.0208194
7.5180822
7.0177288
6.5231388
6.0374836
5.5636375
5.1041486
4.6611856
4.2365436
3.8313674
3.4469146
3.0837988
2.7423191
2.422498
2.1241181
1.8468053
1.5900197
1.3531525
1.1354998
0.93630954
0.7549023
0.59056761
0.44259528
0.31034352
0.19324801
0.090766646
0.0024623818
-0.072121087
-0.13323279
-0.18100975
-0.21615236
-0.24033114
-0.24607388
-0.63365154
-0.62639067
-0.6011587
-0.56504785
-0.51628081
-0.45415315
-0.37850492
-0.28900667
-0.18513751
-0.066316809
0.068063006
0.21868612
0.38632808
0.57180921
0.77595802
0.9996141
1.2436203
1.5087841
1.7958389
2.1054129
2.4379786
2.7937959
3.1728841
3.5750674
4.0002971
4.4445845
4.9093924
5.3922459
5.8907678
6.4022874
6.9238013
7.4520348
7.9834715
8.5143723
9.0408288
9.5587856
10.064057
10.552418
11.01971
11.461953
11.875446
12.256853
12.603246
12.912148
13.181449
13.409361
13.594441
13.735478
13.831494
13.881744
13.885765
13.843207
13.754411
13.619711
13.439883
13.216034
12.949711
12.642829
12.297736
11.917215
11.504457
11.063024
10.596784
10.109818
9.6062785
9.0903442
8.5661221
8.0376231
7.50882
6.983593
6.4656524
5.9584593
5.4651451
4.9884385
4.530597
4.0934632
3.6783994
3.2863001
2.9176231
2.5724758
2.2506696
1.9517543
1.675101
1.4199377
1.1854241
0.97068139
0.77477561
0.59685195
0.43607359
0.29162007
0.16280527
0.048969978
-0.050489542
-0.13605801
-0.20823174
-0.2672767
-0.31332084
-0.34708077
-0.37033128
-0.37542286
-0.77649644
-0.77001251
-0.74598432
-0.71162085
-0.66504616
-0.60555477
-0.53297781
-0.44691877
-0.34680915
-0.23203656
-0.10190936
0.044381175
0.20772365
0.3890543
0.58936224
0.80968326
1.0510669
1.3145452
1.601104
1.9116342
2.2468661
2.6073156
2.9932463
3.4046238
3.8410285
4.3002904
4.7821379
5.2846015
5.8052284
6.3411394
6.889062
7.4454087
8.0063442
8.5677977
9.1255047
9.6750255
10.211731
10.730887
11.227814
11.69805
12.13751
12.542568
12.910103
13.237546
13.522799
13.764096
13.960035
14.109422
14.211224
14.264664
14.269199
14.224318
14.130467
13.987843
13.797171
13.559557
13.276551
12.950114
12.582712
12.177321
11.737427
11.266989
10.770326
10.252006
9.7166489
9.1688138
8.6129678
8.0534832
7.4946898
6.9408591
6.3961105
5.8642685
5.3487677
4.8525716
4.3780594
3.9271025
3.5012824
3.1010761
2.726741
2.3781457
2.0548044
1.7559808
1.4807457
1.2280489
0.99678199
0.78584258
0.59409768
0.42050613
0.26408418
0.12389293
-0.00081336359
-0.11080472
-0.20670286
-0.2890876
-0.35845392
-0.41512031
-0.45919601
-0.49138885
-0.51356088
-0.51795777
-0.9321427
-0.92652453
-0.90387328
-0.87146326
-0.82738212
-0.77091067
-0.70184265
-0.6197534
-0.52405219
-0.41405631
-0.2889669
-0.14787616
0.010210275
0.18637843
0.38180687
0.59774038
0.83546302
1.0962779
1.3814664
1.6922241
2.0295962
2.3944181
2.7872422
3.208238
3.6570708
4.1324453
4.6333622
5.157915
5.7035423
6.2671484
6.8451448
7.4335642
8.0281725
8.6245412
9.2180293
9.8037677
10.376589
10.931121
11.462016
11.964211
12.433147
12.864868
13.256065
13.604115
13.907001
14.163072
14.371
14.529651
14.637955
14.695071
14.700385
14.653044
14.553832
14.402606
14.200031
13.94717
13.64555
13.297161
12.904549
12.470869
11.999958
11.496258
10.964669
10.410349
9.838494
9.254138
8.6621183
8.0671669
7.4740085
6.887389
6.3119495
5.7519977
5.2113646
4.6932752
4.2002723
3.7341282
3.2969508
2.8884429
2.5086347
2.1571012
1.8329821
1.5351856
1.2624363
1.0133353
0.78646026
0.58044031
0.3939276
0.22569244
0.074556245
-0.060496281
-0.18034271
-0.28581809
-0.37759876
-0.45628834
-0.52242745
-0.57638358
-0.61821599
-0.64868069
-0.66963311
-0.67326146
-1.1000679
-1.0954151
-1.0742933
-1.0440826
-1.0028203
-0.94975754
-0.8846916
-0.8071915
-0.71661026
-0.61217993
-0.49302582
-0.35815573
-0.20644442
-0.036633074
0.15265113
0.36288028
0.59561578
0.85247695
1.1350853
1.4450038
1.7836733
2.1523267
2.5518773
2.9828032
3.4450353
3.9377523
4.45972
5.0089642
5.5827566
6.1777103
6.7898464
7.4147162
8.04763
8.6837429
9.3180437
9.945221
10.559465
11.154554
11.724279
12.262827
12.765062
13.226634
13.644056
14.014725
14.336809
14.608928
14.829933
14.99876
15.114329
15.175708
15.182244
15.132337
15.027587
14.867131
14.651635
14.3821
14.059948
13.687125
13.266223
12.800561
12.294341
11.752565
11.180881
10.5853
9.9717581
9.3457939
8.7125741
8.0771548
7.444706
6.8205713
6.2100622
5.6181326
5.0491363
4.5066527
3.9933363
3.5105133
3.0618715
2.6451129
2.2603313
1.9067347
1.5830104
1.2875918
1.0187649
0.77472078
0.5536866
0.35397207
0.17397046
0.012264558
-0.13250052
-0.26144563
-0.37557504
-0.47577689
-0.56281093
-0.63729642
-0.69976334
-0.75064127
-0.78994405
-0.81845411
-0.83807335
-0.84088598
-1.2796825
-1.2760596
-1.2566521
-1.2288947
-1.1907688
-1.1415491
-1.0810507
-1.0088007
-0.92409172
-0.82610989
-0.71392287
-0.58643672
-0.44238569
-0.28034436
-0.09873455
0.10417721
0.33026659
0.58150938
0.85992864
1.1675388
1.5062654
1.877825
2.2835898
2.7244661
3.2007711
3.7120836
4.2571437
4.8338737
5.4393087
6.06966
6.7204713
7.3867275
8.063137
8.7443383
9.4250099
10.099528
10.761319
11.402943
12.01702
12.596826
13.136524
13.63129
14.077464
14.472608
14.815266
15.104525
15.33959
15.519518
15.643192
15.709484
15.717424
15.666
15.555216
15.384913
15.155587
14.868036
14.523491
14.123733
13.671293
13.169625
12.62328
12.037944
11.420251
10.777391
10.116353
9.443222
8.7632737
8.081748
7.4043489
6.7372418
6.0866166
5.4582844
4.8573156
4.287829
3.7529105
3.2548295
2.792232
2.3671923
1.9783438
1.6240783
1.3024383
1.0112403
0.74823273
0.51111986
0.29771131
0.10598015
-0.065962491
-0.21977489
-0.35691819
-0.47866838
-0.58613401
-0.68027097
-0.76184324
-0.83154687
-0.88989807
-0.93728805
-0.9738103
-1.0001641
-1.0183094
-1.0202904
-1.4702822
-1.4677706
-1.4502471
-1.4251833
-1.3905531
-1.3456611
-1.2903103
-1.2239911
-1.1459795
-1.0554373
-0.95136487
-0.83256661
-0.69765461
-0.5450416
-0.37292246
-0.17927502
0.038117565
0.28163601
0.55378379
0.85711849
1.1941447
1.5671744
1.9781721
2.4286129
2.9193328
3.4504455
4.0207065
4.6279211
5.2688458
5.9392137
6.6338778
7.3470716
8.0727266
8.8049074
9.5381153
10.266751
10.983322
11.67848
12.343222
12.969764
13.551465
14.082927
14.56029
14.981447
15.345664
15.65285
15.902821
16.09483
16.227627
16.299772
16.309973
16.257019
16.140279
15.959751
15.715829
15.409086
15.040445
14.611358
14.124084
13.582083
12.990234
12.354966
11.684251
10.987051
10.271944
9.5455691
8.8128102
8.0787985
7.3498924
6.633376
5.9367055
5.2668628
4.6298472
4.0303693
3.4717044
2.9557546
2.4814975
2.0496984
1.6585731
1.3057634
0.9885617
0.70402791
0.44925843
0.22141739
0.01783002
-0.16392737
-0.32601098
-0.47030653
-0.59841216
-0.71176632
-0.81155557
-0.89874641
-0.97414934
-1.0384574
-1.0922251
-1.1357496
-1.1691761
-1.193175
-1.2097016
-1.2108069
-1.6710941
-1.6697436
-1.6542551
-1.6321605
-1.6014141
-1.5613243
-1.5116996
-1.4520419
-1.3816306
-1.299599
-1.2048926
-1.0962445
-0.97215978
-0.83088356
-0.67037755
-0.48832311
-0.28213249
-0.048959693
0.21426029
0.51072364
0.8436333
1.2160474
1.6306905
2.0897535
2.5947344
3.1467892
3.7443845
4.3852932
5.0660038
5.7816566
6.526159
7.2926265
8.0739604
8.8635117
9.6558756
10.446406
11.22661
11.98373
12.706431
13.385893
14.014624
14.586475
15.097282
15.545445
15.931487
16.256825
16.522337
16.727498
16.870716
16.949958
16.963398
16.909464
16.786693
16.595662
16.336637
16.009855
15.615701
15.155044
14.629694
14.042857
13.3995
12.706772
11.974404
11.214231
10.437562
9.6515837
8.8595049
8.065764
7.2775756
6.5039004
5.7541121
5.0368252
4.3592299
3.7266784
3.1425922
2.6084326
2.1236193
1.6871348
1.2963806
0.94802606
0.63842309
0.36375514
0.12030634
-0.095414705
-0.28656104
-0.45597238
-0.60610358
-0.73907199
-0.85661849
-0.96024092
-1.0512521
-1.1305671
-1.1990273
-1.2572966
-1.3059391
-1.3452579
-1.3753116
-1.3967369
-1.4115365
-1.4117721
-1.8812357
-1.8810719
-1.8678036
-1.848958
-1.8224454
-1.7876148
-1.744325
-1.6921042
-1.6302363
-1.5578469
-1.4738674
-1.3769872
-1.2656142
-1.1378375
-0.99140413
-0.8236995
-0.63173148
-0.41213189
-0.1611988
0.12501356
0.45056684
0.81946364
1.2353927
1.7014049
2.2196626
2.7937211
3.4207075
4.0987291
4.8240522
5.5910173
6.3923109
7.2194571
8.063661
8.9169967
9.7749006
10.636523
11.492147
12.321721
13.110568
13.849914
14.531506
15.147865
15.6941
16.169335
16.576259
16.919063
17.200498
17.420164
17.575617
17.663736
17.681843
17.627709
17.498573
17.296883
17.022501
16.675243
16.254657
15.760588
15.19412
14.557981
13.856601
13.097187
12.291571
11.457034
10.610172
9.7589014
8.9010669
8.0393033
7.1824016
6.3421896
5.5307883
4.7590882
4.0357949
3.3670307
2.7563506
2.2049
1.7112875
1.2731103
0.88645902
0.54668825
0.24887751
-0.011860056
-0.24014407
-0.4402227
-0.61578246
-0.77011653
-0.90593871
-1.0255377
-1.1308269
-1.2233239
-1.3043402
-1.3748401
-1.4355817
-1.4872069
-1.5302421
-1.5649736
-1.5914116
-1.6100815
-1.6230446
-1.6224425
-2.0997433
-2.1008146
-2.0899329
-2.0745592
-2.052602
-2.0234992
-1.9871665
-1.943158
-1.890791
-1.8292317
-1.7574315
-1.6740601
-1.5774607
-1.4656103
-1.3360712
-1.1859371
-1.0117931
-0.8097096
-0.575273
-0.30365441
0.010265833
0.37169215
0.78558369
1.2560954
1.7853148
2.3823657
3.0403986
3.7590334
4.5343311
5.3596513
6.2259944
7.1225889
8.0378888
8.9612625
9.8896554
10.831908
11.77754
12.694556
13.559492
14.366894
15.108514
15.774481
16.357871
16.85859
17.28331
17.641435
17.938954
18.175066
18.345471
18.445143
18.470023
18.417102
18.279932
18.067733
17.778058
17.410454
16.96319
16.434426
15.824222
15.134747
14.368761
13.531115
12.63482
11.71056
10.784111
9.8641327
8.9345426
7.9949774
7.0575758
6.1391036
5.2557771
4.4215107
3.6469484
2.9390728
2.301377
1.7343832
1.2353833
0.80009512
0.42278753
0.097114361
-0.183416
-0.4250326
-0.63341562
-0.81362745
-0.96993096
-1.1060176
-1.2248828
-1.3289289
-1.4201195
-1.5000341
-1.56985
-1.6305694
-1.682847
-1.7272056
-1.7641569
-1.793941
-1.8165015
-1.8322591
-1.8433014
-1.8418786
-2.3256083
-2.3279281
-2.3195327
-2.307827
-2.2907452
-2.2678216
-2.23903
-2.2039817
-2.1620766
-2.1125588
-2.0544333
-1.9863996
-1.9068018
-1.8135645
-1.7041057
-1.575254
-1.4231864
-1.2433943
-1.0306773
-0.77917986
-0.48250509
-0.13392449
0.27333629
0.74583554
1.2902789
1.9026864
2.5917685
3.3544095
4.185603
5.0774243
6.0185202
6.9947164
7.9899311
8.9841064
9.9802772
11.016971
12.089223
13.109668
14.052101
14.937799
15.751146
16.474946
17.097741
17.619481
18.054492
18.423078
18.737179
18.993376
19.183306
19.298509
19.333017
19.284961
19.133422
18.912182
18.607376
18.220335
17.74697
17.182653
16.526088
15.779846
14.943709
14.012962
12.990688
11.957143
10.939136
9.9561185
8.9546133
7.9258286
6.8929785
5.8817239
4.9140393
4.0078481
3.1761349
2.4267106
1.7627384
1.1838347
0.68490216
0.25921314
-0.1014112
-0.40560788
-0.66180083
-0.87779632
-1.0605112
-1.2158335
-1.3486399
-1.4629299
-1.5619208
-1.6480752
-1.7232964
-1.7891088
-1.8465547
-1.8964959
-1.9395546
-1.9761339
-2.0065753
-2.0310948
-2.0495509
-2.0622816
-2.071346
-2.0691623
-2.5577135
-2.5612261
-2.5553986
-2.5475434
-2.535619
-2.5192602
-2.4985316
-2.4731471
-2.4426257
-2.4063261
-2.3633657
-2.3125544
-2.2523198
-2.1806062
-2.0947589
-1.9914116
-1.8663866
-1.714605
-1.530024
-1.3056329
-1.0335478
-0.70522686
-0.31182004
0.15528613
0.7036435
1.3364563
2.058751
2.869343
3.7631223
4.7308249
5.7580814
6.826939
7.9136264
8.9654623
9.9901837
11.121012
12.267621
13.48069
14.570919
15.559885
16.46527
17.26163
17.928134
18.461191
18.890671
19.260635
19.593074
19.876042
20.093112
20.229452
20.274908
20.224946
20.076599
19.835512
19.513652
19.109543
18.612464
18.011256
17.303808
16.498412
15.59379
14.560256
13.320674
12.139901
11.034392
10.020234
8.9542698
7.8215173
6.6731683
5.5513612
4.4846446
3.4960226
2.6013131
1.8089934
1.1211871
0.53698167
0.04659877
-0.35983945
-0.69372066
-0.96662746
-1.1894133
-1.3717324
-1.5218233
-1.646416
-1.7509271
-1.8395595
-1.9155729
-1.9813662
-2.0387219
-2.088935
-2.1329011
-2.171245
-2.2043817
-2.2326587
-2.2562486
-2.2752528
-2.2894469
-2.2990818
-2.3061343
-2.3032887
-2.7948299
-2.7994591
-2.7962666
-2.7923891
-2.7858179
-2.7763285
-2.7641072
-2.7489996
-2.7306811
-2.7086864
-2.6823301
-2.6506248
-2.6121764
-2.5650544
-2.5066538
-2.4335379
-2.3412726
-2.224264
-2.0756197
-1.8870773
-1.649042
-1.3507759
-0.98080339
-0.52763637
0.019155607
0.66702819
1.4222678
2.2842295
3.2475196
4.3012517
5.4263225
6.6005218
7.7797262
8.8050672
9.7127189
10.805828
12.267881
13.849886
15.065733
16.187025
17.234713
18.148289
18.874011
19.396768
19.782743
20.137579
20.496349
20.820604
21.079796
21.247624
21.308487
21.258219
21.101521
20.835481
20.496356
20.08104
19.565463
18.923417
18.150194
17.268334
16.282691
15.128262
13.413766
12.17075
10.92536
9.9241647
8.8953379
7.6615377
6.3732392
5.1204853
3.9383987
2.8560791
1.8930389
1.0586833
0.35434732
-0.2259491
-0.69542648
-1.0689231
-1.3623452
-1.5910972
-1.7689747
-1.907741
-2.0169627
-2.1041492
-2.1750252
-2.2338671
-2.28374
-2.326765
-2.3644234
-2.3976662
-2.4270808
-2.4530904
-2.4758192
-2.4953907
-2.5118517
-2.5251505
-2.534991
-2.5414579
-2.5465056
-2.5431247
-3.0356856
-3.0413388
-3.0407843
-3.0409248
-3.0398136
-3.0374009
-3.034008
-3.0296409
-3.0241886
-3.017442
-3.0090029
-2.9981869
-2.9839027
-2.9645025
-2.9376102
-2.8999033
-2.8468609
-2.7725094
-2.6691834
-2.5273302
-2.3354223
-2.0800694
-1.7464469
-1.3191755
-0.78370893
-0.12826604
0.65804122
1.5740216
2.6139017
3.7644328
4.9994425
6.2946937
7.5786458
8.5941454
9.4719616
10.850833
14.888342
17.768014
16.177614
16.893509
18.055806
19.14954
19.98049
20.456521
20.71659
21.026156
21.422295
21.823107
22.152826
22.368048
22.448614
22.391346
22.206562
21.913328
21.547001
21.138884
20.61673
19.914505
19.023234
18.023115
16.957756
15.844504
14.752038
12.225242
10.481292
9.6040327
8.6999801
7.3943756
5.9500527
4.548102
3.2347165
2.0476435
1.0120995
0.13878349
-0.56950691
-1.1303764
-1.560318
-1.881479
-2.1158849
-2.2837386
-2.4022976
-2.4855822
-2.5443601
-2.5866785
-2.6182512
-2.6430419
-2.6635944
-2.6815656
-2.6978954
-2.7130354
-2.7271222
-2.7402016
-2.7521378
-2.7627658
-2.7719364
-2.7794412
-2.7848835
-2.7881744
-2.7912626
-2.7875034
-3.2789688
-3.2854986
-3.2875137
-3.2916305
-3.2959867
-3.3007214
-3.3063058
-3.3129502
-3.3208214
-3.3300419
-3.3405939
-3.3522196
-3.3642964
-3.3756692
-3.3844308
-3.3876357
-3.3809554
-3.3583031
-3.3114409
-3.2295919
-3.0991383
-2.903561
-2.6237986
-2.2392281
-1.7296463
-1.0788587
-0.26474745
0.70716384
1.8320369
3.0936145
4.4597825
5.9076958
7.3518935
8.5372775
9.837158
11.713681
16.899199
18.853786
18.515588
17.655206
18.979499
20.327215
21.350604
21.665203
21.657656
22.00552
22.340229
22.888165
23.331908
23.614368
23.718723
23.642879
23.405225
23.038561
22.649251
22.283176
21.779817
20.993212
19.92188
18.752973
18.078175
17.566984
14.380892
11.413875
9.8896403
9.1695636
8.3503708
6.9681318
5.3543072
3.7827498
2.3197358
1.0162983
-0.094251143
-1.0018343
-1.6941727
-2.2082623
-2.5708878
-2.8125291
-2.9629396
-3.0482537
-3.0896407
-3.1032667
-3.1007922
-3.0901656
-3.0765544
-3.063137
-3.051527
-3.0425026
-3.036225
-3.0324211
-3.0306857
-3.0305648
-3.0315496
-3.0331372
-3.0349379
-3.0366578
-3.0377331
-3.0379006
-3.0390957
-3.0351523
-3.5233042
-3.5305102
-3.5349734
-3.5429352
-3.5526357
-3.5644223
-3.5789343
-3.5966281
-3.6180009
-3.6435767
-3.6738215
-3.7090554
-3.7493275
-3.7942331
-3.8426467
-3.8923724
-3.9397047
-3.9788955
-4.0015335
-3.9958753
-3.9462233
-3.8325136
-3.6303717
-3.3119608
-2.8480572
-2.2108578
-1.3838923
-0.3558888
0.86506055
2.2579365
3.7870835
5.4296034
7.0976403
8.5792007
10.191495
12.197264
16.303486
19.415011
19.840794
18.28996
19.946813
21.690109
23.16961
22.993576
22.516126
22.400517
22.92346
23.903229
24.635323
25.027923
25.158805
25.044726
24.713948
24.224486
23.986674
23.584314
23.083486
22.174861
20.869884
19.485043
19.969139
17.647353
14.361029
11.484292
9.8262397
8.9552775
7.9747794
6.3887198
4.55562
2.7721847
1.128176
-0.3078627
-1.4941025
-2.4347941
-3.0666483
-3.4970543
-3.753566
-3.8781607
-3.9112608
-3.8863542
-3.8288135
-3.7563846
-3.6807309
-3.6088206
-3.5444076
-3.4890733
-3.443027
-3.4056603
-3.3760311
-3.3529621
-3.3352704
-3.321937
-3.3120269
-3.3047044
-3.2992789
-3.2953073
-3.2921349
-3.289321
-3.2887192
-3.2847648
-3.7672695
-3.7749226
-3.7816521
-3.7932236
-3.8080098
-3.8265792
-3.8497466
-3.8782396
-3.9129271
-3.9548033
-4.004928
-4.0643634
-4.1340599
-4.2146683
-4.306248
-4.4078669
-4.517063
-4.629123
-4.7361699
-4.8261132
-4.8815357
-4.8786396
-4.786617
-4.5682043
-4.1822451
-3.5880246
-2.7567416
-1.6675006
-0.33423225
1.2163723
2.9448433
4.8198014
6.7499307
8.5354946
10.360838
12.398194
15.107702
20.467609
20.074846
19.030398
21.168511
23.373509
25.977398
24.595302
23.168826
24.267383
24.817983
25.339501
26.204563
26.662717
26.821198
26.654917
26.21283
25.262562
24.972738
24.825376
24.537761
23.509189
22.046601
20.704837
21.167832
17.935747
15.259305
12.520037
10.616323
9.2200541
7.699694
5.7062246
3.5448903
1.4659131
-0.4168035
-2.0130821
-3.2637512
-4.1390959
-4.7376462
-5.0439021
-5.1399858
-5.0952904
-4.9665732
-4.7963531
-4.6137719
-4.4368888
-4.2756604
-4.1345148
-4.0144863
-3.9145136
-3.8326537
-3.7664637
-3.7134735
-3.6714018
-3.6381665
-3.6120693
-3.5916492
-3.5757544
-3.563416
-3.5539527
-3.5466599
-3.5409977
-3.5387169
-3.5348611
-4.0093935
-4.0172591
-4.0260197
-4.0408792
-4.0603729
-4.0852761
-4.116572
-4.1552742
-4.20265
-4.260222
-4.3297432
-4.4131783
-4.5126195
-4.630125
-4.7674405
-4.9255717
-5.104146
-5.300505
-5.5084723
-5.7168391
-5.9074812
-6.0531863
-6.1156565
-6.0451208
-5.7832685
-5.2708984
-4.4605103
-3.2982214
-1.8258766
-0.079741091
1.891297
4.0379707
6.2667666
8.3949063
10.491427
12.778822
15.557636
20.368409
19.893575
20.154039
22.577236
25.656891
30.02997
27.586438
26.451867
36.128963
43.181027
39.963837
28.25669
28.691621
28.808267
28.587337
27.874541
26.700565
26.286431
26.596212
26.483
25.047121
23.481106
21.939587
22.527008
19.414694
17.129144
14.427317
12.121542
9.9003313
7.5365017
4.9482068
2.3037538
-0.20189594
-2.4233459
-4.239986
-5.5806103
-6.4197645
-6.8420605
-6.9232821
-6.7702513
-6.480723
-6.1303981
-5.7708756
-5.4329505
-5.1320373
-4.8733708
-4.6563819
-4.4774884
-4.3317816
-4.2141907
-4.1199039
-4.0445832
-3.9845403
-3.9367377
-3.8987368
-3.868499
-3.8445594
-3.8257366
-3.8111373
-3.7999829
-3.7915885
-3.7876274
-3.7838283
-4.2481291
-4.2560348
-4.2665941
-4.284361
-4.3080685
-4.338667
-4.3772921
-4.4252438
-4.4841892
-4.5562053
-4.64381
-4.7500037
-4.8782515
-5.0324008
-5.2164647
-5.4342139
-5.6884722
-5.9800981
-6.3064525
-6.6593703
-7.0222086
-7.3657217
-7.6435302
-7.7891157
-7.7181378
-7.3420831
-6.607456
-5.3350791
-3.6839264
-1.686576
0.58924403
3.0665066
5.6445555
8.1817025
10.671703
13.295964
16.210775
18.401386
22.025542
21.873272
23.940814
26.108617
29.489957
27.403272
34.41766
41.056283
41.226214
42.081201
35.122994
29.834791
30.192756
30.098201
29.621413
26.918537
25.496161
28.34185
28.768704
26.901591
25.364821
23.288689
23.90297
21.824514
19.647684
16.780491
13.768234
10.597411
7.3891517
4.0767618
0.77619853
-2.3337969
-5.0497189
-7.1875549
-8.6564545
-9.3640962
-9.502205
-9.2204236
-8.6873083
-8.0463723
-7.395876
-6.7937295
-6.2670661
-5.8230064
-5.4572153
-5.1605295
-4.9222758
-4.732113
-4.5808732
-4.4607369
-4.3652441
-4.2891825
-4.2284277
-4.179793
-4.140788
-4.109611
-4.084883
-4.0655625
-4.0508642
-4.0399598
-4.0342574
-4.0304292
-4.4819949
-4.4898664
-4.502028
-4.5222721
-4.5495884
-4.5850617
-4.629953
-4.6858181
-4.7546893
-4.8391803
-4.9425897
-5.0690266
-5.223515
-5.4120596
-5.6415446
-5.9194506
-6.2531797
-6.64913
-7.1109143
-7.6370322
-8.2166978
-8.8225007
-9.400844
-9.8628265
-10.081565
-9.899543
-9.1539926
-7.8711059
-5.9998705
-3.6648382
-0.98610703
1.9065102
4.8806756
7.8444522
10.784285
13.834177
17.098293
19.968122
25.254579
24.360744
25.511197
25.773237
28.576283
25.073328
26.811162
37.327655
38.019372
40.143556
35.328339
29.731422
30.682303
30.669165
29.315582
29.879403
38.685183
49.136249
35.147398
29.44037
27.855906
25.249417
26.49468
24.467799
22.220122
19.076977
15.29585
11.288385
7.204733
3.0482384
-1.1056916
-5.0752597
-8.5465743
-11.179161
-12.795624
-13.247062
-12.889508
-12.027609
-10.927209
-9.7921732
-8.743154
-7.8365088
-7.086551
-6.4833149
-6.005486
-5.630066
-5.3361528
-5.1061062
-4.9257702
-4.7838921
-4.67169
-4.5824738
-4.5110089
-4.4534462
-4.406985
-4.3695495
-4.3396171
-4.3160702
-4.2981167
-4.2849312
-4.2775724
-4.2737834
-4.7097625
-4.717595
-4.7311768
-4.7534151
-4.7836533
-4.8230317
-4.8728925
-4.9349796
-5.0116168
-5.1058795
-5.2217713
-5.3644778
-5.5406592
-5.7587711
-6.0290787
-6.3637862
-6.7764352
-7.2815444
-7.8925345
-8.6202211
-9.4681