/*--------------------------------*- C++ -*----------------------------------*\
  =========                 |
  \\      /  F ield         | OpenFOAM: The Open Source CFD Toolbox
   \\    /   O peration     | Website:  https://openfoam.org
    \\  /    A nd           | Version:  9
     \\/     M anipulation  |
\*---------------------------------------------------------------------------*/
FoamFile
{
    format      ascii;
    class       volScalarField;
    location    "44";
    object      p;
}
// * * * * * * * * * * * * * * * * * * * * * * * * * * * * * * * * * * * * * //

dimensions      [0 2 -2 0 0 0 0];

internalField   nonuniform List<scalar> 
918
(
0.55327527
1.7283188
0.012163234
0.53754604
-0.0087912769
1.698994
-0.93749511
1.2230855
0.58296027
-0.2114173
-0.057549827
0.68194965
1.570361
1.3286199
-0.67566829
-0.027725194
1.0593074
-0.73061423
0.59759591
-0.076705077
1.2852466
0.52448136
0.55059906
0.52405201
0.81426675
1.2860551
1.4335572
0.0082928339
0.0025431902
-0.010617928
-0.0055010064
-0.053854496
-0.036585189
1.5752708
1.6292916
1.6529741
0.53072886
0.59625282
-0.74956268
-0.83096182
-0.81769736
-0.98999681
1.2093824
1.2009975
-0.45519214
1.2332234
1.2426171
0.53501454
0.58040314
0.59376207
0.52093662
0.55550251
0.56961267
0.46978032
-0.23609939
-0.29538391
-0.16991805
-0.14044706
0.0510808
-0.049519464
-0.055196068
-0.045906307
-0.046042619
0.50052219
0.66748824
0.65083411
0.69518928
0.71791458
1.6654143
1.6288619
1.6558372
1.6026548
1.5929612
1.5501903
1.5133285
1.3679245
1.3755373
1.325463
1.2879365
-1.1885864
-2.2008491
-0.11599948
0.177964
-0.0043796909
-0.013949792
-0.00027569561
1.040887
1.0222123
1.0846685
1.1081809
1.3023271
-0.7043467
-0.9059977
0.60112213
0.59841522
0.57908556
0.56119522
0.60761215
0.65312349
-0.057432456
-0.054092951
-0.089246475
-0.069912202
-0.074494798
1.2628426
1.2701761
0.53899496
0.54386687
0.73392257
0.77516598
0.76024152
0.2975484
0.81490909
0.81743132
1.1134224
1.2944812
1.2974149
1.2829061
1.4199338
1.3755636
1.4801462
1.5056772
0.029945353
0.0024257931
-0.012541219
-0.029655309
-0.010750133
0.5375946
0.53076671
0.60685543
0.53421205
0.54191216
0.54226137
0.40492202
0.68571145
0.69837169
-0.62800256
-0.68434163
-0.82076639
-0.85825099
-0.98950608
0.96776116
1.1853536
1.1722191
-0.50598512
-0.39376332
-0.55970386
-0.30525017
-0.3507985
0.54028137
0.546073
0.54110918
0.53860012
0.53914866
0.54088443
0.57413446
0.57101546
0.58783278
0.54363428
0.68480885
0.41656573
0.35797021
-0.50440107
-0.33386815
-0.47501573
-0.11814151
-0.099168356
0.076138306
0.12328027
0.054972507
0.052619378
-0.083479825
-0.061045862
-0.070241176
-0.046660873
-0.0469624
0.48872877
0.47908043
0.50857094
0.51627325
0.62809739
0.62896334
0.64281472
0.63860123
1.4393088
1.4629667
1.5076407
1.4705438
-3.5436091
-6.156456
0.49227813
0.66521365
-0.009043673
-0.0074188337
0.0046684876
-0.00076188005
0.0019316564
-0.0089434429
0.014354838
0.0064037668
0.00094407855
0.0087871811
0.99436023
0.97886009
1.2531194
1.2926899
1.1648536
1.1521295
0.60681039
0.60371001
0.60957228
0.60104206
-0.048293513
-0.050781146
-0.047380313
1.249955
1.2625144
1.2576928
0.20955353
0.11602632
0.34400548
0.39081653
0.9381799
0.87129179
0.91666177
1.1859531
1.2182015
1.4950621
1.5070829
1.5450256
1.5417647
1.5900408
1.5823431
1.5408291
0.51769195
0.52905485
0.52748423
0.60395657
0.60867038
0.60809867
0.61976452
0.61848669
0.61540646
0.24432925
-0.08389901
0.78016555
0.76827303
0.74326857
0.73982628
1.0391894
1.1257708
1.122144
1.1546991
1.1410986
-0.20393042
-0.22555122
0.28928057
0.26128699
0.41840256
0.45983439
0.44522883
1.413366
1.4134715
1.4600438
1.422216
1.3635531
1.3864539
-0.10974247
-1.2458351
-0.64364695
1.0498048
0.83936016
0.93888412
0.014718816
0.013418724
-0.0070604331
1.2698246
1.3339963
0.7466403
1.001067
1.0001248
1.2621448
1.2840593
1.3569805
1.2843871
1.3096925
1.3322756
1.3150528
0.91524722
0.8195549
0.84680993
1.1656059
1.2121029
0.029940049
-0.091107243
-0.094979957
0.13594224
0.19393489
0.15929886
1.3024025
1.2506113
1.3166302
0.5507819
0.54361484
0.00068602421
0.0039371041
0.60000256
0.57682179
-0.024910251
-0.0051255245
0.91608641
-0.41836381
0.038712866
0.61228557
0.55967972
0.5741732
-0.19791131
0.430001
-0.049569823
0.049810226
-0.0068125396
0.66784268
0.52494658
0.47598015
-0.0067884659
-0.032145376
-0.048261546
-0.42508111
0.55863701
0.53660935
0.56119998
0.54106561
0.57650668
-0.021733615
-0.015872613
-0.005502904
-0.05131382
-0.044193084
-0.058420247
0.54400864
0.62047023
-0.35211057
0.58176901
0.573659
0.58760886
0.56003608
0.61458862
0.57060355
-0.010074414
-0.011361121
-0.0047266709
0.22916283
0.40217097
1.2157453
1.3417298
1.2492694
0.87239279
0.55408592
1.0823211
1.1724744
1.0479905
1.2081306
1.1933752
1.2333245
0.1498498
-0.093143935
0.16359835
0.039923731
0.60521714
0.60974466
0.55410874
0.54647023
0.58299765
0.55684607
0.58631169
0.59490299
0.59351813
0.60752933
-0.13196331
-0.15342141
-0.19109266
-0.3024546
0.44710703
0.72462817
0.3392897
0.37995515
0.17610181
-0.044906774
-0.047596902
-0.050202583
-0.059529512
0.015408005
-0.036856927
0.07109851
0.071994578
0.048678144
-0.0016345795
-0.013726534
-0.037716661
-0.0026839993
0.61829184
0.62310417
0.66364656
0.69293633
0.523114
0.51807091
0.48693699
0.5239755
0.49573339
0.41114638
0.47923442
0.43559503
-0.010680125
-0.010679548
-0.012333016
-0.019131725
-0.0028429003
-0.017035513
-0.023124419
-0.021597027
-0.023906818
-0.029590736
-0.04744574
-0.051947725
-0.36496301
-0.54622248
1.2098989
1.0566514
0.26802406
0.53312386
0.53464622
0.51917461
0.56955478
0.55679752
0.55663891
0.55593906
0.55252813
0.57434005
0.5832899
0.61583159
0.62331741
-0.24592969
-0.49134367
-0.2294265
-0.34567065
0.46860759
0.95910209
0.41176956
0.30335783
0.30849118
0.77073847
1.473796
1.3160338
1.2751105
1.2560857
-0.076242745
0.37044112
0.10245901
0.76247082
1.0024875
1.1905153
1.2433955
1.2463277
1.2170719
1.1600887
0.055607378
1.0634668
-0.22153098
-0.15500764
0.25652055
-0.015091592
1.2090383
1.1579094
1.1470156
1.2200654
1.2475517
1.1865075
1.1605711
1.1672277
1.2037175
1.2003048
0.9138706
0.28293327
0.17142688
0.12751023
1.0873022
0.96767797
1.0543077
0.83176988
0.59392539
0.61376408
0.59845842
0.51890345
0.54676932
0.52006776
0.5780402
0.61478127
0.59949749
0.57732923
0.59525366
0.56910578
-0.10947932
-0.10657167
-0.070269989
-0.29245015
-0.27805998
-0.39735474
-0.1448536
0.083801671
0.04568029
0.28888678
0.44247391
0.033769798
-0.15976189
-0.10174687
-0.012058761
0.20442086
0.24774822
0.10460725
0.17567325
0.16021672
0.13360371
0.2803794
0.28531228
-0.017764285
-0.012814132
-0.041794772
-0.034956508
0.037862426
0.1424608
0.14656721
0.0083205123
-0.0052943188
-0.042823082
-0.04604168
-0.0012749821
-0.036295553
-0.011672399
0.0023651997
-0.02062696
0.010636945
0.0063730015
-0.0036471077
0.019232533
0.011982117
0.63418178
0.62385922
0.62356238
0.72588759
0.71054338
0.73709496
0.72506836
0.54251689
0.53173963
0.53482776
0.54109146
0.52708329
0.54489385
0.57306232
0.63093505
0.64792272
0.60837024
0.5882046
0.61451273
0.57751512
0.56462048
0.57286635
0.56630449
0.50010832
0.50447112
-0.025175988
-0.0021504606
0.014019871
-0.060908806
0.0018022579
-0.018325278
0.0011124709
0.03539014
-0.0097381928
0.012059958
0.0016552369
-0.019563584
-0.01073906
-0.1587925
0.0091892193
-0.41292782
-0.44710984
-0.56983689
1.1069836
1.2687478
0.99453695
0.72086352
0.76037157
1.0425793
1.1799406
0.67965518
0.81758579
0.92927926
0.93284443
1.1518627
0.56132697
0.55102169
0.56253189
0.53675315
0.57166565
-0.016320172
0.23565989
0.11060095
0.33016663
0.58789584
0.63335265
0.45342218
0.40023501
0.54545788
0.43921143
0.96915627
1.0017603
0.85583208
0.9140959
0.87580802
0.580711
0.81379988
0.95135727
0.82735114
0.86555072
0.90625278
0.86517136
0.92098756
0.81261779
0.69964617
0.73491839
0.51161929
0.59719819
0.54545387
0.48743604
0.65194501
0.60712678
0.65517786
0.62495009
0.68823835
0.7743618
0.75798823
0.75819641
0.79699853
0.66693466
0.59344251
0.6135449
0.68689692
0.56195705
0.5871099
0.62913177
0.47914786
0.4897758
0.36313712
0.27357042
0.32672411
0.18039185
0.15148696
0.20306182
0.51050108
-0.10338118
-0.10582867
-0.47163631
0.94748984
1.4829727
1.0924822
1.0642766
1.2457999
1.2198785
1.2106312
1.2548212
1.2548293
1.0890289
1.1322374
1.1214701
1.0966712
1.141027
1.2079103
1.1903033
1.0007317
0.66557631
0.64063587
0.56044343
0.24882344
0.35790671
0.77172421
0.60882522
0.43726959
0.40778761
0.72404769
0.4546888
0.59262003
0.74710914
0.5578869
0.44871667
0.91695993
1.0363038
1.0276452
0.97920007
0.82735069
0.88695093
0.96860353
1.0363356
1.0693694
1.1421397
0.5479102
0.57008296
0.56153965
0.53918986
0.5671307
0.58585496
0.5874561
0.57951558
0.58433174
0.59302331
0.6039526
-0.060414445
-0.051803238
-0.080490218
-0.07770296
-0.044357089
-0.072111427
0.010347949
-0.018153613
-0.026972842
-0.024747794
-0.058127001
-0.076333076
-0.061056127
-0.039833676
0.14096199
0.1836855
0.12753017
0.10961848
0.33794682
0.46776869
0.52518778
0.44440888
0.25716408
0.28372284
0.35273657
0.020992124
0.04331063
0.055311205
0.07655317
0.077026222
-0.035721965
-0.040628264
-0.036122668
-0.034756568
-0.015299678
-0.038413497
-0.044744295
-0.032405688
-0.033220734
-0.040160666
-0.049729594
0.53839295
0.54567271
0.58854233
0.54586394
0.54703513
0.59411042
0.57589131
0.59386889
0.60452052
0.62609991
0.59624733
0.62459513
0.62401931
-0.018891639
-0.022740216
-0.039927431
-0.031202768
-0.024486791
-0.022730899
-0.030825863
0.28831528
0.13418937
0.17949541
0.030234607
-0.23661383
-0.12555817
0.6684389
0.81060088
0.80734033
1.0217452
0.8042705
0.76363105
0.91595848
1.0361821
0.44917096
0.67974602
0.49881692
1.1359118
1.050589
1.2178569
0.76829183
0.4826563
0.72998398
0.8124807
0.52176226
0.62944857
0.55362448
0.35878651
0.425823
0.49992582
0.67758242
0.48432115
0.54385424
0.47054234
0.48760461
0.54164052
0.56147345
0.64731535
0.70560902
0.40335735
0.37651794
0.30627542
0.98554233
1.0061162
1.0336321
1.0381295
1.0528706
0.82156625
0.81415763
0.85450832
0.83358831
0.80787063
-0.29110654
-0.3746852
-0.74238403
-0.22095927
0.40277258
0.99855456
0.88684262
1.3926125
1.1275265
1.2790333
1.2173554
1.185547
1.1042118
1.1195836
1.1810317
0.57100153
0.77429192
0.75743368
0.69585355
0.48332561
0.38379757
1.0242212
0.99777528
1.0746729
1.107082
1.0401706
1.1153649
0.56961889
0.58723032
0.56402354
0.57598023
0.55283183
0.56567427
0.060469915
0.0029164919
0.12381536
0.10370698
0.016229636
-0.013413869
-0.010654769
-0.0088364462
-0.028184014
-0.021219611
-0.005248474
-0.0020958196
0.33531704
0.27540576
0.052494941
0.174821
-0.0350336
-0.1416115
-0.20893225
0.010855354
0.18397727
0.18276901
0.57551464
0.85360064
0.70341106
0.80958234
0.63127566
0.74379239
0.75346267
0.70441338
0.74572775
0.62805813
0.64137416
0.703763
-0.094656713
0.22659831
1.4349629
1.3954757
1.008226
0.87266806
0.80702874
1.0769474
1.0181102
0.85146611
0.95709581
1.0683784
1.0490063
0.46209503
0.42810584
0.8426152
0.98017598
0.56546515
0.43691449
0.40657546
0.59033703
0.64910711
)
;

boundaryField
{
    wall-4
    {
        type            zeroGradient;
    }
    velocity-inlet-5
    {
        type            zeroGradient;
    }
    velocity-inlet-6
    {
        type            zeroGradient;
    }
    pressure-outlet-7
    {
        type            fixedValue;
        value           uniform 0;
    }
    wall-8
    {
        type            zeroGradient;
    }
    frontAndBackPlanes
    {
        type            empty;
    }
}


// ************************************************************************* //
