/*--------------------------------*- C++ -*----------------------------------*\
  =========                 |
  \\      /  F ield         | OpenFOAM: The Open Source CFD Toolbox
   \\    /   O peration     | Website:  https://openfoam.org
    \\  /    A nd           | Version:  9
     \\/     M anipulation  |
\*---------------------------------------------------------------------------*/
FoamFile
{
    format      ascii;
    class       volVectorField;
    location    "44";
    object      U;
}
// * * * * * * * * * * * * * * * * * * * * * * * * * * * * * * * * * * * * * //

dimensions      [0 1 -1 0 0 0 0];

internalField   nonuniform List<vector> 
918
(
(0.40856361 -0.00022419058 0)
(0.0090457059 2.9576278 0)
(-0.0056172417 1.330146 0)
(0.29039534 -0.0084088651 0)
(-0.011012144 2.2622503 4.1447661e-20)
(-0.011743957 2.9485787 -3.331551e-18)
(0.91213397 1.4244945 7.9198526e-19)
(0.18898494 0.11550997 -2.667053e-20)
(1.9883208 0.0041540731 0)
(0.0099815933 1.0615249 0)
(0.0054031065 0.96033988 0)
(0.10500925 0.0011268726 0)
(0.012835592 2.9163569 0)
(0.013659089 2.7912765 0)
(0.097129959 3.1582477 3.2403175e-19)
(-0.0089213147 2.116806 1.7566198e-20)
(0.081576014 0.013956351 1.649601e-18)
(0.1907904 1.4677684 5.9542035e-19)
(0.37665556 0.0072253408 0)
(-0.009208887 0.9113927 0)
(-0.043848672 0.097641042 -1.2901154e-18)
(1.0480055 -0.021521416 0)
(0.54453827 -0.027346038 0)
(0.24749114 -0.0062661967 0)
(0.11197704 0.028415792 0)
(0.020893154 2.6241536 0)
(-0.0099905485 2.9058002 1.2238538e-18)
(-0.01936074 1.3877473 0)
(-0.03479205 1.6490698 0)
(-0.01495053 1.3610865 0)
(-0.0063850954 2.8127852 0)
(-0.0020389329 2.3163663 -3.2583598e-20)
(-0.0046134966 2.0991605 0)
(-0.018162154 2.9813194 -1.2393873e-22)
(-0.018376419 3.0070219 2.5865766e-18)
(0.00085860358 3.0015932 0)
(0.29886793 -0.0028013672 0)
(0.42529485 0.89469232 3.465846e-19)
(1.03391 1.4654081 -9.835679e-19)
(1.054838 1.2879848 1.0007925e-18)
(0.86735049 1.5947157 -1.8163261e-19)
(0.74314402 1.5272666 1.0323575e-18)
(0.27335074 0.15014605 2.6008231e-20)
(0.18906425 0.082640388 0)
(1.2804104 0.74404948 0)
(0.24572378 0.15527395 1.1928684e-19)
(0.18021136 0.12142769 -1.2393723e-19)
(0.25350411 -0.013316712 0)
(1.9896554 0.0012500057 0)
(1.9887421 -0.0016426065 0)
(1.3549111 0.0024857263 0)
(1.8676109 0.0061718193 0)
(1.738107 0.0035276312 0)
(0.025646889 2.028289 -8.3312184e-19)
(0.026046033 1.3034647 0)
(0.033412291 1.1295851 0)
(0.0080687344 1.2838173 0)
(0.0049323177 1.017448 0)
(-0.002581784 2.2220157 0)
(0.012750577 1.212354 0)
(0.010773957 0.98334937 0)
(0.0063241673 1.2135269 0)
(0.0034606159 0.93256779 0)
(0.48702886 0.022605817 0)
(0.26040288 0.011189104 0)
(0.12571267 0.022824237 0)
(0.24026246 0.0082944378 0)
(0.088106132 0.0077153684 0)
(0.016738439 3.0145162 1.2748662e-18)
(0.012390067 3.0113854 0)
(0.0077271543 3.003575 0)
(0.013324222 3.0004917 1.3576827e-23)
(0.010556075 2.9476307 -1.8207365e-18)
(0.016837893 2.984897 0)
(0.013431753 2.8938528 0)
(0.017539092 2.9241735 2.9175203e-24)
(0.013822028 2.8183197 0)
(0.017284832 2.9109242 0)
(0.010892391 2.755142 0)
(0.24437681 3.6065227 0)
(0.17401055 3.5414662 0)
(0.12932316 3.2918305 -3.0290596e-19)
(0.046931012 2.988714 0)
(-0.018418067 2.2759973 0)
(-0.013812923 2.3380701 -1.7313016e-20)
(-0.0091009517 2.1378142 -2.7064483e-22)
(0.23390028 0.050361365 -5.6532686e-19)
(0.064431613 0.00092887375 -5.3584187e-19)
(0.26925247 0.046998325 -1.7326336e-18)
(0.11913621 0.020929774 -1.1611245e-18)
(0.17905058 1.1614945 0)
(0.30043904 1.6271001 -6.4082557e-19)
(0.37336294 1.5665976 1.0647875e-18)
(0.53847884 0.040706862 0)
(0.32799927 0.03088108 0)
(1.2189867 -0.0013002024 0)
(0.73684858 -0.035152831 0)
(0.64580504 0.01738251 -3.0779903e-18)
(0.64934132 -0.025683053 2.4103974e-18)
(-0.0030152525 1.1812398 0)
(0.0031473725 0.92078156 0)
(-0.043529999 1.4196852 0)
(-0.021349287 1.2230067 0)
(-0.015205579 0.91258768 0)
(-0.05856589 0.19614061 3.9542835e-19)
(0.11795681 0.10564951 0)
(0.50811945 0.021069116 0)
(0.24667659 0.014516699 0)
(0.20505706 0.0072539259 0)
(0.16274481 -0.010708621 0)
(0.091466945 0.016509258 0)
(0.91094428 0.05391238 0)
(0.087732344 0.038609077 0)
(-0.069709502 -0.048139172 2.0801212e-18)
(0.0011740105 2.8580997 1.0693756e-18)
(0.020415097 2.9008835 0)
(0.033124492 2.8785112 0)
(0.01497822 2.7061623 0)
(-0.010519558 2.9856715 1.1818726e-18)
(-0.009169004 2.8905124 0)
(-0.011795314 2.9907298 -3.6316512e-18)
(-0.0096032298 2.9158257 1.2426853e-18)
(-0.020400433 1.8421869 0)
(-0.0067221171 1.8534796 0)
(-0.0067510837 2.3239698 2.3173756e-22)
(-0.0058428331 2.2937686 0)
(-0.0076048427 2.0977172 0)
(0.63864545 0.019902946 0)
(0.32296712 0.011979165 0)
(0.23212818 0.030195126 0)
(0.61015001 0.0031548927 0)
(0.29312757 0.015632814 0)
(0.51036823 1.0734534 -4.2493532e-19)
(0.54249931 1.1090825 0)
(0.40857433 0.8863484 5.5173576e-20)
(0.31319003 0.66416833 0)
(1.1616681 1.310022 -2.8785673e-19)
(1.142403 1.1055637 5.6588926e-19)
(0.49294229 1.6890914 0)
(0.68727207 1.6762046 0)
(0.56308752 1.5795791 0)
(0.15631172 0.27052234 -4.478364e-19)
(0.28708414 0.11821693 0)
(0.17053054 0.073632904 3.3444588e-19)
(1.2635419 1.1294949 0)
(1.3438594 0.93569727 0)
(1.2160193 0.92273472 -4.7057854e-19)
(1.407646 0.74068429 0)
(1.3269097 0.572591 6.1130207e-20)
(0.58564032 0.023168341 0)
(0.54842612 0.013567884 0)
(0.26780036 0.010632432 0)
(0.52821383 0.0089619888 0)
(0.53811908 -0.012833531 0)
(0.2579709 0.007813277 0)
(1.4984086 -0.0012711347 0)
(1.8698383 -0.0011063207 0)
(1.7318221 0.00079734845 0)
(0.040277794 2.2541595 4.5311292e-19)
(0.049917776 1.9527261 0)
(0.031940377 2.343532 7.2427396e-19)
(0.019166085 2.0891019 -6.0097363e-19)
(0.13653451 1.4862713 -4.9125512e-19)
(0.05803619 1.3621607 0)
(0.077647738 1.2832157 0)
(0.0050598608 1.2660859 0)
(0.0045061303 1.0013358 0)
(-0.0054435746 2.4118954 -8.2147766e-22)
(0.0011714813 2.2204466 0)
(0.00099723244 2.4131284 -4.1960826e-20)
(-0.0016450742 2.2203093 6.8063547e-20)
(0.0060565158 1.2519195 0)
(0.010616853 1.2329089 0)
(0.0075254221 0.99217352 0)
(0.0054133544 1.2052768 0)
(0.0027205769 0.92019866 0)
(0.82483444 0.044115163 0)
(0.54627458 0.024222925 0)
(0.76442622 0.036883854 0)
(0.42127977 0.011324331 0)
(0.18229942 -0.00015638024 0)
(0.34978538 0.018859556 0)
(0.30453176 0.045662683 0)
(0.1669159 0.0070190462 0)
(0.0036697409 3.0720163 -1.091251e-20)
(0.010773881 3.0616255 0)
(0.016160285 2.9688221 0)
(0.013247363 2.8677475 0)
(0.71968279 4.1811132 0)
(1.2126039 3.2509391 8.537274e-19)
(0.068377469 3.1223518 0)
(0.028129947 2.8980217 0)
(-0.01350621 1.8522593 0)
(-0.019177339 2.0871135 0)
(-0.016616747 1.9519166 0)
(-0.019527816 2.7541129 -1.1068892e-20)
(-0.014638333 2.4597481 0)
(-0.016910496 2.6041998 0)
(-0.0030641494 2.1619217 2.7778417e-21)
(-0.0072958416 2.3888734 8.1798508e-21)
(-0.0084947561 2.3660618 2.4610023e-22)
(-0.006362814 2.1446597 0)
(0.22751347 0.017606194 8.1525769e-19)
(0.025460932 -0.0092062605 -8.0905894e-19)
(0.3042512 1.7045932 0)
(0.20680449 0.94281634 -3.7847222e-19)
(0.22517144 1.8454922 -1.1733175e-18)
(0.13725965 1.4013371 1.1772201e-18)
(0.29684618 5.0439817e-05 0)
(0.49238623 0.0026088582 0)
(0.49954064 0.020642454 0)
(0.30642015 0.008391756 0)
(0.0040736213 1.1945214 0)
(0.0031330835 1.1826219 0)
(0.0036085406 0.9164633 0)
(0.2148732 0.15943287 1.1070429e-18)
(0.15549205 0.15998202 -1.3084551e-18)
(0.15633079 0.12808356 0)
(1.2341654 0.14133054 2.5135903e-20)
(1.1186745 0.116773 0)
(1.0842806 0.095428415 0)
(0.74087383 0.035222407 0)
(0.20797383 -0.021090071 0)
(0.15467234 -0.050292954 -3.3716507e-18)
(-0.042160557 -0.011898163 1.305151e-18)
(0.0021238909 2.9838318 1.0689645e-18)
(-0.0038038435 2.8638297 4.498131e-20)
(0.0038304739 3.053969 -2.2844912e-20)
(0.012748443 3.0472372 8.2248383e-19)
(-0.0094031412 2.9952515 4.0387335e-20)
(-0.0083925915 2.9361629 -1.6214055e-22)
(-0.0131623 3.0201636 -7.6123512e-19)
(0.0012121812 3.0231373 5.4867738e-19)
(0.0066719192 3.0398374 -8.2307557e-19)
(0.72845431 0.028947326 0)
(0.68899389 0.031495434 0)
(0.36438633 0.016494495 0)
(0.47064972 0.015263022 0)
(0.43284772 0.046624122 0)
(0.28717029 0.0080994316 0)
(0.37706104 0.0034208807 0)
(0.38737755 0.019339785 0)
(0.20089655 0.0059628912 0)
(0.69344086 1.3548007 -1.5780234e-19)
(0.76027969 1.4352662 0)
(0.1643099 0.34666014 1.082403e-19)
(0.34204358 0.7715514 8.2205939e-19)
(0.35915391 0.79666799 -4.8103427e-19)
(0.22314944 0.46853763 9.3800329e-19)
(0.42485034 0.98075187 2.277302e-18)
(0.17236743 0.35727271 5.0129726e-19)
(0.28665815 0.079165256 1.2272947e-18)
(0.29114099 0.11022032 3.2732764e-19)
(0.14800216 0.042122057 6.1991784e-19)
(1.4414596 0.55907633 2.2696951e-19)
(1.3151167 0.397857 1.9391235e-19)
(0.021898339 2.3987971 2.6914203e-19)
(0.0097483331 2.1596127 0)
(0.97769998 0.065488755 0)
(0.89246827 0.054180151 0)
(0.64028216 0.030812983 0)
(0.0099824907 3.0770307 0)
(0.016935532 2.9388188 1.6033026e-18)
(0.01652508 2.9537416 0)
(0.013491749 2.8434247 -1.6004617e-18)
(0.0094021715 3.0918094 3.6692049e-19)
(0.003649902 3.0887899 0)
(0.84932283 1.7209551 -8.1698713e-20)
(1.1115975 2.3258227 1.5318518e-20)
(0.82859925 1.8366186 -7.589409e-19)
(0.01340814 2.9953477 -9.8077667e-19)
(0.033745305 3.0323197 0)
(0.0115447 2.8692129 0)
(-0.0098361318 2.3944191 -2.3238475e-20)
(-0.0045219763 2.3995298 -1.3449254e-20)
(-0.0017755813 2.2000522 -4.8366943e-22)
(0.34305425 1.5426843 1.1978469e-18)
(0.21280257 0.76454729 -8.2231957e-19)
(0.087927025 2.1647728 8.1774715e-19)
(0.16646144 2.0254018 -1.0065127e-18)
(0.082612421 1.6890812 1.2493743e-19)
(0.013455695 3.1145689 -2.4267237e-18)
(0.016275043 3.1195852 2.7471577e-18)
(-0.0088346229 2.9800726 1.1295983e-18)
(-0.0057182679 2.9768026 -1.1091859e-18)
(-0.0077504626 2.8755918 -1.1507403e-18)
(0.0043855179 3.1055005 -2.8533077e-18)
(0.0092495761 3.1049897 2.8331614e-18)
(0.38703794 0.85000413 0)
(0.34368447 0.78529936 -1.8444732e-18)
(0.13965805 0.28620671 8.1940826e-19)
(0.41655536 1.099727 1.4323691e-18)
(0.1955858 0.44968785 -2.2265669e-18)
(1.3716107 0.22810104 3.7630492e-20)
(1.4345266 0.3843901 0)
(1.266013 0.23890963 4.0644022e-20)
(0.0061659948 2.4219997 -1.7484488e-21)
(0.006590928 2.4107529 0)
(0.0035945047 2.195363 0)
(0.39245409 1.4095534 -4.3209258e-19)
(0.42386573 1.2678538 -9.7183131e-19)
(0.20302595 0.58606906 1.7551542e-18)
(1.1921925 0.007900796 0)
(1.3374158 0.0035777364 4.8716861e-19)
(-0.026529964 1.8099583 0)
(-0.041091006 1.8354888 0)
(1.5122983 0.00076311728 4.953079e-21)
(1.0982672 0.015681215 1.101509e-18)
(-0.016915449 2.7592237 1.435431e-20)
(-0.016098309 2.8013781 0)
(0.058151553 3.1744727 7.8905811e-19)
(0.52073868 3.5304418 0)
(1.5964811 0.91300322 -3.8263389e-20)
(1.2680906 0.014809541 2.2988115e-20)
(1.375684 0.028438506 0)
(1.9988455 0.011014952 1.0420325e-20)
(0.080501249 1.8327617 0)
(0.12286376 2.7656977 0)
(0.014708851 1.7757098 0)
(0.00019327066 2.8378012 3.5529545e-20)
(-0.022175203 2.7828166 1.697622e-20)
(1.24222 0.03637311 2.2570433e-20)
(1.4796077 0.067023907 0)
(1.5463403 0.10366458 0)
(-0.020758135 2.1063107 0)
(-0.013081874 2.7960267 0)
(-0.0080259285 1.7955036 0)
(0.3540539 1.9718887 -3.1897202e-19)
(1.2998518 0.012278058 0)
(1.094594 0.010670019 0)
(1.9714151 0.014189192 6.3917593e-19)
(1.6587717 0.018063475 -7.2872116e-19)
(1.9059184 0.012275182 0)
(-0.016556364 1.9275029 0)
(-0.019288722 1.8264363 0)
(-0.015961294 1.8770704 0)
(-0.011811049 1.7880467 0)
(-0.014878182 1.7716747 0)
(-0.019148083 1.7794841 0)
(1.4238516 0.045538414 0)
(1.2748204 0.030217786 2.0613102e-20)
(1.0722814 1.7250261 4.7884713e-19)
(1.9564669 0.0046188984 -6.529524e-19)
(1.7063513 -0.00238349 7.8584362e-19)
(1.8969291 -0.0041491845 0)
(1.3009506 0.006819697 6.5848684e-19)
(1.1766334 0.0031816565 -8.208062e-19)
(0.92086903 0.020870287 0)
(-0.01711248 2.8328938 0)
(-0.018977874 2.8064032 -1.0817051e-20)
(-0.016219037 2.8254044 6.1647132e-21)
(1.7266676 0.38833676 5.7337459e-19)
(1.6616515 0.18273019 0)
(0.070642498 3.0559592 -1.4517181e-18)
(0.041745943 2.8536323 -1.0109601e-19)
(0.17392005 3.178294 2.2227386e-18)
(0.16055712 3.2406086 -3.5243052e-19)
(0.15752152 3.2810426 0)
(0.029853315 3.1338365 4.1398645e-19)
(0.080394633 3.1730403 1.4266674e-18)
(0.076841525 3.19739 -7.7075752e-19)
(0.046619657 3.1098919 0)
(0.6285469 0.26933366 0)
(0.57367374 0.33626871 0)
(1.5678764 0.99039262 4.8872453e-20)
(1.5026525 1.1265028 1.6755697e-20)
(1.6697637 0.80453733 0)
(1.663182 0.73042382 0)
(1.2688987 0.022959569 -1.3163883e-18)
(1.076088 0.01812953 1.6884615e-18)
(1.4001228 0.025638186 0)
(1.2360056 0.023990768 0)
(2.0037944 0.020075995 0)
(1.8759331 0.011092884 0)
(1.9361908 0.013530015 0)
(1.7249358 0.00095895446 0)
(1.6643161 0.0032159346 0)
(1.7967727 0.0027349624 0)
(0.067717008 1.821801 0)
(0.041859692 1.8003439 0)
(0.11868033 1.8673939 0)
(0.12941268 1.8687627 0)
(0.14467068 2.7908281 0)
(0.18216129 2.8675471 -4.9574994e-19)
(0.099890026 2.863302 0)
(0.080732931 2.8788285 2.1408482e-19)
(0.026413756 2.8978905 -1.7823093e-19)
(0.013971395 1.7844279 0)
(0.016389306 1.7494564 0)
(0.012155717 1.7849109 0)
(0.01482294 1.7536515 0)
(-0.0024273986 2.2869981 1.671915e-21)
(-0.021559862 2.8309429 -3.2784541e-20)
(-0.0058812337 2.8823847 2.9371189e-20)
(-0.010077377 2.911766 0)
(-0.02072999 2.8349485 -4.3524482e-20)
(-0.019138695 2.8305127 2.2682194e-22)
(-0.00047900961 2.2824418 3.4803288e-21)
(-0.018099577 2.6027542 4.3289631e-20)
(-0.023731652 2.6403223 -3.7316e-20)
(1.2915083 0.034126159 1.3683978e-18)
(1.0250096 0.031911214 -1.7226814e-18)
(1.2299596 0.04036888 -1.4582436e-18)
(1.087493 0.035554445 1.9127751e-18)
(1.511693 0.062226639 0)
(1.3615866 0.052951372 0)
(1.5669353 0.095895451 0)
(1.5246066 0.072077547 0)
(1.3715587 0.064683722 0)
(1.6647099 0.16822982 0)
(1.5893194 0.11589578 0)
(1.4638659 0.10329735 0)
(-0.017198305 2.6287313 6.9452714e-22)
(-0.018087339 2.2904393 0)
(-0.016129298 2.4567709 0)
(-0.013191899 2.823363 -2.1828977e-21)
(-0.0132097 2.8350131 1.8924714e-23)
(-0.0096837425 2.009245 -2.206874e-20)
(-0.016818098 1.9510549 2.2247048e-20)
(-0.01977806 1.8478123 0)
(-0.02241349 1.8554064 0)
(-0.022094552 1.8537214 0)
(-0.005678174 1.795357 0)
(0.00019441204 1.7555191 0)
(0.49988273 1.9971569 5.4036926e-19)
(0.52446775 1.988181 2.6957309e-19)
(0.58999854 2.6349125 -2.7572769e-19)
(0.38187752 2.7706217 7.1612319e-19)
(0.4260118 2.259694 9.9835457e-20)
(1.4106586 0.02726351 0)
(1.3366149 0.02613013 0)
(1.1471541 0.017311937 0)
(1.9820044 0.023016158 0)
(1.9616752 0.016812325 0)
(1.7259605 0.022133957 0)
(1.635021 0.020895801 0)
(1.6493077 0.025893602 0)
(1.3234747 0.025538048 1.2715102e-18)
(1.0111368 0.036842683 -1.6165908e-18)
(1.2799826 0.037480766 -1.3389766e-18)
(1.0905695 0.029707485 1.7280607e-18)
(1.0306186 1.7669071 0)
(0.90607401 1.8606556 4.8279904e-19)
(1.1899509 1.6444198 2.3348029e-19)
(1.2277815 1.5911913 -3.1106888e-19)
(1.2640934 2.6817107 8.9899838e-19)
(0.7511943 0.061548344 8.66447e-19)
(1.6774728 0.2063901 0)
(1.731641 0.30425281 -4.4149692e-19)
(1.6415334 0.24855745 -1.7572892e-20)
(1.5523512 0.18216581 0)
(0.2035992 2.9270568 9.9620509e-19)
(0.091717672 2.8157237 -2.1063216e-18)
(0.018096056 2.3936867 1.3072636e-18)
(0.085773805 -0.1999273 -6.0198831e-19)
(0.35657092 3.4503171 1.190939e-20)
(0.22908254 3.3623603 0)
(0.24241035 3.4178528 -1.6765109e-20)
(0.25182166 3.082067 -2.4462972e-18)
(0.38309946 3.1708482 0)
(0.013070366 3.1197462 7.4712622e-20)
(0.016149165 3.1323644 -7.9611515e-19)
(0.030201257 3.1184797 1.2374146e-18)
(0.036242196 3.1483568 0)
(0.033663907 3.1554725 0)
(1.3374329 2.771483 0)
(0.77239491 0.99717439 -9.0212855e-19)
(1.3918475 1.3459828 -7.7555911e-20)
(1.3234354 1.454102 0)
(1.232967 1.3921123 -1.6536655e-19)
(1.462205 1.225171 3.8071429e-20)
(0.31103898 0.39988165 -1.4866563e-18)
(0.7105659 0.2837813 -2.0312434e-20)
(0.56206029 0.18112856 7.1034613e-19)
(0.59543279 0.38050101 5.182992e-20)
(0.47330857 0.31993687 -2.1171164e-18)
(0.67067825 0.30808573 0)
(0.86381616 0.4635987 1.1886481e-18)
(0.86175456 0.43118138 0)
(0.64889861 0.34887443 0)
(0.5292688 0.24902791 0)
(1.2423766 0.85872954 7.0619538e-19)
(1.7368913 0.42512001 -5.2651041e-19)
(1.7239723 0.60292722 0)
(1.7067782 0.52970267 0)
(0.69294281 0.15176734 1.0183384e-18)
(1.2449279 0.72325615 -6.6506072e-19)
(1.0113521 0.62807465 1.2042323e-18)
(1.4711152 0.56554259 -1.1882376e-18)
(1.2428065 0.019455465 8.7081933e-19)
(1.2254249 0.020205615 -9.0323063e-19)
(0.97978471 0.017412759 0)
(1.4537103 0.045025966 0)
(1.3930579 0.034251555 -7.5871926e-19)
(1.2045175 0.023878299 7.4945005e-19)
(1.8301415 0.036227424 0)
(1.6997665 0.023539822 0)
(1.9095983 0.011618481 0)
(1.6711852 0.018096566 0)
(1.9573579 0.027249394 0)
(1.9413816 0.023339719 0)
(0.03333053 1.7989461 0)
(0.022367 1.7718205 0)
(0.15983532 1.8679722 4.3399026e-20)
(0.33126903 1.9585227 1.7066222e-19)
(0.19182638 1.9251487 3.8498356e-19)
(0.22488633 1.9358439 -6.1727002e-19)
(0.20733095 1.9004935 0)
(0.19057531 2.0498996 -5.9992438e-20)
(0.16476703 2.0344511 0)
(0.39338011 2.2204371 -1.3831412e-19)
(0.36473773 2.5036372 6.8408821e-19)
(0.25350632 1.9906564 5.3771647e-20)
(0.32139247 1.9231617 6.5337644e-20)
(0.26075735 1.9118761 -5.3238489e-20)
(0.38140119 1.9067956 -1.0025029e-19)
(0.30173343 2.0338928 0)
(0.35694497 2.0408187 1.1117143e-19)
(0.03821204 2.5092645 -3.2675511e-20)
(0.032963805 2.8893975 0)
(0.067807954 2.6096034 1.5010301e-19)
(0.057195238 2.6160976 0)
(0.058576654 2.8999143 -2.3822098e-19)
(0.043840459 2.9395935 0)
(0.01083637 1.8619069 2.553761e-20)
(0.015070954 1.921019 0)
(0.016431391 1.8321209 0)
(0.011648694 1.8197808 -2.8974556e-20)
(0.0030325788 2.8696171 -2.2692982e-21)
(0.013510773 2.9026201 2.0475376e-19)
(0.0063107192 2.9375748 1.440766e-21)
(-0.0033005445 2.1728927 1.2207035e-21)
(-0.0063065353 2.0792464 -3.6993458e-21)
(0.015406495 1.7771471 0)
(0.014659063 1.7414028 0)
(0.037493005 2.0217691 2.8932098e-21)
(0.018829437 1.881341 -3.2857845e-20)
(0.024182228 1.9553214 2.99931e-20)
(0.045421151 2.0402041 0)
(-0.034620045 2.4896582 3.5764015e-20)
(-0.030012648 2.7321573 3.5080858e-22)
(-0.03018827 2.6531566 -2.3364988e-21)
(-0.0051054703 2.1747387 -1.4443747e-21)
(-0.027013742 2.6834747 -3.0713372e-21)
(-0.027416867 2.655845 3.4674009e-20)
(1.2274546 0.031197015 -9.2786953e-19)
(1.2351279 0.024616329 9.2221744e-19)
(0.98641248 0.024752975 0)
(1.5212342 0.090424325 1.43856e-18)
(1.1735716 0.038875352 -1.5825871e-18)
(1.1001136 0.032142311 1.7867971e-18)
(1.5459003 0.12206207 -1.9537145e-19)
(1.4453376 0.045457593 0)
(1.4608362 0.052653231 7.5335383e-19)
(1.3288831 0.043523619 -7.4747041e-19)
(1.7383116 0.11413578 -4.5222759e-20)
(1.7049236 0.092929783 3.9148191e-19)
(1.8337451 0.12083647 0)
(1.8880925 0.11761471 -1.5133452e-19)
(1.7543419 0.066174565 0)
(1.6240852 0.051828585 0)
(1.8596959 0.037039094 0)
(1.6612683 0.036785692 0)
(1.8826952 0.077134413 3.0349055e-19)
(1.8621178 0.059174578 -6.4732301e-19)
(1.8759958 0.10143869 -3.067119e-19)
(1.8763459 0.096098932 -3.5706673e-19)
(1.8590888 0.14340283 6.9498357e-19)
(1.7296772 0.13756749 0)
(1.7788828 0.18752265 0)
(-0.028118538 2.4863198 5.0560478e-20)
(-0.019510625 2.3019945 3.11981e-23)
(-0.020789751 2.296665 0)
(-0.026403541 2.669405 -5.1962395e-20)
(-0.018945433 2.6295397 -6.8635024e-22)
(-0.023011241 2.6618536 3.9311776e-21)
(-0.020414622 2.8444576 1.1515366e-21)
(-0.018827803 2.7595336 -1.7905855e-21)
(-0.022418027 2.7269625 -1.333473e-21)
(-0.012917437 2.8354475 -2.7669543e-21)
(-0.019936633 2.837147 5.0848607e-21)
(-0.013052586 1.9238718 -2.3117432e-21)
(-0.0018295426 2.0312956 -1.7841211e-20)
(0.51716414 1.9785726 -2.309517e-19)
(0.47962296 1.9280067 6.2909083e-20)
(0.86795342 1.9066008 -4.6825076e-19)
(0.68513993 1.9839547 -2.6036079e-19)
(0.72338869 1.9508642 0)
(0.6404635 2.5936034 2.5548223e-19)
(0.69567802 2.6121266 4.028178e-19)
(0.44831821 2.6974712 1.1181113e-19)
(0.46009628 2.6922646 -7.1156438e-19)
(0.54508888 2.6215538 6.9090682e-19)
(0.55237361 2.6513134 0)
(0.48347072 2.7143171 -6.3786879e-19)
(0.22885839 2.7877567 1.2694049e-18)
(0.3355655 2.7708008 -5.0293969e-20)
(0.26983423 2.863682 -1.7429679e-18)
(1.0224322 2.5234725 1.0763522e-18)
(0.88924811 2.5450579 0)
(1.9567567 0.03031157 2.5026797e-20)
(1.6636196 0.028201153 -2.1402311e-20)
(1.6842709 0.028089906 -3.7559656e-19)
(1.8847307 0.035968871 3.7643767e-19)
(1.9916078 0.037421849 0)
(0.95523715 1.7751352 0)
(0.96021433 1.6832416 0)
(1.1456945 1.5865039 0)
(0.98890843 1.5815595 0)
(1.2705303 2.7124185 5.0402549e-21)
(1.1851079 2.5468453 0)
(0.92986362 2.2260921 6.842736e-21)
(0.87714034 2.5017178 0)
(0.99128934 2.5720304 -5.7212988e-19)
(1.0186671 2.5601449 3.9066435e-19)
(0.75918844 0.10272551 0)
(0.71404906 0.1039879 2.4255581e-19)
(1.0640546 0.11824322 1.319097e-18)
(0.80105633 0.066409982 -5.308689e-19)
(0.75189289 0.01313171 -1.5159519e-18)
(1.7551503 0.35481789 -1.116759e-18)
(1.5891703 0.42386937 -3.001169e-20)
(1.2803205 0.33228365 1.36273e-18)
(1.5553788 0.3032942 1.0940074e-18)
(1.3016137 0.17526269 -1.7729211e-18)
(1.2391612 0.18894243 2.2584028e-19)
(1.2745049 0.26009573 -5.0493497e-19)
(1.2755006 0.22920779 0)
(1.54877 0.22278158 8.6966532e-19)
(1.6853336 0.26581625 0)
(1.6795191 0.31641246 0)
(1.7528525 0.22677238 3.3980381e-19)
(1.8184881 0.27941686 -2.2886217e-20)
(1.7905671 0.35366829 -1.9674151e-19)
(1.7653445 0.32403318 0)
(1.5754804 0.05780568 7.4083678e-19)
(1.8411452 0.10252997 8.9320144e-19)
(1.7879818 0.076419677 -7.0399856e-19)
(1.7865336 0.12059445 -6.0841031e-19)
(1.5659588 0.089865151 -1.0312813e-18)
(1.4174974 0.14160564 0)
(1.4406479 0.13120005 0)
(1.1233433 0.04976208 -6.4711239e-19)
(1.0012653 0.043222408 2.6499351e-19)
(1.7096175 0.14890366 8.9109897e-19)
(1.8381533 0.2181542 -1.0035033e-18)
(1.8067383 0.23059381 9.2177864e-19)
(1.7354287 0.21297746 0)
(1.8311523 0.18335094 0)
(1.8581668 0.1635177 -3.9420293e-19)
(1.8174109 0.15350184 -7.2659252e-19)
(0.74005678 1.4426099 2.8110002e-19)
(0.80724329 1.7745041 -3.0676049e-19)
(1.171235 2.7414309 -3.4857138e-19)
(1.2861288 3.1008014 6.9247656e-20)
(1.3313704 2.7927683 -7.0352375e-19)
(1.3808142 2.8581631 1.1066501e-19)
(1.2528545 2.5329955 2.3463997e-20)
(1.3194298 3.0228743 -2.6750662e-19)
(1.3300943 3.0424539 4.9904019e-19)
(1.3016718 3.3061114 -3.6784385e-20)
(1.4153814 3.0723885 3.7983505e-20)
(1.4289982 3.000391 0)
(0.77482623 1.0766897 -8.4063543e-20)
(0.20563163 1.2970682 8.768307e-19)
(0.66123259 0.55792484 9.9119168e-19)
(0.44506107 0.14029802 1.0951014e-18)
(0.51725608 0.38080716 1.1945127e-18)
(0.64425998 0.51283516 -1.9687629e-18)
(0.63011751 0.51076832 1.5981746e-18)
(0.52450135 0.40706718 -6.040388e-19)
(0.3580227 0.29953579 1.3733573e-18)
(0.73267837 0.20194466 -5.7669492e-19)
(0.69908276 0.22569008 0)
(0.5768977 0.16353598 9.4890252e-21)
(0.93748096 0.61149872 6.3572487e-19)
(0.87078328 0.53332546 -2.3191969e-18)
(0.70503038 0.51689458 1.2743779e-20)
(0.71856908 0.49711605 0)
(0.9568913 1.0212332 7.1061399e-19)
(1.2639909 1.1189189 6.2354815e-19)
(1.1599148 1.2373643 -7.1802009e-19)
(1.3301228 1.1551209 -2.4070555e-19)
(1.3868686 1.2261714 -4.9200137e-20)
(1.3672912 1.2214336 4.9646095e-20)
(1.3518782 0.92813893 -1.1571108e-18)
(1.3918888 1.0389858 2.2598469e-19)
(1.4846402 1.0479165 0)
(1.5127508 0.99702335 -2.8368367e-19)
(1.6459207 0.45851739 3.2659218e-19)
(1.7559224 0.45675897 3.3524855e-19)
(1.7514899 0.42283658 4.7553088e-19)
(1.6323582 0.55101486 -6.5975501e-19)
(1.6542476 0.61821969 0)
(1.6866784 0.59422586 0)
(1.2571188 0.46097623 2.6843046e-20)
(1.0817627 0.31159714 0)
(1.1543787 0.29131077 6.6198202e-19)
(1.2625996 0.34250823 -1.5674575e-20)
(1.4680362 0.61308373 3.0794152e-18)
(1.374913 0.71216601 8.6736784e-19)
(1.3401277 0.61334165 -9.8302517e-19)
(1.0951777 0.53504934 1.0726689e-18)
(1.044374 0.52815268 6.354254e-19)
(0.9715338 0.4631566 -6.2338404e-19)
(1.6852724 0.043686535 6.3208066e-19)
(1.9529976 0.041863091 0)
(1.9205247 0.047744253 4.3047641e-19)
(1.7039432 0.043612673 -9.6114973e-19)
(1.9374468 0.041586035 4.8031966e-19)
(1.8738307 0.025482158 -1.0207191e-18)
(1.6879923 0.026490326 0)
(1.572049 0.029447986 -2.1433317e-19)
(1.8393262 0.021991488 5.3348859e-19)
(1.6651008 0.023104755 -2.7609052e-19)
(1.601569 0.029319497 2.0235719e-19)
(0.013047322 1.7781766 0)
(0.016151632 1.8056339 0)
(0.018657778 1.7816862 0)
(0.014377886 1.7565517 0)
(0.059398378 1.8451136 -1.1067604e-19)
(0.071770587 1.8279233 4.4168423e-20)
(0.1385459 1.9701218 -7.6880071e-21)
(0.11658025 1.8672255 -2.1451438e-20)
(0.026388316 1.8941797 3.6103141e-20)
(0.028984853 1.8920465 -2.80907e-20)
(0.051080254 1.8279653 -1.8095999e-20)
(0.038950992 1.8212447 8.6166871e-20)
(0.027713355 1.8024132 1.2421284e-20)
(0.019286381 1.8155062 5.6896834e-21)
(0.096572465 2.5537927 -1.6130867e-19)
(0.10199565 2.58428 0)
(0.17273932 2.3091619 1.0815096e-19)
(0.15846874 2.1196853 5.3190201e-20)
(0.29066997 2.2665863 -1.0210586e-19)
(0.23835076 2.6067999 0)
(0.28290269 2.5934158 -6.6141265e-19)
(0.33577858 2.4851984 4.7572443e-19)
(0.24872911 2.2375696 -2.5117298e-19)
(0.19176823 2.3872837 1.792255e-19)
(0.17599046 2.5009033 0)
(0.014745212 2.250943 -4.1544885e-20)
(0.014378156 2.6175022 -7.3938185e-20)
(0.0087296274 2.3934455 0)
(0.014156559 2.6752261 -1.5792765e-20)
(0.032664533 2.5163028 3.2853239e-20)
(0.0060308465 1.8437791 -6.464511e-21)
(0.006922631 1.8373801 1.0713826e-19)
(0.0081060841 1.8469521 -3.4226692e-20)
(0.0081527141 1.8442501 -3.3489222e-20)
(0.01175639 1.8694095 0)
(0.0039499898 1.8262027 0)
(0.0029314743 1.7815891 -4.6051458e-20)
(0.00056895934 1.8255707 1.2702587e-20)
(0.0035324935 1.82494 0)
(0.01057207 1.7742128 -3.4372024e-20)
(0.0079412241 1.7425852 7.0926967e-20)
(1.6731052 0.060334669 0)
(1.6651158 0.062287276 -6.9383479e-20)
(1.9496177 0.070110373 -5.4009945e-19)
(1.8371051 0.077902159 0)
(1.6911197 0.067992003 0)
(1.9143243 0.058275756 -2.2758836e-21)
(1.9159283 0.057875755 8.2230906e-19)
(1.7837637 0.044081675 1.0499974e-18)
(1.6563149 0.040185874 0)
(1.5779312 0.047082446 0)
(1.7730198 0.057195976 5.332943e-19)
(1.6133766 0.056719945 0)
(1.5754108 0.044159836 0)
(-0.020734058 2.2959413 0)
(-0.0049724094 2.0596299 -8.8604306e-21)
(-0.015272093 2.1811294 -1.4885708e-20)
(-0.0015399155 1.837988 0)
(-0.012286379 1.9721083 -1.4179644e-20)
(-0.011566012 1.9043919 8.3050835e-21)
(-0.0062215922 1.8426475 0)
(0.51099096 1.9049449 0)
(0.49648749 1.8366404 -1.6214801e-19)
(0.43908614 1.7695841 0)
(0.60114127 1.8653809 3.9150326e-20)
(0.66347305 1.9752473 0)
(0.61492634 1.9467341 3.967157e-20)
(1.1079975 2.7675389 -2.2312167e-20)
(1.0427137 2.5398134 -1.2387366e-18)
(1.0420723 2.4377096 1.4276508e-18)
(0.92002617 2.5296432 3.4814283e-19)
(0.90637497 2.574046 0)
(0.97201707 2.5529667 0)
(0.99693696 2.5282195 0)
(0.97640625 2.5315339 -1.2622613e-18)
(0.73883909 2.5181963 -5.6846023e-19)
(0.85776638 2.5426806 -1.3397254e-19)
(0.86012229 2.4945586 1.072113e-19)
(0.74557337 2.5704177 0)
(0.84606351 2.5582792 0)
(0.80111229 2.583217 -4.4335578e-19)
(0.8025599 2.571464 0)
(0.92312568 1.5137567 0)
(0.70915633 1.1908645 -8.8234597e-19)
(0.81971937 1.2470857 -5.3339162e-20)
(0.7626624 1.3556477 0)
(0.73257094 1.2905589 1.3469446e-18)
(1.1769009 1.2851609 -1.9803774e-19)
(1.156121 1.4319369 0)
(1.1747195 1.3782316 2.8651145e-19)
(0.98275687 1.460517 0)
(0.99502672 1.3302453 0)
(1.2421747 2.7862729 -3.9497218e-19)
(1.2018919 2.823468 -2.9268566e-19)
(0.99358068 2.3236964 5.1245683e-19)
(0.99542748 2.3577465 -1.6925802e-19)
(1.2147655 2.7753844 0)
(1.17306 2.7298152 2.1460286e-19)
(1.1982111 2.6155408 -3.8048341e-19)
(1.1145822 2.4679324 -2.7885273e-20)
(0.68415261 1.653486 0)
(0.70757413 1.4724881 -2.4740854e-19)
(0.82055812 1.6298474 0)
(1.0758847 0.22938597 0)
(0.72908618 0.12402242 0)
(0.55121296 0.093992629 0)
(1.0571833 0.2341199 -1.0325071e-18)
(0.76295649 0.15908905 5.9826186e-19)
(1.0210645 0.040111544 -5.2573199e-19)
(1.1350376 0.1009613 0)
(1.1147863 0.11047108 2.3218814e-19)
(0.84799733 0.031361177 9.3467734e-19)
(0.75550102 0.018473073 -5.9132986e-19)
(1.3050266 3.4300609 -2.4110336e-19)
(1.2912644 3.3624662 0)
(1.3234601 3.3867111 -5.86556e-19)
(0.51985429 3.4932968 5.4854872e-19)
(0.75675005 3.0272349 -4.0647974e-19)
(0.64992264 1.0187946 1.0355905e-18)
(0.60713083 1.0592591 0)
(0.46116378 0.47313202 -2.72268e-19)
(0.61697979 0.85727449 1.4976778e-18)
(0.66330996 0.45095968 -3.5721655e-19)
(0.59737779 0.6012333 4.175533e-19)
(0.79258571 0.60288045 8.6353911e-19)
(0.89059711 0.65469862 0)
(0.83713347 0.72928944 0)
(0.7325427 0.65097156 0)
(1.5402817 0.87512102 8.0476172e-20)
(1.4201725 0.78730694 -8.2364216e-19)
(1.4307471 0.83834442 6.1389455e-19)
(1.4953391 0.73890136 -6.1959097e-19)
(1.6313946 0.73906936 0)
(1.6380356 0.80902949 -1.3923125e-19)
(1.092721 0.47703154 -1.4074848e-18)
(1.1286118 0.47281215 -1.6728811e-18)
(1.0109365 0.42223567 1.1022434e-18)
(1.0027556 0.38690129 -1.1173997e-18)
(1.0798329 0.34598231 -8.6599189e-19)
(0.97464601 0.32573048 1.075268e-18)
(1.919657 0.042732129 -5.1227633e-19)
(1.9501782 0.045600395 1.0354841e-18)
(1.6906695 0.044373022 6.4095816e-19)
(1.7078068 0.050915818 -7.6254327e-19)
(1.8027077 0.061148834 0)
(1.9512088 0.059544824 -1.3363975e-18)
(0.071717575 2.0931011 1.6141636e-20)
(0.060701064 2.0275511 0)
(0.10833603 2.0877874 2.1408216e-19)
(0.12339839 2.0816875 -1.9540047e-19)
(0.099455551 1.991935 1.3603623e-20)
(0.083399497 1.9798537 0)
(-0.001363192 2.0841883 0)
(-0.003564132 1.9163357 5.4958497e-21)
(-0.003693237 1.8854975 -4.9727622e-21)
(-0.012500382 1.9719494 5.2612644e-21)
(-0.012105053 2.2185337 6.9111789e-21)
(-0.01204116 2.2404144 2.5131378e-21)
(0.69246417 1.7047903 -5.7451926e-19)
(0.64749755 1.7309984 6.0659997e-19)
(0.63876775 1.8333736 -4.0539681e-20)
(0.6143662 1.7170252 1.9662453e-20)
(0.88963776 1.8199191 0)
(0.7552549 1.920783 2.1126126e-19)
(0.81252211 1.9113284 -2.0509613e-19)
(0.69479079 1.8715002 4.0244244e-20)
(0.75493554 1.7587609 0)
(0.81956956 1.7314745 0)
(0.71756191 2.4916774 8.3225446e-19)
(0.71256892 2.5660368 1.5029058e-18)
(0.75945464 2.561487 -1.0800435e-18)
(0.63200744 2.5747977 -2.2373546e-19)
(0.62309868 2.6226967 3.7081939e-19)
(0.57764214 2.6021044 -9.3056906e-19)