/*--------------------------------*- C++ -*----------------------------------*\
  =========                 |
  \\      /  F ield         | OpenFOAM: The Open Source CFD Toolbox
   \\    /   O peration     | Website:  https://openfoam.org
    \\  /    A nd           | Version:  9
     \\/     M anipulation  |
\*---------------------------------------------------------------------------*/
FoamFile
{
    format      ascii;
    class       volScalarField;
    location    "36";
    object      p;
}
// * * * * * * * * * * * * * * * * * * * * * * * * * * * * * * * * * * * * * //

dimensions      [0 2 -2 0 0 0 0];

internalField   nonuniform List<scalar> 
400
(
1.8045625e-08
-0.00067285578
-0.0013853334
-0.0019426915
-0.0022199847
-0.0021564813
-0.0017277762
-0.00092618538
0.00023543475
0.001707419
0.0033872995
0.0051122092
0.00667349
0.0078491126
0.0084583982
0.0084236927
0.0078134071
0.0068445302
0.0058613143
0.0052989602
0.00065785886
-4.0508233e-05
-0.00056964189
-0.00094060752
-0.0011108454
-0.0010399034
-0.00070577256
-9.5527026e-05
0.00078911617
0.0019162008
0.0032095978
0.0045547163
0.0057819758
0.006716271
0.0072144386
0.0072145429
0.0067699691
0.0060527839
0.0053105423
0.0047385013
0.0014237164
0.00044066683
-0.000116583
-0.0004532259
-0.00061479103
-0.00058479412
-0.00034656391
0.00011975844
0.00082847339
0.0017699182
0.0028943015
0.0040981751
0.0052282546
0.006110993
0.0065938901
0.0065976831
0.0061557529
0.0054215232
0.0045937569
0.0037482435
0.0020142112
0.00068170131
1.6785029e-05
-0.00035883731
-0.00057153317
-0.00062654381
-0.00051006785
-0.0001906174
0.00036851405
0.0011843968
0.0022299225
0.0034174363
0.0045913782
0.0055569579
0.0061235734
0.0061665789
0.0056836353
0.0048170617
0.0037473009
0.0024736059
0.0021672816
0.00049613086
-0.00029624544
-0.00074869133
-0.0010582389
-0.0012452559
-0.0012927344
-0.001151289
-0.0007550394
-5.3092101e-05
0.00095703006
0.0022102861
0.0035447125
0.0047326695
0.0055218533
0.0057098957
0.005229298
0.0042016141
0.0028061912
0.00098396768
0.0016539723
-0.00031446786
-0.0012387754
-0.0017992884
-0.0022526495
-0.0026278968
-0.002898608
-0.0029910695
-0.0028025267
-0.0022376716
-0.0012510944
0.0001308903
0.0017446434
0.0033271091
0.0045416465
0.0050657852
0.004717504
0.0035662067
0.0017895992
-0.00072591674
0.00028703458
-0.0019195605
-0.0029729878
-0.0036713708
-0.0043202851
-0.0049531898
-0.0055301094
-0.0059479412
-0.0060589913
-0.0057073723
-0.0047757111
-0.0032586949
-0.0012665102
0.00090717679
0.002823128
0.0039868409
0.0040251013
0.0028877145
0.00071538357
-0.0026804965
-0.0020764198
-0.0044511825
-0.0056267946
-0.0064923126
-0.0073929098
-0.0083657531
-0.0093569123
-0.010231772
-0.010790956
-0.010804827
-0.01006335
-0.0084617542
-0.0060407632
-0.0030832161
-0.00012630659
0.0021126246
0.0029638301
0.0021355848
-0.00036603139
-0.0048726079
-0.0055241577
-0.0079921045
-0.0092779118
-0.010333781
-0.01153799
-0.012935408
-0.014462702
-0.015956315
-0.017162456
-0.017766022
-0.017438071
-0.015919468
-0.013122957
-0.0092517597
-0.0048990091
-0.0010300162
0.0012694105
0.0012777648
-0.0013339567
-0.0072016759
-0.010076904
-0.012565086
-0.013936655
-0.015183996
-0.016718375
-0.018602619
-0.020774198
-0.02304877
-0.025121692
-0.026586354
-0.02696935
-0.025812944
-0.022845681
-0.018074453
-0.012051095
-0.0059519549
-0.0013707394
0.00030059433
-0.0019472021
-0.0093822238
-0.015684981
-0.018132406
-0.019537546
-0.0209268
-0.022757736
-0.025129877
-0.027997012
-0.031166415
-0.034291486
-0.036876864
-0.038294185
-0.037844288
-0.035065863
-0.029601476
-0.021822502
-0.01298558
-0.0051849767
-0.00071575058
-0.0017641987
-0.010792254
-0.022243597
-0.024613034
-0.025945586
-0.027334948
-0.029324154
-0.032079229
-0.035588949
-0.039664663
-0.043927289
-0.047801319
-0.050530203
-0.051236492
-0.048956887
-0.043143555
-0.033769022
-0.021926347
-0.010036885
-0.0014154444
-9.8662946e-06
-0.010225618
-0.029641217
-0.031923897
-0.032978748
-0.034079864
-0.035939498
-0.038831511
-0.042795619
-0.047651595
-0.052990547
-0.058163601
-0.062284261
-0.064265544
-0.062875169
-0.057112195
-0.046476749
-0.031649092
-0.015037864
-0.00086438977
0.0046467648
-0.0055215354
-0.037866009
-0.040048515
-0.040440147
-0.040752524
-0.042015039
-0.044653057
-0.048758196
-0.054144069
-0.060356044
-0.066665359
-0.072060701
-0.075268294
-0.074811372
-0.069269275
-0.057628313
-0.039961512
-0.018247972
0.0027890397
0.01444516
0.0069075515
-0.047230595
-0.049134358
-0.048140588
-0.046882317
-0.046905507
-0.04879869
-0.052668294
-0.058276025
-0.065076115
-0.07223201
-0.07859578
-0.082712332
-0.082880218
-0.077309398
-0.064523944
-0.043934957
-0.016747987
0.012502951
0.032938789
0.032408959
-0.058896803
-0.059639885
-0.055883905
-0.051941069
-0.049972337
-0.050629887
-0.053928654
-0.059495351
-0.066611872
-0.07428531
-0.081191181
-0.085679416
-0.085831807
-0.079522202
-0.064876105
-0.040689269
-0.0072409182
0.032139377
0.064981458
0.077749189
-0.076226526
-0.072613757
-0.06351616
-0.055435367
-0.050725031
-0.049781613
-0.052312353
-0.057664375
-0.064891831
-0.072774983
-0.079779379
-0.084036759
-0.083391665
-0.07534897
-0.057602679
-0.028375142
0.012933332
0.065396483
0.11555152
0.15150623
-0.10809223
-0.089556405
-0.071233844
-0.057232986
-0.049072121
-0.04633022
-0.048077275
-0.053202617
-0.060434633
-0.068295876
-0.075027406
-0.078526927
-0.076389019
-0.065809685
-0.043865486
-0.0078184496
0.044393673
0.11299816
0.18838043
0.27186078
-0.1768455
-0.10828975
-0.076202539
-0.05465126
-0.042992385
-0.038998035
-0.040570519
-0.045928054
-0.05344155
-0.061438371
-0.068027598
-0.070962571
-0.067551145
-0.054739845
-0.029148821
0.013563599
0.07814696
0.17006436
0.28949547
0.47421823
-0.3720835
-0.12470849
-0.054973087
-0.031962531
-0.022063566
-0.020300529
-0.024359466
-0.031958011
-0.041261572
-0.0506409
-0.058316914
-0.062187477
-0.059782567
-0.048056821
-0.022658536
0.021474205
0.092818723
0.21015277
0.40288843
0.77640929
)
;

boundaryField
{
    movingWall
    {
        type            zeroGradient;
    }
    fixedWalls
    {
        type            zeroGradient;
    }
    frontAndBack
    {
        type            empty;
    }
}


// ************************************************************************* //
