/*--------------------------------*- C++ -*----------------------------------*\
  =========                 |
  \\      /  F ield         | OpenFOAM: The Open Source CFD Toolbox
   \\    /   O peration     | Website:  https://openfoam.org
    \\  /    A nd           | Version:  9
     \\/     M anipulation  |
\*---------------------------------------------------------------------------*/
FoamFile
{
    format      ascii;
    class       surfaceScalarField;
    location    "36";
    object      phi;
}
// * * * * * * * * * * * * * * * * * * * * * * * * * * * * * * * * * * * * * //

dimensions      [0 3 -1 0 0 0 0];

internalField   nonuniform List<scalar> 
760
(
1.2703074e-05
-1.2703281e-05
-2.8723067e-05
4.1426141e-05
-0.00012229198
9.3568916e-05
-0.00025039691
0.00012810493
-0.00039607664
0.00014567972
-0.0005453938
0.00014931716
-0.00068627532
0.00014088152
-0.00080689675
0.00012062144
-0.00089495766
8.8060909e-05
-0.00093839591
4.3438256e-05
-0.00092727945
-1.111644e-05
-0.00085686599
-7.0413439e-05
-0.0007304321
-0.00012643388
-0.00056134335
-0.00016908878
-0.00037276101
-0.0001885824
-0.00019447415
-0.00017828695
-5.6521863e-05
-0.00013795239
1.9614516e-05
-7.6136466e-05
3.041134e-05
-1.0796841e-05
3.0411364e-05
-4.3182824e-05
3.0479543e-05
-0.00020456661
0.00020280993
-0.00046832589
0.0003573282
-0.00080071023
0.00046048928
-0.0011673542
0.00051232368
-0.0015364543
0.00051841732
-0.0018782335
0.0004826607
-0.0021636888
0.00040607672
-0.0023645512
0.00028892336
-0.0024553581
0.00013424512
-0.0024181507
-4.8323891e-05
-0.0022453653
-0.00024319881
-0.001947562
-0.00042423721
-0.0015544729
-0.00056217794
-0.0011143234
-0.000628732
-0.00068747564
-0.00060513479
-0.0003345258
-0.00049090226
-0.00010089666
-0.00030976556
-1.5518721e-06
-0.0001101416
2.8859525e-05
-0.00011002747
0.00014050701
-0.00040303344
0.00049581589
-0.00083139249
0.00078568724
-0.0013456245
0.00097472131
-0.0018986088
0.001065308
-0.0024465936
0.0010664021
-0.0029480472
0.00098411436
-0.0033626348
0.00082066427
-0.0036519072
0.00057819572
-0.0037823337
0.0002646716
-0.0037298381
-0.0001008195
-0.0034858241
-0.00048721276
-0.003063283
-0.00084677828
-0.002499999
-0.0011254618
-0.0018582375
-0.0012704933
-0.0012181457
-0.0012452265
-0.00066373722
-0.0010453106
-0.00026308973
-0.00071041299
-4.7956287e-05
-0.00032527501
-1.9096807e-05
-0.00017344052
0.00031394754
-0.00059329588
0.00091567125
-0.0011777026
0.0013700939
-0.0018583817
0.0016554005
-0.0025769247
0.001783851
-0.0032813275
0.0017708049
-0.0039228155
0.0016256023
-0.0044541591
0.0013520079
-0.0048302823
0.00095431882
-0.0050112548
0.00044564409
-0.0049672712
-0.000144803
-0.0046844459
-0.0007700381
-0.0041723586
-0.0013588654
-0.003469133
-0.0018286872
-0.0026440133
-0.0020956129
-0.001793203
-0.0020960367
-0.0010258515
-0.0018126621
-0.00044021524
-0.0012960493
-9.6723889e-05
-0.00066876639
-0.00011582075
-0.00022979691
0.00054374444
-0.00076507935
0.0014509537
-0.0014914945
0.0020965091
-0.0023225615
0.0024864675
-0.0031901593
0.0026514487
-0.0040368453
0.0026174909
-0.0048100624
0.0023988195
-0.0054589921
0.0020009375
-0.0059342093
0.001429536
-0.0061898395
0.0007012743
-0.0061884188
-0.00014622376
-0.0059055876
-0.0010528693
-0.0053404225
-0.0019240306
-0.0045231203
-0.0026459895
-0.0035229795
-0.0030957537
-0.0024498067
-0.0031692096
-0.0014425404
-0.0028199284
-0.0006412316
-0.002097358
-0.00014883697
-0.0011611611
-0.00026465773
-0.00027729944
0.00082104388
-0.00091155225
0.0020852065
-0.0017607402
0.002945697
-0.0027228234
0.0034485508
-0.0037222306
0.0036508559
-0.0046987178
0.0035939781
-0.0055989171
0.0032990188
-0.0063712186
0.002773239
-0.0069637564
0.0020220739
-0.0073248638
0.0010623816
-0.0074074849
-6.360266e-05
-0.0071717149
-0.0012886395
-0.0065989026
-0.0024968431
-0.0057016891
-0.0035432032
-0.0045400247
-0.0042574181
-0.0032318455
-0.0044773888
-0.0019490222
-0.0041027516
-0.00088728816
-0.003159092
-0.00021159431
-0.0018368549
-0.00047625205
-0.00031411698
0.0011351609
-0.0010263422
0.0027974317
-0.0019735137
0.0038928685
-0.0030417629
0.0045167999
-0.004150728
0.004759821
-0.0052399573
0.0046832074
-0.0062580884
0.0043171499
-0.0071555417
0.0036706924
-0.0078803836
0.0027469159
-0.0083768581
0.0015588561
-0.0085854043
0.00014494341
-0.0084513329
-0.0014227108
-0.0079295104
-0.0030186656
-0.0070049722
-0.0044677414
-0.0057150497
-0.0055473407
-0.0041735848
-0.0060188537
-0.0025818464
-0.00569449
-0.0012041054
-0.004536833
-0.00029450417
-0.0027464561
-0.00077075623
-0.00033824893
0.0014734098
-0.0011031704
0.0035623532
-0.0021176363
0.0049073345
-0.0032598928
0.0056590563
-0.0044474108
0.005947339
-0.005621966
0.0058577626
-0.006736953
0.0054321369
-0.0077479708
0.0046817102
-0.0086063779
0.0036053231
-0.0092552537
0.002207732
-0.009627017
0.00051670679
-0.009649208
-0.0014005197
-0.0092489826
-0.003418891
-0.0083739452
-0.0053427787
-0.0070220745
-0.0068992115
-0.0052818153
-0.0077591128
-0.0033676679
-0.0076086374
-0.0016173639
-0.006287137
-0.00040826908
-0.003955551
-0.0011790253
-0.00034815636
0.0018215662
-0.0011372155
0.0043514124
-0.0021827895
0.0059529084
-0.0033586213
0.0068348881
-0.0045822441
0.0071709619
-0.0057998239
0.0070753423
-0.0069721964
0.0066045094
-0.0080636696
0.0057731833
-0.0090334431
0.0045750967
-0.0098289949
0.003003284
-0.010381275
0.0010689875
-0.010604527
-0.0011772683
-0.010400779
-0.0036226389
-0.0096748968
-0.0060686607
-0.0083686764
-0.0082054319
-0.006515687
-0.0096121023
-0.0043098859
-0.0098144384
-0.0021483241
-0.0084486989
-0.00056492553
-0.0055389495
-0.0017439508
-0.00034393491
0.0021655011
-0.00112786
0.0051353375
-0.0021647104
0.0069897589
-0.003325903
0.0079960806
-0.0045308037
0.0083758626
-0.0057319457
0.0082764843
-0.0069002227
0.0077727864
-0.0080123826
0.0068853431
-0.0090408271
0.005603541
-0.0099449677
0.0039074245
-0.010663395
0.0017874153
-0.011106746
-0.00073391756
-0.011163421
-0.0035659643
-0.010697129
-0.006534953
-0.0095826001
-0.0093199604
-0.0077667782
-0.011427924
-0.0053715022
-0.012209714
-0.0028071794
-0.011013022
-0.0007783692
-0.0075677597
-0.00252232
-0.00032890794
0.002494409
-0.0010824215
0.0058888511
-0.0020707773
0.0079781147
-0.0031636132
0.0090889166
-0.0042839024
0.0094961517
-0.0053928539
0.0093854358
-0.0064741408
0.0088540734
-0.0075205484
0.0079317506
-0.0085229182
0.0066059106
-0.0094603448
0.004844851
-0.010291332
0.0026184024
-0.010933227
-9.2022596e-05
-0.011283212
-0.0032159792
-0.011173633
-0.0066445316
-0.010415714
-0.01007788
-0.0088467368
-0.012996902
-0.0064557546
-0.014600697
-0.0035815275
-0.013887249
-0.0010642231
-0.010085064
-0.0035865431
-0.00031178407
0.002806193
-0.0010206788
0.0065977458
-0.0019260999
0.0088835358
-0.0028949489
0.010057766
-0.0038568826
0.010458085
-0.0047855634
0.010314116
-0.0056807662
0.0097492763
-0.0065544554
0.0088054399
-0.0074198889
0.0074713441
-0.0082818245
0.0057067864
-0.0091251549
0.0034617327
-0.009908639
0.00069146148
-0.010527256
-0.0025973623
-0.010827013
-0.0063447742
-0.010573628
-0.010331265
-0.0094932085
-0.014077321
-0.0073911391
-0.016702766
-0.0044189149
-0.016859473
-0.0014372118
-0.013066767
-0.0050237549
-0.00031004255
0.0031162356
-0.00098036412
0.0072680673
-0.0017790479
0.0096822195
-0.0025693649
0.010848083
-0.0032945943
0.011183315
-0.0039478952
0.010967417
-0.0045499686
0.01035135
-0.0051347837
0.0093902551
-0.005739918
0.0080764787
-0.0063985222
0.0063653907
-0.0071301248
0.0041933352
-0.0079302568
0.0014915934
-0.0087388035
-0.0017888155
-0.0094303569
-0.0056532208
-0.0097685796
-0.0099930423
-0.0094003427
-0.014445558
-0.007930579
-0.01817253
-0.0052061613
-0.019583891
-0.0019026121
-0.016370316
-0.006926367
-0.0003560398
0.0034722754
-0.0010239959
0.0079360235
-0.0017042284
0.010362452
-0.0022607962
0.01140465
-0.0026657186
0.011588238
-0.002944006
0.011245705
-0.0031442449
0.010551588
-0.0033248624
0.0095708726
-0.0035471876
0.008298804
-0.0038710404
0.0066892435
-0.0043491657
0.0046714605
-0.0050183754
0.0021608031
-0.0058766086
-0.00093058226
-0.0068578316
-0.0046719979
-0.0077762854
-0.0090745885
-0.0082658332
-0.01395601
-0.0077687389
-0.018669624
-0.005751099
-0.021601531
-0.0024366711
-0.019684744
-0.0093630381
-0.00050826063
0.0039805361
-0.0012456298
0.0086733929
-0.0017958811
0.010912703
-0.0020479958
0.011656764
-0.0020325018
0.011572744
-0.001825421
0.011038624
-0.0015121871
0.010238355
-0.0011778547
0.0092365401
-0.00090470821
0.0080256574
-0.00077371575
0.0065582511
-0.00086348626
0.0047612311
-0.0012473543
0.0025446712
-0.001982829
-0.00019510761
-0.0030818656
-0.0035729613
-0.0044600293
-0.0076964248
-0.0058274849
-0.012588554
-0.0065661622
-0.017930947
-0.0057684461
-0.022399247
-0.0029512247
-0.022501966
-0.012314263
-0.00086855286
0.0048490888
-0.0017629815
0.0095678219
-0.0021213513
0.011271073
-0.0019368391
0.011472252
-0.0013509134
0.010986818
-0.00051618215
0.010203893
0.00043705311
0.0092851194
0.0013996264
0.0082739669
0.0022723899
0.0071528939
0.0029609281
0.0058697128
0.0033691623
0.0043529968
0.0033968097
0.0025170238
0.0029385542
0.00026314788
0.0019096179
-0.0025440249
0.00026969027
-0.0060564972
-0.0018541593
-0.010464705
-0.0039515931
-0.015833513
-0.0048608327
-0.021490007
-0.0032547029
-0.024108096
-0.015568966
-0.0015910834
0.0064401722
-0.0026108515
0.01058759
-0.0025131323
0.011173355
-0.0015898994
0.010549019
-0.00017216106
0.009569079
0.0014928124
0.0085389191
0.0032329105
0.0075450213
0.0049232506
0.0065836268
0.0064630095
0.005613135
0.0077575134
0.004575209
0.0087075179
0.0034029922
0.0092015046
0.0020230371
0.009103348
0.00036130446
0.0082750956
-0.0017157725
0.0065654643
-0.0043468658
0.0039042378
-0.0078034782
0.00055895616
-0.012488231
-0.0024680531
-0.018462998
-0.0030273162
-0.023548832
-0.018596282
-0.0027183588
0.0091585314
-0.0031498651
0.011019095
-0.0018029962
0.0098264863
0.00046670629
0.0082793176
0.0030894305
0.0069463552
0.0057738197
0.00585453
0.0083629078
0.0049559331
0.010760406
0.0041861286
0.012893501
0.0034800397
0.014690669
0.0027780414
0.016068353
0.0020253083
0.01692329
0.0011680995
0.017119717
0.00016487744
0.016490832
-0.0010868876
0.014816842
-0.0026728754
0.011846659
-0.0048332947
0.0074354935
-0.0080770663
0.0022629302
-0.013290435
-0.001272466
-0.020013436
-0.019868748
-0.0024132786
0.011571811
2.8056898e-05
0.0085777577
0.0042551384
0.0055994037
0.0084161234
0.0041183323
0.012231487
0.0031309919
0.015656267
0.0024297503
0.018686551
0.0019256491
0.021329194
0.001543485
0.023583494
0.0012257394
0.025429229
0.00093230678
0.026820172
0.00063436561
0.027677182
0.00031108898
0.027900206
-5.8145923e-05
0.027347226
-0.00053390763
0.025771633
-0.0010972823
0.022843047
-0.0019047096
0.018054771
-0.0032887893
0.011113587
-0.0063492511
0.0033886755
-0.012288525
-0.016480072
0.011571811
0.02014957
0.025748974
0.029867306
0.032998298
0.035428048
0.037353697
0.038897182
0.040122922
0.041055228
0.041689594
0.042000683
0.041942537
0.041408629
0.040311347
0.038406637
0.035117848
0.028768597
0.016480072
)
;

boundaryField
{
    movingWall
    {
        type            calculated;
        value           uniform 0;
    }
    fixedWalls
    {
        type            calculated;
        value           uniform 0;
    }
    frontAndBack
    {
        type            empty;
        value           nonuniform List<scalar> 0();
    }
}


// ************************************************************************* //
