/*--------------------------------*- C++ -*----------------------------------*\
  =========                 |
  \\      /  F ield         | OpenFOAM: The Open Source CFD Toolbox
   \\    /   O peration     | Website:  https://openfoam.org
    \\  /    A nd           | Version:  9
     \\/     M anipulation  |
\*---------------------------------------------------------------------------*/
FoamFile
{
    format      ascii;
    class       surfaceScalarField;
    location    "8";
    object      phi;
}
// * * * * * * * * * * * * * * * * * * * * * * * * * * * * * * * * * * * * * //

dimensions      [0 3 -1 0 0 0 0];

internalField   nonuniform List<scalar> 
1890
(
0.0093061957
0.00069380425
0.0082843931
0.0010218027
0.0073298986
0.00095449449
0.0064869553
0.00084294334
0.0057695845
0.0007173708
0.00518986
0.00057972444
0.004738168
0.00045169205
0.00439519
0.00034297801
0.0041390268
0.00025616318
0.003949107
0.00018991983
0.003807888
0.00014121897
0.0037013782
0.00010650979
0.003619058
8.2320219e-05
0.0035534117
6.5646244e-05
0.0034992845
5.4127256e-05
0.0034532444
4.6040051e-05
0.0034130501
4.0194296e-05
0.0033772574
3.5792759e-05
0.0033449386
3.231876e-05
0.0033154893
2.944928e-05
0.0032885008
2.6988574e-05
0.0032636805
2.4820299e-05
0.003240805
2.2875481e-05
0.0032196925
2.1112422e-05
0.0032001879
1.9504663e-05
0.0031821539
1.8034027e-05
0.0031654671
1.6686737e-05
0.0031500158
1.5451373e-05
0.0031356979
1.4317867e-05
0.0031224208
1.3277073e-05
0.0031101002
1.2320591e-05
0.0030986595
1.1440721e-05
0.003088029
1.0630439e-05
0.0030781457
9.8833765e-06
0.0030689519
9.1937898e-06
0.0030603954
8.5565209e-06
0.0030524284
7.9669485e-06
0.0030450075
7.4209361e-06
0.0030380927
6.9147801e-06
0.0030316476
6.4451606e-06
0.0030256385
6.0090944e-06
0.0030200345
5.603896e-06
0.0030148074
5.2271401e-06
0.0030099307
4.876631e-06
0.0030053804
4.5503762e-06
0.0030011338
4.2465615e-06
0.0029971703
3.9635316e-06
0.0029934706
3.6997706e-06
0.0029900167
3.4538863e-06
0.0029867921
3.2245958e-06
0.0029837814
3.010712e-06
0.0029809702
2.811134e-06
0.0029783454
2.6248367e-06
0.0029758945
2.4508639e-06
0.0029736062
2.2883227e-06
0.0029714698
2.1363761e-06
0.0029694756
1.9942415e-06
0.0029676145
1.8611834e-06
0.002965878
1.7365139e-06
0.0029642585
1.6195853e-06
0.0029627487
1.509793e-06
0.0029613421
1.4065701e-06
0.0029600327
1.3093931e-06
0.002958815
1.2177762e-06
0.0029576838
1.1312825e-06
0.0029566343
1.049515e-06
0.0029556623
9.7212919e-07
0.0029547635
8.9882129e-07
0.0029539343
8.2933695e-07
0.0029531708
7.634575e-07
0.0029524698
7.0100603e-07
0.002951828
6.4183231e-07
0.0029512422
5.8582255e-07
0.0029507094
5.3288171e-07
0.0029502265
4.8294731e-07
0.0029497907
4.3596954e-07
0.0029493988
3.9192054e-07
0.0029490481
3.5077435e-07
0.0029487357
3.1250709e-07
0.0029484585
2.7708294e-07
0.002948214
2.4445264e-07
0.0029479993
2.1454624e-07
0.002947812
1.8728188e-07
0.0029476495
1.6255946e-07
0.0029475093
1.4027815e-07
0.0029473891
1.2032368e-07
0.0029472867
1.0258338e-07
0.0029471998
8.6926797e-08
0.0029471265
7.3222597e-08
0.0029470651
6.1305723e-08
0.0029470139
5.1032448e-08
0.0029469716
4.2200219e-08
0.0029469369
3.4698265e-08
0.0029469087
2.8294215e-08
0.0029468858
2.2982834e-08
0.0029468674
1.8463e-08
0.0029468525
1.4922566e-08
0.0029468406
1.1846668e-08
0.0029468308
9.8112216e-09
7.6670849e-09
0.010339525
0.00035427932
0.010570754
0.00079057335
0.010606301
0.00091894821
0.010547572
0.00090167137
0.010422317
0.00084262624
0.010244356
0.00075768559
0.010039421
0.00065662744
0.0098287427
0.00055365586
0.009625135
0.00045977083
0.0094353013
0.00037975354
0.0092624277
0.00031409258
0.0091075332
0.00026140425
0.008970154
0.00021969948
0.0088489023
0.00018689787
0.0087419716
0.00016105803
0.0086474927
0.00014051895
0.008563694
0.00012399297
0.0084890107
0.000110476
0.0084221096
9.9219871e-05
0.0083618775
8.96814e-05
0.0083073954
8.1470664e-05
0.0082579079
7.4307845e-05
0.0082127928
6.79905e-05
0.0081715353
6.2370001e-05
0.0081337049
5.7335032e-05
0.0080989387
5.2800206e-05
0.0080669272
4.8698288e-05
0.0080374036
4.4974973e-05
0.0080101361
4.1585405e-05
0.0079849213
3.8491857e-05
0.0079615797
3.5662165e-05
0.0079399518
3.3068624e-05
0.007919895
3.0687193e-05
0.0079012815
2.8496883e-05
0.007883996
2.6479287e-05
0.0078679343
2.4618203e-05
0.007853002
2.2899311e-05
0.007839113
2.1309918e-05
0.0078261891
1.9838735e-05
0.0078141585
1.8475686e-05
0.0078029559
1.7211748e-05
0.0077925209
1.6038818e-05
0.0077827984
1.4949593e-05
0.0077737376
1.3937472e-05
0.0077652915
1.2996473e-05
0.0077574169
1.2121159e-05
0.0077500739
1.1306572e-05
0.0077432255
1.0548182e-05
0.0077368376
9.8418361e-06
0.0077308785
9.1837135e-06
0.0077253189
8.5702922e-06
0.0077201317
7.9983131e-06
0.0077152917
7.4647533e-06
0.0077107758
6.9668023e-06
0.0077065622
6.50184e-06
0.0077026312
6.067422e-06
0.0076989642
5.6612617e-06
0.0076955442
5.2812226e-06
0.0076923554
4.9253034e-06
0.0076893834
4.591635e-06
0.0076866147
4.2784707e-06
0.007684037
3.9841893e-06
0.0076816391
3.7072861e-06
0.0076794105
3.4463852e-06
0.0076773415
3.2002288e-06
0.0076754234
2.9676938e-06
0.0076736478
2.7477789e-06
0.007672007
2.5396164e-06
0.0076704939
2.3424555e-06
0.0076691017
2.155668e-06
0.0076678239
1.9787251e-06
0.0076666545
1.8112028e-06
0.0076655875
1.6527533e-06
0.0076646173
1.5031137e-06
0.0076637382
1.3620758e-06
0.0076629447
1.2294899e-06
0.0076622315
1.1052376e-06
0.0076615931
9.8922001e-07
0.0076610243
8.8133921e-07
0.0076605198
7.8147714e-07
0.0076600746
6.8948748e-07
0.0076596838
6.0518276e-07
0.0076593427
5.2833698e-07
0.0076590466
4.586831e-07
0.007658791
3.9592953e-07
0.0076585717
3.3974216e-07
0.0076583846
2.8978685e-07
0.0076582259
2.4566512e-07
0.0076580921
2.070089e-07
0.00765798
1.7334309e-07
0.0076578865
1.4429452e-07
0.0076578093
1.1930194e-07
0.0076577459
9.8095392e-08
0.0076576942
7.998508e-08
0.0076576523
6.5024529e-08
0.0076576187
5.216885e-08
0.0076575914
4.2260686e-08
0.00765757
3.3140767e-08
0.007657552
2.7750092e-08
2.0099923e-08
0.010188704
0.00016557515
0.010530487
0.000448791
0.010851453
0.00059798177
0.011124174
0.00062895025
0.011350581
0.00061621887
0.011524486
0.00058378055
0.01164633
0.00053478421
0.011724155
0.00047583049
0.011767999
0.00041592665
0.011786639
0.000361114
0.011787114
0.00031361712
0.011775058
0.00027346026
0.011754861
0.00023989719
0.011729768
0.00021199032
0.011702054
0.00018877261
0.011673239
0.00016933389
0.011644339
0.00015289297
0.011616003
0.00013881183
0.011588629
0.0001265938
0.011562446
0.00011586445
0.011537572
0.00010634494
0.011514052
9.7827008e-05
0.011491889
9.0153374e-05
0.011471056
8.3203382e-05
0.011451508
7.6882632e-05
0.011433193
7.1115581e-05
0.011416051
6.5840314e-05
0.011400021
6.100493e-05
0.011385041
5.6565091e-05
0.011371051
5.2482362e-05
0.01135799
4.8723056e-05
0.011345801
4.5257424e-05
0.011334429
4.2059039e-05
0.011323822
3.9104327e-05
0.011313929
3.6372186e-05
0.011304704
3.3843678e-05
0.011296101
3.1501769e-05
0.01128808
2.9331097e-05
0.011280601
2.7317787e-05
0.011273627
2.5449274e-05
0.011267125
2.3714159e-05
0.011261062
2.2102079e-05
0.011255408
2.0603597e-05
0.011250135
1.9210098e-05
0.011245218
1.7913708e-05
0.011240632
1.6707214e-05
0.011236354
1.5583996e-05
0.011232365
1.453797e-05
0.011228643
1.3563531e-05
0.011225171
1.2655502e-05
0.011221932
1.1809096e-05
0.011218911
1.1019873e-05
0.011216092
1.0283708e-05
0.011213462
9.5967604e-06
0.011211008
8.9554483e-06
0.011208719
8.3564263e-06
0.011206584
7.7965655e-06
0.011204592
7.2729384e-06
0.011202735
6.7828036e-06
0.011201003
6.3235963e-06
0.011199388
5.8929204e-06
0.011197884
5.4885432e-06
0.011196483
5.1083949e-06
0.011195178
4.7505658e-06
0.011193965
4.4133122e-06
0.011192838
4.0950523e-06
0.011191792
3.7943745e-06
0.011190821
3.5100279e-06
0.011189923
3.2409279e-06
0.011189092
2.9861391e-06
0.011188326
2.7448772e-06
0.011187621
2.5164852e-06
0.011186973
2.3004354e-06
0.01118638
2.0962998e-06
0.011185838
1.9037529e-06
0.011185345
1.7225355e-06
0.011184898
1.5524542e-06
0.011184494
1.3933414e-06
0.01118413
1.2450492e-06
0.011183804
1.1074137e-06
0.011183513
9.8025179e-07
0.011183255
8.6333391e-07
0.011183027
7.5639629e-07
0.011182826
6.5911492e-07
0.011182651
5.7114016e-07
0.011182499
4.920567e-07
0.011182368
4.2144343e-07
0.011182254
3.5879157e-07
0.011182158
3.036325e-07
0.011182076
2.5534289e-07
0.011182006
2.1347402e-07
0.011181948
1.772407e-07
0.0111819
1.463996e-07
0.01118186
1.1984549e-07
0.011181827
9.7962478e-08
0.011181801
7.8773437e-08
0.011181779
6.431033e-08
0.011181762
5.0128166e-08
0.011181747
4.252862e-08
3.0656293e-08
0.010097182
6.8393555e-05
0.010346961
0.00019901112
0.010662469
0.00028247387
0.010982753
0.00030866649
0.011290229
0.00030874342
0.011575251
0.00029875789
0.011829022
0.00028101346
0.012047865
0.00025698756
0.012233272
0.00023051982
0.01238924
0.0002051459
0.012520295
0.00018256236
0.012630755
0.00016299957
0.012724428
0.00014622491
0.012804515
0.00013190313
0.012873613
0.00011967427
0.012933772
0.00010917461
0.012986596
0.00010006907
0.013033332
9.207637e-05
0.01307495
8.497526e-05
0.013112216
7.8598624e-05
0.013145739
7.2822316e-05
0.013176012
6.7553952e-05
0.013203441
6.2723939e-05
0.013228366
5.8278911e-05
0.013251071
5.4177003e-05
0.013271802
5.0384449e-05
0.01329077
4.6873183e-05
0.013308155
4.3619203e-05
0.013324119
4.060149e-05
0.0133388
3.7801317e-05
0.013352321
3.5201797e-05
0.013364791
3.2787582e-05
0.013376305
3.0544652e-05
0.01338695
2.8460154e-05
0.0133968
2.652229e-05
0.013405923
2.4720207e-05
0.013414381
2.3043918e-05
0.013422228
2.1484224e-05
0.013429513
2.0032648e-05
0.013436281
1.8681371e-05
0.013442572
1.7423179e-05
0.013448422
1.6251408e-05
0.013453866
1.5159905e-05
0.013458933
1.4142976e-05
0.013463652
1.3195355e-05
0.013468047
1.2312169e-05
0.013472142
1.1488897e-05
0.013475958
1.0721349e-05
0.013479516
1.0005634e-05
0.013482834
9.3381345e-06
0.013485927
8.7154817e-06
0.013488813
8.1345353e-06
0.013491504
7.5923652e-06
0.013494014
7.0862317e-06
0.013496356
6.6135714e-06
0.013498541
6.1719835e-06
0.013500578
5.7592155e-06
0.013502478
5.3731576e-06
0.013504249
5.0118266e-06
0.013505899
4.6733652e-06
0.013507436
4.3560315e-06
0.013508866
4.0582018e-06
0.013510196
3.7783611e-06
0.013511432
3.5151143e-06
0.013512578
3.2671707e-06
0.013513639
3.0333655e-06
0.013514621
2.812636e-06
0.013515527
2.6040479e-06
0.013516361
2.4067652e-06
0.013517128
2.2200743e-06
0.013517829
2.0433521e-06
0.013518469
1.8760868e-06
0.013519052
1.7178412e-06
0.01351958
1.568278e-06
0.013520057
1.4271109e-06
0.013520485
1.294135e-06
0.013520868
1.1691698e-06
0.01352121
1.0520834e-06
0.013521512
9.4274527e-07
0.013521778
8.4103469e-07
0.013522012
7.4681661e-07
0.013522215
6.5993818e-07
0.013522391
5.8022075e-07
0.013522543
5.0745584e-07
0.013522672
4.4141146e-07
0.013522783
3.8181426e-07
0.013522876
3.283847e-07
0.013522954
2.8076936e-07
0.013523019
2.3866505e-07
0.013523073
2.0161326e-07
0.013523117
1.693493e-07
0.013523153
1.412535e-07
0.013523182
1.1726849e-07
0.013523205
9.6428008e-08
0.013523224
7.9289723e-08
0.013523239
6.3974484e-08
0.013523251
5.2629627e-08
0.01352326
4.0997515e-08
0.013523267
3.5130987e-08
2.5408013e-08
0.010068394
-3.5122689e-13
0.010267405
-3.2613817e-13
0.010549879
-9.7533303e-14
0.010858545
2.4079567e-13
0.011167288
5.2476105e-13
0.011466046
7.3400262e-13
0.01174706
8.0917275e-13
0.012004047
8.193015e-13
0.012234567
8.277335e-13
0.012439713
8.6439446e-13
0.012622275
9.8938235e-13
0.012785275
1.2062594e-12
0.0129315
1.5695944e-12
0.013063403
2.0998693e-12
0.013183077
2.8898594e-12
0.013292252
3.9909905e-12
0.013392321
5.3650077e-12
0.013484397
6.993037e-12
0.013569373
8.5767933e-12
0.013647971
1.0011678e-11
0.013720793
1.1078257e-11
0.013788347
1.1803402e-11
0.013851071
1.249816e-11
0.01390935
1.3368707e-11
0.013963527
1.5059201e-11
0.014013912
1.7724924e-11
0.014060785
2.1605914e-11
0.014104404
2.6690385e-11
0.014145006
3.2367939e-11
0.014182807
3.84491e-11
0.014218009
4.3955727e-11
0.014250796
4.8696781e-11
0.014281341
5.2486944e-11
0.014309801
5.5554226e-11
0.014336323
5.8885868e-11
0.014361043
6.2988477e-11
0.014384087
6.8778915e-11
0.014405571
7.6362951e-11
0.014425604
8.527291e-11
0.014444285
9.5172765e-11
0.014461708
1.0447745e-10
0.014477959
1.1288632e-10
0.014493119
1.1912392e-10
0.014507262
1.2320467e-10
0.014520457
1.2513819e-10
0.014532769
1.2528476e-10
0.014544258
1.244305e-10
0.014554979
1.2287624e-10
0.014564985
1.2047878e-10
0.014574323
1.1682403e-10
0.014583038
1.1039732e-10
0.014591173
1.0028747e-10
0.014598765
8.5165174e-11
0.014605851
6.4828256e-11
0.014612464
3.9841068e-11
0.014618636
1.0834429e-11
0.014624396
-2.5041661e-11
0.014629769
-6.2286768e-11
0.014634781
-1.0147911e-10
0.014639454
-1.439422e-10
0.01464381
-1.8781482e-10
0.014647869
-2.3510213e-10
0.014651647
-2.8147545e-10
0.014655163
-3.2883144e-10
0.01465843
-3.6994744e-10
0.014661464
-4.0750061e-10
0.014664277
-4.3394695e-10
0.014666882
-4.5332125e-10
0.014669289
-4.6089497e-10
0.01467151
-4.6298449e-10
0.014673553
-4.5643452e-10
0.01467543
-4.4811754e-10
0.014677148
-4.3186429e-10
0.014678717
-4.1334423e-10
0.014680144
-3.8274282e-10
0.014681439
-3.44153e-10
0.014682608
-2.9120268e-10
0.014683661
-2.3019484e-10
0.014684604
-1.6274991e-10
0.014685445
-9.6637584e-11
0.014686192
-3.7768447e-11
0.014686851
1.414125e-11
0.014687431
5.7411365e-11
0.014687939
9.0631046e-11
0.01468838
1.2044218e-10
0.014688762
1.4866352e-10
0.01468909
1.7664588e-10
0.014689371
2.0575242e-10
0.01468961
2.306937e-10
0.014689811
2.5308558e-10
0.01468998
2.6682643e-10
0.014690121
2.7508921e-10
0.014690238
2.7596893e-10
0.014690334
2.732731e-10
0.014690413
2.6806076e-10
0.014690477
2.5875572e-10
0.014690529
2.5141925e-10
0.01469057
2.3433637e-10
0.014690605
2.2667688e-10
2.1407249e-10
0.010068394
-6.8393556e-05
0.010267405
-0.00019901112
0.010549879
-0.00028247387
0.010858545
-0.00030866649
0.011167288
-0.00030874342
0.011466046
-0.00029875788
0.01174706
-0.00028101346
0.012004047
-0.00025698755
0.012234567
-0.00023051982
0.012439713
-0.0002051459
0.012622275
-0.00018256236
0.012785275
-0.00016299957
0.0129315
-0.00014622491
0.013063403
-0.00013190312
0.013183077
-0.00011967426
0.013292252
-0.0001091746
0.013392321
-0.00010006906
0.013484397
-9.2076356e-05
0.013569373
-8.4975244e-05
0.013647971
-7.8598604e-05
0.013720794
-7.2822295e-05
0.013788347
-6.755393e-05
0.013851071
-6.2723916e-05
0.01390935
-5.8278886e-05
0.013963527
-5.4176975e-05
0.014013912
-5.0384415e-05
0.014060785
-4.6873142e-05
0.014104404
-4.3619152e-05
0.014145006
-4.0601429e-05
0.014182807
-3.7801244e-05
0.014218009
-3.5201715e-05
0.014250796
-3.2787491e-05
0.014281341
-3.0544554e-05
0.014309801
-2.8460052e-05
0.014336323
-2.6522182e-05
0.014361043
-2.4720091e-05
0.014384087
-2.3043791e-05
0.014405571
-2.1484083e-05
0.014425604
-2.0032491e-05
0.014444285
-1.8681195e-05
0.014461708
-1.7422986e-05
0.014477959
-1.62512e-05
0.014493119
-1.5159686e-05
0.014507262
-1.4142751e-05
0.014520457
-1.3195128e-05
0.014532769
-1.2311942e-05
0.014544258
-1.1488673e-05
0.01455498
-1.0721129e-05
0.014564985
-1.0005419e-05
0.014574323
-9.3379264e-06
0.014583039
-8.7152857e-06
0.014591173
-8.1343584e-06
0.014598765
-7.5922166e-06
0.014605851
-7.0861207e-06
0.014612465
-6.6135075e-06
0.014618637
-6.1719751e-06
0.014624396
-5.7592701e-06
0.014629769
-5.3732794e-06
0.014634781
-5.0120191e-06
0.014639455
-4.6736333e-06
0.014643811
-4.3563788e-06
0.014647869
-4.058633e-06
0.014651648
-3.7788762e-06
0.014655163
-3.5157122e-06
0.014658431
-3.2678424e-06
0.014661464
-3.0341008e-06
0.014664277
-2.813417e-06
0.014666882
-2.6048592e-06
0.014669289
-2.4075885e-06
0.014671509
-2.2208984e-06
0.014673553
-2.044165e-06
0.014675429
-1.8768835e-06
0.014677147
-1.7186115e-06
0.014678716
-1.5690143e-06
0.014680143
-1.4277934e-06
0.014681438
-1.2947458e-06
0.014682608
-1.1696842e-06
0.01468366
-1.0524858e-06
0.014684603
-9.4302567e-07
0.014685444
-8.4119687e-07
0.014686191
-7.4687224e-07
0.01468685
-6.5990439e-07
0.01468743
-5.8011456e-07
0.014687938
-5.0729234e-07
0.014688379
-4.4119608e-07
0.014688761
-3.8154877e-07
0.01468909
-3.2806751e-07
0.01468937
-2.8040042e-07
0.014689609
-2.3824932e-07
0.01468981
-2.0115873e-07
0.014689979
-1.6886934e-07
0.01469012
-1.4076078e-07
0.014690237
-1.1677336e-07
0.014690333
-9.593973e-08
0.014690413
-7.8809688e-08
0.014690477
-6.3512343e-08
0.014690529
-5.2177976e-08
0.01469057
-4.0581496e-08
0.014690605
-3.4722659e-08
-2.5026558e-08
0.010097182
-0.00016557515
0.010346961
-0.000448791
0.010662469
-0.00059798177
0.010982753
-0.00062895025
0.011290229
-0.00061621886
0.011575251
-0.00058378055
0.011829022
-0.00053478421
0.012047865
-0.00047583049
0.012233272
-0.00041592665
0.01238924
-0.00036111399
0.012520295
-0.00031361711
0.012630755
-0.00027346026
0.012724428
-0.00023989718
0.012804515
-0.00021199031
0.012873613
-0.00018877261
0.012933772
-0.00016933388
0.012986596
-0.00015289296
0.013033332
-0.00013881182
0.01307495
-0.00012659378
0.013112216
-0.00011586443
0.013145739
-0.00010634493
0.013176012
-9.7826991e-05
0.013203441
-9.0153356e-05
0.013228366
-8.3203362e-05
0.013251071
-7.688261e-05
0.013271803
-7.1115555e-05
0.01329077
-6.584028e-05
0.013308155
-6.1004888e-05
0.013324119
-5.656504e-05
0.0133388
-5.2482302e-05
0.013352321
-4.8722989e-05
0.013364791
-4.5257352e-05
0.013376306
-4.2058964e-05
0.01338695
-3.9104248e-05
0.0133968
-3.6372104e-05
0.013405923
-3.3843591e-05
0.013414381
-3.1501673e-05
0.013422228
-2.933099e-05
0.013429513
-2.7317665e-05
0.013436281
-2.5449138e-05
0.013442572
-2.371401e-05
0.013448423
-2.2101921e-05
0.013453867
-2.0603433e-05
0.013458934
-1.9209933e-05
0.013463652
-1.7913546e-05
0.013468047
-1.6707055e-05
0.013472142
-1.5583842e-05
0.013475959
-1.4537821e-05
0.013479517
-1.3563386e-05
0.013482835
-1.2655365e-05
0.013485928
-1.180897e-05
0.013488814
-1.1019765e-05
0.013491505
-1.0283625e-05
0.013494016
-9.5967099e-06
0.013496357
-8.9554385e-06
0.013498542
-8.356461e-06
0.013500579
-7.7966504e-06
0.013502479
-7.2730732e-06
0.01350425
-6.7829923e-06
0.0135059
-6.3238385e-06
0.013507437
-5.8932224e-06
0.013508867
-5.4889028e-06
0.013510197
-5.1088179e-06
0.013511432
-4.7510426e-06
0.013512578
-4.4138429e-06
0.01351364
-4.0956179e-06
0.013514621
-3.7949688e-06
0.013515527
-3.5106299e-06
0.013516361
-3.2415329e-06
0.013517127
-2.9867319e-06
0.013517828
-2.7454609e-06
0.013518468
-2.5170483e-06
0.01351905
-2.3009847e-06
0.013519578
-2.0968164e-06
0.013520055
-1.904234e-06
0.013520483
-1.7229539e-06
0.013520866
-1.5527991e-06
0.013521207
-1.3935943e-06
0.01352151
-1.2452085e-06
0.013521776
-1.1074838e-06
0.013522009
-9.8024886e-07
0.013522212
-8.6327373e-07
0.013522388
-7.5629702e-07
0.01352254
-6.5898351e-07
0.01352267
-5.7098064e-07
0.013522781
-4.918647e-07
0.013522874
-4.2121151e-07
0.013522952
-3.5852174e-07
0.013523017
-3.0332052e-07
0.013523071
-2.5500595e-07
0.013523115
-2.1311597e-07
0.013523151
-1.7688447e-07
0.01352318
-1.4604527e-07
0.013523204
-1.1950914e-07
0.013523223
-9.7632518e-08
0.013523238
-7.8459823e-08
0.01352325
-6.4002204e-08
0.013523259
-4.9838546e-08
0.013523267
-4.2244858e-08
-3.039372e-08
0.010188704
-0.00035427932
0.010530487
-0.00079057335
0.010851453
-0.00091894821
0.011124174
-0.00090167137
0.011350581
-0.00084262624
0.011524486
-0.00075768559
0.01164633
-0.00065662744
0.011724155
-0.00055365586
0.011767999
-0.00045977083
0.011786639
-0.00037975354
0.011787114
-0.00031409258
0.011775058
-0.00026140425
0.011754861
-0.00021969948
0.011729768
-0.00018689786
0.011702054
-0.00016105802
0.011673239
-0.00014051895
0.011644339
-0.00012399296
0.011616003
-0.000110476
0.011588629
-9.9219861e-05
0.011562446
-8.968139e-05
0.011537572
-8.1470654e-05
0.011514052
-7.4307835e-05
0.01149189
-6.7990491e-05
0.011471056
-6.2369991e-05
0.011451509
-5.733502e-05
0.011433193
-5.2800189e-05
0.011416051
-4.8698265e-05
0.011400021
-4.4974945e-05
0.011385042
-4.1585371e-05
0.011371051
-3.8491819e-05
0.01135799
-3.5662124e-05
0.011345801
-3.3068583e-05
0.01133443
-3.0687152e-05
0.011323822
-2.8496841e-05
0.011313929
-2.6479244e-05
0.011304704
-2.4618154e-05
0.011296102
-2.2899255e-05
0.01128808
-2.1309854e-05
0.011280601
-1.9838663e-05
0.011273628
-1.8475606e-05
0.011267126
-1.7211663e-05
0.011261062
-1.6038731e-05
0.011255408
-1.4949507e-05
0.011250136
-1.393739e-05
0.011245219
-1.2996395e-05
0.011240633
-1.2121085e-05
0.011236355
-1.1306501e-05
0.011232366
-1.0548114e-05
0.011228644
-9.8417712e-06
0.011225172
-9.1836545e-06
0.011221934
-8.570243e-06
0.011218912
-7.998279e-06
0.011216093
-7.4647393e-06
0.011213463
-6.9668121e-06
0.01121101
-6.5018761e-06
0.011208721
-6.0674848e-06
0.011206585
-5.661352e-06
0.011204594
-5.2813393e-06
0.011202736
-4.9254482e-06
0.011201004
-4.5918095e-06
0.011199389
-4.2786786e-06
0.011197885
-3.9844305e-06
0.011196483
-3.7075615e-06
0.011195179
-3.446688e-06
0.011193966
-3.2005535e-06
0.011192838
-2.9680276e-06
0.011191791
-2.7481148e-06
0.011190821
-2.5399449e-06
0.011189922
-2.3427762e-06
0.011189091
-2.1559787e-06
0.011188324
-1.9790312e-06
0.011187619
-1.8115023e-06
0.011186971
-1.6530464e-06
0.011186377
-1.503388e-06
0.011185835
-1.362321e-06
0.011185342
-1.2296885e-06
0.011184895
-1.1053806e-06
0.011184491
-9.8930302e-07
0.011184127
-8.813691e-07
0.011183801
-7.8146691e-07
0.01118351
-6.8945313e-07
0.011183252
-6.0513599e-07
0.011183023
-5.2828318e-07
0.011182823
-4.5861834e-07
0.011182648
-3.9584568e-07
0.011182496
-3.3963179e-07
0.011182365
-2.896448e-07
0.011182252
-2.4549721e-07
0.011182155
-2.0682181e-07
0.011182073
-1.7315221e-07
0.011182004
-1.4410735e-07
0.011181946
-1.1912695e-07
0.011181898
-9.7930611e-08
0.011181859
-7.982974e-08
0.011181826
-6.4868668e-08
0.0111818
-5.2011103e-08
0.011181778
-4.2108664e-08
0.011181761
-3.2998293e-08
0.011181746
-2.7612331e-08
-1.9968727e-08
0.010339525
-0.00069380425
0.010570754
-0.0010218027
0.010606301
-0.00095449449
0.010547572
-0.00084294334
0.010422317
-0.0007173708
0.010244356
-0.00057972444
0.010039421
-0.00045169205
0.0098287427
-0.00034297801
0.009625135
-0.00025616318
0.0094353013
-0.00018991983
0.0092624277
-0.00014121897
0.0091075332
-0.00010650979
0.008970154
-8.2320218e-05
0.0088489023
-6.5646243e-05
0.0087419716
-5.4127254e-05
0.0086474927
-4.6040049e-05
0.008563694
-4.0194292e-05
0.0084890108
-3.5792755e-05
0.0084221097
-3.2318756e-05
0.0083618775
-2.9449277e-05
0.0083073954
-2.6988572e-05
0.0082579079
-2.4820298e-05
0.0082127929
-2.287548e-05
0.0081715353
-2.1112419e-05
0.008133705
-1.9504657e-05
0.0080989388
-1.8034017e-05
0.0080669273
-1.6686725e-05
0.0080374037
-1.5451359e-05
0.0080101362
-1.4317855e-05
0.0079849214
-1.3277063e-05
0.0079615799
-1.2320584e-05
0.007939952
-1.1440716e-05
0.0079198952
-1.0630433e-05
0.0079012818
-9.8833679e-06
0.0078839963
-9.1937759e-06
0.0078679347
-8.5565013e-06
0.0078530024
-7.966924e-06
0.0078391135
-7.4209087e-06
0.0078261896
-6.9147534e-06
0.0078141591
-6.4451366e-06
0.0078029565
-6.0090754e-06
0.0077925216
-5.6038815e-06
0.0077827991
-5.2271282e-06
0.0077737384
-4.8766194e-06
0.0077652923
-4.5503616e-06
0.0077574178
-4.2465429e-06
0.0077500749
-3.9635087e-06
0.0077432265
-3.6997459e-06
0.0077368386
-3.4538636e-06
0.0077308796
-3.2245788e-06
0.00772532
-3.0107043e-06
0.0077201328
-2.8111366e-06
0.0077152928
-2.6248481e-06
0.0077107769
-2.4508818e-06
0.0077065633
-2.2883422e-06
0.0077026322
-2.136396e-06
0.0076989651
-1.9942597e-06
0.007695545
-1.8612042e-06
0.0076923561
-1.7365397e-06
0.0076893839
-1.6196233e-06
0.007686615
-1.5098434e-06
0.0076840372
-1.4066361e-06
0.007681639
-1.3094658e-06
0.0076794102
-1.2178533e-06
0.007677341
-1.1313507e-06
0.0076754226
-1.0495752e-06
0.0076736468
-9.7217636e-07
0.0076720057
-8.9886606e-07
0.0076704924
-8.2938272e-07
0.0076690999
-7.6351757e-07
0.0076678219
-7.0107692e-07
0.0076666522
-6.4191672e-07
0.007665585
-5.8590035e-07
0.0076646146
-5.3294622e-07
0.0076637355
-4.8297854e-07
0.0076629419
-4.3596987e-07
0.0076622287
-3.9189251e-07
0.0076615902
-3.5073654e-07
0.0076610214
-3.1247713e-07
0.0076605169
-2.7707526e-07
0.0076600717
-2.4446802e-07
0.007659681
-2.1457505e-07
0.00765934
-1.873017e-07
0.007659044
-1.6255245e-07
0.0076587886
-1.4023274e-07
0.0076585695
-1.2024222e-07
0.0076583826
-1.0248701e-07
0.0076582241
-8.6833043e-08
0.0076580904
-7.3158639e-08
0.0076579784
-6.1270624e-08
0.0076578852
-5.1026668e-08
0.0076578081
-4.2198472e-08
0.0076577448
-3.4689698e-08
0.0076576933
-2.8256388e-08
0.0076576515
-2.292497e-08
0.0076576181
-1.8394357e-08
0.0076575908
-1.4870575e-08
0.0076575696
-1.1811942e-08
0.0076575517
-9.7825102e-09
-7.6275367e-09
0.0093061957
0.0082843931
0.0073298986
0.0064869553
0.0057695845
0.00518986
0.004738168
0.00439519
0.0041390268
0.003949107
0.003807888
0.0037013782
0.003619058
0.0035534117
0.0034992845
0.0034532444
0.0034130501
0.0033772574
0.0033449386
0.0033154893
0.0032885008
0.0032636805
0.003240805
0.0032196926
0.0032001879
0.0031821539
0.0031654672
0.0031500158
0.003135698
0.0031224209
0.0031101003
0.0030986596
0.0030880291
0.0030781458
0.003068952
0.0030603955
0.0030524286
0.0030450077
0.003038093
0.0030316478
0.0030256387
0.0030200348
0.0030148077
0.003009931
0.0030053807
0.0030011342
0.0029971707
0.002993471
0.0029900171
0.0029867925
0.0029837818
0.0029809706
0.0029783457
0.0029758948
0.0029736065
0.0029714701
0.0029694759
0.0029676147
0.0029658782
0.0029642585
0.0029627487
0.002961342
0.0029600326
0.0029588147
0.0029576834
0.0029566339
0.0029556618
0.002954763
0.0029539336
0.0029531701
0.002952469
0.002951827
0.0029512412
0.0029507083
0.0029502254
0.0029497896
0.0029493978
0.0029490471
0.0029487346
0.0029484575
0.0029482129
0.0029479983
0.0029478111
0.0029476486
0.0029475085
0.0029473884
0.002947286
0.0029471992
0.002947126
0.0029470647
0.0029470136
0.0029469713
0.0029469366
0.0029469085
0.0029468856
0.0029468673
0.0029468524
0.0029468405
0.0029468307
)
;

boundaryField
{
    top
    {
        type            calculated;
        value           uniform 0;
    }
    inlet
    {
        type            calculated;
        value           nonuniform List<scalar> 10(-0.01 -0.01 -0.01 -0.01 -0.01 -0.01 -0.01 -0.01 -0.01 -0.01);
    }
    outlet
    {
        type            calculated;
        value           nonuniform List<scalar> 10(0.0029468231 0.0076575396 0.011181736 0.013523272 0.01469063 0.01469063 0.013523272 0.011181736 0.0076575394 0.0029468231);
    }
    bottom
    {
        type            calculated;
        value           uniform 0;
    }
    back
    {
        type            empty;
        value           nonuniform List<scalar> 0();
    }
    front
    {
        type            empty;
        value           nonuniform List<scalar> 0();
    }
}


// ************************************************************************* //
