/*--------------------------------*- C++ -*----------------------------------*\
  =========                 |
  \\      /  F ield         | OpenFOAM: The Open Source CFD Toolbox
   \\    /   O peration     | Website:  https://openfoam.org
    \\  /    A nd           | Version:  9
     \\/     M anipulation  |
\*---------------------------------------------------------------------------*/
FoamFile
{
    format      ascii;
    class       volScalarField;
    location    "0.56";
    object      alpha.phase1;
}
// * * * * * * * * * * * * * * * * * * * * * * * * * * * * * * * * * * * * * //

dimensions      [0 0 0 0 0 0 0];

internalField   nonuniform List<scalar> 
10000
(
4.378258e-84
4.378258e-84
8.5863077e-83
3.750935e-81
5.7709424e-81
2.7739955e-81
8.0597437e-82
2.3640373e-82
2.0976298e-82
2.0976298e-82
6.4662299e-81
1.7818941e-78
9.363767e-77
1.2192006e-75
6.8892078e-75
2.5539189e-74
7.3291726e-74
1.5791364e-73
2.0337526e-73
2.846605e-72
2.96062e-70
2.8046889e-68
2.2549287e-66
1.5829147e-64
1.0548038e-62
7.5259026e-61
5.3021438e-59
4.2455138e-57
6.861246e-55
3.0653332e-53
5.7657233e-52
8.6664999e-48
4.4876153e-44
9.5314274e-44
3.5479253e-43
3.4396654e-43
1.6331681e-43
2.2922725e-44
2.6561733e-45
2.3619882e-45
6.2492102e-45
7.8803172e-44
1.0174543e-42
1.1094801e-41
9.7923079e-41
6.8546477e-40
3.8670063e-39
1.7818976e-38
6.4813659e-38
2.0536429e-37
2.8774133e-37
2.3299699e-37
1.3532412e-37
1.3532412e-37
1.5652487e-36
9.8052701e-35
1.619079e-33
4.578087e-33
1.3047264e-33
3.3168383e-34
5.1426129e-35
3.8093553e-36
1.1740317e-36
5.2883617e-37
1.2943949e-37
1.3827978e-38
8.2158274e-40
2.520448e-41
2.579845e-43
1.4030451e-45
9.9377016e-48
7.3147288e-50
4.8203582e-52
5.8135357e-54
8.0909784e-56
4.6468347e-58
2.2553772e-60
1.3410271e-62
8.0445231e-65
4.6171376e-67
2.5067691e-69
1.3560918e-71
5.5331145e-73
2.1715617e-73
7.6827837e-74
2.5452607e-74
7.1636776e-75
1.4820858e-75
1.4652816e-76
3.7470476e-78
1.6526864e-80
3.4722774e-83
3.4722774e-83
3.8898932e-83
6.4481615e-83
7.3580689e-83
1.006127e-83
1.2845721e-84
5.7377362e-85
5.7377362e-85
4.8194777e-84
8.6211847e-83
3.1379753e-81
4.2060969e-80
6.9661995e-80
5.9484848e-80
4.3365424e-80
1.974797e-80
3.6111738e-81
2.9519856e-82
5.2887692e-81
1.1367373e-78
7.1208542e-77
9.7733003e-76
6.4242689e-75
2.4330921e-74
6.8508616e-74
1.3889114e-73
1.9808176e-73
3.7345827e-71
4.9515202e-69
4.1747295e-67
2.8346014e-65
1.7607857e-63
1.0560333e-61
8.444264e-60
9.7489289e-58
1.114473e-55
8.6001236e-54
8.209471e-52
6.0470272e-49
1.4922705e-46
1.9916523e-42
1.5543902e-42
6.1663737e-43
1.2389793e-40
1.275282e-40
4.4329586e-41
2.3898183e-42
1.4889413e-43
1.0193449e-42
1.3110836e-41
1.4813509e-40
1.4228197e-39
1.0803078e-38
5.9348143e-38
2.2556622e-37
6.1115715e-37
1.3524306e-36
2.8613691e-36
3.7005362e-36
3.3198524e-36
2.0308075e-36
1.6130083e-36
9.8935591e-35
1.6290729e-33
8.696514e-33
6.6093757e-32
1.9276504e-32
1.010167e-31
4.9287914e-32
5.7317354e-33
2.8655347e-34
1.3982984e-34
4.7694286e-35
8.0876144e-36
7.782356e-37
3.6678427e-38
4.8077481e-40
2.057228e-42
1.0901502e-44
7.0937672e-47
4.1174325e-49
4.4056459e-51
9.4920981e-53
6.738699e-55
2.3252901e-57
1.2585546e-59
7.6403571e-62
4.3441592e-64
2.3181207e-66
1.1633686e-68
5.6634663e-71
7.1822806e-73
1.0460283e-73
3.002384e-74
7.8090153e-75
1.4878345e-75
1.3969278e-76
3.7390498e-78
2.1930022e-80
2.0386577e-82
8.8119263e-82
1.2232282e-81
1.4189415e-81
7.5665913e-82
5.1157838e-83
7.7535543e-84
1.1945381e-84
6.1845849e-85
5.693085e-81
1.274256e-79
4.7706488e-78
4.0514724e-77
5.5297728e-77
4.4768702e-77
3.0588801e-77
1.3523449e-77
2.6366374e-78
2.3413355e-79
1.7536138e-80
1.0790334e-78
6.1848527e-77
6.1819134e-76
5.789243e-75
4.5262972e-73
7.3705825e-73
1.6276442e-73
1.421045e-72
6.0444271e-68
6.1373361e-66
5.1600823e-64
3.4633572e-62
2.1264355e-60
1.2803036e-58
1.0702215e-56
1.3499754e-54
1.515607e-52
1.1215504e-50
1.1814128e-48
4.6886523e-46
2.4379689e-43
1.780567e-39
1.3414733e-39
2.0692071e-40
1.3469669e-37
1.4511124e-37
5.4510522e-38
3.3989024e-39
5.4728979e-41
1.8942542e-40
2.1771421e-39
2.3320051e-38
2.144145e-37
1.5882061e-36
8.7095092e-36
3.3582638e-35
9.2426239e-35
2.0422511e-34
4.3968333e-34
5.7968513e-34
5.2342102e-34
3.0814945e-34
1.1532262e-33
6.7993647e-32
1.0422944e-30
5.3022508e-30
2.9478302e-29
9.6045723e-30
4.8898617e-29
3.3388197e-29
4.9571661e-30
4.2282137e-31
1.5866606e-31
3.954864e-32
5.3082744e-33
4.9789102e-34
2.6092426e-35
3.914422e-37
1.6591222e-39
7.5320777e-42
4.4785885e-44
2.4401501e-46
2.9282902e-48
5.7700913e-50
4.1820233e-52
1.7773359e-54
1.025398e-56
6.2677214e-59
3.5612017e-61
1.8962511e-63
9.466456e-66
4.4979542e-68
3.7915138e-70
2.5973545e-71
5.0288236e-72
8.6959866e-73
9.9319162e-74
7.9730267e-75
4.8651094e-76
1.3678556e-77
3.9044058e-79
1.4102712e-78
1.6062848e-78
1.7395666e-78
1.1906909e-78
9.4899674e-80
1.3539879e-80
2.295413e-81
9.9774897e-82
3.0309372e-78
1.0847153e-76
4.1771422e-75
2.3302459e-74
2.8566854e-74
2.2923882e-74
1.5285129e-74
6.6356112e-75
1.2982327e-75
1.8809454e-76
6.984555e-78
6.1049195e-78
1.6067981e-76
6.1035841e-75
2.1347545e-70
2.0588867e-69
7.7778027e-70
8.6444631e-72
6.7922746e-72
2.4835033e-65
4.6872861e-63
4.1927245e-61
2.916067e-59
1.8333969e-57
1.1207112e-55
9.4958211e-54
1.2103532e-51
1.4398425e-49
1.0447603e-47
1.1342836e-45
3.5857384e-43
2.6677213e-40
1.1627046e-36
8.5315482e-37
1.1630943e-37
1.0496438e-34
1.2130506e-34
4.9824928e-35
3.6488632e-36
3.2796528e-38
3.263718e-38
2.7493612e-37
2.788534e-36
2.4493764e-35
1.7629616e-34
9.5795796e-34
3.7171606e-33
1.0347034e-32
2.2904114e-32
5.0171008e-32
6.7050821e-32
6.0729489e-32
3.3767655e-32
4.7022033e-31
2.5352683e-29
3.7342492e-28
2.9700442e-27
8.9931087e-27
4.0160374e-27
1.614449e-26
1.5195887e-26
2.8368393e-27
3.8526011e-28
1.2743802e-28
2.4454625e-29
2.5975393e-30
2.3625064e-31
1.3618757e-32
2.3443595e-34
1.0173265e-36
3.8259075e-39
1.9875128e-41
9.9847877e-44
1.5792701e-45
3.2307825e-47
2.270479e-49
1.0543973e-51
6.4269268e-54
3.9412962e-56
2.2287194e-58
1.1807859e-60
5.8369265e-63
2.7113327e-65
1.8997741e-67
1.1974518e-68
2.5656859e-69
5.0066156e-70
7.207692e-71
6.806499e-72
3.7789626e-73
9.4095909e-75
4.2490503e-76
1.4768479e-75
1.5145751e-75
1.5330362e-75
1.0722861e-75
1.1987081e-76
1.4383014e-77
2.6024377e-78
7.2331732e-79
1.2228297e-75
5.4717788e-74
2.1403933e-72
9.8806126e-72
1.1330283e-71
9.0695228e-72
5.9524638e-72
2.5535798e-72
5.0246157e-73
1.0112348e-73
1.4759943e-75
5.3204325e-75
1.2052535e-73
1.0669406e-71
1.6466627e-67
1.0739597e-66
3.378201e-67
1.1699609e-69
1.1771442e-68
1.3677157e-64
2.0868934e-60
2.3685249e-58
1.7617184e-56
1.1539504e-54
7.1580802e-53
5.8673388e-51
7.7315115e-49
9.6394893e-47
7.0473143e-45
7.7058069e-43
2.1380496e-40
1.944481e-37
6.0013019e-34
4.3124075e-34
5.6723662e-35
6.1403491e-32
7.9266726e-32
3.5846149e-32
3.1671508e-33
3.3578876e-35
4.9911096e-36
2.7095929e-35
2.5522154e-34
2.1336337e-33
1.487299e-32
7.9921128e-32
3.1151152e-31
8.7660682e-31
1.9480843e-30
4.3261158e-30
5.8409961e-30
5.3054518e-30
3.3940842e-30
1.2655579e-28
6.2549261e-27
8.8786406e-26
1.0428529e-24
2.023431e-24
1.2679968e-24
4.1773693e-24
4.9089749e-24
1.1632402e-24
2.3626941e-25
7.5119982e-26
1.1920164e-26
1.0043451e-27
8.7106162e-29
5.4566121e-30
1.079266e-31
4.9312102e-34
1.4542673e-36
5.7725851e-39
2.2427361e-41
6.6998448e-43
1.5105638e-44
1.0461907e-46
5.2198364e-49
3.2956887e-51
2.0099199e-53
1.1324313e-55
5.9458517e-58
2.8932083e-60
1.306305e-62
7.4807973e-65
4.0463635e-66
9.9773387e-67
2.1396493e-67
3.4836179e-68
3.5657798e-69
1.9281456e-70
4.6864575e-72
3.6383909e-73
1.1728148e-72
1.0837067e-72
1.0685339e-72
6.9747163e-73
1.1306181e-73
1.2437377e-74
1.7671159e-75
3.9117669e-76
3.9671915e-73
2.0149492e-71
7.9432996e-70
3.3134354e-69
3.6395045e-69
2.9143116e-69
1.8947865e-69
8.065092e-70
1.6049669e-70
4.0242786e-71
2.2600195e-71
4.7049468e-72
1.18503e-70
2.4564791e-66
8.0359529e-65
3.8731694e-64
7.7484609e-65
1.182287e-66
2.435336e-65
4.648532e-64
1.1305392e-58
9.8819263e-56
1.2565663e-53
5.5962122e-52
3.655579e-50
2.7984026e-48
3.7735412e-46
4.7466622e-44
3.654596e-42
3.837521e-40
1.1482878e-37
1.2658429e-34
2.5424883e-31
1.8011292e-31
2.3215373e-32
2.7897636e-29
4.1387733e-29
2.063102e-29
2.2213018e-30
3.1083548e-32
6.4412201e-34
2.2422782e-33
1.8505422e-32
1.4586073e-31
9.7816976e-31
5.1777613e-30
2.0214265e-29
5.7396889e-29
1.2813594e-28
2.8772079e-28
3.9115075e-28
3.5601475e-28
4.9161861e-28
2.5518484e-26
1.1285529e-24
1.5416152e-23
2.2760134e-22
3.4731775e-22
2.9550584e-22
8.5703497e-22
1.1999898e-21
3.6591977e-22
1.0264124e-22
3.3032177e-23
4.733126e-24
3.233336e-25
2.5815173e-26
1.7265851e-27
3.970317e-29
2.0082016e-31
4.2932014e-34
7.1386901e-37
1.7202521e-39
2.6352853e-40
6.4305656e-42
4.003109e-44
2.1503675e-46
1.4032175e-48
8.469718e-51
4.7359076e-53
2.4491669e-55
1.1614508e-57
5.033363e-60
2.4379253e-62
1.1109045e-63
3.0966623e-64
7.0531821e-65
1.2515397e-65
1.3829086e-66
7.3697e-68
1.7845475e-69
2.6042477e-70
7.322149e-70
6.4102249e-70
5.7733744e-70
3.5851765e-70
6.794221e-71
7.1062428e-72
8.7266017e-73
1.6677056e-73
1.0758973e-70
5.9154627e-69
2.3409626e-67
9.1835473e-67
9.8108988e-67
7.8690361e-67
5.0912177e-67
2.1592782e-67
4.3564768e-68
1.2350372e-68
5.5480854e-68
3.6673681e-69
1.0110465e-67
2.0940334e-63
2.8961239e-62
1.1096053e-61
1.0635287e-62
1.7293831e-63
4.5336253e-62
6.8411154e-61
1.2227183e-58
7.9935057e-54
2.0901379e-51
2.4949954e-49
1.5038256e-47
1.0271361e-45
1.4368331e-43
1.925802e-41
1.4861368e-39
1.4741976e-37
2.880175e-35
6.2403012e-32
9.0935615e-29
6.1721201e-29
7.1505885e-30
1.0198612e-26
1.7395422e-26
9.5840759e-27
1.2581642e-27
2.2981276e-29
1.2274909e-31
1.9540476e-31
1.086313e-30
7.9683109e-30
5.0991519e-29
2.6401252e-28
1.0254538e-27
2.9052762e-27
6.4339324e-27
1.4470746e-26
1.9739732e-26
1.8263146e-26
9.5103384e-26
7.187835e-24
2.6971288e-22
3.6191243e-21
3.5004899e-20
4.6811574e-20
5.1373429e-20
1.5194786e-19
2.3111401e-19
9.476939e-20
3.3153588e-20
1.0876909e-20
1.5074031e-21
8.7719353e-23
6.23152e-24
4.3768735e-25
1.1763449e-26
6.8745162e-29
9.4800513e-32
7.7082364e-35
5.0003162e-37
9.0701481e-38
2.1895251e-39
1.2936499e-41
7.5694286e-44
4.9231175e-46
2.9572528e-48
1.630902e-50
8.2103187e-53
3.7265176e-55
1.5063092e-57
6.2086297e-60
2.5283183e-61
7.8253462e-62
1.8930571e-62
3.6481367e-63
4.2739757e-64
2.1940555e-65
5.4829826e-67
1.6483785e-67
3.6841426e-67
3.1703673e-67
2.5540253e-67
1.4862612e-67
3.0688035e-68
3.0385531e-69
3.3802762e-70
5.8035508e-71
2.5064938e-68
1.4504472e-66
5.7479517e-65
2.1680356e-64
2.2743489e-64
1.8303464e-64
1.1822611e-64
5.0117293e-65
1.0283889e-65
2.9897913e-66
3.1808277e-65
2.5164e-66
4.0234379e-63
7.4020141e-61
7.6368375e-60
2.5544958e-59
2.3643098e-59
4.6230243e-60
9.8214785e-59
1.401086e-57
2.0372984e-56
8.6286776e-54
2.1307373e-51
3.4066312e-47
4.687549e-45
4.6026068e-43
4.1653923e-41
6.3919928e-39
4.6553296e-37
5.4914871e-35
1.6154697e-34
2.6364454e-29
2.8087337e-26
1.7921527e-26
1.9461451e-27
3.1117259e-24
5.9296749e-24
3.5941961e-24
5.6800216e-25
1.3268025e-26
6.2706127e-29
1.6685242e-29
5.3659657e-29
3.4950788e-28
2.1089429e-27
1.0548782e-26
4.0349379e-26
1.1259673e-25
2.4242864e-25
5.4184443e-25
7.434232e-25
8.0025569e-25
1.7001674e-23
1.2237336e-21
4.2774831e-20
5.4877913e-19
4.0393027e-18
5.1681835e-18
7.3317756e-18
2.7560654e-17
3.7668179e-17
2.0451754e-17
8.362463e-18
2.7162974e-18
3.7202937e-19
1.9817493e-20
1.2343832e-21
8.9424668e-23
2.8131957e-24
1.9752705e-26
1.5248912e-29
2.1964202e-32
1.3617783e-34
2.826319e-35
5.7389669e-37
3.454832e-39
2.2123058e-41
1.4242087e-43
8.4576798e-46
4.5421861e-48
2.1752919e-50
9.0659517e-53
3.1623416e-55
9.9178881e-58
4.7652512e-59
1.6816847e-59
4.2585946e-60
8.8016596e-61
1.068377e-61
5.3855429e-63
1.5125937e-64
8.9173062e-65
1.5326858e-64
1.3160419e-64
9.3915312e-65
5.1585434e-65
1.1120734e-65
1.0360626e-66
1.0703461e-67
1.6882088e-68
5.1182512e-66
3.0599188e-64
1.2116735e-62
4.4553774e-62
4.6187327e-62
3.7361001e-62
2.4147193e-62
1.0253387e-62
2.1441132e-63
5.9112106e-64
6.8886593e-63
8.1833525e-62
6.9059918e-60
2.0986193e-58
1.6691498e-57
5.0880921e-57
2.7235688e-56
1.5818708e-54
5.4367567e-53
1.0142456e-53
1.7956506e-52
1.2108984e-51
4.6083018e-50
3.8051955e-47
3.5359547e-43
8.4553215e-41
1.2135194e-38
1.6564555e-36
1.1648968e-34
1.9570883e-32
1.1044534e-32
1.1176833e-26
7.5584443e-24
4.2223194e-24
1.6627162e-24
8.3869533e-22
1.6523513e-21
1.077613e-21
2.0086365e-22
6.0041683e-24
3.5208039e-26
1.2464918e-27
2.4958259e-27
1.2301558e-26
6.8732546e-26
3.2857008e-25
1.2426462e-24
3.4970713e-24
7.4854667e-24
1.6665432e-23
2.3171136e-23
4.8799668e-23
2.6856724e-21
1.5252608e-19
4.7135338e-18
5.8900595e-17
3.8011749e-16
5.3616946e-16
6.1536664e-16
1.8199276e-15
3.0672504e-15
2.2419978e-15
1.063444e-15
4.5268438e-16
8.1836364e-17
4.5003372e-18
2.0974654e-19
1.4559524e-20
5.3161358e-22
4.6889067e-24
1.8231992e-27
4.6344901e-30
2.374451e-32
8.2060843e-33
1.2803271e-34
7.80373e-37
5.2124703e-39
3.3436949e-41
1.9339243e-43
9.8410336e-46
4.2466537e-48
1.4469385e-50
2.8355211e-53
4.6987573e-56
7.1905191e-57
3.1721263e-57
8.3315113e-58
1.8654203e-58
2.3175249e-59
1.131533e-60
3.9133479e-62
3.9751982e-62
5.3262956e-62
4.672791e-62
2.8997734e-62
1.51938e-62
3.3209197e-63
2.9213488e-64
2.8447282e-65
4.1759045e-66
9.3030809e-64
5.6711103e-62
2.2390683e-60
8.1005349e-60
8.3376021e-60
6.7878362e-60
4.3974733e-60
1.8741063e-60
3.9850925e-61
1.0704026e-61
1.0868053e-60
6.9644688e-59
3.0739579e-57
5.1552124e-56
3.1457101e-55
9.5539867e-55
1.0766381e-53
1.0698626e-51
9.4260754e-50
6.4484606e-48
3.193194e-46
3.5804077e-47
8.1264427e-46
2.8350336e-44
7.2469154e-43
1.5784418e-40
2.0700839e-36
3.564181e-34
2.9547051e-32
4.9329145e-30
2.5417133e-30
3.3639714e-24
1.8018254e-21
8.2590605e-22
3.7561739e-20
2.5307662e-19
3.8505791e-19
2.5780806e-19
5.4249332e-20
2.0294065e-21
1.5084457e-23
1.6182497e-25
1.3311678e-25
3.5316846e-25
1.7491178e-24
8.0831004e-24
3.1109976e-23
9.4434625e-23
2.2800711e-22
5.1776677e-22
7.3293695e-22
4.8010007e-21
3.3935734e-19
1.5715904e-17
4.2076133e-16
4.0064385e-15
1.7425754e-14
2.1266798e-14
1.2384164e-14
1.3356824e-14
4.6196846e-14
1.6394549e-13
6.6339954e-14
3.110091e-14
8.2721692e-15
6.8414068e-16
3.1206415e-17
2.0068113e-18
8.2041761e-20
9.0156222e-22
2.4241641e-25
5.4119657e-28
3.255753e-30
1.8628041e-30
2.2845753e-32
1.4532889e-34
9.82887e-37
6.1753547e-39
3.3729198e-41
1.5166008e-43
6.1570268e-46
3.1443277e-49
7.921481e-52
3.8735848e-54
7.4744609e-55
5.8254159e-55
1.4551775e-55
3.4110052e-56
4.2796115e-57
2.0387974e-58
9.7476311e-60
1.4571652e-59
1.6212303e-59
1.3777802e-59
7.7147402e-60
3.8409687e-60
8.372228e-61
6.9681887e-62
6.4576156e-63
8.8992026e-64
1.5235021e-61
9.3775375e-60
3.6830357e-58
1.319534e-57
1.353269e-57
1.1099636e-57
7.2186498e-58
3.0928757e-58
6.6473042e-59
2.0139712e-59
2.0748413e-58
2.4038952e-56
8.0701692e-55
9.8037899e-54
5.162766e-53
1.5025153e-52
2.4300957e-51
3.4305968e-49
3.7516081e-47
3.3565733e-45
2.6596659e-43
1.9093342e-41
1.2322931e-39
6.5197949e-38
1.3257965e-36
4.5219623e-37
5.2948115e-36
5.656683e-32
4.4822053e-30
6.910272e-29
4.0173523e-25
1.083987e-22
4.0650171e-19
1.7621266e-19
2.7533588e-18
4.3829855e-17
6.7235949e-17
4.6664371e-17
1.1160433e-17
5.2914063e-19
5.223111e-21
5.6958826e-23
6.3352652e-24
9.7705541e-24
3.4426996e-23
1.5308459e-22
6.0053565e-22
1.9775339e-21
6.1003981e-21
1.488937e-20
2.2854358e-20
4.4684406e-19
3.1726895e-17
1.3113304e-15
2.0382195e-14
8.9454657e-14
1.9992206e-13
1.3583604e-13
6.0131329e-13
8.751106e-13
9.8721373e-13
1.2387808e-11
5.0068541e-12
2.2856603e-12
6.0737855e-13
4.7646462e-14
2.2794675e-15
2.0273138e-16
1.190496e-17
1.85501e-19
1.1732462e-22
4.805258e-26
3.3988634e-28
2.7911625e-28
2.9386691e-30
2.0813455e-32
1.4135754e-34
8.3594595e-37
3.9674801e-39
1.742456e-41
9.5438724e-46
1.1732342e-47
8.5001269e-50
3.6656593e-52
5.1933262e-53
1.0283204e-52
2.4325158e-53
5.5442177e-54
6.7290239e-55
3.183276e-56
2.3300201e-57
4.4001606e-57
4.5361837e-57
3.3504675e-57
1.7802048e-57
8.4160324e-58
1.8107024e-58
1.4303386e-59
1.268472e-60
1.6511654e-61
2.2698671e-59
1.4001423e-57
5.4551276e-56
1.945203e-55
1.9933621e-55
1.6487868e-55
1.0774877e-55
4.6470248e-56
1.006119e-56
3.8669685e-57
5.0720942e-56
6.0517422e-54
1.6409316e-52
1.5790062e-51
7.5792178e-51
1.6911768e-50
2.9901706e-49
6.4328248e-47
9.4697398e-45
1.0031499e-42
9.0321898e-41
7.57951e-39
6.0484281e-37
4.5786208e-35
3.2311691e-33
1.89585e-31
2.2980236e-30
8.4760651e-31
2.9056344e-29
1.972413e-26
1.28351e-18
2.4998156e-21
7.4780269e-17
3.3310043e-17
1.076945e-17
1.8266238e-15
6.2321119e-15
5.1784134e-15
1.6307846e-15
1.1066746e-16
1.5806596e-18
1.8741621e-20
5.4953341e-22
3.3842609e-22
5.6630322e-22
2.042977e-21
7.715197e-21
2.5727283e-20
9.4254353e-20
2.5119597e-19
6.1030621e-19
3.2531893e-17
2.4692129e-15
6.3648412e-14
2.5144442e-13
1.3950671e-12
5.8181834e-12
1.476958e-11
1.3493108e-11
1.3915463e-09
1.0070112e-08
3.090892e-09
2.7267727e-10
1.7801487e-10
4.670963e-11
2.063535e-12
8.2393453e-14
1.2620875e-14
1.3276293e-15
3.7553088e-17
9.2555632e-20
3.5907668e-24
2.8187744e-26
2.7560051e-26
2.9176453e-28
2.142483e-30
1.379495e-32
1.1707085e-34
2.0939174e-37
1.8460422e-41
4.2682457e-44
1.0188577e-45
7.803222e-48
4.0410294e-50
9.0493511e-51
1.5080073e-50
3.6077863e-51
7.9338946e-52
9.2804329e-53
4.4469926e-54
5.6788059e-55
1.1153179e-54
1.1267127e-54
6.9848961e-55
3.5853958e-55
1.6101499e-55
3.3940826e-56
2.5554708e-57
2.1765024e-58
2.6898569e-59
3.1016437e-57
1.9059874e-55
7.3434043e-54
2.6163327e-53
2.6851634e-53
2.2416657e-53
1.4731563e-53
6.4009005e-54
1.4060906e-54
6.2527122e-55
1.6258793e-53
1.2270479e-51
2.6454554e-50
2.1387717e-49
9.4623698e-49
1.5143627e-48
2.9255693e-47
7.2153436e-45
1.4868963e-42
2.0875487e-40
2.1529544e-38
1.9463655e-36
1.6691486e-34
1.3699093e-32
1.0903401e-30
8.2158125e-29
5.2315051e-27
2.3947764e-25
4.1886755e-23
1.9510295e-20
3.5269298e-16
1.3156313e-14
2.1232494e-14
6.7441533e-15
8.7790897e-16
1.4035511e-14
2.416884e-13
3.1170078e-13
1.2421937e-13
1.2576912e-14
3.0590315e-16
5.0004506e-18
1.9034881e-19
3.7207988e-19
1.3782543e-20
2.0796177e-20
6.7384747e-20
2.183221e-19
7.9321555e-19
2.2989985e-18
2.1493385e-17
1.7712844e-15
9.123891e-14
1.6378002e-12
1.0399021e-11
3.5906009e-11
1.4280038e-10
4.7149805e-10
5.6835891e-10
1.4065006e-08
6.5815844e-08
2.494135e-08
4.8567152e-11
2.7523408e-12
1.4059283e-13
1.2043079e-13
1.165159e-13
2.1088412e-13
1.0431992e-13
7.9770932e-15
2.9731572e-17
2.2468938e-22
2.410654e-24
2.1851352e-24
1.971894e-26
2.4244488e-28
9.5671725e-31
1.1681008e-34
3.8706038e-37
1.0837884e-39
7.810982e-42
1.27212e-43
7.8168479e-46
4.1427878e-48
1.3660229e-48
1.8140237e-48
4.3003097e-49
9.4922699e-50
1.1523611e-50
5.4434984e-52
1.296489e-52
2.421359e-52
2.4104603e-52
1.2896708e-52
6.3359444e-53
2.7073819e-53
5.5647215e-54
4.0121641e-55
3.2872254e-56
3.8724615e-57
3.9135888e-55
2.3840029e-53
9.053803e-52
3.2321414e-51
3.3284098e-51
2.8070806e-51
1.8558683e-51
8.1295338e-52
1.8273803e-52
8.6266748e-53
4.0565659e-51
2.0735852e-49
3.4434411e-48
2.3814076e-47
9.2716365e-47
1.9938685e-46
8.2056725e-45
8.2193062e-43
1.523227e-40
2.8093443e-38
3.7368022e-36
3.7914497e-34
3.42605e-32
2.9549767e-30
2.4691094e-28
1.9258431e-26
1.32134e-24
9.5070834e-23
1.6147904e-20
3.8824693e-18
1.5223706e-15
8.8791993e-12
5.7242303e-12
6.4963168e-13
1.9985009e-15
3.580484e-15
1.8049509e-11
1.6071597e-11
2.5785068e-12
8.088986e-13
3.1712407e-14
7.8045494e-16
8.2319854e-17
1.2840773e-15
2.97198e-17
3.180862e-19
5.9222707e-19
1.9473967e-18
5.0063686e-18
1.914941e-17
9.5572611e-16
4.6144572e-14
1.1326486e-12
6.0362252e-11
3.7962496e-10
7.6439727e-10
1.9482088e-09
1.1553361e-09
2.4192144e-07
9.3144035e-08
6.4350008e-08
7.5118604e-07
2.882026e-06
1.5168598e-06
2.6288238e-12
-1.3434918e-11
1.2043483e-13
9.9644608e-14
1.1195058e-12
3.9820292e-13
1.2167702e-14
1.6153497e-18
7.7659775e-21
1.159879e-22
1.2320578e-24
2.1750768e-28
9.4582459e-31
2.3465017e-33
2.2577879e-35
1.3488512e-37
1.74761e-39
1.285182e-41
6.3621803e-44
4.1972554e-46
1.6382515e-46
1.8594605e-46
4.2213488e-47
9.5803516e-48
1.3179316e-48
6.1454294e-50
2.6104866e-50
4.6305717e-50
4.4734204e-50
2.113937e-50
9.8734517e-51
4.0218056e-51
8.0409734e-52
5.5712756e-53
4.3964692e-54
4.9513263e-55
4.5864577e-53
2.7570943e-51
1.0297068e-49
3.6872908e-49
3.8162457e-49
3.2548563e-49
2.164883e-49
9.566145e-50
2.2192326e-50
9.8610599e-51
6.1452913e-49
2.8202796e-47
3.8137181e-46
2.3575149e-45
7.9208089e-45
2.9290895e-44
2.1171767e-42
1.8613383e-40
1.7504739e-38
2.6626837e-36
4.3852945e-34
5.4285021e-32
5.3082798e-30
4.7635989e-28
3.9538079e-26
2.9086162e-24
2.2034425e-22
3.4903766e-20
3.4844104e-18
2.297178e-16
2.300818e-16
1.5281532e-10
7.9713265e-11
-1.0594966e-13
2.9143589e-15
3.704695e-15
1.0781016e-09
1.6153718e-11
2.497129e-10
1.8488712e-11
4.077991e-13
2.5384516e-14
1.0525378e-13
5.7565948e-13
2.6362909e-14
1.0869256e-17
8.4075693e-18
1.8581122e-17
2.7444302e-17
2.1918835e-16
1.3829665e-14
4.8379987e-13
3.9143613e-11
2.6733705e-09
9.310241e-09
1.1998915e-08
7.9379293e-08
1.4463165e-08
1.1841003e-06
8.9991176e-07
7.2431399e-08
1.1362908e-07
8.7201297e-06
1.6285011e-05
6.1879621e-06
1.3404262e-09
2.7718897e-11
5.1775165e-13
2.1332425e-13
2.1030422e-13
8.1742607e-15
4.0582786e-16
1.9141985e-17
1.905877e-20
1.7109649e-24
1.1845598e-27
1.7680769e-29
2.256796e-31
1.4884949e-33
1.5735018e-35
1.8051108e-37
1.1338601e-39
4.7612298e-42
3.0300397e-44
1.6393144e-44
1.6531855e-44
3.5444533e-45
8.4518743e-46
1.386755e-46
8.8929958e-48
4.7769193e-48
7.7485906e-48
7.1396176e-48
3.0820628e-48
1.3629869e-48
5.2994989e-49
1.0297e-49
6.8703143e-51
5.2307609e-52
5.6450238e-53
5.0157968e-51
2.9629933e-49
1.0867346e-47
3.9014548e-47
4.0650537e-47
3.5105959e-47
2.3484219e-47
1.0472775e-47
2.5157479e-48
9.7895609e-49
6.6308711e-47
2.9919935e-45
3.6348007e-44
2.1073139e-43
6.412112e-43
2.9112794e-42
2.7908976e-40
2.8502342e-38
2.7890149e-36
2.7812734e-34
3.6748105e-32
5.0525191e-30
5.5149614e-28
4.9695981e-26
3.9116911e-24
3.0498094e-22
4.6599861e-20
9.7796878e-18
4.2029768e-16
4.9527725e-15
2.5163672e-13
2.3184861e-10
6.8423822e-11
1.8307388e-13
4.8039394e-15
3.7706129e-15
5.7077931e-11
8.6438284e-09
4.5883879e-09
2.1873724e-12
1.6964105e-12
1.0158204e-11
2.6011162e-11
9.0441318e-11
5.3085959e-12
5.7993426e-15
1.7798019e-18
1.7254305e-16
1.9196994e-16
7.4331405e-15
5.0821872e-13
1.350113e-11
2.4147543e-09
6.954039e-08
1.2698788e-07
1.53404e-07
2.4063626e-06
8.8932113e-07
1.3547858e-06
1.5096057e-06
5.1928686e-07
1.3696607e-07
6.8637988e-06
1.7181403e-05
1.7606605e-05
4.2185682e-06
4.2099009e-10
8.8000715e-13
1.0438303e-14
1.5614476e-14
1.6973623e-15
4.0555547e-16
5.5803586e-17
1.0442942e-18
4.7946478e-23
5.7812524e-26
9.3015195e-28
9.3516049e-30
5.6277509e-32
1.0699627e-33
1.0187075e-35
4.2333682e-38
1.395754e-40
1.6213308e-42
1.3464035e-42
1.272755e-42
2.6258589e-43
6.9690404e-44
1.4532082e-44
1.3176399e-45
7.3903971e-46
1.1757416e-45
9.683906e-46
4.0043014e-46
1.6730319e-46
6.219761e-47
1.174112e-47
7.5594394e-49
5.5614504e-50
5.758119e-51
5.1359153e-49
2.9704887e-47
1.0685855e-45
3.8390212e-45
4.0456369e-45
3.5314823e-45
2.3769816e-45
1.0703521e-45
2.6617426e-46
8.8084713e-47
5.6784478e-45
2.6613182e-43
3.0287274e-42
1.6854185e-41
5.2315014e-41
1.7752455e-40
1.6636075e-38
2.0263777e-36
2.223769e-34
2.2040913e-32
2.1929644e-30
2.6963538e-28
3.1746642e-26
2.8273342e-24
2.3959105e-22
3.8253466e-20
8.5876841e-18
5.5328677e-16
1.9444621e-14
8.986025e-13
1.8000347e-11
1.9040077e-11
1.9123364e-11
2.3321808e-06
2.8332481e-05
5.2246622e-05
2.6540537e-06
4.1747395e-07
4.3171922e-11
2.1873724e-12
1.5970381e-10
4.9084643e-09
2.4781503e-09
6.2968752e-09
1.4058667e-09
8.0029267e-12
2.6002261e-15
2.0683299e-16
6.7307756e-15
1.2869004e-13
9.4730454e-12
3.194066e-10
7.619172e-08
1.0666084e-06
1.340258e-06
1.3904192e-06
3.3703196e-06
1.0295004e-06
9.930327e-07
5.1213626e-06
4.0517788e-06
2.8546773e-07
3.9372895e-07
1.6348506e-05
1.7735037e-05
1.7334611e-05
9.8026756e-07
4.1876193e-14
1.4404666e-15
1.4404664e-15
5.3229448e-17
1.2568395e-16
3.579561e-17
9.9725812e-19
2.6633096e-22
3.23716e-24
4.9127628e-26
3.3010996e-28
5.930732e-30
4.5964542e-32
2.616235e-34
9.26542e-37
3.6993173e-39
1.8828098e-40
1.5113853e-40
6.3155952e-41
1.8302125e-41
5.9307968e-42
1.7872901e-42
1.8101275e-43
9.9604482e-44
1.593502e-43
1.1602439e-43
4.643343e-44
1.8325514e-44
6.5216398e-45
1.1961445e-45
7.447806e-47
5.3046373e-48
5.2703513e-49
4.934135e-47
2.785988e-45
9.8150329e-44
3.5219611e-43
3.7764544e-43
3.3220187e-43
2.2513063e-43
1.0242676e-43
2.6313089e-44
7.4162039e-45
4.063025e-43
2.0510927e-41
2.2380655e-40
1.2138038e-39
4.2588156e-39
9.0989803e-39
4.992156e-37
7.8623223e-35
7.844962e-33
7.6670072e-31
7.3879128e-29
8.4271371e-27
1.0510049e-24
1.1330904e-22
1.7001925e-20
4.303486e-18
3.2686165e-16
5.7521888e-15
1.1932126e-13
1.9640821e-11
1.6062805e-10
2.5300846e-11
1.9190347e-11
4.6851541e-05
7.5364151e-05
7.5527348e-05
4.6287611e-05
1.5958012e-06
1.3476657e-10
5.2639378e-08
1.4101805e-06
7.8409994e-07
1.0738599e-07
2.0644514e-07
9.5952812e-08
2.5559752e-09
1.1043106e-12
1.5713744e-14
1.2191564e-13
8.4129007e-13
8.5575741e-11
3.0514216e-09
6.3972062e-08
1.287257e-05
4.4166067e-05
2.2385064e-05
6.5562336e-07
6.3821147e-07
1.1310113e-06
6.3321686e-06
6.3287583e-06
1.2098202e-06
6.3895683e-07
1.5883641e-05
1.7782912e-05
1.7735157e-05
1.5203811e-05
2.5381451e-06
4.1925858e-14
1.3104783e-07
-1.5220461e-17
-3.091467e-16
-1.2381393e-15
4.207132e-19
1.2455641e-20
1.7864545e-22
1.4088094e-24
1.4200515e-26
1.4653722e-28
8.4398566e-31
4.0843145e-33
1.9708442e-35
7.8032064e-38
1.3746797e-38
1.0565765e-38
3.5806973e-39
1.3011054e-39
5.6437425e-40
2.6240907e-40
1.7216696e-41
1.2528913e-41
1.9003757e-41
1.2489845e-41
4.816796e-42
1.7961772e-42
6.1279618e-43
1.0924519e-43
6.5923336e-45
4.5506541e-46
4.3398443e-47
4.4519623e-45
2.4496158e-43
8.4373042e-42
3.0203237e-41
3.3118147e-41
2.9298395e-41
2.0003277e-41
9.2001459e-42
2.4352271e-42
5.9517694e-43
2.5653438e-41
1.3989221e-39
1.4827527e-38
7.8920697e-38
3.0388247e-37
4.8052569e-37
8.4326133e-36
1.6246815e-33
1.7375285e-31
1.7530017e-29
1.7804262e-27
2.126586e-25
3.1598795e-23
7.7938481e-21
1.4876381e-18
1.0644011e-16
2.3517884e-15
2.2674394e-14
2.2679279e-14
6.9656239e-11
5.8680457e-10
5.6529924e-11
1.9207167e-11
6.3526e-05
7.5527301e-05
7.5577617e-05
7.563528e-05
3.2961787e-06
7.585886e-08
2.847596e-06
3.334377e-06
1.3653204e-06
3.0384499e-05
4.1774225e-05
6.6796319e-06
4.2928542e-09
1.620506e-10
3.7596237e-12
8.393009e-13
9.4565725e-12
2.0076222e-10
8.9613173e-09
1.9295295e-07
3.4538436e-05
0.00011264447
4.7757434e-05
5.9700079e-07
5.0360038e-07
5.8733964e-07
5.7306091e-06
6.3321698e-06
4.5452085e-06
1.1085219e-06
1.2115663e-05
1.7839826e-05
1.7766249e-05
1.7736421e-05
1.3700448e-05
4.8920984e-06
4.8655275e-12
-6.4185193e-17
-4.5384312e-16
-1.2848488e-15
5.9147792e-19
6.9941377e-19
3.3942361e-21
3.1594912e-23
2.206466e-25
1.7512216e-27
2.0463415e-29
1.0401472e-31
3.8349311e-34
2.2112449e-36
8.1541799e-37
6.0152468e-37
2.1013868e-37
1.0476944e-37
6.8465689e-38
3.9414902e-38
1.445145e-39
1.4344903e-39
1.9749452e-39
1.2075716e-39
4.4808756e-40
1.5798992e-40
5.1749499e-41
8.9722193e-42
5.257404e-43
3.5216815e-44
3.2227702e-45
3.7730949e-43
2.0221886e-41
6.7992223e-40
2.4258716e-39
2.7315346e-39
2.4282406e-39
1.6702668e-39
7.7717104e-40
2.1158104e-40
4.573623e-41
1.5141231e-39
8.5758402e-38
8.8665211e-37
4.5932729e-36
1.7054366e-35
3.1749943e-35
1.2671872e-34
1.4574456e-32
2.6777854e-30
3.506422e-28
4.3256334e-26
5.3225093e-24
7.9238926e-22
2.1771075e-19
2.7709675e-17
6.978044e-16
5.7951581e-15
3.5563723e-14
2.3130644e-14
3.0646013e-11
2.1256727e-09
2.7401368e-10
1.9578935e-11
1.7011885e-05
7.546603e-05
7.5527301e-05
7.5565324e-05
1.2948273e-05
2.5887524e-07
5.0705759e-06
1.8519292e-06
1.6332105e-07
0.00011898064
0.00018611694
8.0870494e-05
3.0396137e-07
1.5038053e-08
3.4072494e-10
9.1531728e-12
1.3788225e-10
2.5712369e-10
9.1984207e-09
2.2801977e-07
4.8705321e-05
0.00012178196
0.00010722047
5.6897718e-07
3.0358125e-07
1.9579479e-07
1.6676456e-06
6.2862481e-06
5.5934358e-06
4.3937981e-07
8.3639236e-06
1.7938658e-05
1.3385464e-05
1.0331336e-05
1.3923919e-05
1.2480445e-05
-2.8810644e-26
-3.4525541e-17
-1.4253838e-16
-4.0350946e-17
1.1553583e-15
6.3798004e-17
1.6785214e-18
1.2443759e-20
9.1065718e-23
5.3842295e-25
2.2796815e-27
6.9481173e-30
2.2127282e-32
1.2563409e-34
4.6506108e-35
2.5869612e-35
1.4817246e-35
1.1306845e-35
8.6700052e-36
5.3298909e-36
1.8016228e-37
1.4320537e-37
1.8096775e-37
1.0491461e-37
3.7469575e-38
1.2503329e-38
3.9380366e-39
6.6450882e-40
3.7886649e-41
2.4655572e-42
2.1633222e-43
3.0019863e-41
1.5677645e-39
5.1407229e-38
1.8269766e-37
2.1208647e-37
1.8942524e-37
1.3123598e-37
6.1834e-38
1.7306155e-38
3.3732148e-39
8.548085e-38
4.7724452e-36
4.7984678e-35
2.408717e-34
8.3963851e-34
2.1708791e-33
3.5281457e-33
7.6446324e-32
2.2459956e-29
3.5658092e-27
4.5267123e-25
5.1009507e-23
6.1054485e-21
1.0572655e-18
9.9105445e-17
2.4001437e-15
1.9633029e-14
9.5154071e-14
2.3603724e-14
2.4238441e-14
1.3019863e-08
4.6078589e-09
1.1332588e-09
1.1881205e-09
9.2182553e-06
6.99747e-05
5.8877956e-05
6.9412596e-06
1.8676151e-06
3.9600995e-06
6.2283371e-07
1.1162681e-07
9.219077e-05
0.00018632519
0.00018490262
1.592998e-05
7.1027906e-08
1.9059647e-09
1.2043917e-10
1.5921664e-10
1.3865253e-09
3.7400409e-08
4.8495542e-07
2.015069e-05
0.00012634304
0.00015757799
1.4632125e-05
1.7647734e-07
1.0509894e-07
3.5720568e-07
2.9416592e-06
3.1004907e-06
1.6325322e-07
3.1050584e-06
7.7931371e-06
6.9916225e-07
3.0138368e-06
1.3900518e-05
1.392398e-05
4.8430355e-06
-1.8969768e-28
5.2637844e-15
1.4273273e-14
7.750677e-15
4.181049e-16
9.7276223e-18
6.3112674e-20
4.9085681e-22
3.2265454e-24
1.6205152e-26
6.086891e-29
1.1526689e-31
4.4387811e-33
2.2746299e-33
1.4841894e-33
1.3515955e-33
1.4575373e-33
1.0730061e-33
5.8692498e-34
2.2210803e-35
1.2596044e-35
1.4919085e-35
8.2037762e-36
2.8226453e-36
8.9256511e-37
2.707184e-37
4.4504652e-38
2.4737813e-39
1.5655473e-40
1.3157318e-41
2.2398572e-39
1.1413861e-37
3.648083e-36
1.2913041e-35
1.5502075e-35
1.3917135e-35
9.7207429e-36
4.6425001e-36
1.3350035e-36
2.4003868e-37
4.5310392e-36