/*--------------------------------*- C++ -*----------------------------------*\
  =========                 |
  \\      /  F ield         | OpenFOAM: The Open Source CFD Toolbox
   \\    /   O peration     | Website:  https://openfoam.org
    \\  /    A nd           | Version:  9
     \\/     M anipulation  |
\*---------------------------------------------------------------------------*/
FoamFile
{
    format      ascii;
    class       surfaceScalarField;
    location    "0.56";
    object      alphaPhi0.phase1;
}
// * * * * * * * * * * * * * * * * * * * * * * * * * * * * * * * * * * * * * //

dimensions      [0 3 -1 0 0 0 0];

internalField   nonuniform List<scalar> 
19800
(
4.5785497e-88
-1.4771831e-87
6.5990561e-88
-1.5457219e-87
3.0416067e-86
-6.6539664e-87
9.9967073e-85
-2.276487e-85
1.307332e-84
-3.3843326e-85
4.0886766e-85
-1.6099634e-85
1.0666934e-85
-4.8981555e-86
6.6887713e-86
-1.4620783e-86
6.9988425e-86
-3.6487361e-86
7.3483912e-86
-3.6544456e-86
4.7250793e-84
-2.236594e-85
1.3794366e-81
-4.438822e-83
7.3056803e-80
-2.5894826e-81
9.1710845e-79
-3.3070777e-80
4.9311669e-78
-1.8685734e-79
1.7562265e-77
-6.1133289e-79
4.7853274e-77
-1.4662329e-78
8.7919529e-77
-2.4975258e-78
1.1787339e-76
-2.908976e-78
2.6270562e-75
-3.2829343e-77
2.8267773e-73
-2.4589833e-75
2.6688854e-71
-1.4057796e-73
2.1279348e-69
-3.8607485e-72
1.477705e-67
2.261536e-70
9.7225894e-66
5.7229905e-68
6.8245325e-64
6.8471345e-66
4.7083493e-62
6.6023999e-64
3.6850376e-60
6.6229363e-62
5.7397339e-58
1.2784356e-59
2.4141737e-56
6.6340998e-58
4.3972477e-55
1.4215746e-56
6.4734459e-51
2.3932596e-52
2.4270632e-47
1.3676776e-48
4.5832736e-47
3.1730243e-48
1.10807e-46
1.2811467e-47
9.7262681e-47
1.3391727e-47
2.2812943e-47
6.8321746e-48
1.3200688e-48
1.0406206e-48
6.3240912e-49
1.3199505e-49
5.2145647e-49
1.2721537e-49
2.1161456e-48
3.6496975e-49
3.076945e-47
4.9075961e-48
4.0272577e-46
6.6144134e-47
4.5546901e-45
7.3266278e-46
4.2807878e-44
6.314462e-45
3.2680547e-43
4.0735313e-44
2.048802e-42
1.9336487e-43
1.0554054e-41
6.3438533e-43
4.3367769e-41
9.9354592e-43
1.2989785e-40
-1.3151529e-42
1.6874362e-40
-1.137204e-41
1.5914953e-40
-1.7533888e-41
1.0363766e-40
-1.4566257e-39
2.1406789e-39
-3.5732681e-39
1.4580539e-37
-2.2838508e-37
2.4091231e-36
-7.241536e-36
9.8564885e-36
-7.6105101e-35
8.5078317e-36
-9.3596352e-35
2.8537833e-36
-5.7775559e-36
3.9431769e-37
-1.7414462e-37
2.9191338e-38
-1.6140779e-38
2.0975436e-39
-2.521582e-40
9.163959e-40
3.0546232e-41
3.9523622e-40
3.5403897e-41
5.5303674e-41
1.3788586e-41
2.9810432e-42
2.0248594e-42
1.0095817e-43
1.5419495e-43
1.6474761e-45
6.020244e-45
1.2126881e-47
9.9238668e-47
9.1945601e-50
1.1133205e-48
7.0444397e-52
1.1506455e-50
4.5212057e-54
1.0220483e-52
2.4974171e-56
7.5633533e-55
1.4485286e-58
5.2625198e-57
7.6276536e-61
3.8280489e-59
2.063062e-63
1.9610059e-61
4.9980498e-66
7.9483973e-64
1.0744221e-68
3.3094115e-66
-8.3206145e-72
1.5052658e-68
-3.6614518e-73
7.2133196e-71
-3.4387247e-75
3.522201e-73
-1.5697626e-76
1.6896712e-75
-6.9211783e-77
6.0133705e-77
-2.8845692e-77
2.0203475e-77
-1.0810577e-77
5.9711753e-78
-3.403463e-78
1.5944155e-78
-7.8814395e-79
3.3979291e-79
-8.6204405e-80
4.8130744e-80
-2.315751e-81
2.6688745e-81
-1.0247871e-83
1.7949431e-83
-1.0548279e-86
-1.2822128e-85
-1.0470192e-86
-1.1870178e-86
-1.0347371e-86
-1.2089094e-86
-1.5435526e-86
-1.6508055e-87
-1.8046396e-86
-3.369882e-87
-4.4365357e-87
-4.4698245e-87
-4.6494266e-88
-9.5203284e-88
-9.1257508e-89
-1.4847783e-88
-5.8215329e-89
-2.3496432e-87
-2.3368649e-87
1.5148092e-87
-3.5713188e-87
1.1539884e-85
-9.9412074e-86
4.7843462e-84
-3.5364338e-84
2.5053321e-83
-2.2628853e-83
3.116439e-83
-2.8765339e-83
2.3840653e-83
-2.1760918e-83
1.5292394e-83
-1.384549e-83
4.7998727e-84
-5.6424992e-84
4.7358275e-85
-9.9245048e-85
1.9928791e-85
-8.2606123e-86
3.8689502e-84
-3.5244974e-85
8.9001318e-82
-6.3579837e-83
5.6279878e-80
-3.4873017e-81
7.5347872e-79
-3.7522293e-80
4.7424226e-78
-2.4985747e-79
1.7109768e-77
-9.4152677e-79
4.448072e-77
-2.1939752e-78
8.0858519e-77
-3.6299088e-78
1.2334147e-76
-1.0464249e-77
4.1089566e-74
-3.0822575e-75
5.1122754e-72
-1.3914081e-73
4.1239479e-70
-4.9759153e-72
2.6950558e-68
3.8327977e-71
1.6565686e-66
2.0649904e-68
9.8203539e-65
2.365131e-66
7.7467525e-63
2.7895845e-64
8.7663499e-61
4.2632742e-62
9.7363994e-59
6.0197956e-60
7.2733156e-57
5.3397067e-58
6.7321973e-55
5.9588292e-56
4.7721893e-52
5.0086188e-53
1.1245957e-49
1.3227651e-50
7.1262475e-46
1.9476892e-46
4.2433332e-46
1.5991596e-46
1.9609041e-46
4.9542589e-47
3.7916361e-44
1.4633095e-44
3.5441471e-44
1.5673587e-44
4.2667014e-45
5.6273144e-45
6.5507825e-47
3.1680079e-46
3.5024202e-47
2.0054619e-47
4.0639458e-46
1.3618594e-46
5.2829475e-45
1.7270844e-45
5.9408123e-44
1.8660473e-44
5.8021915e-43
1.6359891e-43
4.5474928e-42
1.0462976e-42
2.596938e-41
4.1260896e-42
1.0329183e-40
7.0907887e-42
3.021489e-40
-1.1055527e-41
7.7458569e-40
-1.3101337e-40
1.7517841e-39
-5.4372647e-40
2.2889004e-39
-1.1463901e-39
2.4482048e-39
-1.4827746e-39
9.9370759e-39
-3.9623803e-39
1.5259764e-36
-1.6009536e-36
9.6041107e-35
-9.9721241e-35
1.4281914e-33
-1.4080996e-33
4.595554e-33
-3.6081912e-33
2.3598682e-33
-1.2011624e-33
2.1721187e-33
-8.9038259e-34
3.7992841e-34
-2.2040477e-34
4.8336837e-35
-2.843496e-35
1.4742945e-36
-6.4358641e-37
2.2216656e-37
2.8253493e-38
1.1290388e-37
2.9685543e-38
2.8147825e-38
1.5940895e-38
2.6382098e-39
3.6400243e-39
1.4154099e-40
4.3588515e-40
3.1075074e-42
2.4987201e-41
2.125775e-44
4.8650142e-43
1.3658166e-46
5.0965527e-45
9.9492119e-49
5.0121005e-47
6.1632828e-51
4.3044972e-49
3.1584654e-53
3.0598228e-51
1.6600391e-55
1.9170648e-53
1.028826e-57
1.3844691e-55
2.54385e-60
7.6084976e-58
4.2549369e-63
2.5651513e-60
7.160564e-66
9.1579111e-63
-2.2458887e-68
4.0034315e-65
-4.191125e-70
1.9204748e-67
-3.4157942e-72
9.1371565e-70
-2.2025264e-74
4.0283574e-72
-3.1371491e-76
1.6840929e-74
-4.6109621e-77
1.5365439e-76
-1.3902104e-77
1.3663943e-77
-3.9883216e-78
2.8027212e-78
-8.4575184e-79
5.0261237e-79
-8.7310225e-80
5.775855e-80
-2.4460098e-81
2.6377517e-81
-1.5240741e-83
-1.0548057e-84
-1.3295092e-85
-7.9112163e-85
-4.1544696e-85
-3.5100586e-86
-1.0773827e-84
-2.9351916e-85
-2.1325873e-84
-7.6517745e-85
-2.4696885e-84
-1.5426861e-84
-1.3760251e-84
-1.9860186e-84
-2.1068039e-85
-9.2721386e-85
-2.341598e-86
-1.5631049e-85
-1.8506849e-87
-2.309383e-86
-4.4722595e-87
1.3036982e-84
-3.5261932e-84
1.1109608e-82
-1.237476e-82
4.6268542e-81
-4.5016402e-81
1.9452914e-80
-2.2973937e-80
2.3169485e-80
-2.6466604e-80
1.6961204e-80
-1.9726731e-80
1.0366394e-80
-1.2179833e-80
3.2460862e-81
-4.867272e-81
3.6421592e-82
-8.7381221e-82
9.0371294e-83
-1.0184596e-82
8.9938242e-83
-4.4848715e-83
1.9911122e-81
-3.5481842e-82
7.8116162e-80
-9.9566147e-81
2.4172038e-78
-3.6191543e-79
1.1367034e-76
-6.4354317e-77
6.2069633e-76
-3.1121736e-76
3.5115111e-76
-1.2818157e-76
1.0712897e-76
-1.4123722e-77
1.8483648e-75
-8.1723039e-77
6.0997383e-71
-7.3112053e-71
6.2802156e-69
-2.0997469e-70
5.1000386e-67
-5.5639879e-69
3.3329471e-65
2.3010055e-67
2.0256943e-63
4.5661845e-65
1.2058882e-61
4.6743562e-63
9.9464911e-60
5.4862396e-61
1.2290246e-57
8.8388279e-59
1.3396725e-55
1.2004948e-56
9.60304e-54
1.035303e-54
9.806486e-52
1.2395089e-52
3.7462971e-49
5.4872505e-50
1.8611642e-46
3.1150947e-47
6.4427132e-43
2.4529398e-43
3.4998975e-43
1.9609469e-43
6.6645056e-44
3.1854171e-44
4.3402598e-41
2.1441514e-41
4.0747881e-41
2.3586523e-41
5.7256713e-42
8.9237112e-42
6.6324938e-44
5.6035983e-43
1.3759673e-44
9.409401e-45
6.9750174e-44
2.8922464e-44
8.7178536e-43
3.0994592e-43
9.2163414e-42
2.966154e-42
8.4997297e-41
2.2581826e-41
6.3980756e-40
1.1866954e-40
3.5921232e-39
2.8659525e-40
1.4387733e-38
-8.5504504e-40
4.3106651e-38
-1.0133952e-38
1.1000917e-37
-4.4577797e-38
2.557527e-37
-1.5594112e-37
3.4456578e-37
-3.0142557e-37
3.8157913e-37
-3.6745143e-37
4.0175922e-36
-2.1845042e-36
5.9784032e-34
-6.5681563e-34
3.4764886e-32
-3.7529687e-32
5.0542147e-31
-5.1349219e-31
1.6696203e-30
-1.3785253e-30
1.0132681e-30
-6.5038774e-31
1.1262117e-30
-5.7208375e-31
2.2724173e-31
-1.634461e-31
4.1846429e-32
-2.6902341e-32
1.7160746e-33
-7.8765e-34
2.7683924e-34
5.207366e-35
1.1177787e-34
4.7613278e-35
1.9161048e-35
1.876006e-35
1.575376e-36
3.3967546e-36
9.4565473e-38
3.9160564e-37
2.4511375e-39
2.4449151e-38
1.7816295e-41
5.210269e-40
1.077932e-43
5.4456439e-42
7.5995177e-46
5.2426779e-44
4.5714057e-48
4.4174519e-46
2.2571032e-50
3.0631676e-48
1.1022821e-52
1.8609503e-50
5.9193921e-55
1.2202036e-52
1.4627394e-57
6.3450947e-55
2.5957532e-60
2.2792796e-57
2.94026e-63
8.8843815e-60
-3.5285091e-65
4.1167676e-62
-4.3441176e-67
2.0391824e-64
-3.2407429e-69
9.6283952e-67
-1.9691345e-71
4.1919167e-69
-1.900913e-73
1.7050379e-71
-1.3394588e-74
1.1996398e-73
-2.6993304e-75
6.6373293e-75
-5.0963939e-76
9.9023169e-76
-6.2720812e-77
1.2216835e-76
-5.2300512e-78
8.5891539e-78
-3.3496521e-79
2.7966148e-79
-1.027454e-80
-8.0519148e-81
-2.6088582e-82
-1.044032e-81
-7.7568693e-82
-8.6301794e-83
-1.6363517e-81
-6.1609063e-82
-2.8153383e-81
-1.3905331e-81
-2.881693e-81
-2.4732614e-81
-1.5168144e-81
-2.9462659e-81
-2.1339468e-82
-1.2842084e-81
-2.2504252e-83
-2.0030278e-82
-1.6777676e-84
-2.8171712e-83
-5.1122622e-84
6.809706e-82
-2.2184097e-81
7.3236379e-80
-9.5127554e-80
3.0415472e-78
-3.5192637e-78
1.0204114e-77
-1.5183056e-77
1.1906521e-77
-1.6379795e-77
8.6423947e-78
-1.217267e-77
5.1512481e-78
-7.3914415e-78
1.5976588e-78
-2.9171469e-78
2.0558605e-79
-5.2593614e-79
9.1916874e-80
-8.6254262e-80
9.5925619e-80
-5.5987146e-80
1.3960923e-78
-1.1273972e-78
3.8202034e-77
-3.4168135e-77
2.8452085e-75
-2.7158752e-75
2.7261966e-73
-5.6724585e-74
1.1924907e-72
-3.7763253e-73
1.9104725e-73
-1.201699e-73
7.930396e-74
-1.5053696e-74
1.9300582e-72
-1.4679612e-72
2.4651523e-68
-1.3607279e-69
4.791851e-66
-5.9072343e-67
4.1806553e-64
-4.0272006e-66
2.8520208e-62
3.3098352e-64
1.7750248e-60
5.6137648e-62
1.0726781e-58
5.564651e-60
8.9664384e-57
6.4899941e-58
1.1195209e-54
1.0468506e-55
1.2924428e-52
1.497341e-53
9.0782399e-51
1.2628726e-51
9.5487563e-49
1.5508379e-49
2.9060793e-46
5.440263e-47
2.0643392e-43
4.4151277e-44
4.2606361e-40
2.0650854e-40
2.1923684e-40
1.6044828e-40
3.779665e-41
2.2963988e-41
3.5979689e-38
2.1258516e-38
3.4074824e-38
2.4837719e-38
5.6763943e-39
1.0150027e-38
7.4008e-41
7.3209565e-40
7.4419959e-42
7.0728771e-42
7.0581236e-42
5.7360692e-42
1.0337117e-40
4.3387594e-41
1.0310388e-39
3.7528297e-40
8.9164519e-39
2.545983e-39
6.3944657e-38
1.1135314e-38
3.4940026e-37
8.8706041e-39
1.4039326e-36
-2.6989867e-37
4.1965471e-36
-1.8646211e-36
1.0763493e-35
-7.3620359e-36
2.5756094e-35
-2.5052605e-35
3.6446665e-35
-4.8050848e-35
4.3136425e-35
-5.7546754e-35
1.1112882e-33
-8.2600441e-34
1.5324276e-31
-1.7698296e-31
8.3635517e-30
-9.4140863e-30
1.2012616e-28
-1.2639365e-28
4.1213159e-28
-4.1526344e-28
2.6692985e-28
-2.2430797e-28
3.5720909e-28
-2.3530295e-28
9.4423568e-29
-7.8780265e-29
2.4764858e-29
-1.593486e-29
1.3375327e-30
-5.762084e-31
2.535968e-31
5.9828753e-32
8.5081057e-32
5.1585006e-32
1.016752e-32
1.5684145e-32
7.1909902e-34
2.252823e-33
4.7201114e-35
2.4785621e-34
1.4256196e-36
1.6656689e-35
1.1232263e-38
3.9094763e-37
6.4202465e-41
4.1267073e-39
4.3462843e-43
3.8830235e-41
2.5136895e-45
3.2037654e-43
1.1851304e-47
2.1569903e-45
5.6383402e-50
1.2751149e-47
2.8837788e-52
8.1697178e-50
6.3867648e-55
4.0807941e-52
1.0480902e-57
1.4960216e-54
-5.3274361e-61
6.3375187e-57
-3.6334593e-62
3.100956e-59
-3.4695612e-64
1.5686844e-61
-2.372042e-66
7.3276724e-64
-1.3593804e-68
3.1437944e-66
-1.0696015e-70
1.2415211e-68
-6.7499257e-72
7.2001719e-71
-1.4753337e-72
3.6283587e-72
-3.104493e-73
5.9037671e-73
-4.7958868e-74
8.0268034e-74
-4.7555247e-75
6.7717668e-75
-2.8253299e-76
2.1118284e-76
-7.4584859e-78
-1.2793355e-77
-3.3467899e-79
-1.0142754e-78
-9.672195e-79
-1.388765e-79
-1.7878856e-78
-8.5684482e-79
-2.7240605e-78
-1.7111341e-78
-2.4257377e-78
-2.7171824e-78
-1.2213846e-78
-2.9511711e-78
-1.5831591e-79
-1.2288435e-78
-1.5858055e-80
-1.7769672e-79
-1.0928397e-81
-2.355466e-80
-3.9888563e-81
2.7606348e-79
-1.0462409e-78
3.393182e-77
-5.0532081e-77
1.4040557e-75
-1.886843e-75
4.1241858e-75
-7.383013e-75
4.7660678e-75
-7.625864e-75
3.4525852e-75
-5.6670319e-75
2.0234136e-75
-3.4055932e-75
6.2345586e-76
-1.3310496e-75
9.0403952e-77
-2.4232667e-76
4.6049361e-77
-5.0661513e-77
1.1765611e-76
-6.0659523e-77
1.3651289e-75
-1.1024397e-75
4.0713569e-74
-3.6769078e-74
3.3473067e-72
-3.2020669e-72
1.8778184e-70
-4.4442569e-71
6.1123482e-70
-2.134361e-70
1.3077426e-70
-4.9530679e-71
2.2666554e-70
-6.9938012e-71
5.4128756e-69
-4.4791741e-69
1.7381437e-67
-6.5315807e-69
2.1159815e-63
-9.0501423e-64
2.4039959e-61
-5.4650104e-63
1.7589099e-59
2.8813321e-61
1.1400955e-57
4.6046262e-59
6.9872298e-56
4.5225993e-57
5.6490618e-54
5.0434857e-55
7.2932414e-52
8.3570847e-53
8.8218114e-50
1.2477895e-50
6.2431366e-48
1.056148e-48
6.6106168e-46
1.3043732e-46
1.7647799e-43
4.0111135e-44
1.5319842e-40
3.9728074e-41
2.2360435e-37
1.3147154e-37
1.1030296e-37
9.9964965e-38
1.8666977e-38
1.3797181e-38
2.2922048e-35
1.5271069e-35
2.2313967e-35
1.9877513e-35
4.4637283e-36
8.8678722e-36
7.5472956e-38
7.6182555e-37
1.1913057e-39
8.3825477e-39
1.0452059e-39
1.0280537e-39
9.2778424e-39
4.8709348e-39
8.6381749e-38
3.8352144e-38
6.9178036e-37
2.4152546e-37
4.6551026e-36
9.6750333e-37
2.439242e-35
1.0737692e-37
9.5342032e-35
-2.9758445e-35
2.8274684e-34
-1.997761e-34
7.2627022e-34
-7.8605052e-34
1.7932105e-33
-2.725097e-33
2.7401284e-33
-5.2914773e-33
3.8499192e-33
-6.6198328e-33
2.2138462e-31
-2.27647e-31
2.7957015e-29
-3.4182304e-29
1.4414559e-27
-1.6987639e-27
2.0561779e-26
-2.2437861e-26
7.3688329e-26
-9.5009612e-26
5.0875724e-26
-5.4081962e-26
8.2561066e-26
-6.7961393e-26
2.9517783e-26
-2.7017777e-26
1.0278048e-26
-6.5929347e-27
7.5629566e-28
-2.9080065e-28
1.743615e-28
4.8708058e-29
5.1018909e-29
4.0263772e-29
4.4787219e-30
1.0087842e-29
2.6404245e-31
1.1553594e-30
1.8276354e-32
1.1877897e-31
6.3544327e-34
8.4681891e-33
5.5194377e-36
2.1940425e-34
2.9805515e-38
2.3598698e-36
1.9105547e-40
2.1549147e-38
1.0448696e-42
1.7253221e-40
4.6236597e-45
1.1132424e-42
2.2891888e-47
6.3757412e-45
1.1159163e-49
4.1300383e-47
2.1016268e-52
2.040833e-49
2.3614649e-55
7.7894257e-52
-1.9371295e-57
3.6011763e-54
-2.7895666e-59
1.884054e-56
-2.2421063e-61
9.4556361e-59
-1.4149205e-63
4.356774e-61
-7.6069897e-66
1.8296473e-63
-4.8023638e-68
6.9764048e-66
-2.5139778e-69
3.2857093e-68
-6.2076503e-70
1.4053158e-69
-1.4313901e-70
2.592672e-70
-2.4943721e-71
3.7683985e-71
-2.6901753e-72
3.3821176e-72
-1.5747167e-73
8.0072752e-74
-3.8700444e-75
-1.0969348e-74
-3.4101516e-76
-6.6930483e-76
-9.0637879e-76
-1.6974054e-76
-1.5018789e-75
-8.7515509e-76
-1.9210238e-75
-1.5708738e-75
-1.6809725e-75
-2.208826e-75
-7.6570227e-76
-2.1943172e-75
-9.2052118e-77
-8.744049e-76
-8.680443e-78
-1.1784593e-76
-5.5720581e-79
-1.4679741e-77
-2.3320688e-78
9.1522811e-77
-3.93306e-76
1.2204757e-74
-2.0457048e-74
5.022233e-73
-7.6639326e-73
1.3570493e-72
-2.8226093e-72
1.5611765e-72
-2.831137e-72
1.1328619e-72
-2.1075925e-72
6.5607726e-73
-1.2576446e-72
2.0175417e-73
-4.892804e-73
3.2154656e-74
-9.0128689e-74
2.0537474e-74
-2.2057355e-74
1.0384326e-73
-6.6566515e-74
1.1068045e-72
-9.0325259e-73
3.6120813e-71
-3.2970117e-71
4.3526918e-69
-1.5525159e-69
8.5765498e-68
-2.4067432e-68
2.2249571e-67
-8.8008596e-68
3.8015721e-68
-1.0931832e-68
5.6993346e-67
-4.9311313e-67
1.2775708e-65
-1.101342e-65
1.2331831e-64
-8.7198113e-65
1.1829415e-61
-2.0207965e-63
1.0253708e-58
-2.4309589e-59
1.2837969e-56
2.6685687e-58
5.6443402e-55
2.7654447e-56
3.6541582e-53
2.8177243e-54
2.7576253e-51
2.9156701e-52
3.6443585e-49
4.9194807e-50
4.4477588e-47
7.3888155e-48
3.3128373e-45
6.5735455e-46
3.3665302e-43
7.7860505e-44
9.6908842e-41
2.5776828e-41
1.0183823e-37
3.0992181e-38
9.6586573e-35
6.6737136e-35
4.622693e-35
5.0121973e-35
7.7405561e-36
6.7859166e-36
1.1338343e-32
8.3582236e-33
1.1620974e-32
1.2491117e-32
2.7829452e-33
6.124248e-33
6.2583305e-35
6.351803e-34
2.4941518e-37
8.8829957e-36
1.3420053e-37
1.6301753e-37
6.6679587e-37
4.6570151e-37
5.5926102e-36
3.213436e-36
4.0789259e-35
1.9520026e-35
2.5069363e-34
8.1169162e-35
1.2134209e-33
7.3816599e-35
4.4296409e-33
-1.8286302e-33
1.2567125e-32
-1.3951219e-32
3.1818583e-32
-5.7597801e-32
8.1666044e-32
-2.0791853e-31
1.3907314e-31
-4.1015845e-31
3.0667294e-31
-6.4689142e-31
3.2354209e-29
-4.760261e-29
3.7597695e-27
-4.9992417e-27
1.8522528e-25
-2.309135e-25
2.6369994e-24
-3.0013795e-24
9.9061955e-24
-1.6035217e-23
7.3238592e-24
-9.6023977e-24
1.4457541e-23
-1.4430052e-23
7.238874e-24
-6.8844446e-24
2.969525e-24
-2.0013135e-24
3.2645176e-25
-1.0871904e-25
9.0102662e-26
2.8918816e-26
2.425215e-26
2.3367313e-26
1.7216437e-27
5.2266996e-27
8.1997262e-29
4.8942045e-28
5.6396363e-30
4.5332847e-29
2.2269968e-31
3.3522718e-30
2.2006891e-33
9.6689034e-32
1.1255217e-35
1.0765592e-33
6.6733461e-38
9.4289537e-36
4.212632e-40
7.218592e-38
1.3890731e-42
4.4236541e-40
1.2329435e-44
2.4694403e-42
3.4846019e-47
1.7172844e-44
4.6304323e-50
8.1843569e-47
-3.3667527e-53
3.3143028e-49
-1.6707569e-54
1.7022132e-51
-1.6510267e-56
9.2256514e-54
-1.1730725e-58
4.5730113e-56
-6.8443896e-61
2.0649856e-58
-3.4256553e-63
8.4078234e-61
-1.8000039e-65
3.0575815e-63
-7.664818e-67
1.2078904e-65
-2.1069511e-67
4.3056031e-67
-5.15121e-68
8.8335347e-68
-9.7353547e-69
1.3253644e-68
-1.1346086e-69
1.1987809e-69
-6.610973e-71
1.2244292e-71
-1.480835e-72
-6.2299346e-72
-2.8664029e-73
-3.2177065e-73
-6.7116182e-73
-1.675533e-73
-1.0292652e-72
-6.9164999e-73
-1.0918802e-72
-1.1306032e-72
-9.2263457e-73
-1.4018074e-72
-3.8525148e-73
-1.2752672e-72
-4.3093959e-74
-4.8545188e-73
-3.8432889e-75
-6.1176348e-74
-2.3037056e-76
-7.1951592e-75
-1.0751716e-75
2.5707125e-74
-1.2279907e-73
3.6050505e-72
-6.6876334e-72
1.4736351e-70
-2.5045494e-70
3.7732087e-70
-8.8648007e-70
4.324347e-70
-8.716729e-70
3.150678e-70
-6.5047932e-70
1.8127271e-70
-3.8683043e-70
5.5783888e-71
-1.5019361e-70
9.4456347e-72
-2.8067645e-71
7.1865046e-72
-7.3448248e-72
7.5335937e-71
-5.5229439e-71
7.6864588e-70
-6.3646629e-70
2.7279238e-68
-2.5179905e-68
2.7227821e-66
-8.7407749e-67
2.9337736e-65
-9.0412033e-66
6.4732146e-65
-2.7574378e-65
1.9509953e-65
-9.0105951e-66
9.4361454e-64
-8.7805321e-64
2.7061951e-62
-2.4409005e-62
3.5223378e-61
-2.8537534e-61
2.7769147e-60
-1.6094634e-60
8.546486e-57
-2.4992571e-59
2.2154378e-54
2.7961435e-56
2.6039494e-52
1.4731563e-53
1.5432779e-50
1.3754806e-51
1.03975e-48
1.2649307e-49
1.4265259e-46
2.2059034e-47
1.8543655e-44
3.5214803e-45
1.383238e-42
3.1345989e-43
1.3263473e-40
3.5041204e-41
2.4924591e-38
6.9089206e-39
5.1496552e-35
1.7901749e-35
3.5363081e-32
2.8046123e-32
1.5526344e-32
2.0226394e-32
2.4237201e-33
2.4760526e-33
4.4524455e-30
3.6334286e-30
4.8584503e-30
6.2663095e-30
1.3911056e-30
3.3946774e-30
4.1378086e-32
4.2600235e-31
1.2300058e-34
7.5446178e-33
2.7232396e-35
4.1628783e-35
3.9263953e-35
4.7000449e-35
2.8004504e-34
2.213937e-34
1.8457252e-33
1.3205185e-33
9.9205031e-33
6.052843e-33
4.0818188e-32
1.3818953e-32
1.2057288e-31
-4.9291325e-32
2.7547451e-31
-6.0430388e-31
6.2879965e-31
-2.738225e-30
1.7685959e-30
-1.0472012e-29
3.8075404e-30
-2.0901151e-29
2.1533966e-29
-6.6532081e-29
3.3972891e-27
-7.8138066e-27
3.7758967e-25
-7.205586e-25
1.8096788e-23
-2.9417245e-23
2.5973566e-22
-3.7185394e-22
1.01998e-21
-2.0494862e-21
8.1006364e-22
-1.2864874e-21
1.9522391e-21
-2.3238845e-21
1.3805658e-21
-1.4494527e-21
6.813501e-22
-5.0948162e-22
1.1287157e-22
-3.7910622e-23
3.5047724e-23
1.3226812e-23
8.8817236e-24
1.0227905e-23
5.6654142e-25
2.1638482e-24
2.1870793e-26
1.7400257e-25
1.4112265e-27
1.4093808e-26
6.2082708e-29
1.0557515e-27
7.1370472e-31
3.3982529e-29
3.4753777e-33
3.9813337e-31
2.4464444e-35
3.2882969e-33
1.395899e-37
2.4254647e-35
3.2419921e-40
1.4000538e-37
3.2261811e-42
7.5406845e-40
7.6312709e-45
5.7296329e-42
4.2806704e-48
2.6885298e-44
-7.2374021e-50
1.2037499e-46
-9.5005355e-52
6.8335868e-49
-7.6993005e-54
3.668216e-51
-4.9329859e-56
1.7848638e-53
-2.6406028e-58
7.8056915e-56
-1.1993371e-60
3.0234226e-58
-5.2770331e-63
1.0196203e-60
-1.9443731e-64
3.3959628e-63
-5.8571107e-65
1.0697316e-64
-1.5174513e-65
2.3903203e-65
-3.0995725e-66
3.6787007e-66
-3.8653316e-67
3.2465745e-67
-2.1778801e-68
-4.822677e-69
-4.1230085e-70
-2.6216663e-69
-2.0217785e-70
-1.2884365e-70
-4.0771016e-70
-1.3486967e-70
-5.8106382e-70
-4.3919151e-70
-5.2060492e-70
-6.5520428e-70
-4.1454481e-70
-7.1866486e-70
-1.5971791e-70
-6.0062641e-70
-1.6691531e-71
-2.1763861e-70
-1.4141743e-72
-2.5722824e-71
-7.9449025e-74
-2.8689289e-72
-4.0408204e-73
6.2760935e-72
-3.2797313e-71
9.063815e-70
-1.8341035e-69
3.6765989e-68
-6.8446905e-68
9.1519896e-68
-2.3585456e-67
1.0304139e-67
-2.2877013e-67
7.6081078e-68
-1.7133428e-67
4.3626609e-68
-1.0179046e-67
1.3466237e-68
-3.9510222e-68
2.3421335e-69
-7.5108582e-69
1.7875181e-69
-1.9161824e-69
3.1649355e-68
-1.9852858e-68
4.6869962e-67
-4.0835322e-67
1.970815e-65
-9.7628327e-66
9.3682581e-64
-3.2831972e-64
7.6557236e-63
-2.61627e-63
1.8942904e-62
-6.9732693e-63
3.3367255e-62
-1.4096565e-62
1.3271934e-60
-1.2337648e-60
5.0023634e-59
-4.6441602e-59
9.6702571e-58
-8.5533246e-58
6.9288386e-57
-4.5890483e-57
7.3964233e-57
-4.448639e-59
2.3391263e-54
3.4450823e-56
3.7002234e-50
1.304429e-51
4.9967753e-48
4.9668569e-49
4.807088e-46
6.5684182e-47
4.2585489e-44
7.3980187e-45
6.3452613e-42
1.350472e-42
4.4672866e-40
1.1318365e-40
4.2447214e-38
1.5015665e-38
1.1969402e-37
4.4397215e-38
2.2406318e-32
8.718572e-33
1.124603e-29
9.9917232e-30
4.3714528e-30
6.8213523e-30
6.7420807e-31
7.9099799e-31
1.4322173e-27
1.3089646e-27
1.6467171e-27
2.5378999e-27
5.5406305e-28
1.5182286e-27
2.1198693e-29
2.2781435e-28
7.563804e-32
5.0175465e-30
2.7987915e-33
2.4529395e-32
2.4623726e-33
4.6005699e-33
1.1195802e-32
1.2760212e-32
6.4944263e-32
7.2426903e-32
2.8201358e-31
3.6640479e-31
7.4598099e-31
1.2775573e-30
3.2453379e-31
1.301155e-30
-4.7741068e-30
-1.3429028e-29
-2.3197226e-29
-8.1035947e-29
-3.4883556e-29
-3.4871157e-28
-1.4828003e-29
-7.6203871e-28
7.4381887e-28
-8.8888255e-27
2.1920042e-25
-1.0402081e-24
2.7048992e-23
-8.2216671e-23
1.3319457e-21
-3.0337759e-21
1.9638852e-20
-3.6663397e-20
8.1178259e-20
-2.0389617e-19
6.9990041e-20
-1.3797051e-19
2.0724895e-19
-3.0327619e-19
2.1064012e-19
-3.2936482e-19
1.2710096e-19
-1.2403069e-19
3.1476903e-20
-6.2297578e-21
1.0705565e-20
4.8826553e-21
2.4580773e-21
3.4359518e-21
1.503818e-22
6.9711313e-22
4.9999803e-24
5.1248815e-23
2.9053826e-25
3.6084523e-24
1.3811038e-26
2.6719703e-25
1.8746523e-28
9.5787744e-27
8.7887377e-31
1.2029512e-28
6.5132923e-33
9.1800503e-31
3.3751363e-35
6.4861557e-33
5.6343308e-38
3.4079985e-35
7.4718758e-40
1.8349661e-37
8.588263e-43
1.4900451e-39
-2.0024379e-45
7.2137875e-42
-4.1842559e-47
3.8470082e-44
-3.9630866e-49
2.2263116e-46
-2.8070722e-51
1.1754518e-48
-1.6176527e-53
5.5398795e-51
-7.6883634e-56
2.2933886e-53
-2.9468336e-58
8.1041622e-56
-9.6563996e-61
2.3357374e-58
-4.0470175e-62
5.8377314e-61
-1.3820374e-62
2.1570348e-62
-3.7660624e-63
5.3780602e-63
-8.2068384e-64
8.2751803e-64
-1.0772788e-64
6.6532647e-65
-5.9391496e-66
-4.2359676e-66
-1.1648907e-67
-8.8829289e-67
-9.039034e-68
-4.7411788e-68
-2.0843617e-67
-8.7758727e-68
-2.5498758e-67
-2.2920757e-67
-2.1830855e-67
-3.1301967e-67
-1.5581594e-67
-3.0397631e-67
-5.5691397e-68
-2.3467346e-67
-5.4495572e-69
-8.0741675e-68
-4.4057376e-70
-8.9721217e-69
-2.3266424e-71
-9.5288517e-70
-1.266644e-70
1.3579932e-69
-7.6599381e-69
1.9889204e-67
-4.3349982e-67
7.9914936e-66
-1.6072042e-65
1.9511522e-65
-5.4364179e-65
2.1729988e-65
-5.226549e-65
1.6236499e-65
-3.9321666e-65
9.2931888e-66
-2.3366415e-65
2.8832882e-66
-9.0846114e-66
5.0605053e-67
-1.7566152e-66
3.8078368e-67
-4.2916228e-67
8.8741621e-66
-4.354578e-66
2.8771039e-64
-1.629574e-64
1.2463044e-62
-6.0323541e-63
2.6060856e-61
-1.0567658e-61
1.6787295e-60
-6.3227053e-61
5.0275036e-60
-1.6571688e-60
3.56058e-59
-1.0191666e-59
2.5102309e-57
-5.7725343e-58
9.725655e-56
-2.6788128e-56
2.3394804e-54
-2.0734605e-54
3.0356529e-53
-2.3031578e-53
6.8593435e-54
-5.0778007e-55
4.6117011e-53
1.6697758e-54
4.2918906e-50
1.6779802e-51
3.9276976e-46
3.2652786e-47
9.1861566e-44
1.0137582e-44
1.2858252e-41
2.4624963e-42
1.6997653e-39
3.9912216e-40
1.1570746e-37
3.2246443e-38
9.4282896e-36
6.0671157e-36
5.0969546e-36
3.7614233e-36
9.8361613e-30
4.1915679e-30
3.1334064e-27
3.0611084e-27
1.0709239e-27
1.8439619e-27
5.9010026e-28
7.8072097e-28
3.9750195e-25
4.1433924e-25
4.5653997e-25
8.4224097e-25
1.710044e-25
5.4563264e-25
8.1501854e-27
9.5904208e-26
3.7587766e-29
2.6164003e-27
2.2145502e-31
1.4707789e-29
1.6552665e-31
3.9075737e-31
4.0564929e-31
6.7110598e-31
1.838414e-30
3.1166218e-30
5.8073157e-30
1.6973017e-29
-2.3428734e-30
7.3994974e-29
-1.4409554e-28
1.9964007e-28
-6.6477601e-28
9.1345743e-29
-2.4874888e-27
-1.6048963e-27
-4.4150073e-27
-9.6404094e-27
-9.1953766e-27
-2.8662522e-26
-2.6646352e-25
-1.1886024e-24
-1.2484253e-24
-1.231331e-22
1.1328989e-21
-7.6140399e-21
7.0634268e-20
-2.4969619e-19
1.1276231e-18
-2.9508932e-18
5.0259978e-18
-1.654416e-17
4.7180508e-18
-1.3702875e-17
1.7060738e-17
-2.4254297e-17
2.1444806e-17
-1.6622927e-17
1.5992767e-17
-5.9830873e-18
4.5515181e-18
-3.3642989e-19
1.7938996e-18
9.4102277e-19
5.7242234e-19
7.7790915e-19
4.350277e-20
1.9699138e-19
1.1285299e-21
1.4692181e-20
4.877654e-23
8.1449806e-22
2.3515705e-24
5.4686727e-23
3.8618587e-26
2.1403817e-24
1.8041792e-28
2.9500838e-26
1.310986e-30
2.0345002e-28
5.8314708e-33
1.3354513e-30
7.0868183e-36
6.0929615e-33
2.0042223e-37
3.779992e-35
-2.2060466e-41
3.2969112e-37
-1.3788884e-42
1.6760302e-39
-1.5625615e-44
1.0122709e-41
-1.2404931e-46
5.8081301e-44
-7.7531535e-49
2.9693029e-46
-3.8621006e-51
1.3184005e-48
-1.4597446e-53
4.8908027e-51
-3.0822583e-56
1.3766552e-53
-4.9702493e-59
2.2242575e-56
-6.41776e-60
2.9423849e-59
-2.8052615e-60
3.4103363e-60
-8.1339073e-61
1.0386724e-60
-1.9102082e-61
1.5602774e-61
-2.6134021e-62
1.023548e-62
-1.3850064e-63
-1.7886125e-63
-3.1907269e-65
-2.4763416e-64
-4.0554752e-65
-1.6978149e-65
-9.1443828e-65
-4.6337017e-65
-9.4500103e-65
-1.0072053e-64
-7.6210451e-65
-1.2442722e-64
-4.9730383e-65
-1.081442e-64
-1.6557363e-65
-7.731108e-65
-1.5205473e-66
-2.5243744e-65
-1.1779016e-67
-2.6421171e-66
-5.8586431e-69
-2.682862e-67
-3.367582e-68
2.6425881e-67
-1.5909606e-66
3.8802102e-65
-9.0115893e-65
1.5399436e-63
-3.3070751e-63
3.7130213e-63
-1.1047281e-62
4.1091849e-63
-1.0562813e-62
3.1035763e-63
-7.987197e-63
1.7757599e-63
-4.7528133e-63
5.5423122e-64
-1.8532813e-63
1.0017999e-64
-3.62896e-64
7.6127383e-65
-9.3929741e-65
1.8607017e-63
-9.9879693e-64
1.3479889e-61
-7.2884165e-62
4.5402693e-60
-2.1848202e-60
6.1775175e-59
-2.6556049e-59
3.2146213e-58
-1.3019946e-58
9.8483567e-58
-3.634227e-58
1.3719239e-56
-4.0488738e-57
1.4811682e-54
-3.3092507e-55
1.3084763e-52
-2.1235103e-53
8.7759465e-51
-1.022081e-51
2.5822424e-49
-3.2167748e-50
2.2950835e-49
-1.4021763e-49
7.5866936e-49
3.4231081e-50
3.2152217e-47
2.5727138e-48
8.1964825e-46
7.6031469e-47
1.7862806e-43
2.1480648e-44
2.2858085e-39
3.8403956e-40
3.8016326e-37
9.6971013e-38
3.0471682e-35
9.2147215e-36
2.4654195e-33
1.6588496e-33
1.2183767e-33
9.762208e-34
3.0819409e-27
1.3895596e-27
7.791607e-25
8.1931462e-25
3.3360057e-25
4.0787233e-25
2.5516218e-23
2.0102962e-23
1.0948054e-22
1.4637334e-22
1.0628129e-22
2.350311e-22
3.9769674e-23
1.5840402e-22
2.1972271e-24
3.1185904e-23
1.2876628e-26
1.0222409e-24
3.6063395e-29
6.5951263e-27
1.4966703e-29
5.5268596e-29
1.4036054e-29
3.7607076e-29
4.5514248e-29
1.0392648e-28
1.0611987e-28
5.8548064e-28
-5.7104118e-28
2.9903005e-27
-7.4004641e-27
1.1117662e-26
-3.5498219e-26
2.4089101e-26
-1.2868737e-25
6.6312941e-27
-2.6217347e-25
-2.3058438e-25
-1.2590514e-24
-1.3106105e-24
-8.0079088e-23
-1.2006201e-22
-3.6520065e-21
-1.1255006e-20
-2.8575309e-20
-6.0121624e-19
2.3482527e-18
-1.7908288e-17
4.7521741e-17
-1.5493222e-16
2.2886291e-16
-6.812906e-16
2.1992544e-16
-4.5554076e-16
1.174341e-15
-1.0673091e-15
1.5022798e-15
-2.6701816e-16
1.7468478e-15
0
4.5182892e-16
5.520828e-17
1.2613087e-16
1.591196e-16
5.0719911e-17
1.0411256e-16
6.6718332e-18
2.8498888e-17
2.1425927e-19
2.6772725e-18
7.4232886e-21
1.4807305e-19
3.3459039e-22
9.2826548e-21
6.3042983e-24
3.882087e-22
3.2816682e-26
5.8854547e-24
2.0121855e-28
3.589027e-26
7.1231558e-31
2.0735653e-28
6.0271133e-34
7.6136932e-31
1.2780308e-35
6.7336098e-33
-3.3991818e-38
6.052201e-35
-4.6355798e-40
3.467067e-37
-4.1540835e-42
2.1055216e-39
-2.8378851e-44
1.1757685e-41
-1.4906868e-46
5.6472937e-44
-6.7554499e-49
2.2025212e-46
-3.7449154e-52
5.202784e-49
-9.9654734e-55
3.1771413e-52
-4.5836973e-57
6.6115266e-55
-6.0575128e-58
2.5621701e-57
-4.7563459e-58
3.6405614e-58
-1.5871683e-58
1.9016158e-58
-3.8520301e-59
2.5030974e-59
-5.4032732e-60
8.8403261e-61
-2.7598283e-61
-5.2868479e-61
-1.0009136e-62
-5.7056306e-62
-1.63775e-62
-5.9319566e-63
-3.3964105e-62
-2.0056903e-62
-3.093941e-62
-3.8202074e-62
-2.2638507e-62
-4.1356757e-62
-1.3630393e-62
-3.2783396e-62
-4.2419691e-63
-2.1744194e-62
-3.6661621e-64
-6.742555e-63
-2.7300518e-65
-6.6596633e-64
-1.2801453e-66
-6.4864778e-65
-7.6927428e-66
4.6807014e-65
-2.9779614e-64
6.8262779e-63
-1.6734511e-62
2.6669719e-61
-6.0540565e-61
6.3786965e-61
-2.0057783e-60
7.0388302e-61
-1.9124119e-60
5.3709436e-61
-1.4542611e-60
3.0751464e-61
-8.6712178e-61
9.664322e-62
-3.3951293e-61
1.8836861e-62
-6.6968342e-62
1.5146297e-62
-2.0998193e-62
4.5412314e-61
-2.6751772e-61
4.1157582e-59
-2.2962207e-59
1.1311752e-57
-5.7855521e-58
1.170341e-56
-5.4557734e-57
5.3472278e-56
-2.3965387e-56
1.5572745e-55
-5.6520886e-56
3.0829749e-54
-7.3510451e-55
4.6143035e-52
-1.0582713e-52
5.1184973e-50
-8.8932292e-51
4.5072627e-48
-5.0336659e-49
3.4392388e-46
-2.0236457e-47
2.345474e-44
-1.5588352e-46
1.4940273e-42
5.8238033e-44
7.7071453e-41
6.6075146e-42
7.9671764e-40
2.0623392e-40
2.6658469e-40
9.4292832e-41
5.8439222e-39
1.1078312e-39
6.2918081e-35
1.6779797e-35
4.6632445e-33
1.4486679e-33
6.9638131e-32
2.5945376e-32
4.017342e-28
1.7686674e-28
1.0388435e-25
4.8631907e-26
1.8521459e-22