/*--------------------------------*- C++ -*----------------------------------*\
  =========                 |
  \\      /  F ield         | OpenFOAM: The Open Source CFD Toolbox
   \\    /   O peration     | Website:  https://openfoam.org
    \\  /    A nd           | Version:  9
     \\/     M anipulation  |
\*---------------------------------------------------------------------------*/
FoamFile
{
    format      ascii;
    class       volScalarField;
    location    "0.56";
    object      p;
}
// * * * * * * * * * * * * * * * * * * * * * * * * * * * * * * * * * * * * * //

dimensions      [1 -1 -2 0 0 0 0];

internalField   nonuniform List<scalar> 
10000
(
0
-0.0044284356
-0.0079089957
-0.014439711
-0.023224494
-0.034099026
-0.047013631
-0.061978887
-0.078826355
-0.097600665
-0.11809677
-0.1402663
-0.16400583
-0.18909526
-0.21538717
-0.24261374
-0.27044053
-0.29854454
-0.32650169
-0.35380362
-0.37979816
-0.40332223
-0.42375042
-0.44377219
-0.46325999
-0.48114703
-0.49361504
-0.49890685
-0.49683112
-0.48702595
-0.46875524
-0.44134404
-0.40420575
-0.35695697
-0.2994428
-0.23176882
-0.15436994
-0.068079029
0.025907461
0.12592011
0.22862981
0.33132238
0.43113737
0.52479312
0.60861365
0.67858843
0.7306041
0.7606352
0.76372264
0.75039059
0.71790943
0.66133045
0.59032888
0.48657519
0.34501143
0.17279598
-0.024111063
-0.23874252
-0.46308154
-0.68860308
-0.90688879
-1.1101063
-1.2917512
-1.4484567
-1.5776423
-1.6788367
-1.7529712
-1.8021299
-1.829124
-1.8371124
-1.829426
-1.8093319
-1.7798121
-1.743575
-1.7029562
-1.6598891
-1.6159989
-1.5726333
-1.5307931
-1.4910281
-1.4539994
-1.4200408
-1.3893368
-1.3618884
-1.337526
-1.3158198
-1.2965288
-1.2796148
-1.2648766
-1.2520838
-1.2411514
-1.2317086
-1.2234848
-1.2163287
-1.2100735
-1.2045229
-1.1995935
-1.1953174
-1.1919675
-1.1857883
-0.00067585199
-0.0051787571
-0.0087683156
-0.015352574
-0.024235257
-0.035193238
-0.048266654
-0.063294203
-0.080367723
-0.099271328
-0.11996057
-0.1423862
-0.16633989
-0.19173524
-0.2183847
-0.24601133
-0.27438124
-0.30317611
-0.33200808
-0.36048719
-0.3881123
-0.41428234
-0.43866859
-0.4598682
-0.47959818
-0.49676803
-0.50928597
-0.51558072
-0.51478718
-0.50614825
-0.48885307
-0.46209855
-0.42520633
-0.37767911
-0.31922583
-0.24983793
-0.16989214
-0.080214224
0.017898933
0.12258669
0.23123695
0.34094917
0.44853498
0.55051289
0.6432202
0.72303152
0.78654906
0.83238881
0.8567379
0.85062139
0.81981638
0.76434125
0.68209039
0.56611826
0.41480219
0.23146976
0.021476139
-0.20799586
-0.44835377
-0.69017607
-0.92394611
-1.1409481
-1.3340941
-1.4995112
-1.6346288
-1.7390282
-1.8138986
-1.8616843
-1.8856562
-1.889459
-1.8768367
-1.8514096
-1.8164432
-1.7748225
-1.7290875
-1.6813305
-1.6332377
-1.5861589
-1.5410623
-1.4985056
-1.4591245
-1.4231895
-1.3907991
-1.3618852
-1.3363396
-1.3138804
-1.2942325
-1.2771561
-1.2623975
-1.2497247
-1.2388015
-1.2294447
-1.2213492
-1.2143341
-1.208226
-1.2027762
-1.197901
-1.1936315
-1.190299
-1.1840133
-0.00026676926
-0.0048977896
-0.0085383871
-0.015232091
-0.024213805
-0.035359233
-0.048503613
-0.063778426
-0.081010123
-0.10013488
-0.12113733
-0.14384869
-0.16819842
-0.19406521
-0.22122976
-0.24950186
-0.27863416
-0.30830341
-0.33820462
-0.36796417
-0.39711466
-0.42518109
-0.45133111
-0.47486931
-0.49635398
-0.51478295
-0.52874353
-0.53690516
-0.53816158
-0.53150984
-0.51594186
-0.49051711
-0.45439314
-0.4068935
-0.34751575
-0.27610963
-0.19293072
-0.098689076
0.0053765476
0.11741741
0.23489729
0.35476777
0.47361364
0.5877378
0.69325725
0.78636248
0.86327022
0.91873806
0.95140931
0.95616573
0.93198797
0.87702687
0.78844828
0.66303645
0.49990321
0.30147349
0.073009502
-0.17772534
-0.44088987
-0.70552195
-0.96050697
-1.1958093
-1.402731
-1.5772302
-1.7169856
-1.8219585
-1.8940992
-1.9366127
-1.9536392
-1.9495148
-1.9285592
-1.894865
-1.8520406
-1.8031843
-1.7509331
-1.6974627
-1.6444827
-1.5933171
-1.5447854
-1.4995383
-1.4580423
-1.4205133
-1.3869701
-1.3572683
-1.3312485
-1.308644
-1.2891355
-1.2724558
-1.258279
-1.2462242
-1.2359647
-1.2271589
-1.2195752
-1.2130049
-1.2072924
-1.2021571
-1.1975543
-1.193489
-1.1902503
-1.1838201
0.0028228037
-0.0018915844
-0.0056206614
-0.012398629
-0.021566385
-0.03278571
-0.046171466
-0.061623739
-0.079075238
-0.098526659
-0.11984407
-0.14297103
-0.1678362
-0.19427509
-0.22214616
-0.2512667
-0.2813784
-0.31222545
-0.34351231
-0.37486118
-0.40584437
-0.43596769
-0.46484594
-0.49171749
-0.51616749
-0.53736545
-0.55416434
-0.56534828
-0.56972177
-0.56608719
-0.55324292
-0.53003551
-0.49540959
-0.44839515
-0.3882719
-0.31465826
-0.22759232
-0.12759708
-0.015811742
0.10590895
0.23498432
0.36817267
0.50170188
0.6314403
0.75303361
0.86226612
0.9550788
1.0266603
1.0730943
1.0900985
1.0742827
1.0222126
0.93041564
0.79599713
0.61814714
0.39906473
0.1442562
-0.13736692
-0.43394318
-0.73183156
-1.0171397
-1.2775221
-1.5041315
-1.6908826
-1.8359005
-1.9401827
-2.0068787
-2.040565
-2.0465895
-2.0303707
-1.9970618
-1.9513496
-1.8972875
-1.8382557
-1.7770205
-1.7157995
-1.6562921
-1.5997757
-1.5469909
-1.4984346
-1.4544507
-1.4151369
-1.3804266
-1.3500838
-1.3238301
-1.3013384
-1.2821953
-1.266011
-1.2523723
-1.2409634
-1.231394
-1.2233291
-1.2164726
-1.2105641
-1.2054321
-1.2007788
-1.19658
-1.192818
-1.1897316
-1.1831603
0.007992872
0.0031381108
-0.00067226725
-0.0076301588
-0.016873435
-0.028332971
-0.041909931
-0.057584064
-0.075367264
-0.095147571
-0.11688379
-0.1405446
-0.16600983
-0.19318335
-0.22194903
-0.25211392
-0.28348442
-0.31584726
-0.34890924
-0.38234204
-0.41577422
-0.44874402
-0.48077092
-0.51120908
-0.53940201
-0.56446314
-0.58530677
-0.60072421
-0.60940768
-0.60997603
-0.60101873
-0.58113093
-0.54892604
-0.50311621
-0.44265224
-0.36682196
-0.27531293
-0.16839505
-0.047020524
0.086992554
0.23092087
0.38118984
0.5335144
0.6831174
0.82482817
0.9526833
1.0676632
1.1590832
1.2231985
1.2553406
1.2506777
1.2042208
1.1111564
0.96765582
0.7721274
0.52626246
0.23605898
-0.087945641
-0.4308678
-0.77512486
-1.1028055
-1.3980443
-1.6484006
-1.8490563
-1.998513
-2.0992363
-2.156277
-2.17617
-2.1659876
-2.1325985
-2.0822278
-2.0202918
-1.9513225
-1.8789998
-1.8062187
-1.7351872
-1.6675625
-1.6044845
-1.5464952
-1.4940155
-1.4471834
-1.4059179
-1.3700217
-1.3391333
-1.3128184
-1.2906563
-1.2721446
-1.2568064
-1.2441734
-1.2338179
-1.2253466
-1.2183625
-1.2125319
-1.2075483
-1.2031836
-1.1992103
-1.1955108
-1.1921324
-1.1893128
-1.1826089
0.015224946
0.010238107
0.0062534797
-0.00076834658
-0.010244216
-0.021889979
-0.035678204
-0.051670613
-0.069771484
-0.089945339
-0.11218875
-0.13642326
-0.16258944
-0.1906283
-0.22041346
-0.25181177
-0.28468169
-0.31881578
-0.3539714
-0.389879
-0.42618174
-0.46244424
-0.49828511
-0.5329841
-0.56579824
-0.59580858
-0.6219266
-0.64288337
-0.65723727
-0.66342224
-0.65977906
-0.64456989
-0.61602677
-0.57246089
-0.51238986
-0.43460176
-0.33833918
-0.22345846
-0.090636916
0.058404844
0.22075487
0.39235014
0.56819876
0.74284651
0.91085321
1.0675649
1.2038492
1.3183566
1.4043299
1.4558645
1.4665657
1.4295594
1.3378848
1.185786
0.96967199
0.69014363
0.35341852
-0.027738715
-0.4339053
-0.84131209
-1.2256139
-1.5657577
-1.8460432
-2.0618422
-2.2134298
-2.3057956
-2.3469629
-2.3462996
-2.3132166
-2.2564162
-2.1834082
-2.1004222
-2.0124933
-1.9235701
-1.8366108
-1.7537514
-1.6764911
-1.6058011
-1.5419441
-1.4851066
-1.4352628
-1.3920996
-1.3551927
-1.3240249
-1.2980101
-1.2765963
-1.259168
-1.2451335
-1.2339352
-1.2250653
-1.2180557
-1.212469
-1.2079474
-1.2041518
-1.2007988
-1.1977207
-1.1946705
-1.1917692
-1.1892687
-1.1824203
0.024566854
0.019357869
0.01531727
0.008069825
-0.0015790131
-0.013421977
-0.027507575
-0.043791081
-0.062245673
-0.08287888
-0.10564395
-0.13051129
-0.15746405
-0.18643643
-0.21735595
-0.25015123
-0.28469334
-0.32081679
-0.35835744
-0.3970854
-0.43668212
-0.47677508
-0.51703713
-0.55671006
-0.59504321
-0.6311138
-0.66379141
-0.69171365
-0.71330212
-0.72678521
-0.73020048
-0.72141802
-0.69822169
-0.65842459
-0.59994075
-0.52093955
-0.4200304
-0.29649095
-0.15049406
0.016473699
0.20128236
0.39912831
0.6039068
0.80901849
1.0079433
1.1944925
1.3613357
1.5052907
1.6186457
1.6949722
1.7266638
1.7044582
1.6182999
1.4594487
1.2201976
0.89892621
0.50153591
0.043630605
-0.44858679
-0.94179105
-1.4018072
-1.7998855
-2.1152596
-2.3454304
-2.4938413
-2.5697243
-2.5856814
-2.5550317
-2.4902777
-2.4022913
-2.3000085
-2.1905027
-2.0792315
-1.9702618
-1.8664612
-1.769804
-1.6816075
-1.6023443
-1.5320911
-1.4707252
-1.4178928
-1.3730228
-1.3354344
-1.3044143
-1.2791987
-1.2590452
-1.2432137
-1.2309957
-1.2217256
-1.2148029
-1.2096621
-1.2058356
-1.2029653
-1.2006259
-1.1985747
-1.1965276
-1.1942851
-1.1919611
-1.189822
-1.182831
0.036000951
0.030655721
0.026388792
0.018992516
0.0091601761
-0.0029591141
-0.017304742
-0.033895914
-0.05275071
-0.073831763
-0.097136412
-0.12268306
-0.15044701
-0.18040595
-0.21255155
-0.24683171
-0.28316382
-0.32146633
-0.36162147
-0.40345353
-0.44673312
-0.49118191
-0.53641562
-0.58180716
-0.62659997
-0.66988195
-0.71047866
-0.74694516
-0.77756292
-0.80032215
-0.81291342
-0.81277034
-0.79715575
-0.76321196
-0.70812658
-0.6292678
-0.52441206
-0.3919265
-0.23119532
-0.043187665
0.1688166
0.39886936
0.63906818
0.88112948
1.1170994
1.3395024
1.5414377
1.7221974
1.8683846
1.97589
2.0353089
2.0357344
1.9620495
1.8013473
1.5373722
1.1651086
0.68865557
0.12689427
-0.48361055
-1.0941711
-1.6552253
-2.127061
-2.4807317
-2.7211728
-2.8565879
-2.9030518
-2.8800821
-2.8065367
-2.6987474
-2.5700045
-2.4306587
-2.2884965
-2.1491605
-2.0165835
-1.8933419
-1.7810925
-1.6808778
-1.5923954
-1.5154637
-1.4496025
-1.3940412
-1.3478748
-1.3101452
-1.2798765
-1.2560983
-1.2378552
-1.2242351
-1.2144047
-1.2075875
-1.2031101
-1.2003324
-1.198711
-1.1978464
-1.1972615
-1.1967245
-1.1959407
-1.1946828
-1.193041
-1.1912843
-1.1841359
0.049635266
0.043971049
0.039572656
0.032003393
0.021913303
0.0095669211
-0.0050445682
-0.021975632
-0.041200573
-0.062723397
-0.086583203
-0.11279142
-0.14136452
-0.17234187
-0.20573497
-0.24153431
-0.2797427
-0.32034542
-0.36327882
-0.40844645
-0.45571848
-0.50486651
-0.55571442
-0.60755676
-0.65975873
-0.7114261
-0.76138021
-0.8081267
-0.84980509
-0.88414812
-0.90848032
-0.91974504
-0.91456369
-0.88930135
-0.84024526
-0.76376599
-0.65647713
-0.5155228
-0.33894559
-0.12663081
0.11831884
0.38823261
0.67202424
0.95896628
1.239439
1.5048334
1.7515045
1.9662002
2.1525697
2.3001332
2.3982627
2.4309416
2.3777258
2.2272998
1.9389452
1.5049112
0.92516156
0.22086934
-0.55499372
-1.3280898
-2.0239753
-2.5885505
-2.9795576
-3.2194076
-3.3237567
-3.3200453
-3.2382352
-3.1043602
-2.9390866
-2.7580892
-2.5728022
-2.3912509
-2.2188895
-2.0591696
-1.9139938
-1.7849202
-1.6717459
-1.5737625
-1.4902351
-1.4202224
-1.3625012
-1.3157347
-1.278633
-1.2499247
-1.2283909
-1.2128429
-1.2021787
-1.1954249
-1.1916876
-1.1902087
-1.1903035
-1.1913417
-1.1928462
-1.1943942
-1.1956234
-1.196304
-1.1961739
-1.1953362
-1.1940282
-1.1867691
0.065330203
0.059431509
0.054842052
0.047028391
0.036739673
0.024162059
0.0092635619
-0.0079626101
-0.027532078
-0.049490253
-0.07386249
-0.10069141
-0.13005445
-0.16201165
-0.19661492
-0.23393866
-0.2740476
-0.31698403
-0.36278288
-0.41145983
-0.46297839
-0.5172201
-0.57408087
-0.63304669
-0.69356152
-0.75478937
-0.81561004
-0.87451549
-0.92952319
-0.97812134
-1.017261
-1.0433297
-1.0522186
-1.039364
-0.9999576
-0.92923529
-0.82234407
-0.67459531
-0.48198765
-0.24219246
0.042900227
0.36322431
0.70120232
1.0427482
1.37632
1.6927423
1.9859101
2.2502567
2.4716036
2.6667833
2.8167193
2.8968074
2.8827273
2.7442376
2.4453564
1.9381191
1.2216256
0.31610672
-0.69676191
-1.6963566
-2.5689582
-3.2454348
-3.6640953
-3.8810892
-3.9230458
-3.836881
-3.6678765
-3.4505674
-3.2098792
-2.9632268
-2.7221617
-2.49415
-2.2838704
-2.0939326
-1.9246239
-1.7777696
-1.6512344
-1.5439272
-1.4543842
-1.3809818
-1.3219977
-1.2756437
-1.24023
-1.2141311
-1.1958181
-1.1838717
-1.1770324
-1.1741935
-1.1742746
-1.1764496
-1.1799559
-1.1841405
-1.1884522
-1.1924271
-1.1957111
-1.1980542
-1.1992309
-1.1993198
-1.1984608
-1.1910611
0.083178478
0.076971791
0.072111792
0.064117304
0.053620802
0.040797034
0.025663895
0.0081764878
-0.011715691
-0.034043445
-0.058860045
-0.086257483
-0.11633084
-0.14917483
-0.18491896
-0.22370426
-0.26564845
-0.31087599
-0.35954494
-0.41178696
-0.46766474
-0.52719433
-0.59045179
-0.6571259
-0.72676146
-0.79869468
-0.87192904
-0.94498606
-1.0158091
-1.0817098
-1.1392778
-1.1842953
-1.2118298
-1.21616
-1.1912431
-1.1312114
-1.0293475
-0.87839535
-0.67137293
-0.40170124
-0.067488574
0.3191908
0.72531042
1.133498
1.5294923
1.9025508
2.2463023
2.5614127
2.8441991
3.068414
3.2886945
3.4324548
3.4771865
3.3789835
3.072956
2.4864626
1.5873002
0.38513099
-0.98184968
-2.3022439
-3.3941569
-4.1411284
-4.6088382
-4.7639109
-4.6889683
-4.4704076
-4.1745553
-3.8442292
-3.5068223
-3.1795117
-2.8722949
-2.5908666
-2.3381331
-2.1149423
-1.9213535
-1.7557808
-1.6160786
-1.5001605
-1.4056635
-1.3301308
-1.2712265
-1.2266595
-1.1942741
-1.1720703
-1.158205
-1.1510069
-1.1490076
-1.1509567
-1.155658
-1.1621976
-1.1697171
-1.17752
-1.1850428
-1.1918099
-1.1974861
-1.2017492
-1.2043771
-1.20545
-1.205122
-1.1975622
0.10308597
0.096511871
0.091426446
0.083220941
0.072504105
0.059491822
0.044156994
0.026434735
0.0062957836
-0.016316001
-0.04150054
-0.069359666
-0.10001141
-0.13362104
-0.17038041
-0.21047015
-0.25408776
-0.30147747
-0.35290368
-0.40861474
-0.46884303
-0.53381153
-0.60364383
-0.67838396
-0.75782758
-0.84151941
-0.92865499
-1.0178842
-1.1072014
-1.1938198
-1.274043
-1.3429567
-1.3948994
-1.4224965
-1.4181868
-1.37549
-1.2858543
-1.1382106
-0.92173054
-0.6212503
-0.22857361
0.24984512
0.74283833
1.2345563
1.7040813
2.1391282
2.5313783
2.8967271
3.2350773
3.5541799
3.8087573
4.0258365
4.1550227
4.1300856
3.8464501
3.1776082
2.0605466
0.40894626
-1.5010876
-3.3052454
-4.7113423
-5.5679744
-5.9630107
-5.9470183
-5.6590687
-5.2339397
-4.7586468
-4.2791696
-3.8209413
-3.3974275
-3.0141481
-2.6731536
-2.374296
-2.1168326
-1.8978965
-1.714228
-1.5625504
-1.4395241
-1.3417283
-1.2658678
-1.2088708
-1.1678588
-1.1401775
-1.1234261
-1.1154538
-1.1142889
-1.118293
-1.1260347
-1.1362999
-1.1479775
-1.1601489
-1.1721388
-1.183317
-1.193258
-1.2015424
-1.2079132
-1.2121456
-1.2143249
-1.2145872
-1.2068105
0.12498486
0.11810092
0.11270536
0.10427395
0.093389569
0.080212047
0.064699642
0.046820875
0.026524394
0.003716837
-0.021710963
-0.049876574
-0.080953504
-0.11515745
-0.15271142
-0.19386635
-0.23892334
-0.28822439
-0.34213824
-0.40107124
-0.46545394
-0.53571579
-0.61216652
-0.69518913
-0.7848984
-0.88118893
-0.98355509
-1.0909234
-1.2015277
-1.3125951
-1.4202734
-1.518914
-1.6025441
-1.6611122
-1.6847321
-1.6684977
-1.6013792
-1.468064
-1.2532014
-0.89956487
-0.45285738
0.10924354
0.75049944
1.353947
1.908536
2.4049635
2.8435007
3.2451904
3.6223951
3.9842081
4.3204683
4.6345785
4.8817846
4.9790185
4.7637972
3.9823036
2.6229955
0.21385399
-2.5346371
-5.0311398
-6.8350715
-7.7012801
-7.8971918
-7.5341063
-6.8747859
-6.1311414
-5.4087817
-4.7394932
-4.1365127
-3.6030521
-3.1356392
-2.7303576
-2.3839947
-2.0917026
-1.8481619
-1.6480766
-1.486581
-1.3588249
-1.2601999
-1.1864449
-1.1337139
-1.0984706
-1.0775638
-1.0681275
-1.067711
-1.0740777
-1.0854331
-1.1001001
-1.1168132
-1.1344266
-1.1519665
-1.1687238
-1.1840133
-1.1974479
-1.2086339
-1.2173227
-1.2232561
-1.2265946
-1.2275422
-1.21941
0.14890048
0.14162733
0.1358798
0.12726275
0.1162108
0.10288272
0.08726415
0.069310648
0.048938799
0.026064131
0.00056191674
-0.027739521
-0.059043834
-0.093586453
-0.13164581
-0.17355999
-0.21971493
-0.27053996
-0.32653453
-0.38826997
-0.45639628
-0.53157084
-0.61435974
-0.70557287
-0.80571068
-0.91511611
-1.0337584
-1.1610715
-1.2957245
-1.4351176
-1.5755535
-1.710584
-1.835383
-1.9346827
-1.9941881
-2.0161268
-1.9852447
-1.8815423
-1.6765209
-1.3206257
-0.79279975
-0.10131873
0.7722401
1.5054667
2.1590347
2.7113532
3.1780222
3.5905587
3.9841074
4.3781756
4.7808011
5.1816166
5.5651313
5.8317743
5.7455915
4.8203328
2.5990593
-1.2685945
-5.5162875
-8.8598994
-10.739148
-11.235583
-10.604823
-9.5778532
-8.342028
-7.1451832
-6.104243
-5.2000931
-4.4309211
-3.7782493
-3.2214776
-2.7504363
-2.3566253
-2.0310647
-1.7653577
-1.5519564
-1.383946
-1.2548289
-1.1587016
-1.0902121
-1.0446938
-1.0179129
-1.0061847
-1.0062068
-1.0152586
-1.0308337
-1.0509701
-1.0738012
-1.098013
-1.1224066
-1.1459799
-1.1680272
-1.1879168
-1.2052033
-1.2195507
-1.2307013
-1.2384178
-1.2429723
-1.2446968
-1.2360258
0.17472417
0.16699905
0.16093417
0.15208929
0.14086082
0.12743938
0.1117787
0.093823394
0.073497219
0.050709246
0.025304516
-0.0029203554
-0.034180144
-0.068743664
-0.10696558
-0.14924958
-0.19604002
-0.24786966
-0.3053813
-0.3693158
-0.44051655
-0.51994246
-0.60846206
-0.70732465
-0.81760417
-0.94018672
-1.0757331
-1.2243877
-1.3855586
-1.5570784
-1.7359695
-1.9143038
-2.0932857
-2.2460661
-2.3474076
-2.4222845
-2.4442674
-2.4126333
-2.2709755
-1.9337459
-1.3119546
-0.35696875
0.74404367
1.7144804
2.4802406
3.0697249
3.5234305
3.9017158
4.2675735
4.6560228
5.0859813
5.5476542
6.0001888
6.4318945
6.4771689
5.0123282
0.78141232
-6.1474985
-12.910283
-17.323575
-18.562629
-17.787949
-14.918837
-11.491104
-9.8910881
-8.175771
-6.7747369
-5.6122923
-4.67198
-3.8996242
-3.2541141
-2.7190275
-2.2806916
-1.925653
-1.642193
-1.4201905
-1.2503862
-1.1243925
-1.0349934
-0.97571674
-0.94098301
-0.92584164
-0.9261136
-0.93811389
-0.95873823
-0.98530068
-1.015669
-1.0480828
-1.0808944
-1.1129383
-1.1432422
-1.1711399
-1.1960121
-1.2174498
-1.235158
-1.2489025
-1.2584648
-1.2642972
-1.2668037
-1.2574606
0.20239367
0.1941357
0.18774129
0.17863029
0.16724248
0.15376363
0.13811038
0.12025634
0.10012404
0.07758294
0.052469542
0.024589178
-0.0063047655
-0.040540369
-0.078514495
-0.12067541
-0.16753847
-0.21973425
-0.27802873
-0.34331943
-0.41666255
-0.49930852
-0.59255308
-0.69808973
-0.81762308
-0.95280903
-1.1051824
-1.2759202
-1.4655477
-1.6727856
-1.8963231
-2.1237463
-2.3746178
-2.6118909
-2.7590944
-2.9404493
-3.0072897
-3.0766518
-3.0905966
-2.8622168
-2.2128555
-0.79922395
0.7433077
2.0365641
2.8958116
3.4804901
3.8469078
4.12005
4.3847147
4.6990242
5.0843103
5.4890173
5.870976
6.2989706
6.341606
3.6783184
-3.8073796
-14.839209
-24.18247
-29.608779
-30.315487
-27.611001
-22.226434
-15.538278
-11.377979
-9.1608734
-7.3821555
-5.9312063
-4.8329805
-3.9453551
-3.2151813
-2.6208727
-2.1438281
-1.7656739
-1.4711405
-1.2470458
-1.0816489
-0.96460433
-0.88723164
-0.84190729
-0.82215969
-0.82238747
-0.8378532
-0.86456474
-0.89915346
-0.93876568
-0.98104914
-1.024179
-1.0666158
-1.1071787
-1.1449114
-1.1791691
-1.2093964
-1.2352504
-1.2565186
-1.2729619
-1.2843623
-1.2914957
-1.2947017
-1.2845367
0.23182382
0.22284958
0.21613668
0.20676054
0.19519763
0.18168027
0.16611499
0.14847345
0.12866761
0.1065624
0.081997931
0.054760396
0.024562032
-0.0089555771
-0.046205515
-0.087671117
-0.13395098
-0.18575233
-0.24392115
-0.30950439
-0.38377915
-0.46826596
-0.56470815
-0.67532745
-0.80251962
-0.94891198
-1.1171199
-1.3096518
-1.528657
-1.7753516
-2.047208
-2.3317594
-2.6587367
-2.9989127
-2.5315933
-1.4184249
-3.5784915
-3.9615667
-4.2948374
-4.3679891
-3.5990239
-1.6307349
0.63670835
2.5149517
3.4286483
3.9211561
4.0760348
4.1349598
4.2015683
4.3459588
4.5682202
4.6943223
4.6031448
4.7051558
4.4920997
0.17763738
-10.097193
-24.349114
-34.911346
-40.777776
-42.359738
-38.030103
-29.958931
-20.525084
-13.591915
-10.063068
-7.9563772
-6.0941061
-4.8804179
-3.89086
-3.0845417
-2.4393901
-1.9327398
-1.5408289
-1.2444606
-1.0269457
-0.87388363
-0.77296415
-0.71397687
-0.68822644
-0.68831483
-0.70807867
-0.74233425
-0.78677506
-0.83781746
-0.89260578
-0.94839594
-1.003604
-1.0567528
-1.1066566
-1.1524201
-1.1934382
-1.2293239
-1.2597856
-1.2847091
-1.3038983
-1.3171647
-1.3255369
-1.3294029
-1.3182127
0.26281191
0.25297545
0.24593415
0.23626582
0.22451129
0.21099981
0.19560434
0.17827439
0.15894745
0.13750507
0.11376727
0.087478175
0.058332678
0.025974353
-0.010024746
-0.050182712
-0.095143845
-0.14566245
-0.20264562
-0.26726524
-0.34097786
-0.42555012
-0.52302619
-0.63652631
-0.7689672
-0.92408995
-1.1059224
-1.318712
-1.5668259
-1.8582968
-2.1766207
-2.5294751
-2.9396056
-1.5617409
-0.17621129
-0.51191788
-3.0680091
-4.903427
-5.9082751
-7.1316097
-6.5377598
-3.9889198
-0.15266498
3.0189668
4.0216267
4.2105348
4.0133263
3.7578037
3.5373156
3.4050098
3.3166452
2.9252429
2.0044152
1.6970228
2.1312382
-4.1540198
-16.984383
-31.374076
-42.076989
-47.974476
-49.966654
-45.561419
-36.166215
-24.338236
-15.382047
-10.822685
-8.1498204
-6.1503704
-4.7940583
-3.6969212
-2.8371525
-2.1541139
-1.6325908
-1.2404882
-0.95474171
-0.75494366
-0.62396531
-0.54774002
-0.51457977
-0.51480377
-0.54021514
-0.58414941
-0.64108948
-0.70645152
-0.77649796
-0.84821754
-0.91951139
-0.98823178
-1.0530548
-1.1129956
-1.1673083
-1.215499
-1.2572202
-1.2923718
-1.3209845
-1.3428646
-1.3579417
-1.3674517
-1.371867
-1.3594161
0.29516928
0.28431338
0.27686835
0.26687939
0.2549456
0.24147438
0.22631395
0.20942426
0.19076888
0.17021754
0.14756689
0.12255435
0.094869198
0.064143632
0.029945137
-0.0082573311
-0.051102647
-0.099362911
-0.15399662
-0.2162274
-0.28761312
-0.37015979
-0.46642097
-0.5794754
-0.71365918
-0.87384778
-1.0658018
-1.2960454
-1.5724273
-1.9122246
-2.2664822
-2.6512011
-3.0395986
-1.0222602
-0.83126195
-1.1180815
-2.405587
-6.1353838
-8.1603128
-11.936468
-12.856213
-8.9533405
-1.7907118
3.4981385
4.3497726
3.943528
3.3174019
2.726992
2.1738772
1.7058729
1.2259052
0.20240516
-1.7959116
-2.9279105
2.83679
-8.3357939
-21.494198
-35.303913
-45.47204
-51.809292
-53.624663
-49.426665
-38.996279
-26.247545
-16.331619
-11.027605
-7.72881
-5.9229023
-4.4568163
-3.3667542
-2.4475461
-1.7448124
-1.2293463
-0.85508668
-0.59574246
-0.42717724
-0.32988757
-0.28826239
-0.28937475
-0.32267104
-0.37943039
-0.45252988
-0.53621552
-0.62585262
-0.71767609
-0.80870103
-0.89681892
-0.98018496
-1.0575926
-1.1282063
-1.1914338
-1.2469905
-1.2946795
-1.3345395
-1.3667176
-1.3911475
-1.4078407
-1.4183982
-1.4231998
-1.4092858
0.32864525
0.31655822
0.3086372
0.2983132
0.28618802
0.27277693
0.25793995
0.24164705
0.2238612
0.20442673
0.18313397
0.15974405
0.13394526
0.10534569
0.073510359
0.037946922
-0.0019586493
-0.046969932
-0.098026138
-0.15631103
-0.2233919
-0.30138163
-0.39309166
-0.50216775
-0.63352247
-0.79350321
-0.99019647
-1.2326411
-1.5367092
-1.919567
-2.3263429
-2.7252672
-3.1326626
-3.2331147
-2.0367986
-1.7311357
-2.7284511
-7.5086077
-10.729714
-15.995569
-18.613618
-13.960251
0.32767776
11.459808
4.6428018
2.1462469
1.3445481
0.69680164
-0.085044128
-0.84319015
-1.6974799
-3.3006048
-6.3728364
-8.7405856
-3.4293731
-11.022944
-23.573898
-35.942391
-45.086419
-51.180214
-52.784113
-48.388031
-37.911234
-25.607062
-15.628292
-10.697005
-7.5074132
-5.1336457
-3.7064572
-2.8601036
-1.9009968
-1.1991899
-0.71401406
-0.37829321
-0.16354568
-0.041632824
0.0088555375
0.0048843198
-0.039746893
-0.1138459
-0.20834137
-0.31590256
-0.43063833
-0.54798445
-0.66428556
-0.77656444
-0.8830247
-0.98211399
-1.0728351
-1.1545133
-1.2268918
-1.2898573
-1.3434234
-1.3878081
-1.423329
-1.4500667
-1.4681431
-1.4795426
-1.4844673
-1.4688255
0.36288135
0.34936879
0.34090289
0.33019362
0.31784338
0.3045349
0.29013429
0.27458011
0.25783865
0.23977
0.22015977
0.19874891
0.17523374
0.14924739
0.120365
0.088124165
0.051957947
0.011164922
-0.035084761
-0.087833776
-0.14854976
-0.21928694
-0.30290572
-0.40334754
-0.52616338
-0.67880462
-0.87187713
-1.1175012
-1.4444914
-1.8704759
-2.3377578
-2.7853264
-3.2865829
-3.7333572
-3.7161762
-2.0458183
-3.8395871
-8.7431144
-12.199407
-17.446251
-19.944966
-16.375799
-7.6411253
4.984962
3.3308768
-3.1293759
-2.5151418
-2.5898567
-3.3084007
-4.1557182
-5.2499666
-7.1249708
-10.941127
-14.893504
-11.854355
-10.813199
-24.268612
-33.817762
-41.419463
-46.294342
-47.435349
-43.138868
-33.219944
-22.263406
-13.978687
-8.9148674
-5.8509623
-4.0698291
-2.4778628
-2.1868323
-1.2058711
-0.51332341
-0.081103529
0.19310254
0.34310536
0.40151635
0.39100585
0.32954795
0.23152612
0.1084491
-0.030490913
-0.17790369
-0.32803767
-0.47642578
-0.61950145
-0.75504988
-0.88122231
-0.99690702
-1.1014425
-1.1944662
-1.2759758
-1.3461585
-1.4053476
-1.4539114
-1.4924156
-1.5210243
-1.5401078
-1.5519973
-1.5567698
-1.5391812
0.39749613
0.38234168
0.37321224
0.36205444
0.34946923
0.33630854
0.32243251
0.3077537
0.29225674
0.27581464
0.25821155
0.23916637
0.21836443
0.19547291
0.17010816
0.14181817
0.11012043
0.074456606
0.034158769
-0.01158419
-0.063943256
-0.12467709
-0.19636874
-0.28285238
-0.3899057
-0.52650269
-0.70460628
-0.94090595
-1.2766876
-1.744951
-2.2931545
-2.8704411
-3.525432
-4.1027659
-4.5266902
-5.4006978
-6.8558851
-8.7588968
-11.781644
-15.876687
-18.137503
-15.436475
-7.583236
-2.7055244
2.1707761
-10.543785
-8.0667955
-6.9891248
-7.2047421
-7.868646
-9.0420974
-10.944405
-14.910388
-19.507201
-18.028157
-14.097884
-22.002143
-30.40942
-35.857142
-38.744228
-38.484767
-33.515869
-25.698587
-17.139683
-10.807032
-6.8909845
-4.5874583
-2.5638998
-1.2689154
-1.0417768
-0.2498627
0.33767655
0.67679803
0.860032
0.92300114
0.89977052
0.81329418
0.68194811
0.52024671
0.3397207
0.14949854
-0.043218738
-0.2329551
-0.41566501
-0.58803789
-0.74835718
-0.89524199
-1.0280626
-1.1465619
-1.2508177
-1.341181
-1.4181914
-1.4824313
-1.5345961
-1.5754994
-1.6054325
-1.6250238
-1.637013
-1.6412227
-1.6213023
0.43203302
0.41494982
0.4050173
0.39336293
0.38052495
0.36753171
0.35425502
0.34060753
0.32658974
0.31206157
0.29679146
0.28050957
0.26290275
0.24361822
0.2222858
0.19850987
0.17190773
0.14210885
0.10867969
0.07113671
0.028846455
-0.01933337
-0.075368283
-0.1424688
-0.22610875
-0.33535951
-0.48433665
-0.6941654
-1.0125892
-1.4969227
-2.1313301
-2.8607772
-3.6788423
-4.464017
-5.0982497
-5.8569454
-6.9496365
-8.3793609
-10.639655
-13.554033
-15.930908
-14.435011
-8.7250114
-4.4016274
0.10765807
-13.935864
-12.335838
-11.065492
-10.973579
-11.429296
-12.509423
-14.270861
-17.416121
-22.394315
-23.520898
-17.942478
-21.952343
-27.402013
-30.177772
-31.230742
-29.676319
-24.964218
-18.409084
-12.005366
-7.459886
-4.6582933
-2.8522274
-0.80772858
-0.29574771
0.22468673
0.94405631
1.3562808
1.5583504
1.6188841
1.5716783
1.4481011
1.2703806
1.0564735
0.82063225
0.5741187
0.3257929
0.08239086
-0.15105107
-0.37093403
-0.57465071
-0.76101404
-0.9293268
-1.0794415
-1.2117034
-1.3267507
-1.4253203
-1.5083736
-1.5768336
-1.631769
-1.6742451
-1.7047847
-1.7241786
-1.7356573
-1.7388368
-1.7161968
0.46590756
0.44658412
0.43569478
0.423472
0.41031547
0.39749845
0.38492495
0.37248279
0.360176
0.34787448
0.33533766
0.32227642
0.30835622
0.29319219
0.27639394
0.25762855
0.23661158
0.21315337
0.18713747
0.1585326
0.1274399
0.093692352
0.056503728
0.013789807
-0.038827155
-0.10972342
-0.21364127
-0.37426511
-0.64215814
-1.0901311
-1.7561113
-2.6061324
-3.5991108
-4.6310394
-5.5718109
-6.5408763
-7.6058167
-8.5201043
-9.8219644
-12.748677
-15.618004
-15.30232
-11.814498
-6.2661133
-11.032176
-16.474886
-15.068587
-14.190017
-14.084002
-14.444326
-15.345538
-16.89017
-19.431577
-23.368368
-25.899385
-26.518998
-21.734285
-24.195629
-26.589399
-26.110416
-23.659263
-19.091138
-13.424981
-8.296225
-4.7357049
-2.5107562
-0.91803902
0.090106109
1.0107439
1.7900727
2.2926642
2.5087107
2.5460489
2.459052
2.2806611
2.0387953
1.7547299
1.4456671
1.1252553
0.80434447
0.49120564
0.1919714
-0.088940297
-0.34842386
-0.58515654
-0.79837642
-0.98824005
-1.1553502
-1.3007333
-1.4256479
-1.5314188
-1.6193678
-1.6908751
-1.7474183
-1.7903744
-1.8204591
-1.8387703
-1.8490887
-1.8505831
-1.8248231
0.49842681
0.476527
0.46448125
0.45157264
0.43802124
0.42538666
0.41361248
0.40254851
0.39221165
0.3824974
0.37315527
0.36384266
0.35415281
0.34364327
0.3318872
0.31855214
0.30341597
0.2864688
0.26796376
0.2484099
0.22873814
0.2101164
0.19343719
0.17868715
0.1638225
0.14250467
0.10072694
0.013405126
-0.17237831
-0.54663812
-1.1980521
-2.11949
-3.252134
-4.5180086
-5.8831175
-7.3829848
-8.797959
-9.6685649
-11.106599
-14.204522
-18.020919
-21.364441
-20.599432
-16.24365
-16.167122
-17.928129
-17.004928
-16.565226
-16.529952
-16.846332
-17.553138
-18.77097
-20.628729
-23.494434
-26.21284
-27.697777
-23.007576
-22.038478
-26.291086
-23.943443
-21.069265
-16.51239
-11.195872
-6.3791197
-2.8367199
-0.562995
0.95560472
2.1259683
2.9749534
3.5231018
3.7657565
3.7689315
3.6210758
3.3670215
3.0387198
2.6618307
2.2568068
1.8401712
1.4249553
1.021381
0.63702389
0.27722652
-0.054450408
-0.35578631
-0.62637123
-0.86655978
-1.0775051
-1.2607148
-1.4180153
-1.5513993
-1.6627599
-1.7540058
-1.8269827
-1.8835639
-1.9255482
-1.9538992
-1.9699813
-1.9782286
-1.9773219
-1.9480351
0.52882014
0.50389576
0.4904295
0.47670502
0.46267232
0.45019914
0.4392902
0.42978467
0.4217325
0.41504281
0.40941823
0.4044365
0.39960099
0.39437145
0.38821451
0.38069142
0.37158381
0.36102034
0.34958208
0.33831211
0.32903497
0.32445583
0.32774337
0.34193166
0.36857266
0.4052496
0.44052732
0.45001339
0.37159651
0.089286806
-0.55541247
-1.5324811
-2.753193
-4.2419929
-6.1101207
-8.4151282
-10.570664
-12.722254
-15.304119
-19.164012
-23.029085
-9.1834092
-5.5496918
-24.003357
-21.004555
-20.625915
-19.281394
-18.737702
-18.607744
-18.813739
-19.327414
-20.255396
-21.571483
-23.48943
-26.0801
-28.283808
-29.86775
-22.082006
-26.127133
-24.631796
-21.61473
-16.52263
-10.702567
-5.3290948
-1.2069572
1.5735037
3.3700247
4.4980058
5.1280418
5.3846999
5.3468335
5.1208845
4.7686137
4.3292362
3.8332543
3.3052151
2.7650314
2.2287232
1.7087664
1.2146216
0.75309044
0.32853018
-0.056618532
-0.40117833
-0.70596989
-0.97257593
-1.203355
-1.4010181
-1.5683067
-1.7080902
-1.8229264
-1.9153263
-1.9876561
-2.0423295
-2.0814666
-2.1063426
-2.1188562
-2.1239112
-2.1197386
-2.0863492
0.55620888
0.52768099
0.51247023
0.4977511
0.48307225
0.4706762
0.46068979
0.45295483
0.44755026
0.44438554
0.44310404
0.44317846
0.44398155
0.44480037
0.44489608
0.44361218
0.44061257
0.43606122
0.43072206
0.42592903
0.42438796
0.43050489
0.4500904
0.49016012
0.55752817
0.6566473