/*--------------------------------*- C++ -*----------------------------------*\
  =========                 |
  \\      /  F ield         | OpenFOAM: The Open Source CFD Toolbox
   \\    /   O peration     | Website:  https://openfoam.org
    \\  /    A nd           | Version:  9
     \\/     M anipulation  |
\*---------------------------------------------------------------------------*/
FoamFile
{
    format      ascii;
    class       volVectorField;
    location    "0.56";
    object      U;
}
// * * * * * * * * * * * * * * * * * * * * * * * * * * * * * * * * * * * * * //

dimensions      [0 1 -1 0 0 0 0];

internalField   nonuniform List<vector> 
10000
(
(0.0073565797 -0.0037642507 0)
(0.012647909 -0.0036924804 0)
(0.015290739 -0.003632504 0)
(0.018033089 -0.0035313819 0)
(0.021114544 -0.0034262963 0)
(0.023953743 -0.0032925614 0)
(0.026673633 -0.0031478682 0)
(0.029291202 -0.0029879468 0)
(0.031781356 -0.0028174149 0)
(0.034125865 -0.0026364996 0)
(0.036319936 -0.0024467735 0)
(0.038350673 -0.0022527923 0)
(0.040216622 -0.0020497148 0)
(0.041914147 -0.001852717 0)
(0.043425374 -0.0016573274 0)
(0.044745084 -0.0014652359 0)
(0.045869581 -0.0012789331 0)
(0.046789478 -0.0010994442 0)
(0.04749748 -0.00092537685 0)
(0.047989914 -0.00075615738 0)
(0.048249734 -0.00059234813 0)
(0.048259952 -0.00042067903 0)
(0.048055223 -0.00022342516 0)
(0.047681771 -1.8917295e-05 0)
(0.047146893 0.00016614975 0)
(0.046420349 0.00032742486 0)
(0.045469872 0.00047647527 0)
(0.044309363 0.00063131297 0)
(0.042954092 0.00079027039 0)
(0.041411647 0.00096096887 0)
(0.039703202 0.0011441314 0)
(0.037848169 0.0013406985 0)
(0.035872921 0.0015428007 0)
(0.033794584 0.0017578206 0)
(0.031651635 0.0019914598 0)
(0.029479955 0.0022440499 0)
(0.027297757 0.0025381904 0)
(0.025183143 0.0029106054 0)
(0.023265597 0.003388739 0)
(0.021713057 0.0039627383 0)
(0.020647872 0.0045891581 0)
(0.020133168 0.0052458341 0)
(0.020247441 0.0058903993 0)
(0.02109891 0.0064705049 0)
(0.022806314 0.0069114515 0)
(0.025474265 0.0071224048 0)
(0.029200065 0.0070088641 0)
(0.034071351 0.0064854753 0)
(0.040080588 0.0054070635 0)
(0.047005045 0.0038478924 0)
(0.054813313 0.002104663 0)
(0.063467459 0.00018463661 0)
(0.072732167 -0.0016874282 0)
(0.082810468 -0.0032642584 0)
(0.093672688 -0.0045348972 0)
(0.10482205 -0.005399342 0)
(0.11575632 -0.0057817743 0)
(0.12592514 -0.0056248367 0)
(0.13477426 -0.0049351898 0)
(0.14178951 -0.0037730635 0)
(0.14656465 -0.0021985288 0)
(0.14872674 -0.00031969906 0)
(0.1483651 0.0018788512 0)
(0.14569497 0.0040656991 0)
(0.14076777 0.0061647209 0)
(0.13386566 0.008095593 0)
(0.12532437 0.0097950693 0)
(0.11550881 0.011209126 0)
(0.10477369 0.012321997 0)
(0.093458483 0.013133028 0)
(0.08187019 0.013654967 0)
(0.070258407 0.013911205 0)
(0.058833795 0.013935378 0)
(0.047784372 0.013767817 0)
(0.037272093 0.013431475 0)
(0.02740136 0.012936575 0)
(0.018217715 0.012311396 0)
(0.0097549438 0.011581827 0)
(0.0020724996 0.010778219 0)
(-0.0046895484 0.0099606949 0)
(-0.010624948 0.0090682043 0)
(-0.015829628 0.0081440254 0)
(-0.020255519 0.0072182543 0)
(-0.023918045 0.0063041154 0)
(-0.026808111 0.0053982889 0)
(-0.028962581 0.0044925809 0)
(-0.030413469 0.0035892936 0)
(-0.031211794 0.0026523953 0)
(-0.031480147 0.0016748445 0)
(-0.031364246 0.00070291968 0)
(-0.030881766 -0.00014918183 0)
(-0.029915539 -0.00085204262 0)
(-0.028429822 -0.0014614649 0)
(-0.026498792 -0.0020033112 0)
(-0.024200035 -0.0024750866 0)
(-0.021541515 -0.0028877004 0)
(-0.01847591 -0.0032212622 0)
(-0.015618741 -0.0034984551 0)
(-0.012316087 -0.0037102527 0)
(-0.0069632223 -0.0038988912 0)
(0.0074256888 -0.0083423044 0)
(0.012772536 -0.0081770919 0)
(0.01544872 -0.0080435423 0)
(0.018231178 -0.0078377192 0)
(0.021342388 -0.0076178329 0)
(0.024217572 -0.0073558831 0)
(0.026961553 -0.0070655189 0)
(0.02960208 -0.0067441049 0)
(0.032111465 -0.0063976073 0)
(0.034474396 -0.006030903 0)
(0.036681642 -0.0056399741 0)
(0.038727075 -0.0052381241 0)
(0.040598901 -0.0048097458 0)
(0.042293951 -0.0043795173 0)
(0.043806608 -0.0039360853 0)
(0.045125867 -0.0034879567 0)
(0.0462481 -0.0030323042 0)
(0.047166134 -0.0025711433 0)
(0.047874051 -0.0021076656 0)
(0.048367384 -0.0016366489 0)
(0.04864103 -0.0011549225 0)
(0.048694162 -0.00065026604 0)
(0.048528802 -0.00011006738 0)
(0.048146884 0.0004330918 0)
(0.047568331 0.00096359253 0)
(0.046800736 0.0014623579 0)
(0.045833198 0.0019356448 0)
(0.044665943 0.0023938695 0)
(0.043305505 0.0028333875 0)
(0.04176794 0.00325815 0)
(0.040073932 0.003667918 0)
(0.03823478 0.0040525239 0)
(0.036279847 0.0044137953 0)
(0.034235623 0.0047484286 0)
(0.032130233 0.0050602486 0)
(0.030009796 0.0053442772 0)
(0.027918514 0.0056023296 0)
(0.025930817 0.0058591776 0)
(0.024136243 0.0061292028 0)
(0.02263692 0.0064010303 0)
(0.021536503 0.0066066284 0)
(0.020908809 0.0066796258 0)
(0.020823006 0.0065696292 0)
(0.021375692 0.0062149666 0)
(0.022665539 0.0055216354 0)
(0.024794892 0.0043944129 0)
(0.027868039 0.0027359341 0)
(0.031914644 0.00043848039 0)
(0.037075522 -0.0024846817 0)
(0.0435507 -0.0060070239 0)
(0.051217798 -0.0097607221 0)
(0.059944871 -0.01357954 0)
(0.069727033 -0.017070003 0)
(0.080535747 -0.019793114 0)
(0.09217966 -0.021644784 0)
(0.10422721 -0.022419057 0)
(0.11614902 -0.021964751 0)
(0.12732307 -0.020215701 0)
(0.13710238 -0.017209005 0)
(0.14492968 -0.013085311 0)
(0.15034029 -0.008082655 0)
(0.15305293 -0.0025152227 0)
(0.15293238 0.00339928 0)
(0.15008992 0.0091369613 0)
(0.14483529 0.014438883 0)
(0.13747979 0.019112671 0)
(0.12839199 0.023031309 0)
(0.11798189 0.026144443 0)
(0.1066481 0.028441508 0)
(0.094745443 0.029962026 0)
(0.082601113 0.030778704 0)
(0.070487555 0.0309671 0)
(0.058632346 0.030619776 0)
(0.047214455 0.029834886 0)
(0.036372167 0.028697899 0)
(0.026219151 0.027262268 0)
(0.0168144 0.025597778 0)
(0.0081901701 0.023738724 0)
(0.0004392574 0.021788812 0)
(-0.0063908366 0.019816875 0)
(-0.012411378 0.017751606 0)
(-0.01763117 0.015686741 0)
(-0.022035325 0.013636506 0)
(-0.025671027 0.011627298 0)
(-0.028547794 0.0096635348 0)
(-0.030696715 0.0077371447 0)
(-0.032178904 0.005840998 0)
(-0.033055993 0.0039522141 0)
(-0.033366641 0.0020786133 0)
(-0.03313306 0.00029158918 0)
(-0.03238464 -0.0013178722 0)
(-0.031179271 -0.0027159667 0)
(-0.029537205 -0.0039496171 0)
(-0.027474681 -0.005040702 0)
(-0.025052149 -0.0059981718 0)
(-0.02226031 -0.0068287081 0)
(-0.019067329 -0.0075271949 0)
(-0.016096816 -0.0081115521 0)
(-0.012700639 -0.0085678253 0)
(-0.0071589609 -0.0089811957 0)
(0.0075308771 -0.010975304 0)
(0.012932278 -0.010758629 0)
(0.015644361 -0.010556865 0)
(0.018476195 -0.010281084 0)
(0.021620525 -0.0099694398 0)
(0.024536657 -0.009603459 0)
(0.027319802 -0.0091998278 0)
(0.02999605 -0.0087568441 0)
(0.032534325 -0.0082729024 0)
(0.034925992 -0.007758712 0)
(0.037157003 -0.0072149028 0)
(0.039227121 -0.0066445622 0)
(0.041121367 -0.0060494059 0)
(0.042834079 -0.0054385009 0)
(0.044361753 -0.0048104136 0)
(0.045691484 -0.0041724881 0)
(0.046825247 -0.0035211046 0)
(0.047748445 -0.0028618367 0)
(0.048461558 -0.0021975253 0)
(0.048966691 -0.0015319513 0)
(0.049254271 -0.00086307383 0)
(0.049317948 -0.00019492281 0)
(0.049147035 0.00047375255 0)
(0.048759568 0.0011466148 0)
(0.048177382 0.0018187965 0)
(0.047393403 0.0024742678 0)
(0.046405511 0.0031109588 0)
(0.045218855 0.0037263223 0)
(0.043843948 0.0043215961 0)
(0.042292083 0.0048939793 0)
(0.04056883 0.0054424277 0)
(0.03869389 0.0059539268 0)
(0.036701596 0.0064178001 0)
(0.034613406 0.0068380833 0)
(0.032469142 0.0071843245 0)
(0.030305298 0.007452017 0)
(0.02817151 0.007629958 0)
(0.026155968 0.0077194059 0)
(0.024347155 0.0077142356 0)
(0.022821317 0.0076011613 0)
(0.021641819 0.0073543508 0)
(0.02088028 0.0069278486 0)
(0.020604888 0.0062647121 0)
(0.020873212 0.0052915106 0)
(0.021764897 0.0039131038 0)
(0.023380863 0.0020056158 0)
(0.025816601 -0.00053478447 0)
(0.029278923 -0.0037323862 0)
(0.033907122 -0.0075334851 0)
(0.039839338 -0.011896146 0)
(0.047195074 -0.016692792 0)
(0.055965375 -0.02153697 0)
(0.066190261 -0.026044308 0)
(0.077786009 -0.029743626 0)
(0.090500169 -0.032270938 0)
(0.10388163 -0.033237086 0)
(0.11728999 -0.032384453 0)
(0.12997637 -0.029552767 0)
(0.14117943 -0.024820488 0)
(0.15020304 -0.018432551 0)
(0.15646915 -0.010846151 0)
(0.15960984 -0.0025875673 0)
(0.15948913 0.0057938841 0)
(0.15629825 0.013885293 0)
(0.15041754 0.02126827 0)
(0.14223914 0.02765799 0)
(0.13222776 0.032890173 0)
(0.12086164 0.036915194 0)
(0.10858523 0.039754864 0)
(0.095819969 0.041491495 0)
(0.082913817 0.0422432 0)
(0.07014092 0.042147705 0)
(0.057740274 0.041336698 0)
(0.045894203 0.039936515 0)
(0.034717079 0.038077217 0)
(0.024298058 0.035873255 0)
(0.014668143 0.033417913 0)
(0.0058955251 0.030730089 0)
(-0.0019169262 0.027965937 0)
(-0.0088136615 0.02516279 0)
(-0.014858463 0.022309944 0)
(-0.020059718 0.019466694 0)
(-0.024436505 0.016663032 0)
(-0.028016769 0.013921051 0)
(-0.030827033 0.011262327 0)
(-0.032913726 0.0086900407 0)
(-0.034321811 0.006213387 0)
(-0.035087378 0.003856694 0)
(-0.035241199 0.0016347706 0)
(-0.034848066 -0.0004426403 0)
(-0.033965184 -0.0023836551 0)
(-0.032615074 -0.0041702673 0)
(-0.030814646 -0.0057795187 0)
(-0.028601504 -0.0072181792 0)
(-0.026035289 -0.0084911549 0)
(-0.023107229 -0.0095956163 0)
(-0.019792846 -0.010545081 0)
(-0.01668725 -0.011330451 0)
(-0.013179606 -0.011935742 0)
(-0.0074174077 -0.012500174 0)
(0.0076578345 -0.014324612 0)
(0.013149482 -0.01404994 0)
(0.015914605 -0.013786014 0)
(0.018803597 -0.01343207 0)
(0.022004073 -0.013024056 0)
(0.02497312 -0.012548259 0)
(0.027794849 -0.01202369 0)
(0.030515145 -0.01144555 0)
(0.033096143 -0.010823197 0)
(0.035520362 -0.010156449 0)
(0.037784822 -0.0094555363 0)
(0.039883855 -0.0087165893 0)
(0.04179959 -0.0079521433 0)
(0.043531941 -0.0071626654 0)
(0.045076842 -0.0063545613 0)
(0.046425259 -0.0055226596 0)
(0.047574827 -0.0046770114 0)
(0.048512689 -0.0038221023 0)
(0.049234551 -0.0029511542 0)
(0.049740393 -0.0020776169 0)
(0.050024829 -0.0012013496 0)
(0.05008608 -0.00031938253 0)
(0.049932602 0.00055745862 0)
(0.049560378 0.0014474136 0)
(0.048968904 0.002332974 0)
(0.048167905 0.0032021496 0)
(0.047159198 0.0040479453 0)
(0.045945491 0.0048692206 0)
(0.044532831 0.0056603714 0)
(0.042937365 0.0064153062 0)
(0.041173413 0.0071234753 0)
(0.039244019 0.0077766201 0)
(0.037193577 0.0083590386 0)
(0.035028077 0.0088614653 0)
(0.032767279 0.0092505035 0)
(0.030474365 0.0095035595 0)
(0.028197915 0.0096028877 0)
(0.026018302 0.0095210213 0)
(0.024018465 0.0092517088 0)
(0.022286976 0.008787809 0)
(0.020900046 0.0081036017 0)
(0.019900467 0.0071847043 0)
(0.019324786 0.0059851848 0)
(0.019221008 0.0044191451 0)
(0.019628646 0.0023794951 0)
(0.020630896 -0.00026504365 0)
(0.022421121 -0.0036766785 0)
(0.025177259 -0.0079148183 0)
(0.029108844 -0.013038081 0)
(0.034500789 -0.01893662 0)
(0.041592817 -0.025399751 0)
(0.05052513 -0.032013094 0)
(0.061389495 -0.038263633 0)
(0.074133061 -0.043569244 0)
(0.088491751 -0.047269235 0)
(0.1039258 -0.048794503 0)
(0.11967804 -0.047652488 0)
(0.13478247 -0.043632192 0)
(0.14817498 -0.036794141 0)
(0.15888646 -0.027578417 0)
(0.16618053 -0.016632316 0)
(0.16969633 -0.0047662905 0)
(0.16941558 0.0071873344 0)
(0.16557587 0.018495982 0)
(0.15860761 0.028628016 0)
(0.14908871 0.037226829 0)
(0.1376301 0.044127283 0)
(0.12482465 0.04928943 0)
(0.11120006 0.052798591 0)
(0.097202643 0.054810101 0)
(0.083214625 0.055500398 0)
(0.069527958 0.055078862 0)
(0.056360048 0.053750389 0)
(0.043889007 0.051685838 0)
(0.032243631 0.049042191 0)
(0.021500664 0.045976258 0)
(0.0116215 0.042607716 0)
(0.0026988457 0.039011372 0)
(-0.0051534783 0.035357611 0)
(-0.012065524 0.031645842 0)
(-0.018117364 0.027926337 0)
(-0.023278822 0.02424573 0)
(-0.02757457 0.020642112 0)
(-0.031059325 0.017126072 0)
(-0.033760263 0.013741559 0)
(-0.03572242 0.01048538 0)
(-0.036985152 0.0073711615 0)
(-0.037605144 0.0044176313 0)
(-0.037638794 0.0016282939 0)
(-0.037127347 -0.001007446 0)
(-0.036089363 -0.0034688477 0)
(-0.034552264 -0.0057291577 0)
(-0.032563342 -0.00778963 0)
(-0.030166665 -0.0096402168 0)
(-0.027411951 -0.011277862 0)
(-0.024294637 -0.012714256 0)
(-0.020791374 -0.013949287 0)
(-0.017481503 -0.014964686 0)
(-0.013825645 -0.015739172 0)
(-0.0077656372 -0.016501993 0)
(0.0078304856 -0.017640583 0)
(0.013427339 -0.017297651 0)
(0.016254819 -0.016972428 0)
(0.019225478 -0.016530999 0)
(0.022489924 -0.016023294 0)
(0.025524797 -0.015446491 0)
(0.028410516 -0.014798492 0)
(0.031183833 -0.014087699 0)
(0.033811635 -0.013320668 0)
(0.036282143 -0.012500487 0)
(0.03858706 -0.011632213 0)
(0.040722499 -0.010723104 0)
(0.04267025 -0.0097808507 0)
(0.044429627 -0.0088028055 0)
(0.046003295 -0.007795597 0)
(0.047375033 -0.0067617759 0)
(0.048537255 -0.005712302 0)
(0.049491024 -0.0046423874 0)
(0.05022798 -0.0035616833 0)
(0.050744614 -0.002463187 0)
(0.051046193 -0.0013541369 0)
(0.051115213 -0.00023579712 0)
(0.050955997 0.0008824798 0)
(0.050579409 0.0019968186 0)
(0.049977007 0.0031015057 0)
(0.049152075 0.0041892468 0)
(0.048113263 0.0052479887 0)
(0.046867885 0.0062723694 0)
(0.045423732 0.0072592958 0)
(0.043790645 0.0082030776 0)
(0.041972601 0.0090963905 0)
(0.03998232 0.0099124314 0)
(0.037850692 0.010650907 0)
(0.035581715 0.011270446 0)
(0.033201329 0.011748952 0)
(0.030761105 0.012047863 0)
(0.028299249 0.012130802 0)
(0.025904772 0.011955033 0)
(0.023687683 0.011502463 0)
(0.021711744 0.010774711 0)
(0.020036751 0.0097676872 0)
(0.018718271 0.0084773909 0)
(0.017760268 0.006872169 0)
(0.017165526 0.0048632988 0)
(0.016971036 0.0023007722 0)
(0.017224272 -0.00099196958 0)
(0.018088559 -0.0051881029 0)
(0.019872263 -0.010503979 0)
(0.022872001 -0.016967599 0)
(0.027492628 -0.024553042 0)
(0.034159631 -0.032967432 0)
(0.043173932 -0.041758324 0)
(0.054742971 -0.050270557 0)
(0.068918606 -0.057684893 0)
(0.085435581 -0.063023403 0)
(0.10366293 -0.065444393 0)
(0.12260342 -0.064158264 0)
(0.1409461 -0.058859091 0)
(0.15730548 -0.049598528 0)
(0.17040473 -0.036989604 0)
(0.17928941 -0.022033999 0)
(0.1834124 -0.0059145253 0)
(0.18270566 0.010121607 0)
(0.17766893 0.025007259 0)
(0.16907273 0.038074801 0)
(0.15767229 0.048920075 0)
(0.1442452 0.057394604 0)
(0.12951264 0.063535012 0)
(0.11411098 0.06750678 0)
(0.09854281 0.069550737 0)
(0.083204484 0.06995857 0)
(0.068403749 0.069009076 0)
(0.054347566 0.066970531 0)
(0.041174764 0.064084842 0)
(0.028984476 0.060552689 0)
(0.017830833 0.056542179 0)
(0.0076643999 0.052172333 0)
(-0.0013897521 0.047619235 0)
(-0.0093121366 0.043003877 0)
(-0.016271812 0.038333024 0)
(-0.022282258 0.033675009 0)
(-0.027363022 0.029112385 0)
(-0.031570742 0.024645536 0)
(-0.034926665 0.020320974 0)
(-0.037474912 0.01615411 0)
(-0.039288405 0.012160186 0)
(-0.040390253 0.0083354797 0)
(-0.04082838 0.004715891 0)
(-0.040661786 0.0012990994 0)
(-0.039937061 -0.0018894549 0)
(-0.038676924 -0.0048386128 0)
(-0.036924037 -0.0075494326 0)
(-0.034713375 -0.010026909 0)
(-0.032079498 -0.012254617 0)
(-0.029100762 -0.014233877 0)
(-0.025765279 -0.015971151 0)
(-0.022038037 -0.017460104 0)
(-0.018477932 -0.018713659 0)
(-0.014661968 -0.019655505 0)
(-0.0082353045 -0.020595766 0)
(0.0080406417 -0.021153602 0)
(0.013773656 -0.020735173 0)
(0.016683181 -0.020341683 0)
(0.019748435 -0.019802091 0)
(0.023082775 -0.019192482 0)
(0.026196 -0.018495073 0)
(0.029152446 -0.017714625 0)
(0.031991808 -0.016863092 0)
(0.034684077 -0.015938627 0)
(0.037211174 -0.014954966 0)
(0.039565972 -0.013915601 0)
(0.041740934 -0.012825334 0)
(0.043728293 -0.011694195 0)
(0.045528791 -0.010519347 0)
(0.04713274 -0.0093111899 0)
(0.048527166 -0.0080798164 0)
(0.049716597 -0.0068190022 0)
(0.050689523 -0.0055304846 0)
(0.051444931 -0.0042323114 0)
(0.051983552 -0.0029097558 0)
(0.05229237 -0.0015750998 0)
(0.052367498 -0.00023922852 0)
(0.052214581 0.0011041668 0)
(0.051832098 0.0024485713 0)
(0.051215962 0.0037727673 0)
(0.050370568 0.0050809988 0)
(0.049299983 0.0063596027 0)
(0.048015624 0.0076001065 0)
(0.046524608 0.0087961253 0)
(0.04484107 0.0099378514 0)
(0.042958911 0.011013438 0)
(0.040887829 0.012013715 0)
(0.03865321 0.012919325 0)
(0.036241023 0.013685205 0)
(0.033677765 0.014283167 0)
(0.031013989 0.014647477 0)
(0.028289678 0.014713507 0)
(0.025595914 0.014422976 0)
(0.023054533 0.013756716 0)
(0.020772574 0.012712271 0)
(0.01882181 0.011350322 0)
(0.017216015 0.0097261816 0)
(0.015903163 0.007822294 0)
(0.014810973 0.0055379439 0)
(0.013897765 0.0026695473 0)
(0.013233243 -0.0010706902 0)
(0.012968819 -0.0059482745 0)
(0.013433148 -0.012278881 0)
(0.015069305 -0.02021715 0)
(0.018484813 -0.029732412 0)
(0.024349935 -0.040622408 0)
(0.033178417 -0.05229976 0)
(0.045403961 -0.063975438 0)
(0.06131497 -0.074456609 0)
(0.080657247 -0.082407206 0)
(0.10270855 -0.086444023 0)
(0.12616924 -0.085447279 0)
(0.14924429 -0.078714408 0)
(0.16994005 -0.06633952 0)
(0.18634062 -0.049199425 0)
(0.19713511 -0.0288988 0)
(0.20172429 -0.0073425386 0)
(0.20021067 0.013695838 0)
(0.19341101 0.032926413 0)
(0.18241683 0.049424758 0)
(0.16832385 0.062766747 0)
(0.15218353 0.072844849 0)
(0.1348982 0.07983323 0)
(0.11719756 0.08405917 0)
(0.099650022 0.085886589 0)
(0.082671599 0.085734385 0)
(0.066535383 0.083989837 0)
(0.051427376 0.0809889 0)
(0.037460814 0.077036118 0)
(0.024687241 0.072388495 0)
(0.013101327 0.067258957 0)
(0.0026731538 0.06173411 0)
(-0.0064906997 0.05615149 0)
(-0.014464005 0.050463062 0)
(-0.021423689 0.044783808 0)
(-0.027367784 0.039157115 0)
(-0.032337355 0.033669649 0)
(-0.036394843 0.028315589 0)
(-0.039576854 0.023176448 0)
(-0.04194614 0.01822345 0)
(-0.043564191 0.013490865 0)
(-0.044450196 0.0089767983 0)
(-0.044659169 0.0047156197 0)
(-0.044259759 0.00070253317 0)
(-0.043277317 -0.0030425017 0)
(-0.04175918 -0.0065174334 0)
(-0.039747883 -0.0097132207 0)
(-0.037273763 -0.012626522 0)
(-0.034377987 -0.015262913 0)
(-0.031131078 -0.01761059 0)
(-0.027517872 -0.019666269 0)
(-0.02353776 -0.021428804 0)
(-0.01968704 -0.022922215 0)
(-0.015646212 -0.024039022 0)
(-0.0087815174 -0.025156135 0)
(0.0082955527 -0.024700343 0)
(0.014185782 -0.024204479 0)
(0.017187951 -0.023744439 0)
(0.020366334 -0.023110446 0)
(0.02378636 -0.022394716 0)
(0.026995117 -0.021573058 0)
(0.03003557 -0.020659971 0)
(0.032953166 -0.019656595 0)
(0.035714784 -0.018575433 0)
(0.038302141 -0.017420655 0)
(0.040715975 -0.016209228 0)
(0.042946726 -0.014936563 0)
(0.044983865 -0.013612979 0)
(0.046824837 -0.012240473 0)
(0.048459751 -0.010834362 0)
(0.049890074 -0.0093941831 0)
(0.05111624 -0.007921183 0)
(0.052114177 -0.0064187955 0)
(0.052892481 -0.0048923737 0)
(0.053452844 -0.0033454034 0)
(0.053775404 -0.0017812386 0)
(0.053860667 -0.00020559952 0)
(0.053716724 0.0013736137 0)
(0.053326825 0.0029506907 0)
(0.052693127 0.004516157 0)
(0.051825999 0.0060565382 0)
(0.050721004 0.007562236 0)
(0.049391889 0.0090213687 0)
(0.047847155 0.010429426 0)
(0.046094389 0.011778064 0)
(0.044140884 0.013051733 0)
(0.041990241 0.014249362 0)
(0.039634842 0.01534427 0)
(0.037068779 0.016312849 0)
(0.034300953 0.017094567 0)
(0.031350649 0.017597796 0)
(0.028259 0.017714262 0)
(0.025149746 0.017359133 0)
(0.022184873 0.016473356 0)
(0.019513964 0.015090771 0)
(0.017257409 0.013340616 0)
(0.015396431 0.011366087 0)
(0.013779647 0.009227772 0)
(0.012217678 0.0068245173 0)
(0.010557561 0.0038846141 0)
(0.0087865181 -1.09554e-05 0)
(0.0070429099 -0.005353663 0)
(0.0057421076 -0.012549958 0)
(0.0055201753 -0.021961385 0)
(0.0071389591 -0.033663014 0)
(0.011595324 -0.047566886 0)
(0.019790565 -0.062946104 0)
(0.03253441 -0.078847506 0)
(0.050461404 -0.093599354 0)
(0.073417054 -0.10543764 0)
(0.10059907 -0.11211615 0)
(0.13030503 -0.11193805 0)
(0.16002413 -0.10362866 0)
(0.18678324 -0.087255513 0)
(0.20779231 -0.064184874 0)
(0.22108274 -0.036827191 0)
(0.22593671 -0.008110889 0)
(0.22288525 0.019287895 0)
(0.21330353 0.043631943 0)
(0.19882892 0.063908188 0)
(0.18102979 0.079765885 0)
(0.161277 0.091285068 0)
(0.14071463 0.09883052 0)
(0.12016621 0.10293132 0)
(0.10022538 0.10417846 0)
(0.081310599 0.10310189 0)
(0.063648886 0.1002138 0)
(0.047370411 0.095959541 0)
(0.032541576 0.090701061 0)
(0.019169717 0.084730855 0)
(0.0071371403 0.078289344 0)
(-0.0034811869 0.071509894 0)
(-0.012689252 0.064745452 0)
(-0.020709462 0.057910248 0)
(-0.027607084 0.05114738 0)
(-0.033422924 0.044494854 0)
(-0.038229806 0.038044096 0)
(-0.042084884 0.031800884 0)
(-0.045036512 0.02580199 0)
(-0.047175307 0.02005465 0)
(-0.048544606 0.01457271 0)
(-0.049168674 0.0093797213 0)
(-0.049103671 0.0044689327 0)
(-0.04842028 -0.00013585977 0)
(-0.04715483 -0.0044437892 0)
(-0.045342468 -0.0084372376 0)
(-0.043025528 -0.012114069 0)
(-0.040252945 -0.01547142 0)
(-0.03705436 -0.018504012 0)
(-0.033493669 -0.021203768 0)
(-0.029567714 -0.023574692 0)
(-0.025287251 -0.025620984 0)
(-0.021092747 -0.027343669 0)
(-0.016811356 -0.028623639 0)
(-0.009437658 -0.029954512 0)
(0.0085926445 -0.028382033 0)
(0.014670273 -0.02780174 0)
(0.017778474 -0.027265201 0)
(0.021090899 -0.026533129 0)
(0.024610526 -0.025696122 0)
(0.027924362 -0.024746665 0)
(0.031064014 -0.02369107 0)
(0.034070798 -0.022532404 0)
(0.036916213 -0.021286161 0)
(0.039576112 -0.019956274 0)
(0.042052358 -0.018555598 0)
(0.044343313 -0.01709254 0)
(0.04643549 -0.015573934 0)
(0.048323982 -0.014006097 0)
(0.050001992 -0.012393747 0)
(0.051469664 -0.010738937 0)
(0.052728541 -0.0090512912 0)
(0.053762774 -0.0073330682 0)
(0.054571338 -0.005579159 0)
(0.055156211 -0.0038011105 0)
(0.055501853 -0.0020058929 0)
(0.055600476 -0.00019702744 0)
(0.055456814 0.0016291174 0)
(0.055066635 0.0034504585 0)
(0.054418848 0.0052639987 0)
(0.05351756 0.0070474372 0)
(0.05236837 0.0087815525 0)
(0.050987217 0.010465327 0)
(0.049386539 0.012089771 0)
(0.047573014 0.013646552 0)
(0.04555099 0.015129505 0)
(0.043313961 0.016541412 0)
(0.0408619 0.017879262 0)
(0.038150506 0.0191096 0)
(0.035139893 0.020144662 0)
(0.031832522 0.020879728 0)
(0.028274488 0.021158658 0)
(0.024598771 0.020795847 0)
(0.02104098 0.019660206 0)
(0.017893947 0.01783692 0)
(0.015341832 0.015586056 0)
(0.013336907 0.013221657 0)
(0.011585203 0.010945228 0)
(0.0096822153 0.0086968155 0)
(0.0072702112 0.0060891153 0)
(0.0041938151 0.0024949767 0)
(0.00062092719 -0.0028504383 0)
(-0.0030031949 -0.010612901 0)
(-0.0059075557 -0.021391895 0)
(-0.007044965 -0.035606235 0)
(-0.0049105629 -0.05306206 0)
(0.0018623945 -0.073162719 0)
(0.014728892 -0.094659213 0)
(0.034714892 -0.11572867 0)
(0.062143728 -0.13344378 0)
(0.096225203 -0.14462656 0)
(0.1347036 -0.14629103 0)
(0.17399416 -0.13629709 0)
(0.20946563 -0.11451279 0)
(0.23683893 -0.083133507 0)
(0.25325535 -0.046018548 0)
(0.25785826 -0.0076830023 0)
(0.25194177 0.027752967 0)
(0.23800181 0.058204425 0)
(0.21851744 0.08267721 0)
(0.19567166 0.10099037 0)
(0.17123766 0.11358952 0)
(0.14655428 0.12119608 0)
(0.12256601 0.12462494 0)
(0.09984567 0.12472456 0)
(0.078724664 0.12224272 0)
(0.059394966 0.11780406 0)
(0.041897637 0.11194085 0)
(0.026200211 0.10508267 0)
(0.012234579 0.097563819 0)
(-0.00016596596 0.089579572 0)
(-0.010906932 0.081505113 0)
(-0.020125693 0.073372767 0)
(-0.028099812 0.065315696 0)
(-0.034875106 0.057407352 0)
(-0.040501282 0.049698879 0)
(-0.045059468 0.042247497 0)
(-0.048658252 0.035090606 0)
(-0.05134042 0.028217702 0)
(-0.053188446 0.021660531 0)
(-0.054247518 0.015413351 0)
(-0.054556562 0.0095229954 0)
(-0.054176553 0.0039547772 0)
(-0.053173384 -0.0012633321 0)
(-0.051577742 -0.0061378932 0)
(-0.049425926 -0.010651809 0)
(-0.046776577 -0.01481393 0)
(-0.043656039 -0.01861311 0)
(-0.040103971 -0.022045388 0)
(-0.036194086 -0.025108616 0)
(-0.031921514 -0.027794872 0)
(-0.027301151 -0.030110209 0)
(-0.022700604 -0.032090132 0)
(-0.018157073 -0.033524025 0)
(-0.010216397 -0.035077568 0)
(0.0089420681 -0.03221129 0)
(0.015235793 -0.031536284 0)
(0.018458233 -0.030922908 0)
(0.021928111 -0.030078408 0)
(0.025563116 -0.02912042 0)
(0.028994592 -0.028032348 0)
(0.032245834 -0.026822085 0)
(0.03535365 -0.025501917 0)
(0.038288161 -0.024079533 0)
(0.041033757 -0.022572677 0)
(0.043584222 -0.020975961 0)
(0.045937448 -0.019317143 0)
(0.048084922 -0.017596378 0)
(0.050025817 -0.015821573 0)
(0.051754955 -0.014001137 0)
(0.053268104 -0.01213341 0)
(0.054565844 -0.010221442 0)
(0.055639122 -0.0082815417 0)
(0.056486839 -0.0063036684 0)
(0.057099004 -0.0042946469 0)
(0.057462708 -0.0022570241 0)
(0.057588396 -0.00020038223 0)
(0.05746597 0.0018801366 0)
(0.057072485 0.0039535032 0)
(0.056408087 0.0060216277 0)
(0.055468181 0.0080604636 0)
(0.054268129 0.010049257 0)
(0.052831572 0.011973958 0)
(0.051162883 0.013819045 0)
(0.049276297 0.015583817 0)
(0.047194081 0.017282121 0)
(0.044915696 0.018929413 0)
(0.042391569 0.020556396 0)
(0.039536202 0.022101969 0)
(0.036289311 0.023526388 0)
(0.032604577 0.024664556 0)
(0.028441753 0.025270578 0)
(0.023947215 0.024971551 0)
(0.01954324 0.023523588 0)
(0.015760233 0.021049824 0)
(0.012949922 0.018012875 0)
(0.01104405 0.015068918 0)
(0.0095217054 0.012720371 0)
(0.007608883 0.010979183 0)
(0.0045893978 0.00929739 0)
(6.8523527e-05 0.0067225584 0)
(-0.0058511907 0.0020990308 0)
(-0.012602866 -0.0057584217 0)
(-0.019316517 -0.017699002 0)
(-0.024447087 -0.034530291 0)
(-0.025931015 -0.05602872 0)
(-0.021827976 -0.082207281 0)
(-0.0099885449 -0.11127841 0)
(0.011707874 -0.14108146 0)
(0.044606733 -0.16765256 0)
(0.087880011 -0.18631604 0)
(0.13887807 -0.19155118 0)
(0.19213815 -0.17979926 0)
(0.24033003 -0.1504679 0)
(0.27668192 -0.10713094 0)
(0.29687545 -0.056185251 0)
(0.29992471 -0.0047469346 0)
(0.28888771 0.040913352 0)
(0.26828921 0.07858174 0)
(0.24166513 0.10740403 0)
(0.21198792 0.12777912 0)
(0.18153083 0.14078342 0)
(0.15180483 0.14766908 0)
(0.12375353 0.14965934 0)
(0.09789778 0.14788087 0)
(0.074427857 0.1433456 0)
(0.053362421 0.13683145 0)
(0.034641847 0.12893305 0)
(0.01813973 0.12012747 0)
(0.0036300542 0.11076148 0)
(-0.0089616154 0.10109837 0)
(-0.019714458 0.091531259 0)
(-0.028913611 0.081956713 0)
(-0.036713914 0.072570855 0)
(-0.043263454 0.063455721 0)
(-0.048616671 0.054664007 0)
(-0.052869048 0.046183317 0)
(-0.056140364 0.038072591 0)
(-0.058488065 0.030318569 0)
(-0.05999569 0.022937672 0)
(-0.060692388 0.015936792 0)
(-0.060634251 0.009323527 0)
(-0.059896025 0.0030895157 0)
(-0.058516884 -0.0027535695 0)
(-0.056544889 -0.0081929862 0)
(-0.054017146 -0.013240109 0)
(-0.050982518 -0.017890512 0)
(-0.047476632 -0.022129724 0)
(-0.04354224 -0.025969574 0)
(-0.039233847 -0.029395685 0)
(-0.034556666 -0.032403647 0)
(-0.029572744 -0.034983972 0)
(-0.024521508 -0.03722673 0)
(-0.01967959 -0.038813656 0)
(-0.011116457 -0.040577457 0)
(0.0093451502 -0.036205002 0)
(0.015882373 -0.035424235 0)
(0.019237957 -0.034730133 0)
(0.022884544 -0.03376242 0)
(0.026646233 -0.032672868 0)
(0.030216489 -0.031439303 0)
(0.033590084 -0.030064806 0)
(0.036809641 -0.028570241 0)
(0.039842978 -0.026961119 0)
(0.042681596 -0.025258792 0)
(0.045313805 -0.02346804 0)
(0.047734094 -0.021601693 0)
(0.049948282 -0.01967194 0)
(0.051943701 -0.017682562 0)
(0.05372286 -0.015646596 0)
(0.055290773 -0.013565398 0)
(0.056631927 -0.011440199 0)
(0.057743234 -0.0092699455 0)
(0.058632118 -0.0070662674 0)
(0.059288503 -0.0048230919 0)
(0.0596942 -0.0025371705 0)
(0.059848247 -0.00021523698 0)
(0.059732953 0.0021301416 0)
(0.059342612 0.0044660354 0)
(0.05867049 0.0068151496 0)
(0.057698808 0.009121319 0)
(0.056442334 0.011369825 0)
(0.054922849 0.013538898 0)
(0.053168403 0.015604086 0)
(0.051220008 0.017566456 0)
(0.049101831 0.019459441 0)
(0.04681687 0.021336402 0)
(0.044281348 0.023273831 0)
(0.041383353 0.025256214 0)
(0.037982096 0.027196231 0)
(0.033872942 0.028998799 0)
(0.028900873 0.030246565 0)
(0.02321007 0.030201431 0)
(0.01751435 0.028347029 0)
(0.012791373 0.024829417 0)
(0.0097591074 0.020447986 0)
(0.008415571 0.016474793 0)
(0.0078338132 0.014054115 0)
(0.0065678111 0.013312775 0)
(0.0033013966 0.013449754 0)
(-0.0027324981 0.013003625 0)
(-0.011602799 0.010229538 0)
(-0.022568596 0.0032655536 0)
(-0.034496931 -0.0093610828 0)
(-0.045268734 -0.028467876 0)
(-0.052552382 -0.054881484 0)
(-0.053316873 -0.08847149 0)
(-0.043982499 -0.12785942 0)
(-0.021468195 -0.17003414 0)
(0.017166506 -0.2099354 0)
(0.072767103 -0.24075302 0)
(0.14198353 -0.25278348 0)
(0.21588296 -0.23926779 0)
(0.28273787 -0.19879889 0)
(0.3317935 -0.13756329 0)
(0.35657544 -0.066390475 0)
(0.35584674 0.0028450292 0)
(0.33579493 0.061922565 0)
(0.30474861 0.10758622 0)
(0.26791724 0.14026441 0)
(0.22924149 0.16168457 0)
(0.19128873 0.17395471 0)
(0.15556917 0.17891642 0)
(0.12289835 0.17834839 0)
(0.093632485 0.17380439 0)
(0.067750497 0.16647752 0)
(0.04502141 0.15725639 0)
(0.025197734 0.14683315 0)
(0.0080097081 0.13572623 0)
(-0.0068242717 0.1242012 0)
(-0.019420527 0.11276264 0)
(-0.030075966 0.10144232 0)
(-0.039118316 0.090345935 0)
(-0.046637332 0.079595135 0)
(-0.052821181 0.069208757 0)
(-0.057807354 0.059285908 0)
(-0.061680633 0.049763477 0)
(-0.064548187 0.040684952 0)
(-0.066495172 0.032042444 0)
(-0.067585081 0.023832857 0)
(-0.067868838 0.016075968 0)
(-0.067409165 0.0087408872 0)
(-0.066259181 0.0018480391 0)
(-0.064458981 -0.0046140833 0)
(-0.062065028 -0.010638574 0)
(-0.059120162 -0.016222526 0)
(-0.055659058 -0.021367243 0)
(-0.051724173 -0.026057315 0)
(-0.047359879 -0.030302973 0)
(-0.042614815 -0.034090035 0)
(-0.037495969 -0.037423448 0)
(-0.032106128 -0.0402852 0)
(-0.026545998 -0.042769662 0)
(-0.021366466 -0.044521949 0)
(-0.01213215 -0.046492846 0)
(0.0098125109 -0.04038512 0)
(0.016622327 -0.039481652 0)
(0.020121394 -0.038701835 0)
(0.023974219 -0.037606152 0)
(0.027874653 -0.036367912 0)
(0.031595545 -0.034978398 0)
(0.035109638 -0.033429496 0)
(0.038453285 -0.031748826 0)
(0.041597911 -0.029941238 0)
(0.044529504 -0.02803484 0)
(0.047248959 -0.026036709 0)
(0.049746671 -0.023956723 0)
(0.052024128 -0.021808562 0)
(0.054079298 -0.019602884 0)
(0.055909796 -0.017348896 0)
(0.057522768 -0.015045756 0)
(0.058920791 -0.012699555 0)