/*--------------------------------*- C++ -*----------------------------------*\
  =========                 |
  \\      /  F ield         | OpenFOAM: The Open Source CFD Toolbox
   \\    /   O peration     | Website:  https://openfoam.org
    \\  /    A nd           | Version:  9
     \\/     M anipulation  |
\*---------------------------------------------------------------------------*/
FoamFile
{
    format      ascii;
    class       volScalarField;
    location    "47";
    object      p;
}
// * * * * * * * * * * * * * * * * * * * * * * * * * * * * * * * * * * * * * //

dimensions      [0 2 -2 0 0 0 0];

internalField   nonuniform List<scalar> 
400
(
5.813578e-10
-0.00067287534
-0.0013853531
-0.0019427114
-0.002220005
-0.0021565016
-0.0017277962
-0.00092620481
0.00023541555
0.0017074004
0.0033872827
0.0051121947
0.0066734755
0.0078490945
0.0084583745
0.0084236639
0.0078133763
0.0068445014
0.005861289
0.0052989374
0.0006578393
-4.0528064e-05
-0.00056966155
-0.00094062712
-0.0011108654
-0.001039924
-0.00070579314
-9.5546966e-05
0.00078909651
0.0019161805
0.0032095775
0.004554698
0.0057819598
0.0067162548
0.0072144188
0.0072145194
0.0067699452
0.0060527617
0.00531052
0.0047384793
0.0014236968
0.00044064696
-0.0001166029
-0.00045324557
-0.00061481065
-0.00058481439
-0.00034658526
0.00011973636
0.00082845072
0.0017698942
0.0028942763
0.0040981509
0.0052282365
0.0061109822
0.0065938814
0.006597672
0.006155739
0.0054215069
0.0045937367
0.0037482204
0.0020141916
0.0006816817
1.6765073e-05
-0.00035885735
-0.00057155279
-0.00062656323
-0.00051008819
-0.0001906394
0.00036849083
0.0011843728
0.0022298965
0.0034174095
0.0045913566
0.0055569443
0.0061235642
0.0061665689
0.0056836224
0.004817045
0.0037472793
0.0024735816
0.0021672619
0.00049611145
-0.00029626508
-0.00074871151
-0.0010582589
-0.0012452745
-0.0012927518
-0.0011513065
-0.00075505821
-5.3112636e-05
0.00095700626
0.0022102583
0.0035446833
0.0047326429
0.0055218314
0.0057098779
0.0052292818
0.004201596
0.0028061691
0.00098394352
0.0016539522
-0.00031448756
-0.0012387948
-0.0017993083
-0.0022526702
-0.0026279167
-0.0028986245
-0.0029910828
-0.0028025398
-0.0022376878
-0.0012511151
0.00013086393
0.0017446118
0.0033270756
0.0045416164
0.0050657623
0.0047174869
0.0035661897
0.0017895782
-0.00072593983
0.00028701455
-0.0019195808
-0.0029730077
-0.0036713905
-0.0043203064
-0.004953213
-0.0055301307
-0.0059479567
-0.0060590019
-0.0057073841
-0.0047757268
-0.0032587142
-0.0012665332
0.00090714978
0.0028231003
0.003986818
0.004025084
0.0028876979
0.00071536363
-0.0026805186
-0.0020764392
-0.0044512029
-0.0056268153
-0.0064923326
-0.007392931
-0.0083657784
-0.0093569409
-0.010231796
-0.01079097
-0.010804836
-0.01006336
-0.008461766
-0.0060407773
-0.003083235
-0.00012632938
0.0021126026
0.0029638112
0.0021355667
-0.00036605142
-0.0048726292
-0.0055241768
-0.0079921237
-0.0092779318
-0.010333801
-0.01153801
-0.012935431
-0.014462733
-0.01595635
-0.017162481
-0.017766035
-0.017438081
-0.015919479
-0.013122971
-0.0092517784
-0.0048990306
-0.0010300375
0.0012693907
0.0012777454
-0.001333977
-0.0072016967
-0.010076924
-0.012565104
-0.013936672
-0.015184015
-0.016718393
-0.018602636
-0.020774222
-0.023048806
-0.025121729
-0.02658638
-0.026969367
-0.025812959
-0.022845699
-0.018074475
-0.012051117
-0.0059519761
-0.001370759
0.00030057476
-0.0019472224
-0.0093822443
-0.015685004
-0.018132426
-0.019537562
-0.020926815
-0.022757752
-0.025129891
-0.027997025
-0.031166441
-0.034291524
-0.036876901
-0.038294212
-0.037844307
-0.035065882
-0.029601497
-0.021822526
-0.012985602
-0.0051849968
-0.00071577032
-0.0017642188
-0.010792275
-0.022243621
-0.02461306
-0.025945607
-0.027334961
-0.029324165
-0.032079245
-0.03558896
-0.039664674
-0.043927311
-0.047801352
-0.050530233
-0.051236515
-0.048956905
-0.043143574
-0.033769044
-0.021926369
-0.010036906
-0.0014154647
-9.8865231e-06
-0.010225639
-0.029641237
-0.031923925
-0.032978782
-0.034079884
-0.035939502
-0.038831526
-0.042795637
-0.047651603
-0.052990554
-0.058163619
-0.062284286
-0.064265568
-0.062875189
-0.057112215
-0.046476769
-0.031649113
-0.015037885
-0.00086441029
0.0046467445
-0.0055215557
-0.03786602
-0.040048536
-0.040440192
-0.040752564
-0.042015046
-0.044653066
-0.048758219
-0.054144089
-0.060356057
-0.066665373
-0.072060719
-0.075268315
-0.074811393
-0.069269295
-0.057628334
-0.039961532
-0.018247993
0.0027890194
0.01444514
0.0069075312
-0.047230604
-0.049134362
-0.048140619
-0.046882375
-0.046905538
-0.048798702
-0.052668311
-0.058276049
-0.06507614
-0.072232032
-0.078595801
-0.082712352
-0.082880239
-0.077309419
-0.064523964
-0.043934978
-0.016748008
0.012502931
0.032938769
0.032408939
-0.058896821
-0.059639888
-0.055883898
-0.051941112
-0.049972392
-0.050629919
-0.053928669
-0.059495365
-0.066611892
-0.074285333
-0.081191204
-0.085679437
-0.085831826
-0.079522222
-0.064876125
-0.040689289
-0.0072409382
0.032139357
0.064981438
0.077749169
-0.076226555
-0.072613796
-0.063516126
-0.055435355
-0.050725067
-0.049781658
-0.052312383
-0.057664393
-0.064891847
-0.072775003
-0.079779401
-0.08403678
-0.083391685
-0.07534899
-0.057602699
-0.028375162
0.012933312
0.065396463
0.1155515
0.15150621
-0.10809225
-0.089556491
-0.071233849
-0.057232951
-0.049072111
-0.046330238
-0.0480773
-0.053202639
-0.060434652
-0.068295895
-0.075027426
-0.078526947
-0.076389039
-0.065809705
-0.043865506
-0.0078184695
0.044393653
0.11299814
0.18838041
0.27186076
-0.17684546
-0.10828983
-0.076202625
-0.054651294
-0.042992397
-0.038998048
-0.040570538
-0.045928076
-0.05344157
-0.061438391
-0.068027618
-0.070962591
-0.067551165
-0.054739865
-0.029148841
0.013563579
0.078146941
0.17006434
0.28949545
0.47421821
-0.37208342
-0.12470846
-0.054973116
-0.031962567
-0.022063593
-0.02030055
-0.024359485
-0.031958031
-0.041261592
-0.05064092
-0.058316934
-0.062187497
-0.059782587
-0.048056841
-0.022658556
0.021474185
0.092818704
0.21015275
0.40288841
0.77640927
)
;

boundaryField
{
    movingWall
    {
        type            zeroGradient;
    }
    fixedWalls
    {
        type            zeroGradient;
    }
    frontAndBack
    {
        type            empty;
    }
}


// ************************************************************************* //
