/*--------------------------------*- C++ -*----------------------------------*\
  =========                 |
  \\      /  F ield         | OpenFOAM: The Open Source CFD Toolbox
   \\    /   O peration     | Website:  https://openfoam.org
    \\  /    A nd           | Version:  9
     \\/     M anipulation  |
\*---------------------------------------------------------------------------*/
FoamFile
{
    format      ascii;
    class       surfaceScalarField;
    location    "19";
    object      phi;
}
// * * * * * * * * * * * * * * * * * * * * * * * * * * * * * * * * * * * * * //

dimensions      [0 3 -1 0 0 0 0];

internalField   nonuniform List<scalar> 
1300
(
1.7582594
5.6264299
-7.0794203
1.7582594
-7.080717
5.6264299
-6.158199
6.158199
-1.6560487
1.6560487
3.7345585
3.6501308
-4.3516902
4.3516902
-4.4250659
4.4250659
-2.8402504
2.8402504
-5.2377043
5.2377043
-5.056471
5.056471
4.7703565
-4.7703565
-5.7760663
5.7760663
-2.2874156
2.2874156
-5.561158
5.561158
1.4748674
-1.4748674
-5.3362348
5.3362348
-0.48354491
0.48354491
-0.57660051
5.1480748
1.1816588
1.1816588
-3.1102806
3.1102806
-4.8416864
4.8416864
6.2143708
-6.2143708
10.697528
-10.697528
-3.6181072
-4.122009
1.5961959
-9.9095522
-5.484521
-5.484521
-8.43827
8.43827
-2.8118399
2.8145901
1.8789407
-1.8789407
-1.7974273
1.7974273
-6.1261308
-0.032068237
-6.1261308
6.1893419
-0.031142924
6.1893419
-1.8565734
0.20052475
-1.8565734
5.5048786
-5.5048786
1.4288667
0.227182
1.4288667
1.3097183
-1.3097183
-3.7354446
7.4700031
3.6492447
-3.0531745
8.2012493
-3.3937765
7.0439073
-6.6814861
6.6814861
-4.6750362
0.32334596
-4.6750363
4.1427412
0.20894894
4.1427412
-6.9021616
6.9021616
-4.2395659
-0.18550007
-4.2395659
4.6582075
-0.23314161
4.6582075
2.9757581
-2.9757581
-2.6143904
-0.22585999
-2.6143904
3.0358307
-0.19558032
3.0358307
0.35898331
5.2674466
-5.9854135
8.8000035
-5.2674465
0.029742132
5.2000579
0.037646508
5.2000579
-5.0933855
0.03691448
-5.0933855
5.0128847
0.043586316
5.0128847
4.8720431
-0.10168662
4.8720431
-4.8680688
0.097712323
-4.8680688
-3.93986
-4.2278782
-5.9217485
0.1456822
-5.9217484
-2.3312345
0.04381893
-2.3312345
2.2334493
0.053966343
2.2334493
-4.1970294
4.1970294
-5.9714964
0.41033841
-5.9714964
1.3589751
0.11589234
1.3589751
2.0099426
2.5615317
3.768202
-3.768202
2.2933346
-5.2250259
-0.11120882
-5.2250259
-5.4691266
-5.2284008
5.4691266
-0.13289184
-0.89445779
0.41091288
-0.89445779
1.2317041
-0.050045309
1.2317041
3.162909
-0.12707831
-3.162909
0.05262849
4.35771
-4.35771
2.3409619
0.7693187
2.3409619
-5.5791005
5.5791005
4.9494612
0.063423462
-4.9494612
0.10777479
6.1541158
0.060255011
6.1541158
-6.1927464
-0.021624391
-6.1927464
3.9618614
-8.0838705
-4.1833535
5.6277599
0.14830646
-5.6277599
0.14323888
2.1337805
-0.2548398
2.1337805
-1.6356018
1.6356018
-1.6797658
-0.19917491
-1.6797658
-2.1302661
0.33283885
-2.1302661
1.5253776
0.27204969
1.5253776
-5.9323089
-0.19382195
-5.9323089
-6.1481113
0.17661491
6.1481114
0.041230582
1.4363487
-1.4363487
-2.0315992
0.17502584
-2.0315992
-5.6851024
-0.24720645
5.6851024
-0.18022379
-5.416117
-0.08876162
-5.416117
-1.4758458
-0.20392003
1.4758458
-0.16612751
1.2675413
-0.035837156
-1.2675413
-0.042176955
-3.053987
5.6155187
-3.392964
7.0422087
-6.2744527
-0.40703341
-6.2744528
7.0444744
-0.36298842
7.0444744
5.1594926
0.4016653
-5.1594926
0.48445633
4.075826
0.066915147
4.075826
-7.1330449
0.23088332
-7.1330449
6.6254475
0.27671412
6.6254475
4.1285355
-0.052709474
-4.1285355
-0.11103037
4.8828485
-0.22464099
4.8828485
3.2493814
-0.27362326
3.2493814
-2.7005862
-0.27517193
-2.7005862
2.1224732
-2.1224732
2.3725581
-0.2500849
-2.3725581
-0.24183233
-11.148714
11.12709
-0.035799076
-11.112915
5.1642588
5.1642588
4.0848423
0.7872009
4.0848423
-5.0547053
0.18663646
-5.0547053
3.8907305
-8.074084
4.2133584
-8.1532184
4.1982914
-14.107844
3.999523
-8.2274012
6.207018
-6.207018
6.0531647
0.15385331
-6.0531649
0.13141647
-2.3616924
0.030457909
-2.3616924
-3.5713493
-0.6256801
-3.5713493
4.8645225
-0.66749314
4.8645225
-1.405257
1.405257
-1.3547918
-0.050465291
1.3547918
0.0041833037
5.0809403
-0.19809182
-5.0809403
-0.1440856
1.1767106
0.25215603
-1.1767106
0.28225284
4.7608961
-0.40318605
4.7608961
-3.9251168
-0.43259321
-3.9251168
-2.3578841
-0.0038083327
2.3578841
-0.016922242
-5.8224919
0.2433914
-5.8224919
-11.213431
0.10051571
-11.175785
-6.0922307
-6.0922307
2.346039
11.146042
-2.4111977
-0.28938843
2.4111977
-0.27741725
1.5053019
-0.10004485
-1.5053019
-0.13029993
-1.873748
-0.24872516
1.873748
-0.2381462
-2.5567818
0.42651569
-2.5567818
-1.2413529
1.2413529
-1.3332229
0.091869964
1.3332229
0.1921547
1.750245
-0.31389632
1.750245
2.152804
0.080645318
-2.152804
0.12120472
-5.2382838
-0.17783318
-5.2382838
7.2406156
-0.19614125
7.2406156
-3.5728377
-0.35227914
3.5728376
-0.32345626
-0.035266961
11.162357
-5.1289918
0.035606361
5.1289919
-11.222612
11.258218
-3.1361453
0.57936351
3.1361453
0.948697
5.3138981
0.2652024
-5.3138981
0.25919281
6.404492
0.22095549
-6.404492
0.19747405
-3.0541899
-0.51715948
-3.0541899
-5.6192459
-0.65520686
5.619246
-0.75472348
-11.475955
-0.19438825
11.670343
-11.432368
6.0168802
0.13723563
-6.0168801
11.395454
-1.2643372
-0.17201148
1.2643372
-0.022984286
2.1058955
-0.35565051
2.1058955
5.0732726
-0.31237645
-5.0732726
-0.16501122
-7.2587659
0.12572101
7.2587659
-0.018150271
-2.5568822
-0.49730766
2.5568822
-0.45098671
-5.353681
5.3036357
2.8475683
-3.8357368
-4.2481337
-9.0641376
2.556872
3.0586467
4.8502065
-8.805992
-5.3018517
-8.6627531
7.2814273
-7.0222345
-9.5297235
9.4280369
10.03729
-10.126051
-7.4101802
7.4143636
8.5892279
-8.7553554
3.7655587
3.7044443
10.895926
-10.57258
-16.676952
16.269918
9.5247325
-9.7102326
17.21402
-16.983136
-18.164214
18.38517
-7.3345866
7.1087266
-8.5155902
8.2404183
-8.7505846
8.4271284
-3.7050208
-4.4481976
11.742553
-11.596871
13.403581
-13.51479
-11.533161
11.943499
4.0774791
1.2261566
4.041642
-3.6189022
7.3844609
-3.4250051
6.2725734
4.2469376
-7.9519584
3.8271464
-8.0752801
7.0984092
6.3051721
-6.9655175
-2.09862
-7.8679339
7.6130941
-7.605855
7.3677088
11.988494
-12.020563
-3.5974158
7.3018602
-3.4447928
6.5034395
-3.7248188
-3.6853615
3.6089264
1.2412801
7.0571132
4.6854404
-7.2054198
-1.4573332
-10.168085
9.8557085
-10.489537
10.056944
-0.46759296
5.7954934
-5.3279005
4.3740934
-1.4691005
7.264594
5.8123268
5.9989632
5.8700443
-5.6048419
1.1521901
-6.4800906
-6.3723158
-3.4360744
3.6111002
3.3754518
-3.1482698
7.8864418
2.150848
7.706218
-7.2645117
-2.8615397
-7.4423448
4.5640861
2.8502775
4.5136208
5.2548653
3.3343626
5.0509453
5.8712306
-5.9329722
0.061741559
-5.4282461
11.299477
1.368888
-9.1136076
-7.8723275
6.8002766
4.0956489
7.0092255
-7.5762893
-2.9962905
-7.0918331
-10.164812
-6.5121397
-10.820019
10.932078
5.33784
10.56909
-12.958545
12.940395
6.6389604
2.8857719
6.4058188
-6.225732
-3.4845004
-6.3367623
13.675086
-2.5917808
-11.083305
-10.960248
-7.2039668
10.683534
6.5304856
10.711935
7.6732344
10.909409
4.3662787
9.3088075
-10.896764
3.6927974
-4.4296793
-2.9049072
-4.6715117
4.6661075
2.4426192
4.4705272
-5.0213421
-3.4942481
-5.3107306
-4.9686746
-3.78191
5.2422979
2.9981204
-5.2596488
-5.2298885
5.6119279
2.8152005
3.9496769
-9.2515285
4.2777242
-8.7259218
-8.437172
-3.1596992
-8.3057554
5.2802717
2.6893097
-7.9695814
-2.6716867
12.845587
-6.5404147
10.746967
-7.9963825
-5.5184076
-8.1404681
-9.1404335
-2.3927271
-8.9638186
-9.5596368
9.0424773
-9.925521
9.2580278
13.814972
-6.651724
-7.1632482
-4.8758607
-3.8794947
4.9180377
-0.87639569
-7.2081675
7.2699091
0.1762934
6.4488668
7.6750233
6.7986276
-4.4885377
-3.1173173
-4.6188377
4.7378792
2.6298296
4.489154
9.1173571
2.8711372
9.0862142
-8.5479731
-3.4725895
-8.741795
9.5936008
-9.2607619
3.9181313
-3.9219396
6.8281916
3.2287524
-6.4250055
-3.7430795
8.3080696
-3.9760254
-4.3320441
-12.093104
10.680337
1.4127676
-4.8285106
-0.45441714
0.029127767
-5.588502
-3.9412215
5.4907897
0.50817353
11.18851
7.2472889
-5.51859
5.7619814
6.1517529
6.2151764
-0.15713943
6.1102285
-5.530865
7.0850129
-3.1163907
-3.9686222
7.0052737
-7.2524802
-1.7365213
-7.1049731
5.3684518
0.4537378
2.3168572
-1.9059443
-2.7473209
-0.68875352
-2.6261161
1.9885074
1.3869444
2.2406634
1.3374606
2.2736396
-3.9234199
0.67410537
3.2493145
-2.5859593
-2.4741644
-4.8591782
-1.398761
6.2579393
7.2808421
2.5748664
-7.1158309
-0.32651392
3.6633926
-3.6094262
-1.1230941
-3.7360842
2.7702064
-3.8933004
-4.6873447
-2.5520036
7.2393482
-3.7903001
-0.82853757
3.8903449
0.62327586
-4.6041211
-3.2638128
4.803296
0.24764928
-5.1299001
10.717768
-5.5878683
-8.2472174
4.566635
6.7328417
7.4169125
-9.0978187
4.6745356
4.4232831
-2.364977
5.7405273
1.2686982
5.8074424
-9.2459495
6.249659
7.9126118
4.0308872
-8.314277
1.2224439
-8.0235057
10.473896
-9.1063867
-1.3675089
5.0577849
5.4161106
7.5021239
6.3128484
-6.0367168
13.538841
-1.3664216
-7.7399651
9.3899273
-5.3590402
5.9905308
-11.349571
-12.303379
4.563414
-9.8632963
12.333158
-2.4698618
-3.8685549
-9.08999
13.731851
-1.2829585
-12.448893
9.2861313
-6.0857153
-5.0016845
11.0874
-8.6774961
8.4861851
-2.5642848
-5.9219004
-11.061717
-5.9214195
10.935996
2.0043992
-11.196538
14.889335
-1.8877307
6.0192909
0.38652788
5.7946498
4.3185393
-6.9857066
2.6671673
4.3589568
-6.9232414
2.1649212
-9.1506278
-6.6405247
12.060033
-5.4195086
-9.8002237
-9.4583773
-0.34184636
1.9141844
12.975151
-9.5874188
6.70087
2.8865488
4.0104436
0.47871047
-3.7603587
-0.91115303
0.87288379
6.3080393
-7.1809231
5.3434109
5.2163326
5.0398835
1.2681559
4.924913
2.6881811
-4.6474957
-0.66323483
-5.7898732
2.0079632
-2.7917527
-5.7718776
7.7798408
-6.5478369
0.77595931
-3.8658478
-5.9521568
9.8180047
-6.7707551
5.2612353
5.4565332
7.891065
-8.2593932
2.3072364
-4.294891
-3.9645022
4.2406005
-7.0323533
3.0421606
4.7376802
5.8573611
0.62747261
6.3714503
5.688583
-9.0607602
0.33483837
10.374023
-8.9166901
2.8054077
8.1040015
-9.5062779
0.04790066
-8.2578548
0.88130268
-7.4217173
-7.0882786
6.6374939
-9.030221
-4.7120773
8.3095735
0.77664061
-8.3508041
-0.61301451
-6.522009
-3.0376279
-7.0193166
-3.2961246
-6.6293964
-9.3328415
-1.7874008
-7.5454408
7.2550766
-7.2009238
-3.6190952
7.9556474
1.3023804
-8.041668
7.8696565
-8.0860339
7.7303833
0.26840886
7.0015002
7.0670365
3.1875418
-4.6365232
7.824065
-6.686943
9.5580802
-11.204012
4.5170692
5.3243826
-8.7969721
-5.8796295
5.4877892
4.1058116
5.7598389
9.4063782
-10.874063
1.4676843
-11.076618
12.637084
-1.5604658
-17.155623
6.0790049
-7.749245
3.5968969
0.32123443
3.6273548
0.93152015
3.1632761
-4.0947962
-2.9904194
-3.0073417
-3.1214438
-4.527209
7.6486527
1.4785233
-4.5014798
3.0229565
-4.6466797
6.125203
-0.092013788
-4.409466
7.0558246
-3.8925485
7.377059
-4.7386935
2.6383655
4.4155211
7.5309098
-3.1153887
5.759015
-2.5302626
2.5112734
-5.6266621
-2.0159356
-4.7742243
7.2168434
-5.0437804
5.8197398
-0.035920323
5.8556601
-5.4570832
1.4810578
-0.4171997
4.7991329
4.8517614
5.9461214
-4.6779655
4.0125847
-6.5428473
-1.6140773
-5.9153747
-1.1776945
-0.50187753
-5.0465726
5.5484501
6.7420626
-7.2439401
-5.3764143
9.796222
-4.4198077
8.100432
-5.5587801
-2.5416519
-4.5793047
-4.6814572
4.152789
1.9574395
10.057872
0.27934524
-5.8381253
-5.2515197
-4.3028227
4.3577702
2.7272428
-2.4512543
3.8640219
2.4221265
-0.10526931
0.81576162
1.4249018
2.481523
-1.6657613
0.19878967
2.2827333
-1.7071546
2.6788844
0.98450821
-2.7595297
0.13341354
-1.9115646
4.681771
1.3377499
-2.7246943
1.0589329
1.5395734
-4.6559641
6.3862955
-3.1984142
-3.1878813
7.9258689
1.5174262
-4.7158404
5.5875469
-5.133809
3.0499298
-4.4486908
-1.6659107
-6.7997197
-4.6488718
-3.247496
6.2704525
-4.4011567
6.9760231
1.5831079
-6.6495092
8.2326171
-4.7061596
2.1541561
-4.1191565
5.1036647
-1.4190434
-2.7001131
3.6139174
3.6254308
-3.8371385
0.10105429
-0.22322107
3.0747572
-3.2979782
-0.81854326
-3.4045025
-7.3542201
7.6018693
-3.8042075
8.4787431
4.0198575
-3.3877164
11.86646
3.2862592
-6.6739756
-4.9609582
-5.7894958
-2.2506925
5.1662199
-0.84391157
-5.4928508
-6.7658118
5.5455602
0.26188213
-9.2646961
9.9935515
-0.72885543
-5.1690474
-1.0806116
6.1383964
-7.3887082
0.46546679
-5.2237869
4.7697646
6.0384629
6.300345
-11.978635
-0.47025731
-6.6407955
1.2650954
-7.9058909
6.6812059
-3.8377189
8.4011328
-11.003502
7.3844069
-9.7011218
7.0336238
-0.87226713
7.4648533
-4.797686
3.6184519
-9.5398714
-7.5354722
7.0763043
-4.1905324
7.4628321
-5.0091368
12.471969
-6.8968676
7.9018673
4.5701016
-1.9562638
-6.1842043
-7.3142208
5.357957
0.58764642
6.3822962
7.3105394
-4.6223582
6.6473045
3.8792968
-8.1741877
-3.1530565
-11.450823
3.2766349
-5.9942895
-2.9003781
6.177013
4.9906869
5.4693974
2.2125107
-4.5582443
8.8384837
-9.1803301
-3.4189753
-3.6693033
7.6484833
-2.2905263
5.2916414
-8.9609446
-2.1300758
5.6941148
-0.69957822
-4.9945366
0.95760927
-5.6696865
2.2776184
-7.9473049
6.7526027
-7.3656172
2.3572279
-10.106473
-5.6844401
-5.7074243
-2.436095
-5.6499389
-7.9848262
5.5487312
-1.9058213
5.9638352
-8.9111533
8.211575
-3.7259307
9.274662
-5.8740052
-1.1453114
6.3249919
1.4053914
10.680053
0.32681357
-6.2064431
-2.6486757
5.4714251
-2.8227494
1.7090945
-4.719759
0.75166605
3.2968947
4.6289742
-8.6653465
-0.13162562
-6.3380687
-4.1763418
8.2821534
5.6198802
12.361943
1.4878803
9.4425508
-1.1603974
10.930431
4.5994415
4.7915962
-4.0481001
5.5157844
1.50035
6.0174192
-1.153609
3.7919746
2.4737458
2.5175647
1.0918615
2.9356512
1.9161102
4.416709
0.32191278
-2.6854289
4.715332
-9.0181547
-1.1227933
-8.2309538
1.1970831
5.8977255
-4.7006424
4.317736
-1.5904932
1.4949866
0.09553263
-2.4591722
2.3636395
-3.8730896
-2.5644415
-0.28170819
-2.0975079
3.1564409
2.5842631
-2.8747327
-0.99835691
0.41515285
-5.0640246
4.033538
-3.9324837
-0.30705281
7.9255643
-3.6330512
0.33507294
-1.4788951
-3.0694296
-3.7581831
3.6247696
11.291879
0.57458079
5.7040104
8.1764501
4.9126373
0.2902791
4.4026724
-6.8725342
-4.7479555
-7.3427913
-0.66158542
5.476811
3.4475117
9.527639
8.0176133
5.7270869
-3.2338577
-12.414188
8.1310542
-2.6152698
6.5705884
-1.5760518
-6.3712531
6.5489847
3.0090955
-7.3256253
-0.039991898
-6.411245
-9.0265147
-0.49719457
8.7087696
-10.182859
9.0375473
5.9999194
1.5455213
-4.840923
-0.86650131
4.7490531
0.042543155
10.972974
-1.1987083
-7.1838149
8.3825232
-4.6990172
3.5762239
1.0079241
2.8560977
3.3715637
1.7810705
-5.4027443
-10.103387
-2.5518322
-2.1041319
-5.7397135
0.51822573
-3.1024888
6.3200214
-2.7437975
3.7783695
5.6387257
7.1337123
-2.0574106
-5.1865295
6.4772183
-2.6988488
4.4348635
)
;

boundaryField
{
    wall-4
    {
        type            calculated;
        value           uniform 0;
    }
    velocity-inlet-5
    {
        type            calculated;
        value           nonuniform List<scalar> 8(-1.7582594 -1.7582594 -7.3846893 -4.5714743 -7.3846893 -6.446951 -4.5714743 -6.446951);
    }
    velocity-inlet-6
    {
        type            calculated;
        value           uniform -5.6264299;
    }
    pressure-outlet-7
    {
        type            calculated;
        value           nonuniform List<scalar> 8(7.0794204 7.080717 7.7401162 8.3133563 8.1677382 8.145215 8.104089 8.1978145);
    }
    wall-8
    {
        type            calculated;
        value           uniform 0;
    }
    frontAndBackPlanes
    {
        type            empty;
        value           nonuniform List<scalar> 0();
    }
}


// ************************************************************************* //
