/*--------------------------------*- C++ -*----------------------------------*\
  =========                 |
  \\      /  F ield         | OpenFOAM: The Open Source CFD Toolbox
   \\    /   O peration     | Website:  https://openfoam.org
    \\  /    A nd           | Version:  9
     \\/     M anipulation  |
\*---------------------------------------------------------------------------*/
FoamFile
{
    format      ascii;
    class       surfaceScalarField;
    location    "0.11";
    object      alphaPhi0.phase1;
}
// * * * * * * * * * * * * * * * * * * * * * * * * * * * * * * * * * * * * * //

dimensions      [0 3 -1 0 0 0 0];

internalField   nonuniform List<scalar> 
19800
(
-2.3295416e-117
2.5665083e-118
-4.4045187e-117
1.3323248e-117
-2.3347531e-114
6.1052444e-115
-8.601501e-112
1.8972038e-112
-2.4590205e-109
4.6953877e-110
-5.7065413e-107
9.6157698e-108
-1.1097139e-104
1.674338e-105
-1.8511603e-102
2.5299737e-103
-2.6971571e-100
3.3695366e-101
-3.4816262e-98
4.0044833e-99
-4.0277952e-96
4.2897144e-97
-4.2159769e-94
4.1757137e-95
-4.0249198e-92
3.7190774e-93
-3.5287586e-90
3.0487356e-91
-2.8582744e-88
2.311658e-89
-2.1504406e-86
1.6279763e-87
-1.5100423e-84
1.0691656e-85
-9.9405902e-83
6.56942e-84
-6.1604208e-81
3.787484e-82
-3.6083903e-79
2.054174e-80
-2.0053767e-77
1.0503409e-78
-1.0614966e-75
5.0713672e-77
-5.372469e-74
2.3145257e-75
-2.6104863e-72
9.9853865e-74
-1.2230592e-70
4.0659065e-72
-5.5512718e-69
1.5553391e-70
-2.4530288e-67
5.5264772e-69
-1.0616012e-65
1.7742349e-67
-4.5668534e-64
4.748376e-66
-2.0404923e-62
6.9618502e-65
-9.3117355e-61
-8.4212753e-63
-4.0706553e-59
-1.018441e-60
-1.6485588e-57
-7.2020201e-59
-6.1227118e-56
-3.9306048e-57
-2.0699099e-54
-1.7936179e-55
-6.3117629e-53
-7.0364462e-54
-1.7173265e-51
-2.391708e-52
-4.1225452e-50
-7.0326289e-51
-8.6187569e-49
-1.7762693e-49
-1.5370865e-47
-3.8080163e-48
-2.2753462e-46
-6.8152922e-47
-2.7500336e-45
-1.0004237e-45
-2.714364e-44
-1.1882166e-44
-2.143107e-43
-1.1249547e-43
-1.2462528e-42
-8.1548999e-43
-4.7829644e-42
-4.184163e-42
-1.2465201e-41
-1.4464624e-41
-2.3497287e-41
-3.735224e-41
-3.6894067e-41
-8.4803139e-41
4.4483894e-44
-1.6069779e-40
3.6627702e-41
-1.6012009e-40
2.3193743e-41
-8.4273418e-41
1.2024434e-41
-3.6821449e-41
4.429534e-42
-1.3931611e-41
1.045887e-42
-3.8680127e-42
1.3497322e-43
-6.5053588e-43
8.8308862e-45
-5.9013736e-44
3.0886632e-46
-2.9527282e-45
1.0851931e-47
-8.2406248e-47
6.2121445e-49
-5.526634e-48
2.4891218e-50
-5.4049283e-49
6.3356932e-52
-2.0120054e-50
1.1547429e-53
-4.1081695e-52
1.723974e-55
-5.9472365e-54
2.2722989e-57
-7.0378197e-56
2.7280791e-59
-7.1996267e-58
2.9908155e-61
-6.3945163e-60
2.8866843e-63
-4.7241179e-62
1.620509e-65
-2.514159e-64
7.2143867e-66
-1.1488462e-67
1.4211871e-66
2.8771048e-68
2.6277433e-68
5.8089395e-69
3.808356e-70
2.4914855e-70
8.5690118e-72
8.0466421e-72
2.0750954e-73
2.4466808e-73
4.7657224e-75
6.9172073e-75
1.0372589e-76
1.8160883e-76
2.1469161e-78
4.4516724e-78
4.2184057e-80
1.022406e-79
7.8468484e-82
2.2034577e-81
1.3779829e-83
4.4571538e-83
2.27769e-85
8.4564778e-85
3.5320184e-87
1.5029227e-86
5.1199601e-89
2.4975e-88
6.9105239e-91
3.8716729e-90
8.6462155e-93
5.5833277e-92
9.9777074e-95
7.4638676e-94
1.0559498e-96
9.2130846e-96
1.0180915e-98
1.0451603e-97
8.872845e-101
1.0835694e-99
6.9248971e-103
1.0198324e-101
4.7852899e-105
8.6446179e-104
2.8868966e-107
6.5345745e-106
1.4935497e-109
4.3514211e-108
6.4733723e-112
2.5133813e-110
2.2773285e-114
1.2340052e-112
6.2168774e-117
5.0117753e-115
1.1812967e-119
1.6208248e-117
6.2359858e-120
3.5686653e-120
6.9790197e-121
-3.117615e-117
9.9378931e-118
-5.3003333e-115
4.5940887e-115
-3.0464826e-112
2.1214854e-112
-1.2435824e-109
7.357629e-110
-3.8385793e-107
1.972749e-107
-9.4592244e-105
4.2948846e-105
-1.9315261e-102
7.8528046e-103
-3.3577832e-100
1.2354852e-100
-5.0714472e-98
1.7031944e-98
-6.7606073e-96
2.0864898e-96
-8.0549877e-94
2.2964145e-94
-8.6670215e-92
2.2918759e-92
-8.4940737e-90
2.0894593e-90
-7.6381022e-88
1.751172e-88
-6.34229e-86
1.3564689e-86
-4.8903054e-84
9.7564932e-85
-3.5189481e-82
6.541155e-83
-2.3739541e-80
4.1025861e-81
-1.5078469e-78
2.4144757e-79
-9.0532077e-77
1.3367862e-77
-5.1577592e-75
6.975984e-76
-2.7988742e-73
3.4376424e-74
-1.4521188e-71
1.6007799e-72
-7.2310017e-70
7.0425144e-71
-3.4702605e-68
2.9212414e-69
-1.612208e-66
1.1364276e-67
-7.285049e-65
4.0964473e-66
-3.219441e-63
1.3279151e-64
-1.4087365e-61
3.5500658e-63
-6.3497939e-60
4.9578101e-62
-2.9158083e-58
-3.24123e-60
-1.2788234e-56
-4.0580915e-58
-5.1834454e-55
-2.8067229e-56
-1.9224645e-53
-1.5120884e-54
-6.4748863e-52
-6.8357846e-53
-1.9629084e-50
-2.6572304e-51
-5.3012074e-49
-8.940646e-50
-1.2598944e-47
-2.5985118e-48
-2.5962055e-46
-6.4741232e-47
-4.5540721e-45
-1.3660841e-45
-6.6489913e-44
-2.403334e-44
-7.9038822e-43
-3.4627927e-43
-7.5606097e-42
-4.0180904e-42
-5.7398905e-41
-3.6882144e-41
-3.156396e-40
-2.5717544e-40
-1.0181937e-39
-1.2436138e-39
-1.7810163e-39
-3.814727e-39
-2.3980276e-39
-8.0089423e-39
-2.8276233e-39
-1.5402617e-38
3.7161513e-42
-2.6427639e-38
2.8309326e-39
-2.640787e-38
2.3980377e-39
-1.5382851e-38
1.769487e-39
-8.0023973e-39
9.7554936e-40
-3.721969e-39
2.8408941e-40
-1.1771122e-39
3.8518471e-41
-2.1151428e-40
2.5228668e-42
-1.9980835e-41
9.3455175e-44
-1.0596006e-42
3.4338155e-45
-3.0775101e-44
1.7283703e-46
-1.1414207e-45
7.0722117e-48
-1.363777e-46
1.8942918e-49
-5.6465563e-48
3.6357131e-51
-1.2372596e-49
5.6909298e-53
-1.9002994e-51
7.8316605e-55
-2.3707412e-53
9.789888e-57
-2.5492219e-55
1.1175873e-58
-2.3813791e-57
1.1385774e-60
-1.864316e-59
9.2908368e-63
-1.087141e-61
4.4831014e-64
-9.3888846e-64
6.8367255e-64
1.3572919e-65
2.8769938e-65
7.2879476e-66
2.534485e-67
4.0148282e-67
3.419563e-69
9.8993308e-69
7.2305588e-71
2.4899877e-70
1.5846986e-72
6.3658678e-72
3.2875989e-74
1.5633868e-73
6.5086199e-76
3.6377613e-75
1.2313709e-77
8.0118817e-77
2.2153967e-79
1.6674243e-78
3.7733614e-81
3.2727088e-80
6.0612637e-83
6.0428064e-82
9.1472153e-85
1.0474044e-83
1.2916538e-86
1.7000122e-85
1.6991569e-88
2.5764533e-87
2.0724995e-90
3.6334792e-89
2.3311507e-92
4.7509994e-91
2.4031191e-94
5.7340384e-93
2.2542584e-96
6.3543925e-95
1.9080883e-98
6.4261531e-97
1.4424725e-100
5.8881569e-99
9.6193279e-103
4.8435958e-101
5.5702101e-105
3.5384304e-103
2.7446335e-107
2.2637568e-105
1.1201146e-109
1.2454382e-107
3.6469467e-112
5.7512909e-110
8.9765504e-115
2.1552068e-112
1.5768904e-117
6.2464612e-115
8.5729555e-120
1.3725057e-117
2.8611954e-120
-1.0791642e-115
1.7600029e-115
-8.562215e-113
9.3950882e-113
-4.8332343e-110
4.3497457e-110
-1.9926729e-107
1.500151e-107
-6.4104217e-105
4.1431416e-105
-1.6421607e-102
9.3905459e-103
-3.4550024e-100
1.769677e-100
-6.1532028e-98
2.8513987e-98
-9.4839076e-96
4.0083071e-96
-1.2867314e-93
4.9920306e-94
-1.5573339e-91
5.5739482e-92
-1.6996405e-89
5.6339143e-90
-1.6877507e-87
5.1956032e-88
-1.5363853e-85
4.4001292e-86
-1.2904969e-83
3.4411398e-84
-1.0059184e-81
2.496818e-82
-7.313559e-80
1.6878569e-80
-4.9823931e-78
1.0666916e-78
-3.1940682e-76
6.3219162e-77
-1.9345841e-74
3.5227206e-75
-1.1112687e-72
1.849416e-73
-6.0764203e-71
9.161811e-72
-3.1746682e-69
4.2864101e-70
-1.5908549e-67
1.8934523e-68
-7.677066e-66
7.8805196e-67
-3.5832583e-64
3.0734741e-65
-1.625322e-62
1.1096249e-63
-7.2025984e-61
3.5988273e-62
-3.1514215e-59
9.6280966e-61
-1.4134309e-57
1.3507017e-59
-6.4849943e-56
-8.3319517e-58
-2.8549802e-54
-1.0578843e-55
-1.1579633e-52
-7.4125307e-54
-4.285285e-51
-3.9810313e-52
-1.4368636e-49
-1.7902891e-50
-4.3268223e-48
-6.9097801e-49
-1.1581691e-46
-2.3038814e-47
-2.7222978e-45
-6.622628e-46
-5.5368361e-44
-1.6287964e-44
-9.5664748e-43
-3.3864566e-43
-1.3726269e-41
-5.8592291e-42
-1.599358e-40
-8.2872236e-41
-1.4959697e-39
-9.4266374e-40
-1.1098804e-38
-8.4846654e-39
-6.0079655e-38
-5.8224695e-38
-1.9398033e-37
-2.7943767e-37
-3.4118052e-37
-8.5781755e-37
-4.5137863e-37
-1.7980635e-36
-5.4100843e-37
-3.4123933e-36
7.5027309e-40
-5.923418e-36
5.416505e-37
-5.9187742e-36
4.5134675e-37
-3.407826e-36
3.3897776e-37
-1.7960907e-36
1.8612946e-37
-8.3751428e-37
5.4302491e-38
-2.6505388e-37
7.5894242e-39
-4.8323502e-38
5.2865169e-40
-4.7416596e-39
2.1120344e-41
-2.6713363e-40
6.5659602e-43
-8.251187e-42
3.5124039e-44
-2.5169348e-43
1.4958909e-45
-2.5871119e-44
4.2152807e-47
-1.169077e-45
8.5095988e-49
-2.7333563e-47
1.3955622e-50
-4.4368533e-49
2.0030972e-52
-5.8102782e-51
2.6005587e-54
-6.5249145e-53
3.071362e-56
-6.3409378e-55
3.2139039e-58
-5.14734e-57
1.0662153e-60
-3.0531231e-59
7.7195568e-61
-3.9564591e-62
1.5542912e-61
8.1538048e-63
2.5955639e-63
1.7100745e-63
3.6237734e-65
7.4191725e-65
7.1397294e-67
2.2158956e-66
1.6057028e-68
6.2315791e-68
3.561759e-70
1.6797752e-69
7.4769852e-72
4.2527673e-71
1.4908866e-73
1.0084096e-72
2.8268967e-75
2.2455849e-74
5.0804849e-77
4.7004122e-76
8.6248431e-79
9.2433766e-78
1.3785633e-80
1.7058344e-79
2.0672924e-82
2.9495757e-81
2.897374e-84
4.7686164e-83
3.7792389e-86
7.1889144e-85
4.5659982e-88
1.007461e-86
5.0819381e-90
1.3074403e-88
5.1779523e-92
1.5642354e-90
4.7945111e-94
1.7162395e-92
3.9992096e-96
1.7159565e-94
2.9731011e-98
1.5514088e-96
1.9440499e-100
1.2564167e-98
1.0993005e-102
9.0070782e-101
5.2577891e-105
5.6289787e-103
2.0633981e-107
3.00513e-105
6.4992947e-110
1.3325396e-107
1.6243808e-112
4.9424989e-110
2.9089449e-115
1.4565826e-112
3.6782506e-118
3.1806288e-115
5.954993e-118
-1.5301721e-113
3.2682744e-113
-1.1527587e-110
1.5200204e-110
-6.6187863e-108
7.1547397e-108
-2.7073336e-105
2.4799578e-105
-8.5066108e-103
6.7739917e-103
-2.2140715e-100
1.5298644e-100
-4.8293004e-98
2.9752733e-98
-8.8788848e-96
4.9518116e-96
-1.4044412e-93
7.1438916e-94
-1.9476947e-91
9.0904234e-92
-2.4027743e-89
1.0339506e-89
-2.6673992e-87
1.0621497e-87
-2.6899416e-85
9.937694e-86
-2.4837033e-83
8.5271127e-84
-2.1139078e-81
6.7491546e-82
-1.6681981e-79
4.9517986e-80
-1.2269125e-77
3.3816791e-78
-8.449113e-76
2.1575175e-76
-5.471361e-74
1.2898884e-74
-3.3450272e-72
7.2452708e-73
-1.9381041e-70
3.8318781e-71
-1.0681318e-68
1.9110545e-69
-5.6199228e-67
8.9948575e-68
-2.833466e-65
3.9945136e-66
-1.3743678e-63
1.6703476e-64
-6.4407816e-62
6.5427056e-63
-2.9298908e-60
2.3721606e-61
-1.3003144e-58
7.7380228e-60
-5.6813844e-57
2.0952803e-58
-2.5294109e-55
3.1618931e-57
-1.1543619e-53
-1.5402677e-55
-5.0713782e-52
-2.0938274e-53
-2.054611e-50
-1.4753856e-51
-7.5791767e-49
-7.9448397e-50
-2.5269372e-47
-3.5630248e-48
-7.5495588e-46
-1.3665676e-46
-2.0007422e-44
-4.5162356e-45
-4.6468041e-43
-1.2838681e-43
-9.3203977e-42
-3.1162491e-42
-1.5848993e-40
-6.3812112e-41
-2.2325875e-39
-1.0850673e-39
-2.5457259e-38
-1.5049342e-38
-2.3233469e-37
-1.6752429e-37
-1.6807303e-36
-1.4752497e-36
-8.9327327e-36
-9.937332e-36
-2.8707293e-35
-4.7177292e-35
-5.0347924e-35
-1.4426364e-34
-6.5169679e-35
-3.0046158e-34
-7.8420836e-35
-5.61372e-34
1.1604096e-37
-9.8054789e-34
7.853014e-35
-9.7977547e-34
6.5171626e-35
-5.6062122e-34
5.0037179e-35
-3.0009105e-34
2.7589177e-35
-1.4095288e-34
8.1094236e-36
-4.4842692e-35
1.1705678e-36
-8.3187962e-36
8.6850021e-38
-8.4867394e-37
3.770181e-39
-5.1033434e-38
1.0222664e-40
-1.6895085e-39
5.7055958e-42
-4.3307742e-41
2.525649e-43
-3.8908374e-42
7.4670699e-45
-1.9129475e-43
1.582729e-46
-4.75361e-45
2.7180292e-48
-8.1323933e-47
4.0679993e-50
-1.1153539e-48
5.482053e-52
-1.3041309e-50
6.683848e-54
-1.3113398e-52
7.1736619e-56
-1.092119e-54
3.6615439e-58
-6.5952574e-57
3.1416108e-58
-1.5404979e-59
3.5735697e-59
3.2386927e-60
4.4621536e-61
4.5955964e-61
6.484184e-63
1.6965597e-62
1.3975624e-64
5.1046128e-64
3.1808446e-66
1.4540738e-65
6.9910498e-68
3.9164509e-67
1.4584341e-69
9.8780514e-69
2.8921735e-71
2.3329307e-70
5.4489606e-73
5.1713543e-72
9.7223047e-75
1.0766958e-73
1.6373715e-76
2.1046115e-75
2.5942584e-78
3.8582438e-77
3.8533846e-80
6.6221122e-79
5.3450906e-82
1.0618085e-80
6.8941086e-84
1.586328e-82
8.2282957e-86
2.2009442e-84
9.0369781e-88
2.8249857e-86
9.073923e-90
3.3388714e-88
8.2657685e-92
3.6136279e-90
6.7679533e-94
3.5573758e-92
4.9244487e-96
3.1592074e-94
3.1384056e-98
2.5051009e-96
1.7190672e-100
1.7502948e-98
7.9236447e-103
1.0589953e-100
3.0943427e-105
5.4706516e-103
1.0271099e-107
2.5010101e-105
2.5505615e-110
9.3694605e-108
4.4939426e-113
2.7469852e-110
5.959692e-116
5.9149141e-113
1.2562231e-115
-1.9061656e-111
5.1748911e-111
-1.3454899e-108
2.0698003e-108
-7.8597311e-106
9.9398097e-106
-3.2517915e-103
3.4819485e-103
-1.0312168e-100
9.5616941e-101
-2.6288506e-98
2.1553757e-98
-5.6002192e-96
4.115142e-96
-1.0540341e-93
6.8578492e-94
-1.7247678e-91
1.0241715e-91
-2.4587203e-89
1.3398021e-89
-3.1049857e-87
1.5597117e-87
-3.5181221e-85
1.6346427e-85
-3.6130624e-83
1.5566175e-83
-3.391443e-81
1.3569144e-81
-2.9302116e-79
1.0894258e-79
-2.3444793e-77
8.0972653e-78
-1.7463213e-75
5.5957001e-76
-1.2167217e-73
3.6089223e-74
-7.9638446e-72
2.179068e-72
-4.9162309e-70
1.2348884e-70
-2.8732258e-68
6.5835886e-69
-1.5955633e-66
3.3067571e-67
-8.449381e-65
1.5660898e-65
-4.2824053e-63
6.9922176e-64
-2.0852944e-61
2.9374735e-62
-9.7962655e-60
1.1554344e-60
-4.4600164e-58
4.207784e-59
-1.9774684e-56
1.382015e-57
-8.6058989e-55
3.8044883e-56
-3.7886053e-53
6.3132848e-55
-1.712733e-51
-2.1191078e-53
-7.4903114e-50
-3.2659814e-51
-3.0233176e-48
-2.3472505e-49
-1.1094018e-46
-1.2692108e-47
-3.6719442e-45
-5.6781288e-46
-1.0868989e-43
-2.1641152e-44
-2.8483093e-42
-7.0863589e-43
-6.5294661e-41
-1.9912362e-41
-1.2903452e-39
-4.7670953e-40
-2.1575799e-38
-9.6077447e-39
-2.9805863e-37
-1.6042212e-37
-3.3209443e-36
-2.1788594e-36
-2.9509508e-35
-2.3692447e-35
-2.0761286e-34
-2.0365374e-34
-1.080476e-33
-1.3430258e-33
-3.4438076e-33
-6.2894307e-33
-5.9988175e-33
-1.9095566e-32
-7.5972449e-33
-3.9401317e-32
-9.1310604e-33
-7.2411839e-32
1.494569e-35
-1.2682576e-31
9.1465675e-33
-1.2672523e-31
7.5984289e-33
-7.2315017e-32
5.963433e-33
-3.934818e-32
3.3146318e-33
-1.8670334e-32
9.8494927e-34
-5.9897992e-33
1.4706013e-34
-1.1331921e-33
1.1632944e-35
-1.2026841e-34
5.5239541e-37
-7.7494027e-36
1.4597308e-38
-2.7674102e-37
7.666303e-40
-6.6505523e-39
3.522008e-41
-4.7982384e-40
1.0898504e-42
-2.5642871e-41
2.4207224e-44
-6.7508019e-43
4.3496938e-46
-1.2144262e-44
6.7864839e-48
-1.7417396e-46
9.4896493e-50
-2.1168083e-48
1.1938401e-51
-2.1967674e-50
1.3127212e-53
-1.8681231e-52
9.1212513e-56
-1.1270867e-54
8.479768e-56
-3.4397173e-57
7.9401634e-57
1.04773e-57
8.008931e-59
1.1474356e-58
1.0812668e-60
3.5870342e-60
2.413009e-62
1.044722e-61
5.5156827e-64
2.9525752e-63
1.1953097e-65
7.8533624e-65
2.4682803e-67
1.9576092e-66
4.8568789e-69
4.580765e-68
9.0779649e-71
1.0072011e-69
1.6059775e-72
2.0805961e-71
2.6800081e-74
4.0342296e-73
4.2041829e-76
7.3330623e-75
6.1775748e-78
1.2470457e-76
8.4687076e-80
1.9796547e-78
1.0783315e-81
2.9253325e-80
1.2689499e-83
4.010003e-82
1.3720508e-85
5.0784834e-84
1.3538091e-87
5.9131843e-86
1.2090484e-89
6.2925139e-88
9.6751954e-92
6.0755342e-90
6.8501723e-94
5.2741209e-92
4.2198701e-96
4.0687528e-94
2.2570595e-98
2.7458621e-96
1.0823822e-100
1.6590343e-98
4.4700618e-103
9.0356244e-101
1.4380097e-105
4.1270341e-103
3.5284396e-108
1.5337172e-105
6.1360548e-111
4.4579202e-108
8.5881348e-114
9.4332668e-111
2.2813526e-113
-2.1169595e-109
7.1377437e-109
-1.3839782e-106
2.4294366e-106
-8.2552543e-104
1.1948229e-103
-3.4597195e-101
4.2449357e-101
-1.1058169e-98
1.1753925e-98
-2.8482711e-96
2.6623437e-96
-6.0875557e-94
5.0975039e-94
-1.0971842e-91
8.413196e-92
-1.7997517e-89
1.2258847e-89
-2.6481697e-87
1.6480829e-87
-3.4439246e-85
1.9761367e-85
-4.0005723e-83
2.1232206e-83
-4.1987994e-81
2.0657921e-81
-4.0181163e-79
1.8351807e-79
-3.5324298e-77
1.4984778e-77
-2.8710179e-75
1.1307826e-75
-2.169156e-73
7.9221924e-74
-1.5308494e-71
5.1724644e-72
-1.013586e-69
3.1576197e-70
-6.321422e-68
1.807247e-68
-3.7273453e-66
9.7176766e-67
-2.0853476e-64
4.9169865e-65
-1.110918e-62
2.3431872e-63
-5.6552852e-61
1.0515465e-61
-2.7612556e-59
4.4361715e-60
-1.2982887e-57
1.7512859e-58
-5.9039088e-56
6.4029575e-57
-2.6087579e-54
2.1171227e-55
-1.1277288e-52
5.9358726e-54
-4.888781e-51
1.0841961e-52
-2.1786347e-49
-2.1435183e-51
-9.451226e-48
-4.1659037e-49
-3.7934987e-46
-3.0792031e-47
-1.3822915e-44
-1.6773191e-45
-4.5341848e-43
-7.490094e-44
-1.3276835e-41
-2.8361253e-42
-3.4358607e-40
-9.1973831e-41
-7.765248e-39
-2.5530275e-39
-1.5104274e-37
-6.0248343e-38
-2.4812203e-36
-1.1943257e-36
-3.3579324e-35
-1.9564784e-35
-3.6496e-34
-2.5988657e-34
-3.1497397e-33
-2.7550208e-33
-2.1485333e-32
-2.3056801e-32
-1.0917122e-31
-1.4844787e-31
-3.4402839e-31
-6.8396548e-31
-5.9308014e-31
-2.0562705e-30
-7.3471025e-31
-4.192834e-30
-8.7785918e-31
-7.5737956e-30
1.5839722e-33
-1.3261627e-29
8.7963598e-31
-1.3251074e-29
7.3491778e-31
-7.5636351e-30
5.8973825e-31
-4.1867504e-30
3.3159303e-31
-2.0117863e-30
9.9903272e-32
-6.5255212e-31
1.5456808e-32
-1.2616084e-31
1.3054122e-33
-1.3943041e-32
6.8128825e-35
-9.6691275e-34
1.9097011e-36
-3.7449046e-35
8.7055287e-38
-9.1750046e-37
4.1508354e-39
-4.9720187e-38
1.3425102e-40
-2.8861395e-39
3.1194096e-42
-8.0280544e-41
5.8601764e-44
-1.5152853e-42
9.5271786e-46
-2.2690811e-44
1.3817907e-47
-2.8613715e-46
1.7916373e-49
-3.0558269e-48
2.0101035e-51
-2.6365003e-50
1.7796248e-53
-1.5693767e-52
1.7023509e-53
-4.5122638e-55
1.3401098e-54
2.5475597e-55
1.2529293e-56
2.2957068e-56
1.6924452e-58
6.6855115e-58
3.7880347e-60
1.9060667e-59
8.5988821e-62
5.3173093e-61
1.8416047e-63
1.3957743e-62
3.7640154e-65
3.437641e-64
7.3372878e-67
7.9596382e-66
1.3581268e-68
1.7329079e-67
2.3778511e-70
3.5445192e-69
3.9239954e-72
6.8029646e-71
6.0821298e-74
1.2231461e-72
8.8211331e-76
2.0561254e-74
1.192173e-77
3.2233511e-76
1.4945477e-79
4.6981073e-78
1.7288045e-81
6.3436601e-80
1.833862e-83
7.9006674e-82
1.7708299e-85
9.0281931e-84
1.5426482e-87
9.4042941e-86
1.1986273e-89
8.8572499e-88
8.2055873e-92
7.4636379e-90
5.0257977e-94
5.5805754e-92
2.8699142e-96
3.8668349e-94
1.4266554e-98
2.4533497e-96
5.6791698e-101
1.3280021e-98
1.8081889e-103
6.0079298e-101
4.3974528e-106
2.216787e-103
7.5057993e-109
6.3635908e-106
1.1141868e-111
1.3187113e-108
3.6371216e-111
-2.115783e-107
8.674619e-107
-1.2639522e-104
2.4899436e-104
-7.7231084e-102
1.2589342e-101
-3.2915734e-99
4.5527655e-99
-1.0645382e-96
1.2763863e-96
-2.7605674e-94
2.9165011e-94
-5.9739072e-92
5.6206132e-92
-1.1008876e-89
9.3593644e-90
-1.7359598e-87
1.3642677e-87
-2.4919945e-85
1.7710895e-85
-3.3168893e-83
2.1379677e-83
-3.9753465e-81
2.3708872e-81
-4.2838971e-79
2.3685191e-79
-4.194773e-77
2.152727e-77
-3.7632237e-75
1.7933051e-75
-3.1142055e-73
1.377438e-73
-2.3909798e-71
9.8030129e-72
-1.7116342e-69
6.4902535e-70
-1.14755e-67
4.0108838e-68
-7.2344837e-66
2.3200427e-66
-4.3046721e-64
1.2588547e-64
-2.4260778e-62
6.4178682e-63
-1.2995592e-60
3.0770769e-61
-6.6390995e-59
1.3873578e-59
-3.2463594e-57
5.873159e-58
-1.5251892e-55
2.3248073e-56
-6.9135348e-54
8.5246885e-55
-3.0371683e-52
2.8345673e-53
-1.3005507e-50
8.0913095e-52
-5.5300827e-49
1.6120165e-50
-2.4199142e-47
-1.3471563e-49
-1.0382162e-45
-4.4147399e-47
-4.1349234e-44
-3.4017858e-45
-1.4933646e-42
-1.8741242e-43
-4.8463964e-41
-8.3582979e-42
-1.4017739e-39
-3.1437569e-40
-3.5779332e-38
-1.0092253e-38
-7.963591e-37
-2.7664263e-37
-1.5233604e-35
-6.4321904e-36
-2.4567862e-34
-1.2535475e-34
-3.2541812e-33
-2.0132957e-33
-3.4442239e-32
-2.6123349e-32
-2.8792819e-31
-2.694275e-31
-1.8973854e-30
-2.1893282e-30
-9.3826322e-30
-1.3719984e-29
-2.9155905e-29
-6.2037783e-29
-4.9587601e-29
-1.8426889e-28
-6.0071934e-29
-3.7048078e-28
-7.1055467e-29
-6.5732993e-28
1.3824282e-31
-1.1475735e-27
7.1219937e-29
-1.1466653e-27
6.0096278e-29
-6.5645163e-28
4.9321272e-29
-3.6991489e-28
2.8140015e-29
-1.8039462e-28
8.6171476e-30
-5.928786e-29
1.3847065e-30
-1.1737254e-29
1.2514616e-31
-1.3532137e-30
7.1964682e-33
-1.0101233e-31
2.1425386e-34
-4.2267244e-33
8.4724634e-36
-1.0600496e-34
4.197599e-37
-4.4079986e-36
1.4184848e-38
-2.7739248e-37
3.4441306e-40
-8.1339671e-39
6.7572682e-42
-1.6073148e-40
1.1437913e-43
-2.5077618e-42
1.7189227e-45
-3.2732704e-44
2.2927141e-47
-3.5837699e-46
2.5857118e-49
-3.111843e-48
3.1454951e-51
-2.0842448e-50
3.0307889e-51
-5.7976007e-53
1.2756917e-52
4.3192724e-53
1.2011913e-54
2.84795e-54
2.1159358e-56
8.9595498e-56
4.9798497e-58
2.7126172e-57
1.1399091e-59
7.7761097e-59
2.4601618e-61
2.0727256e-60
5.0442867e-63
5.147303e-62
9.8227844e-65
1.1954317e-63
1.8104965e-66
2.6001758e-65
3.1482528e-68
5.2972928e-67
5.1484696e-70
1.0101096e-68
7.8915866e-72
1.8004125e-70
1.1295915e-73
2.9941042e-72
1.5037008e-75
4.6343695e-74
1.8528141e-77
6.655803e-76
2.1014564e-79
8.836186e-78
2.1794433e-81
1.0793405e-79
2.0500955e-83
1.2060199e-81
1.7307958e-85
1.2236676e-83
1.3121937e-87
1.116433e-85
9.2139358e-90
9.3231773e-88
6.0188189e-92
7.2669714e-90
3.4774385e-94
5.2195896e-92
1.6653396e-96
3.2737833e-94
6.5535885e-99
1.7497768e-96
2.06855e-101
7.8466825e-99
4.9524733e-104
2.8612128e-101
8.2682709e-107
8.0787466e-104
1.3124071e-109
1.6337925e-106
5.1668072e-109
-1.9117972e-105
9.3476253e-105
-1.7532608e-102
2.2566721e-102
-6.4506958e-100
1.1698062e-99
-2.8037327e-97
4.3191097e-97
-9.2112693e-95
1.2302474e-94
-2.418657e-92
2.8471962e-92
-5.2756977e-90
5.5434692e-90
-9.8518404e-88
9.3111744e-88
-1.5985803e-85
1.3741333e-85
-2.2491891e-83
1.7976602e-83
-2.8787917e-81
2.1094117e-81
-3.4818761e-79
2.3109374e-79
-3.867778e-77
2.3729367e-77
-3.8942934e-75
2.2178491e-75
-3.578531e-73
1.8923793e-73
-3.0240668e-71
1.4840982e-71
-2.3647507e-69
1.0755644e-69
-1.7201578e-67
7.23459e-68
-1.1692783e-65
4.5323121e-66
-7.4579055e-64
2.6523225e-64
-4.480094e-62
1.4531454e-62
-2.5435544e-60
7.4659026e-61
-1.3694638e-58
3.6007857e-59
-7.0156624e-57
1.6302729e-57
-3.4315505e-55
6.9198663e-56
-1.6084517e-53
2.7434537e-54
-7.2534181e-52
1.0075106e-52
-3.1606517e-50
3.3641291e-51
-1.3371384e-48
9.7482786e-50
-5.5607395e-47
2.0929083e-48
-2.3785969e-45
8.8327086e-49
-1.005491e-43
-3.91902e-45
-3.9643431e-42
-3.2062738e-43
-1.4164377e-40
-1.7951788e-41
-4.5407031e-39
-8.0046992e-40
-1.2955757e-37
-2.991276e-38
-3.2578157e-36
-9.505357e-37
-7.1351083e-35
-2.5722132e-35
-1.3414733e-33
-5.8916433e-34
-2.1230657e-32
-1.1286089e-32
-2.7504909e-31
-1.7764425e-31
-2.8302344e-30
-2.249167e-30
-2.2851134e-29
-2.2521126e-29
-1.4484104e-28
-1.7714204e-28
-6.9444106e-28
-1.0767938e-27
-2.1230435e-27
-4.7662692e-27
-3.5520402e-27
-1.3961263e-26
-4.2069269e-27
-2.7622919e-26
-4.9055255e-27
-4.8109407e-26
1.012408e-29
-8.3503234e-26
4.9182518e-27
-8.3438047e-26
4.2091964e-27
-4.8045885e-26
3.5339206e-27
-2.7579229e-26
2.0517378e-27
-1.3675985e-26
6.3995719e-28
-4.562211e-27
1.0713764e-28
-9.2678721e-28
1.0389679e-29
-1.1176787e-28
6.5569384e-31
-8.9773548e-30
2.0637561e-32
-4.0328484e-31
7.3032027e-34
-1.0393268e-32
3.6800082e-35
-3.7387691e-34
1.2999794e-36
-2.3008551e-35
3.296661e-38
-7.1001242e-37
6.7502634e-40
-1.4662309e-38
1.1883772e-41
-2.3785557e-40
1.8475415e-43
-3.2041498e-42
2.5097293e-45
-3.5795614e-44
6.986265e-48
-3.0706356e-46
1.096122e-48
-5.0642652e-49
7.6503902e-49
1.3996375e-51
7.9455122e-51
6.4858776e-51
1.0806128e-52
3.1518279e-52
2.5307659e-54
1.1207207e-53
6.0812071e-56
3.5756122e-55
1.3957806e-57
1.0459373e-56
3.0278409e-59
2.8177311e-58
6.2163064e-61
7.0323967e-60
1.2073899e-62
1.634211e-61
2.2128833e-64
3.5443807e-63
3.8160849e-66
7.1797087e-65
6.1739188e-68
1.3577591e-66
9.3405097e-70
2.3945352e-68
1.3165338e-71
3.9312333e-70
1.7214954e-73
5.9929371e-72
2.0778713e-75
8.4560667e-74
2.3011933e-77
1.099862e-75
2.3209804e-79
1.3118578e-77
2.1120632e-81
1.4253575e-79
1.7558026e-83
1.3990065e-81
1.3925435e-85
1.290792e-83
1.0242874e-87
1.1188187e-85
6.7353584e-90
8.9664711e-88
3.7749328e-92
6.3938339e-90
1.7720469e-94
3.9428486e-92
6.8986415e-97
2.0813155e-94
2.1456263e-99
9.2136985e-97
5.0399357e-102
3.3073417e-99
8.2112467e-105
9.1565147e-102
1.4061808e-107
1.8012525e-104
6.5680473e-107
-1.5872301e-103
9.0184497e-103
-1.7724121e-100
1.8828981e-100
-4.8561043e-98
9.7027412e-98
-2.158352e-95
3.6679934e-95
-7.2242288e-93
1.0646887e-92
-1.9278245e-90
2.5038037e-90
-4.264214e-88
4.9442994e-88
-8.0429359e-86
8.4072245e-86
-1.324155e-83
1.2546013e-83
-1.9219898e-81
1.6663501e-81
-2.449603e-79
1.9812273e-79
-2.8557192e-77
2.1292501e-77
-3.1488985e-75
2.1438509e-75
-3.2526033e-73
2.0348339e-73
-3.0767149e-71
1.7876077e-71
-2.664721e-69
1.436907e-69
-2.1281848e-67
1.0635357e-67
-1.5762876e-65
7.2837027e-66
-1.0879907e-63
4.6333811e-64
-7.0274824e-62
2.7460427e-62
-4.264006e-60
1.5200419e-60
-2.4389092e-58
7.8722009e-59
-1.3193818e-56
3.818396e-57
-6.7728147e-55
1.7350371e-55
-3.310121e-53
7.3775532e-54
-1.5457056e-51
2.9261359e-52
-6.9226485e-50
1.0747566e-50
-2.9861534e-48
3.5976997e-49
-1.2462013e-46
1.0559801e-47
-5.0803659e-45
2.4085656e-46
-2.1036431e-43
1.6619718e-45
-8.6782084e-42
-2.9019034e-43
-3.3707543e-40
-2.602861e-41
-1.1892875e-38
-1.4857754e-39
-3.7612523e-37
-6.6407597e-38
-1.0574402e-35
-2.4673701e-36
-2.6172651e-34
-7.7624189e-35
-5.6368286e-33
-2.0740363e-33
-1.0412687e-31
-4.6807378e-32
-1.617116e-30
-8.8153426e-31
-2.0484071e-29
-1.3598186e-29
-2.046063e-28
-1.6785576e-28
-1.5903918e-27
-1.6281985e-27
-9.6439747e-27
-1.235339e-26
-4.4625291e-26
-7.2541055e-26
-1.3395032e-25
-3.1343608e-25
-2.1984153e-25
-9.037137e-25
-2.5449176e-25
-1.7551928e-24
-2.9116401e-25
-2.9972625e-24
6.5190987e-28
-5.1546455e-24
2.9202363e-25
-5.1506661e-24
2.5467069e-25
-2.9933446e-24
2.1878015e-25
-1.7523335e-24
1.2961393e-25
-8.8575918e-25
4.1256254e-26
-3.0046768e-25
7.2262533e-27
-6.2790121e-26
7.5551426e-28
-7.9511801e-27
5.2225141e-29
-6.8844878e-28
1.7283601e-30
-3.3052102e-29
5.4913244e-32
-8.7641216e-31
2.8162113e-33
-2.8828872e-32
1.0401637e-34
-1.6518924e-33
2.7556562e-36
-5.3646697e-35
5.8871441e-38
-1.1569625e-36
1.0772745e-39
-1.9489187e-38
1.7299373e-41
-2.7026618e-40
2.406929e-43
-3.0637196e-42
1.3971759e-45
-2.595109e-44
6.714365e-46
-9.0418484e-47
6.3286605e-47
4.4097677e-48
6.9054612e-49
1.0296777e-48
1.2137787e-50
4.2788329e-50
2.9821362e-52
1.4938549e-51
7.15682e-54
4.7178982e-53
1.6285742e-55
1.36394e-54
3.5108146e-57
3.6383668e-56
7.1610632e-59
9.0036077e-58
1.3796582e-60
2.0745446e-59
2.5036855e-62
4.45773e-61
4.266952e-64
8.9342816e-63
6.8082244e-66
1.6691038e-64
1.0134553e-67
2.902589e-66
1.4019413e-69
4.6883453e-68
1.793913e-71
7.0143689e-70
2.1115577e-73
9.6851249e-72
2.2702464e-75
1.2283197e-73
2.2284666e-77
1.4218964e-75
2.0450928e-79
1.517776e-77
1.7844729e-81
1.5293534e-79
1.4490312e-83
1.450028e-81
1.0671131e-85
1.2786458e-83
6.84335e-88
1.0192832e-85
3.7269778e-90
7.1097549e-88
1.7240775e-92
4.3084053e-90
6.6082162e-95
2.239245e-92
2.0163182e-97
9.7452418e-95
4.63326e-100
3.4313757e-97
1.0961871e-102
9.2868072e-100
1.3720171e-105
1.7750377e-102
7.5009438e-105
-1.1892102e-101
7.7877093e-101
-1.3188551e-98
1.3865716e-98
-3.2443026e-96
7.0864978e-96
-1.4783398e-93
2.7503572e-93
-5.0543198e-91
8.1574863e-91
-1.375165e-88
1.9557836e-88
-3.0967377e-86
3.9307522e-86
-5.936043e-84
6.7938679e-84
-9.8964209e-82
1.0291189e-81
-1.4615017e-79
1.386528e-79
-1.9271933e-77
1.680034e-77
-2.2617181e-75
1.8387703e-75
-2.4286866e-73
1.8309901e-73
-2.458538e-71
1.705014e-71
-2.371359e-69
1.5020304e-69
-2.1153944e-67
1.2432737e-67
-1.7322174e-65
9.4359077e-66
-1.3102766e-63
6.6001227e-64
-9.2038555e-62
4.273182e-62
-6.0302986e-60
2.5693461e-60
-3.6998535e-58
1.4386348e-58
-2.1332817e-56
7.5151646e-57
-1.1597783e-54
3.6670879e-55
-5.964386e-53
1.6720946e-53
-2.9109355e-51
7.1187642e-52
-1.3528537e-49
2.8221049e-50
-6.0090323e-48
1.035306e-48
-2.5611802e-46
3.4674155e-47
-1.0519634e-44
1.0270637e-45
-4.1957982e-43
2.4541271e-44
-1.6758489e-41
2.8741907e-43
-6.7070429e-40
-1.7298255e-41
-2.5568566e-38
-1.811648e-39
-8.891406e-37
-1.0674928e-37
-2.770546e-35
-4.8004655e-36
-7.6673012e-34
-1.7752949e-34
-1.8666362e-32
-5.5330687e-33
-3.95182e-31
-1.4605085e-31
-7.1727664e-30
-3.2497449e-30
-1.0935868e-28
-6.021579e-29
-1.3545956e-27
-9.10754e-28
-1.3115749e-26
-1.0955143e-26
-9.7803786e-26
-1.0270929e-25
-5.63488e-25
-7.4857853e-25
-2.5016163e-24
-4.2231718e-24
-7.3584736e-24
-1.7740018e-23
-1.181e-23
-5.0173548e-23
-1.3355922e-23
-9.5167147e-23
-1.4911161e-23
-1.5873109e-22
3.6740922e-26
-2.7073808e-22
1.4961875e-23
-2.7053132e-22
1.3367792e-23
-1.5852554e-22
1.1756111e-23
-9.5007889e-23
7.128896e-24
-4.9202456e-23
2.319844e-24
-1.7030237e-23
4.2765376e-25
-3.6751453e-24
4.8566506e-26
-4.9167241e-25
3.6764723e-27
-4.6012644e-26
1.2712009e-28
-2.3476515e-27
3.6031165e-30
-6.4079642e-29
1.8828966e-31
-1.9134236e-30
7.266782e-33
-1.0264723e-31
2.012517e-34
-3.5046013e-33
4.4882656e-36
-7.8910348e-35
8.5368132e-38
-1.3794224e-36
1.4146109e-39
-1.9654135e-38
2.0089746e-41
-2.2480284e-40
1.781494e-43
-1.8380487e-42
1.07462e-43
-9.469087e-45
6.2190326e-45
1.1507763e-45
6.4939244e-47
1.3154664e-46
1.2663697e-48
5.1220958e-48
3.1764677e-50
1.7723222e-49
7.6262525e-52
5.5647873e-51
1.7328624e-53
1.600732e-52
3.7254443e-55
4.2501345e-54
7.5619394e-57
1.0462511e-55
1.4462012e-58
2.394793e-57
2.5985372e-60
5.102542e-59
4.3731295e-62
1.0119165e-60
6.8705733e-64
1.8660452e-62
1.0039568e-65
3.1946542e-64
1.3586702e-67
5.0647302e-66
1.6940697e-69
7.4121649e-68
1.9329677e-71
9.9710234e-70
2.0341072e-73
1.2253424e-71
2.0439483e-75
1.413887e-73
1.9466273e-77
1.5468455e-75
1.7259522e-79
1.5920221e-77
1.402779e-81
1.5300748e-79
1.0082219e-83
1.3433587e-81
6.2339172e-86
1.0424576e-83
3.3335066e-88
7.1117801e-86
1.5161452e-90
4.2318973e-88
5.6939576e-93
2.1579849e-90
1.6995771e-95
9.2019841e-93
3.8106861e-98
3.1695178e-95
1.4974773e-100
8.3629898e-98
1.2290093e-103
1.6013402e-100
7.726449e-103
-7.9201395e-100
5.9273118e-99
-8.4882804e-97
8.9222066e-97
-1.9059742e-94
4.5211515e-94
-8.9254897e-92
1.8074144e-91
-3.1271537e-89
5.4948128e-89
-8.7026203e-87
1.3474513e-86
-2.0020774e-84
2.7660708e-84
-3.9173058e-82
4.8782526e-82
-6.6575101e-80
7.5333779e-80
-9.9930529e-78
1.0336232e-77
-1.3441958e-75
1.2748804e-75
-1.6313662e-73
1.4260625e-73
-1.7828209e-71
1.4520985e-71
-1.7873999e-69
1.352962e-69
-1.6857996e-67
1.1771218e-67
-1.5132737e-65
9.6799354e-66
-1.2714842e-63
7.5000067e-64
-9.8599113e-62
5.3791904e-62
-7.068352e-60
3.5549408e-60
-4.7077744e-58
2.1734471e-58
-2.9251195e-56
1.2328535e-56