/*--------------------------------*- C++ -*----------------------------------*\
  =========                 |
  \\      /  F ield         | OpenFOAM: The Open Source CFD Toolbox
   \\    /   O peration     | Website:  https://openfoam.org
    \\  /    A nd           | Version:  9
     \\/     M anipulation  |
\*---------------------------------------------------------------------------*/
FoamFile
{
    format      ascii;
    class       surfaceScalarField;
    location    "0.11";
    object      phi;
}
// * * * * * * * * * * * * * * * * * * * * * * * * * * * * * * * * * * * * * //

dimensions      [0 3 -1 0 0 0 0];

internalField   nonuniform List<scalar> 
19800
(
-0.00012165655
0.0001254636
-0.00016750222
0.0001252819
-0.00021336246
0.00012564758
-0.00025908443
0.00012577487
-0.0003046356
0.00012596928
-0.00034997429
0.00012614778
-0.00039504117
0.0001262827
-0.00043975242
0.00012633761
-0.00048400763
0.00012627182
-0.00052770646
0.00012603783
-0.00057073661
0.00012558866
-0.00061295629
0.00012486681
-0.00065423192
0.00012381816
-0.00069440717
0.00012239205
-0.00073330755
0.00012052224
-0.00077075725
0.00011812457
-0.0008065742
0.0001151642
-0.000840547
0.0001115735
-0.00087247533
0.00010728903
-0.00090216313
0.00010225727
-0.00092940162
9.6433831e-05
-0.00095397467
8.9770552e-05
-0.00097568312
8.2229722e-05
-0.00099433154
7.378409e-05
-0.0010097256
6.4415633e-05
-0.0010216679
5.4108459e-05
-0.0010299695
4.2844732e-05
-0.0010344705
3.0613335e-05
-0.001035108
1.7409883e-05
-0.0010322511
3.2215912e-06
-0.0010254667
-1.173617e-05
-0.0010134874
-2.5823152e-05
-0.00099646538
-4.1680867e-05
-0.00097480828
-5.8384613e-05
-0.00094835655
-7.5705609e-05
-0.0009169602
-9.3524949e-05
-0.0008805227
-0.00011170969
-0.00083900169
-0.00013010651
-0.00079239938
-0.00014853607
-0.00074075016
-0.00016678094
-0.00068414588
-0.00018458669
-0.00062272803
-0.00020168024
-0.00055669931
-0.000217782
-0.00048635148
-0.00023260782
-0.00041207401
-0.00024588037
-0.00033433299
-0.00025734708
-0.0002536433
-0.00026678084
-0.00017058329
-0.00027398201
-8.5781619e-05
-0.00027885621
8.9813012e-08
-0.0002813926
8.5958129e-05
-0.00028139084
0.00017075116
-0.00027885055
0.00025379789
-0.00027397418
0.00033446802
-0.00026677218
0.00041218645
-0.000257338
0.00048644174
-0.000245866
0.00055676436
-0.00023259127
0.00062276582
-0.00021776313
0.0006841592
-0.00020165739
0.00074074174
-0.00018456137
0.00079237142
-0.00016675498
0.00083895346
-0.00014850849
0.00088045133
-0.00013007731
0.00091686482
-0.00011168157
0.0009482368
-9.3499331e-05
0.00097466358
-7.5679491e-05
0.00099629422
-5.8357249e-05
0.001013288
-4.165343e-05
0.0010252466
-2.5798114e-05
0.001031995
-1.1698484e-05
0.0010348404
3.2542543e-06
0.0010341854
1.7445801e-05
0.0010296657
3.0645893e-05
0.0010213409
4.2868325e-05
0.0010093754
5.4126959e-05
0.00099396563
6.443455e-05
0.0009753072
7.3801944e-05
0.00095359319
8.2239672e-05
0.00092900945
8.976728e-05
0.00090175986
9.6424681e-05
0.00087206782
0.00010224582
0.00084014371
0.00010727324
0.0008061817
0.00011155057
0.00077038387
0.00011513346
0.00073295385
0.00011808519
0.00069407232
0.00012047475
0.00065391662
0.00012234424
0.00061266391
0.00012376691
0.00057047091
0.00012480761
0.00052747398
0.00012552011
0.00048381303
0.00012595747
0.00043960138
0.0001261792
0.00039494286
0.00012622734
0.00034993836
0.00012615323
0.00030466831
0.00012599541
0.00025919506
0.00012578541
0.00021355714
0.00012555276
0.00016776853
0.00012537121
0.0001219717
0.00012502751
0.00012508941
-0.00012160377
0.00017114969
-0.00016733563
0.00017101907
-0.00021302361
0.00017133135
-0.00025864911
0.0001713995
-0.00030417578
0.00017149337
-0.00034953625
0.0001715054
-0.00039466216
0.00017140367
-0.00043948039
0.00017115147
-0.00048391138
0.00017069967
-0.00052786456
0.00016998575
-0.00057119959
0.00016892199
-0.00061381186
0.00016748165
-0.00065555394
0.00016556372
-0.00069626747
0.00016310716
-0.00073578687
0.00016003929
-0.00077395178
0.00015628779
-0.00081054905
0.00015176288
-0.00084539022
0.00014641394
-0.00087827837
0.00014017401
-0.00090900467
0.00013298263
-0.000937334
0.00012476311
-0.00096307136
0.00011550669
-0.00098599759
0.00010515753
-0.0010059012
9.3693381e-05
-0.0010225744
8.1094076e-05
-0.0010358137
6.7351921e-05
-0.0010454493
5.2487525e-05
-0.0010513237
3.6497959e-05
-0.0010533155
1.9410691e-05
-0.0010514051
1.3178435e-06
-0.0010454314
-1.7703973e-05
-0.0010339599
-3.7289781e-05
-0.0010178171
-5.7820014e-05
-0.00099686257
-7.9336043e-05
-0.00097092402
-0.00010164156
-0.00093985477
-0.00012459161
-0.00090353882
-0.00014802251
-0.00086189588
-0.00017174938
-0.00081488541
-0.00019555014
-0.00076251809
-0.00021914815
-0.0007048484
-0.00024225155
-0.0006420242
-0.00026450141
-0.00057426575
-0.00028553847
-0.00050189529
-0.00030497536
-0.0004253068
-0.00032246723
-0.00034498856
-0.00033766394
-0.00026154919
-0.00035021961
-0.00017567319
-0.00035986055
-8.8143378e-05
-0.00036638928
1.0443515e-07
-0.00036964223
8.8349524e-05
-0.0003696375
0.00017587142
-0.00036637492
0.0002617352
-0.00035983893
0.00034515695
-0.00035019302
0.00042545358
-0.00033763323
0.00050201798
-0.00032243116
0.00057435812
-0.00030493214
0.00064208559
-0.00028549257
0.0007048805
-0.0002644539
0.00076252237
-0.00024220169
0.00081486799
-0.00021909588
0.00086185727
-0.00019549659
0.0009034753
-0.00017169781
0.00093976749
-0.00014797265
0.00097081239
-0.00012454083
0.00099672249
-0.00010158942
0.0010176489
-7.9287269e-05
0.0010337682
-5.7775061e-05
0.001045214
-3.7243785e-05
0.0010511687
-1.7651336e-05
0.0010530524
1.3690514e-06
0.0010510325
1.9461795e-05
0.0010451344
3.654342e-05
0.0010354828
5.2523386e-05
0.0010222284
6.7381529e-05
0.0010055404
8.112343e-05
0.00098561996
9.3720411e-05
0.0009626785
0.00010517645
0.00093693253
0.0001155108
0.00090859538
0.00012475539
0.00087786745
0.00013296893
0.00084498353
0.00014015568
0.00081015118
0.00014638396
0.00077356521
0.00015172126
0.00073541359
0.00015623703
0.0006959118
0.00015997566
0.00065521783
0.00016303769
0.00061349741
0.00016548862
0.00057090968
0.00016739576
0.00052760548
0.00016882435
0.00048368961
0.00016987262
0.0004393013
0.0001705666
0.0003945271
0.00017100288
0.00034944343
0.00017123623
0.00030413179
0.0001713057
0.00025865052
0.00017126913
0.00021305572
0.00017115316
0.00016740833
0.00017103175
0.00012172041
0.00017073136
0.00017074107
-0.00012159116
0.00021679472
-0.00016731534
0.00021674121
-0.0002129967
0.00021701364
-0.00025865438
0.00021705616
-0.00030422761
0.00021706498
-0.00034967739
0.0002169513
-0.00039494956
0.00021667245
-0.00043997566
0.00021617585
-0.00048466682
0.00021538628
-0.00052892603
0.00021424146
-0.00057265284
0.00021264818
-0.00061571081
0.00021054025
-0.0006579746
0.00020782747
-0.00069929256
0.00020442171
-0.00073949294
0.00020023622
-0.00077837902
0.00019517379
-0.00081578554
0.00018916835
-0.0008514981
0.00018212293
-0.00088530129
0.00017397572
-0.00091697268
0.00016465433
-0.00094630953
0.00015409881
-0.00097306612
0.00014226321
-0.00099702351
0.00012911871
-0.0010179665
0.00011464056
-0.0010356835
9.8813145e-05
-0.001049963
8.1634553e-05
-0.0010606049
6.3135844e-05
-0.0010674182
4.3317707e-05
-0.0010702678
2.2264442e-05
-0.0010689402
-5.8012433e-09
-0.0010633847
-2.3255075e-05
-0.0010533565
-4.7316252e-05
-0.0010380342
-7.314247e-05
-0.0010177711
-9.9596198e-05
-0.0009924197
-0.0001269874
-0.00096181346
-0.00015519495
-0.00092580321
-0.00018403221
-0.00088426502
-0.00021328672
-0.00083712242
-0.00024269293
-0.00078433818
-0.00027193151
-0.00072594818
-0.00030063698
-0.00066207052
-0.00032837487
-0.00059289588
-0.00035471007
-0.00051872362
-0.00037914394
-0.00043999321
-0.00040119679
-0.00035724846
-0.00042041044
-0.00027111258
-0.00043635639
-0.00018230254
-0.00044867059
-9.1617131e-05
-0.00045707518
1.1893591e-07
-0.0004613802
9.1852615e-05
-0.00046137345
0.0001825318
-0.00045705534
0.00027133159
-0.00044863625
0.00035745231
-0.00043630847
0.000440178
-0.00042035269
0.00051888142
-0.00040113228
0.00059302251
-0.00037907313
0.00066216431
-0.0003546355
0.00072600813
-0.00032829829
0.00078436662
-0.00030055942
0.00083712594
-0.00027185199
0.00088424141
-0.00024261135
0.00092574982
-0.00021320726
0.00096173325
-0.00018395684
0.00099231373
-0.00015512128
0.0010176386
-0.00012691062
0.001037875
-9.9521302e-05
0.0010531696
-7.3066199e-05
0.0010631659
-4.7240694e-05
0.0010686971
-2.3181919e-05
0.0010700057
6.1076899e-08
0.0010671366
2.2331374e-05
0.0010602979
4.3382944e-05
0.00104963
6.3195612e-05
0.0010353275
8.1686316e-05
0.001017593
9.8855594e-05
0.00099663979
0.00011467453
0.00097267018
0.00012914085
0.00094590547
0.00014227404
0.0009165588
0.00015409702
0.00088488229
0.00016464249
0.00085108216
0.00017395411
0.00081537762
0.00018209003
0.00077798053
0.00018912004
0.00073910416
0.00019511441
0.00069892044
0.000200162
0.00065762382
0.00020433747
0.00061538144
0.00020773125
0.00057234711
0.00021042884
0.00052864573
0.00021252156
0.00048442255
0.00021409566
0.00043976506
0.00021522228
0.00039478041
0.00021598871
0.00034954686
0.00021646818
0.00030413965
0.00021671703
0.00025860713
0.00021679299
0.00021299324
0.00021675951
0.00016733493
0.00021668298
0.00012166445
0.00021640872
0.00021636658
-0.00012147675
0.00026239537
-0.00016717985
0.00026244757
-0.00021288728
0.00026272155
-0.00025859951
0.00026276752
-0.0003042855
0.00026274758
-0.0003498943
0.00026255732
-0.00039537512
0.0002621531
-0.00044067745
0.00026147558
-0.000485723
0.00026042861
-0.0005304082
0.00025892463
-0.00057464361
0.00025688233
-0.00061830166
0.00025419706
-0.00066124684
0.00025076879
-0.00070332509
0.00024649563
-0.00074436566
0.00024127584
-0.00078420339
0.00023501046
-0.00082262383
0.00022758489
-0.00085942748
0.00021892426
-0.00089438665
0.00020893541
-0.0009272733
0.00019754052
-0.00095786602
0.00018469062
-0.00098592734
0.00017032662
-0.0010112208
0.00015441567
-0.0010335153
0.00013693661
-0.0010525848
0.00011788368
-0.0010682165
9.7269528e-05
-0.0010801959
7.5119816e-05
-0.0010883375
5.1462878e-05
-0.001092438
2.6367444e-05
-0.0010923235
-1.1813694e-07
-0.0010877071
-2.7869733e-05
-0.0010782344
-5.6788369e-05
-0.0010640673
-8.7308731e-05
-0.0010447566
-0.00011890254
-0.0010201496
-0.00015158769
-0.00099010072
-0.00018524127
-0.00095443436
-0.00021969979
-0.0009129843
-0.00025473512
-0.00086561841
-0.00029005541
-0.00081225809
-0.00032528975
-0.0007528909
-0.00036000028
-0.00068757184
-0.00039368907
-0.00061651106
-0.00042576807
-0.00054000856
-0.00045564508
-0.00045849999
-0.00048270582
-0.00037255724
-0.00050635319
-0.00028287397
-0.00052603705
-0.0001902547
-0.00054128817
-9.5594368e-05
-0.00055173754
1.3584749e-07
-0.00055711469
9.5866362e-05
-0.00055710464
0.0001905234
-0.00055170785
0.00028313363
-0.00054123795
0.00037280032
-0.00052596791
0.00045872226
-0.00050626995
0.00054020309
-0.000482613
0.00061667386
-0.00045554437
0.0006877006
-0.00042566115
0.00075298247
-0.00039357865
0.00081231366
-0.00035989069
0.00086564387
-0.00032518189
0.00091297762
-0.00028994752
0.0009543971
-0.00025462628
0.00099003529
-0.00021959144
0.0010200546
-0.00018513623
0.0010446331
-0.00015148752
0.0010639134
-0.00011880003
0.0010780542
-8.7206855e-05
0.0010875033
-5.6686268e-05
0.0010920868
-2.7766207e-05
0.001092173
-2.3349639e-08
0.0010880453
2.6459311e-05
0.0010798771
5.1550377e-05
0.001067878
7.5197744e-05
0.0010522302
9.7336462e-05
0.0010331475
0.0001179409
0.0010108358
0.00013698338
0.00098552264
0.0001544495
0.00095744601
0.00017034658
0.00092684539
0.00018469574
0.00089395472
0.00019753068
0.00085899599
0.00020891246
0.00082219914
0.00021888845
0.00078378889
0.000227533
0.00074396555
0.00023493942
0.00070293441
0.00024119227
0.00066087442
0.00024639603
0.00061794962
0.00025065162
0.00057431593
0.00025406336
0.0005301073
0.00025672988
0.00048545109
0.00025875093
0.00044044227
0.00026022836
0.00039518354
0.00026124776
0.00034972656
0.00026192344
0.00030415768
0.00026228388
0.00025852516
0.00026243029
0.00021284231
0.00026244108
0.00016716447
0.0002623608
0.00012150498
0.00026207309
0.00026194504
-0.00012129553
0.00030798325
-0.00016700119
0.00030815514
-0.00021275236
0.00030847284
-0.00025854835
0.00030856064
-0.0003043559
0.00030855283
-0.00035016862
0.00030837118
-0.00039595092
0.00030793521
-0.00044162112
0.00030714461
-0.00048712127
0.00030592759
-0.00053234626
0.00030414816
-0.00057721787
0.00030175242
-0.00062161539
0.00029859111
-0.0006654029
0.00029455241
-0.00070842622
0.00028951863
-0.00075052132
0.00028337111
-0.00079149764
0.00027598344
-0.00083115094
0.00026723514
-0.00086926517
0.00025703875
-0.00090562178
0.00024529212
-0.00093996306
0.00023188042
-0.00097205858
0.0002167866
-0.0010016556
0.00019992606
-0.001028507
0.00018126835
-0.0010523662
0.00016079628
-0.0010729919
0.00013851148
-0.0010901501
0.00011443122
-0.0011036136
8.8585832e-05
-0.0011131778
6.1029232e-05
-0.001118618
3.1809819e-05
-0.0011197688
1.0336042e-06
-0.0011163975
-3.1240511e-05
-0.0011082843
-6.4898854e-05
-0.0010951479
-0.0001004407
-0.0010768357
-0.00013721057
-0.0010531365
-0.00017528292
-0.0010238189
-0.00021455662
-0.00098865758
-0.00025486101
-0.00094742654
-0.000295964
-0.00089993082
-0.00033754717
-0.00084601651
-0.00037920194
-0.00078559362
-0.00042042015
-0.00071869632
-0.00046058214
-0.00064546815
-0.00049899457
-0.00056620374
-0.00053490881
-0.00048135908
-0.00056754903
-0.00039155079
-0.0005961584
-0.00029754438
-0.00062003988
-0.00020024008
-0.00063859207
-0.00010064173
-0.00065133769
1.6373799e-07
-0.00065792158
0.00010096796
-0.000657906
0.00020055995
-0.00065129423
0.00029785103
-0.00063852247
0.00039183449
-0.00061994797
0.00048161476
-0.00059604851
0.00056642779
-0.00056742537
0.00064565883
-0.00053477505
0.00071885205
-0.0004988544
0.00078570899
-0.00046043706
0.00084609338
-0.00042027435
0.00089997433
-0.0003790593
0.00094743492
-0.00033740658
0.00098863335
-0.00029582499
0.0010237625
-0.0002547238
0.0010530496
-0.00021442177
0.0010767173
-0.00017515294
0.0010950026
-0.0001370823
0.0011081055
-0.00010031202
0.001116185
-6.4768845e-05
0.0011195271
-3.1111264e-05
0.0011183487
1.1541677e-06
0.0011128857
3.192215e-05
0.0011032977
6.1138009e-05
0.0010898118
8.8686531e-05
0.0010726285
0.00011451699
0.0010519822
0.00013858595
0.0010281057
0.00016085979
0.0010012382
0.00018131893
0.00097162531
0.00019995903
0.00093951874
0.00021680079
0.00090517304
0.000231876
0.00086881597
0.00024527131
0.00083070411
0.00025700146
0.00079105565
0.0002671792
0.0007500883
0.00027590616
0.00070800734
0.00028327387
0.0006650018
0.000289404
0.00062123811
0.00029441892
0.00057686735
0.00029843509
0.00053202109
0.00030157211
0.00048682176
0.00030394882
0.00044136187
0.0003056888
0.00039572031
0.00030688188
0.00034999356
0.00030765113
0.00030422157
0.00030805541
0.00025842498
0.00030822841
0.00021267215
0.00030819126
0.00016695169
0.00030807779
0.00012128379
0.00030774833
0.00030750645
-0.0001209985
0.00035356905
-0.00016673925
0.00035389653
-0.00021256917
0.00035430045
-0.00025849526
0.00035448499
-0.00030450596
0.00035456544
-0.00035057505
0.00035444182
-0.0003966673
0.0003540287
-0.00044274864
0.00035322707
-0.00048874387
0.0003519229
-0.00053463584
0.00035003951
-0.00058027085
0.00034738483
-0.00062554249
0.00034385981
-0.00067032041
0.00033933134
-0.00071445832
0.00033365881
-0.00075778207
0.00032669305
-0.00080009971
0.00031829779
-0.0008412077
0.00030834275
-0.00088086347
0.00029669481
-0.00091882664
0.00028325371
-0.00095488036
0.00026793319
-0.00098872625
0.00025063365
-0.0010201063
0.00023130709
-0.0010487559
0.00020991808
-0.0010744119
0.00018645418
-0.001096818
0.00016092133
-0.0011157276
0.00013334381
-0.0011309025
0.00010376201
-0.0011421157
7.2243981e-05
-0.0011491498
3.8846608e-05
-0.001151787
3.6730274e-06
-0.001149796
-3.3229176e-05
-0.0011430341
-7.1655593e-05
-0.0011312917
-0.00011217729
-0.0011142337
-0.00015426675
-0.0010916515
-0.00019786415
-0.0010632774
-0.00024292715
-0.0010288227
-0.00028931276
-0.00098800515
-0.00033678028
-0.00094051522
-0.00038503558
-0.00088611055
-0.00043360568
-0.00082461768
-0.00048191093
-0.00075597593
-0.00052922008
-0.00068027861
-0.00057468906
-0.00059779695
-0.00061738666
-0.00050900269
-0.00065633931
-0.00041456912
-0.00069058982
-0.00031535332
-0.0007192545
-0.00021237498
-0.00074157065
-0.00010677684
-0.00075693519
1.988885e-07
-0.00076489613
0.00010717064
-0.00076487453
0.0002127554
-0.00075687571
0.00031571276
-0.00074147704
0.00041489791
-0.00071913264
0.00050929447
-0.00069044626
0.00059804897
-0.0006561806
0.00068049086
-0.0006172165
0.00075615114
-0.00057451152
0.00082474927
-0.00052903805
0.00088620062
-0.0004817262
0.00094056864
-0.00043342552
0.00098802415
-0.00038486253
0.0010288097
-0.00033661113
0.0010632284
-0.00028914419
0.0010915676
-0.00024276489
0.0011141189
-0.00019770519
0.0011311465
-0.00015411107
0.00114286
-0.0001120247
0.0011495887
-7.1502253e-05
0.0011515464
-3.3074159e-05
0.001148879
3.820223e-06
0.0011418175
3.8984162e-05
0.001130579
7.2376335e-05
0.0011153773
0.00010388535
0.0010964419
0.000133452
0.0010740107
0.00016101364
0.0010483369
0.0001865328
0.0010196719
0.00020998087
0.00098827691
0.00023135188
0.0009544198
0.00025065835
0.00091835874
0.0002679373
0.00088039196
0.00028323391
0.00084073615
0.00029665293
0.00079963304
0.00030827999
0.00075732286
0.00031821299
0.00071401426
0.00032658522
0.0006698946
0.00033352812
0.00062513893
0.00033917833
0.00057989613
0.00034367807
0.00053429109
0.00034717526
0.00048844494
0.00034979208
0.0004424719
0.00035166222
0.00039642251
0.00035293489
0.00035036428
0.00035370889
0.00030433043
0.00035409296
0.0002583661
0.00035419458
0.00021247608
0.00035408064
0.00016668608
0.00035386836
0.0001209873
0.00035344664
0.00035306447
-0.00012061442
0.00039915596
-0.00016636919
0.00039964934
-0.00021227969
0.00040020985
-0.00025833647
0.00040054395
-0.00030454637
0.00040077724
-0.00035090024
0.00040079813
-0.00039737653
0.00040050791
-0.00044396281
0.00039981521
-0.00049058953
0.00039855024
-0.00053717911
0.00039662722
-0.00058366846
0.00039387159
-0.00062995403
0.00039014706
-0.00067587352
0.00038525489
-0.0007212987
0.00037908406
-0.00076604835
0.00037143965
-0.00080992202
0.00036217028
-0.00085269978
0.00035112049
-0.00089414712
0.00033814049
-0.00093400699
0.00032311181
-0.00097200003
0.00030592621
-0.0010078498
0.00028648359
-0.0010412722
0.00026472929
-0.0010719798
0.00024062727
-0.001099685
0.00021416318
-0.0011241124
0.00018535214
-0.0011449996
0.00015423271
-0.0011621001
0.00012086332
-0.0011751641
8.5309802e-05
-0.0011840074
4.7693843e-05
-0.0011883595
8.0303363e-06
-0.0011879981
-3.3585827e-05
-0.0011828031
-7.6846053e-05
-0.001172647
-0.00012232934
-0.0011570595
-0.0001698526
-0.0011358412
-0.00021908128
-0.001108685
-0.00027007937
-0.0010752405
-0.00032275402
-0.0010350821
-0.00037693894
-0.00098783106
-0.00043228629
-0.00093309796
-0.00048833738
-0.00087057749
-0.00054442864
-0.00080009014
-0.00059970289
-0.00072164582
-0.00065313044
-0.00063547681
-0.00070355286
-0.00054206982
-0.00074974315
-0.00044216767
-0.00079048984
-0.00033674354
-0.00082467584
-0.0002269705
-0.00085134294
-0.00011416627
-0.00086973931
2.357864e-07
-0.00087929855
0.00011463187
-0.0008792694
0.00022741891
-0.00086966108
0.0003371654
-0.00085122239
0.00044255296
-0.00082451914
0.00054241091
-0.00079030546
0.00063576891
-0.00074954073
0.00072188802
-0.00070333799
0.00080028823
-0.00065290673
0.00087073016
-0.0005994774
0.00093320386
-0.00054420393
0.00098789305
-0.0004881178
0.0010351044
-0.00043207584
0.0010752253
-0.00037673488
0.0011086389
-0.00032255997
0.0011357612
-0.00026989037
0.0011569466
-0.00021889464
0.0011725037
-0.00016966985
0.001182629
-0.00012215224
0.0011877948
-7.6669397e-05
0.0011881165
-3.3398475e-05
0.0011837303
8.2050117e-06
0.001174856
4.7857817e-05
0.0011617636
8.5467191e-05
0.0011446373
0.00012101263
0.0011237252
0.00015436628
0.0010992718
0.00018546574
0.0010715438
0.00021425888
0.0010408186
0.00024070651
0.0010073807
0.00026478774
0.00097151721
0.00028651877
0.00093351318
0.00030593698
0.00089364969
0.00032309687
0.00085220289
0.0003381013
0.0008094314
0.0003510575
0.0007655659
0.00036207982
0.00072083189
0.0003713206
0.00067542407
0.00037893538
0.00062952208
0.00038508146
0.00058326484
0.0003899341
0.00053680476
0.0003936313
0.00049024279
0.00039635761
0.00044365204
0.00039825161
0.00039711014
0.0003994757
0.00035066732
0.00040014706
0.00030435285
0.00040040929
0.00025818455
0.0004003623
0.0002121711
0.00040009642
0.00016629979
0.00039973815
0.00012059552
0.00039915359
0.00039860556
-0.00012009353
0.00044471172
-0.00016587324
0.00044542876
-0.0002118329
0.00044617179
-0.00025801176
0.00044672415
-0.00030443394
0.00044720158
-0.00035109536
0.00044746282
-0.00039799383
0.00044740909
-0.00044510129
0.00044692404
-0.00049240506
0.00044585225
-0.00053982916
0.00044404807
-0.00058728904
0.0004413324
-0.00063467632
0.00043753879
-0.00068191956
0.00043249944
-0.0007288127
0.00042597465
-0.00077518558
0.00041781077
-0.00082083224
0.00040781636
-0.00086552609
0.00039581249
-0.00090901784
0.00038163013
-0.00095101889
0.00036511232
-0.00099124508
0.00034615199
-0.001029396
0.00032463321
-0.0010651466
0.00030048005
-0.001098191
0.00027367477
-0.0011282195
0.00024419491
-0.0011549349
0.00021206859
-0.0011780503
0.00017734828
-0.0011972983
0.00014011278
-0.0012124425
0.00010045716
-0.0012232321
5.8488318e-05
-0.0012295498
1.4354376e-05
-0.0012309282
-3.2202424e-05
-0.0012275987
-8.0173107e-05
-0.0012193078
-0.00013061714
-0.0012054067
-0.00018374953
-0.0011858491
-0.00023863591
-0.001160252
-0.00029567402
-0.0011281546
-0.00035485008
-0.001089066
-0.00041602814
-0.0010424125
-0.00047893854
-0.00098763654
-0.00054311014
-0.00092424617
-0.00060781498
-0.00085189299
-0.00067205094
-0.00077046041
-0.00073456212
-0.0006801198
-0.00079389508
-0.00058137028
-0.00084849192
-0.00047504424
-0.00089681407
-0.00036226771
-0.00093744924
-0.0002444086
-0.00096920084
-0.00012300455
-0.00099114207
2.7537773e-07
-0.0010025773
0.00012354969
-0.0010025428
0.0002449357
-0.00099104575
0.00036276564
-0.00096905264
0.00047550134
-0.00093725339
0.00058177979
-0.00089658126
0.00068047189
-0.00084823344
0.00077075262
-0.00079362264
0.00085212633
-0.00073428393
0.00092442699
-0.00067177448
0.00098776784
-0.00060754352
0.0010424943
-0.00054284868
0.0010891019
-0.00047869
0.0011281514
-0.00041578904
0.0011602113
-0.00035462004
0.0011857759
-0.00029545323
0.0012052989
-0.00023842026
0.0012191672
-0.00018353806
0.001227434
-0.00013041948
0.0012307345
-7.9969269e-05
0.0012292917
-3.1956375e-05
0.0012229467
1.4545827e-05
0.0012121284
5.8677713e-05
0.0011969556
0.00010063921
0.0011776808
0.00014028765
0.0011545389
0.00017750852
0.0011277953
0.0002122086
0.0010977402
0.00024431279
0.0010646729
0.00027377108
0.0010289043
0.00030055145
0.00099073793
0.00032468297
0.00095050134
0.00034617357
0.00090849499
0.00036510499
0.00086500284
0.00038159385
0.00082031449
0.00039574571
0.00077467731
0.00040771773
0.00072832112
0.00041768062
0.00068144949
0.0004258085
0.00063423693
0.00043229382
0.000586867
0.00043731
0.00053943204
0.00044106872
0.00049203881
0.00044374867
0.00044477482
0.00044551504
0.00039770159
0.000446552
0.00035083933
0.00044700435
0.00030421823
0.00044702924
0.00025784134
0.00044673829
0.00021170373
0.00044624006
0.00016578328
0.00044565377
0.0001200554
0.00044488505
0.00044412031
-0.0001193976
0.00049020303
-0.00016515547
0.00049118922
-0.00021114903
0.00049216589
-0.00025742847
0.00049300487
-0.00030406585
0.00049384138
-0.00035102558
0.00049442489
-0.00039836365
0.00049474854
-0.00044606262
0.00049462103
-0.00049410078
0.00049388617
-0.00054242649
0.00049237315
-0.00059096988
0.00048987928
-0.00063964421
0.00048621465
-0.00068831376
0.00048116689
-0.00073684392
0.00047450293
-0.00078504305
0.000466009
-0.00083269605
0.0004554673
-0.00087955698
0.00044267109
-0.00092535561
0.00042742812
-0.00096980397
0.00040956022
-0.0010125613
0.00038890719
-0.0010533097
0.00036537965
-0.0010917118
0.00033888278
-0.0011274029
0.00030936811
-0.0011600494
0.00027684217
-0.0011893252
0.00024134319
-0.0012149214
0.00020294423
-0.0012365561
0.00016175002
-0.0012539806
0.00011788558
-0.0012669749
7.1486592e-05
-0.0012753134
2.2697491e-05
-0.0012790313
-2.848035e-05
-0.0012775649
-8.1636962e-05
-0.001271068
-0.00013711064
-0.0012592856
-0.00019552681
-0.0012417724
-0.00025614576
-0.0012181472
-0.00031929733
-0.0011879056
-0.00038508983
-0.0011503978
-0.00045353575
-0.0011048655
-0.00052446958
-0.0010505086
-0.0005974645
-0.00098657041
-0.00067175165
-0.00091245395
-0.00074616435
-0.00082785139
-0.0008191633
-0.00073283914
-0.00088890861
-0.00062792806
-0.00095340358
-0.00051407375
-0.0010106703
-0.00039260543
-0.0010589176
-0.00026514685
-0.0010966577
-0.00013351657
-0.0011227686
3.3056503e-07
-0.0011364201
0.00013416709
-0.0011363778
0.00026577387
-0.0011226501
0.00039319671
-0.0010964734
0.00051461429
-0.0010586703
0.00062841225
-0.0010103766
0.00073325828
-0.00095307962
0.000828202
-0.0008885672
0.00091273321
-0.00081881864
0.00098678429
-0.00074582875
0.001050667
-0.0006714265
0.0011049722
-0.00059715352
0.0011504566
-0.00052417573
0.0011879198
-0.00045325835
0.0012181221
-0.00038482446
0.0012417103
-0.00031904117
0.001259187
-0.00025589523
0.0012709315
-0.00019528135
0.0012773833
-0.00013687026
0.0012788135
-8.140171e-05
0.0012750884
-2.8231233e-05
0.0012667036
2.2934018e-05
0.0012536698
7.171393e-05
0.0012362091
0.00011810332
0.0012145426
0.00016195586
0.0011889184
0.00020313559
0.0011596115
0.00024151383
0.0011269343
0.00027698774
0.0010912133
0.0003094873
0.0010527866
0.00033897832
0.0010120261
0.00036544652
0.00096925981
0.00038894085
0.00092480032
0.00040956184
0.00087900287
0.00042739236
0.00083214664
0.00044260005
0.00078450574
0.00045535987
0.00073632129
0.00046586414
0.00068781201
0.00047432086
0.00063916332
0.0004809439
0.00059051879
0.0004859514
0.00054200538
0.00048957621
0.0004937053
0.00049204024
0.0004457086
0.00049351372
0.00039804839
0.00049421488
0.00035075217
0.00049430804
0.00030382969
0.00049395521
0.00025724289
0.00049332446
0.00021100615
0.00049247867
0.0001650569
0.00049160525
0.00011934266
0.00049059585
0.00048956841
-0.00011849053
0.00053558474
-0.00016418162
0.00053688064
-0.00021017822
0.00053816321
-0.00025655433
0.00053938251
-0.00030333174
0.00054062019
-0.00035061562
0.00054170964
-0.00039839462
0.00054252536
-0.00044669047
0.00054291222
-0.00049550108
0.00054269511
-0.00054478853
0.00054166293
-0.00059451453
0.00053960645
-0.0006445739
0.00053627229
-0.00069485526
0.00053144682
-0.00074520515
0.00052485221
-0.00079544625
0.00051624812
-0.00084534946
0.00050536805
-0.00089465044
0.00049197147
-0.00094306426
0.00047584184
-0.00099027159
0.00045676527
-0.0010359034
0.00043453553
-0.0010796033
0.00040907783
-0.0011209777
0.00038025729
-0.0011596478
0.000348038
-0.0011952341
0.00031242747
-0.0012273733
0.00027348155
-0.0012557309
0.00023130204
-0.0012800072
0.00018602826
-0.001299942
0.00013782295
-0.0013153141
8.6860852e-05
-0.0013259245
3.3310609e-05
-0.0013317049
-2.2695582e-05
-0.001332404
-8.0933889e-05
-0.0013282856
-0.00014122651
-0.0013188036
-0.00020500582
-0.0013036566
-0.00027129012
-0.0012824997
-0.00034045196
-0.0012547192
-0.0004128676
-0.0012195073
-0.00048874706
-0.0011758556
-0.00056812089
-0.0011226325
-0.00065068608
-0.0010587043
-0.00073568156
-0.00098310896
-0.00082176066
-0.00089524919
-0.00090702191
-0.0007950499
-0.00098910876
-0.00068303823
-0.0010654164
-0.00056033624
-0.0011333739
-0.00042857052
-0.0011906819
-0.00028971944
-0.0012355061
-0.00014596256
-0.0012665238
4.0247448e-07
-0.0012827817
0.00014675188
-0.0012827232
0.00029047395
-0.0012663664
0.00042927167
-0.001235268
0.00056096619
-0.0011903684
0.00068359559
-0.0011330079
0.00079552859
-0.0010650095
0.000895649
-0.00098868812
0.00098342973
-0.00090660153
0.0010589515
-0.00082135085
0.0011228151
-0.00073529179
0.0011759831
-0.00065032134
0.0012195872
-0.00056778048
0.0012547541
-0.00048842656
0.0012824922
-0.00041256354
0.0013036125
-0.00034015966
0.0013187211
-0.00027100314
0.0013281624
-0.00020472381
0.0013322471
-0.00014095697
0.0013315078
-8.0662494e-05
0.0013256931
-2.2415524e-05
0.0013150432
3.3587984e-05
0.0012996329
8.7129773e-05
0.0012796566
0.00013808066
0.0012553435
0.00018627251
0.001226951
0.00023152821
0.0011947762
0.00027368467
0.0011591575
0.00031260608
0.0011204589
0.00034818881
0.0010790608
0.00038037568
0.0010353399
0.00040916192
0.0009896951
0.00043458498
0.00094248074
0.00045677668
0.00089406351
0.0004758118
0.00084476442
0.0004918974
0.00079487376
0.00050525479
0.00074465025
0.00051609238
0.00069431834
0.00052465416
0.00064406215
0.0005312015
0.00059403113
0.00053598429
0.00054433595
0.00053927707
0.00049508523
0.00054129493
0.00044631227
0.00054228726
0.00039805764
0.00054246598
0.00035032189
0.00054203951
0.00030308529
0.00054118905
0.00025634279
0.00054006643
0.00021001671
0.00053880124
0.00016406637
0.00053755334
0.00011842434
0.00053623664
0.00053490315
-0.00011733197
0.00058077789
-0.00016289379
0.0005824436
-0.00020881675
0.00058408739
-0.00025520213
0.00058576869
-0.00030212776
0.00058754616
-0.00034967868
0.00058925826
-0.00039789139
0.00059073373
-0.00044680162
0.00059182084
-0.00049641926
0.00059231462
-0.00054673162
0.00059197617
-0.00059771167
0.0005905851
-0.00064927745
0.00058783739
-0.00070131902
0.00058348859
-0.00075368607
0.00057721783
-0.00080618341
0.00056874306
-0.00085859593
0.00055777993
-0.00091063299
0.00054400894
-0.00096197279
0.00052718007
-0.001012265
0.00050705385
-0.0010611568
0.00048342434
-0.0011081857
0.00045610548
-0.0011529337
0.00042500444
-0.0011949631
0.00039006629
-0.0012338461
0.00035131018
-0.0012691761
0.00030881219
-0.0013005789
0.0002627049
-0.0013277232
0.00021317231
-0.0013503558
0.00016045631
-0.0013682665
0.000104773
-0.0013813721
4.6418287e-05
-0.0013894918
-1.4572488e-05
-0.0013925831
-7.7839671e-05
-0.0013904891
-0.000143319
-0.0013837305
-0.00021176241
-0.0013714125
-0.00028360621
-0.001353299
-0.00035856555
-0.0013287502
-0.00043741655
-0.0012967848
-0.00052071319
-0.0012560869
-0.00060881913
-0.0012050706
-0.00070169964