/*--------------------------------*- C++ -*----------------------------------*\
  =========                 |
  \\      /  F ield         | OpenFOAM: The Open Source CFD Toolbox
   \\    /   O peration     | Website:  https://openfoam.org
    \\  /    A nd           | Version:  9
     \\/     M anipulation  |
\*---------------------------------------------------------------------------*/
FoamFile
{
    format      ascii;
    class       volVectorField;
    location    "0.11";
    object      U;
}
// * * * * * * * * * * * * * * * * * * * * * * * * * * * * * * * * * * * * * //

dimensions      [0 1 -1 0 0 0 0];

internalField   nonuniform List<vector> 
10000
(
(-0.0077739617 0.0080501862 0)
(-0.015636913 0.0080358497 0)
(-0.018807876 0.0080669479 0)
(-0.023633695 0.0080820322 0)
(-0.028185014 0.0081036922 0)
(-0.032730142 0.0081245132 0)
(-0.037250581 0.0081429783 0)
(-0.041739967 0.0081576765 0)
(-0.046188791 0.0081659138 0)
(-0.050587433 0.0081632589 0)
(-0.054925122 0.0081469763 0)
(-0.059188881 0.0081133901 0)
(-0.063366826 0.0080574708 0)
(-0.067444167 0.0079774701 0)
(-0.07140017 0.0078692507 0)
(-0.075220169 0.0077251147 0)
(-0.07888888 0.0075430643 0)
(-0.08238417 0.0073199454 0)
(-0.085684823 0.0070500706 0)
(-0.088771934 0.0067286825 0)
(-0.091625713 0.0063536843 0)
(-0.094223946 0.0059223018 0)
(-0.096546079 0.0054307899 0)
(-0.09857288 0.0048772184 0)
(-0.10028457 0.004261354 0)
(-0.1016611 0.0035838599 0)
(-0.10268351 0.0028440598 0)
(-0.10333503 0.0020419242 0)
(-0.1035988 0.0011786941 0)
(-0.10348187 0.00025258797 0)
(-0.10300819 -0.00072856195 0)
(-0.10209244 -0.0017412572 0)
(-0.10064838 -0.0027878645 0)
(-0.098713547 -0.0038938615 0)
(-0.096308345 -0.0050474594 0)
(-0.093414659 -0.0062390707 0)
(-0.090019965 -0.0074589647 0)
(-0.08611669 -0.0086952708 0)
(-0.081702534 -0.0099347097 0)
(-0.076779928 -0.011161723 0)
(-0.071355407 -0.01235748 0)
(-0.065440615 -0.013501004 0)
(-0.059053019 -0.014572007 0)
(-0.052218204 -0.015551656 0)
(-0.044970887 -0.016422701 0)
(-0.037354101 -0.017168727 0)
(-0.029419791 -0.017772503 0)
(-0.021222962 -0.018220911 0)
(-0.012822448 -0.01851089 0)
(-0.0042864589 -0.018647647 0)
(0.004303852 -0.01864763 0)
(0.012839817 -0.018510779 0)
(0.021239293 -0.018220736 0)
(0.029434659 -0.017772255 0)
(0.0373668 -0.017168384 0)
(0.044981029 -0.016421719 0)
(0.052225936 -0.01555069 0)
(0.059058244 -0.014570942 0)
(0.065443164 -0.013499587 0)
(0.071355499 -0.012355811 0)
(0.076777856 -0.011160043 0)
(0.081698647 -0.0099331562 0)
(0.086110808 -0.0086939171 0)
(0.090011872 -0.0074577507 0)
(0.093404037 -0.0062378625 0)
(0.096295051 -0.0050461606 0)
(0.098697924 -0.003892752 0)
(0.10063036 -0.0027871044 0)
(0.10207162 -0.0017402997 0)
(0.1029841 -0.00072733087 0)
(0.10345535 0.000254935 0)
(0.10357112 0.0011812138 0)
(0.10330584 0.0020437151 0)
(0.10265234 0.0028447685 0)
(0.10162714 0.003584193 0)
(0.10024802 0.004262192 0)
(0.098535297 0.0048784853 0)
(0.096508611 0.0054314905 0)
(0.094185914 0.0059216448 0)
(0.09158589 0.0063522513 0)
(0.088730726 0.0067272698 0)
(0.085643881 0.0070487376 0)
(0.082344741 0.0073185548 0)
(0.07885102 0.0075412149 0)
(0.075183971 0.0077225234 0)
(0.071364996 0.0078659597 0)
(0.067410402 0.0079742955 0)
(0.06333608 0.0080541325 0)
(0.059161138 0.0081093951 0)
(0.054900219 0.0081423036 0)
(0.050565989 0.0081579045 0)
(0.046171462 0.0081597328 0)
(0.041727491 0.0081505707 0)
(0.037243879 0.0081348819 0)
(0.03272998 0.0081145426 0)
(0.028191822 0.0080911602 0)
(0.023649742 0.0080664796 0)
(0.018821417 0.0080455776 0)
(0.015672763 0.0080156285 0)
(0.0078081263 0.0080159714 0)
(-0.0077944801 0.015893762 0)
(-0.015627378 0.015872753 0)
(-0.018765464 0.015911994 0)
(-0.023596412 0.015924276 0)
(-0.028139284 0.015941631 0)
(-0.032685033 0.015955527 0)
(-0.037209113 0.015962156 0)
(-0.041706208 0.015956885 0)
(-0.046169659 0.015934721 0)
(-0.050589777 0.015890392 0)
(-0.054954961 0.015817454 0)
(-0.059254685 0.015709581 0)
(-0.063475032 0.015560426 0)
(-0.067600298 0.015363106 0)
(-0.071615492 0.015109603 0)
(-0.075503968 0.014791547 0)
(-0.079246261 0.014403515 0)
(-0.082823847 0.0139369 0)
(-0.086217168 0.013385091 0)
(-0.089404195 0.01274231 0)
(-0.092363501 0.012001751 0)
(-0.095074828 0.011158088 0)
(-0.097517117 0.010207035 0)
(-0.099668149 0.0091451719 0)
(-0.10150589 0.0079696263 0)
(-0.10301096 0.0066777252 0)
(-0.1041653 0.0052681456 0)
(-0.1049502 0.0037402598 0)
(-0.10534985 0.0020947123 0)
(-0.10536177 0.00033303078 0)
(-0.10497655 -0.0015221676 0)
(-0.10411116 -0.0034331283 0)
(-0.10273879 -0.0054365011 0)
(-0.10088857 -0.0075299931 0)
(-0.098545906 -0.0096961122 0)
(-0.095695736 -0.01191913 0)
(-0.092324432 -0.014183051 0)
(-0.08842182 -0.016469234 0)
(-0.083982623 -0.018755632 0)
(-0.079004783 -0.021015354 0)
(-0.073491129 -0.023218442 0)
(-0.067452512 -0.025332572 0)
(-0.060907922 -0.02732423 0)
(-0.053884925 -0.029158279 0)
(-0.04642065 -0.030800516 0)
(-0.038559862 -0.032219561 0)
(-0.030357309 -0.033388351 0)
(-0.021878693 -0.034282234 0)
(-0.013199198 -0.034886808 0)
(-0.0044053331 -0.035194246 0)
(0.0044256371 -0.035194013 0)
(0.013219488 -0.034886044 0)
(0.021897997 -0.034281171 0)
(0.030375134 -0.033387161 0)
(0.038575879 -0.032218257 0)
(0.046433859 -0.030798711 0)
(0.053895113 -0.029155922 0)
(0.060915602 -0.027321506 0)
(0.067457328 -0.025329517 0)
(0.073492947 -0.023215094 0)
(0.079003923 -0.021011761 0)
(0.083979605 -0.018751839 0)
(0.088416618 -0.016465522 0)
(0.092317105 -0.014179643 0)
(0.095686053 -0.011915943 0)
(0.098533275 -0.0096928253 0)
(0.10087291 -0.0075266987 0)
(0.10272098 -0.0054333846 0)
(0.10409113 -0.0034298493 0)
(0.10495401 -0.0015189797 0)
(0.10533674 0.00033679807 0)
(0.10532184 0.0020986628 0)
(0.10491952 0.0037439736 0)
(0.10413305 0.0052711562 0)
(0.10297751 0.0066801672 0)
(0.10147055 0.0079717873 0)
(0.099630787 0.0091468011 0)
(0.097478312 0.010207722 0)
(0.095035212 0.011157499 0)
(0.092323136 0.012000481 0)
(0.089363139 0.012740744 0)
(0.086176401 0.013383106 0)
(0.082784118 0.013933896 0)
(0.079207223 0.014399504 0)
(0.075465955 0.014786688 0)
(0.071578863 0.01510382 0)
(0.067565375 0.015357144 0)
(0.063442305 0.015553995 0)
(0.059224367 0.015702099 0)
(0.054927488 0.015808851 0)
(0.050565753 0.015880332 0)
(0.046149554 0.015923117 0)
(0.041690612 0.015943251 0)
(0.037197906 0.015946038 0)
(0.032678075 0.015936549 0)
(0.02813717 0.015919374 0)
(0.023598978 0.015897867 0)
(0.018767183 0.015880156 0)
(0.015640057 0.015842797 0)
(0.0078076215 0.01584762 0)
(-0.0078037152 0.019341544 0)
(-0.015625132 0.019331625 0)
(-0.01875509 0.019356711 0)
(-0.023596989 0.01935795 0)
(-0.028141436 0.019356877 0)
(-0.032693603 0.019346821 0)
(-0.037229798 0.019323275 0)
(-0.041745085 0.019280544 0)
(-0.046231013 0.019212223 0)
(-0.050679467 0.019112877 0)
(-0.055080203 0.018975222 0)
(-0.059420515 0.018791126 0)
(-0.063689033 0.018554349 0)
(-0.067871883 0.018256054 0)
(-0.071950678 0.01788686 0)
(-0.075908092 0.017439746 0)
(-0.079728445 0.016908666 0)
(-0.083390769 0.016283578 0)
(-0.086871576 0.015558821 0)
(-0.090151775 0.014729181 0)
(-0.093210486 0.013788774 0)
(-0.096023143 0.012733043 0)
(-0.098567325 0.011559767 0)
(-0.10082165 0.010267421 0)
(-0.10276499 0.0088549705 0)
(-0.10437525 0.0073219488 0)
(-0.10563115 0.0056708609 0)
(-0.10651348 0.0039051063 0)
(-0.10700321 0.0020283073 0)
(-0.10708741 4.737084e-05 0)
(-0.10675732 -0.0020200563 0)
(-0.10598677 -0.0041570197 0)
(-0.10472313 -0.0063980261 0)
(-0.10294973 -0.0087421645 0)
(-0.10067329 -0.011173722 0)
(-0.097877181 -0.01367846 0)
(-0.094545874 -0.016239025 0)
(-0.090665633 -0.018836917 0)
(-0.08622577 -0.021448692 0)
(-0.081220623 -0.024045533 0)
(-0.075651072 -0.026594269 0)
(-0.069524986 -0.029058151 0)
(-0.062857167 -0.031398259 0)
(-0.055672638 -0.033571036 0)
(-0.048010062 -0.035534549 0)
(-0.03991914 -0.037247342 0)
(-0.031458683 -0.038672903 0)
(-0.022696319 -0.039779333 0)
(-0.013709434 -0.040541355 0)
(-0.0045801884 -0.040938148 0)
(0.0046034767 -0.040937645 0)
(0.013732692 -0.0405399 0)
(0.022718743 -0.039777108 0)
(0.031479857 -0.038670117 0)
(0.039938682 -0.037244192 0)
(0.048027319 -0.035531164 0)
(0.05568695 -0.03356698 0)
(0.062868311 -0.031393804 0)
(0.069532783 -0.029053342 0)
(0.075655575 -0.026589044 0)
(0.081222192 -0.024039853 0)
(0.08622467 -0.021442618 0)
(0.090661657 -0.018830726 0)
(0.094539263 -0.016232799 0)
(0.097868064 -0.013672181 0)
(0.10066143 -0.011167335 0)
(0.102935 -0.0087362578 0)
(0.1047059 -0.0063925019 0)
(0.10596675 -0.0041514965 0)
(0.10673413 -0.0020142014 0)
(0.107062 5.3068068e-05 0)
(0.10697594 0.002033841 0)
(0.10648398 0.0039101473 0)
(0.10559937 0.0056750874 0)
(0.10434109 0.0073255308 0)
(0.10272816 0.0088581888 0)
(0.10078304 0.010270218 0)
(0.098528163 0.01156182 0)
(0.095983663 0.012734138 0)
(0.093170029 0.013788828 0)
(0.090110017 0.014728318 0)
(0.086829296 0.015557081 0)
(0.083349234 0.016280404 0)
(0.079688203 0.016904177 0)
(0.07586894 0.017434478 0)
(0.071912677 0.017880426 0)
(0.06783551 0.018248629 0)
(0.063654823 0.018546048 0)
(0.059388703 0.018781591 0)
(0.055050898 0.018964299 0)
(0.050653236 0.019100324 0)
(0.046208363 0.019197722 0)
(0.041726095 0.019263704 0)
(0.037214727 0.019303934 0)
(0.032682807 0.0193247 0)
(0.02813473 0.019331785 0)
(0.023594773 0.019330319 0)
(0.018753849 0.019326835 0)
(0.01563166 0.019302809 0)
(0.007812039 0.019305551 0)
(-0.0078045486 0.023898249 0)
(-0.015610436 0.023898938 0)
(-0.018735805 0.02392645 0)
(-0.023589709 0.023931287 0)
(-0.028141153 0.023930705 0)
(-0.032706751 0.023914991 0)
(-0.037260949 0.023880291 0)
(-0.041800382 0.02382109 0)
(-0.046317971 0.023728957 0)
(-0.050804907 0.023595555 0)
(-0.055252298 0.023413677 0)
(-0.059648319 0.0231733 0)
(-0.063980096 0.022865248 0)
(-0.06823479 0.022480785 0)
(-0.072395525 0.02201042 0)
(-0.076442281 0.02144339 0)
(-0.080358993 0.020771442 0)
(-0.084126398 0.019986876 0)
(-0.087720326 0.019080987 0)
(-0.09111919 0.018045691 0)
(-0.094301156 0.016876702 0)
(-0.097242394 0.015568755 0)
(-0.0999191 0.014117933 0)
(-0.10230816 0.012521728 0)
(-0.1043869 0.010779399 0)
(-0.10613255 0.0088917742 0)
(-0.10752331 0.0068598699 0)
(-0.10853947 0.0046860505 0)
(-0.10916147 0.0023749143 0)
(-0.10937133 -6.8230938e-05 0)
(-0.10914517 -0.002634761 0)
(-0.10845008 -0.0053114982 0)
(-0.10727568 -0.0080903589 0)
(-0.10560808 -0.01098522 0)
(-0.10341802 -0.013983939 0)
(-0.10068943 -0.017071772 0)
(-0.097404714 -0.02023021 0)
(-0.093547685 -0.023436663 0)
(-0.089102783 -0.026663221 0)
(-0.084058582 -0.029876331 0)
(-0.078410688 -0.033035747 0)
(-0.0721642 -0.036094753 0)
(-0.065331179 -0.039002118 0)
(-0.057935489 -0.041705268 0)
(-0.05001622 -0.044150326 0)
(-0.041624296 -0.046284449 0)
(-0.032823921 -0.048058605 0)
(-0.023690704 -0.049431648 0)
(-0.014311147 -0.050371667 0)
(-0.0047798938 -0.050856027 0)
(0.004806934 -0.050855021 0)
(0.014338231 -0.050368778 0)
(0.023717084 -0.049426912 0)
(0.032849008 -0.048052271 0)
(0.041647624 -0.046277033 0)
(0.050037127 -0.044142261 0)
(0.05795332 -0.041696757 0)
(0.065345809 -0.038993359 0)
(0.072175494 -0.036085694 0)
(0.078418338 -0.03302641 0)
(0.08406275 -0.029866675 0)
(0.089103612 -0.026653306 0)
(0.093545276 -0.023426781 0)
(0.097399685 -0.020220435 0)
(0.10068183 -0.017061917 0)
(0.10340661 -0.013973911 0)
(0.10559304 -0.010975296 0)
(0.10725862 -0.0080806545 0)
(0.10843116 -0.0053021881 0)
(0.10912348 -0.0026257419 0)
(0.10934659 -5.8984102e-05 0)
(0.10913346 0.0023841235 0)
(0.10850817 0.0046942942 0)
(0.10749015 0.0068666404 0)
(0.10609843 0.0088975822 0)
(0.10435117 0.010784972 0)
(0.10227016 0.012527079 0)
(0.099879177 0.014122115 0)
(0.097201247 0.015571129 0)
(0.094259049 0.016877096 0)
(0.091076255 0.018044627 0)
(0.087676934 0.01907887 0)
(0.084083324 0.019983641 0)
(0.080317039 0.020766637 0)
(0.076401197 0.02143687 0)
(0.072355356 0.022002262 0)
(0.068196478 0.022471141 0)
(0.06394382 0.022854057 0)
(0.059614234 0.023160506 0)
(0.055220826 0.023399214 0)
(0.050776375 0.023579369 0)
(0.046292684 0.023710524 0)
(0.041778963 0.023800241 0)
(0.037243099 0.023858833 0)
(0.032692102 0.023890152 0)
(0.028130876 0.02390134 0)
(0.023584027 0.02390049 0)
(0.018731944 0.023892626 0)
(0.015612072 0.02386437 0)
(0.0078085215 0.023855532 0)
(-0.0077995235 0.028521074 0)
(-0.015588745 0.02853498 0)
(-0.0187138 0.028564941 0)
(-0.023581117 0.028571817 0)
(-0.028143745 0.028570696 0)
(-0.032727908 0.028551785 0)
(-0.037305306 0.028509074 0)
(-0.041875703 0.028435412 0)
(-0.046433814 0.028321141 0)
(-0.050970151 0.028156014 0)
(-0.055475843 0.027932808 0)
(-0.059940622 0.027638955 0)
(-0.064351557 0.027263485 0)
(-0.068694686 0.026795641 0)
(-0.072954179 0.026224982 0)
(-0.077111442 0.025539491 0)
(-0.081147237 0.024727339 0)
(-0.085041377 0.023781179 0)
(-0.088771269 0.022690325 0)
(-0.092312986 0.021446401 0)
(-0.095642713 0.020044809 0)
(-0.098736039 0.018479492 0)
(-0.10156789 0.016747064 0)
(-0.10411362 0.014845711 0)
(-0.10634864 0.012775343 0)
(-0.10824901 0.010537638 0)
(-0.10979186 0.0081352419 0)
(-0.11095409 0.0055723234 0)
(-0.11171373 0.0028548591 0)
(-0.11205375 -9.2793738e-06 0)
(-0.11195672 -0.0030098019 0)
(-0.11139471 -0.0061462536 0)
(-0.11033947 -0.0094240645 0)
(-0.10877632 -0.012829864 0)
(-0.10668371 -0.016356347 0)
(-0.1040385 -0.019990535 0)
(-0.10081774 -0.023715308 0)
(-0.09699861 -0.027506944 0)
(-0.092559711 -0.031335809 0)
(-0.087483275 -0.035163113 0)
(-0.08175748 -0.038942212 0)
(-0.075379372 -0.042617491 0)
(-0.068357597 -0.046125301 0)
(-0.060714668 -0.049399639 0)
(-0.052488716 -0.052371263 0)
(-0.043734248 -0.054973244 0)
(-0.034521338 -0.057143937 0)
(-0.024934065 -0.058830174 0)
(-0.015069309 -0.059989914 0)
(-0.0050332867 -0.060591954 0)
(0.0050658166 -0.06059038 0)
(0.015101808 -0.059985379 0)
(0.024965395 -0.058822734 0)
(0.03455075 -0.057134002 0)
(0.043761262 -0.05496142 0)
(0.052512792 -0.052358155 0)
(0.06073532 -0.049385722 0)
(0.068374755 -0.046111034 0)
(0.075393053 -0.042603176 0)
(0.081767491 -0.038928124 0)
(0.087489756 -0.035149232 0)
(0.092562383 -0.031321909 0)
(0.096997408 -0.027493189 0)
(0.10081348 -0.023701952 0)
(0.10403179 -0.019977657 0)
(0.10667377 -0.016343745 0)
(0.1087628 -0.012816771 0)
(0.11032303 -0.0094106729 0)
(0.11137489 -0.0061332269 0)
(0.11193415 -0.0029978299 0)
(0.11202916 1.9347949e-06 0)
(0.1116861 0.0028659477 0)
(0.11092289 0.0055834507 0)
(0.10975853 0.0081456435 0)
(0.10821439 0.010546495 0)
(0.10631194 0.012782699 0)
(0.10407421 0.014851554 0)
(0.10152636 0.016751239 0)
(0.098693248 0.018481811 0)
(0.095599011 0.020045305 0)
(0.092268527 0.021445203 0)
(0.08872639 0.022687705 0)
(0.084996437 0.023777151 0)
(0.081102704 0.0247215 0)
(0.077067673 0.025531378 0)
(0.072911503 0.026214987 0)
(0.068653661 0.026783951 0)
(0.064312593 0.027249898 0)
(0.059904129 0.027623463 0)
(0.055442076 0.027915347 0)
(0.050939149 0.028136835 0)
(0.04640585 0.028298933 0)
(0.041853146 0.028410716 0)
(0.037285755 0.028482277 0)
(0.032708343 0.028522486 0)
(0.028130166 0.02853864 0)
(0.023573101 0.028537297 0)
(0.018707071 0.028527156 0)
(0.015586051 0.028495943 0)
(0.0077998972 0.028476978 0)
(-0.0077843101 0.033077811 0)
(-0.015554768 0.033105605 0)
(-0.018686514 0.03314173 0)
(-0.023569618 0.033155469 0)
(-0.028144934 0.033158732 0)
(-0.032750014 0.033143018 0)
(-0.037356742 0.033099632 0)
(-0.04196552 0.03301902 0)
(-0.046572502 0.032891189 0)
(-0.051166351 0.032705815 0)
(-0.055740654 0.032451592 0)
(-0.060287041 0.032115038 0)
(-0.064790923 0.031683996 0)
(-0.069238914 0.031145432 0)
(-0.073615242 0.030486178 0)
(-0.077901445 0.029693324 0)
(-0.082076605 0.028754036 0)
(-0.086120485 0.027657598 0)
(-0.090009961 0.026393511 0)
(-0.093717339 0.024952529 0)
(-0.097218683 0.023327859 0)
(-0.10048891 0.021513934 0)
(-0.10350009 0.01950729 0)
(-0.10622604 0.017306632 0)
(-0.10864057 0.014912364 0)
(-0.11071814 0.012326692 0)
(-0.11243452 0.0095537114 0)
(-0.11376663 0.0065986973 0)
(-0.11469128 0.0034658356 0)
(-0.11518587 0.00016209581 0)
(-0.11523214 -0.003301304 0)
(-0.11480945 -0.0069165695 0)
(-0.113894 -0.010686006 0)
(-0.11246477 -0.014612358 0)
(-0.11049322 -0.018682818 0)
(-0.10795343 -0.02288561 0)
(-0.10481747 -0.027203539 0)
(-0.1010569 -0.031614332 0)
(-0.096641496 -0.036087013 0)
(-0.091543044 -0.040577273 0)
(-0.085740591 -0.045031052 0)
(-0.079222194 -0.049382098 0)
(-0.071989501 -0.05355409 0)
(-0.064061073 -0.057463687 0)
(-0.055474661 -0.061024467 0)
(-0.046288412 -0.064151615 0)
(-0.036579976 -0.066766956 0)
(-0.026444096 -0.068803078 0)
(-0.015990735 -0.070206479 0)
(-0.0053412565 -0.070937063 0)
(0.0053805517 -0.070935201 0)
(0.0160298 -0.070201234 0)
(0.026481246 -0.068794495 0)
(0.036614277 -0.066755432 0)
(0.046319483 -0.06413766 0)
(0.055502057 -0.06100859 0)
(0.064084291 -0.057446472 0)
(0.072008622 -0.053536188 0)
(0.079237362 -0.049363993 0)
(0.085751827 -0.04501318 0)
(0.091550829 -0.040560072 0)
(0.096645487 -0.036070365 0)
(0.10105677 -0.031598111 0)
(0.10481391 -0.027187726 0)
(0.10794701 -0.022870464 0)
(0.11048364 -0.018668394 0)
(0.11245175 -0.014598264 0)
(0.11387792 -0.010671955 0)
(0.1147899 -0.0069023866 0)
(0.1152092 -0.0032871321 0)
(0.11516082 0.00017525802 0)
(0.11466378 0.0034783767 0)
(0.11373526 0.0066110943 0)
(0.11239991 0.0095652004 0)
(0.11068186 0.012336214 0)
(0.10860239 0.014920018 0)
(0.10618509 0.017312801 0)
(0.10345692 0.019512039 0)
(0.10044433 0.021516993 0)
(0.097173119 0.023329021 0)
(0.093670963 0.024951704 0)
(0.089963101 0.026390689 0)
(0.086073358 0.027652914 0)
(0.082029439 0.02874744 0)
(0.077854846 0.029684628 0)
(0.073570039 0.030475474 0)
(0.069195482 0.031132835 0)
(0.064749506 0.031669432 0)
(0.060247999 0.032097987 0)
(0.055704773 0.032432036 0)
(0.051132772 0.032683747 0)
(0.046541554 0.032866086 0)
(0.041939548 0.032991142 0)
(0.03733436 0.033067651 0)
(0.032729969 0.033109491 0)
(0.028129487 0.033124173 0)
(0.023558542 0.033117013 0)
(0.018678775 0.033100709 0)
(0.015552305 0.03306152 0)
(0.0077848043 0.033031749 0)
(-0.0077628967 0.037636854 0)
(-0.015510334 0.037678072 0)
(-0.018648441 0.037725778 0)
(-0.023547245 0.03775186 0)
(-0.028137639 0.037767207 0)
(-0.03276648 0.037761531 0)
(-0.037406704 0.037725371 0)
(-0.042059354 0.037647928 0)
(-0.046720015 0.037519209 0)
(-0.05138054 0.037326507 0)
(-0.05603534 0.037054034 0)
(-0.0606748 0.036688444 0)
(-0.065285598 0.036214333 0)
(-0.06985477 0.035618699 0)
(-0.074366234 0.034884091 0)
(-0.078801105 0.033996503 0)
(-0.083138018 0.032941413 0)
(-0.08735454 0.031705004 0)
(-0.091426427 0.030276732 0)
(-0.095326011 0.028646215 0)
(-0.099026204 0.02680368 0)
(-0.10249928 0.024744417 0)
(-0.10571589 0.022464836 0)
(-0.10864764 0.019963879 0)
(-0.11126647 0.017242643 0)
(-0.11354485 0.014304327 0)
(-0.11545689 0.011153738 0)
(-0.11697947 0.0077977737 0)
(-0.11808899 0.0042448432 0)
(-0.1187612 0.0005022986 0)
(-0.11897601 -0.0034237088 0)
(-0.11871548 -0.0075206484 0)
(-0.11796109 -0.011798253 0)
(-0.11668696 -0.01625708 0)
(-0.11485988 -0.020882454 0)
(-0.11245166 -0.025668351 0)
(-0.10942931 -0.03060243 0)
(-0.10575635 -0.035663749 0)
(-0.10138984 -0.04081956 0)
(-0.096289202 -0.046024248 0)
(-0.090420761 -0.051215741 0)
(-0.083759508 -0.056315748 0)
(-0.076296961 -0.061231449 0)
(-0.068045421 -0.0658594 0)
(-0.059041455 -0.070091085 0)
(-0.049347524 -0.073819338 0)
(-0.039050699 -0.076945328 0)
(-0.028259272 -0.079384022 0)
(-0.017099858 -0.081068285 0)
(-0.005712604 -0.081947411 0)
(0.0057589559 -0.081945328 0)
(0.017145963 -0.081062605 0)
(0.028303125 -0.079374948 0)
(0.039090972 -0.076933143 0)
(0.049383862 -0.0738045 0)
(0.059073528 -0.070074106 0)
(0.068072367 -0.065840597 0)
(0.076318825 -0.0612114 0)
(0.08377667 -0.056295257 0)
(0.090433423 -0.051195326 0)
(0.096298027 -0.046004508 0)
(0.10139486 -0.040800633 0)
(0.10575703 -0.035645197 0)
(0.10942621 -0.03058457 0)
(0.11244537 -0.025651473 0)
(0.11485022 -0.02086625 0)
(0.11667416 -0.016241449 0)
(0.11794558 -0.011782881 0)
(0.11869632 -0.0075045769 0)
(0.11895266 -0.0034068887 0)
(0.11873527 0.00051742791 0)
(0.11806098 0.0042586239 0)
(0.11694751 0.0078111551 0)
(0.11542101 0.011166598 0)
(0.11350701 0.014315806 0)
(0.11122704 0.017252382 0)
(0.10860546 0.019972141 0)
(0.10567111 0.022471658 0)
(0.10245276 0.02474944 0)
(0.098978369 0.026806475 0)
(0.095277129 0.028646569 0)
(0.091376979 0.030274547 0)
(0.087304972 0.031700554 0)
(0.083088562 0.032934874 0)
(0.07875219 0.033987735 0)
(0.074318734 0.03487301 0)
(0.06980913 0.035605187 0)
(0.065241688 0.036198695 0)
(0.060633166 0.036669467 0)
(0.055996759 0.037031964 0)
(0.051344497 0.037301137 0)
(0.046686872 0.037491249 0)
(0.042030539 0.037617251 0)
(0.037381896 0.037691117 0)
(0.032745083 0.037724766 0)
(0.028120039 0.037728206 0)
(0.023534029 0.037709423 0)
(0.018638346 0.03768074 0)
(0.015506105 0.037628968 0)
(0.007763809 0.03758422 0)
(-0.0077329192 0.042195761 0)
(-0.015449424 0.042256006 0)
(-0.018594877 0.042321072 0)
(-0.023508727 0.042364879 0)
(-0.028114227 0.042400313 0)
(-0.032768975 0.042413435 0)
(-0.037445435 0.042394865 0)
(-0.042144715 0.04233304 0)
(-0.046864711 0.042215786 0)
(-0.051600093 0.042027226 0)
(-0.056344848 0.041751068 0)
(-0.06109047 0.041371998 0)
(-0.065821997 0.04087131 0)
(-0.070528158 0.040232449 0)
(-0.075193896 0.039437348 0)
(-0.079797998 0.038469057 0)
(-0.08431943 0.037310953 0)
(-0.088733779 0.035946733 0)
(-0.093014426 0.034363351 0)
(-0.097133162 0.032550032 0)
(-0.10106039 0.03049529 0)
(-0.10476491 0.028193796 0)
(-0.10821519 0.025642492 0)
(-0.11138046 0.022839609 0)
(-0.11423037 0.019787636 0)
(-0.11673582 0.016491266 0)
(-0.11886888 0.012957211 0)
(-0.12060308 0.0091936642 0)
(-0.12191506 0.0052109939 0)
(-0.12278474 0.0010194471 0)
(-0.12318671 -0.0033725547 0)
(-0.12311133 -0.0079695325 0)
(-0.1225469 -0.012761623 0)
(-0.121451 -0.017747854 0)
(-0.11979472 -0.022934056 0)
(-0.11755202 -0.028316207 0)
(-0.11468081 -0.033886914 0)
(-0.11113237 -0.039628998 0)
(-0.10685183 -0.045512321 0)
(-0.10178238 -0.051490756 0)
(-0.095870579 -0.057495048 0)
(-0.08907381 -0.063433399 0)
(-0.081368516 -0.069192836 0)
(-0.072757503 -0.074644299 0)
(-0.063274839 -0.079650509 0)
(-0.052988295 -0.084075582 0)
(-0.041997218 -0.087794693 0)
(-0.030427215 -0.090701057 0)
(-0.018425974 -0.092711393 0)
(-0.0061570377 -0.093762898 0)
(0.0062113604 -0.093760079 0)
(0.018479999 -0.092703627 0)
(0.030478944 -0.090689135 0)
(0.042044933 -0.087779087 0)
(0.053031486 -0.084057056 0)
(0.063313351 -0.079630113 0)
(0.072790236 -0.074622288 0)
(0.081394972 -0.069169511 0)
(0.089094237 -0.063409618 0)
(0.095885514 -0.057471506 0)
(0.10179291 -0.051468168 0)
(0.10685861 -0.045490828 0)
(0.11113444 -0.03960782 0)
(0.11467821 -0.033866164 0)
(0.11754608 -0.028296199 0)
(0.1197855 -0.022914597 0)
(0.12143831 -0.017729022 0)
(0.12253209 -0.012743463 0)
(0.12309383 -0.0079519392 0)
(0.12316319 -0.0033554401 0)
(0.12275683 0.0010371626 0)
(0.12188603 0.0052276722 0)
(0.12057104 0.0092095284 0)
(0.11883273 0.012972778 0)
(0.11669715 0.016505906 0)
(0.11418977 0.019800572 0)
(0.11133706 0.022850654 0)
(0.10816875 0.025651726 0)
(0.10471621 0.028200769 0)
(0.10101006 0.030499952 0)
(0.097081687 0.032552025 0)
(0.092962416 0.034362353 0)
(0.08868165 0.035943003 0)
(0.084267355 0.037304639 0)
(0.079746499 0.038459874 0)
(0.075143765 0.039425206 0)
(0.070480348 0.040217114 0)
(0.065775626 0.040852964 0)
(0.061045855 0.041350503 0)
(0.056303764 0.041726369 0)
(0.05156195 0.04199922 0)
(0.046829859 0.042184473 0)
(0.042113876 0.042298634 0)
(0.037418136 0.042356937 0)
(0.032745322 0.04237244 0)
(0.028094597 0.042356282 0)
(0.023493591 0.042318022 0)
(0.018583312 0.04227122 0)
(0.015443254 0.042203772 0)
(0.0077322345 0.042138285 0)
(-0.0076909551 0.046749015 0)
(-0.015366668 0.046834025 0)
(-0.018519639 0.046920166 0)
(-0.023446237 0.046988951 0)
(-0.028065796 0.047051694 0)
(-0.0327468 0.047095737 0)
(-0.037459893 0.047107879 0)
(-0.042209141 0.047075387 0)
(-0.046994341 0.046982852 0)
(-0.051811412 0.046813645 0)
(-0.05665418 0.046550488 0)
(-0.061515663 0.046174507 0)
(-0.066383507 0.045665608 0)
(-0.071244377 0.045001203 0)
(-0.07608255 0.044162884 0)
(-0.080877606 0.043130152 0)
(-0.085607537 0.041883765 0)
(-0.090246276 0.04040567 0)
(-0.094763976 0.038679425 0)
(-0.099131594 0.036691701 0)
(-0.10331658 0.03443139 0)
(-0.10728289 0.031891489 0)
(-0.11099761 0.029068322 0)
(-0.11442686 0.02596115 0)
(-0.11753642 0.022573549 0)
(-0.12029469 0.018912154 0)
(-0.12267229 0.014986437 0)
(-0.12464241 0.010806486 0)
(-0.12617972 0.0063829691 0)
(-0.12726278 0.0017290605 0)
(-0.1278845 -0.003141793 0)
(-0.12802067 -0.0082304707 0)
(-0.12764483 -0.013530362 0)
(-0.1267488 -0.019052154 0)
(-0.12530436 -0.024804562 0)
(-0.12326771 -0.030791993 0)
(-0.120593 -0.037014187 0)
(-0.11722116 -0.04346485 0)
(-0.11308079 -0.050121766 0)
(-0.10809275 -0.056940138 0)
(-0.10217781 -0.06384565 0)
(-0.095267396 -0.070731361 0)
(-0.087315864 -0.077459348 0)
(-0.078311316 -0.083867154 0)
(-0.068283506 -0.089779196 0)
(-0.057307303 -0.095021855 0)
(-0.045498474 -0.099436609 0)
(-0.033005616 -0.10289045 0)
(-0.020003607 -0.10528175 0)
(-0.0066854809 -0.10653481 0)
(0.0067505615 -0.10653051 0)
(0.02006796 -0.10526983 0)
(0.033067138 -0.10287242 0)
(0.045555099 -0.099413391 0)
(0.057358141 -0.094995157 0)
(0.06832868 -0.089750657 0)
(0.078350274 -0.083837882 0)
(0.087347937 -0.077429764 0)
(0.095292292 -0.070701895 0)
(0.10219569 -0.06381661 0)
(0.10810521 -0.056912519 0)
(0.11308949 -0.05009607 0)
(0.11722555 -0.043440413 0)
(0.12059257 -0.036990163 0)
(0.12326328 -0.03076823 0)
(0.12529598 -0.024781196 0)
(0.12673646 -0.019029374 0)
(0.12762927 -0.013508442 0)
(0.12800142 -0.008209265 0)
(0.12786226 -0.0031213229 0)
(0.12723757 0.0017503922 0)
(0.12615101 0.00640371 0)
(0.12461016 0.010826073 0)
(0.12263581 0.015005002 0)
(0.12025521 0.018929571 0)
(0.11749455 0.022589188 0)
(0.11438182 0.025974459 0)
(0.11094908 0.029079208 0)
(0.10723184 0.031899998 0)
(0.10326375 0.034437526 0)
(0.099077168 0.036695017 0)
(0.094709016 0.038679464 0)
(0.090191395 0.040402351 0)
(0.085552473 0.041877092 0)
(0.080823026 0.043119977 0)
(0.076029382 0.044149126 0)
(0.071193371 0.04498368 0)
(0.066334531 0.045643863 0)
(0.061468933 0.046149724 0)
(0.056610628 0.046522342 0)
(0.051770553 0.046781835 0)
(0.046956685 0.046947627 0)
(0.042175699 0.047036634 0)
(0.037430434 0.047065714 0)
(0.03272102 0.04705054 0)
(0.028044237 0.047003909 0)
(0.023429555 0.046938028 0)
(0.018507367 0.046865989 0)
(0.015359164 0.046777293 0)
(0.0076885038 0.046687458 0)
(-0.0076338917 0.051293578 0)
(-0.015258349 0.051407976 0)
(-0.018417775 0.051520613 0)
(-0.023353214 0.051623003 0)
(-0.027982094 0.051723044 0)
(-0.032685742 0.051808762 0)
(-0.037436519 0.051864566 0)
(-0.042238316 0.051875663 0)
(-0.047092675 0.051825019 0)
(-0.051996206 0.051694816 0)
(-0.056945211 0.051463981 0)
(-0.06193368 0.051109776 0)
(-0.066950771 0.050611518 0)
(-0.071983273 0.04994324 0)
(-0.077014238 0.049081948 0)
(-0.082023302 0.048004005 0)
(-0.086986793 0.046687179 0)
(-0.091877492 0.045111039 0)
(-0.096664066 0.043254876 0)
(-0.10131308 0.041102527 0)
(-0.10578844 0.038644669 0)
(-0.11005163 0.035869956 0)
(-0.1140651 0.032774544 0)
(-0.11779088 0.029359482 0)
(-0.12119144 0.025629574 0)
(-0.1242318 0.021593654 0)
(-0.12688066 0.017264033 0)
(-0.12911064 0.012655907 0)
(-0.13089563 0.0077852221 0)
(-0.13221345 0.0026653824 0)
(-0.13305199 -0.0026936026 0)
(-0.1334042 -0.0082780605 0)
(-0.13326201 -0.014092714 0)
(-0.13260078 -0.020143907 0)
(-0.13139455 -0.026460305 0)
(-0.12960685 -0.033050237 0)
(-0.12718451 -0.039931113 0)
(-0.12405724 -0.047112198 0)
(-0.12013222 -0.054585842 0)
(-0.11530073 -0.062315672 0)
(-0.10944762 -0.070225327 0)
(-0.10246688 -0.078191732 0)
(-0.094279624 -0.086044953 0)
(-0.084851348 -0.093577728 0)
(-0.074204893 -0.10056294 0)
(-0.062424732 -0.10677572 0)
(-0.049650233 -0.1120136 0)
(-0.036062726 -0.11611239 0)
(-0.021873037 -0.11895099 0)
(-0.0073108992 -0.12044139 0)
(0.0073904107 -0.12043569 0)
(0.021950758 -0.11893537 0)
(0.036136344 -0.11608866 0)
(0.049716895 -0.11198271 0)
(0.062483352 -0.10674012 0)
(0.074256027 -0.10052419 0)
(0.084895108 -0.093538326 0)
(0.094316071 -0.086006245 0)
(0.10249612 -0.078154302 0)
(0.10946902 -0.070188945 0)
(0.11531518 -0.062280931 0)
(0.12014218 -0.054553766 0)
(0.12406337 -0.04708289 0)
(0.12718642 -0.039903426 0)
(0.12960475 -0.033023043 0)
(0.13138795 -0.026433278 0)
(0.13258945 -0.020117453 0)
(0.13324793 -0.014067565 0)
(0.13338731 -0.0082523683 0)
(0.13303036 -0.0026669393 0)
(0.13218769 0.0026912619 0)
(0.13086695 0.007810462 0)
(0.12907812 0.012680052 0)
(0.12684358 0.017286525 0)
(0.12419124 0.021614227 0)
(0.12114788 0.025647943 0)
(0.11774365 0.029375348 0)
(0.11401436 0.032787577 0)
(0.10999827 0.035880231 0)
(0.10573284 0.038651992 0)
(0.10125558 0.041106758 0)
(0.096605826 0.043255614 0)
(0.09181922 0.045107872 0)
(0.086928339 0.046679969 0)
(0.081965252 0.047992995 0)
(0.076957668 0.049066836 0)
(0.071928654 0.049923895 0)
(0.06689845 0.050587392 0)
(0.061884073 0.051081645 0)
(0.056898559 0.051431806 0)
(0.051952687 0.051658716 0)
(0.047052767 0.05178587 0)
(0.042202538 0.051832863 0)
(0.037404994 0.05181819 0)
(0.032658593 0.051759304 0)
(0.027958941 0.051671062 0)
(0.023334371 0.051567645 0)
(0.018403931 0.051462103 0)
(0.01524926 0.051346012 0)
(0.0076303346 0.051227548 0)
(-0.0075601963 0.055823575 0)
(-0.015118441 0.055972085 0)
(-0.018280529 0.056118274 0)
(-0.023217858 0.056263041 0)
(-0.027852628 0.056412651 0)
(-0.032576225 0.05655097 0)
(-0.03736179 0.056664877 0)
(-0.042215197 0.056736439 0)
(-0.047139208 0.056746937 0)
(-0.052133785 0.056675781 0)
(-0.057197821 0.056498503 0)
(-0.062323624 0.056190683 0)
(-0.067502409 0.055726244 0)
(-0.072722969 0.055077304 0)
(-0.077967371 0.054216455 0)
(-0.083214434 0.053116174 0)
(-0.088438713 0.051749807 0)
(-0.093612609 0.050093111 0)
(-0.098702334 0.048123095 0)
(-0.10366717 0.04582018 0)
(-0.10846984 0.04317128 0)
(-0.11306879 0.040164946 0)
(-0.11741892 0.036796899 0)
(-0.12147783 0.033068722 0)
(-0.12520359 0.028987149 0)