/*--------------------------------*- C++ -*----------------------------------*\
  =========                 |
  \\      /  F ield         | OpenFOAM: The Open Source CFD Toolbox
   \\    /   O peration     | Website:  https://openfoam.org
    \\  /    A nd           | Version:  9
     \\/     M anipulation  |
\*---------------------------------------------------------------------------*/
FoamFile
{
    format      ascii;
    class       surfaceScalarField;
    location    "0.86";
    object      alphaPhi0.phase1;
}
// * * * * * * * * * * * * * * * * * * * * * * * * * * * * * * * * * * * * * //

dimensions      [0 3 -1 0 0 0 0];

internalField   nonuniform List<scalar> 
19800
(
1.7638071e-88
2.0413765e-88
1.6980026e-87
8.6634348e-88
9.319858e-86
3.9765906e-86
2.9937516e-85
1.7988114e-85
3.4869163e-85
2.1219305e-85
7.5125124e-86
8.3116224e-86
5.3087185e-86
2.9662536e-86
5.6348507e-86
3.1133751e-86
3.3752684e-85
1.1041293e-85
5.3809223e-83
1.5309401e-83
6.5972114e-81
1.9354837e-81
7.1193102e-79
2.1823234e-79
6.8676715e-77
2.227954e-77
5.9646583e-75
2.0748344e-75
4.6648499e-73
1.7716843e-73
3.2858403e-71
1.3913792e-71
2.0797682e-69
1.0095824e-69
1.17414e-67
6.7954358e-68
5.8029831e-66
4.2619493e-66
2.3948474e-64
2.4964741e-64
6.9819037e-63
1.37081e-62
8.0976958e-64
7.074324e-61
-1.9322989e-59
3.4724653e-59
-1.8266428e-57
1.617709e-57
-1.3016964e-55
7.2983499e-56
-8.5153117e-54
3.2803628e-54
-4.5794934e-52
1.3875287e-52
-1.7573783e-50
4.8363134e-51
-5.4495426e-49
1.3783267e-49
-1.8194803e-47
3.8916361e-48
-7.2830118e-46
1.3208585e-46
-3.2230945e-44
5.3010212e-45
-1.6410261e-42
2.4376123e-43
-1.1639512e-40
1.4785457e-41
-1.2212419e-38
1.3060093e-39
-1.5231168e-36
1.4319048e-37
-1.9000539e-34
1.6292595e-35
-2.2408797e-32
1.7930121e-33
-2.4725359e-30
1.8796596e-31
-2.5576702e-28
1.8754596e-29
-2.4893102e-26
1.7777784e-27
-2.2807066e-24
1.5868724e-25
-1.9594551e-22
1.3063363e-23
-1.5629067e-20
9.6058105e-22
-1.1118733e-18
6.3465712e-20
-7.9220411e-17
1.1300821e-17
-9.0025226e-15
-1.750032e-15
-3.4808123e-13
0
-1.9728477e-12
0
-2.3124897e-12
-1.630443e-11
-7.1090892e-13
-6.0754606e-11
1.566985e-11
-1.0874525e-10
1.2628261e-10
-3.2485176e-10
5.7011418e-10
-8.7458762e-10
1.4187358e-09
-4.3558213e-09
1.9190229e-09
-2.0677437e-09
2.7751198e-09
-3.0778291e-09
1.8655122e-09
-4.6374379e-09
4.9042165e-10
-3.0115039e-10
6.0089968e-11
2.8088624e-10
4.8506444e-12
5.4771992e-11
2.2172962e-13
4.6259752e-12
7.5376866e-15
2.3127024e-13
4.6530952e-15
2.1910216e-14
3.1064662e-15
1.475274e-15
3.1252607e-16
3.797369e-16
9.589635e-18
3.4879349e-17
2.1929798e-19
1.5211252e-18
5.2062291e-21
5.1001928e-20
1.088675e-22
1.4404923e-21
1.8697145e-24
3.3553889e-23
2.6080799e-26
6.3755903e-25
2.9338951e-28
9.8268212e-27
2.6307219e-30
1.22162e-28
1.8529372e-32
1.2170609e-30
1.0159324e-34
9.6831462e-33
4.4369626e-37
6.2255276e-35
1.71229e-39
3.4431336e-37
6.3696236e-42
1.9216785e-39
1.0523744e-44
1.2617492e-41
-2.3376749e-46
9.1215854e-44
-3.9454343e-48
6.6108251e-46
-3.9773346e-50
4.3795197e-48
-3.0834909e-52
2.5820735e-50
-1.9556772e-54
1.3436298e-52
-1.0369907e-56
6.1034956e-55
-4.6301296e-59
2.3860388e-57
-1.7397706e-61
7.8767453e-60
-5.4691715e-64
2.1332034e-62
-1.4291492e-66
4.5813296e-65
-1.8846886e-69
7.1460562e-68
-3.1780187e-69
7.2914225e-71
-4.5329572e-69
-8.6388805e-71
-3.1373703e-67
-2.5077374e-68
-2.0791173e-65
-2.9286626e-66
-8.1287149e-64
-1.6385932e-64
-1.918783e-62
-5.0604044e-63
-2.3948248e-61
-8.5525618e-62
-2.3341463e-60
-7.0175647e-61
-2.6042571e-60
1.8418804e-88
1.3891491e-88
1.786489e-86
1.027679e-86
7.0463594e-85
3.8520962e-85
2.5354806e-84
1.8356384e-84
3.0993056e-84
2.6276943e-84
2.0868458e-84
2.2301375e-84
1.0515522e-84
1.3379138e-84
8.3888293e-85
7.3817812e-85
8.8135917e-84
4.5025074e-84
1.479564e-81
7.2642084e-82
1.938746e-79
1.012928e-79
2.2337824e-77
1.2554067e-77
2.2848712e-75
1.3976823e-75
2.0903226e-73
1.4081244e-73
1.7171587e-71
1.2963335e-71
1.2706173e-69
1.0944776e-69
8.4517575e-68
8.5377551e-68
5.0204743e-66
6.1770206e-66
2.6177895e-64
4.1659193e-64
1.1467503e-62
2.6285401e-62
3.657697e-61
1.5580792e-60
2.1790333e-60
8.6790597e-59
-8.9896869e-58
4.599719e-57
-9.7365953e-56
2.3196094e-55
-7.4661061e-54
1.1301232e-53
-4.7967931e-52
5.2914884e-52
-2.5234421e-50
2.2743881e-50
-1.1154811e-48
8.7037324e-49
-4.6955751e-47
3.1394305e-47
-2.0491573e-45
1.1719753e-45
-9.0124413e-44
4.6310232e-44
-3.9918774e-42
1.9068979e-42
-2.0806095e-40
8.8883467e-41
-1.626939e-38
5.832921e-39
-1.898411e-36
5.7052787e-37
-2.5057328e-34
6.6233508e-35
-3.2136053e-32
7.7042822e-33
-3.8596291e-30
8.5549844e-31
-4.3317219e-28
9.0527181e-29
-4.56715e-26
9.2102283e-27
-4.5409425e-24
9.0705056e-25
-4.2989992e-22
8.6228921e-23
-4.2963408e-20
7.7982313e-21
-3.2042873e-18
6.4714952e-19
-6.4571798e-17
5.2275947e-17
-1.1796051e-14
1.1117804e-14
-4.0933582e-12
3.4838911e-13
-7.5437649e-11
0
-1.9510426e-10
0
-4.4962249e-11
-3.6695762e-09
2.6927062e-10
-4.266724e-09
3.8148188e-09
-1.0900091e-08
1.6874347e-08
-2.7589864e-08
1.8683195e-08
-2.3640153e-08
9.8284619e-09
-2.8911567e-08
1.1256685e-08
-4.5383186e-09
4.5894488e-08
-4.4897272e-09
7.2798493e-08
-2.0045959e-08
4.7038548e-08
-6.1935549e-09
7.2022074e-09
3.2958646e-09
1.5673053e-09
1.8349738e-09
7.2145577e-11
1.4993234e-09
3.1894962e-12
6.9913115e-11
1.0609095e-13
3.1097753e-12
2.5075741e-15
1.0447249e-13
1.0842765e-15
3.2817411e-15
2.3473158e-16
6.8272635e-16
6.9468864e-18
7.4537043e-17
6.5677762e-20
2.0467134e-18
8.7163172e-22
3.7184325e-20
1.1905087e-23
6.5257746e-22
1.3468787e-25
9.7100831e-24
1.2296472e-27
1.1850183e-25
8.9497567e-30
1.1770042e-27
5.0959245e-32
9.3784073e-30
2.2674999e-34
5.9151469e-32
8.543309e-37
3.0569463e-34
3.2746701e-39
1.5041179e-36
1.1038558e-41
9.4736735e-39
-4.3127364e-44
7.7631271e-41
-1.5665969e-45
6.4836418e-43
-2.0612861e-47
5.0532922e-45
-1.9492745e-49
3.4818572e-47
-1.4747805e-51
2.1090662e-49
-9.2228525e-54
1.112345e-51
-4.8189616e-56
5.0429969e-54
-2.106737e-58
1.9330796e-56
-7.6805689e-61
6.1245166e-59
-2.3210006e-63
1.5492408e-61
-5.7453774e-66
2.9371434e-64
-2.2925318e-68
3.5436062e-67
-5.0848871e-68
-2.6783565e-71
-7.5532946e-66
-5.230666e-67
-6.865399e-64
-9.7262044e-65
-3.6629916e-62
-8.0035132e-63
-1.2128493e-60
-3.6390386e-61
-2.5204156e-59
-9.6396076e-60
-2.8228511e-58
-1.42755e-58
-1.2682266e-57
-1.0050105e-57
-2.9244921e-57
1.2156401e-85
8.8419586e-86
2.4476524e-83
7.8135932e-84
6.36666e-82
2.2225355e-82
1.7199679e-81
8.7976292e-82
2.0316375e-81
1.218193e-81
1.2771288e-81
1.0278614e-81
6.1940623e-82
6.2067829e-82
4.897272e-82
3.546002e-82
3.7043057e-81
1.6609498e-81
6.7149301e-79
2.8957175e-79
9.0730512e-77
4.3010407e-77
1.0727769e-74
5.626388e-75
1.1220541e-72
6.5700346e-73
1.0462672e-70
6.9071494e-71
8.7593854e-69
6.5847613e-69
6.5908066e-67
5.7483099e-67
4.4557095e-65
4.6181566e-65
2.6935483e-63
3.4275787e-63
1.4353153e-61
2.3642594e-61
6.5076692e-60
1.5219068e-59
2.2913964e-58
9.1444332e-58
3.6914371e-57
5.1424857e-56
-2.8755507e-55
2.7099078e-54
-3.8215702e-53
1.358419e-52
-3.429191e-51
6.8544369e-51
-2.6582525e-49
3.5026014e-49
-1.3614679e-47
1.5063374e-47
-4.2276394e-46
4.5477945e-46
-1.076772e-44
1.0642805e-44
-3.2884313e-43
2.6433376e-43
-1.2610122e-41
8.4758659e-42
-5.09414e-40
3.1328658e-40
-2.1687401e-38
1.2332795e-38
-1.1962244e-36
5.9251503e-37
-1.0624901e-34
4.3107082e-35
-1.2790903e-32
4.3623345e-33
-1.6041411e-30
4.8378993e-31
-1.9161513e-28
5.2690829e-29
-2.1493596e-26
5.5283819e-27
-2.2722642e-24
5.6460692e-25
-2.2940061e-22
5.6908573e-23
-2.4283854e-20
5.6911508e-21
-1.8897877e-18
5.4713858e-19
-3.0305053e-17
4.6789948e-17
-6.8616791e-15
5.2198206e-15
-6.7591583e-13
5.7385285e-13
-2.74723e-11
2.2503862e-11
-6.7864856e-09
-2.1670419e-09
-2.2483051e-09
-6.3998473e-08
1.7591498e-08
-6.8175193e-08
3.0483859e-08
-4.6361881e-08
3.952819e-08
-4.1078312e-08
3.9767225e-08
-4.9018512e-08
3.2364546e-08
-3.7660108e-08
1.166785e-08
-1.7186476e-08
1.4827161e-08
-6.6266332e-09
2.0223937e-08
-6.6508904e-09
1.3349051e-07
-9.0594342e-09
1.4534296e-07
-2.4794949e-09
1.4714105e-07
1.6856782e-08
1.2272411e-07
4.1610929e-08
6.4270558e-09
3.3741205e-08
2.4482303e-10
6.2418086e-09
7.4507311e-12
2.3994968e-10
2.1355339e-13
7.3161591e-12
5.5239297e-15
2.1082976e-13
5.9515563e-15
1.91048e-14
1.5636255e-15
3.1476391e-15
3.2726297e-17
2.9270338e-16
1.9572227e-19
5.868756e-18
1.9813693e-21
8.6573143e-20
1.9676551e-23
1.1511928e-21
1.5365082e-25
1.2567834e-23
9.0831136e-28
1.0923028e-25
3.875573e-30
7.3380735e-28
1.101646e-32
3.6633871e-30
1.8424486e-35
1.2956855e-32
2.0950397e-38
3.4323419e-35
-2.845629e-41
1.4262983e-37
-1.8113694e-42
1.0078872e-39
-2.7995323e-44
8.784023e-42
-3.0222831e-46
6.7803222e-44
-2.5875237e-48
4.6032211e-46
-1.8247481e-50
2.7233327e-48
-1.0730958e-52
1.3877862e-50
-5.2747144e-55
6.0045551e-53
-2.162119e-57
2.1644597e-55
-7.3573888e-60
6.3333463e-58
-2.0684106e-62
1.4414304e-60
-3.7472872e-65
2.3229681e-63
-1.5897139e-65
2.0648508e-66
-9.3390549e-65
-3.5518176e-66
-1.1411652e-62
-1.3553267e-63
-8.123702e-61
-1.669513e-61
-3.6186484e-59
-1.0869751e-59
-1.0452859e-57
-4.2015519e-58
-1.9479753e-56
-9.8810056e-57
-1.9731534e-55
-1.3354161e-55
-8.2742235e-55
-8.7687376e-55
-2.4382079e-54
6.9317445e-83
-1.1694057e-84
1.9418065e-80
8.0562813e-82
3.6465914e-79
3.7040755e-80
8.0281166e-79
1.7409728e-79
9.3456203e-79
2.8878935e-79
5.6893648e-79
2.8298731e-79
2.6955193e-79
1.8748576e-79
2.125008e-79
1.1489446e-79
1.3058168e-78
4.8020254e-79
2.5572925e-76
9.2606201e-77
3.5951031e-74
1.4887268e-74
4.3921578e-72
2.0850869e-72
4.7371807e-70
2.5677026e-70
4.5422836e-68
2.8368818e-68
3.900071e-66
2.8244546e-66
3.0105048e-64
2.5612023e-64
2.0909019e-62
2.1295167e-62
1.3020961e-60
1.6315773e-60
7.2081801e-59
1.1577764e-58
3.4721648e-57
7.6458078e-57
1.3659745e-55
4.7163397e-55
3.5098945e-54
2.711694e-53
-3.6791912e-53
1.4439393e-51
-1.2186983e-50
7.3015894e-50
-1.3917743e-48
3.8842731e-48
-1.5275845e-46
2.3440732e-46
-9.5521453e-45
1.1753694e-44
-2.5396271e-43
3.2829218e-43
-3.9001495e-42
5.3125579e-42
-6.4582897e-41
7.5118044e-41
-1.7621349e-39
1.5434979e-39
-6.5787063e-38
4.8098106e-38
-2.5427382e-36
1.6723473e-36
-9.654522e-35
5.9053661e-35
-4.06273e-33
2.2614315e-33
-2.5395364e-31
1.1685332e-31
-2.4594214e-29
9.0504653e-30
-2.7187298e-27
8.484685e-28
-2.952859e-25
8.3598423e-26
-3.0729899e-23
8.3240758e-24
-3.1894376e-21
8.4533661e-22
-3.1557638e-19
8.7437042e-20
-1.8717986e-17
8.4432238e-18
-1.1702114e-15
8.8463068e-16
-1.2004967e-13
1.0251127e-13
-9.5907609e-12
8.7043097e-12
-2.9563055e-09
4.2433656e-10
-1.9864062e-08
-4.0761139e-08
2.1653414e-08
-1.0066098e-07
5.5645053e-08
-9.7308854e-08
8.198804e-08
-6.7903307e-08
8.0249374e-08
-3.4076688e-08
3.0206256e-08
-1.3769616e-08
1.0804904e-08
-1.4701883e-08
9.3881404e-09
-1.3070262e-08
1.0945328e-08
-6.5885094e-09
1.3336335e-08
-2.1995167e-09
1.6702582e-08
-6.6210197e-09
2.2027278e-08
-2.4298818e-09
1.2225735e-07
1.1331771e-08
1.3342548e-07
4.5442004e-08
9.4587004e-08
9.1112384e-08
3.5355229e-09
5.180794e-08
7.5541636e-11
3.619005e-09
2.5452e-12
7.413231e-11
5.9559866e-14
2.4028575e-12
2.307126e-15
6.6282105e-14
5.3604149e-16
2.19866e-15
1.7357391e-17
1.7294549e-16
1.5882127e-19
5.0573619e-18
1.755751e-21
9.6063341e-20
1.617148e-23
1.3323176e-21
1.0609889e-25
1.3065133e-23
5.2797388e-28
9.9394284e-26
1.8660098e-30
6.0980303e-28
4.7520031e-33
2.9123289e-30
1.1144266e-35
1.2905262e-32
-1.8798429e-38
8.5964651e-35
-1.5742391e-39
9.5792583e-37
-2.7071632e-41
9.29969e-39
-3.2279461e-43
7.917408e-41
-3.0491715e-45
5.935504e-43
-2.3754293e-47
3.8838428e-45
-1.5475358e-49
2.1931216e-47
-8.4541473e-52
1.0542712e-49
-3.8684133e-54
4.2558511e-52
-1.4809665e-56
1.4187864e-54
-4.7584116e-59
3.816985e-57
-1.293417e-61
7.923838e-60
-5.0900453e-64
1.1208936e-62
-9.6923101e-64
1.0324117e-65
-1.205348e-61
-9.2430969e-63
-1.1161945e-59
-1.8815469e-60
-6.4967468e-58
-1.7431582e-58
-2.4779732e-56
-9.3838756e-57
-6.3368969e-55
-3.1553397e-55
-1.0691832e-53
-6.6693364e-54
-9.9166434e-53
-8.2899981e-53
-3.8577807e-52
-5.0982585e-52
-1.3544456e-51
3.0011257e-80
-1.9126194e-80
9.4047675e-78
-2.4107592e-78
1.4903605e-76
-2.5410268e-77
2.8944795e-76
-2.9491075e-77
3.3402335e-76
1.0541905e-77
2.0035461e-76
3.8013286e-77
9.3282089e-77
3.616462e-77
7.328888e-77
2.6334147e-77
3.6604686e-76
1.0376766e-76
7.9290552e-74
2.3107248e-74
1.1720517e-71
4.130653e-72
1.4944026e-69
6.2464117e-70
1.667031e-67
8.2334432e-68
1.6514977e-65
9.5670627e-66
1.4607769e-63
9.9833648e-64
1.1617174e-61
9.4087647e-62
8.3168879e-60
8.1030138e-60
5.3565801e-58
6.4059206e-58
3.0925172e-56
4.6690802e-56
1.5731637e-54
3.1656671e-54
6.822757e-53
1.9988636e-52
2.2729049e-51
1.1743346e-50
3.323104e-50
6.3633022e-49
-2.4515909e-48
3.2420917e-47
-3.9525518e-46
1.7469363e-45
-5.7474938e-44
1.1512289e-43
-4.768058e-42
6.8074337e-42
-1.4186942e-40
2.0685339e-40
-1.8394013e-39
2.9997577e-39
-1.8493629e-38
2.9342039e-38
-2.7728498e-37
3.3936716e-37
-7.5922654e-36
7.1064594e-36
-2.7623983e-34
2.1483407e-34
-1.1188376e-32
7.1597906e-33
-4.1665603e-31
2.3803011e-31
-1.1889215e-29
6.9380078e-30
-3.4048399e-28
1.8562144e-28
-1.8040326e-26
7.3036354e-27
-1.5757891e-24
4.8802239e-25
-1.6640651e-22
4.0086753e-23
-2.081093e-20
3.5225034e-21
-1.2063759e-18
2.7423756e-19
-3.660385e-17
2.6272826e-17
-4.1179803e-15
3.6479768e-15
-5.0398819e-13
5.0717571e-13
-4.1959073e-11
4.4147017e-11
-1.4550641e-08
3.8648812e-10
2.7179694e-08
-7.1663558e-08
5.3264202e-08
-1.2186992e-07
5.6018121e-08
-9.5299713e-08
4.1279532e-08
-1.8269106e-08
2.3766287e-08
-1.4334019e-08
1.5125063e-08
-1.0395277e-08
1.4802826e-08
-1.513403e-08
1.590759e-08
-1.1068398e-08
1.8685577e-08
-6.0852391e-09
2.2328573e-08
-1.1601963e-09
2.9184914e-08
-1.9906837e-08
2.5890625e-08
-7.1168716e-09
2.7343252e-08
5.359983e-09
8.4261429e-08
3.936402e-08
9.9282238e-08
9.2951038e-08
6.0518272e-08
9.2912945e-08
4.9296246e-10
2.5377317e-08
1.7581436e-11
5.0034969e-10
3.5792971e-13
1.8167125e-11
8.9393027e-15
3.688747e-13
2.0952233e-16
1.0337773e-14
9.1384335e-18
1.9312187e-16
2.0873801e-19
5.7739183e-18
4.7409481e-21
1.9140369e-19
4.0984108e-23
3.9098816e-21
1.3626377e-25
2.9971876e-23
4.4627604e-28
1.6298713e-25
1.3575793e-30
8.262356e-28
4.3351874e-33
4.5544966e-30
-1.364016e-35
4.2806085e-32
-9.0816883e-37
4.8130461e-34
-1.6796548e-38
5.0227622e-36
-2.2059524e-40
4.6351547e-38
-2.3177887e-42
3.7576211e-40
-2.0050506e-44
2.6438335e-42
-1.4222151e-46
1.5936661e-44
-8.2483764e-49
8.2062626e-47
-3.9918411e-51
3.6724531e-49
-1.6634163e-53
1.4271234e-51
-6.1031128e-56
4.7017319e-54
-2.0121659e-58
1.2790398e-56
-4.8755265e-61
2.709621e-59
-1.9639762e-61
4.3167221e-62
-8.7792474e-61
-1.9418345e-62
-1.0611013e-58
-1.2360027e-59
-7.8511008e-57
-1.7103314e-57
-3.8314651e-55
-1.2599197e-55
-1.271475e-53
-5.753743e-54
-2.9077605e-52
-1.7079215e-52
-4.4743579e-51
-3.2725351e-51
-3.8403558e-50
-3.7606295e-50
-1.3850303e-49
-2.1770197e-49
-5.5250088e-49
1.1880653e-77
-1.3514933e-77
3.2580125e-75
-1.6897293e-75
4.7542047e-74
-2.0870261e-74
8.6108806e-74
-3.7513863e-74
9.9121437e-74
-2.4671594e-74
5.8249226e-74
-6.6904631e-75
2.668419e-74
2.3034336e-75
2.0834584e-74
3.8575565e-75
7.8231808e-74
1.5663206e-74
1.9841722e-71
4.3865448e-72
3.1466836e-69
9.074913e-70
4.2226064e-67
1.5218474e-67
4.9204253e-65
2.1608904e-65
5.0491803e-63
2.6712969e-63
4.6188444e-61
2.9219653e-61
3.7842744e-59
2.874042e-59
2.7971466e-57
2.5569287e-57
1.8649586e-55
2.0813397e-55
1.116737e-53
1.5592504e-53
5.9835725e-52
1.0794724e-51
2.8096783e-50
6.9483947e-50
1.0965759e-48
4.1540575e-48
3.0105156e-47
2.2888327e-46
6.5636386e-47
1.1759939e-44
-7.2022235e-44
6.255786e-43
-1.2565195e-41
3.9901324e-41
-1.2891716e-39
2.4758654e-39
-5.0567219e-38
8.706053e-38
-8.0309008e-37
1.4444081e-36
-7.5740694e-36
1.3919342e-35
-7.0334799e-35
1.1604429e-34
-1.0214533e-33
1.3267199e-33
-2.6100367e-32
2.6545244e-32
-1.0290821e-30
7.8986138e-31
-5.202522e-29
2.8460245e-29
-1.9638805e-27
9.3678983e-28
-3.506286e-26
1.9512803e-26
-3.8430157e-25
2.5075544e-25
-8.0339165e-24
3.3930893e-24
-8.0999186e-22
1.2544522e-22
-3.1949567e-20
7.499043e-21
-4.6723456e-19
1.6920632e-19
-9.6294197e-18
5.9833255e-18
0
9.7241196e-16
0
9.8926588e-14
0
2.1716702e-11
4.3153237e-09
-2.0246569e-09
1.7173714e-08
-7.2816519e-09
1.5046711e-08
-1.4979005e-09
1.1067115e-08
-1.1495969e-08
7.7576053e-09
-1.8593682e-08
1.4611877e-08
-2.0347469e-08
2.9170675e-08
-2.7285508e-08
6.0106755e-08
-8.2388885e-08
8.8803604e-08
-1.9707295e-07
1.3259084e-07
-1.6115474e-07
3.3692292e-07
-1.3217085e-07
5.4061616e-07
-1.0380383e-07
3.1434926e-07
-4.9072818e-09
1.0600139e-07
8.4412083e-08
5.743785e-08
1.2691194e-07
1.025183e-07
1.7846676e-07
8.6007704e-08
1.1316263e-07
3.1904858e-10
2.709641e-08
2.2713505e-11
7.1801575e-10
3.9853304e-13
3.9210186e-11
5.9170858e-15
7.9518893e-13
1.5094932e-16
1.5435338e-14
6.30515e-18
1.9948908e-16
1.5172157e-19
5.3128065e-18
4.1026502e-21
1.8708148e-19
3.5722201e-23
4.3115317e-21
8.4345283e-26
3.3612442e-23
1.9973412e-28
1.6411083e-25
5.3817941e-31
8.9483646e-28
-4.8192742e-33
7.8308036e-30
-1.966173e-34
9.7147705e-32
-3.5592389e-36
1.098068e-33
-4.6895053e-38
1.0764646e-35
-4.9486815e-40
9.1285935e-38
-4.3311261e-42
6.6642187e-40
-3.2131019e-44
4.1636319e-42
-2.0716653e-46
2.2410139e-44
-1.204184e-48
1.076277e-46
-6.4596577e-51
4.9041936e-49
-3.2228677e-53
2.1307715e-51
-1.5114735e-55
8.4198585e-54
-6.3778601e-58
2.8543501e-56
-3.9986786e-60
7.1929353e-59
-6.9305986e-60
3.1808838e-61
-7.4771089e-58
-4.1670758e-59
-6.9054192e-56
-1.0819422e-56
-4.1939311e-54
-1.1148999e-54
-1.7472271e-52
-6.7519872e-53
-5.1097995e-51
-2.6629217e-51
-1.0559491e-49
-7.0565919e-50
-1.4901589e-48
-1.2360326e-48
-1.1922042e-47
-1.3186667e-47
-3.9899103e-47
-7.2165578e-47
-1.7499694e-46
9.8590634e-75
-2.0921392e-74
8.8471909e-73
-6.2060973e-73
1.2433194e-71
-8.529801e-72
2.1643734e-71
-1.612138e-71
2.4785764e-71
-1.2655221e-71
1.459626e-71
-6.0345361e-72
6.5348592e-72
-1.4422747e-72
4.9771953e-72
9.3283985e-74
1.1339084e-71
1.3469504e-72
3.9314617e-69
5.9986859e-70
6.9347212e-67
1.5609951e-67
9.9963466e-65
3.0086944e-65
1.2282696e-62
4.703004e-63
1.3174077e-60
6.2332432e-61
1.2508069e-58
7.2062313e-59
1.0629418e-56
7.3914228e-57
8.1146533e-55
6.8304788e-55
5.5948623e-53
5.7277359e-53
3.4831899e-51
4.4002241e-51
1.9534148e-49
3.1117265e-49
9.7573828e-48
2.039696e-47
4.2253961e-46
1.2375224e-45
1.4819916e-44
6.9183551e-44
3.4299959e-43
3.6146843e-42
-3.5040346e-42
1.9021386e-40
-1.732689e-39
1.1197102e-38
-2.0318812e-37
6.4183589e-37
-1.1067098e-35
2.5058831e-35
-2.8023567e-34
5.4839224e-34
-3.6169524e-33
6.8553531e-33
-2.9308614e-32
5.640518e-32
-2.2214439e-31
4.014855e-31
-2.7564577e-30
3.8940055e-30
-8.2155178e-29
7.9603708e-29
-4.8882564e-27
2.9205814e-27
-2.6449082e-25
1.1608973e-25
-5.838437e-24
2.7134207e-24
-4.8140457e-23
2.8541807e-23
-3.0061927e-22
1.7857506e-22
-5.3757975e-21
1.4670564e-21
-1.4495426e-19
3.3625168e-20
-1.3873761e-18
6.2974033e-19
-8.6160302e-17
1.1494873e-17
-2.6211626e-14
2.370164e-15
0
8.7442475e-14
2.146931e-11
2.5576669e-13
1.8530858e-09
-4.7861974e-09
5.1286357e-10
-5.9074471e-09
5.5159493e-10
-1.4948827e-09
4.0821586e-09
-1.4978944e-08
2.8867461e-08
-4.8926601e-08
1.6191427e-07
-2.924331e-07
5.9602596e-07
-5.8920737e-07
9.6037079e-07
-6.4793821e-07
6.7864993e-07
-6.7306247e-07
2.2319701e-07
-5.2199588e-07
6.1557156e-07
-1.5478452e-07
6.7469523e-07
-1.2466515e-07
6.1266316e-07
3.0951244e-08
4.9086317e-07
2.0531219e-07
2.9782135e-07
3.2664537e-07
0
3.0760148e-07
0
7.6645141e-08
0
7.4728064e-09
0
1.0086228e-09
2.0942931e-12
1.494471e-10
4.0155212e-14
2.8703838e-12
3.2820384e-16
5.5584216e-14
3.3464301e-18
5.3130208e-16
4.6829125e-20
4.6565426e-18
1.3288786e-21
9.0019186e-20
2.3639962e-23
2.9521412e-21
8.5142229e-26
5.2149887e-23
9.4045643e-29
4.1086682e-25
-5.3725504e-30
5.761584e-27
-1.5074677e-31
7.6610449e-29
-2.5851448e-33
8.9614816e-31
-3.4312773e-35
9.2735769e-33
-3.7550986e-37
8.48428e-35
-3.471606e-39
6.8410845e-37
-2.7429403e-41
4.8407054e-39
-1.8776337e-43
2.991639e-41
-1.1755223e-45
1.6180685e-43
-6.7998898e-48
7.9585446e-46
-3.8339527e-50
3.5599036e-48
-1.9299943e-52
1.4970004e-50
-7.5130204e-55
5.2387105e-53
-2.1262739e-57
1.2845723e-55
-8.906062e-58
2.8522252e-58
-4.068541e-57
3.1291585e-59
-4.6656286e-55
-4.2068587e-56
-3.4563824e-53
-6.788582e-54
-1.7588962e-51
-5.4880351e-52
-6.3541899e-50
-2.7970528e-50
-1.656097e-48
-9.6698764e-49
-3.1153479e-47
-2.3104873e-47
-4.0594938e-46
-3.7226311e-46
-3.0435976e-45
-3.7047721e-45
-9.4755903e-45
-1.9232369e-44
-4.4608573e-44
1.6248279e-71
-4.7861305e-71
1.9245185e-70
-1.6527329e-70
2.7589294e-69
-2.5045344e-69
4.7237605e-69
-4.8502469e-69
5.3604647e-69
-4.0364167e-69
3.1904895e-69
-2.1829205e-69
1.3925826e-69
-7.3115798e-70
7.3283828e-70
-1.3888898e-70
7.2956045e-70
1.3351253e-71
5.6049687e-67
4.840068e-68
1.2051683e-64
1.9652604e-65
1.9344965e-62
4.682887e-63
2.5558762e-60
8.3078684e-61
2.8947329e-58
1.2023063e-58
2.8752497e-56
1.4818798e-56
2.5379731e-54
1.5986213e-54
2.0115386e-52
1.5342269e-52
1.4358293e-50
1.330905e-50
9.2761917e-49
1.0495185e-48
5.4171389e-47
7.5939368e-47
2.8509682e-45
5.0658453e-45
1.3310827e-43
3.1180279e-43
5.3298863e-42
1.7693013e-41
1.747822e-40
9.4053951e-40
3.785632e-39
4.9755603e-38
-8.4732593e-38
2.716151e-36
-2.0938734e-35
1.3920861e-34
-1.7257754e-33
5.7710909e-33
-8.0214274e-32
1.7539635e-31
-1.6040156e-30
3.1452732e-30
-1.3512415e-29
2.8688445e-29
-6.8711298e-29
1.5617171e-28
-4.0129404e-28
7.9716973e-28
-6.7621519e-27
8.4012517e-27
-4.368757e-25
2.8569323e-25
-3.1179941e-23
1.3333404e-23
-7.9960671e-22
3.4446334e-22
-6.1751424e-21
3.2664437e-21
-2.4672163e-20
1.3719637e-20
-1.4358416e-19
4.5030018e-20
-1.4437667e-18
2.4418613e-19
-6.2858262e-18
1.3204888e-18
-1.253078e-16
1.1882263e-17
-3.331749e-14
1.8992991e-15
0
7.6173919e-14
8.9901774e-14
-3.2956214e-14
3.740372e-09
-6.9251456e-09
1.5873321e-09
-3.8286216e-09
1.5966132e-09
-1.4881381e-09
1.3013343e-07
-2.8062194e-07
6.2676822e-07
-6.9757138e-07
6.6249665e-07
-7.7042214e-07
7.9380794e-07
-7.2722402e-07
9.2781715e-07
-7.4898969e-07
9.0190266e-07
-6.1297678e-07
2.5204229e-07
-2.1336982e-07
5.4054321e-08
-1.1542821e-08
5.2549698e-07
-1.53937e-09
5.1990608e-07
3.3273416e-08
4.7007573e-07
2.3983936e-07
4.3646383e-07
3.6300344e-07
2.8769142e-07
4.5699949e-07
0
1.9703216e-07
0
9.2191257e-09
0
1.1328481e-09
2.7995457e-12
1.0637728e-10
6.409969e-13
5.0331208e-12
1.6981991e-15
7.0070597e-13
7.0472746e-16
1.2666612e-14
2.3047584e-18
3.8300939e-16
4.1404786e-21
1.9041034e-18
6.0944953e-23
4.989871e-20
-7.9090258e-26
3.3243138e-22
-4.5517575e-27
2.9932698e-24
-1.0314643e-28
4.1017237e-26
-1.745642e-30
5.0723717e-28
-2.4593574e-32
5.6972629e-30
-2.9761973e-34
5.8147358e-32
-3.1443008e-36
5.3459346e-34
-2.9386075e-38
4.4060788e-36
-2.4698917e-40
3.2499888e-38
-1.8616744e-42
2.1522716e-40
-1.080171e-44
1.2549241e-42
-5.1958723e-47
5.6706123e-45
-2.0923852e-49
2.0851449e-47
-7.2715401e-52
6.1770127e-50
-2.3492225e-54
1.4828254e-52
-1.5208105e-56
3.1118103e-55
-2.5729682e-56
2.2887778e-57
-2.5197492e-54
-5.5484393e-56
-2.2431928e-52
-2.797084e-53
-1.3657221e-50
-3.2091855e-51
-5.9290913e-49
-2.1083157e-49
-1.8815668e-47
-9.219753e-48
-4.4136193e-46
-2.8279596e-46
-7.6128383e-45
-6.1447762e-45
-9.2217052e-44
-9.1617512e-44
-6.5009989e-43
-8.5474694e-43
-1.8904602e-42
-4.2190813e-42
-9.3800414e-42
2.4495071e-68
-8.5889203e-68
3.7133338e-68
-5.2379529e-68
5.3122416e-67
-5.8105833e-67
9.0903374e-67
-1.1644266e-66
1.0212251e-66
-9.9771094e-67
6.1617028e-67
-5.7324671e-67
2.6574961e-67
-2.1495194e-67
7.0715889e-68
-5.0322264e-68
1.3986934e-68
-2.0526646e-69
4.4322303e-65
1.01231e-66
1.5050292e-62
1.5413341e-63
2.9156477e-60
5.3372355e-61
4.268708e-58
1.1384667e-58
5.1834474e-56
1.8425385e-56
5.4278409e-54
2.4543835e-54
5.0058708e-52
2.8034312e-52
4.1164193e-50
2.8152622e-50
3.0506464e-48
2.5221572e-48
2.0405153e-46
2.0490271e-46
1.2379639e-44
1.5164625e-44
6.7973477e-43
1.0309615e-42
3.3510132e-41
6.4432901e-41
1.4629553e-39
3.7077275e-39
5.5827862e-38
2.0039902e-37
1.8161366e-36
1.0601042e-35
3.7783966e-35
5.4860966e-34
-8.0088524e-34
2.6003018e-32
-2.0046842e-31
1.1710256e-30
-1.8295816e-29
4.9468196e-29
-5.2416324e-28
1.1866524e-27
-4.6273168e-27
1.1498274e-26
-1.9082865e-26
5.3136789e-26
-7.0133308e-26
1.8337584e-25
-7.2165057e-25
1.0977671e-24
-6.1161583e-23
3.7891087e-23
-5.1498074e-21
2.117964e-21
-1.1462384e-19
4.9751639e-20
-6.6317419e-19
3.4453601e-19
-1.6814596e-18
8.7190631e-19
-3.9673441e-18
1.1619133e-18
-1.4387976e-17
5.8043914e-19
-3.6539445e-17
-5.9090057e-18
-2.1538561e-16
-1.797108e-17
-8.2799092e-15
6.1451059e-16
-9.6268795e-23
1.3170298e-14
1.0984482e-10
-1.0995032e-10
2.4470257e-09
-7.6714051e-09
1.1725564e-09
-1.6904991e-09
1.3675704e-09
-1.6675349e-09
3.515336e-07
-4.7777991e-07
5.5608686e-07
-8.4898299e-07
6.6279202e-07
-8.7105404e-07
7.650905e-07
-7.9426937e-07
6.807022e-07
-6.3273677e-07
2.1721068e-07
-1.6423079e-07
1.796304e-08
-1.1284732e-08
8.9158162e-09
-2.4336897e-09
7.8478601e-09
-4.8966483e-10
3.4531962e-07
5.1853385e-08
3.3353928e-07
2.3782472e-07
3.2244963e-07
3.7986804e-07
2.9870789e-07
4.6931626e-07
1.4490125e-10
2.4966092e-07
0
1.2208397e-08
0
9.4973127e-10
1.9881743e-11
1.7381957e-10
5.339957e-13
2.5227408e-11
1.4410382e-12
1.892018e-11
2.3752335e-16
2.6487197e-13
2.4188019e-19
5.9631356e-16
-9.0740085e-22
5.2526428e-18
-9.3816444e-23
1.5372702e-19
-2.0830202e-24
1.0382546e-21
-4.4990474e-26
1.1904768e-23
-7.7942089e-28
1.6772158e-25
-1.1140676e-29
2.1194116e-27
-1.3733847e-31
2.3095354e-29
-1.4817595e-33
2.2215575e-31
-1.3987392e-35
1.8956215e-33
-1.147597e-37
1.4214269e-35
-8.1371037e-40
9.23699e-38
-4.9554039e-42
5.1324945e-40
-2.6086888e-44
2.4171865e-42
-1.1608821e-46
9.8051491e-45
-4.3750272e-49
3.3018983e-47
-1.454843e-51
9.6308672e-50
-3.8255047e-54
2.3290557e-52
-1.956129e-54
6.4684072e-55
-1.1819237e-53
4.9821996e-55
-1.1872754e-51
-6.3653165e-53
-8.4989324e-50
-1.3479957e-50
-4.3406564e-48
-1.1800054e-48
-1.6329477e-46
-6.4705459e-47
-4.6074002e-45
-2.4669689e-45
-9.8083666e-44
-6.788489e-44
-1.5622132e-42
-1.3511807e-42
-1.7705843e-41
-1.8752269e-41
-1.1760464e-40
-1.6480541e-40
-3.2097076e-40
-7.7482016e-40
-1.6559149e-39
2.9177646e-65
-1.1607479e-64
1.4842613e-65
-3.6320242e-65
8.7554029e-65
-1.0958354e-64
1.5620095e-64
-2.3526907e-64
1.7454579e-64
-2.0601968e-64
1.0661848e-64
-1.2305404e-64
4.5953661e-65
-4.8763418e-65
1.2111405e-65
-1.5610988e-65
1.9139584e-66
-3.5928102e-67
1.0538005e-63
-1.8756095e-64
6.8289316e-61
3.0440937e-62
1.731814e-58
2.1959967e-59
2.9114671e-56
6.1366035e-57
3.8956061e-54
1.1610189e-54
4.3751691e-52
1.7128752e-52
4.2672125e-50
2.1040943e-50
3.6839971e-48
2.2362289e-48
2.8491843e-46
2.1002084e-46
1.993936e-44
1.7690928e-44
1.2642731e-42
1.3562934e-42
7.3012322e-41
9.5050463e-41
3.8351493e-39
6.1479009e-39
1.8314532e-37
3.6844421e-37
7.8026756e-36
2.0521796e-35
2.8557429e-34
1.050445e-33
8.5086258e-33
5.0346427e-32
1.8825626e-31
2.6667125e-30
-1.3248887e-29
2.3933861e-28
-5.7898875e-27
2.1965765e-26
-2.0752458e-25
6.3975813e-25
-1.5883172e-24
5.3323851e-24
-5.0348687e-24
1.8473798e-23
-1.3252654e-23
4.3900105e-23
-1.0822215e-22
1.7134924e-22
-1.3386215e-20
7.0679714e-21
-8.0338388e-19
3.6617842e-19
-9.4163182e-18
5.3451302e-18
-3.6695717e-17
2.2080558e-17
-1.0076147e-16
3.8210264e-17
-1.3218111e-16
2.6924351e-17
-1.3881753e-16
-1.2060256e-16
-1.3747803e-16
-1.1913393e-16
-2.3113353e-16
-7.3256813e-17
0
1.6230681e-16
-5.9261487e-13
3.8701659e-15
4.1057178e-10
-2.9794291e-09
7.4854127e-10
-2.3349653e-09
4.9517693e-10
-1.421362e-09
6.913437e-10
-1.850946e-09
2.9825798e-07
-3.1718412e-09
3.9376461e-07
-8.8680912e-07
4.4611518e-07
-8.8815148e-07
3.4719447e-07
-6.621061e-07
1.6610705e-07
-1.1872019e-07
1.1313942e-08
-8.5163724e-09
3.3484462e-09
-3.2019032e-09
2.4694705e-09
-1.5608408e-09
2.3530043e-09
-1.9817656e-10
6.984095e-08
4.3823661e-09
1.9581593e-07
1.7121305e-07
1.880292e-07
3.7567212e-07
1.8414453e-07
4.7032576e-07
0
1.5020818e-07
0
7.8681051e-09
1.1616748e-10
8.9494654e-10
1.3067108e-11
3.5850738e-10
5.8491852e-11
9.8280796e-10
0
4.717723e-11
0
1.4569531e-13
-1.1701776e-18
2.9633607e-16
-6.0367971e-20
1.2048273e-17
-7.0263997e-22
2.7145489e-19
-1.0530108e-23
2.4089171e-21
-1.8636094e-25
2.6883449e-23
-3.0018558e-27
3.5330831e-25
-3.9403462e-29
4.1985083e-27
-4.363529e-31
4.2877272e-29
-4.1794741e-33
3.822526e-31
-3.4695139e-35
3.0087255e-33
-2.4892911e-37
2.0926834e-35
-1.5377742e-39
1.2562523e-37
-8.2294992e-42
6.4549643e-40
-3.9020716e-44
2.8409643e-42
-1.6058697e-46
1.0867668e-44
-6.4870536e-49
3.8684243e-47
-2.4940098e-51
1.2262464e-49
-3.4564267e-53
3.528906e-52
-6.1540908e-53
7.566749e-54
-5.3858493e-51
7.4297722e-53
-4.3755379e-49
-3.7130986e-50
-2.580517e-47
-4.9376873e-48
-1.1258631e-45
-3.4515647e-46
-3.72155e-44
-1.6142632e-44
-9.4354429e-43
-5.4403436e-43
-1.8379013e-41
-1.3561293e-41
-2.7202325e-40
-2.490227e-40
-2.9008532e-39
-3.2343777e-39
-1.8188839e-38
-2.6895627e-38
-4.6820846e-38
-1.2063049e-37
-2.4853458e-37
2.7848737e-62
-1.2233833e-61
6.5913019e-63
-3.4576842e-62
1.1959935e-62
-1.8188757e-62
2.4221858e-62
-4.1323232e-62
2.7080131e-62
-3.6898674e-62
1.6743806e-62
-2.2636255e-62
7.4514467e-63
-1.0147652e-62
2.2187689e-63
-9.9496253e-63
1.7331298e-64
-3.7881691e-65
2.2677415e-62
-1.1627945e-63
2.0100425e-59
-6.9842204e-62
1.3708485e-56
1.0054608e-57
3.7313165e-54
5.8748195e-55
6.1422051e-52
1.4970007e-52
7.718482e-50
2.5798649e-50
8.1105694e-48
3.4963189e-48
7.4064847e-46
3.9695166e-46
5.9886093e-44
3.9178719e-44
4.3459511e-42
3.4202786e-42
2.8545269e-40
2.6861153e-40
1.7015163e-38
1.9188499e-38
9.2439843e-37
1.2527389e-36
4.5648733e-35
7.5311297e-35
2.0434243e-33
4.1900145e-33
8.1599987e-32
2.15863e-31
2.8790401e-30
1.0442866e-29
9.5474151e-29
5.417116e-28
3.2565382e-27
4.1910242e-26
-1.5102895e-25
3.3998231e-24
-1.9373442e-23
1.023861e-22
-2.0278681e-22
9.1089031e-22
-6.5606796e-22
3.1048299e-21
-1.5271946e-21
6.2732473e-21
-8.4963223e-21
1.6237016e-20
-8.5490058e-19
4.9862015e-19
-3.6288963e-17
2.0218913e-17
-3.2782228e-16
2.1973128e-16
-1.1992825e-15
8.1513197e-16
-3.0301163e-15
1.3535182e-15
-2.8519854e-15
2.9602148e-16
-1.6279228e-15
-1.5324888e-16
-3.0224162e-16
-1.2552689e-16