/*--------------------------------*- C++ -*----------------------------------*\
  =========                 |
  \\      /  F ield         | OpenFOAM: The Open Source CFD Toolbox
   \\    /   O peration     | Website:  https://openfoam.org
    \\  /    A nd           | Version:  9
     \\/     M anipulation  |
\*---------------------------------------------------------------------------*/
FoamFile
{
    format      ascii;
    class       volScalarField;
    location    "0.86";
    object      p;
}
// * * * * * * * * * * * * * * * * * * * * * * * * * * * * * * * * * * * * * //

dimensions      [1 -1 -2 0 0 0 0];

internalField   nonuniform List<scalar> 
10000
(
0
-0.0014531954
-0.00013846995
0.0022365194
0.0057715239
0.010730293
0.016879008
0.024283331
0.032757025
0.042386695
0.053040181
0.064650775
0.077310946
0.090904913
0.10551133
0.12129813
0.13830037
0.15675749
0.17703733
0.19949207
0.22479371
0.2539093
0.28597997
0.32374382
0.36677757
0.41620176
0.47319579
0.53909396
0.61537669
0.70356306
0.80525455
0.92214277
1.0558523
1.2078224
1.3792894
1.5711655
1.783854
2.0171995
2.2705211
2.5424099
2.8301525
3.1297207
3.4367641
3.7470623
4.0565019
4.366612
4.6895414
5.029958
5.3532862
5.5606889
5.5691219
5.5551599
5.4338592
5.4393104
5.5417257
5.8506943
6.0773144
6.1727868
6.2251404
6.2544276
6.4934012
6.7816104
7.0025397
7.1566662
7.2658243
7.3405051
7.3891169
7.4226449
7.4480906
7.4699113
7.4917757
7.5161573
7.5444036
7.5771826
7.6147275
7.6569459
7.7035533
7.7541624
7.8082894
7.865413
7.9250508
7.9867627
8.0499476
8.1140902
8.1788944
8.2440754
8.3090725
8.373129
8.435408
8.4951647
8.5519225
8.605183
8.6542897
8.698519
8.7380896
8.772661
8.8019392
8.8253097
8.8421058
8.8572604
0.0039848923
0.0021284216
0.0034148279
0.0056187274
0.009028299
0.013740135
0.019763029
0.026836406
0.035089335
0.044410098
0.054687165
0.06603231
0.078281026
0.091445683
0.10568244
0.1209505
0.13738287
0.15526879
0.17478828
0.1962898
0.22038465
0.24760443
0.27803371
0.31320062
0.35347919
0.39984296
0.45351872
0.51591917
0.58856651
0.67310218
0.7713433
0.88519919
1.0165263
1.1670476
1.3382759
1.5313153
1.7466356
1.9839709
2.2422014
2.5191485
2.8114379
3.11465
3.4242383
3.7359176
4.0437385
4.3450907
4.6636772
5.040107
5.4478853
5.6921272
5.656969
5.4702701
4.9297196
4.9481851
5.0803848
5.5119246
5.6924987
6.1633004
6.0219055
5.9278287
6.3133241
6.5513707
6.7711161
6.9275948
7.0416848
7.1280335
7.193432
7.247219
7.2939579
7.3367453
7.3780745
7.4196594
7.4627817
7.5083055
7.5567098
7.6081828
7.6627154
7.7201559
7.7802226
7.8425632
7.9068284
7.9726466
8.0395364
8.1070423
8.1747573
8.2423039
8.3091643
8.3746927
8.4382262
8.4991988
8.5569873
8.6111586
8.6609389
8.7062084
8.7466123
8.7818824
8.8117511
8.8356547
8.8528593
8.8683656
0.0046667953
0.0028464021
0.0040869989
0.00632615
0.0096661846
0.014460888
0.020397005
0.027527742
0.035758994
0.044949423
0.05519363
0.066339358
0.078324126
0.091249494
0.10505229
0.11975102
0.13552989
0.15250642
0.17085024
0.19095214
0.213235
0.23808606
0.26601058
0.29798789
0.33464022
0.37695967
0.42623574
0.48388916
0.55150589
0.6309225
0.72418415
0.83343138
0.96085143
1.1085935
1.2785854
1.4722968
1.6904986
1.9330534
2.1986424
2.4844892
2.7863131
3.0984975
3.4152321
3.7315909
4.0362884
4.3087332
4.5897732
5.0112668
5.709025
6.0072056
5.8735426
5.5784423
5.3682921
5.1496502
4.3374182
4.8561193
5.0452547
5.4310629
5.9861266
6.2971736
6.4278918
6.4695725
6.6870467
6.800207
6.8840771
6.9535349
7.0177022
7.0828894
7.1457245
7.2055341
7.2634056
7.3203715
7.3774528
7.4354211
7.4948198
7.5559747
7.6189921
7.6838643
7.7504812
7.8186272
7.8881356
7.9586157
8.0296604
8.1008536
8.1717693
8.2419913
8.3110615
8.3784072
8.4434531
8.5056326
8.5644474
8.6193615
8.6702715
8.7165957
8.7579955
8.7941638
8.8248091
8.8493715
8.8671214
8.8832683
0.0028140709
0.0010662943
0.0023901637
0.0045917842
0.0080662442
0.01282022
0.018843072
0.026038719
0.034237856
0.043504411
0.053701849
0.064706381
0.076569623
0.089205792
0.10254098
0.11667303
0.13164381
0.14749419
0.16444954
0.18278364
0.20275767
0.22478182
0.24945867
0.27738374
0.30938166
0.34643127
0.38982088
0.44098836
0.50164433
0.57382989
0.65983234
0.76212917
0.88338916
1.0263403
1.1935174
1.3870038
1.6081198
1.8570448
2.1324139
2.4309376
2.747195
3.0735214
3.4016301
3.7255705
4.0265732
4.2338827
4.3626177
5.1650165
6.6620804
6.993863
6.7513323
6.140359
4.4949905
3.4136526
3.2467174
3.6621075
4.0975227
4.5115503
4.7694941
4.2464387
5.37033
5.6876641
6.2417609
6.4527486
6.6254155
6.7207674
6.8058442
6.8956709
6.9840677
7.0668816
7.1440268
7.2172552
7.2883996
7.3586531
7.4288393
7.4995392
7.5710749
7.6435622
7.7169857
7.7914362
7.8666094
7.9422123
8.0178954
8.0932734
8.1679291
8.2414354
8.3133562
8.3832052
8.4504949
8.5147386
8.5754764
8.6322665
8.6847348
8.7324813
8.7751489
8.8124473
8.8440562
8.8694017
8.8877866
8.9047012
0.0014686841
-0.00091122292
9.4578742e-05
0.0023261255
0.0057447327
0.010602735
0.016727386
0.023932181
0.032259959
0.041576641
0.05172196
0.062706223
0.074412789
0.086698296
0.099577661
0.11303351
0.1269982
0.14154687
0.15682671
0.17295102
0.19015143
0.20881065
0.22939313
0.25243702
0.27870512
0.30917094
0.34506747
0.38789465
0.43949508
0.50208087
0.57821888
0.67084605
0.78324386
0.9188801
1.0811679
1.2731738
1.4971599
1.7539478
2.0423398
2.358644
2.6961479
3.0446071
3.3914522
3.7258144
4.0258152
4.152515
4.0859498
5.9264542
6.6257164
6.7116426
5.9191835
5.0876546
4.422071
2.9151555
2.1462621
2.024749
2.2482706
2.3705396
2.7798359
3.5965621
3.6357477
4.6995086
5.7757606
5.6907491
6.097102
6.352338
6.5180896
6.6551703
6.7828642
6.8990232
7.0021574
7.0958383
7.1838952
7.2685033
7.3511176
7.4327936
7.5141618
7.5954879
7.6771087
7.7589541
7.8408855
7.9226707
8.0039867
8.0844717
8.1637332
8.2413722
8.3169642
8.3900894
8.4603025
8.5271662
8.5902542
8.649159
8.7035274
8.7529935
8.7972096
8.8358853
8.8687018
8.8950004
8.9142331
8.9320083
-0.0025066172
-0.0048722595
-0.0037266716
-0.0015120893
0.0020677641
0.007082913
0.013298094
0.02073222
0.02925091
0.03866925
0.048959177
0.059985681
0.071551721
0.083603865
0.096067914
0.10878979
0.12172265
0.13488062
0.14824327
0.16188385
0.17598606
0.19077909
0.20657893
0.22391996
0.24346306
0.26603529
0.29281455
0.3253712
0.36561963
0.41591516
0.4791538
0.55882298
0.65893735
0.78391831
0.93840493
1.1268999
1.3531361
1.6191914
1.9245854
2.2654509
2.6337869
3.0168964
3.3974411
3.756544
4.0708393
4.1956224
4.2126187
4.8112493
5.5079396
6.0810656
6.3456705
5.4049837
3.9223988
2.0183601
0.58353332
-0.3525278
-0.61803853
-0.10221794
0.35003311
0.27139727
1.8876143
2.9036601
4.4785171
4.6432906
5.3999683
5.8987806
6.1827525
6.3804891
6.5527512
6.7069983
6.8402459
6.9573077
7.0645162
7.165375
7.2620912
7.3563006
7.448916
7.5406178
7.6316769
7.722167
7.8120098
7.9010236
7.9889024
8.0753152
8.1599118
8.2423425
8.3222271
8.3991728
8.4727995
8.5427193
8.6085572
8.6699785
8.7266342
8.7781525
8.8241958
8.8644746
8.8987127
8.9262028
8.9464833
8.9653345
-0.0080310441
-0.010344306
-0.0092038488
-0.006839657
-0.0030683232
0.0020975858
0.0086187815
0.016374341
0.025137591
0.034877839
0.045430499
0.056559724
0.068157022
0.080101617
0.092179659
0.10423531
0.11617895
0.12786689
0.13919875
0.15020427
0.16092615
0.17142373
0.18190196
0.19278568
0.20464678
0.21801106
0.23407318
0.25433714
0.28070315
0.31566153
0.36244421
0.42510777
0.50850939
0.61828285
0.7607011
0.94227338
1.1689597
1.4450162
1.7715657
2.1451398
2.556487
2.9906396
3.42697
3.8429915
4.2245408
4.4476338
4.7520545
5.0718009
5.5907755
5.9403341
5.8070673
4.9994478
3.4889461
1.7369849
1.4004953
-1.1291045
-3.4461057
-3.6662647
-3.423467
-2.6890167
-1.0040131
-0.061084122
1.9486891
3.496475
4.7053648
5.45596
5.8490819
6.1008545
6.313251
6.5036664
6.6669611
6.8078488
6.934943
7.052875
7.1646966
7.2725034
7.377526
7.4805762
7.5820751
7.6821733
7.7808198
7.8778627
7.9730474
8.0660851
8.1566797
8.2445125
8.3292547
8.4105486
8.4880647
8.5614926
8.6305182
8.6948271
8.7540882
8.807971
8.8561043
8.8982965
8.9342021
8.9631477
8.9846619
9.0047896
-0.015110621
-0.017584571
-0.016274706
-0.013724025
-0.009786591
-0.0042546625
0.0026588367
0.010748963
0.020010764
0.030232453
0.041142279
0.052590193
0.064419189
0.076369814
0.088209571
0.099758883
0.11077588
0.12102287
0.13035653
0.13866751
0.14581609
0.15173219
0.15648621
0.16029638
0.16348902
0.16664063
0.17035552
0.1762569
0.18602771
0.2022643
0.22844767
0.26915369
0.33016343
0.41856459
0.5427008
0.71179709
0.93510465
1.2204071
1.5718072
1.9872775
2.4563016
2.9601999
3.4735492
3.9696007
4.4428446
4.7894281
5.3358459
5.5160042
5.6403771
5.3210354
5.4969248
5.444726
3.5898342
2.1556421
0.0042179081
-4.4595124
-6.7443145
-8.0950208
-8.3138724
-6.8544258
-4.5794873
-2.0478029
-0.29539469
2.1226058
3.9524093
5.0129713
5.5275302
5.8266661
6.0738705
6.2961472
6.4868948
6.6503097
6.7971444
6.9323537
7.0599727
7.1821617
7.3004413
7.4157649
7.5286289
7.6392357
7.7475521
7.8534274
7.9566749
8.0570539
8.1542979
8.2481263
8.3382473
8.4243943
8.5062798
8.583647
8.6562502
8.7237704
8.7859461
8.8424714
8.8930296
8.9373709
8.9752344
9.0058291
9.0288075
9.0504645
-0.024011488
-0.026527686
-0.025077032
-0.022359424
-0.01803601
-0.012060262
-0.0046854912
0.0040217658
0.013908242
0.024712552
0.036215064
0.048231304
0.06046466
0.072633321
0.084492241
0.095719882
0.10596734
0.11495724
0.12243673
0.12808833
0.13162511
0.13285614
0.13165102
0.12792887
0.12177939
0.11352086
0.10371003
0.093156036
0.083540821
0.077365887
0.078181932
0.090961697
0.12240129
0.18118839
0.27813604
0.42604667
0.63887767
0.92987436
1.3081966
1.7750227
2.3192529
2.9151813
3.5288127
4.126863
4.705434
5.2627408
5.7910297
5.9285096
5.6804043
5.9973551
7.0224479
5.063101
2.5044013
-0.23676288
-4.537672
-8.9736769
-11.269272
-12.210736
-12.133106
-10.010236
-7.318961
-4.3739513
-2.3262857
0.52149212
3.0555335
4.5242289
5.2080781
5.5545167
5.8354911
6.0863051
6.3008518
6.4850539
6.6511678
6.803973
6.947802
7.0851631
7.2176889
7.346332
7.4715911
7.5936762
7.7125785
7.8281593
7.9402508
8.0486667
8.1531763
8.2535417
8.3495492
8.4409958
8.5276449
8.60932
8.6858229
8.7568825
8.8222948
8.8817451
8.9349801
8.9817371
9.0218106
9.0542622
9.0789131
9.1024416
-0.03475531
-0.037379026
-0.035823767
-0.032719747
-0.02795907
-0.02148202
-0.013407449
-0.0039215861
0.0067303192
0.018339576
0.030729656
0.043532517
0.056431923
0.069146585
0.081306894
0.092476262
0.10226607
0.1103045
0.11614997
0.11934088
0.11944843
0.11609318
0.10888322
0.097443006
0.081532792
0.061095595
0.036280961
0.0075883118
-0.02394957
-0.056463791
-0.086359917
-0.10851338
-0.11551669
-0.097189805
-0.040118852
0.072984279
0.26266448
0.55061138
0.95458737
1.4823317
2.1254122
2.8444085
3.5899572
4.3095317
4.9821328
5.5769655
5.9937097
6.2664457
5.7837913
5.3732719
6.7504042
4.7185265
1.2616402
-2.8187588
-7.1279561
-11.756792
-14.762865
-15.65809
-14.728509
-12.007243
-8.8313705
-6.0755911
-4.0506419
-0.81740916
2.2464759
4.0419811
4.9155123
5.279359
5.5968746
5.8735338
6.1077558
6.3121671
6.4968231
6.6674155
6.8282705
6.9818671
7.12977
7.2728701
7.4116164
7.5461884
7.6765826
7.8026888
7.92435
8.0414231
8.1537552
8.2611616
8.3634941
8.4606128
8.5523696
8.6386471
8.7193193
8.7941992
8.8630794
8.9257301
8.981894
9.031397
9.0739434
9.1084863
9.1350094
9.1607653
-0.04760415
-0.05035549
-0.048503097
-0.04500017
-0.039743309
-0.032533733
-0.023600293
-0.01320628
-0.0015217479
0.011224005
0.024694487
0.038573331
0.052513074
0.066125522
0.078925149
0.090442963
0.10020547
0.10767198
0.11225592
0.11338103
0.11045231
0.10281649
0.089816828
0.070784023
0.045063842
0.012083916
-0.028598144
-0.077101354
-0.13294655
-0.1955049
-0.26170005
-0.32674059
-0.38279066
-0.41865814
-0.41873699
-0.36056374
-0.21445742
0.053348904
0.47364061
1.0655855
1.8425258
2.7353328
3.6699151
4.5362366
5.2519197
5.9262036
6.2711645
6.617658
6.229689
4.6831304
4.659398
3.2663686
-0.46971675
-3.4011473
-8.4918592
-13.361734
-16.707265
-17.847254
-16.797749
-14.064207
-9.6324426
-7.7599669
-5.6026311
-1.5476181
1.7642039
3.6894701
4.6200448
4.9891007
5.3550386
5.6528448
5.906034
6.1297467
6.333346
6.5226973
6.7017601
6.872835
7.0373408
7.1960907
7.3494595
7.4975356
7.6403088
7.777715
7.9096296
8.0359575
8.1565823
8.2714302
8.3804175
8.4834862
8.5806265
8.6717605
8.7568367
8.835726
8.9083138
8.9743864
9.0337402
9.0862342
9.1315274
9.1684145
9.1970823
9.2254593
-0.062765702
-0.06548337
-0.063368661
-0.059413411
-0.05343314
-0.04535248
-0.035441125
-0.023875722
-0.010861452
0.003254438
0.018128265
0.033468333
0.048844973
0.063741263
0.077651077
0.090032834
0.10026606
0.10766877
0.11155964
0.11121114
0.10581161
0.094463049
0.076226134
0.050102769
0.01495267
-0.030410006
-0.087174294
-0.1564327
-0.23894132
-0.3346382
-0.44222426
-0.55905796
-0.67642658
-0.78328074
-0.86344724
-0.89045978
-0.82292704
-0.60803061
-0.19344946
0.44427974
1.4196547
2.5706159
3.7921942
4.8708782
5.6725221
6.3508248
6.5273245
7.0164481
7.1553201
6.3765046
6.4233124
5.3740562
0.37671614
-3.6024228
-8.300193
-13.094856
-16.62258
-18.089745
-17.324899
-14.980981
-12.151891
-9.1859619
-5.5533387
-1.8001373
1.7363207
3.8207449
4.2257658
4.7172142
5.1033248
5.418901
5.6918745
5.9358301
6.1598744
6.3695495
6.5683721
6.7584703
6.9410545
7.1167776
7.285936
7.4485556
7.6046084
7.7540757
7.8968712
8.0329483
8.162268
8.2848581
8.4007283
8.5099407
8.6126209
8.7087331
8.7983649
8.881447
8.9579552
9.0276603
9.0904209
9.1461326
9.194443
9.2339213
9.2650492
9.296508
-0.080333347
-0.083097507
-0.080662855
-0.076048354
-0.069240407
-0.060173467
-0.04901902
-0.036002936
-0.021433579
-0.0056443992
0.011051221
0.028242683
0.045498209
0.062179029
0.077756494
0.091573894
0.10287779
0.11090688
0.11485022
0.11379176
0.10670847
0.092503269
0.069955865
0.037663691
-0.0059982851
-0.062864279
-0.13505562
-0.22503491
-0.33522646
-0.46716044
-0.62071435
-0.79817258
-0.98974995
-1.1868054
-1.375785
-1.5307447
-1.5972555
-1.4911003
-1.1073708
-0.36769273
0.80356005
2.3104193
3.9754835
5.446599
6.395749
6.965392
7.12917
7.6946598
8.1329727
7.6627622
6.9889009
5.2432093
3.1067299
-1.4458099
-6.0694012
-10.649957
-14.398696
-16.208703
-16.010414
-14.144661
-11.492133
-8.4460786
-5.0803541
-0.88410474
2.7704328
3.111857
3.8815084
4.424304
4.8261775
5.1662597
5.4617847
5.7286518
5.97556
6.2077476
6.4283955
6.6393887
6.8417409
7.0359219
7.2221273
7.4003666
7.5705973
7.7328001
7.8869868
8.0331758
8.1714641
8.3019759
8.4248536
8.5402814
8.6485088
8.7496965
8.8439441
8.931323
9.0118305
9.0853433
9.1517095
9.2108841
9.262491
9.3047963
9.3387478
9.3737275
-0.10068193
-0.10345985
-0.10051697
-0.095199091
-0.087468388
-0.077153363
-0.064494681
-0.049815321
-0.033391484
-0.015523852
0.0034037855
0.022912501
0.04253884
0.06155384
0.079420357
0.095329823
0.1084652
0.11796391
0.12284262
0.12201451
0.11430148
0.098399918
0.072801014
0.035743644
-0.014857013
-0.081496599
-0.16739973
-0.27673106
-0.41424309
-0.58421399
-0.7894585
-1.0309333
-1.3113771
-1.6193233
-1.9503221
-2.288393
-2.572762
-2.6820346
-2.4224814
-1.5773609
-0.22288376
1.8020397
4.161431
6.2609175
7.6249959
8.1280172
8.4120479
9.0180213
9.4807897
9.2916874
9.1222743
8.5552534
6.3266703
1.5063144
-2.0441027
-6.9229642
-10.471218
-12.474355
-12.931854
-11.812411
-9.7510548
-7.6032453
-3.59532
0.11589769
2.284428
2.9350581
3.5722169
4.1058519
4.5266324
4.8925301
5.2140062
5.5072354
5.7801487
6.0376627
6.2826427
6.5166945
6.7406734
6.9548962
7.1594521
7.3543441
7.5395531
7.7150955
7.8810689
8.0376219
8.1849901
8.3234251
8.4532739
8.5748607
8.6886137
8.7947872
8.8935892
8.9852169
9.069753
9.1471133
9.2172129
9.2800972
9.3352648
9.3806476
9.4178532
9.4568546
-0.12409062
-0.12678077
-0.12332995
-0.11721727
-0.10831849
-0.096536711
-0.08219084
-0.065559612
-0.046891235
-0.026550254
-0.0049930275
0.017291569
0.039724364
0.061865999
0.082730085
0.10153442
0.11740298
0.12931848
0.13616471
0.13672734
0.12966956
0.11348628
0.086444053
0.046513547
-0.0087650977
-0.08253193
-0.17906703
-0.30436963
-0.46666581
-0.6741988
-0.93310684
-1.247389
-1.6208364
-2.0598597
-2.5640355
-3.1538557
-3.8031555
-4.3888346
-4.5862766
-3.935389
-2.2406657
0.59708167
4.0465521
7.2074634
9.279598
10.031754
10.311848
10.895325
11.351085
11.352965
10.579254
11.441174
8.8811179
5.5713198
1.6139326
-1.4194618
-5.1583346
-7.1123922
-8.6194564
-8.263367
-6.6032098
-4.2517924
-1.6888506
0.65965381
1.7488703
2.5974432
3.2421453
3.7649234
4.2077584
4.5985293
4.9490626
5.2720969
5.5744337
5.8604037
6.1325029
6.3920279
6.639629
6.8755255
7.0997202
7.3122328
7.5131105
7.7024582
7.8804548
8.0474234
8.2037872
8.3499967
8.4866
8.6141507
8.7330896
8.8439516
8.9471353
9.0428683
9.131342
9.2125446
9.2864841
9.3533219
9.4122663
9.4610122
9.5019381
9.5455093
-0.15085682
-0.15352519
-0.14949204
-0.14235299
-0.13210727
-0.11870878
-0.10240585
-0.083461204
-0.062187228
-0.038991777
-0.014305002
0.011370711
0.037416613
0.063159157
0.087786186
0.11039442
0.12997275
0.14537792
0.15537553
0.15865272
0.15372537
0.13889386
0.1123153
0.071849989
0.014777785
-0.062517745
-0.16495626
-0.30029271
-0.48213973
-0.72406995
-1.036009
-1.4238643
-1.8962786
-2.4750083
-3.1812592
-4.1232515
-5.3882362
-6.9353674
-8.1987023
-8.1794751
-6.3895401
-2.6030324
2.6249216
7.6857357
11.083261
12.463717
12.715254
13.186154
13.577725
13.509832
12.770547
12.058868
10.480572
8.5681295
5.8869861
2.847183
-0.075522714
-2.2908033
-3.3232782
-3.6905527
-3.1910183
-2.1230757
-1.0271842
0.46453221
1.5022504
2.224682
2.8591643
3.3925213
3.8631733
4.2836346
4.6676301
5.0245099
5.360068
5.6778924
5.9800573
6.2675823
6.5408893
6.8001003
7.0451971
7.2762049
7.49328
7.6966667
7.8867117
8.0639217
8.2289607
8.3825362
8.5253788
8.6583233
8.7820486
8.897202
9.0043265
9.1038634
9.1960843
9.2810636
9.358889
9.4298277
9.4927817
9.5451592
9.5903829
9.6391622
-0.1814912
-0.18407629
-0.17926831
-0.17098439
-0.15928112
-0.1440085
-0.12541758
-0.1038399
-0.079607743
-0.053096986
-0.024743627
0.0048975334
0.035157073
0.065306808
0.094599703
0.12198466
0.14634128
0.16644233
0.18094439
0.18837876
0.18714674
0.17549441
0.15151961
0.11313085
0.05763926
-0.018715913
-0.12091625
-0.25710772
-0.45033472
-0.72207349
-1.0850783
-1.5434887
-2.105331
-2.8143054
-3.7445938
-5.1025356
-7.3849314
-10.715396
-13.85833
-14.965803
-13.61372
-8.6839599
-0.91010536
7.0064166
12.452086
14.849481
15.414733
16.588913
16.548825
16.21145
15.37109
14.302863
12.49489
10.217643
7.7218176
5.5892239
3.0243201
0.91800633
-1.3169162
-1.9716716
-1.983548
-1.4328928
-0.51454078
0.39606281
1.1534986
1.8198035
2.4387238
2.990728
3.4916386
3.9481386
4.3707789
4.7662675
5.139287
5.4926899
5.8280997
6.146253
6.4473844
6.7315318
6.9986805
7.2489192
7.4825081
7.6998873
7.9016701
8.088635
8.261726
8.4219339
8.5702539
8.7078521
8.8356057
8.954382
9.064881
9.1677496
9.2633574
9.3518465
9.4335458
9.5086698
9.5758249
9.6321188
9.6822851
9.7369699
-0.21640654
-0.21875465
-0.21311417
-0.20359831
-0.19019422
-0.17276513
-0.15161291
-0.12708722
-0.099479717
-0.069164818
-0.036629314
-0.0024503529
0.032733463
0.068183582
0.10301071
0.13624847
0.16657367
0.19270825
0.21316039
0.22631091
0.23045935
0.22386685
0.20469996
0.1710022
0.12063042
0.050270195
-0.044440583
-0.16717089
-0.36098598
-0.65870714
-1.0743929
-1.6010045
-2.2328176
-3.0387662
-4.2349037
-5.9734034
-9.7457768
-15.343566
-20.599632
-23.288149
-21.545333
-15.442101
-5.6769783
4.9284762
12.620561
16.423541
17.501266
20.596422
20.510013
19.187179
17.887264
16.078005
13.811279
11.354017
8.8019528
6.2858502
3.6610206
1.3142267
-0.13794023
-1.1432519
-1.4570423
-1.1808901
-0.64621307
0.01917267
0.68774507
1.3458789
1.9728599
2.5545848
3.093382
3.5931739
4.0604106
4.4998501
4.9150023
5.3080375
5.6801001
6.0316639
6.3627771
6.673414
6.963587
7.2335171
7.4836268
7.7146363
7.9274825
8.123302
8.3034224
8.4691663
8.6218586
8.7629912
8.8937507
9.015211
9.128264
9.2337379
9.3321981
9.4238566
9.5092089
9.5885492
9.6600326
9.7205644
9.7765035
9.8379545
-0.25604088
-0.25809129
-0.25158059
-0.24060101
-0.22525001
-0.20543373
-0.18144234
-0.15359598
-0.12219374
-0.087638544
-0.050409469
-0.011051963
0.029810029
0.071410299
0.11281756
0.15303983
0.19059953
0.22420507
0.25216735
0.272714
0.28404711
0.28436933
0.27199223
0.24534015
0.20348367
0.14440161
0.063737712
-0.025457999
-0.20423675
-0.52636918
-1.0048361
-1.6051641
-2.2877049
-3.1122115
-4.3749172
-6.8079427
-11.586588
-18.701697
-25.156398
-28.259323
-26.605411
-20.386477
-10.107673
1.4961194
10.294088
15.548923
17.703979
21.549616
22.523555
21.894835
20.025968
17.582936
14.73244
11.920061
9.2768237
6.6867944
4.0715319
1.7673271
0.037991372
-1.1061769
-1.574813
-1.5030787
-1.1217979
-0.54753613
0.10969069
0.78853828
1.4506681
2.0781964
2.66733
3.2195792
3.7387457
4.228299
4.6908338
5.127928
5.5403089
5.9281752
6.2914423
6.6300022
6.9439542
7.2337075
7.4999765
7.7438281
7.9666239
8.1699707
8.35562
8.5253267
8.6809219
8.8240795
8.956413
9.079254
9.1937568
9.3009298
9.4013827
9.4956303
9.5842698
9.6677257
9.7436089
9.8087421
9.8714826
9.9407673
-0.30105755
-0.30265972
-0.29513323
-0.28248474
-0.26497464
-0.24251295
-0.21535106
-0.18383236
-0.14827381
-0.10905049
-0.066587515
-0.021401545
0.025878474
0.074488198
0.12348451
0.17170579
0.21811611
0.26080606
0.29801646
0.32781786
0.34818161
0.35716148
0.35317955
0.33497182
0.3037649
0.26016591
0.1939033
0.17443604
0.038828195
-0.33757224
-0.90784543
-1.5982724
-2.3333194
-3.1409585
-4.3920991
-6.9634201
-11.914188
-19.087114
-25.503178
-28.734217
-27.770929
-22.412431
-13.313527
-3.4738402
6.5393591
10.634711
13.985447
20.506842
23.652444
23.779954
21.65094
18.791085
15.306508
11.810764
8.8220098
6.1274231
3.5386601
1.2312344
-0.56420527
-1.7565692
-2.2940327
-2.2793159
-1.8987412
-1.2966304
-0.59013183
0.14567372
0.86903081
1.5603899
2.2136777
2.8289492
3.4086138
3.9553067
4.4711091
4.9571678
5.41385
5.8410693
6.2386085
6.6063571
6.9445599
7.2538898
7.5354445
7.7907821
8.0218543
8.2308205
8.4199142
8.5914985
8.7478869
8.8911849
9.0233044
9.1459062
9.2604105
9.3680127
9.4694507
9.5654062
9.6567418
9.7439586
9.8241043
9.8942618
9.96521
10.0437
-0.35212425
-0.3529737
-0.34434267
-0.32984652
-0.3099074
-0.28448224
-0.25384707
-0.21836158
-0.17829552
-0.13396582
-0.085763486
-0.03416939
0.020243071
0.076770861
0.1345177
0.19231994
0.24879957
0.30230017
0.35070064
0.39177217
0.42313478
0.44246091
0.44809885
0.4387476
0.4191187
0.39552117
0.36888991
0.3003778
0.22127563
-0.19329345
-0.84078868
-1.608212
-2.4063419
-3.1668335
-4.21297
-6.2789486
-10.203371
-15.954326
-21.680663
-25.139006
-25.648417
-22.083767
-15.278704
-7.4826089
16.934255
20.255507
10.670892
18.82535
23.468306
24.616392
22.796983
20.023098
15.865866
11.578594
7.9776695
5.0483916
2.3727096
-0.0029662955
-1.8540399
-3.0482285
-3.548915
-3.4580045
-2.9634224
-2.2398901
-1.4205568
-0.58579783
0.22670662
1.0015728
1.7338823
2.423823
3.0735293
3.6853218
4.2609826
4.801413
5.30671
5.7765119
6.2104534
6.6084888
6.9710398
7.299159
7.594517
7.8593119
8.096208
8.3081171
8.4979613
8.6687214
8.8232832
8.9642785
9.0939666
9.2142971
9.3270501
9.4335019
9.534548
9.6309843
9.7240614
9.8142828
9.8982426
9.9738801
10.054928
10.144557
-0.40987403
-0.40973083
-0.39984814
-0.38323579
-0.36054237
-0.33186952
-0.29750248
-0.25774814
-0.21282613
-0.1630156
-0.10866036
-0.05014387
0.012084993
0.077422714
0.14501373
0.21370168
0.28204041
0.34827794
0.41008991
0.46477003
0.50929848
0.54056154
0.55607999
0.55170711
0.52994332
0.49148589
0.38477694
2.8352652
2.0334072
-0.045204504
-0.99856901
-1.7767434
-2.5374703
-3.1957444
-3.9244574
-5.112391
-7.3294253
-11.125254
-15.883073
-20.329478
-22.44989
-21.12342
-16.949915
-11.679566
10.482776
18.082347
6.7350737
15.745051
22.228142
24.049305
23.733971
21.09375
16.627421
11.457077
7.3321924
3.9906174
0.92433269
-1.8018201
-3.8453684
-5.031963
-5.3851087
-5.0685095
-4.3243755
-3.3746592
-2.3770844
-1.4037909
-0.47531306
0.40281651
1.2299231
2.0073733
2.7377503
3.4235205
4.0664471
4.6672918
5.2259473
5.7417694
6.2142324
6.6433481
7.0298427
7.3753159
7.6821983
7.9535653
8.1930207
8.404368
8.5914004
8.7578999
8.9074001
9.0430731
9.1676365
9.2833683
9.3921761
9.4955352
9.5944043
9.6897488
9.7831319
9.8749065
9.9615763
10.043124
10.137026
10.240814
-0.47506986
-0.47372543
-0.46222673
-0.44317489
-0.41742468
-0.38522089
-0.34683054
-0.3025124
-0.25247492
-0.19693139
-0.13609787
-0.070201987
0.00044396195
0.075371585
0.15384706
0.23481734
0.31686992
0.39803923
0.47588358
0.54705118
0.60768688
0.65338668
0.68054007
0.68059649
0.66984088
0.68014719
1.3999007
6.3768076
6.93083
3.3828559
-1.1567845
-2.0678358
-2.7504166
-3.2563482
-3.7446492
-4.2186085
-4.7555913
-6.6819537
-11.323005
-16.632209
-20.331195
-20.940879
-18.704291
-17.463161
3.3634264
6.5111135
4.3115624
12.824179
19.878652
22.580995
23.455358
21.672541
17.294923
11.764363
6.9974637
3.0757606
-0.6110328
-3.9997171
-6.5461248
-7.8292913
-7.9279714
-7.1952596
-6.0058542
-4.6886536
-3.4450047
-2.301105
-1.2352989
-0.23522025
0.70350171
1.5829498
2.406153
3.1758872
3.8943682
4.56248
5.1798099
5.7453776
6.2584223
6.7190381
7.1284416
7.488988
7.8041161
8.0781224
8.3157603
8.5220134
8.7017931
8.8597752
9.0002129
9.1269101
9.243094
9.3514306
9.4538727
9.5518746
9.6463842
9.7386047
9.8302194
9.9211074
10.008112
10.095516
10.206083
10.328063
-0.54854327
-0.54572285
-0.53212
-0.51026453
-0.48110609
-0.44500074
-0.40227607
-0.35318718
-0.29789215
-0.23647218
-0.16896166
-0.095400269
-0.015909856
0.069233851
0.15955166
0.25419873
0.3518272
0.45047575
0.54739413
0.63873473
0.71945431
0.78270714
0.81987783
0.81462439
0.77897677
0.72085587
4.4241191
6.562036
6.8727085
5.3695793
-1.4800144
-2.5658759
-3.0078031
-3.3708685
-3.838935
-3.9667364
-3.7081385
-5.0228304
-9.7389256
-15.703657
-21.270994
-23.572299
-20.530026
-20.965754
-2.4259395
-0.24123655
-0.81702897
9.6799827
16.842613
20.222634
21.739894
21.037791
17.295315
11.680965
5.9002128
1.0664196
-3.0829765
-7.0256211
-10.128516
-11.552002
-11.232471
-9.8317235
-7.9592384
-6.1383322
-4.6031267
-3.2695171
-2.0567829
-0.9159067
0.15537884
1.1541591
2.0843001
2.9491379
3.7524364
4.4956502
5.1777731
5.7972248
6.3529116
6.8450329
7.2754476
7.647669
7.9665335
8.2378719
8.4680123
8.6634125
8.8303197
8.9745092
9.1010963
9.2145608
9.3187037
9.4164344
9.509795
9.5999177
9.6875857
9.7742396
9.8614519
9.9477251
10.030057
10.121079
10.253212
10.398575
-0.63124484
-0.62665199
-0.61039874
-0.58512133
-0.55202117
-0.51158623
-0.46426279
-0.41029688
-0.34970674
-0.28240065
-0.20822249
-0.1269729
-0.038476871
0.057317769
0.16024356
0.26977929
0.38484201
0.50361418
0.62334238
0.73976479
0.84750611
0.93745608
0.99511141
1.0002377
0.93349262
0.75449404
1.1673977
6.3008353
3.9051617
-0.46921582
-2.3083558
-3.0446206
-3.2666299
-3.702952
-4.502439
-5.2540612
-5.3313314
-6.7048
-11.915074
-17.888618
-26.47245
-30.551281
-25.683187
-21.555275
-8.8171766
-11.618346
-3.2145102
7.3064188
13.772125
17.113082
18.74824
18.342509
15.131631
9.144403
1.0591001
-5.833519
-10.04134
-13.744636
-16.424498
-17.209911
-15.961974
-13.194446
-10.069706
-7.6045107
-5.8680399
-4.3481674
-2.9602692
-1.6493316
-0.41546743
0.72456792
1.7761324
2.7492947
3.6488956
4.4765067
5.230628
5.9088211
6.509243
7.0322271
7.4806652
7.8596899
8.1761083
8.437852
8.6532369
8.8305301
8.9775982
9.1015498
9.208631
9.303972
9.3919885
9.4757062
9.5570708
9.6367806
9.7150619
9.7934823
9.8735034
9.9502446
10.018332
10.1065
10.270742
10.453426
-0.72457528
-0.71775929
-0.69796357
-0.66827965
-0.63048705
-0.58526556
-0.53312574
-0.47423786
-0.40845895
-0.33549445
-0.25494289
-0.1662812
-0.06893436
0.037567542
0.15350724
0.27883256
0.41296932
0.55455271
0.70100797
0.84738031
0.99098005
1.1186764
1.2107336
1.2489643
1.2342836
1.2228749
0.94330965
0.96774422
0.61977082
-0.33864236
-1.8906542
-2.6619363
-3.1109442
-4.046754
-5.6596651
-7.8147075
-9.3457742
-11.433502
-16.206601
-20.877734
-35.19523
-40.459006
-38.964483
-21.801724
-16.857114
-12.730916
-3.0271059
6.1015208
11.541659
14.773803
15.74374
14.3977
10.825464
3.8826119
-5.9011251
-13.186183
-19.183212
-24.866249
-25.324732
-25.095345
-22.79572
-17.94396
-12.316273
-8.8454437
-7.2176631
-5.5414429
-3.9671044
-2.4483341
-1.0076694
0.29954744
1.4908801
2.5855769
3.5927552
4.5157896
5.3509231
6.0938502
6.7411578
7.2935193
7.75541
8.1344041
8.4401052
8.6831743
8.87453
9.0246736
9.1434533
9.2395562
9.3204889
9.3920761
9.4593997
9.5256387
9.5923208
9.6593506
9.7257662
9.7928677
9.8624712
9.9228627
9.9558354
10.016206
10.226912
10.479011
-0.8306371
-0.82050678
-0.79562119
-0.76008634
-0.71663119
-0.66611108
-0.6089507
-0.54521546
-0.47458751
-0.39649851
-0.31019785
-0.21477054
-0.10917727
0.0075778055
0.1363707
0.27785343
0.43223528
0.59902113
0.77670606
0.96276753
1.1471071
1.3244422
1.4732808
1.5727911
1.6455736
1.7136839
1.6496312
1.6739795
1.29492
0.39215556
-0.85244804
-1.693935
-2.4303506
-4.0470227
-6.7685513
-10.768658
-15.056888
-16.62548
-17.172783
-21.764078
-46.522485
-49.877733
-29.840626
-27.034583
-19.684059
-11.141476
-2.0860231
7.386667
11.258738
14.296051
14.980192
13.03895
9.0370037
0.68644853
-11.344679
-7.7096894
-5.3086707
-33.928613
-36.407768
-39.150251
-36.058665
-26.159771
-15.685959
-9.6021146
-8.7768276
-6.9468994
-5.1417797
-3.3503275
-1.6161971
-0.11693119
1.2330932
2.4618629
3.5914167
4.6253845
5.5536703
6.3690172
7.0653132
7.6441649
8.1127053
8.4821363
8.7659903
8.9786453
9.1342814
9.2462455
9.326613
9.3859106
9.4329295
9.4740076
9.5160977
9.561446
9.6113679
9.6643142
9.7168068
9.7690819
9.824709
9.8589289
9.806369
9.7378025
9.9772501
10.370484
-0.95250144
-0.93680217
-0.90415662
-0.86064805
-0.81019147
-0.75375249
-0.6915045
-0.6232274
-0.54836753
-0.4660176
-0.37500363
-0.27396099
-0.16133607
-0.035462182
0.10530169
0.26251179
0.43741117
0.63058002
0.84164753
1.0687554
1.3067811
1.5462002
1.7693706
1.9501863
2.1037197
2.2256226
2.2717991
2.3374506
2.858857
1.9875017
0.74119664
-0.033345932
-1.2014334
-3.4776706
-7.218353
-12.543941
-21.221657
-21.292884
-17.188693
-23.631239
-57.167153
-37.209048
-27.735749
-21.211738
-12.762119
-6.8445139
1.9716685
9.5707096
13.258742
16.607624
17.48266
15.416556
10.625032
1.3889181
-11.875699
-20.686525
-12.970633
-26.124767