/*--------------------------------*- C++ -*----------------------------------*\
  =========                 |
  \\      /  F ield         | OpenFOAM: The Open Source CFD Toolbox
   \\    /   O peration     | Website:  https://openfoam.org
    \\  /    A nd           | Version:  9
     \\/     M anipulation  |
\*---------------------------------------------------------------------------*/
FoamFile
{
    format      ascii;
    class       surfaceScalarField;
    location    "29";
    object      phi;
}
// * * * * * * * * * * * * * * * * * * * * * * * * * * * * * * * * * * * * * //

dimensions      [0 3 -1 0 0 0 0];

internalField   nonuniform List<scalar> 
1300
(
1.7582594
5.6264299
-5.2503952
1.7582594
-7.8462394
5.6264299
-6.1038758
6.1038758
-1.3396916
1.3396916
3.7339361
3.6507532
-4.277806
4.277806
-3.7394366
3.7394366
-1.625993
1.625993
-5.2377137
5.2377137
-5.0570143
5.0570143
4.7543895
-4.7543895
-6.9067553
6.9067553
-1.7237534
1.7237534
-5.4324627
5.4324627
1.4893608
-1.4893608
-3.837725
3.837725
-0.30206698
0.30206698
-0.57367667
5.145151
1.1845827
1.1845827
-1.7916583
1.7916583
-4.8519872
4.8519872
6.2142493
-6.2142493
7.9168258
-7.9168258
-2.6664307
-3.2232411
1.5334745
-12.033134
-6.312765
-6.312765
-8.4382665
8.4382665
-2.8118365
2.8145935
1.486383
-1.486383
-1.7682347
1.7682347
-6.0252975
-0.078578231
-6.0252975
6.1439
-0.040024256
6.1439
-1.495485
0.15579343
-1.495485
5.0287515
-5.0287515
1.1522542
0.18743734
1.1522542
1.2495072
-1.2495072
-3.73773
7.471666
3.6469593
-3.0525938
8.1977448
-3.3943572
7.0451105
-6.5539832
6.5539832
-4.5532893
0.27548337
-4.5532893
4.0841075
0.19369845
4.0841075
-7.4541956
7.4541956
-3.7967607
0.057324139
-3.7967607
3.7011551
0.038281468
3.7011551
2.2582144
-2.2582144
-1.5174588
-0.10853426
-1.5174588
1.7189336
-0.092940599
1.7189336
0.358983
5.2674469
-5.985413
8.8000065
-5.267447
0.029733253
5.2000732
0.037640539
5.2000733
-5.0935879
0.036573644
-5.0935879
5.0141322
0.042882073
5.0141323
4.8514997
-0.097110219
4.8514997
-4.8553119
0.10092236
-4.8553119
-4.0829508
-5.0109291
-7.0945256
0.18777021
-7.0945257
-1.6668641
-0.056889363
-1.6668641
1.7495444
-0.025791
1.7495444
-4.1185883
4.1185883
-5.8770966
0.44463398
-5.8770966
1.3608169
0.12854394
1.3608169
2.009905
2.5615693
3.7681643
-3.7681643
2.2788035
-3.7871618
-0.050563164
-3.7871618
-3.9110686
-4.0057573
3.9110685
-0.073343509
-0.6938514
0.3917844
-0.69385141
1.2348187
-0.05023601
1.2348187
1.7861066
-0.067173006
-1.7861066
-0.0055517209
3.4744761
-3.4744761
1.3151691
0.47648925
1.315169
-5.5753652
5.5753652
4.9532498
0.060882453
-4.9532498
0.10126261
6.1537635
0.060485758
6.1537635
-6.1927009
-0.021548318
-6.1927009
3.1849219
-6.408163
-3.463558
6.6467624
0.25999279
-6.6467622
0.33399716
1.6430163
-0.15663334
1.6430163
-1.1896959
1.1896959
-1.4167001
-0.069682814
-1.4167002
-2.1035728
0.33533808
-2.1035728
1.4956448
0.27258995
1.4956448
-5.7394358
-0.28586171
-5.7394358
-6.0862537
0.2091571
6.0862537
0.05764631
1.4031607
-1.4031607
-1.6294427
0.13395769
-1.6294427
-5.3613014
-0.37813441
5.3613013
-0.33254976
-4.7948671
-0.23388444
-4.7948671
-1.3191678
-0.097532384
1.3191678
-0.069660606
1.2596954
-0.024876739
-1.2596954
0.010188255
-3.0519535
5.6135228
-3.3949975
7.0419568
-6.1731794
-0.38080373
-6.1731794
6.8932275
-0.33924429
6.8932275
5.0099427
0.42251993
-5.0099427
0.4566534
3.9510471
0.13306038
3.9510471
-7.4235145
-0.030681055
-7.4235145
7.4619248
-0.0077292906
7.4619248
3.8644989
0.086548277
-3.8644989
0.067738107
3.689562
0.011593092
3.6895621
2.481574
-0.22335961
2.481574
-2.0451774
-0.213037
-2.0451774
1.318012
-1.318012
1.418116
-0.10010398
-1.4181159
-0.09934284
-11.148727
11.127179
-0.035780906
-11.112946
5.1642924
5.1642924
4.0612656
0.79023409
4.0612656
-5.045161
0.18984914
-5.045161
3.4440787
-6.9076368
4.159037
-8.2419878
5.4144968
-17.44763
4.5825311
-9.5934602
7.3252045
-7.3252045
7.2202633
0.10494122
-7.2202632
0.12573756
-1.5814302
-0.085433835
-1.5814302
-3.4990124
-0.6195759
-3.4990124
4.7841413
-0.665553
4.7841412
-1.3037994
1.3037994
-1.315971
0.012171652
1.315971
0.044845833
3.7228822
-0.033320152
-3.7228822
-0.064279586
0.93883119
0.21342301
-0.93883117
0.24497976
3.8897685
-0.4152925
3.8897685
-3.0403997
-0.43407636
-3.0403997
-1.4583805
-0.12304976
1.4583805
-0.14321143
-5.8202753
0.24491016
-5.8202753
-11.213437
0.10049096
-11.175796
-6.0922099
-6.0922099
2.3460566
11.146063
-1.837676
-0.20750144
1.837676
-0.19465973
1.2733919
0.030407474
-1.2733919
0.083695989
-1.232085
-0.085927047
1.232085
-0.042389148
-2.5320953
0.42852251
-2.5320953
-1.2109988
1.2109988
-1.3032149
0.092216089
1.3032149
0.19242995
1.7123459
-0.30918519
1.7123459
1.7154193
0.034125142
-1.7154193
0.085976601
-4.5126115
-0.28225557
-4.5126115
7.1555368
-0.26230937
7.1555369
-2.7493055
-0.29109423
2.7493055
-0.26773146
-0.035219772
11.162398
-5.1290726
0.035484743
5.1290726
-11.222884
11.258369
-3.1125468
0.58045152
3.1125468
0.94871883
5.3078733
0.26749191
-5.3078733
0.26271229
7.4035786
0.058346244
-7.4035786
0.078374071
-2.9896012
-0.50941123
-2.9896012
-5.5312026
-0.64197679
5.5312027
-0.74706142
-11.475629
-0.19568432
11.671313
-11.432747
6.0159596
0.13780397
-6.0159596
11.396173
-1.2332994
-0.16986127
1.2332994
-0.022300542
2.061684
-0.34933813
2.061684
4.2477879
-0.35801932
-4.2477879
-0.26482364
-7.3140278
-0.10948674
7.3140278
-0.1584909
-2.5043364
-0.48526475
2.5043364
-0.44265237
-5.3369197
5.2866837
2.860825
-3.2022832
-3.2058798
-7.2080405
2.5463177
3.0672051
4.8251212
-11.047379
-6.4002513
-10.713382
7.2740362
-7.0113239
-9.5016681
9.4045579
9.8298484
-10.063733
-7.3321268
7.3769726
8.7130661
-8.7827267
3.7807684
3.6908976
10.885798
-10.610315
-16.805568
16.424764
10.284887
-10.227563
17.034594
-17.065275
-19.229734
19.28808
-7.375576
7.2670418
-9.0955961
8.8825591
-9.2990812
9.0313498
-3.9011192
-4.3408686
14.163525
-13.975755
11.505032
-11.555595
-11.551998
11.996632
4.0442913
1.2423924
4.0194146
-3.6176249
7.3983933
-3.4274855
6.2883105
3.4628355
-7.3639548
3.4448012
-6.6506809
5.7698894
5.7351429
-5.696546
-1.5114945
-8.1336067
7.9769733
-7.5645762
7.522187
11.984458
-12.063036
-3.6050867
7.2959843
-3.43687
6.5040752
-3.699429
-3.6326977
3.5708851
1.2542361
8.6786625
5.4848628
-8.9386555
-1.7747265
-10.43725
10.079231
-11.038543
10.604467
-0.45345546
5.787992
-5.3345366
4.3985318
-1.4720777
7.2600697
5.8019586
5.9918077
5.8679242
-5.6004323
1.1433997
-6.4779363
-6.3766737
-3.3032826
3.4372403
3.2825535
-3.0951162
7.7959116
2.0339368
7.4633619
-7.0612419
-3.0024909
-7.3434974
4.4385834
2.9383892
4.450755
5.2612486
3.4518175
5.1637162
5.8660902
-5.9557786
0.08968839
-5.4658193
11.331909
1.3402058
-9.0985171
-7.844281
6.9145617
3.9712367
7.1082602
-7.533625
-3.07669
-7.0769716
-10.227715
-6.5778533
-10.869692
10.97304
5.4517249
10.633795
-12.903949
12.745458
6.7271367
3.5577501
6.7654182
-6.819322
-3.4082407
-6.751584
13.220817
-3.1372086
-10.083609
-11.143647
-8.0860862
11.151377
5.8832173
11.832972
7.4551078
11.911346
4.8356667
8.3851505
-10.718884
2.6327977
-4.5086939
-2.8668821
-4.6080368
4.5432576
2.7237841
4.450317
-5.356877
-3.738719
-5.5643785
-5.3159105
-3.9831707
5.5392701
3.3432889
-5.4843632
-5.5541799
5.7754575
3.2558923
4.6728649
-11.073116
4.9205952
-9.2614638
-9.9172395
-4.0585158
-9.7915019
4.4242201
3.3836013
-7.8078214
-2.9397348
11.10191
-5.3667673
9.5904157
-7.1548954
-4.4007
-7.2191749
-9.1875348
-2.3644635
-8.9783777
-9.5075789
8.9981676
-9.9015645
9.2360115
13.846486
-6.737621
-7.1088646
-4.8819779
-3.9007488
4.8717897
-0.85237509
-7.2122559
7.3019443
0.18613745
6.474448
7.7168404
6.8644653
-4.5230962
-3.04148
-4.4394002
4.659043
2.863144
4.5731159
9.1386241
2.8458339
9.0985998
-8.4482775
-3.6147587
-8.7341392
9.5417028
-9.2063647
3.1603898
-3.2834395
6.9242523
3.6802145
-6.5089598
-3.9282906
9.2325733
-4.2811457
-4.9514276
-12.072543
10.651886
1.4206568
-4.8124729
-0.41394115
-0.11187417
-5.5771134
-3.9245547
5.476191
0.51561672
11.167503
7.2429478
-5.5172868
5.762197
6.1540265
6.2149089
-0.16176471
6.0794766
-5.4990251
7.2186353
-3.2099471
-4.0086882
6.8221451
-7.2002795
-1.911994
-7.2530703
5.3410762
0.26308237
2.2445803
-1.8527959
-2.5230642
-0.78021846
-2.4370876
1.9421401
1.3404134
2.1555631
1.2374327
2.1998076
-3.961827
0.73951521
3.2223118
-2.7243943
-2.355601
-5.0539977
-1.5748845
6.6288821
7.2951043
2.7841269
-7.0302806
-0.31321674
3.1619318
-3.1877228
-0.90313035
-4.1508673
2.9903126
-3.893443
-5.6409854
-2.3223941
7.9633795
-3.7449629
-0.69443729
3.7145555
0.73619956
-4.7779787
-3.355628
4.8476615
0.31605471
-5.338782
10.986561
-5.6477794
-8.380262
4.5226832
6.8092262
7.4610724
-9.1613795
4.7566325
4.4047471
-2.3521533
5.9307043
1.1775559
6.0637647
-9.1748016
6.0981116
7.8758047
4.1208276
-8.2983246
1.221353
-7.9534486
10.57566
-9.2556277
-1.3200322
5.219816
5.3558439
7.5677898
6.2786958
-6.0139745
13.581764
-1.5160765
-7.7395512
9.4695251
-5.3486975
6.1700635
-11.518761
-12.448759
4.7092081
-9.8496486
11.921861
-2.0722123
-3.8627054
-9.0412438
13.712354
-1.3302423
-12.382112
9.3035531
-5.5302124
-5.5643268
11.094539
-8.6674211
8.9725675
-2.5871057
-6.3854619
-10.882201
-6.1830737
10.991688
1.7537703
-11.687259
14.320057
-3.302109
5.8387736
0.92664456
5.8503667
4.1510687
-6.7421197
2.591051
4.5163523
-7.103458
2.6014921
-9.3436118
-7.1698615
13.240843
-6.0709814
-11.228377
-10.186822
-1.0415557
2.7381767
11.58188
-10.193285
7.9620362
2.2312483
3.9157242
0.65739168
-3.8156202
-0.79241655
0.62789225
6.6918131
-7.3197054
5.0782092
5.0110362
5.0902259
1.6015872
5.0915107
2.8854626
-4.896851
-0.66752751
-6.2929109
2.3097402
-2.949622
-6.2305363
8.5402765
-6.9886569
0.75812052
-4.2116269
-6.1390327
10.35066
-7.0785091
5.2973797
5.6891817
8.1605237
-8.6101825
2.4711498
-4.3828401
-4.2273424
4.5175071
-7.4671291
3.225687
5.3145895
6.4815793
0.92739935
6.4944672
6.7463757
-9.8780686
0.61660484
12.231238
-10.456512
2.6555071
9.2558389
-10.617543
0.43072168
-9.3607802
1.4139015
-6.7806688
-6.3939199
6.7626174
-9.1270809
-4.7561436
8.3246756
0.7739242
-8.3823219
-0.59605578
-6.4852464
-3.0223324
-6.9705112
-3.2960499
-6.6055147
-9.3100244
-1.773077
-7.5369474
7.2250906
-7.2078944
-3.6617973
7.9549558
1.2810557
-7.9815156
7.8116543
-8.0236837
7.6743455
0.2688655
7.0330788
7.1333308
3.232582
-4.6809255
7.9135075
-6.8092993
9.6551332
-11.392608
4.5833082
5.3686927
-8.9834514
-6.0239148
5.4503148
4.0913881
5.7229047
9.3542125
-10.83523
1.4810175
-11.02971
12.575855
-1.5461454
-17.072655
6.042945
-7.7184423
3.0296617
0.1307281
2.9442278
0.89711571
2.864403
-3.7615187
-2.3863238
-2.5295352
-3.5364171
-5.3441895
8.8806066
1.8742947
-5.0951064
3.2208117
-4.7255694
6.5998641
0.1753791
-5.2704855
7.1028155
-4.2384124
7.2335436
-4.5501903
2.6833533
4.9941609
8.8069026
-3.8127417
6.4440327
-2.7638182
2.8284475
-6.6411891
-2.5157421
-4.8973495
7.6211336
-5.4533101
6.2114307
-0.30142817
6.5128588
-5.7515694
1.4704236
-0.66134343
4.3496928
4.3441411
6.7724057
-5.1708185
4.820211
-7.5840292
-1.8209781
-6.6566298
-1.3420403
-0.51393016
-5.0651097
5.5790398
6.7001294
-7.2140595
-5.3683135
9.7584199
-4.3901065
8.066679
-5.5449993
-2.5216797
-4.552437
-4.6539277
4.1239145
1.9555621
10.022241
0.27077865
-5.815778
-5.2282465
-4.2795276
4.4603718
2.7582635
-2.3529458
3.7736026
2.46482
-0.22023963
0.78103456
1.3745285
2.498061
-1.7170264
0.2332877
2.2647733
-1.6195083
2.4039947
0.75793707
-2.4381198
0.0010322815
-1.8132877
4.8036003
1.4090241
-2.7494375
1.0324111
1.6199787
-4.8299258
6.5727994
-3.2317814
-3.341018
8.1927781
1.6571898
-4.8889713
5.5958804
-5.3327981
3.2340422
-4.8089267
-1.6549291
-6.9877271
-4.9537904
-4.0500881
7.2708998
-4.8305185
7.6146454
1.6299144
-7.3014287
8.9313431
-4.7699626
2.4475685
-4.2128705
4.9708075
-1.8299015
-2.382969
4.0868675
3.8765121
-4.1082201
-0.04264721
-0.021352625
3.2088748
-3.2302274
-0.68456816
-3.4089624
-7.533701
7.8497557
-3.8316239
8.5882563
4.0818835
-3.5273197
12.115576
3.2427092
-6.7700289
-5.1375528
-5.8319901
-2.3652819
5.0957906
-0.83494751
-5.9166364
-7.2204094
5.8300882
0.23367648
-9.2356973
10.311143
-1.0754455
-5.2644606
-0.83365098
6.053467
-7.7488601
0.64540209
-5.147368
5.1637749
6.3413308
6.5750073
-12.147143
-0.23496906
-6.6954176
1.3169277
-8.0123453
6.6727716
-3.7749806
8.4841887
-11.087839
7.4260421
-9.8067837
7.1641565
-0.84818878
7.128968
-4.537917
2.9546406
-9.1377142
-7.3839439
7.1969087
-3.6391586
8.1235533
-4.1532717
12.276825
-7.4553806
7.0044176
5.2724074
-1.3666214
-5.8525535
-6.9689107
5.6022894
0.035506861
5.8858736
7.7432509
-4.8577882
7.0757233
4.1301248
-8.5129649
-3.3370043
-11.793318
3.2803527
-6.104136
-3.097488
6.3778407
5.0630357
5.7204274
2.1504982
-4.9280108
8.2872423
-9.328798
-2.216261
-4.1776589
6.9025898
-1.3003005
4.2787789
-8.4564378
-2.5018899
5.7121052
-0.69062355
-5.0214817
1.0255157
-5.7816593
2.2984843
-8.0801436
6.8285966
-7.4246524
2.3414936
-10.059936
-5.640022
-5.6623225
-2.4162262
-5.6074575
-7.9379568
5.5217306
-1.8950117
5.9166427
-8.8754576
8.1848341
-3.7003976
9.2221282
-5.8332174
-1.1372938
6.2758698
1.3984758
10.620604
0.30987772
-6.3337925
-2.6769823
5.4914544
-2.8144722
1.7833895
-4.7552319
0.73622249
3.4557836
4.7369945
-8.7968598
-0.18659155
-6.5203841
-4.1510053
8.2423934
5.6074147
12.307544
1.4723141
9.4009647
-1.1585713
10.873279
4.5643334
4.7567634
-4.0615921
5.5426095
1.5174478
6.100756
-0.88404245
3.5673957
2.0601854
2.003296
1.1844267
2.649585
1.6945561
4.1200086
0.3584899
-2.1710453
4.7059927
-8.9855203
-1.1097853
-8.1952862
1.2092716
5.8841503
-4.6748787
4.2944243
-1.5361608
1.4799521
0.04283683
-2.372632
2.3297951
-3.9658514
-2.5928716
-0.32809835
-2.1911757
3.2235868
2.6124245
-2.8954885
-1.0703629
0.47630675
-5.4300971
4.33262
-4.3752672
-0.49875507
8.432588
-3.7415806
0.5113532
-1.2940121
-2.8976092
-3.6778277
3.6767954
11.51764
0.59793551
5.869861
8.4476912
5.0920632
0.23427493
4.8019791
-6.8741914
-4.5416327
-7.1091604
-0.43638884
5.6170782
2.256327
9.3255534
7.5287345
6.228434
-2.2280038
-11.556802
8.1745528
-2.6319432
6.6284074
-1.6069257
-6.4732179
6.6172833
3.0378499
-7.3912075
-0.033444855
-6.5066627
-9.1386059
-0.49288705
8.6777211
-10.127717
8.9904233
5.9680909
1.5688565
-4.8035694
-0.85875311
4.7113532
0.045410152
10.918689
-1.2025418
-7.135306
8.3378478
-4.6816086
3.5718233
0.95731791
2.8162847
3.287113
1.7509523
-5.3843538
-10.059233
-2.6903358
-2.13959
-6.0313538
0.59752841
-3.2099529
6.295793
-2.7239698
3.7741133
5.6138781
7.0938302
-2.0574456
-5.1566139
6.4475521
-2.6734388
4.4203914
)
;

boundaryField
{
    wall-4
    {
        type            calculated;
        value           uniform 0;
    }
    velocity-inlet-5
    {
        type            calculated;
        value           nonuniform List<scalar> 8(-1.7582594 -1.7582594 -7.3846893 -4.5714743 -7.3846893 -6.446951 -4.5714743 -6.446951);
    }
    velocity-inlet-6
    {
        type            calculated;
        value           uniform -5.6264299;
    }
    pressure-outlet-7
    {
        type            calculated;
        value           nonuniform List<scalar> 8(5.2503952 7.8462394 5.8896718 10.499659 9.0938799 6.6484799 7.6031157 9.9970278);
    }
    wall-8
    {
        type            calculated;
        value           uniform 0;
    }
    frontAndBackPlanes
    {
        type            empty;
        value           nonuniform List<scalar> 0();
    }
}


// ************************************************************************* //
