/*--------------------------------*- C++ -*----------------------------------*\
  =========                 |
  \\      /  F ield         | OpenFOAM: The Open Source CFD Toolbox
   \\    /   O peration     | Website:  https://openfoam.org
    \\  /    A nd           | Version:  9
     \\/     M anipulation  |
\*---------------------------------------------------------------------------*/
FoamFile
{
    format      ascii;
    class       volVectorField;
    location    "29";
    object      U;
}
// * * * * * * * * * * * * * * * * * * * * * * * * * * * * * * * * * * * * * //

dimensions      [0 1 -1 0 0 0 0];

internalField   nonuniform List<vector> 
918
(
(0.40900089 -0.00016020908 0)
(0.0090456247 2.9576279 0)
(-0.023440975 1.3886937 0)
(0.2899605 -0.0085902655 0)
(-0.056867366 2.0903235 9.7826009e-21)
(-0.01174405 2.9485781 -3.5069188e-18)
(1.0672063 1.6514692 7.8100086e-19)
(0.41530233 0.24716319 -2.8944167e-20)
(1.9883881 0.0034107911 0)
(0.023987579 1.2187178 0)
(0.0047491564 1.0377686 0)
(0.38248232 -0.016760232 0)
(0.012838077 2.9163495 0)
(0.013768917 2.7908109 0)
(0.10135953 3.1831722 3.2134907e-19)
(-0.017475816 2.1307209 -1.7574081e-20)
(0.49698684 0.11575891 1.8364872e-18)
(0.22657305 1.7009654 5.717821e-19)
(0.36500591 0.0043446308 0)
(-0.016599917 1.0868829 0)
(0.065281065 0.24175911 -1.4437624e-18)
(1.047518 -0.022149833 0)
(0.5428118 -0.028688636 0)
(0.24737747 -0.00737698 0)
(0.48749683 -0.010027956 0)
(0.02389264 2.616178 0)
(-0.0099585662 2.905907 1.296047e-18)
(-0.028619323 1.4009974 0)
(-0.056636603 1.5726163 0)
(-0.025684306 1.3876884 0)
(-0.10703839 2.7985097 0)
(-0.056464755 2.2202549 -7.6755909e-21)
(-0.035705764 2.0117343 0)
(-0.018161843 2.9813225 -1.3084605e-22)
(-0.018375307 3.0070229 2.7227299e-18)
(0.00085974553 3.0015936 0)
(0.29499649 0.0051131032 0)
(0.43063015 0.91078506 3.3014512e-19)
(1.157101 1.6264796 -8.5588693e-19)
(1.2193125 1.4971237 9.3993917e-19)
(0.97973986 1.7703829 -1.7691925e-19)
(0.87523584 1.7764289 1.0399238e-18)
(0.52013677 0.2955282 2.8153289e-20)
(0.44591097 0.22694493 0)
(1.3878654 0.81498818 0)
(0.46326135 0.29895113 1.2917396e-19)
(0.3741219 0.24995839 -1.3453843e-19)
(0.24313404 -0.013295678 0)
(1.9895883 0.00023671719 0)
(1.9886948 -0.002417807 0)
(1.3552466 0.0008189209 0)
(1.8675748 0.0050041502 0)
(1.7380757 0.0029740106 0)
(0.026186653 2.0269919 -8.8633096e-19)
(0.046874524 1.4445399 0)
(0.04883541 1.316297 0)
(0.02770702 1.3945188 0)
(0.01737087 1.1435279 0)
(-0.0026596149 2.2307472 0)
(0.012561301 1.2680125 0)
(0.011184456 1.0576471 0)
(0.0045412506 1.2652478 0)
(0.0016762008 1.0176012 0)
(0.57688041 0.029073067 0)
(0.60794954 -0.028004076 0)
(0.33757678 -0.011633556 0)
(0.62592261 -0.024556534 0)
(0.42799251 -0.013271342 0)
(0.016738884 3.0145158 1.3438998e-18)
(0.012391046 3.0113805 0)
(0.0077280833 3.0035767 0)
(0.013327669 3.0004888 1.4330126e-23)
(0.010556768 2.9476306 -1.9193289e-18)
(0.016842128 2.9848916 0)
(0.013435963 2.8938382 0)
(0.017682802 2.923901 3.1084987e-24)
(0.013859889 2.8181581 0)
(0.017686068 2.9102758 0)
(0.0112232 2.7540339 0)
(0.25189251 3.64379 0)
(0.17933271 3.5809131 0)
(0.13516054 3.3162992 -3.0061476e-19)
(0.050028443 3.0062306 0)
(-0.11068008 2.4266146 0)
(-0.0186937 2.3447106 1.7314905e-20)
(-0.011481582 2.1587332 -3.3291161e-20)
(0.62914679 0.13286937 -6.3028044e-19)
(0.48673324 0.080006087 -6.0071601e-19)
(0.63516313 0.17513375 -1.9174609e-18)
(0.49801602 0.15088475 -1.2791387e-18)
(0.17889627 1.1551714 0)
(0.34984664 1.8474789 -6.4428899e-19)
(0.43834763 1.8314723 1.0833577e-18)
(0.54648939 0.038554587 0)
(0.30714464 0.02470178 0)
(1.218811 -0.0014028588 0)
(0.73804625 -0.035289785 0)
(0.64927009 0.017097074 -3.0313616e-18)
(0.64840698 -0.026230559 2.3760465e-18)
(-0.017520022 1.2651241 0)
(-0.01363726 1.0726868 0)
(-0.033313828 1.4129745 0)
(-0.023485189 1.2916204 0)
(-0.01523003 1.1052206 0)
(0.13978973 0.28541909 4.4063746e-19)
(0.22866009 0.23258997 0)
(0.50289537 0.018499706 0)
(0.24413802 0.013414257 0)
(0.63066069 -0.019084701 0)
(0.62260967 -0.01641377 0)
(0.47081542 -0.0096846019 0)
(0.98754425 0.052634798 0)
(0.59679687 0.0094311836 0)
(0.40698582 0.0079134335 2.4547962e-18)
(0.0020704562 2.8613893 1.1454675e-18)
(0.021521744 2.8991756 0)
(0.03605672 2.8740942 0)
(0.015869323 2.7029967 0)
(-0.010414254 2.9857671 1.2543427e-18)
(-0.0090819538 2.8908087 0)
(-0.011755123 2.9907604 -3.8482847e-18)
(-0.0095914638 2.9158705 1.3156628e-18)
(-0.021175729 1.7122741 0)
(-0.042488848 1.7757461 0)
(-0.023492843 2.3194813 -9.7788766e-22)
(-0.037775384 2.2618724 0)
(-0.026475431 2.0730828 0)
(0.64357733 0.034735963 0)
(0.34004194 0.021985449 0)
(0.23126481 0.015319025 0)
(0.60480915 0.012340003 0)
(0.28009017 0.017118067 0)
(0.51759401 1.0909349 -4.0483795e-19)
(0.55170837 1.1285957 0)
(0.40763567 0.89440815 5.283264e-20)
(0.31599375 0.68272484 0)
(1.2701125 1.4380803 -2.5935922e-19)
(1.3050774 1.2691907 4.8654841e-19)
(0.56354488 1.9024642 0)
(0.78118425 1.8731695 0)
(0.66420813 1.844251 0)
(0.14924064 0.25140945 -4.3235286e-19)
(0.5687329 0.27732526 0)
(0.47107067 0.20785161 3.6571333e-19)
(1.3500532 1.2159995 0)
(1.4009529 0.98670608 0)
(1.3565645 1.0355611 -3.4559767e-19)
(1.43957 0.77000277 0)
(1.4067951 0.61943334 6.7525282e-20)
(0.5766689 0.026331893 0)
(0.53661416 0.014324529 0)
(0.25489067 0.013306887 0)
(0.52025159 0.0066298636 0)
(0.52742918 -0.014562745 0)
(0.252403 0.0066252003 0)
(1.4987756 -0.0020626548 0)
(1.8698549 -0.0023218807 0)
(1.7318373 0.0002156636 0)
(0.040894468 2.2495145 4.79399e-19)
(0.050442786 1.9509363 0)
(0.033034634 2.3397548 7.8029439e-19)
(0.019954137 2.0891515 -6.5753756e-19)
(0.16723866 1.6896913 -4.6865752e-19)
(0.079233576 1.5322467 0)
(0.10026213 1.496154 0)
(0.020100641 1.3482364 0)
(0.011615833 1.1020122 0)
(-0.0047547226 2.4122391 -1.2683904e-21)
(0.0019056154 2.2271418 0)
(0.0014479796 2.4124017 -7.0475362e-20)
(-0.00041608594 2.2308761 1.2455651e-19)
(0.013866532 1.3176453 0)
(0.012576739 1.2931138 0)
(0.010097239 1.0741762 0)
(-0.00032752852 1.2540311 0)
(-0.0039254015 1.0218036 0)
(0.84544974 0.048351053 0)
(0.64966896 0.0295751 0)
(0.78610381 0.046016486 0)
(0.49577736 0.021361825 0)
(0.26084307 -0.016585085 0)
(0.56049744 -0.022163595 0)
(0.58414503 -0.019504378 0)
(0.30193661 -0.013334498 0)
(0.0037185889 3.0719848 -1.1565832e-20)
(0.010794055 3.0616367 0)
(0.016169384 2.9688053 0)
(0.013254635 2.8677208 0)
(0.73192659 4.2318634 0)
(1.2321919 3.2959788 8.8150142e-19)
(0.072742578 3.1371624 0)
(0.030186536 2.9081684 0)
(-0.014071477 1.824318 0)
(-0.048786229 2.2066712 0)
(-0.077650405 2.0237396 0)
(-0.093659843 2.7551254 1.3979979e-21)
(-0.08578896 2.5724161 0)
(-0.11774596 2.665758 0)
(-0.0010781823 2.178573 2.3218401e-21)
(-0.0046274749 2.3939013 3.8261515e-20)
(-0.0076292481 2.3743714 3.3909101e-20)
(-0.0049908708 2.1652998 0)
(0.62502957 0.08654305 9.1480714e-19)
(0.47164445 0.043930353 -9.0476405e-19)
(0.3046582 1.6969965 0)
(0.20648401 0.93401151 -3.8096993e-19)
(0.22595791 1.8389869 -1.1909661e-18)
(0.13777401 1.3969143 1.1949667e-18)
(0.27383709 -0.0044779657 0)
(0.53135921 -0.0026151222 0)
(0.52569284 0.013283244 0)
(0.28028906 0.0034882954 0)
(-0.010251824 1.2494452 0)
(-0.017227944 1.2539048 0)
(-0.0092495478 1.0413448 0)
(0.39815309 0.29852279 1.1930229e-18)
(0.31184074 0.28946589 -1.4240631e-18)
(0.31254609 0.2468542 0)
(1.2280481 0.12873817 4.0406718e-20)
(1.1773482 0.11731724 0)
(1.091916 0.087258897 0)
(0.8369281 0.037944316 0)
(0.60707502 0.04517825 0)
(0.58507258 0.016734594 -3.9469761e-18)
(0.44055379 0.020554794 1.5009055e-18)
(0.0031550053 2.9857277 1.1420534e-18)
(-0.0032988036 2.865697 4.6668834e-20)
(0.0038448105 3.0539385 -2.4158003e-20)
(0.012753176 3.0472594 8.6987226e-19)
(-0.0093902614 2.9952596 4.2708654e-20)
(-0.0083896203 2.9361803 -1.7137064e-22)
(-0.013157666 3.0201636 -8.0335219e-19)
(0.0012160668 3.0231476 5.790344e-19)
(0.0066761883 3.0398153 -8.7049826e-19)
(0.74189724 0.041896699 0)
(0.69946004 0.043729075 0)
(0.40978703 0.020501145 0)
(0.52346106 0.0076738302 0)
(0.51104982 0.02662982 0)
(0.26628593 6.2081939e-05 0)
(0.53825318 -0.028158381 0)
(0.5082399 -0.011435192 0)
(0.23552046 -0.013243936 0)
(0.70552766 1.3783026 -1.2913466e-19)
(0.77380578 1.4602626 0)
(0.16089586 0.34524193 1.033193e-19)
(0.32994791 0.75873404 7.8659192e-19)
(0.35010585 0.79031318 -4.6404381e-19)
(0.22500092 0.47954924 9.0529495e-19)
(0.4190825 0.96092152 2.2087655e-18)
(0.16641332 0.33724528 4.9360032e-19)
(0.62620972 0.21477489 1.3568056e-18)
(0.6063242 0.25143137 3.5173396e-19)
(0.49124324 0.17811282 6.809074e-19)
(1.4418494 0.56876624 7.4645269e-20)
(1.3723367 0.41716288 3.3652109e-20)
(0.023222635 2.3962485 2.9738413e-19)
(0.010644297 2.1620693 0)
(0.98995844 0.060700754 0)
(0.91285404 0.054802272 0)
(0.74408878 0.033758609 0)
(0.010037941 3.0770206 0)
(0.016986496 2.9387075 1.7028835e-18)
(0.016545717 2.9536976 0)
(0.013508191 2.8433619 -1.6998661e-18)
(0.0095492883 3.0917459 3.9084187e-19)
(0.0037863927 3.0887625 0)
(0.86450462 1.750075 -9.2457559e-20)
(1.1307034 2.3620763 4.435277e-20)
(0.84415314 1.8668792 -8.0433783e-19)
(0.01506565 2.9995056 -1.0504785e-18)
(0.036568198 3.040506 0)
(0.012858804 2.8747669 0)
(-0.0079771794 2.3963268 -2.1622688e-20)
(-0.00214844 2.4022104 -7.329971e-20)
(-5.5503925e-05 2.2122626 -3.8748478e-22)
(0.3437762 1.5338931 1.2014397e-18)
(0.21113561 0.75120975 -8.242499e-19)
(0.088706215 2.1596582 8.4013359e-19)
(0.16714466 2.0197356 -1.0282925e-18)
(0.082977102 1.6859237 1.2276253e-19)
(0.01437498 3.1141493 -2.5937355e-18)
(0.016952941 3.1196172 2.9361148e-18)
(-0.0085630566 2.9803545 1.2028064e-18)
(-0.0051337135 2.9775619 -1.1838181e-18)
(-0.0075303178 2.8763714 -1.2252882e-18)
(0.0047339384 3.1054897 -3.0427529e-18)
(0.0096309061 3.1047571 3.0216615e-18)
(0.37805585 0.82956603 0)
(0.33019285 0.76709232 -1.756734e-18)
(0.13335545 0.27380846 7.80494e-19)
(0.41342237 1.0820371 1.4139911e-18)
(0.1909786 0.43114739 -2.1958059e-18)
(1.3600268 0.21819585 1.055141e-19)
(1.4202555 0.37983484 0)
(1.3133356 0.24550866 -3.4919763e-20)
(0.007094739 2.4212842 -2.2046904e-21)
(0.0077476404 2.4093101 0)
(0.0042753916 2.2002428 0)
(0.39208395 1.3975608 -4.3208552e-19)
(0.42243631 1.2522094 -9.6876797e-19)
(0.20073866 0.57161514 1.7453792e-18)
(1.1926739 0.0053042704 0)
(1.336382 0.0014703564 4.9333182e-19)
(-0.00096604634 1.7136389 0)
(-0.020751125 1.711694 0)
(1.5131688 -0.0014561986 2.8639043e-21)
(1.1023192 0.015679289 1.0805246e-18)
(-0.078875951 2.7544915 -1.8133974e-21)
(-0.068220352 2.7839299 0)
(0.063870838 3.1811432 8.4719271e-19)
(0.54080687 3.5567999 0)
(1.4403006 0.8923391 -1.1159365e-19)
(1.2814053 0.0082237307 2.4029991e-20)
(1.3722308 0.024057658 0)
(1.9988632 0.0070495183 7.8182524e-21)
(0.11142956 1.8727141 0)
(0.12264587 2.7532368 0)
(0.017852711 1.7956333 0)
(0.0014160575 2.8249909 6.5093103e-20)
(-0.022398638 2.7668017 4.6437751e-20)
(1.2740737 -0.022384701 1.8883123e-20)
(1.4016687 0.067449705 0)
(1.4339245 0.093942502 0)
(-0.011402645 2.1777686 0)
(-0.019446575 2.7794073 0)
(-0.00025776245 1.756885 0)
(0.3534768 1.9937614 -2.6294753e-19)
(1.2986232 0.0091924598 0)
(1.0950974 0.0080763901 0)
(1.9708176 0.0098685195 6.4026237e-19)
(1.6572881 0.015409182 -7.3798255e-19)
(1.9058419 0.0097908569 0)
(0.028619882 1.9445081 0)
(0.020291544 1.757343 0)
(0.019124315 1.8515388 0)
(0.001861202 1.7476382 0)
(-0.0037004535 1.6891794 0)
(-0.011199748 1.6928213 0)
(1.4016297 0.049290499 0)
(1.313139 -0.0080470319 2.4057483e-20)
(1.0111768 1.720808 4.2200923e-19)
(1.9566643 0.00049772896 -6.5062997e-19)
(1.7072536 -0.0052532821 7.7506034e-19)
(1.8971981 -0.0066572744 0)
(1.3106316 0.0011389074 6.3934715e-19)
(1.1847252 0.0015549784 -8.04096e-19)
(0.93126795 0.020890809 0)
(-0.03313066 2.8159824 0)
(-0.055428981 2.791958 2.9314999e-20)
(-0.043264763 2.8047317 -2.4326762e-20)
(1.5731155 0.36562913 9.1268321e-19)
(1.5286218 0.16237617 0)
(0.08142728 3.0546498 -1.5555116e-18)
(0.045764391 2.8441963 -1.0914161e-19)
(0.18472297 3.1812529 2.3507038e-18)
(0.16885708 3.2467104 -3.8303712e-19)
(0.1668581 3.2939927 0)
(0.032551108 3.1352536 4.4339205e-19)
(0.08691376 3.1742365 1.5300998e-18)
(0.083345191 3.2020026 -8.2537988e-19)
(0.051351107 3.1084564 0)
(0.84682307 0.41350923 0)
(0.74979159 0.49183653 0)
(1.3936631 0.96094691 2.7457373e-19)
(1.3713481 1.1301273 -2.742891e-19)
(1.4872016 0.76927871 0)
(1.498038 0.71468918 0)
(1.2797213 0.014175539 -1.2830293e-18)
(1.0988671 0.010948713 1.6459193e-18)
(1.3877482 0.022744202 0)
(1.2393969 0.024495586 0)
(2.0038952 0.011641772 0)
(1.8777983 0.001524862 0)
(1.9371538 0.0073574823 0)
(1.7292594 -0.0082274398 0)
(1.6674762 -0.0029527545 0)
(1.7986893 -0.0027796777 0)
(0.097005702 1.8609522 0)
(0.071798624 1.8516757 0)
(0.14281149 1.9025902 0)
(0.15419458 1.930541 0)
(0.14405976 2.7819051 0)
(0.18297608 2.8593445 -5.1369708e-19)
(0.10006338 2.8551807 0)
(0.081796047 2.8700644 2.3730304e-19)
(0.028037788 2.8869626 -2.2034366e-19)
(0.015909279 1.8020293 0)
(0.014872903 1.7760775 0)
(0.02032755 1.8043263 0)
(0.023294007 1.7891957 0)
(0.00097078506 2.2564562 -2.5949536e-20)
(-0.022165403 2.8166225 -1.8495358e-21)
(-0.0049036077 2.8712183 6.555164e-20)
(-0.009018227 2.9011844 0)
(-0.020381762 2.8187115 -1.1562715e-19)
(-0.01755717 2.8145002 -4.788193e-20)
(0.0022723444 2.2502351 2.3636984e-20)
(-0.019149102 2.5811678 2.4422191e-21)
(-0.024325651 2.6207856 -8.3305082e-20)
(1.3013952 -0.021229113 1.5779026e-18)
(1.1258433 -0.033261455 -1.9399963e-18)
(1.2565667 -0.014483845 -1.6876772e-18)
(1.1575898 -0.018976758 2.234419e-18)
(1.4377389 0.05968511 0)
(1.3164484 0.066557814 0)
(1.4637974 0.08462474 0)
(1.4400497 0.06852973 0)
(1.2854568 0.069333016 0)
(1.5332896 0.14579928 0)
(1.4750021 0.10273319 0)
(1.3389306 0.093367552 0)
(-0.069426368 2.6721685 -1.8805259e-21)
(-0.010733681 2.3749137 0)
(-0.055805135 2.5413652 0)
(-0.015807533 2.8062864 1.9917634e-20)
(-0.012151378 2.8175778 -8.6851335e-22)
(0.040939695 2.0362203 1.4990709e-20)
(0.036630536 1.9479729 -1.5114564e-20)
(0.027956926 1.8247395 0)
(0.034037526 1.8134402 0)
(0.030885914 1.8046769 0)
(0.0013274239 1.7695775 0)
(-0.01342427 1.7450616 0)
(0.49197788 2.0026929 4.4137617e-19)
(0.51005697 2.0271247 2.302703e-19)
(0.59140343 2.6307943 -2.7691504e-19)
(0.38203052 2.7638126 7.3156031e-19)
(0.40435423 2.2435754 1.063299e-19)
(1.4039211 0.022345074 0)
(1.3332769 0.021988388 0)
(1.1456553 0.013666323 0)
(1.981109 0.015340901 0)
(1.9609304 0.010977065 0)
(1.7242349 0.017069599 0)
(1.630363 0.015711676 0)
(1.6462352 0.02040024 0)
(1.3493422 -0.0060396181 1.2647987e-18)
(1.0665069 0.012111588 -1.5885054e-18)
(1.3058125 -0.0052844166 -1.3595456e-18)
(1.166092 -0.014117069 1.7773695e-18)
(0.97145586 1.7412671 0)
(0.86775007 1.8865259 3.9717964e-19)
(1.1014197 1.6059965 1.3263336e-19)
(1.1467328 1.5991987 -1.7670991e-19)
(1.2696471 2.7098899 8.3243971e-19)
(0.89545179 0.082561382 9.7868468e-19)
(1.5394495 0.18404109 0)
(1.5811545 0.27279057 -7.1807193e-19)
(1.4947668 0.22847862 -2.8474687e-20)
(1.5064121 0.1509802 0)
(0.22880251 2.9290282 1.0406394e-18)
(0.11200352 2.8184755 -2.2457934e-18)
(0.042046668 2.3775114 1.4139002e-18)
(0.078014668 0.01228341 -7.1742091e-19)
(0.37273768 3.4705929 1.8483083e-20)
(0.23995648 3.3754201 0)
(0.25244978 3.4388216 -2.6054456e-20)
(0.27347553 3.0913447 -2.5481096e-18)
(0.40791437 3.1799872 0)
(0.014457846 3.1193048 7.9901698e-20)
(0.017536435 3.1324786 -8.5335012e-19)
(0.032263561 3.1177618 1.3263329e-18)
(0.039411512 3.1486596 0)
(0.037460942 3.1572592 0)
(1.3544721 2.8065096 0)
(0.74762414 1.1016734 -8.8171336e-19)
(1.2925027 1.3603571 2.4421324e-20)
(1.2151342 1.4242928 0)
(1.0825479 1.3229922 -1.9096541e-19)
(1.3197288 1.2007406 4.1863286e-20)
(0.45245677 0.51412303 -1.6870162e-18)
(0.91453572 0.40334791 -3.5530419e-20)
(0.83693375 0.33444569 7.5575645e-19)
(0.7727664 0.54190445 5.5242563e-20)
(0.65489186 0.48875984 -2.2735196e-18)
(0.88015338 0.45751257 0)
(0.95687751 0.56583799 1.2435831e-18)
(0.96979109 0.52400941 0)
(0.82819774 0.50381892 0)
(0.77475023 0.4267911 0)
(1.1165883 0.8471221 7.3735926e-19)
(1.5768862 0.39477046 -7.8003466e-19)
(1.5520833 0.56578503 0)
(1.5475806 0.51068183 0)
(0.88922435 0.22329089 1.1129276e-18)
(1.1638346 0.72382855 -7.0687166e-19)
(1.0339451 0.67315399 1.2638168e-18)
(1.3898065 0.51948603 -1.3123853e-18)
(1.2691171 -0.00023763352 8.4935254e-19)
(1.2445006 0.0070289688 -8.8041776e-19)
(1.0211574 0.0067849939 0)
(1.428924 0.044674836 0)
(1.3799431 0.033804036 -7.9488982e-19)
(1.2025234 0.029596674 7.8572677e-19)
(1.8210521 0.0061534702 0)
(1.7039123 -0.009548229 0)
(1.9106006 -0.00019683708 0)
(1.677293 0.0024333482 0)
(1.9531887 0.012389874 0)
(1.9397647 0.010519574 0)
(0.062943202 1.844291 0)
(0.04849735 1.8228178 0)
(0.17530522 1.8254873 -1.4129719e-20)
(0.33137392 1.9835451 1.3558063e-19)
(0.20430512 1.9685086 3.0331675e-19)
(0.23030326 1.9902102 -4.8747918e-19)
(0.21861998 1.8646268 0)
(0.18050806 1.9758022 -1.1173928e-19)
(0.16029741 1.9628536 0)
(0.37732104 2.2009873 -1.4736541e-19)
(0.36139639 2.5014791 6.9505734e-19)
(0.24008189 1.9119558 1.0009799e-19)
(0.32225211 1.8647498 4.0623388e-20)
(0.26840323 1.849155 -3.3084889e-20)
(0.35101348 1.7881868 -1.3962997e-19)
(0.27624448 1.9493103 0)
(0.32448996 1.9644125 1.417094e-19)
(0.041140109 2.4768743 -5.0917563e-20)
(0.034366674 2.878746 0)
(0.067537417 2.5832656 1.8852707e-19)
(0.058149101 2.5893885 0)
(0.059585292 2.8914972 -2.6384657e-19)
(0.045294999 2.9317876 0)
(0.017989473 1.8473118 -9.1440533e-21)
(0.024818126 1.8918096 0)
(0.031141286 1.829303 0)
(0.022044053 1.8193434 1.0367981e-20)
(0.0044381317 2.8579219 -1.6905638e-21)
(0.014864285 2.8915312 2.566228e-19)
(0.0075951432 2.928239 1.8177574e-21)
(-0.0060805231 2.1479955 2.8728746e-20)
(-0.0075992338 2.0520796 8.8101203e-21)
(0.012914321 1.795575 0)
(0.0067803649 1.7691165 0)
(0.047219202 1.9700284 5.6358474e-20)
(0.034841037 1.8667431 2.3788257e-20)
(0.037792361 1.9260354 -3.911334e-20)
(0.055180634 1.9903924 0)
(-0.024905655 2.4731163 -3.8284728e-20)
(-0.031042828 2.714824 3.1285652e-20)
(-0.026641731 2.6295242 -1.2560108e-20)
(-0.0082521827 2.14353 -3.3999909e-20)
(-0.026090003 2.6600216 -1.8547759e-20)
(-0.029299718 2.6356108 8.9627142e-20)
(1.2669475 -0.019040956 -9.6288685e-19)
(1.2756192 -0.028772627 1.0186269e-18)
(1.0877536 -0.030353088 0)
(1.4859044 0.054683071 1.6656404e-18)
(1.1987851 -0.0072614504 -1.8606913e-18)
(1.1569999 -0.010991472 2.1038991e-18)
(1.5108369 0.087301164 -2.2890543e-19)
(1.408845 0.049897562 0)
(1.4135043 0.057765884 8.4311396e-19)
(1.3069861 0.057300304 -8.3518673e-19)
(1.6341695 0.087088512 -5.3755708e-20)
(1.6179692 0.072976077 4.5636699e-19)
(1.7419782 0.09004824 0)
(1.8115419 0.084575434 -1.7742977e-19)
(1.7102286 0.023200237 0)
(1.587798 0.0052130041 0)
(1.8450199 0.0047689505 0)
(1.6548742 -0.0090247652 0)
(1.8322799 0.038778301 3.4678824e-19)
(1.8228022 0.020476019 -7.228498e-19)
(1.7958022 0.072207521 -3.5623317e-19)
(1.8059838 0.067775939 -4.0843218e-19)
(1.7643161 0.11042449 8.3309466e-19)
(1.6216782 0.11376794 0)
(1.6636877 0.15580015 0)
(-0.019023221 2.4840138 1.8783454e-20)
(0.0070385314 2.3530723 -1.3492842e-21)
(0.018965267 2.2992539 0)
(-0.033066424 2.6652789 -1.9286887e-20)
(-0.050191874 2.6411731 3.0674306e-21)
(-0.042487472 2.6758834 -5.2458039e-21)
(-0.018574542 2.827648 4.1856687e-20)
(-0.01723783 2.7405849 -5.0053861e-21)
(-0.019907239 2.7064146 1.1929024e-20)
(-0.010528301 2.8178556 -2.822034e-20)
(-0.017311427 2.8202957 3.6034434e-20)
(0.037383279 1.9106387 6.322011e-22)
(0.041626582 2.0396199 1.6678976e-20)
(0.49230579 1.9007421 -1.8714819e-19)
(0.4506492 1.8199714 8.612966e-20)
(0.83831407 1.9040718 -3.8527965e-19)
(0.67311286 1.9923237 -2.2242697e-19)
(0.69846463 1.9932782 0)
(0.64164522 2.5928797 2.5581199e-19)
(0.69723215 2.6072841 4.0256111e-19)
(0.4480642 2.693069 1.1138849e-19)
(0.45846236 2.6976811 -7.2238944e-19)
(0.5444359 2.6269834 6.9460104e-19)
(0.55315697 2.6479065 0)
(0.48441183 2.7068877 -6.4570922e-19)
(0.22939586 2.7803041 1.3095618e-18)
(0.33553391 2.7640715 -4.9621383e-20)
(0.27062404 2.8558992 -1.7872133e-18)
(1.0219366 2.5361814 1.0252399e-18)
(0.89123611 2.5487278 0)
(1.9537206 0.021440726 2.5291221e-20)
(1.6579594 0.022076399 -2.1625886e-20)
(1.6771193 0.022481259 -3.820109e-19)
(1.8768714 0.027200105 3.8292563e-19)
(1.9880891 0.026283151 0)
(0.87081198 1.6928875 0)
(0.84107345 1.5800671 0)
(1.0046033 1.4943071 0)
(0.86398583 1.504846 0)
(1.2764311 2.7444075 -2.5511968e-22)
(1.186519 2.5685228 0)
(0.93123062 2.2796016 6.2523313e-21)
(0.87590132 2.5357469 0)
(0.99298736 2.6083765 -5.4314866e-19)
(1.0202437 2.5974341 3.7113686e-19)
(0.93814086 0.11851173 0)
(0.88899122 0.13302161 2.7215615e-19)
(1.1055361 0.10503674 1.5117888e-18)
(0.95627875 0.075528233 -5.7692001e-19)
(0.89058085 0.027554905 -1.7617043e-18)
(1.6454508 0.3136997 -1.3555177e-18)
(1.5249601 0.38159594 -2.4354879e-20)
(1.2771651 0.30701428 1.5022013e-18)
(1.5144857 0.27138147 1.225005e-18)
(1.2883711 0.15376994 -2.0336398e-18)
(1.2430912 0.16674856 2.5862413e-19)
(1.2966905 0.23852071 -5.624863e-19)
(1.258548 0.20853976 0)
(1.503683 0.1949973 9.9912726e-19)
(1.6158338 0.23353931 0)
(1.61042 0.2811074 0)
(1.6273541 0.1968728 4.1591104e-19)
(1.718548 0.23994707 -2.2274928e-20)
(1.6563001 0.31890637 -2.3649253e-19)
(1.6318269 0.27969509 0)
(1.5442749 0.010684236 8.4999618e-19)
(1.7756391 0.062113903 1.0439153e-18)
(1.735969 0.034873461 -8.0838087e-19)
(1.7261698 0.081113276 -7.1193799e-19)
(1.5356491 0.048272734 -1.1957811e-18)
(1.3945379 0.11682836 0)
(1.4161645 0.10301321 0)
(1.1485936 0.015958089 -7.6242488e-19)
(1.0764011 0.019014074 3.0936669e-19)
(1.6500174 0.1118375 1.0532396e-18)
(1.7364539 0.17973473 -1.2108406e-18)
(1.7148376 0.19635606 1.1041387e-18)
(1.6661258 0.17729742 0)
(1.7291541 0.14819256 0)
(1.7673903 0.12887325 -4.7292833e-19)
(1.7430431 0.11460283 -8.6063464e-19)
(0.72751443 1.4877049 2.4754113e-19)
(0.81389732 1.8342134 -2.717736e-19)
(1.1788722 2.7853318 -3.029172e-19)
(1.2982125 3.136876 5.7143104e-20)
(1.340202 2.8252923 -6.4487121e-19)
(1.3959372 2.8947264 8.3738918e-20)
(1.2662889 2.5663691 2.6850187e-20)
(1.3300507 3.0601579 -2.2323343e-19)
(1.3373944 3.0774973 4.2899638e-19)
(1.3175307 3.343208 -5.7122491e-20)
(1.4345368 3.1092706 5.897047e-20)
(1.4520192 3.0371375 0)
(0.75073657 1.1759029 -7.8031889e-20)
(0.26850506 1.35573 9.0722386e-19)
(0.65225405 0.71900314 1.1147168e-18)
(0.42738545 0.29170576 1.2790381e-18)
(0.68162275 0.54432162 1.2754413e-18)
(0.74074589 0.65326763 -2.1046942e-18)
(0.72283878 0.67149408 1.7055833e-18)
(0.62761035 0.57172468 -6.5831913e-19)
(0.53022291 0.45942906 1.4916368e-18)
(0.93822318 0.27366825 -6.2505923e-19)
(0.91083925 0.3315443 0)
(0.8412146 0.28247788 1.8158109e-20)
(0.98115052 0.68878333 6.6873491e-19)
(0.94798915 0.65000806 -2.4273711e-18)
(0.80237597 0.66726416 2.9715162e-20)
(0.83642478 0.6246771 0)
(0.87361004 1.0471895 7.0472581e-19)
(1.0924179 1.0682086 6.4746379e-19)
(1.0012166 1.1927529 -7.4244431e-19)
(1.1422941 1.0981688 -2.6782293e-19)
(1.2230569 1.1674374 -6.4720717e-20)
(1.1941368 1.1663548 6.5229543e-20)
(1.1901418 0.87846188 -1.229765e-18)
(1.209417 0.99346541 2.512913e-19)
(1.297687 1.0016267 0)
(1.3304693 0.95154264 -3.4237595e-19)
(1.5545479 0.41387868 3.7155591e-19)
(1.6151302 0.41997013 4.6011125e-19)
(1.628328 0.37530403 5.7356326e-19)
(1.5182481 0.50486697 -7.5272529e-19)
(1.5069507 0.57675369 0)
(1.5331727 0.5505952 0)
(1.257786 0.43713008 1.8334329e-20)
(1.1187346 0.31171507 0)
(1.1635285 0.28038081 7.2881032e-19)
(1.2591748 0.3186255 -2.0755641e-20)
(1.369566 0.57377195 3.4242626e-18)
(1.2701532 0.67378614 9.4601334e-19)
(1.2693998 0.58747322 -1.0475949e-18)
(1.1252263 0.54599317 1.1359885e-18)
(1.081191 0.55820612 6.7308333e-19)
(1.0253346 0.5225452 -6.5947007e-19)
(1.6604059 0.037462539 6.5997726e-19)
(1.9448504 0.028151926 0)
(1.9092669 0.035667697 4.4545012e-19)
(1.6797717 0.03550862 -9.9937207e-19)
(1.9243663 0.02108201 4.9042305e-19)
(1.8722764 0.0020189094 -1.0387758e-18)
(1.6919189 -0.0027617023 0)
(1.5805959 0.0035325734 -2.1298896e-19)
(1.8409166 0.0035601165 5.3308063e-19)
(1.6714177 0.0052809557 -2.7470075e-19)
(1.6090736 0.0079962839 2.0109509e-19)
(0.027522323 1.8094784 0)
(0.035181897 1.8122815 0)
(0.04064988 1.8202054 0)
(0.029703103 1.8048139 0)
(0.085012026 1.8303071 -1.9172185e-21)
(0.099826535 1.8152749 9.4779602e-21)
(0.14203969 1.9037529 -3.6426029e-20)
(0.12460466 1.8025162 7.7973209e-21)
(0.043950563 1.8754723 -3.2179583e-20)
(0.048009614 1.8707713 2.4788859e-20)
(0.077131509 1.8197388 -2.1362449e-20)
(0.067490162 1.8266896 2.7284305e-20)
(0.049105213 1.8081361 3.2012889e-21)
(0.041088148 1.8145227 -2.5560956e-21)
(0.095761494 2.5227704 -2.0283985e-19)
(0.099128482 2.5566356 0)
(0.16844484 2.2619428 1.192263e-19)
(0.15526001 2.0524187 7.044216e-20)
(0.27421311 2.2254881 -1.1013116e-19)
(0.23751416 2.6014401 0)
(0.28054534 2.5874213 -6.916324e-19)
(0.33006368 2.484931 4.9742125e-19)
(0.23724522 2.188736 -2.7767968e-19)
(0.18426636 2.3525575 1.8966265e-19)
(0.17311546 2.4895748 0)
(0.020114531 2.2103769 -9.9673442e-20)
(0.017074229 2.5949841 -1.3438708e-19)
(0.013187784 2.3597478 0)
(0.016493925 2.6537631 -1.6017702e-20)
(0.035850851 2.4861577 5.9724159e-20)
(0.00771559 1.8409412 2.8775762e-22)
(0.0059777542 1.8375387 -7.7249748e-21)
(0.0056726247 1.8404067 -8.1257176e-23)
(0.0062527651 1.8287025 5.5305873e-21)
(0.01602534 1.8539948 0)
(0.0032915757 1.8235184 0)
(-0.0024984634 1.7811092 2.1270395e-21)
(0.0053580742 1.8117325 -2.3933485e-21)
(0.0048416477 1.8177249 0)
(0.0052973929 1.7887911 -2.8813399e-21)
(-0.0061641953 1.7583072 3.3322557e-21)
(1.6147469 0.044574853 0)
(1.6076957 0.046096779 -7.8175808e-20)
(1.9024194 0.0401071 -5.9883395e-19)
(1.7691726 0.052515199 0)
(1.6070965 0.047156668 0)
(1.8787672 0.030508975 1.0799065e-20)
(1.8839302 0.031217292 8.7968356e-19)
(1.7613581 0.0046946952 1.135693e-18)
(1.6465478 -0.0059299239 0)
(1.5689033 -0.0061410998 0)
(1.7430586 0.016320492 5.9979374e-19)
(1.5861791 0.0038296796 0)
(1.5655391 -0.012335081 0)
(-0.018196289 2.260795 0)
(0.021603834 2.0570813 -4.6308668e-21)
(0.001233606 2.1575183 1.0684237e-21)
(0.0066310874 1.8298753 0)
(0.0090582953 1.9655172 1.3303933e-20)
(0.02134199 1.8910572 -5.4620991e-21)
(0.019890932 1.8219664 0)
(0.4935133 1.9007006 0)
(0.44791506 1.7073592 -1.8368165e-19)
(0.40853479 1.7136335 0)
(0.53972588 1.7440821 7.7286715e-20)
(0.6359761 1.9129092 0)
(0.57329316 1.8573856 1.4131362e-20)
(1.1108838 2.7984494 -2.1215518e-20)
(1.0422744 2.5560104 -1.179773e-18)
(1.0368433 2.447337 1.3549855e-18)
(0.91821159 2.536146 3.3880589e-19)
(0.90886805 2.5985224 0)
(0.97360467 2.5800974 0)
(0.99616028 2.5398729 0)
(0.97666601 2.5355596 -1.2240063e-18)
(0.73382681 2.5434321 -5.6042354e-19)
(0.85793107 2.5699241 -1.3037715e-19)
(0.85694752 2.5247236 1.0431675e-19)
(0.74714594 2.5694565 0)
(0.84764848 2.5610488 0)
(0.8027885 2.5798866 -4.4012157e-19)
(0.80369595 2.5901396 0)
(0.81140407 1.4613088 0)
(0.69878237 1.2769835 -7.9363905e-19)
(0.77803993 1.3026497 -4.8554521e-20)
(0.73387209 1.3910604 0)
(0.72562146 1.3618463 1.2082467e-18)
(1.0156437 1.2349743 -2.0593525e-19)
(1.0147606 1.3645638 0)
(1.0230322 1.294614 3.172915e-19)
(0.8473891 1.4217725 0)
(0.87403362 1.3068344 0)
(1.246792 2.8237201 -3.663548e-19)
(1.2070248 2.8640716 -2.637005e-19)
(0.99696068 2.3735562 4.5676118e-19)
(0.99664845 2.4031116 -1.5596799e-19)
(1.2162299 2.811266 0)
(1.1734015 2.7657349 1.9801381e-19)
(1.2000336 2.6415998 -3.6460622e-19)
(1.1102952 2.4815658 -2.8863304e-20)
(0.67166263 1.686396 0)
(0.67996485 1.4783661 -2.1791472e-19)
(0.72499212 1.5467912 0)
(1.1050043 0.21972491 0)
(0.91403292 0.15289641 0)
(0.81798547 0.16126315 0)
(1.0890431 0.22968196 -1.1356642e-18)
(0.93190688 0.20029005 6.5622908e-19)
(1.0741947 0.017804768 -6.1189222e-19)
(1.1661813 0.077548589 0)
(1.1421313 0.097459333 2.7268935e-19)
(0.97388077 0.029660966 1.1068561e-18)
(0.91605543 0.0069746654 -7.0015399e-19)
(1.3274798 3.467706 -2.7243382e-19)
(1.3089898 3.3998681 0)
(1.348395 3.4218282 -6.2341178e-19)
(0.53576743 3.5221503 5.9190984e-19)
(0.78294319 3.0543296 -3.7688609e-19)
(0.64780783 1.1716764 9.7319415e-19)
(0.61765197 1.1899079 0)
(0.55688656 0.74077535 -2.7806629e-19)
(0.661576 1.0261349 1.4587281e-18)
(0.68332637 0.69449948 -3.8741254e-19)
(0.66874414 0.7432945 4.3236416e-19)
(0.86060611 0.72556872 9.0637324e-19)
(0.94274267 0.74837794 0)
(0.86400563 0.86166456 0)
(0.795764 0.81134136 0)
(1.3593988 0.83200454 1.4393871e-19)
(1.2851029 0.74133847 -9.0153829e-19)
(1.2761339 0.79713006 6.9589133e-19)
(1.3631365 0.69344347 -6.9663686e-19)
(1.4643659 0.6907887 0)
(1.4635116 0.76591458 -1.6995666e-19)
(1.1328992 0.48214182 -1.5140803e-18)
(1.159816 0.46257226 -1.8194235e-18)
(1.0751766 0.46896408 1.1821354e-18)
(1.0597804 0.43607689 -1.2042738e-18)
(1.1242289 0.35706776 -9.3821921e-19)
(1.0431246 0.3559681 1.1640645e-18)
(1.9061376 0.022053503 -5.3587406e-19)
(1.9324051 0.024244276 1.0853265e-18)
(1.6599948 0.037418682 6.7568899e-19)
(1.6738324 0.043799174 -8.0412917e-19)
(1.7625069 0.045296465 0)
(1.9227602 0.03787133 -1.4235135e-18)
(0.076058933 2.0328839 2.8537207e-20)
(0.070048984 1.9727977 0)
(0.11168357 2.0272064 2.9652178e-19)
(0.12546085 2.0184886 -2.6882894e-19)
(0.10669496 1.9309551 6.4539376e-20)
(0.095204149 1.9218097 0)
(-0.0065965501 2.0591476 0)
(-0.0067784912 1.9183059 -6.3187366e-21)
(-0.0022210944 1.8867125 5.7173505e-21)
(-0.000549594 1.9684027 5.5567262e-21)
(-0.01173537 2.1854402 -1.6518919e-20)
(-0.013621983 2.201184 1.5187888e-20)
(0.65394752 1.6916035 -5.146798e-19)
(0.61687674 1.7244114 5.4267475e-19)
(0.57619705 1.7155833 -5.5798603e-20)
(0.57489464 1.6665742 1.8790146e-20)
(0.81230722 1.7271509 0)
(0.69838965 1.8302493 1.5684141e-19)
(0.76559858 1.8406456 -1.5229969e-19)
(0.61097363 1.7351726 5.5369639e-20)
(0.67771958 1.6593338 0)
(0.72632192 1.632156 0)
(0.71178896 2.5125816 8.2067481e-19)
(0.71351667 2.5785975 1.4947528e-18)
(0.7591721 2.5796697 -1.0739848e-18)
(0.63237297 2.586687 -2.2384216e-19)
(0.62052458 2.6447412 3.7203816e-19)
(0.57504266 2.6160232 -9.3480261e-19)