/*--------------------------------*- C++ -*----------------------------------*\
  =========                 |
  \\      /  F ield         | OpenFOAM: The Open Source CFD Toolbox
   \\    /   O peration     | Website:  https://openfoam.org
    \\  /    A nd           | Version:  9
     \\/     M anipulation  |
\*---------------------------------------------------------------------------*/
FoamFile
{
    format      ascii;
    class       volScalarField;
    location    "0.45";
    object      alpha.phase1;
}
// * * * * * * * * * * * * * * * * * * * * * * * * * * * * * * * * * * * * * //

dimensions      [0 0 0 0 0 0 0];

internalField   nonuniform List<scalar> 
10000
(
5.8997431e-98
5.8998702e-98
8.2537907e-98
4.9427603e-96
5.7806545e-94
6.3090183e-92
6.8680829e-90
8.4419206e-88
1.3047032e-85
2.8499887e-83
1.2518952e-80
3.5968338e-78
1.9085149e-76
2.3420152e-75
1.1964469e-74
4.1161281e-74
1.1061675e-73
2.2642943e-73
6.0768469e-73
3.444879e-71
3.0670391e-69
2.6212946e-67
2.1464665e-65
1.6926663e-63
1.2924285e-61
9.60102e-60
6.9911533e-58
5.1551839e-56
4.0529713e-54
3.1919556e-52
2.477393e-50
1.8444009e-48
6.0008868e-47
6.9561406e-46
4.7515238e-45
1.3361451e-44
8.767112e-45
2.2230685e-45
2.2230685e-45
2.2822085e-45
2.1303396e-44
3.0823238e-43
3.6598012e-42
3.6206726e-41
2.8465259e-40
1.7580362e-39
8.7642709e-39
3.564158e-38
1.1401276e-37
2.8179795e-37
2.9415373e-37
1.7291103e-37
5.7099513e-38
1.3457161e-38
2.5510653e-39
3.7472341e-40
3.7830943e-41
2.2935747e-42
7.8298815e-44
1.7272075e-45
1.4362512e-45
1.4362512e-45
3.8447e-44
2.0198809e-44
3.5024186e-45
2.3075879e-46
5.4209476e-48
3.6517183e-50
2.4594399e-52
6.5500622e-54
1.4713397e-55
2.2328515e-57
3.2326873e-59
4.9141054e-61
7.3653017e-63
1.06352e-64
1.4739977e-66
1.9534321e-68
2.4878709e-70
4.3044882e-72
1.0425329e-72
7.4747524e-73
4.8187439e-73
2.0594156e-73
7.2132147e-74
2.4890512e-74
7.1078028e-75
1.5053205e-75
1.3957436e-76
2.9106248e-78
1.0819524e-80
2.264184e-83
6.5158242e-86
1.7676616e-88
4.6551731e-91
1.6101062e-93
7.3961918e-96
1.1875001e-97
9.4991528e-98
9.4989176e-98
6.8018305e-98
1.576883e-96
7.9343015e-96
2.6494531e-95
1.30128e-93
9.1502453e-92
8.9940238e-90
1.2304414e-87
2.4464094e-85
6.4979122e-83
1.8732203e-80
3.6858691e-78
1.8741391e-76
2.3532079e-75
1.1747358e-74
3.6802777e-74
1.270474e-73
3.8785343e-72
3.6951359e-70
3.5712678e-68
3.2820886e-66
2.873352e-64
2.4081547e-62
1.9425822e-60
1.5160857e-58
1.1497977e-56
8.53768e-55
6.4183595e-53
5.0963049e-51
3.9311745e-49
3.0546486e-47
2.9859476e-45
1.2533614e-43
9.358506e-43
1.6295757e-42
6.4139462e-43
8.7868738e-45
3.6833e-45
1.4320462e-44
3.3593052e-43
4.9573895e-42
6.211356e-41
6.7241096e-40
6.0344553e-39
4.0969057e-38
1.9106992e-37
5.9762363e-37
1.3643756e-36
2.7166058e-36
4.8522691e-36
4.9944665e-36
3.6268935e-36
1.8752921e-36
8.1175023e-37
2.7427743e-37
6.0261179e-38
7.4352671e-39
4.9180692e-40
1.8980931e-41
5.1034541e-43
6.2917588e-45
1.4362512e-45
1.7115903e-44
3.6065921e-42
3.153438e-42
6.7123967e-43
1.8590677e-44
8.6347476e-47
4.0942269e-49
9.8653431e-51
4.0232496e-52
6.496589e-54
6.4636511e-56
8.2198471e-58
1.1636481e-59
1.5957344e-61
2.0977597e-63
2.6478274e-65
3.1935815e-67
3.6615028e-69
4.5196015e-71
6.3961253e-72
2.5571507e-72
5.1356386e-73
1.0844179e-73
3.1955271e-74
8.0437038e-75
1.540424e-75
1.3727879e-76
3.1652998e-78
1.8267041e-80
6.3174791e-83
1.6206596e-85
3.3062191e-88
1.2611152e-90
1.0158611e-92
1.447592e-94
2.158782e-95
2.7542294e-96
1.021973e-97
4.2253278e-95
2.0855879e-93
1.1088415e-91
7.8796267e-91
2.592341e-90
2.8823972e-89
2.862311e-87
6.4323282e-85
3.3253706e-82
2.0356201e-79
2.2007767e-77
3.8675861e-76
2.4289286e-75
2.3211147e-74
4.6619462e-73
3.7643326e-72
3.3807467e-71
2.9482996e-69
3.0339952e-67
2.9594435e-65
2.7382855e-63
2.4099681e-61
2.0278717e-59
1.6398885e-57
1.2809289e-55
9.7027338e-54
7.1828639e-52
5.3779111e-50
4.2438315e-48
3.2544618e-46
2.558998e-44
2.4239936e-42
9.0861701e-41
6.2320936e-40
1.053992e-39
4.4151148e-40
7.1041729e-43
1.9261522e-42
3.2539922e-42
6.7572253e-41
9.4492884e-40
1.1259239e-38
1.1666491e-37
1.010065e-36
6.731922e-36
3.1460731e-35
9.9727853e-35
2.2950235e-34
4.5256884e-34
8.2657966e-34
8.5209673e-34
6.1317436e-34
3.161242e-34
1.3640188e-34
4.5737483e-35
1.0043279e-35
1.2687428e-36
8.9457856e-38
3.847454e-39
1.1433157e-40
2.3986341e-42
1.7716144e-44
8.6203136e-43
2.4064472e-39
2.1867518e-39
5.0732163e-40
1.6262269e-41
8.4843979e-44
3.113413e-46
6.7376109e-48
2.4706531e-49
4.1776069e-51
5.1023472e-53
6.8674092e-55
9.8044741e-57
1.3614036e-58
1.80828e-60
2.2955748e-62
2.7741956e-64
3.1758121e-66
3.6319404e-68
3.2694735e-69
1.3776223e-69
2.3953472e-70
3.2067557e-71
6.7673228e-72
1.1071743e-72
1.2122214e-73
9.8822044e-75
6.1886142e-76
1.6152185e-77
1.1976072e-79
4.2694161e-82
1.472517e-84
5.4423784e-87
5.7047778e-89
2.991984e-90
2.1605818e-91
3.1292338e-93
6.6857671e-95
1.3660846e-92
6.7214101e-91
8.3722911e-89
6.4346493e-87
7.6943374e-86
1.9669e-85
2.4380379e-84
4.9009645e-82
2.2870183e-79
1.2624618e-76
1.3354548e-74
2.632589e-73
2.6113834e-72
7.9641799e-71
1.0314897e-69
3.7921228e-69
1.9098719e-68
1.8263304e-66
1.9039372e-64
1.8746513e-62
1.7462658e-60
1.5443559e-58
1.3032599e-56
1.0548393e-54
8.2320429e-53
6.2175185e-51
4.5821961e-49
3.4100028e-47
2.669947e-45
2.0477365e-43
1.6451151e-41
1.5117262e-39
4.9729197e-38
3.0620555e-37
4.948366e-37
2.1525985e-37
4.773742e-40
7.8664608e-40
7.3255197e-40
1.0975961e-38
1.3794085e-37
1.5532832e-36
1.5402497e-35
1.2853831e-34
8.3803397e-34
3.8944155e-33
1.240495e-32
2.8626108e-32
5.5865023e-32
1.0343752e-31
1.0671556e-31
7.6324565e-32
3.9349369e-32
1.6997947e-32
5.6961081e-33
1.2584894e-33
1.6325434e-34
1.2233302e-35
5.802369e-37
1.8532741e-38
4.9472669e-40
1.7004118e-41
1.0012136e-39
1.1570728e-36
1.1019954e-36
2.8215193e-37
1.0654042e-38
6.346694e-41
1.6322478e-43
3.4053523e-45
1.453918e-46
2.5630198e-48
3.3910504e-50
4.6764965e-52
6.6877782e-54
9.2930468e-56
1.2334157e-57
1.5602232e-59
1.8738871e-61
2.1265393e-63
2.3093825e-65
1.3552021e-66
5.8494834e-67
1.082648e-67
1.6108738e-68
3.720807e-69
6.8471072e-70
9.6210165e-71
8.9012759e-72
4.9191331e-73
1.1526393e-74
9.8137612e-77
5.340012e-79
3.3548697e-81
2.449746e-83
2.7773172e-85
9.9604708e-87
1.5972758e-88
1.2633826e-90
2.1198591e-92
3.4659476e-90
2.0085208e-88
2.1939793e-86
2.2942915e-84
1.5634555e-82
2.3197334e-81
9.4054616e-81
3.7827536e-79
1.1848722e-76
5.67944e-74
6.3035178e-72
1.3759862e-70
1.5205855e-69
4.1004969e-68
4.7291066e-67
1.6258242e-66
9.3119239e-66
9.4753962e-64
9.9907954e-62
9.9257433e-60
9.3019396e-58
8.2562244e-56
6.9761028e-54
5.6402042e-52
4.385588e-50
3.2922741e-48
2.4059465e-46
1.7701073e-44
1.3665122e-42
1.0467297e-40
8.6556013e-39
7.7040743e-37
2.1972664e-35
1.1915825e-34
1.8123504e-34
8.051739e-35
1.0817064e-37
2.5212273e-37
1.8002429e-37
1.5391045e-36
1.6110327e-35
1.6755471e-34
1.5853126e-33
1.271389e-32
8.089652e-32
3.7298328e-31
1.1905743e-30
2.7520705e-30
5.3171656e-30
9.9116487e-30
1.0230873e-29
7.29589e-30
3.772008e-30
1.6345854e-30
5.4834425e-31
1.2197693e-31
1.6240683e-32
1.2908629e-33
6.7300973e-35
2.3100976e-36
8.1894905e-38
1.3269243e-38
8.3651387e-37
4.34205e-34
4.3732874e-34
1.2451089e-34
5.5962537e-36
3.8712749e-38
5.5995297e-41
1.0560408e-42
7.4480343e-44
1.3967824e-45
1.9231205e-47
2.6767527e-49
3.8245149e-51
5.3080772e-53
7.0208315e-55
8.8255572e-57
1.0502803e-58
1.1776194e-60
1.2417453e-62
4.5913919e-64
1.8526482e-64
3.4224053e-65
5.9683561e-66
1.5678887e-66
3.1387768e-67
5.022267e-68
4.9607066e-69
2.6351144e-70
5.9235498e-72
5.4729489e-74
3.828909e-76
2.7135474e-78
2.0604812e-80
3.174913e-82
5.6141114e-84
5.5661602e-86
3.728411e-88
5.2436983e-90
7.1702113e-88
4.6788646e-86
5.4698381e-84
5.1250208e-82
4.5739641e-80
2.3341225e-78
3.845358e-77
3.0222442e-76
5.1371743e-74
2.0774846e-71
2.3730268e-69
5.5781467e-68
7.0566369e-67
1.7666859e-65
1.6588937e-64
5.1594362e-64
3.9389968e-63
4.2217143e-61
4.5142306e-59
4.5255598e-57
4.2651942e-55
3.7957132e-53
3.2057996e-51
2.5831102e-49
1.9960355e-47
1.4850015e-45
1.0727485e-43
7.7722944e-42
5.8905776e-40
4.5052845e-38
3.8611694e-36
3.3125844e-34
8.1321202e-33
3.8343882e-32
5.4111743e-32
2.4253081e-32
3.0568184e-36
6.4112803e-35
4.000096e-35
2.0305156e-34
1.599245e-33
1.4619846e-32
1.3152416e-31
1.0085705e-30
6.2386506e-30
2.8454689e-29
9.072199e-29
2.0951531e-28
4.0064284e-28
7.4780606e-28
7.7204504e-28
5.5006149e-28
2.8614887e-28
1.2480279e-28
4.2012113e-29
9.4306128e-30
1.2912926e-30
1.08947e-31
6.2424414e-33
2.3343752e-34
8.895131e-36
7.9420137e-36
5.3216059e-34
1.3377258e-31
1.4409581e-31
4.5564317e-32
2.4453488e-33
1.9931512e-35
1.3655315e-38
1.0749806e-40
3.443168e-41
6.8991929e-43
9.3670041e-45
1.3173351e-46
1.8840732e-48
2.6072316e-50
3.4297852e-52
4.2748173e-54
5.0280004e-56
5.5528226e-58
5.7404893e-60
1.4765202e-61
5.0325992e-62
8.7362065e-63
1.8028267e-63
5.293856e-64
1.1134667e-64
1.953704e-65
2.0736294e-66
1.0675459e-67
2.2753764e-69
2.2621018e-71
1.7350572e-73
1.0536759e-75
9.3548024e-78
1.6842294e-79
1.7834094e-81
1.3813455e-83
8.4974258e-86
1.0588539e-87
1.2510878e-85
8.8484916e-84
1.0943857e-81
1.0631495e-79
9.7701112e-78
8.5200906e-76
2.4980784e-74
2.1689899e-73
1.701935e-71
5.8160098e-69
6.5747221e-67
1.7361294e-65
2.7989206e-64
6.390702e-63
4.806235e-62
1.3396967e-61
1.4622422e-60
1.6398516e-58
1.7817427e-56
1.8046563e-54
1.7111658e-52
1.5262359e-50
1.2872963e-48
1.0323393e-46
7.9120242e-45
5.820198e-43
4.1444363e-41
2.946551e-39
2.1840453e-37
1.6706293e-35
1.4937404e-33
1.2250216e-31
2.5750493e-30
1.0477996e-29
1.3588848e-29
6.0587303e-30
7.424208e-34
1.2924024e-32
7.7753226e-33
2.6496239e-32
1.4355965e-31
1.0538588e-30
8.9647057e-30
6.5485337e-29
3.917913e-28
1.7591401e-27
5.5548404e-27
1.2646493e-26
2.3654686e-26
4.398104e-26
4.5486578e-26
3.246755e-26
1.7153646e-26
7.6218468e-27
2.60184e-27
5.9307863e-28
8.3693787e-29
7.5030266e-30
4.7313472e-31
1.8802077e-32
1.400945e-33
3.7663472e-33
2.6828511e-31
3.5131268e-29
4.082505e-29
1.4240243e-29
9.1004087e-31
8.8472131e-33
2.946225e-36
8.2092399e-39
1.3992994e-38
3.4480421e-40
4.0115602e-42
5.6943061e-44
8.1493565e-46
1.1229076e-47
1.4663946e-49
1.807993e-51
2.0951153e-53
2.2699205e-55
2.2893328e-57
4.312775e-59
1.1701849e-59
1.8991514e-60
4.5630048e-61
1.4586559e-61
3.2413297e-62
6.1912555e-63
6.9560127e-64
3.392646e-65
6.8581428e-67
7.3821199e-69
5.0433067e-71
3.3946539e-73
4.8900468e-75
4.9602788e-77
3.8670079e-79
2.7278794e-81
1.5822865e-83
1.8019602e-85
1.8853026e-83
1.4155312e-81
1.8251028e-79
1.8824947e-77
1.6337483e-75
1.3097223e-73
8.33649e-72
2.5139461e-70
4.3577144e-69
1.2254722e-66
1.5210521e-64
4.7733367e-63
8.726186e-62
1.6685527e-60
1.0970138e-59
2.9780169e-59
4.7900855e-58
5.6055141e-56
6.2085427e-54
6.3696425e-52
6.0853551e-50
5.4433899e-48
4.5847894e-46
3.6556706e-44
2.7748234e-42
2.0138365e-40
1.409646e-38
9.798782e-37
7.0786454e-35
5.4201937e-33
5.0599543e-31
3.9212533e-29
7.0693359e-28
2.4812408e-27
2.9325203e-27
1.2854684e-27
2.5216372e-31
2.1205557e-30
1.3143295e-30
3.3904412e-30
1.2363348e-29
6.4415506e-29
5.0449687e-28
3.5131807e-27
2.0131906e-26
8.810215e-26
2.7280099e-25
6.0309952e-25
1.0816406e-24
2.0033395e-24
2.0827842e-24
1.4961624e-24
8.1135315e-25
3.7186275e-25
1.3010499e-25
3.0328936e-26
4.4404222e-27
4.2612783e-28
2.9708435e-29
1.2109716e-30
2.059703e-31
1.464616e-30
1.0984872e-28
8.1212441e-27
1.0205954e-26
3.8710738e-27
2.9102032e-28
3.4048825e-30
5.9198119e-34
4.0026619e-36
5.1388075e-36
1.2599272e-37
1.5217514e-39
2.1882397e-41
3.1380184e-43
4.2972603e-45
5.5570022e-47
6.7578212e-49
7.6837353e-51
8.1220334e-53
7.9342814e-55
1.1561919e-56
2.3644813e-57
3.5895106e-58
9.9553708e-59
3.4269955e-59
7.9374847e-60
1.6325244e-60
1.9002974e-61
9.0299622e-63
1.8007878e-64
1.909413e-66
1.2143582e-68
1.3143159e-70
1.3858762e-72
1.004966e-74
6.829082e-77
4.5050654e-79
2.491158e-81
2.6457244e-83
2.4979107e-81
1.9653402e-79
2.6038363e-77
2.7977529e-75
2.5523072e-73
2.131639e-71
1.6315714e-69
6.4598549e-68
1.1901568e-66
1.882523e-64
2.8407257e-62
1.1592478e-60
2.3273077e-59
3.6490494e-58
2.1221047e-57
5.826334e-57
1.368805e-55
1.6778941e-53
1.9066735e-51
1.9901086e-49
1.9205832e-47
1.7255306e-45
1.4521065e-43
1.1512349e-41
8.6484051e-40
6.1861599e-38
4.2495145e-36
2.8806368e-34
2.0238207e-32
1.554824e-30
1.507646e-28
1.0840025e-26
1.6881431e-25
5.1707121e-25
5.5648544e-25
2.3091672e-25
1.4481857e-28
2.6041677e-28
1.9134909e-28
4.0958644e-28
1.0563499e-27
3.5155226e-27
2.325932e-26
1.5550423e-25
8.4782285e-25
3.6079484e-24
1.1139398e-23
2.4650333e-23
4.2983271e-23
7.8932583e-23
8.2285085e-23
6.0406445e-23
3.3435413e-23
1.5343491e-23
5.3485375e-24
1.2618503e-24
1.932318e-25
2.0082921e-26
1.552452e-27
6.3564918e-29
2.1366982e-29
4.5502105e-28
3.7107969e-26
1.6972122e-24
2.2911148e-24
9.2453044e-25
8.0448309e-26
1.1416136e-27
3.1394614e-31
1.7166862e-33
1.8296227e-33
4.4993052e-35
5.4184044e-37
7.7622286e-39
1.1102697e-40
1.506823e-42
1.9202344e-44
2.2884289e-46
2.5334704e-48
2.5869619e-50
2.4170469e-52
2.8459323e-54
4.184573e-55
5.9837635e-56
1.9187782e-56
7.0247752e-57
1.6922258e-57
3.8036875e-58
4.5302716e-59
2.0710283e-60
4.1016196e-62
3.7336488e-64
3.0926845e-66
3.7477601e-68
2.7755635e-70
1.6350412e-72
1.0270227e-74
6.4058283e-77
3.4002165e-79
3.4108688e-81
2.9505729e-79
2.4106298e-77
3.263063e-75
3.6141658e-73
3.4428239e-71
2.9025004e-69
2.2474833e-67
1.3752528e-65
5.2506102e-64
2.2497916e-62
4.235654e-60
2.5649102e-58
6.1629561e-57
7.5341272e-56
3.588051e-55
1.0097107e-54
3.3424219e-53
4.3500881e-51
5.128713e-49
5.4860605e-47
5.3758973e-45
4.8665889e-43
4.09918e-41
3.2340391e-39
2.4047571e-37
1.6945206e-35
1.1411464e-33
7.5302044e-32
5.1386985e-30
3.961799e-28
3.9331802e-26
2.5806207e-24
3.5311962e-23
9.6442797e-23
9.4713257e-23
3.6921763e-23
6.8332842e-25
2.5169567e-26
2.400679e-26
4.4814395e-26
8.9023441e-26
1.8615774e-25
8.7686741e-25
5.5902691e-24
2.9570589e-23
1.2584729e-22
4.0703577e-22
9.8625131e-22
1.8959899e-21
3.3858925e-21
3.4685593e-21
2.6284703e-21
1.4296242e-21
6.0349181e-22
1.9440194e-22
4.458224e-23
7.0116409e-24
7.8136828e-25
6.6543321e-26
2.8086718e-27
1.4635248e-27
1.0369487e-25
1.0423634e-23
3.3088969e-22
4.6468282e-22
1.9463589e-22
1.9240463e-23
3.3173413e-25
2.2620166e-28
6.3979833e-31
5.8468795e-31
1.4235932e-32
1.7296721e-34
2.4696657e-36
3.5174353e-38
4.7246216e-40
5.9153291e-42
6.8716563e-44
7.3463761e-46
7.1563026e-48
6.2730267e-50
6.1508615e-52
6.5526404e-53
8.9448411e-54
3.3533756e-54
1.3105837e-54
3.2236646e-55
7.6806698e-56
9.302152e-57
4.1090831e-58
7.8602654e-60
7.1893104e-62
8.5573851e-64
7.3901981e-66
4.2419273e-68
2.2944723e-70
1.3514765e-72
8.0025694e-75
4.0965514e-77
3.911492e-79
3.1416327e-77
2.6481741e-75
3.648667e-73
4.135504e-71
4.0619417e-69
3.5444629e-67
2.9277945e-65
2.2485232e-63
1.0647776e-61
3.1397123e-60
6.4003021e-58
5.3001471e-56
1.2757579e-54
1.2609961e-53
5.3372506e-53
1.5149378e-52
6.6456912e-51
9.5060909e-49
1.1867975e-46
1.3169786e-44
1.3206143e-42
1.2108283e-40
1.0243167e-38
8.0604275e-37
5.9405155e-35
4.1258977e-33
2.7231082e-31
1.7475538e-29
1.1587903e-27
8.9772588e-26
8.8986587e-24
5.1796846e-22
6.3888933e-21
1.681464e-20
1.7755947e-20
1.1979542e-20
9.375583e-22
1.909847e-24
2.6954342e-24
4.2916556e-24
7.1508426e-24
1.0306296e-23
2.8560316e-23
1.6061778e-22
8.3880524e-22
3.648852e-21
1.2232172e-20
3.2830378e-20
8.0479962e-20
1.4582931e-19
1.4475539e-19
1.0524519e-19
5.4318733e-20
2.0967249e-20
6.205132e-21
1.3558788e-21
2.1097297e-22
2.4707172e-23
2.3159733e-24
1.2288536e-25
1.1543871e-25
2.0299593e-23
2.4673122e-21
6.9144485e-20
8.6302634e-20
3.6244321e-20
3.976499e-21
8.3250374e-23
1.2082849e-25
2.0597595e-28
1.5977943e-28
3.7471722e-30
4.7392717e-32
6.8258002e-34
9.6683697e-36
1.2827258e-37
1.5731743e-39
1.7708503e-41
1.808315e-43
1.6486239e-45
1.3086119e-47
1.0499397e-49
8.9141526e-51
1.2037011e-51
5.5825066e-52
2.4332568e-52
5.9392362e-53
1.3922354e-53
1.647185e-54
7.1231097e-56
1.2337441e-57
1.4806632e-59
1.6158082e-61
1.096999e-63
5.6311653e-66
2.8630536e-68
1.5836709e-70
8.9289602e-73
4.4137108e-75
4.0336754e-77
3.0419969e-75
2.6326245e-73
3.6830313e-71
4.254749e-69
4.2906639e-67
3.8702544e-65
3.2290086e-63
2.5665489e-61
1.808602e-59
9.9243771e-58
9.7487875e-56
1.0095661e-53
2.2402695e-52
1.8138712e-51
7.1018091e-51
1.7918251e-50
9.6451515e-49
1.667579e-46
2.2989789e-44
2.7054882e-42
2.8117113e-40
2.6322284e-38
2.2488508e-36
1.7717561e-34
1.2979679e-32
8.9041085e-31
5.7668859e-29
3.6019985e-27
2.3246215e-25
1.811143e-23
1.7468582e-21
8.7352145e-20
9.9193048e-19
2.8367269e-18
4.4065138e-18
4.1990496e-18
7.7058812e-19
2.3521516e-22
3.4792413e-22
3.530695e-22
5.2674947e-22
5.9865087e-22
9.3056098e-22
3.8077847e-21
1.8258958e-20
7.6556211e-20
2.4750463e-19
6.7230752e-19
1.9074703e-18
3.6875943e-18
3.6837462e-18
2.4499388e-18
1.2267534e-18
4.8037145e-19
1.4452042e-19
3.1466941e-20
4.9475022e-21
6.3629808e-22
6.8584389e-23
7.9090901e-24
2.0660787e-23
3.5644282e-21
6.2165923e-19
1.5414536e-17
1.4566294e-17
5.8594097e-18
7.0586674e-19
1.8280082e-20
6.6672611e-23
2.1975729e-25
4.0098281e-26
7.9128809e-28
1.1511535e-29
1.6833788e-31
2.3620279e-33
3.0763602e-35
3.6650099e-37
3.9449104e-39
3.7613227e-41
3.0764153e-43
2.0102693e-45
1.0711044e-47
1.022452e-48
1.4924482e-49
8.4186964e-50
3.9050062e-50
9.9326615e-51
2.2405543e-51
2.5711588e-52
1.11247e-53
1.9006834e-55
2.6485143e-57
2.3576554e-59
1.3751727e-61
6.6928557e-64
3.2177641e-66
1.6747411e-68
8.9997013e-71
4.2956872e-73
3.7766941e-75
2.6991417e-73
2.3881835e-71
3.3881316e-69
3.9788088e-67
4.099116e-65
3.7992238e-63
3.2631874e-61
2.6998651e-59
2.308054e-57
1.8697663e-55
1.8847644e-53
1.7191858e-51
3.3445464e-50
2.3379125e-49
8.1176656e-49
1.159701e-48
1.0228116e-46
2.0683546e-44
3.5216952e-42
4.5939655e-40
5.0616476e-38
4.9016992e-36
4.2657653e-34
3.3851801e-32
2.4768451e-30
1.6849394e-28
1.0743672e-26
6.5492578e-25
4.1134635e-23
3.1973324e-21
3.0728838e-19
1.4510532e-17
1.5027854e-16
3.2861399e-16
2.1988175e-16
9.1021447e-17
3.9165519e-17
4.8620817e-20
4.1652006e-20
2.735169e-20
3.7142353e-20
3.7075835e-20
3.80719e-20
8.7161069e-20
3.3017697e-19
1.2261824e-18
3.9289174e-18
1.0182047e-17
2.4187682e-17
4.654825e-17
5.1764773e-17
3.4680949e-17
1.7672418e-17
7.7063994e-18
2.5324066e-18
5.5747533e-19
9.2517851e-20
1.4191582e-20
2.0006399e-21
7.6003884e-22
4.7345188e-21
9.1513588e-19
7.9827878e-17
8.1779502e-16
1.5840757e-15
7.9257015e-16
1.1557192e-16
3.6408822e-18
2.5570755e-20
2.1251818e-22
9.1842187e-24
1.6586784e-25
2.5518701e-27
3.7520162e-29
5.1795445e-31
6.5522438e-33
7.4613618e-35
7.4839557e-37
6.3537955e-39
4.1561731e-41
1.7320536e-43
1.7829188e-46
8.7303464e-47
1.7292885e-47
1.0905879e-47
5.147714e-48
1.3400876e-48
3.015303e-49
3.5781053e-50
1.5874475e-51
3.1119414e-53
3.7083839e-55
2.7939013e-57
1.5433918e-59
7.2176514e-62
3.290899e-64
1.6158048e-66
8.2585934e-69
3.8190962e-71
3.2370718e-73
2.2076387e-71
1.9912433e-69
2.8614346e-67
3.4111415e-65
3.5795656e-63
3.3981058e-61
3.0071272e-59
2.5447323e-57
2.3192227e-55
3.0156775e-53
4.4222315e-51
2.56301e-49
4.0704936e-48
2.4593975e-47
8.3225809e-47
1.5722847e-46
1.7720021e-44
2.0789027e-42
3.7828417e-40
6.1576352e-38
7.5114953e-36
7.6884311e-34
6.8987656e-32
5.5571634e-30
4.0817304e-28
2.7631066e-26
1.7382543e-24
1.0337455e-22
6.3004225e-21
4.9669988e-19
4.7211274e-17
1.8464299e-15
1.4709476e-14
2.1100771e-14
2.1612702e-15
1.6411211e-16
1.8313749e-16
2.1225697e-18
1.9760151e-18
2.2144368e-18
3.1553163e-18
3.0944835e-18
2.6772935e-18
2.8928584e-18
7.9326861e-18
2.5242201e-17
9.2071823e-17
2.23091e-16
2.6438275e-16
4.4581976e-16
6.469982e-16
5.7840647e-16
2.9815543e-16
1.5811637e-16
5.6897667e-17
1.1356669e-17
1.8070504e-18
3.1511011e-19
7.3016386e-20
3.5331801e-20
8.3098876e-19
6.9685058e-17
1.0877984e-14
2.166841e-14
8.8333683e-14
6.1127003e-14
1.3618958e-14
6.2054392e-16
6.7836117e-18
7.5679302e-20
1.7877248e-21
3.1540885e-23
5.0132404e-25
7.3877329e-27
9.9857894e-29
1.2139096e-30
1.294016e-32
1.1577456e-34
7.7916665e-37
2.8449431e-39
3.3387233e-42
1.9860757e-44
2.3578339e-45
1.667865e-45
1.2415301e-45
5.7809721e-46
1.4958268e-46
3.4005666e-47
4.4206933e-48
2.0671216e-49
4.0327791e-51
4.213717e-53
2.9474746e-55
1.5754964e-57
7.1165881e-60
3.088543e-62
1.4299101e-64
6.9731464e-67
3.1287455e-69
2.55794e-71
1.6733897e-69
1.5358008e-67
2.2293573e-65
2.6969697e-63
2.8774577e-61
2.7906684e-59
2.542873e-57
2.2359423e-55
2.1465568e-53
3.5507948e-51
6.8415588e-49
3.4109025e-47
4.2958686e-46
2.2972308e-45
7.3438759e-45
2.7051311e-44
3.0732879e-42
3.1133832e-40
3.3920918e-38
5.5876917e-36
8.3970927e-34
9.4490946e-32
8.913556e-30
7.3717333e-28
5.4758023e-26
3.7071541e-24
2.3058689e-22
1.3348136e-20
7.8949057e-19
6.933481e-17
7.7793446e-15
1.42611e-13
1.3326687e-12
2.1937557e-12
3.7181732e-13
4.1336104e-14
3.8823168e-16
1.3701024e-17
4.429138e-17
1.5022352e-16
2.5889001e-16
2.688976e-16
2.2266328e-16
1.8171465e-16
3.6774607e-16
8.3499982e-16
2.5378845e-15
4.9405948e-15
3.6869336e-15
5.8337424e-15
9.6866719e-15
1.1966048e-14
6.6827449e-15
3.8653441e-15
2.0288967e-15
4.2598907e-16
5.2861849e-17
8.7824652e-18
2.7196098e-18
9.7753527e-19
2.8644622e-17
8.0575912e-15
1.1957551e-12
2.3412753e-12
8.4377004e-12
6.0400398e-12
1.3722954e-12
8.6952358e-14
1.1900438e-15
1.4884572e-17
2.8248205e-19
5.0749919e-21
8.2577694e-23
1.2172057e-24
1.6081812e-26
1.8593832e-28
1.799353e-30
1.3043795e-32
4.7175072e-35
9.7634733e-38
6.6474642e-40
3.6145311e-42
2.2710347e-44
1.4477483e-43
1.2536637e-43
5.6485399e-44
1.4384659e-44
3.3168997e-45
4.6600514e-46
2.3375924e-47
4.2903877e-49
4.166234e-51
2.8248567e-53
1.4728423e-55
6.4363872e-58
2.6694988e-60
1.1733133e-62
5.4685276e-65
2.3781832e-67
1.8751392e-69
1.1822535e-67
1.1013517e-65
1.6129421e-63
1.9757671e-61
2.1408125e-59
2.1174271e-57
1.9854896e-55
1.8256297e-53
1.8537916e-51
3.3601803e-49
7.4970999e-47
3.5960714e-45
3.9997953e-44
1.9862059e-43
5.7227721e-43
3.5131314e-42
4.1581694e-40
4.3972942e-38
4.0887427e-36
4.1937741e-34
6.2453073e-32
8.4152242e-30
8.6159321e-28
7.4278131e-26
5.6228645e-24
3.8203185e-22
2.3538655e-20
1.3246753e-18
7.1843282e-17
4.3597489e-15
3.0298936e-13
1.2613533e-11
1.4018499e-10
2.3473665e-10
5.53272e-11
1.5960174e-11
4.8250642e-14
1.7949808e-16
8.7817602e-16
4.8463498e-15
7.8209746e-15
7.6880455e-15
5.8469394e-15
6.2302387e-15
9.1501168e-15
1.5051268e-14
3.7997114e-14
4.614855e-14
3.5676194e-14
5.1959296e-14
1.5743253e-13
1.185423e-13
9.5515452e-14
4.9355256e-14
5.8782153e-14
1.7924917e-14
1.5845708e-15
3.9049894e-16
6.8980031e-17
4.850848e-17
3.6263909e-15
8.6421262e-13
1.078695e-10
2.0988099e-10
6.8177972e-10
5.3190128e-10
1.4299278e-10
6.1871329e-12
8.2160692e-14
1.6214809e-15
3.3436264e-17
6.1910242e-19
1.0223517e-20
1.5025227e-22
1.9293101e-24
2.0806606e-26
1.7109603e-28
7.6036421e-31
2.3003949e-33
1.7228794e-35
9.9018436e-38
4.6236262e-40
3.5745808e-42
1.2195629e-41
1.1135425e-41
4.8193146e-42
1.2195241e-42
2.8578087e-43
4.232624e-44
2.1969728e-45
3.9336193e-47
3.7224513e-49
2.4745447e-51
1.2611766e-53
5.3745493e-56
2.1534315e-58
9.0184055e-61
4.0131851e-63
1.6884337e-65
1.2826762e-67
7.8262428e-66
7.3915891e-64
1.0882884e-61
1.3470623e-59
1.4788893e-57
1.4897966e-55
1.435924e-53
1.3836187e-51
1.4996296e-49
2.7315109e-47
6.5912796e-45
3.2210776e-43
3.3118168e-42
1.5792268e-41
4.3285074e-41
2.1177984e-40
2.5248139e-38
3.2697287e-36
3.7584399e-34
3.8024045e-32
3.7365342e-30
4.5547245e-28
5.2496742e-26
4.7882485e-24
3.6756856e-22
2.4810568e-20
1.6776665e-18
1.2451494e-16
4.9978554e-15
5.1946135e-14
4.1390441e-13
7.2286129e-10
1.1951576e-08
1.7141559e-08
6.1314121e-09
3.7933647e-09
2.600758e-11
2.2227304e-14
1.6612761e-14
6.8885521e-14
7.1518279e-14
5.2988709e-14
3.5597826e-14
6.0231996e-14
7.3562282e-14
1.3047912e-13
5.9083795e-13
7.5126624e-13
9.5272255e-13
2.4613948e-12
8.4132585e-12
4.5611319e-12
2.8370775e-12
1.0726829e-12
1.4750763e-12
4.518531e-13
3.9228985e-14
2.0893071e-14
1.5773895e-15
1.5113988e-14
4.906568e-13
1.6773114e-10
1.5083908e-07
6.3782496e-07
3.3442572e-07
4.3884821e-08
9.5754372e-09
4.790295e-11
3.3410387e-13
3.42577e-14
2.4510169e-15
5.0069046e-17
6.5667228e-19
9.2356114e-21
1.178245e-22
1.1818225e-24
7.7689784e-27
2.2937047e-29
1.7936457e-31
1.2106763e-33
6.6341567e-36
2.9056006e-38
4.5678455e-40
1.0873318e-39
8.8672382e-40
3.6016171e-40
9.2474865e-41
2.2021955e-41
3.4070655e-42
1.8097198e-43
3.2436305e-45
3.0416516e-47
1.9891752e-49
1.0019511e-51
4.2009298e-54
1.6342075e-56
6.538e-59
2.774917e-61
1.1273181e-63
8.2317388e-66
4.8772118e-64
4.6695252e-62
6.8977194e-60
8.584403e-58
9.5170059e-56
9.7308755e-54
9.6097453e-52
9.6962093e-50
1.1302408e-47
2.0065784e-45
4.9022957e-43
2.5318544e-41
2.4625327e-40
1.1531659e-39
3.3052578e-39
9.0426604e-39
9.299035e-37
1.2556684e-34
1.4835656e-32
1.5635104e-30
1.5418488e-28
1.6579361e-26
1.9469896e-24
1.8545668e-22
1.4668325e-20
1.1365936e-18
1.0058757e-16
4.8333887e-15
5.1983798e-14
1.512412e-13
3.0618746e-11
8.0767717e-09
7.3525952e-07
1.2328891e-05
2.7572844e-05
2.6851133e-06
1.0446842e-10
9.1204687e-13
2.1071215e-13
7.3304855e-13
3.2050981e-13
1.0955026e-13
9.0037027e-14
2.5185101e-13
4.0890696e-13
2.7960821e-12
3.8172735e-11
4.4762498e-11
6.6679808e-11
2.0845062e-10
4.2387764e-10
1.9514748e-10
1.2123863e-10
4.319095e-11
7.3273072e-11
2.0304765e-11
2.4617605e-12
1.7140963e-12
5.5228375e-14
4.167498e-12
5.3327069e-10
4.9624019e-07
1.3187828e-05
1.7364067e-05
1.5105822e-05
7.5571976e-06
2.6189219e-07
4.9161655e-10
1.2779595e-11
3.3161459e-13
2.2549487e-14
1.5192565e-15
2.9638076e-17
3.5515883e-19
4.0998114e-21
3.7788293e-23
1.9529361e-25
1.0357238e-27
8.1908701e-30
5.3666194e-32
2.7804514e-34
1.1127697e-36
2.8707177e-38
1.0319765e-37
6.3926454e-38
2.4141904e-38
6.3523051e-39
1.5327051e-39
2.4681086e-40
1.3588692e-41
2.4691704e-43
2.2920157e-45
1.4879958e-47
7.4511791e-50
3.0917716e-52
1.1740237e-54
4.5022682e-57
1.8203564e-59
7.1211153e-62
4.9830251e-64
2.872978e-62
2.7865622e-60
4.1241555e-58
5.1503399e-56
5.7422935e-54
5.9245546e-52
5.9637411e-50
6.2601936e-48
7.8188161e-46
1.3779295e-43
3.1959708e-41
1.7817232e-39
1.662438e-38
7.7502303e-38
2.3394358e-37
3.3379889e-37
1.8255828e-35
2.5877419e-33
3.1758481e-31
3.4421236e-29
3.4113848e-27
3.48518e-25
4.0169608e-23
4.181138e-21
3.9179712e-19
4.3929579e-17
2.9790157e-15
3.262896e-14
4.5398738e-14
1.587092e-12
2.683482e-10
8.905801e-08
1.8173305e-05
7.3417564e-05
7.5741441e-05
5.1138995e-05
8.6665617e-07
1.6693281e-12
3.9295478e-12
1.547845e-11
1.1884579e-11
3.5658759e-12
3.0368845e-12
4.5941236e-12
2.45092e-11
1.8833224e-10
2.5103407e-09
2.3105897e-09
5.3462811e-09
1.4422529e-08
1.7002557e-08
7.2607064e-09
3.6072732e-09
1.7061134e-09
3.2464364e-09
9.6749429e-10
2.1017562e-10
1.8610996e-10
4.2116707e-12
1.4289208e-11
2.150613e-07
1.4708137e-05
2.1482657e-05
2.1499661e-05
2.142271e-05
2.1338032e-05
1.1235837e-05
1.0957687e-07
4.3884286e-10
1.1158502e-11
2.630308e-13
1.0382406e-14
6.8405474e-16
1.1949622e-17
1.1291041e-19
8.2110448e-22
3.9705978e-24
3.6963731e-26
2.9136603e-28
1.8273448e-30
8.7646089e-33
3.1567569e-35
1.3921058e-36
8.1892942e-36
4.151664e-36
1.4962556e-36
3.9768775e-37
9.7047859e-38
1.6289902e-38
9.3698887e-40
1.7326225e-41
1.6055587e-43
1.0422047e-45
5.2210194e-48
2.1560477e-50
8.0328022e-53
2.9641933e-55
1.1407794e-57
4.286e-60
2.8602559e-62
1.606936e-60
1.5772304e-58
2.3352941e-56
2.9212736e-54
3.2679774e-52
3.3922077e-50
3.4540728e-48
3.7342968e-46
4.9568988e-44
8.9529806e-42
1.9350721e-39
1.1387637e-37
1.0249638e-36
4.6858497e-36
1.4169556e-35
1.5548106e-35
2.7695689e-34
4.1653643e-32
5.3164624e-30
5.7973288e-28
5.9016041e-26
6.8867299e-24
8.5546396e-22
1.0378223e-19
1.6875799e-17
1.0216746e-15
1.1089272e-14
3.3950726e-14
1.1629536e-13
1.0459495e-11
1.2335763e-09
1.9006962e-07
4.0764276e-05
7.5741441e-05
7.5745012e-05
7.5747094e-05
1.8500625e-05
1.7530512e-12
1.9731326e-10
4.9897923e-10
4.0101543e-10
2.1783088e-10
2.7680605e-10
2.846454e-10
1.1508654e-09
8.4685347e-09
1.507067e-07
6.0335005e-08
3.4136569e-07
3.6063687e-07
6.2188094e-07
6.8846103e-07
1.4002079e-07
7.0172525e-08
1.0727757e-07
2.9499801e-08
1.7606817e-08
1.6710438e-08
4.5395806e-10
5.6248621e-10
1.6889619e-06
2.1486253e-05
2.1499661e-05
1.690755e-05
1.6462566e-05
2.1342325e-05
2.1134022e-05
6.3816253e-06
6.4958005e-09
1.7066342e-10
3.888064e-12
8.6951544e-14
7.3665451e-15
2.3523064e-16
2.6227322e-18
1.7032883e-20
7.0206113e-23
6.5298939e-25
5.0526844e-27
3.003097e-29
1.3110369e-31
1.9612083e-33
1.5741103e-33
5.7945414e-34
2.3556238e-34
8.4889714e-35
2.276757e-35
5.6283434e-36
9.8530198e-37
5.9320232e-38
1.1288801e-39
1.0534804e-41
6.8832505e-44
3.4675707e-46
1.431813e-48
5.2662591e-51
1.8779361e-53
6.8814227e-56
2.474101e-58
1.5653056e-60
8.6217941e-59
8.5074439e-57
1.2573376e-54
1.5725974e-52
1.7612449e-50
1.8354978e-48
1.8867754e-46
2.0910294e-44
2.9026038e-42
5.4590534e-40
1.1256431e-37
6.6896155e-36
5.7843118e-35
2.5207602e-34
7.9537351e-34
1.7291129e-33
2.0461093e-33
2.2774323e-31
4.2808959e-29
7.2218568e-27
1.028056e-24
1.1602628e-22
1.1192658e-20
1.2482125e-18
1.4382079e-16
5.2712103e-15
4.9569248e-14
2.1386773e-13
2.0299634e-12
2.7178028e-10
3.4127447e-09
4.561458e-09
1.2618547e-05
7.5729555e-05
7.5741441e-05
7.5745012e-05
2.269021e-05
1.7530512e-12
1.1586096e-08
1.3744019e-08
7.7558839e-09
2.2007062e-10
2.5372702e-10
5.4889063e-08
2.805526e-08
2.222571e-07
1.0863154e-05
4.6117765e-06
1.3335587e-05
8.4066742e-06
1.8730731e-05
3.8620934e-05
7.2117624e-06
1.9251787e-06
2.1218816e-06
7.4320317e-07
1.0844632e-06
9.9028151e-07
3.2592081e-08
1.4214525e-09
1.1569629e-06
2.1496188e-05
2.1138742e-05
1.793251e-08
1.7949316e-08
6.7474905e-06
2.1062732e-05
9.698063e-06
7.3196653e-09
1.9871369e-10
4.5074884e-12
1.3164943e-13
4.1365689e-14
3.2782193e-15
5.5435682e-17
4.5437451e-19
3.3046388e-21
1.101348e-23
2.9457067e-26
1.6202634e-28
7.054252e-31
1.1650715e-31
1.2371952e-31
3.4054913e-32
1.229955e-32
4.3992531e-33
1.1960863e-33
3.0114687e-34
5.4949065e-35
3.4775399e-36
6.8876145e-38
6.5200536e-40
4.3104829e-42
2.1951633e-44
9.1083097e-47
3.3260144e-49
1.1516312e-51
4.0208571e-54
1.3787739e-56
8.2160404e-59
4.7818856e-57
4.4054512e-55
6.4501003e-53
8.0598303e-51
9.0196902e-49
9.418466e-47
9.7646761e-45
1.1085734e-42
1.6052629e-40
3.1173001e-38
6.3814665e-36
3.6358166e-34