/*--------------------------------*- C++ -*----------------------------------*\
  =========                 |
  \\      /  F ield         | OpenFOAM: The Open Source CFD Toolbox
   \\    /   O peration     | Website:  https://openfoam.org
    \\  /    A nd           | Version:  9
     \\/     M anipulation  |
\*---------------------------------------------------------------------------*/
FoamFile
{
    format      ascii;
    class       volScalarField;
    location    "0.45";
    object      p;
}
// * * * * * * * * * * * * * * * * * * * * * * * * * * * * * * * * * * * * * //

dimensions      [1 -1 -2 0 0 0 0];

internalField   nonuniform List<scalar> 
10000
(
0
-0.017232176
-0.043554514
-0.072019964
-0.11148697
-0.15962998
-0.21661465
-0.28252453
-0.35756584
-0.44194763
-0.53591507
-0.63974414
-0.75364418
-0.87788019
-1.0127316
-1.1584343
-1.3152426
-1.4833602
-1.6629034
-1.8539742
-2.0566342
-2.270822
-2.4963612
-2.7329484
-2.9800866
-3.2370941
-3.5031097
-3.7768683
-4.0544537
-4.3384819
-4.6267049
-4.9168414
-5.2071293
-5.4954799
-5.7793733
-6.0556436
-6.3207971
-6.5716414
-6.8052121
-7.018815
-7.2100658
-7.3769616
-7.5181421
-7.6340814
-7.7313458
-7.7995556
-7.8333928
-7.8353366
-7.8045621
-7.7414351
-7.6463562
-7.5197587
-7.3620832
-7.1749311
-6.9551202
-6.7096891
-6.4489692
-6.1692926
-5.871308
-5.5569041
-5.2285205
-4.8891319
-4.5422912
-4.1916228
-3.8400568
-3.4901661
-3.1442306
-2.8045087
-2.4717795
-2.14591
-1.8300849
-1.5255242
-1.2327543
-0.95242
-0.68497753
-0.43059188
-0.18925057
0.039179884
0.2548899
0.45814075
0.64924726
0.82849422
0.99623974
1.1527777
1.2984415
1.4335287
1.5583406
1.6731599
1.7782484
1.8738353
1.9601588
2.0373746
2.1056701
2.1652356
2.2162032
2.2586723
2.2927673
2.3182366
2.3372865
2.3462496
0.013785208
-0.0015167521
-0.028772945
-0.05620258
-0.095532879
-0.14359917
-0.20043611
-0.26619634
-0.34105006
-0.42521116
-0.51896799
-0.62252202
-0.73612689
-0.86007436
-0.99460326
-1.1399922
-1.2965068
-1.4643166
-1.643582
-1.8344559
-2.0369939
-2.2511581
-2.4768159
-2.7136691
-2.9612396
-3.218885
-3.4856943
-3.7602401
-4.0419673
-4.3295495
-4.6213337
-4.9154727
-5.209977
-5.5025644
-5.7906012
-6.0710676
-6.3407229
-6.5963984
-6.8351147
-7.0541474
-7.2510806
-7.4239687
-7.5711495
-7.6927289
-7.7887141
-7.8550772
-7.8890499
-7.8903832
-7.8587636
-7.7943701
-7.6975762
-7.5688799
-7.4089977
-7.2189969
-6.9995836
-6.7545658
-6.4885581
-6.2026407
-5.8983938
-5.5780322
-5.2442086
-4.8999798
-4.5486794
-4.1936219
-3.8378288
-3.483996
-3.1344509
-2.7911388
-2.4551627
-2.1286456
-1.8127419
-1.5081621
-1.215738
-0.93596637
-0.66918356
-0.41552099
-0.17491347
0.052782408
0.2677575
0.47031198
0.66076834
0.83943465
1.0066429
1.1627012
1.3079497
1.4426784
1.567199
1.6817672
1.7866567
1.8820845
1.9682681
2.0453999
2.1136395
2.1731539
2.224105
2.266556
2.3006416
2.3260976
2.3452018
2.3541724
0.038145758
0.02411053
-0.0038307564
-0.029435452
-0.068720134
-0.11660976
-0.17318141
-0.2385956
-0.31302856
-0.3967571
-0.49001716
-0.59304647
-0.70614084
-0.82954366
-0.96353797
-1.1084365
-1.2644854
-1.4318973
-1.6108993
-1.801642
-2.004223
-2.2186555
-2.4448475
-2.6825411
-2.9313423
-3.1906663
-3.4596788
-3.738178
-4.0242552
-4.3166257
-4.6138492
-4.9140825
-5.2152213
-5.5148448
-5.8101916
-6.0982252
-6.3757396
-6.6394911
-6.8863699
-7.1134981
-7.318309
-7.4987403
-7.6528035
-7.7793032
-7.8771493
-7.9442839
-7.9788962
-7.9802574
-7.9480378
-7.8823363
-7.7835266
-7.652177
-7.4890961
-7.2953991
-7.072635
-6.8234561
-6.5508262
-6.2569361
-5.9440601
-5.614874
-5.2723521
-4.9197431
-4.5604184
-4.1977598
-3.8348651
-3.474586
-3.1193064
-2.7710617
-2.4314967
-2.1016811
-1.7840515
-1.4782865
-1.1852393
-0.90533555
-0.63873923
-0.38551664
-0.14555851
0.081377893
0.29553551
0.49725064
0.68685493
0.86468547
1.0311015
1.1864225
1.3310037
1.465118
1.5890662
1.7031176
1.807545
1.902571
1.9883899
2.0652123
2.1331984
2.1924715
2.2432056
2.2855067
2.3194425
2.344782
2.363883
2.3728137
0.068167013
0.053868772
0.028460128
0.0041280946
-0.035570277
-0.083213597
-0.13930654
-0.20409583
-0.27786874
-0.36087618
-0.45334346
-0.55556887
-0.66780044
-0.79033729
-0.92350915
-1.0676033
-1.2228901
-1.3896721
-1.5682052
-1.758682
-1.9612524
-2.1760203
-2.402951
-2.6418908
-2.8925751
-3.1545708
-3.4272691
-3.7093607
-4.0003304
-4.2988322
-4.6032009
-4.9115152
-5.2215551
-5.5307548
-5.8362096
-6.1347461
-6.4230107
-6.6975847
-6.9551156
-7.1924468
-7.4067301
-7.595608
-7.7568166
-7.8886001
-7.989657
-8.0585223
-8.0940545
-8.0955295
-8.0626837
-7.9955978
-7.8946175
-7.760292
-7.5934519
-7.3952488
-7.1672168
-6.9114836
-6.6305515
-6.326897
-6.0032744
-5.6627314
-5.3086379
-4.9445845
-4.5741764
-4.2010122
-3.8284493
-3.459492
-3.0967032
-2.7422294
-2.3978827
-2.0653321
-1.7442891
-1.4366482
-1.1426557
-0.86250683
-0.59621165
-0.34365783
-0.1046061
0.12123079
0.33419821
0.53466802
0.72304604
0.899678
1.0649417
1.2192132
1.362788
1.4959708
1.6190845
1.732371
1.8361181
1.9305457
2.0158202
2.092166
2.1597426
2.2186566
2.269068
2.3111093
2.344845
2.3700184
2.3891206
2.397985
0.10747482
0.093427071
0.069515284
0.045362253
0.0057367805
-0.041217774
-0.096513716
-0.16048013
-0.23335442
-0.31536198
-0.40679772
-0.50792529
-0.61902063
-0.74041402
-0.87242881
-1.0153905
-1.1696581
-1.3355687
-1.5133982
-1.7034177
-1.9058736
-2.1209306
-2.3486591
-2.5890419
-2.8419131
-3.1069392
-3.3836074
-3.671219
-3.9688342
-4.2751708
-4.5886369
-4.9073012
-5.2288448
-5.5505455
-5.8693295
-6.1818042
-6.4843429
-6.7732148
-7.044714
-7.2953392
-7.5218979
-7.7216839
-7.8919115
-8.0308038
-8.1369328
-8.2090828
-8.2463825
-8.2483182
-8.2147718
-8.1458812
-8.0420153
-7.9037114
-7.7317436
-7.5271934
-7.2914784
-7.0264568
-6.7344281
-6.4180421
-6.0804177
-5.7250397
-5.3556747
-4.9763711
-4.5912229
-4.2041394
-3.8188139
-3.4384963
-3.0659332
-2.7033885
-2.3526124
-2.0148485
-1.6907452
-1.3810429
-1.0860036
-0.80565895
-0.53982586
-0.28822288
-0.050453979
0.17388679
0.38525354
0.58406861
0.77079685
0.94583403
1.1095946
1.262434
1.4046813
1.5366592
1.6586709
1.770968
1.8738118
1.9674433
2.0520289
2.1277414
2.194754
2.2531914
2.3032005
2.3448843
2.3783488
2.4032637
2.4223448
2.4310728
0.15589163
0.14242912
0.12052092
0.093674168
0.05480778
0.0093629391
-0.044866626
-0.10776989
-0.17948695
-0.26027988
-0.35040846
-0.45014055
-0.55980317
-0.67972387
-0.81024743
-0.95177833
-1.1047251
-1.2694476
-1.4462979
-1.6356428
-1.8378106
-2.0530749
-2.2816476
-2.5236404
-2.7790181
-3.0475692
-3.328782
-3.6231119
-3.9286558
-4.2444309
-4.5689564
-4.9003093
-5.2360599
-5.5733248
-5.9088216
-6.2388584
-6.5593827
-6.8662273
-7.1552032
-7.4223166
-7.6639172
-7.8771326
-8.0582039
-8.2056852
-8.3181163
-8.3944324
-8.4339834
-8.4365171
-8.4021016
-8.3310281
-8.223717
-8.0806987
-7.9026226
-7.6903603
-7.4450869
-7.1684533
-6.8626737
-6.5305379
-6.1754656
-5.8014499
-5.4128482
-5.0142659
-4.6104049
-4.2057343
-3.804391
-3.4099629
-3.0253932
-2.6529889
-2.29446
-1.9508808
-1.6229123
-1.3108835
-1.0147954
-0.73439265
-0.4692997
-0.21899666
0.017066487
0.23946707
0.44877355
0.64549745
0.83015955
1.0032092
1.1650911
1.3161717
1.4567925
1.5872865
1.7079423
1.8190085
1.9207443
2.0133926
2.0970976
2.1719997
2.2383224
2.2961646
2.3456608
2.3869389
2.4200315
2.4445575
2.4635922
2.4721627
0.21248739
0.19933755
0.17805151
0.15045188
0.11341372
0.068641987
0.015458335
-0.046203175
-0.11656748
-0.19587729
-0.28439481
-0.38243627
-0.49032771
-0.60840956
-0.73709743
-0.87684582
-1.028082
-1.1912329
-1.3667517
-1.5550933
-1.756693
-1.971967
-2.2012774
-2.4448935
-2.7029893
-2.9756517
-3.2628948
-3.5638475
-3.8782866
-4.2050183
-4.5425816
-4.8890261
-5.2418413
-5.5979884
-5.9539026
-6.30547
-6.64815
-6.9771451
-7.2876042
-7.574888
-7.8347585
-8.0642264
-8.2580855
-8.415683
-8.535488
-8.6165952
-8.6586476
-8.6617075
-8.6261519
-8.5524846
-8.4412276
-8.2928603
-8.1078392
-7.886698
-7.630216
-7.3397501
-7.0174221
-6.6661717
-6.2897498
-5.8927041
-5.4801947
-5.0576954
-4.6306851
-4.204355
-3.7834249
-3.3718949
-2.9729594
-2.5889805
-2.2215431
-1.871557
-1.5394155
-1.225048
-0.92813757
-0.64811007
-0.38426355
-0.13581634
0.098003873
0.3179154
0.5246234
0.71875478
0.90086921
1.0715206
1.2311502
1.3801318
1.5188367
1.6475622
1.7666083
1.8762349
1.976655
2.0681115
2.1507611
2.2247145
2.2902155
2.347368
2.3962357
2.4370042
2.4696873
2.4936782
2.512421
2.5211472
0.2770426
0.26398897
0.24329219
0.21595128
0.1799935
0.13620523
0.084292392
0.024046805
-0.044720428
-0.12225479
-0.20887573
-0.30489667
-0.41064329
-0.52651718
-0.65298312
-0.7905097
-0.939578
-1.1007086
-1.274444
-1.4613381
-1.661967
-1.8769005
-2.1066594
-2.3517119
-2.6124749
-2.8892456
-3.1821203
-3.4911436
-3.815674
-4.1548879
-4.5074661
-4.8714909
-5.2444164
-5.6230428
-6.0034697
-6.3810736
-6.750679
-7.1066675
-7.4432592
-7.755012
-8.0375951
-8.285024
-8.4941703
-8.6634535
-8.7915424
-8.8778206
-8.9223264
-8.9255775
-8.8883814
-8.8116057
-8.6959418
-8.5418139
-8.3493269
-8.1184635
-7.8494292
-7.5430821
-7.2013008
-6.8271476
-6.4248661
-5.9997653
-5.5579382
-5.1060327
-4.6506547
-4.1979911
-3.7535244
-3.3217133
-2.9059996
-2.508786
-2.1314942
-1.7747216
-1.4384177
-1.1221074
-0.82495069
-0.54597495
-0.28411329
-0.038297953
0.19252015
0.40925501
0.61273262
0.80369317
0.98278032
1.1505813
1.3075562
1.454098
1.5905687
1.71726
1.8344645
1.9424302
2.0413596
2.1314525
2.2128763
2.2857719
2.3503233
2.406621
2.4548181
2.4950113
2.5272567
2.5507202
2.5689571
2.577477
0.34925505
0.33635055
0.31628386
0.28938589
0.25450407
0.21191856
0.1614184
0.10282359
0.035912351
-0.039578644
-0.12398306
-0.21761103
-0.32083339
-0.43409587
-0.55787307
-0.69267414
-0.83906271
-0.99763791
-1.1690303
-1.353921
-1.553033
-1.7670921
-1.9968138
-2.2429159
-2.5060815
-2.7868524
-3.0854258
-3.4030325
-3.7385207
-4.0915676
-4.4610791
-4.8452462
-5.2415193
-5.6465337
-6.0560248
-6.4648406
-6.8669724
-7.2557339
-7.6240427
-7.9655792
-8.2744796
-8.5433024
-8.769985
-8.952372
-9.0893742
-9.1808204
-9.2273041
-9.2299651
-9.1902668
-9.1096657
-8.989205
-8.8292419
-8.6293239
-8.3885208
-8.1060721
-7.7820084
-7.4177709
-7.0165162
-6.5830692
-6.1238093
-5.6461846
-5.1583519
-4.668482
-4.1840652
-3.7115505
-3.2559902
-2.821087
-2.4092058
-2.0214198
-1.6578545
-1.3178613
-1.0003622
-0.70395011
-0.42710195
-0.16829554
0.073883316
0.30074779
0.51344674
0.71297445
0.90014442
1.0756686
1.2401531
1.3940773
1.5378474
1.6717956
1.7961947
1.9113347
2.0174406
2.1146815
2.2032548
2.2833102
2.3549949
2.4184988
2.473865
2.5212743
2.5608297
2.5925917
2.6157501
2.6329328
2.6411899
0.42892464
0.41616058
0.39668824
0.37051907
0.33675483
0.29550503
0.24661483
0.18990385
0.12510825
0.051953124
-0.029875632
-0.1207369
-0.22103013
-0.33120591
-0.45176967
-0.58330026
-0.72642637
-0.8818133
-1.0501976
-1.232396
-1.4292702
-1.6417182
-1.8706939
-2.1171974
-2.3822327
-2.6667757
-2.9718051
-3.2972043
-3.6440355
-4.0120064
-4.4002579
-4.8071652
-5.2302006
-5.6658492
-6.1095574
-6.5556207
-6.997066
-7.425787
-7.8331188
-8.2098638
-8.5483773
-8.8430553
-9.0898698
-9.286601
-9.4327394
-9.5288189
-9.5761647
-9.5767712
-9.5331066
-9.4476379
-9.3220685
-9.1567236
-8.9503165
-8.7003903
-8.4044801
-8.0612677
-7.6714829
-7.2383238
-6.7674252
-6.2665577
-5.7451093
-5.2133534
-4.6815868
-4.1590816
-3.6534523
-3.1704634
-2.713998
-2.2862565
-1.8878341
-1.5180506
-1.1754607
-0.85813875
-0.56394508
-0.29072008
-0.036386648
0.20088206
0.42266728
0.63037246
0.82510828
1.0077964
1.1791858
1.3398808
1.490377
1.6310526
1.7622142
1.8841167
1.9969831
2.1010484
2.196456
2.2833652
2.3619269
2.4323038
2.4946118
2.5489914
2.5955066
2.6342869
2.6652425
2.6883946
2.704763
2.7125531
0.51570907
0.50308806
0.48430825
0.45902234
0.42644654
0.38669988
0.33963486
0.28502584
0.22261248
0.15211926
0.073215052
-0.014482855
-0.11138045
-0.21794758
-0.33474671
-0.46240786
-0.60160296
-0.75307812
-0.91768037
-1.0963415
-1.2900653
-1.499949
-1.7271987
-1.9731056
-2.2390296
-2.5263963
-2.8366677
-3.1701905
-3.5287045
-3.9124703
-4.3211309
-4.7533629
-5.2067052
-5.6775743
-6.1612913
-6.6516653
-7.1405443
-7.6193252
-8.0719957
-8.4904984
-8.8658064
-9.1904213
-9.459586
-9.6713702
-9.8261826
-9.9255877
-9.9718076
-9.9679122
-9.9178473
-9.8257968
-9.6948304
-9.5254326
-9.3149567
-9.0583771
-8.7503256
-8.3872309
-7.9687366
-7.4981223
-6.9821096
-6.430413
-5.8550464
-5.269299
-4.6864886
-4.1183866
-3.5739828
-3.0596242
-2.5793864
-2.1351171
-1.7265875
-1.3519767
-1.0086652
-0.69363167
-0.4037588
-0.13613006
0.11191181
0.34269879
0.5581005
0.75970587
0.94874266
1.1262253
1.2929056
1.4493717
1.5960786
1.7333744
1.8615042
1.980711
2.0911603
2.1930208
2.2864576
2.3716098
2.4485396
2.517493
2.578528
2.6317999
2.67734
2.7153452
2.745634
2.7683966
2.7841776
2.7915268
0.60913496
0.59693447
0.57889704
0.55449184
0.52326986
0.48521642
0.44015944
0.38788446
0.3281465
0.26064276
0.1850243
0.10092331
0.0079212331
-0.094503887
-0.20695072
-0.33007372
-0.4645971
-0.61135143
-0.7712699
-0.9453862
-1.1348609
-1.3409963
-1.5652388
-1.8091869
-2.0746055
-2.3634044
-2.6775374
-3.018565
-3.3885028
-3.7885147
-4.2189809
-4.6790311
-5.1663178
-5.6772536
-6.2073367
-6.7506293
-7.2999152
-7.834449
-8.3432965
-8.8139335
-9.2337687
-9.5930878
-9.8865152
-10.1131
-10.275068
-10.375565
-10.417645
-10.405331
-10.344724
-10.243017
-10.10619
-9.935425
-9.7258525
-9.4679346
-9.1513222
-8.7687595
-8.3182978
-7.8035653
-7.2328839
-6.6185595
-5.9762389
-5.3235395
-4.6782919
-4.0558301
-3.4663457
-2.9165234
-2.410594
-1.9498887
-1.532842
-1.1559225
-0.81478697
-0.50502338
-0.22234246
0.037123409
0.27666378
0.49907111
0.70655463
0.90084718
1.0832567
1.2548134
1.4162332
1.568079
1.7107028
1.8443711
1.9692958
2.0856238
2.1935081
2.2930574
2.384406
2.467695
2.5429544
2.6104011
2.6701029
2.7221755
2.7666954
2.8038104
2.8334514
2.855748
2.8710039
2.8780262
0.70891595
0.69730726
0.68000894
0.65666035
0.62692034
0.59070191
0.54784915
0.49816275
0.4413789
0.377185
0.30524895
0.22519297
0.13658775
0.038863649
-0.068591278
-0.18645335
-0.31550568
-0.45663726
-0.61084338
-0.77926233
-0.96320808
-1.1641675
-1.3838154
-1.6240763
-1.8871539
-2.1755041
-2.4917647
-2.8385651
-3.2188044
-3.6348042
-4.0880282
-4.578304
-5.1032845
-5.6591266
-6.2423044
-6.8525317
-7.4684582
-8.0729589
-8.6524221
-9.1880105
-9.6621106
-10.06151
-10.380184
-10.619438
-10.785311
-10.883833
-10.918026
-10.891569
-10.812943
-10.695572
-10.551685
-10.384437
-10.185243
-9.9362768
-9.6183459
-9.2182349
-8.732275
-8.1652218
-7.5277551
-6.8354888
-6.1090383
-5.3722039
-4.6498484
-3.9631022
-3.3218819
-2.7324103
-2.1993616
-1.7235457
-1.3011685
-0.92600208
-0.59124359
-0.29080051
-0.018988419
0.22911069
0.45748517
0.66936244
0.86723232
1.0529372
1.2277839
1.3927375
1.5484468
1.6953321
1.833663
1.9635413
2.0851471
2.198539
2.3037825
2.4009025
2.4900864
2.5714239
2.6449256
2.7108058
2.7691239
2.8199711
2.8634301
2.8996209
2.9285541
2.9503835
2.9650735
2.9719179
0.81469367
0.80379779
0.7873149
0.76513989
0.73700043
0.70278014
0.66234278
0.61547379
0.56191406
0.50137758
0.43353166
0.35797261
0.27422812
0.18182452
0.080036857
-0.03180383
-0.15452277
-0.28903944
-0.43640758
-0.59786115
-0.77482947
-0.96894806
-1.1821128
-1.4165636
-1.6749313
-1.9602544
-2.2759803
-2.6258898
-3.0142326
-3.4449224
-3.9211979
-4.4441835
-5.0110299
-5.616057
-6.2557837
-6.9522156
-7.6439586
-8.3367944
-9.0056452
-9.6234978
-10.164917
-10.610381
-10.95309
-11.199018
-11.363157
-11.456716
-11.479331
-11.430253
-11.32037
-11.174973
-11.020617
-10.865647
-10.694546
-10.473593
-10.167443
-9.7535096
-9.2274479
-8.5975916
-7.877954
-7.0876341
-6.2540221
-5.40945
-4.5906359
-3.8296933
-3.1298323
-2.4961632
-1.9354442
-1.4478284
-1.0256267
-0.65828563
-0.33578053
-0.049985967
0.20636784
0.43924916
0.65339262
0.85239458
1.0388869
1.2147418
1.3811826
1.5389754
1.6886348
1.8303421
1.964242
2.0903134
2.2085697
2.3189691
2.4215613
2.5162953
2.6032778
2.6826083
2.7542697
2.8185076
2.8753488
2.924933
2.9673083
3.0025582
3.0307472
3.0520953
3.0663076
3.0730413
0.92614108
0.91598583
0.90041841
0.87951456
0.85310383
0.82104909
0.78320318
0.73937021
0.68932761
0.63279338
0.56941701
0.49879403
0.42047851
0.33393273
0.23852713
0.13351318
0.018045713
-0.10880963
-0.24815322
-0.40127798
-0.56967463
-0.75508864
-0.95959984
-1.1857078
-1.4364199
-1.715358
-2.0268493
-2.3759122
-2.7686187
-3.2110963
-3.7096273
-4.2682308
-4.8831766
-5.5422698
-6.2539221
-7.0223848
-7.819764
-8.6259982
-9.4106404
-10.135565
-10.763231
-11.261018
-11.62174
-11.85988
-12.012476
-12.101023
-12.112783
-12.030238
-11.86401
-11.663911
-11.489773
-11.363562
-11.253796
-11.09594
-10.823938
-10.400662
-9.8265276
-9.1201176
-8.299494
-7.3845785
-6.4124574
-5.4263538
-4.4835386
-3.6442955
-2.8791408
-2.194423
-1.6060321
-1.1133605
-0.70033781
-0.34920464
-0.046905553
0.21745434
0.45277958
0.6660476
0.86258846
1.0462589
1.2196912
1.3845753
1.5419342
1.6922239
1.8356607
1.9721928
2.1017181
2.2240573
2.3390605
2.4465633
2.5465022
2.6388672
2.7236483
2.8009411
2.8707707
2.933314
2.9886308
3.0368736
3.0781062
3.1123977
3.1398579
3.1607199
3.1744983
3.1812071
1.0429277
1.0334399
1.018903
0.99936577
0.97479292
0.9450282
0.90994029
0.86938084
0.82313491
0.77091387
0.7123774
0.64714933
0.57478694
0.4947359
0.40634835
0.30903064
0.20174402
0.083607323
-0.046491868
-0.18985172
-0.34798213
-0.52268369
-0.71613421
-0.93099734
-1.1705642
-1.4389505
-1.7413341
-2.0841706
-2.475139
-2.92387
-3.4414279
-4.03896
-4.7137264
-5.4234932
-6.2099366
-7.0706158
-7.9913716
-8.9400187
-9.8775076
-10.745464
-11.489475
-12.035162
-12.38896
-12.591767
-12.726659
-12.822885
-12.841286
-12.714787
-12.442555
-12.127369
-11.911047
-11.846319
-11.861352
-11.832279
-11.63074
-11.198059
-10.558133
-9.7574578
-8.8159651
-7.7415584
-6.587848
-5.4098591
-4.2991674
-3.392607
-2.5558649
-1.8098818
-1.1957747
-0.71027481
-0.32081897
0.00247949
0.27528448
0.51022245
0.71806775
0.90687883
1.082339
1.2482966
1.4071876
1.560283
1.7081695
1.8509062
1.9882564
2.1198341
2.2452696
2.3641449
2.4760881
2.5808718
2.6783178
2.7683578
2.8509256
2.9261642
2.9941279
3.0549557
3.1087174
3.1555743
3.1956158
3.2289284
3.2556516
3.2760195
3.2894135
3.296196
1.164664
1.1557709
1.1422951
1.1242255
1.1015604
1.0741997
1.0420481
1.0049744
0.96276151
0.91514663
0.86182962
0.80245014
0.7365558
0.66357548
0.58283568
0.4941995
0.39593553
0.28755982
0.16793091
0.035792022
-0.11034373
-0.27225222
-0.45209017
-0.65255116
-0.87704551
-1.1299652
-1.4170968
-1.7461199
-2.1267699
-2.5721963
-3.1009726
-3.7408122
-4.5096953
-5.2545501
-6.1058161
-7.08598
-8.1492605
-9.2720679
-10.418122
-11.481331
-12.370076
-13.009914
-13.330595
-13.410303
-13.480975
-13.623854
-13.716333
-13.547354
-13.065794
-12.492985
-12.179879
-12.245422
-12.518208
-12.740911
-12.666395
-12.201584
-11.451787
-10.5368
-9.4608883
-8.1854802
-6.7780782
-5.3372647
-4.0214766
-3.0620132
-2.1314355
-1.3143438
-0.68597878
-0.23225971
0.11410117
0.396331
0.6285356
0.82492148
0.99830409
1.1576559
1.3086693
1.4548729
1.5981368
1.7390994
1.8776351
2.0132064
2.1450054
2.2721934
2.3940463
2.5098945
2.6191485
2.7214559
2.8165812
2.9043753
2.9848671
3.058075
3.1241291
3.1831806
3.2353354
3.2807659
3.3195863
3.3519021
3.3778737
3.3977294
3.4108147
3.4177795
1.2909458
1.2826082
1.2702128
1.2535761
1.2328712
1.2080343
1.1789599
1.1455273
1.1075599
1.0648435
1.0171078
0.96399926
0.90507543
0.83980625
0.7675995
0.68786248
0.59973988
0.5021852
0.39423079
0.27471567
0.14224677
-0.0048249656
-0.16850173
-0.35132252
-0.55657913
-0.78859979
-1.0532785
-1.3589273
-1.716975
-2.1435694
-2.6651394
-3.342579
-4.2678904
-4.7780601
-5.2775989
-7.0004251
-8.270941
-9.6307668
-11.046925
-12.395205
-13.539938
-14.305725
-14.511563
-14.244385
-14.165036
-14.479018
-14.866852
-14.701084
-13.783088
-12.59944
-12.05793
-12.428165
-13.238677
-13.95025
-14.085673
-13.486399
-12.515428
-11.47965
-10.303292
-8.7773186
-7.0332701
-5.1734254
-3.3194931
-2.1829153
-1.3115601
-0.61057437
-0.057756679
0.31399973
0.59728626
0.82695789
1.0079288
1.1558542
1.2875673
1.4126388
1.5362709
1.6612937
1.7885752
1.9177575
2.0477287
2.1770964
2.3043387
2.4280897
2.5471881
2.6606662
2.7677467
2.8679513
2.9610001
3.0467355
3.1251787
3.1963963
3.2605185
3.3177371
3.3682216
3.4121513
3.4496935
3.4809786
3.5062039
3.5255523
3.5384362
3.5456935
1.4213469
1.4134617
1.4020947
1.3868814
1.3681896
1.3459356
1.3200147
1.2903479
1.256827
1.2192734
1.1774346
1.1309809
1.0795018
1.0225036
0.95940583
0.889536
0.81216238
0.72643333
0.63128129
0.52566737
0.40838232
0.27801479
0.1328541
-0.029274777
-0.21126108
-0.41698417
-0.65178124
-0.92356238
-1.2434783
-1.625503
-2.0973723
-2.7359884
-3.1630569
-1.0718289
-1.9656386
-5.065571
-8.147054
-9.7983798
-11.741853
-13.516954
-15.100393
-16.169335
-16.139239
-14.929775
-14.442806
-15.247594
-16.536747
-16.641147
-14.761834
-12.065987
-11.010907
-12.136025
-14.134351
-15.782247
-16.228549
-15.125768
-13.654789
-12.607324
-11.453297
-9.6211398
-7.4762086
-4.8274912
-2.7356929
-1.0483816
0.053919399
0.87341017
0.77560582
0.87025919
1.102994
1.2843272
1.4053713
1.4945935
1.5775471
1.6641309
1.7583601
1.8617807
1.9738125
2.0925866
2.2156281
2.3404503
2.4647228
2.5864189
2.7038832
2.8158702
2.9214487
3.0200343
3.1113304
3.1951711
3.271638
3.3408594
3.403015
3.4583375
3.507064
3.5494134
3.585596
3.6157989
3.6402762
3.6591333
3.6718953
3.679707
1.5554367
1.5477723
1.5373717
1.5236131
1.5068996
1.4872115
1.4644882
1.4387016
1.4097841
1.3775906
1.3419188
1.3024776
1.2588858
1.2106737
1.157267
1.0979883
1.0321374
0.95913108
0.87772784
0.78709346
0.68626161
0.57414729
0.44946467
0.31060041
0.15535504
-0.019262101
-0.21721169
-0.44502095
-0.71341723
-1.0329419
-1.4222571
-1.9380308
-1.6578661
-0.79579741
-1.8450262
-3.5574934
-7.629975
-9.9524513
-12.599166
-14.904126
-17.179697
-19.088
-18.821902
-15.075303
-13.414528
-15.552083
-19.87914
-20.725636
-16.517549
-10.007997
-7.8014538
-10.83027
-15.508517
-18.994195
-19.839155
-17.148408
-14.430173
-14.035711
-13.139226
-10.869941
-8.232152
-4.61697
-2.0972193
-0.882704
0.41229827
1.8984269
2.3506371
1.5183792
1.6150631
1.7536577
1.8099898
1.8308672
1.8580482
1.9026219
1.9666232
2.0494993
2.1484186
2.2594292
2.3782917
2.5011235
2.6246393
2.7461371
2.8634548
2.9750848
3.079967
3.1774957
3.2673789
3.3494989
3.424046
3.4912225
3.5513159
3.6046377
3.651481
3.6921468
3.7268894
3.7559491
3.7796478
3.7980291
3.8107757
3.8193374
1.6927393
1.6849669
1.6754629
1.6630982
1.6482867
1.6311099
1.611604
1.5897403
1.5655205
1.5388571
1.5095839
1.4774594
1.4421575
1.4032068
1.3600548
1.3120492
1.2584864
1.1987954
1.1319785
1.0571799
0.97374608
0.88098152
0.77814548
0.66434965
0.53831544
0.39821864
0.24177956
0.062555734
-0.15411465
-0.40763047
-0.68999571
-1.1020415
-1.7037412
-0.53850848
-1.1218038
-2.8575509
-7.2085116
-9.9812771
-13.184127
-16.47908
-20.527909
-24.282587
-24.515834
-13.860069
-8.3712136
-13.264689
-24.03215
-28.409667
-20.548581
-5.4131251
-0.40451795
-6.4032975
-18.618628
-25.145889
-23.351521
-17.288284
-13.807346
-17.04418
-16.40165
-12.739714
-8.8885882
-3.7221683
-0.75710893
1.1389551
2.2144396
2.163007
3.6299216
2.5829388
2.2044845
2.2378699
2.2116756
2.1529627
2.1166124
2.1165571
2.1512712
2.2166451
2.3064963
2.413978
2.5326718
2.6570928
2.7828257
2.9064566
3.0254414
3.1380614
3.243165
3.3401896
3.4289496
3.509515
3.5821573
3.6472048
3.7050934
3.7562492
3.801057
3.8399109
3.8731054
3.9009436
3.9237929
3.9416675
3.9546225
3.9638095
1.8326614
1.8244745
1.8157258
1.8046377
1.7916294
1.7769418
1.7605133
1.7425149
1.7230291
1.702003
1.6793101
1.6547744
1.628103
1.5988567
1.5665015
1.5303799
1.4897629
1.4439297
1.3923903
1.3339842
1.2684781
1.1955915
1.1152155
1.0273512
0.93186027
0.8283424
0.71635258
0.58824206
0.4271715
0.25440953
0.060907913
-0.33651463
-1.0041862
-0.61949387
0.4230175
-1.8953261
-6.8607356
-10.24204
-13.84064
-17.734181
-22.406275
-31.966198
-38.96074
-15.125166
3.9751613
-4.4113038
-29.47958
-51.029491
-30.043995
11.226862
27.76179
6.423774
-29.799424
-41.36095
-32.515187
-17.977456
-10.939294
-22.177588
-22.327463
-15.107153
-8.6507886
-1.9732671
0.62346114
2.7974791
3.478978
3.3812766
3.2541819
3.5058788
2.9633312
2.7956788
2.6160091
2.4488393
2.3383057
2.2917331
2.3006112
2.3543813
2.4417467
2.5520011
2.6760838
2.8067274
2.9383732
3.0669531
3.1897076
3.3047367
3.4109866
3.5080716
3.5959969
3.6750476
3.7456937
3.8084532
3.8639383
3.9127147
3.9553044
3.9921826
4.0237037
4.0502161
4.0720915
4.0891354
4.1010424
4.1122185
1.9745042
1.9655825
1.9574531
1.9474902
1.9361156
1.9236727
1.9102131
1.8959589
1.8811898
1.865835
1.8498322
1.8330801
1.8153469
1.7962324
1.7751843
1.7515136
1.7244405
1.6931902
1.6570808
1.6154792
1.5680244
1.5149022
1.4567436
1.3946371
1.3298788
1.2638065
1.1982169
1.1262938
1.0290863
0.93340028
0.82172099
0.56454439
0.11604063
-0.551321
-1.1516937
-2.5363163
-4.6878398
-7.6334818
-11.171692
-17.444577
-25.330994
-33.579548
-65.229692
-13.477264
46.804831
43.590399
-6.4465573
393.70126
803.90299
712.54357
496.52017
398.50564
121.65232
-60.3145
-46.113547
16.156717
11.177557
-1.2732785
-30.082347
-16.538307
-6.6516195
0.35633772
3.707723
5.6647137
5.7806626
5.2056923
4.6506766
4.2235156
3.8299892
3.3875103
2.9980339
2.6917262
2.498856
2.409161
2.4007588
2.4531149
2.5478796
2.6696295
2.8063245
2.948942
3.0908833
3.2276282
3.3564697
3.4753319
3.5835949
3.6811877
3.7684273
3.8458757
3.9143169
3.974541
4.0273432
4.0734787
4.1136217
4.1483223
4.178017
4.2031057
4.2239909
4.2404798
4.2525861
4.2647751
2.1174551
2.1075583
2.0999045
2.0908913
2.0809083
2.0704906
2.0597432
2.0488595
2.0387667
2.0290172
2.0197034
2.0108594
2.0023275
1.9937353
1.984499
1.9738629
1.9609286
1.944772
1.9245494
1.899801
1.8700347
1.835896
1.7987651
1.7610108
1.7257811
1.6967885
1.6790079
1.6699971
1.6464896
1.6164563
1.6081546
1.5820232
1.490891
1.2620012
0.87089326
-0.25794127
-2.4832586
-6.2962055
-10.232839
-13.826229
-12.028144
-23.565525
-183.68457
308.49822
-18.324807
-102.59291
4280.7545
8843.8089
8094.6969
5517.0088
4444.6784
5846.1924
7833.0543
6010.9123
1323.2049
-74.695214
82.178257
-82.912497
-26.151421
-10.575617
-5.3506763
3.1304323
8.2061847
10.219892
9.3830191
8.0608466
6.8488833
5.7484348
4.7864759
3.9533392
3.2933374
2.8304028
2.560651
2.443406
2.4354121
2.5028143
2.6190875
2.763842
2.9221606
3.0835424
3.2407337
3.3891512
3.5261228
3.6502571
3.7612751
3.8596348
3.9461176
4.021709
4.0875949
4.144906
4.1946516
4.2378195
4.2752352
4.3075496
4.3352601
4.3588361
4.3787465
4.3946351
4.4066645
4.4202883
2.2607749
2.2496899
2.2423262
2.233993
2.2251121
2.2164225
2.2080202
2.199618
2.1944699
2.1900726
2.1872747
2.1863389
2.1871983
2.1894995
2.1926121
2.1956794
2.1975987
2.1971816
2.193256
2.1851244
2.1724223
2.1558432
2.1374686
2.1210656
2.1121694
2.118061
2.1489637
2.2121044
2.291561
2.3745044
2.4999098
2.680797
2.9332833
3.0577204
2.8415706
1.5019223
-1.711579
-6.7156409
-12.317382
-14.016982
1.838204
92.217801
547.51627
2959.5803
3199.9521
4828.0923
6759.6969
7837.2901
7385.6413
6342.5766
5918.3131
6568.8641
7661.8127
7671.7676
5284.0423
2220.2457
1664.0939
311.41272
10.939433
-30.515957
-11.825895
8.6672546
15.695862
16.620301
14.214011
11.808734
9.6470899
7.5724289
5.7708352
4.363308
3.3955782
2.7903963
2.475758
2.3650837
2.3874729
2.4942252
2.6509909
2.8331048
3.0236489
3.2113565
3.3890527
3.55252
3.6997368
3.8302023
3.9443765
4.0434258
4.128812
4.2020736
4.2648696
4.3187358
4.3649817
4.4048036
4.4391689
4.4688696
4.4944554
4.5164717
4.5353525
4.5506091
4.5625
4.5778013
2.4037626
2.3912314
2.3839109
2.3759489
2.3677975
2.3604918
2.3545101
2.3508937
2.3473141
2.3472731
2.3505923
2.3574186
2.3677579
2.3813108
2.3973947
2.4149677
2.4326481
2.4488008
2.4617218
2.470221
2.4736953
2.472607
2.4694816
2.4693196
2.480403
2.514852
2.5911874
2.7333952
2.9546438
3.2478159
3.6353776
4.0928203
4.6869708
5.0917544
4.9171447
3.9370173
0.9959367
-4.7144651
-19.517044
-47.069266
-58.692635
479.50264
2596.9661
5989.9506
6267.7891
5917.132
6388.3463
6806.2442
6712.652
6357.4305
6208.804
6428.9024
6756.4895
6655.4229
6055.242
6063.5238
5881.7664
3112.0308
403.27848
-93.092327
0.72745505
29.743388
29.62865
25.535556
19.695199
15.545594
12.338813
9.0084805
6.2577837
4.3378025
3.1336784
2.4736848
2.1890401
2.144374
2.2420024
2.4209426
2.6418179
2.8780803
3.1125579
3.334522
3.5378251
3.7193974
3.8785017
4.0158869
4.1331455
4.2323911
4.3159777
4.3861528
4.4451296
4.4949003
4.537128
4.573198
4.6042149
4.6311309
4.6544911
4.674858
4.692673
4.7072853
4.7190516
4.736264
2.5457419
2.5314172
2.5238656
2.5158787
2.5078883
2.5011783
2.4962787
2.4938038
2.4938997
2.4981715
2.5071784
2.5214789
2.5413063
2.5664734
2.5962601
2.6293782
2.6640491
2.6980255
2.7288132
2.7542993
2.7730765
2.7850356
2.7924152
2.8008082
2.8207954
2.8694352
2.9748137
3.1835975
3.5531778
4.1287605
4.9085041
5.8528175
6.8324777
7.2451597
7.057524
8.4762944
12.668446
12.342293
-0.8646194
-114.36329
358.76194
4100.7571
5289.2874
5829.297
5906.2832
5909.0774
6092.823
6270.0005
6273.5941
6163.261
6109.8855
6173.6206
6251.0603
6167.7308
5941.7645
5843.8604
5817.642
5624.3915
4504.5823
208.13975
95.266794
64.583858
40.437457
37.336996
24.583812
17.996983
14.251433
9.0694156
5.4326062
3.3510181
2.2303715
1.7455869
1.6408998
1.7553428
1.9893057
2.281268
2.5935122
2.9021759
3.1925596
3.4563699
3.6897933
3.8917899
4.0636238
4.2077868
4.327419
4.42589
4.5065927
4.5726504
4.626899
4.6718304
4.7094789
4.7414354
4.7688138
4.7929695
4.8139949
4.832656
4.8494029
4.8633889
4.8751218
4.8945123
2.6860953
2.6696026
2.66146
2.6529129
2.6443604
2.6373693
2.6326015
2.6308307
2.633053
2.640358
2.6541406
2.6753114
2.7044434
2.7415463
2.7858937
2.8359421
2.8893626
2.9430982
2.9935528
3.0371175
3.0710041
3.0936184
3.1058872
3.1125583
3.1246427
3.1618437
3.2582333
3.4769065
3.9184441
4.7021629
5.9497892
7.6090361
9.1778046
9.0577608
8.3816557
11.498946
22.947873
50.378741
122.67335
-321.75108
3387.4381
4641.9745
5021.711
5341.9451
5543.252
5656.637
5785.8124
5894.7768
5927.6895
5904.0585
5884.4882
5891.2865
5884.5451
5805.4064
5661.5951
5520.3063
5354.6415
5128.2102
4464.6179
1386.6215
68.148674
66.556472
75.409544
61.31656
18.834784
17.979533
15.277233
6.7954048
2.2761683
0.99275247
0.6345309
0.57154313
0.80804977