/*--------------------------------*- C++ -*----------------------------------*\
  =========                 |
  \\      /  F ield         | OpenFOAM: The Open Source CFD Toolbox
   \\    /   O peration     | Website:  https://openfoam.org
    \\  /    A nd           | Version:  9
     \\/     M anipulation  |
\*---------------------------------------------------------------------------*/
FoamFile
{
    format      ascii;
    class       surfaceScalarField;
    location    "0.45";
    object      phi;
}
// * * * * * * * * * * * * * * * * * * * * * * * * * * * * * * * * * * * * * //

dimensions      [0 3 -1 0 0 0 0];

internalField   nonuniform List<scalar> 
19800
(
2.8183788e-06
2.1823006e-05
-8.1183535e-07
2.3085688e-05
-4.8689967e-06
2.4482937e-05
-9.1431044e-06
2.5880617e-05
-1.3783215e-05
2.7478346e-05
-1.8846551e-05
2.9430486e-05
-2.4351994e-05
3.1487801e-05
-3.029728e-05
3.3628306e-05
-3.6669212e-05
3.5788363e-05
-4.3450365e-05
3.7894071e-05
-5.0585592e-05
3.9882245e-05
-5.7972842e-05
4.165673e-05
-6.5548876e-05
4.3198656e-05
-7.3182025e-05
4.4353904e-05
-8.0773039e-05
4.5102198e-05
-8.8193151e-05
4.5344197e-05
-9.5286225e-05
4.5013768e-05
-0.00010189196
4.4056361e-05
-0.00010787047
4.242703e-05
-0.00011307412
4.0085157e-05
-0.00011734675
3.7000392e-05
-0.00012057423
3.3248532e-05
-0.00012264252
2.8847638e-05
-0.00012344386
2.3738366e-05
-0.00012289393
1.8103362e-05
-0.0001209767
1.1989931e-05
-0.00011778896
5.6359532e-06
-0.00011389439
-5.9779371e-07
-0.00010920375
-6.6831215e-06
-0.00010248561
-1.159717e-05
-9.4117731e-05
-1.5985829e-05
-8.4528353e-05
-1.9951362e-05
-7.4145364e-05
-2.3505801e-05
-6.3406986e-05
-2.6507279e-05
-5.2780456e-05
-2.887153e-05
-4.2522178e-05
-3.0581406e-05
-3.2649252e-05
-3.1532571e-05
-2.3173825e-05
-3.1358294e-05
-1.4020239e-05
-3.0096687e-05
-5.0753455e-06
-2.8345445e-05
3.9811284e-06
-2.5814772e-05
1.3786016e-05
-2.2485126e-05
2.4954201e-05
-1.8465023e-05
3.9183771e-05
-1.3938794e-05
5.5112164e-05
-1.0554477e-05
7.1784998e-05
-8.4539961e-06
8.9763846e-05
-7.1375274e-06
0.00010918772
-6.6942339e-06
0.0001300312
-6.9425228e-06
0.00015225256
-7.9153975e-06
0.00017573776
-9.6701456e-06
0.00020041951
-1.208428e-05
0.00022620116
-1.5176372e-05
0.00025279736
-1.873468e-05
0.00028067798
-2.2855908e-05
0.00030878533
-2.7645832e-05
0.00033526523
-3.3219148e-05
0.00036111512
-3.7872429e-05
0.00038672141
-4.1276301e-05
0.00041214972
-4.3492674e-05
0.00043739232
-4.3943277e-05
0.0004623745
-4.3113674e-05
0.00048649639
-4.0850854e-05
0.00050902761
-3.7544082e-05
0.00052935305
-3.2915863e-05
0.00054695282
-2.7217911e-05
0.00056124044
-2.03709e-05
0.00057136597
-1.2351721e-05
0.00057903147
-2.6674067e-06
0.00058484961
6.8477748e-06
0.00058714238
1.7219851e-05
0.00058549625
2.7207764e-05
0.00058008491
3.6515942e-05
0.00057109881
4.515441e-05
0.0005588215
5.3036824e-05
0.00054355504
6.0087896e-05
0.00052563453
6.6202873e-05
0.00050540144
7.1322174e-05
0.00048317879
7.5401481e-05
0.00045930862
7.8433314e-05
0.00043414379
8.0467898e-05
0.0004080004
8.1522099e-05
0.00038115686
8.1675347e-05
0.00035393199
8.1024194e-05
0.0003265961
7.9700175e-05
0.00029939299
7.774841e-05
0.00027257495
7.5279543e-05
0.00024628007
7.2381631e-05
0.00022067446
6.9199438e-05
0.00019590562
6.5806575e-05
0.00017205483
6.2358936e-05
0.00014917346
5.8856857e-05
0.00012730057
5.544459e-05
0.00010643244
5.2131427e-05
8.6522e-05
4.9029944e-05
6.7512546e-05
4.6179445e-05
4.9359417e-05
4.3686164e-05
3.1906901e-05
4.1418591e-05
1.5010613e-05
3.9817319e-05
3.8090624e-05
4.1177613e-06
2.4870756e-05
8.7656564e-07
2.6335382e-05
-2.864733e-06
2.8220719e-05
-6.7493477e-06
2.9769076e-05
-1.1139633e-05
3.1866251e-05
-1.6022938e-05
3.4313956e-05
-2.1412972e-05
3.6875673e-05
-2.7328689e-05
3.9540695e-05
-3.3755752e-05
4.2217724e-05
-4.0657126e-05
4.4793079e-05
-4.7984029e-05
4.7211335e-05
-5.5677307e-05
4.9351474e-05
-6.367007e-05
5.1189324e-05
-7.1833823e-05
5.2520244e-05
-8.0032602e-05
5.330273e-05
-8.8130666e-05
5.3442044e-05
-9.5993545e-05
5.2879086e-05
-0.00010346335
5.1526298e-05
-0.00011036369
4.932455e-05
-0.00011650729
4.6228975e-05
-0.00012174607
4.2240783e-05
-0.00012589799
3.7399924e-05
-0.00012878589
3.1734783e-05
-0.00013030869
2.5260117e-05
-0.0001303968
1.8188175e-05
-0.0001290447
1.0634435e-05
-0.00012622281
2.8120795e-06
-0.00012197703
-4.8475975e-06
-0.0001162691
-1.2398383e-05
-0.00010872478
-1.9147679e-05
-9.9580315e-05
-2.5132542e-05
-8.9187954e-05
-3.0344849e-05
-7.795879e-05
-3.4737147e-05
-6.6265292e-05
-3.8202175e-05
-5.4487369e-05
-4.064992e-05
-4.2960924e-05
-4.210983e-05
-3.1910984e-05
-4.2584913e-05
-2.1319405e-05
-4.1950613e-05
-1.0999463e-05
-4.041733e-05
-1.067656e-06
-3.8278073e-05
8.6691806e-06
-3.5551205e-05
1.8904491e-05
-3.2720777e-05
3.0194279e-05
-2.9757145e-05
4.3177463e-05
-2.6924006e-05
5.7574978e-05
-2.495268e-05
7.3191594e-05
-2.4072391e-05
9.0181232e-05
-2.4129112e-05
0.0001086649
-2.5177491e-05
0.00012865058
-2.6926688e-05
0.00015016235
-2.9425313e-05
0.00017304429
-3.2550488e-05
0.00019719806
-3.6236035e-05
0.00022250458
-4.048187e-05
0.00024874879
-4.497638e-05
0.00027582415
-4.9926051e-05
0.00030327864
-5.5100144e-05
0.00033043523
-6.0377505e-05
0.00035734891
-6.4786175e-05
0.00038430877
-6.8238378e-05
0.00041120799
-7.039234e-05
0.00043809553
-7.0826488e-05
0.00046455317
-6.9571009e-05
0.00049010214
-6.640152e-05
0.00051409005
-6.1529825e-05
0.00053598077
-5.4804965e-05
0.0005551226
-4.6361778e-05
0.00057101886
-3.6269291e-05
0.00058350004
-2.4833674e-05
0.00059230248
-1.1471008e-05
0.00059702353
2.1260113e-06
0.00059824188
1.6005063e-05
0.00059577714
2.9677621e-05
0.00058955005
4.2744991e-05
0.00057967282
5.5031821e-05
0.00056637119
6.6339517e-05
0.00054997032
7.6488523e-05
0.00053083962
8.5334273e-05
0.00050934905
9.2814426e-05
0.00048588662
9.8865628e-05
0.00046079493
0.00010352487
0.00043446549
0.00010679911
0.00040724002
0.00010874996
0.00037944987
0.00010946805
0.00035138891
0.00010908603
0.00032336839
0.00010772181
0.00029562854
0.00010548538
0.00026837302
0.00010253382
0.00024174261
9.9009521e-05
0.00021593728
9.5006376e-05
0.0001910812
9.0662713e-05
0.00016727235
8.6168445e-05
0.00014453709
8.1593519e-05
0.00012289874
7.7083224e-05
0.00010232929
7.2697985e-05
8.2798131e-05
6.8563885e-05
6.4218497e-05
6.4755554e-05
4.6566383e-05
6.1337626e-05
2.9642753e-05
5.8341738e-05
1.3374979e-05
5.60866e-05
5.3714644e-05
5.1998973e-06
2.7636396e-05
2.1609956e-06
2.9371032e-05
-1.1025025e-06
3.1489144e-05
-4.6072487e-06
3.3272764e-05
-8.7874594e-06
3.6048044e-05
-1.3496033e-05
3.9021972e-05
-1.8836616e-05
4.2213397e-05
-2.4747111e-05
4.5453218e-05
-3.1221146e-05
4.8689112e-05
-3.8349595e-05
5.192266e-05
-4.5986289e-05
5.4849726e-05
-5.4109706e-05
5.7472851e-05
-6.2481387e-05
5.956279e-05
-7.1135826e-05
6.1176175e-05
-7.995566e-05
6.2121361e-05
-8.8812727e-05
6.2300285e-05
-9.7474103e-05
6.1540892e-05
-0.00010576908
5.9819075e-05
-0.00011347454
5.7030316e-05
-0.00012049573
5.3252365e-05
-0.00012654614
4.8291365e-05
-0.00013147317
4.2326472e-05
-0.00013508077
3.534233e-05
-0.0001372506
2.7428442e-05
-0.00013781887
1.875438e-05
-0.00013669422
9.5088039e-06
-0.00013370364
-1.8084711e-07
-0.00012875257
-9.8041397e-06
-0.00012217258
-1.8983656e-05
-0.00011391941
-2.7402859e-05
-0.00010409001
-3.4961959e-05
-9.283467e-05
-4.1600769e-05
-8.0630516e-05
-4.6942899e-05
-6.784729e-05
-5.0986766e-05
-5.4877319e-05
-5.3621142e-05
-4.211526e-05
-5.487482e-05
-2.9787012e-05
-5.4916356e-05
-1.7944951e-05
-5.3793007e-05
-6.5679191e-06
-5.179383e-05
4.3456064e-06
-4.9192591e-05
1.5098869e-05
-4.6304704e-05
2.5894236e-05
-4.3515093e-05
3.7175863e-05
-4.1039433e-05
4.9384182e-05
-3.9135348e-05
6.251411e-05
-3.8084904e-05
7.6794433e-05
-3.8353819e-05
9.2366822e-05
-3.9701937e-05
0.00010917427
-4.1983597e-05
0.00012748629
-4.5236908e-05
0.00014734183
-4.9279117e-05
0.00016860931
-5.3816489e-05
0.00019124708
-5.8871768e-05
0.00021517804
-6.4412951e-05
0.00024034258
-7.0143055e-05
0.0002665794
-7.6161112e-05
0.00029370344
-8.2222866e-05
0.00032130362
-8.7979502e-05
0.00034953924
-9.3023352e-05
0.00037818137
-9.6881004e-05
0.00040710741
-9.9318236e-05
0.0004361299
-9.9847109e-05
0.00046481066
-9.8250803e-05
0.0004926561
-9.4245362e-05
0.00051887009
-8.7747657e-05
0.00054277797
-7.8714311e-05
0.00056373308
-6.7316015e-05
0.00058119977
-5.3734685e-05
0.00059461333
-3.8247477e-05
0.00060454746
-2.1404415e-05
0.00061038945
-3.715786e-06
0.00061176406
1.4630932e-05
0.00060889202
3.2552983e-05
0.00060187294
4.9766284e-05
0.00059097213
6.5932313e-05
0.00057651294
8.0798747e-05
0.00055882911
9.4173831e-05
0.00053832124
0.00010584276
0.00051545434
0.00011568264
0.00049057186
0.00012375013
0.00046413552
0.00012996221
0.00043653409
0.00013440137
0.00040816544
0.00013711853
0.00037924209
0.00013839077
0.00035025776
0.00013806802
0.00032135013
0.00013662901
0.000292831
0.00013400267
0.00026502157
0.00013034375
0.00023798248
0.00012604764
0.00021189787
0.00012109175
0.0001868536
0.00011570721
0.00016293619
0.0001100834
0.00014017009
0.00010435805
0.00011865784
9.8598589e-05
9.8315454e-05
9.303959e-05
7.9063256e-05
8.7817445e-05
6.083386e-05
8.2988267e-05
4.3647379e-05
7.8527222e-05
2.7262138e-05
7.4721159e-05
1.1550577e-05
7.1796898e-05
6.8719931e-05
6.5961815e-06
2.9770915e-05
4.1220238e-06
3.184949e-05
1.3145685e-06
3.4295692e-05
-1.9525854e-06
3.6541702e-05
-5.8842634e-06
3.9979956e-05
-1.0471444e-05
4.3606498e-05
-1.5688844e-05
4.7432324e-05
-2.1568199e-05
5.1329197e-05
-2.8248416e-05
5.5368321e-05
-3.5521185e-05
5.9195887e-05
-4.3425781e-05
6.2751442e-05
-5.1852799e-05
6.590038e-05
-6.086437e-05
6.8575738e-05
-7.0256557e-05
7.0566865e-05
-7.9849692e-05
7.1714814e-05
-8.9452057e-05
7.1903584e-05
-9.8979297e-05
7.1067014e-05
-0.00010825498
6.9095591e-05
-0.00011704372
6.5822097e-05
-0.00012503889
6.1248505e-05
-0.00013211322
5.5365199e-05
-0.00013797753
4.8191061e-05
-0.00014237764
3.9742185e-05
-0.0001451777
3.0227382e-05
-0.00014613269
1.9708899e-05
-0.00014516044
8.535306e-06
-0.00014220127
-3.1441581e-06
-0.00013723054
-1.4779406e-05
-0.00013018139
-2.6034326e-05
-0.00012110049
-3.6483608e-05
-0.00011009511
-4.5968041e-05
-9.7671278e-05
-5.4025568e-05
-8.4148218e-05
-6.0466798e-05
-7.0112283e-05
-6.5024685e-05
-5.5942163e-05
-6.7793987e-05
-4.2068697e-05
-6.8750826e-05
-2.892824e-05
-6.8058851e-05
-1.656429e-05
-6.6157197e-05
-5.0233203e-06
-6.3333985e-05
5.9426287e-06
-6.015867e-05
1.6388765e-05
-5.6750875e-05
2.6699496e-05
-5.3825245e-05
3.7425953e-05
-5.1767202e-05
4.8751609e-05
-5.0465003e-05
6.1153212e-05
-5.0488616e-05
7.4409738e-05
-5.1608681e-05
8.9191305e-05
-5.4481628e-05
0.00010544933
-5.8240393e-05
0.00012320182
-6.298805e-05
0.00014255444
-6.8629986e-05
0.00016345573
-7.4717754e-05
0.0001858782
-8.1295666e-05
0.00020990549
-8.8441756e-05
0.0002352724
-9.5511682e-05
0.00026179006
-0.00010267819
0.00028938471
-0.00010981753
0.00031781765
-0.00011641421
0.00034718168
-0.00012239017
0.00037729876
-0.00012700001
0.0004079788
-0.00012999586
0.00043890782
-0.00013077248
0.00046965777
-0.00012900496
0.00049963373
-0.00012422054
0.00052804486
-0.00011615738
0.00055413024
-0.0001047995
0.00057710299
-9.0289247e-05
0.0005963002
-7.2932671e-05
0.00061125
-5.3198098e-05
0.00062156263
-3.1715347e-05
0.00062733281
-9.4839169e-06
0.0006285377
1.3426196e-05
0.00062508466
3.6006677e-05
0.00061712547
5.7725069e-05
0.00060498752
7.8068223e-05
0.00058907413
9.6711085e-05
0.0005697645
0.00011348512
0.00054760573
0.00012800316
0.00052297653
0.00014031467
0.00049642651
0.00015030017
0.00046831834
0.00015806961
0.00043909349
0.00016362563
0.00040910229
0.00016711075
0.00037892954
0.00016856383
0.00034859435
0.00016840155
0.00031864608
0.00016657747
0.00028934099
0.00016330619
0.00026067339
0.0001590132
0.00023300726
0.00015370927
0.00020646366
0.0001476349
0.00018114832
0.00014102508
0.0001571824
0.00013404816
0.00013454431
0.00012699753
0.00011318626
0.00011996122
9.3093085e-05
0.00011313275
7.4305428e-05
0.00010660798
5.6688549e-05
0.00010060504
3.9988457e-05
9.5229688e-05
2.426177e-05
9.0447823e-05
9.3658016e-06
8.669645e-05
8.2887411e-05
8.4584599e-06
3.1148799e-05
6.5392361e-06
3.3766589e-05
4.5769993e-06
3.6259504e-05
1.4292423e-06
3.9689579e-05
-2.2890609e-06
4.3695809e-05
-6.6302469e-06
4.7949112e-05
-1.1726601e-05
5.2525222e-05
-1.7677747e-05
5.7278207e-05
-2.4379567e-05
6.2069639e-05
-3.1898974e-05
6.6711525e-05
-4.0206803e-05
7.1058414e-05
-4.9242048e-05
7.4936499e-05
-5.8885839e-05
7.8217659e-05
-6.8996069e-05
8.0676468e-05
-7.9520844e-05
8.2240497e-05
-9.0226791e-05
8.2609162e-05
-0.00010094612
8.1787739e-05
-0.00011139689
7.9550377e-05
-0.00012139694
7.5824265e-05
-0.00013074405
7.0595307e-05
-0.00013904714
6.3668534e-05
-0.000146086
5.5230446e-05
-0.00015163877
4.5294598e-05
-0.00015536102
3.394933e-05
-0.00015710322
2.1450466e-05
-0.00015654404
7.973438e-06
-0.00015359878
-6.0929529e-06
-0.00014818061
-2.019911e-05
-0.00014030511
-3.3909727e-05
-0.00013005649
-4.6733221e-05
-0.00011758617
-5.8440325e-05
-0.00010341521
-6.8196856e-05
-8.7964673e-05
-7.591687e-05
-7.1884068e-05
-8.1107442e-05
-5.5872859e-05
-8.3808599e-05
-4.0393712e-05
-8.4231148e-05
-2.592013e-05
-8.2532561e-05
-1.2688058e-05
-7.9389858e-05
-7.2405306e-07
-7.5297939e-05
1.0053872e-05
-7.0935908e-05
2.0096478e-05
-6.6793407e-05
2.9636199e-05
-6.3366353e-05
3.9039368e-05
-6.1172497e-05
4.8932373e-05
-6.0359624e-05
5.9648575e-05
-6.1203891e-05
7.1736201e-05
-6.3692931e-05
8.5144628e-05
-6.7888287e-05
0.00010027642
-7.3372367e-05
0.0001173421
-8.005359e-05
0.00013621673
-8.7504186e-05
0.00015697974
-9.548224e-05
0.00017917012
-0.00010348873
0.00020273136
-0.00011200418
0.00022789546
-0.00012067622
0.00025451902
-0.00012930165
0.00028230609
-0.00013760755
0.00031142761
-0.00014553923
0.00034182482
-0.0001527893
0.00037350067
-0.00015867823
0.00040615266
-0.0001626468
0.00043963756
-0.0001642525
0.00047330628
-0.00016267586
0.00050646564
-0.00015738342
0.00053812727
-0.00014781602
0.00056740061
-0.0001340708
0.00059328294
-0.00011616932
0.00061494397
-9.4591031e-05
0.00063184122
-7.0095895e-05
0.00064363628
-4.3512384e-05
0.00064989749
-1.5744774e-05
0.00065071892
1.2606508e-05
0.00064632079
4.0405676e-05
0.00063702567
6.7021769e-05
0.00062319482
9.1899686e-05
0.00060527438
0.00011463163
0.00058393964
0.0001348194
0.00055952511
0.00015241754
0.00053267435
0.00016716442
0.00050382672
0.00017914769
0.00047355422
0.00018834241
0.00044229753
0.0001948836
0.00041048796
0.00019892101
0.00037845287
0.00020059944
0.00034668029
0.00020017261
0.00031539604
0.00019786071
0.00028481163
0.00019388487
0.00025528092
0.00018854113
0.00022694303
0.00018204519
0.00019993616
0.00017464162
0.00017434336
0.00016661825
0.00015020445
0.00015818829
0.00012757295
0.00014962992
0.00010637911
0.0001411554
8.6674238e-05
0.00013283871
6.8314059e-05
0.000124972
5.122987e-05
0.00011768446
3.5261764e-05
0.00011119751
2.0354162e-05
0.00010535763
6.3512259e-06
0.00010069626
9.6009763e-05
1.0559229e-05
3.1772655e-05
9.2969522e-06
3.5028641e-05
7.6701491e-06
3.7885269e-05
5.1013743e-06
4.2255224e-05
1.9585174e-06
4.6839852e-05
-2.0584146e-06
5.1962328e-05
-7.0016425e-06
5.7465686e-05
-1.2887839e-05
6.3163367e-05
-1.9753771e-05
6.8931301e-05
-2.7595e-05
7.4550953e-05
-3.634825e-05
7.9812265e-05
-4.6024698e-05
8.4611139e-05
-5.6433498e-05
8.8625368e-05
-6.7566013e-05
9.1809717e-05
-7.912664e-05
9.3800865e-05
-9.1091834e-05
9.4575482e-05
-0.00010311715
9.3817145e-05
-0.00011503677
9.1472753e-05
-0.00012658163
8.736897e-05
-0.00013740407
8.1417753e-05
-0.00014727818
7.3543473e-05
-0.00015581352
6.376595e-05
-0.00016267445
5.2155349e-05
-0.00016757155
3.8846096e-05
-0.0001701129
2.3990179e-05
-0.00017016214
8.0205227e-06
-0.00016725355
-9.0023004e-06
-0.00016140278
-2.6050191e-05
-0.00015264244
-4.2671979e-05
-0.00014091418
-5.8463829e-05
-0.00012660437
-7.2750482e-05
-0.00011014254
-8.4657202e-05
-9.2288291e-05
-9.3770584e-05
-7.370657e-05
-9.9691567e-05
-5.5140384e-05
-0.0001023777
-3.7718216e-05
-0.00010165335
-2.172869e-05
-9.8521311e-05
-7.5720126e-06
-9.3547557e-05
4.7122076e-06
-8.7582985e-05
1.5249424e-05
-8.1472459e-05
2.4436591e-05
-7.5980424e-05
3.2750281e-05
-7.168171e-05
4.078558e-05
-6.9208495e-05
4.9048586e-05
-6.8620735e-05
5.8040223e-05
-7.0193291e-05
6.8463969e-05
-7.4115304e-05
8.0267241e-05
-7.9691605e-05
9.4265429e-05
-8.7371449e-05
0.00011014624
-9.593438e-05
0.0001282773
-0.00010563462
0.00014816815
-0.00011537366
0.00016998689
-0.00012530992
0.0001934611
-0.00013548028
0.00021855992
-0.0001457761
0.00024511271
-0.00015585472
0.00027330471
-0.00016580595
0.00030314294
-0.00017538436
0.0003347607
-0.00018440507
0.00036818546
-0.0001921003
0.00040328673
-0.00019774954
0.0004399306
-0.00020089941
0.00047734796
-0.00020009215
0.00051459718
-0.00019463191
0.00055054901
-0.00018376459
0.00058400196
-0.00016751926
0.00061366466
-0.00014583121
0.00063853292
-0.00011945879
0.00065767861
-8.9238115e-05
0.00067064265
-5.6473113e-05
0.00067731626
-2.2417986e-05
0.00067780645
1.2117689e-05
0.00067232895
4.5883549e-05
0.00066133865
7.801304e-05
0.00064538991
0.000107851
0.00062511468
0.00013491095
0.00060105919
0.00015887509
0.00057395807
0.00017952199
0.00054431665
0.00019680502
0.00051279748
0.00021066901
0.00047987953
0.00022126132
0.00044614935
0.00022861576
0.00041197825
0.00023309271
0.00037791472
0.00023466535
0.00034424802
0.0002338384
0.00031132681
0.00023077639
0.00027942247
0.00022578656
0.0002487847
0.00021918021
0.00021961595
0.00021121377
0.00019193908
0.00020231797
0.00016595515
0.00019260362
0.00014160357
0.00018254182
0.00011898059
0.00017225112
9.8074164e-05
0.00016206288
7.8780228e-05
0.00015213467
6.1003672e-05
0.00014274893
4.4624653e-05
0.00013406761
2.955916e-05
0.00012626368
1.5563645e-05
0.00011935593
2.6246555e-06
0.00011363315
0.00010773429
1.3030468e-05
3.1558469e-05
1.2662272e-05
3.5393342e-05
1.1644696e-05
3.8898801e-05
9.8039717e-06
4.409658e-05
7.1045911e-06
4.9535528e-05
3.3889064e-06
5.567554e-05
-1.346952e-06
6.2200825e-05
-7.2222341e-06
6.9034638e-05
-1.4166536e-05
7.5873554e-05
-2.2335391e-05
8.2720277e-05
-3.1635814e-05
8.9111051e-05
-4.1931216e-05
9.4905328e-05
-5.3277374e-05
9.9972143e-05
-6.5414396e-05
0.00010394622
-7.8305395e-05
0.0001066919
-9.1663757e-05
0.00010793676
-0.00010532121
0.00010747684
-0.00011898624
0.00010513717
-0.00013232636
0.00010070853
-0.00014505803
9.4150261e-05
-0.00015674838
8.5234351e-05
-0.00016705334
7.4070801e-05
-0.00017557417
6.0676077e-05
-0.00018182619
4.5097461e-05
-0.00018551128
2.7674342e-05
-0.00018613454
8.6440535e-06
-0.0001835794
-1.1556918e-05
-0.00017746247
-3.216917e-05
-0.0001676762
-5.2461807e-05
-0.00015436723
-7.1773274e-05
-0.00013779069
-8.9324156e-05
-0.00011840684
-0.00010403958
-9.7222435e-05
-0.0001149567
-7.5251863e-05
-0.00012166458
-5.3709052e-05
-0.00012392176
-3.3581198e-05
-0.00012178115
-1.5745183e-05
-0.00011635747
-6.2504315e-07
-0.00010866872
1.1766625e-05
-9.9975037e-05
2.1686066e-05
-9.1391139e-05
2.954627e-05
-8.3839735e-05
3.6229725e-05
-7.836513e-05
4.2223281e-05
-7.5201717e-05
4.8419695e-05
-7.4815316e-05
5.5385258e-05
-7.7157995e-05
6.3555567e-05
-8.2286445e-05
7.372696e-05
-8.9863115e-05
8.5993219e-05
-9.9636191e-05
0.00010097641
-0.00011091511
0.00011815927
-0.00012281705
0.00013754741
-0.00013476395
0.00015903045
-0.00014679504
0.00018235027
-0.00015879967
0.00020740873
-0.00017083758
0.00023398032
-0.00018243043
0.00026253236
-0.00019436223
0.00029310135
-0.00020595708
0.00032588692
-0.00021719173
0.00036125283
-0.00022746836
0.00039929565
-0.000235791
0.0004395243
-0.0002411246
0.00048145518
-0.0002420255
0.00052387281
-0.00023705129
0.00056546082
-0.00022534867
0.00060421033
-0.00020626228
0.00063867328
-0.00018028914
0.00066735581
-0.00014814035
0.00068920398
-0.00011108688
0.00070369665
-7.0964847e-05
0.00071077048
-2.949054e-05
0.00071056205
1.2325269e-05
0.00070357346
5.2872023e-05
0.00069040341
9.1184975e-05
0.00067179713
0.00012646078
0.00064847814
0.00015823475
0.00062121285
0.00018614388
0.00059073229
0.00021000505
0.00055779367
0.00022974462
0.00052299206
0.00024547149
0.00048700675
0.00025724768
0.00045031529
0.00026530732
0.00041353205
0.00026987633
0.00037694771
0.00027124855
0.00034106929
0.0002697131
0.00030625809
0.00026558826
0.00027278647
0.00025925817
0.00024087757
0.0002510867
0.00021063403
0.00024145694
0.00018229647
0.00023065085
0.00015579294
0.00021910483
0.00013131905
0.00020702012
0.00010879676
0.00019476959
8.8147136e-05
0.00018271139
6.9374393e-05
0.00017091708
5.2326529e-05
0.00015979504
3.6797628e-05
0.00014959546
2.2718747e-05
0.00014034194
9.84678e-06
0.00013222619
-2.2160102e-06
0.00012569515
0.00011755279
1.6110301e-05
3.018035e-05
1.6595363e-05
3.4902528e-05
1.638004e-05
3.9114224e-05
1.5394552e-05
4.5077681e-05
1.3226011e-05
5.1702333e-05
9.9547188e-06
5.8947187e-05
5.4738323e-06
6.6678853e-05
-3.2894883e-07
7.4836197e-05
-7.539812e-06
8.3085404e-05
-1.5946781e-05
9.1126014e-05
-2.5773534e-05
9.8936744e-05
-3.69244e-05
0.00010605689
-4.9227992e-05
0.00011227492
-6.2661041e-05
0.00011737793
-7.6985323e-05
0.00012101713
-9.2042327e-05
0.00012299448
-0.00010756757
0.00012300034
-0.00012321377
0.00012078186
-0.00013871709
0.00011621237
-0.00015360932
0.0001090434
-0.00016757424
9.9199564e-05
-0.00018011764
8.6614391e-05
-0.00019064189
7.1200343e-05
-0.0001988056
5.3261296e-05
-0.00020395133
3.2821274e-05
-0.00020566697
1.0361007e-05
-0.00020344808
-1.377684e-05
-0.00019699909
-3.8621195e-05
-0.00018606319
-6.3399013e-05
-0.00017068864
-8.714543e-05
-0.00015117679
-0.00010883331
-0.00012815622
-0.0001270614
-0.0001026058
-0.00014051059
-7.602267e-05
-0.0001482491
-5.0338268e-05
-0.00014960596
-2.6865596e-05
-0.00014525453
-6.8530815e-06
-0.00013637131
9.2489438e-06
-0.000124771
2.1537096e-05
-0.00011226212
3.0339663e-05
-0.00010019274
3.6385389e-05
-8.9884547e-05
4.0535611e-05
-8.2514512e-05
4.3807301e-05
-7.8473998e-05
4.694528e-05
-7.7954093e-05
5.0987899e-05
-8.1200353e-05
5.6760866e-05
-8.8057755e-05
6.4856954e-05
-9.7955044e-05
7.5656411e-05
-0.00011043136
8.9223422e-05
-0.00012448085
0.00010576267
-0.00013935878
0.00012491491
-0.00015391818
0.00014626975
-0.00016815043
0.0001695886
-0.0001821184
0.0001943697
-0.00019562245
0.00022106833
-0.00020913196
0.00024958818
-0.00022288244
0.00028047904
-0.00023685097
0.00031427
-0.00025098534
0.00035158731
-0.00026478423
0.00039259701
-0.00027680472
0.00043720889
-0.00028573744
0.00048491994
-0.0002897343
0.00053406328
-0.00028619483
0.00058270045
-0.00027398133
0.00062852411
-0.00025208165
0.00066912881
-0.00022089084
0.00070258195
-0.00018159162
0.00072779625
-0.00013629997
0.00074404913
-8.7217317e-05
0.00075138111
-3.6820841e-05
0.0007500461
1.3659645e-05
0.00074090692
6.2008524e-05
0.0007248369
0.00010725409
0.00070277512
0.00014852748
0.00067567583
0.00018533713
0.00064445564
0.00021736626
0.00060997745
0.00024448341
0.00057305444
0.00026667147
0.00053437668
0.00028415076
0.00049471005
0.0002969174
0.00045459637
0.00030542054
0.00041459958
0.00030987193
0.00037521317
0.00031063567
0.00033685437
0.00030807112
0.00029986521
0.00030257757
0.00026453846
0.0002945842
0.00023110446
0.00028451914
0.00019976559
0.0002727946
0.00017060839
0.00025980905
0.00014373156
0.00024598109
0.00011909452
0.00023166023
9.6683016e-05
0.00021718221
7.6457408e-05
0.00020294174
5.8253877e-05
0.00018912157
4.1951012e-05
0.00017610159
2.7450997e-05
0.00016409315
1.4578898e-05
0.0001532157
3.1513629e-06
0.0001436528
-7.6301817e-06
0.00013647442
0.00012603068
1.9727536e-05
2.7544669e-05
2.1288165e-05
3.3340721e-05
2.2239206e-05
3.8158206e-05
2.1860387e-05
4.5455025e-05
2.0466426e-05
5.309744e-05
1.7726165e-05
6.1685884e-05
1.3532214e-05
7.0872956e-05
7.9032129e-06
8.0467135e-05
6.5707798e-07
9.033102e-05
-8.1846035e-06
9.9967179e-05
-1.8648457e-05
0.00010940181
-3.0644367e-05
0.00011805224
-4.4131151e-05
0.0001257596
-5.8949931e-05
0.000132196
-7.4982127e-05
0.00013704843
-9.1951823e-05
0.00013996113
-0.00010960373
0.00014064966
-0.00012762223
0.00013880043
-0.00014566621
0.00013425751
-0.00016321715
0.00012659519
-0.0001798276
0.00011581091
-0.00019496152
0.00010174912
-0.00020810281
8.4342198e-05
-0.0002185201
6.3679928e-05
-0.00022569329
3.9996255e-05
-0.0002288557
1.3523248e-05
-0.00022730724
-1.5327507e-05
-0.00022071538
-4.521381e-05
-0.00020864185
-7.5470527e-05
-0.00019092159
-0.00010486396
-0.00016778207
-0.00013197388
-0.00013985941
-0.00015498688
-0.00010856132
-0.00017181082
-7.6102367e-05
-0.00018070864
-4.4675089e-05
-0.0001810336
-1.6686917e-05
-0.00017324361
6.3044742e-06
-0.00015936338
2.3459151e-05
-0.00014192548
3.5000087e-05
-0.00012380207
4.191099e-05
-0.00010710322
4.533674e-05
-9.3310454e-05
4.6053521e-05
-8.3231002e-05
4.5590526e-05
-7.8011865e-05
4.49997e-05
-7.7364299e-05
4.5482768e-05
-8.1680687e-05
4.8103687e-05
-9.0672161e-05
5.3506547e-05
-0.00010335129
6.2331384e-05
-0.0001192544
7.4800117e-05
-0.00013695108
9.0831439e-05
-0.00015539065
0.00010995515
-0.00017304079
0.00013134373
-0.00018954074
0.00015452062
-0.00020529658
0.00017935627
-0.00022045677
0.00020570186
-0.00023548039
0.00023379723
-0.00025098277
0.00026464507
-0.00026769685
0.00029894826
-0.0002852866
0.00033769541
-0.00030353152
0.00038202471
-0.0003211379
0.00043179568
-0.00033550758
0.00048631764
-0.00034425158
0.00054432522
-0.00034419924
0.00060239733
-0.00033204983
0.00065737729
-0.00030706113
0.00070591742
-0.00026943084
0.00074570965
-0.0002213793
0.00077493439
-0.0001655216
0.00079295317
-0.00010523577
0.00080005223
-4.3920865e-05
0.00079704205
1.667015e-05
0.00078498227
7.4069878e-05
0.00076512224
0.00012711774
0.00073868699
0.00017496337
0.00070690181
0.00021712589
0.00067087768
0.0002533911
0.00063160537
0.00028375684
0.00058996208
0.00030831633
0.00054682996
0.00032728538
0.00050285639
0.00034089318
0.00045876609
0.00034951157
0.00041513649
0.0003535048
0.00037247261
0.00035329898
0.00033122606
0.00034931609
0.00029175351
0.00034205123
0.00025436677
0.0003319701
0.00021930272
0.00031958419
0.00018673468
0.00030536227
0.00015673455
0.00028980543
0.00012935162
0.00027336103
0.00010459298
0.00025641736
8.2432358e-05
0.00023933506
6.2694189e-05
0.000222684
4.5246618e-05
0.00020656445
2.9911287e-05
0.00019143716
1.6548512e-05
0.00017745879
4.9104094e-06
0.00016485379
-4.7971549e-06
0.0001533601
-1.4392111e-05
0.00014606925
0.00013324882
2.4125653e-05
2.3357844e-05
2.6929118e-05
3.0530862e-05
2.8987578e-05
3.609893e-05
2.9704779e-05
4.4738922e-05
2.905499e-05
5.3746134e-05
2.6927473e-05
6.3814678e-05
2.3159504e-05
7.4643573e-05
1.7603654e-05
8.6022921e-05
1.0290497e-05
9.7644262e-05
1.0211983e-06
0.00010923851
-9.9915252e-06
0.00012041484
-2.2932428e-05
0.00013099134
-3.767043e-05
0.00014049646
-5.4063248e-05
0.00014858734
-7.1975702e-05
0.00015495735
-9.1196941e-05
0.00015917924
-0.00011130125
0.00016075368
-0.00013205949
0.00015955993
-0.00015297898
0.00015517826
-0.00017365612
0.00014727386
-0.00019349729
0.00013565377
-0.00021188278
0.00012013576
-0.00022816335
0.00010062369
-0.000241551
7.7068598e-05
-0.00025121413
4.9659473e-05
-0.00025637064
1.8678483e-05
-0.00025624856
-1.5450177e-05
-0.0002497057
-5.1755008e-05
-0.00023652103
-8.8653516e-05
-0.00021612728
-0.00012525898
-0.0001884856
-0.00015961836
-0.00015446764
-0.00018900594
-0.00011552872
-0.00021074967
-7.4627442e-05
-0.00022161098
-3.5298117e-05
-0.00022036457
-1.2499282e-06
-0.00020729203
2.4957581e-05
-0.00018557062
4.2699955e-05
-0.00015966906
5.3135504e-05
-0.00013423878
5.7480739e-05
-0.0001114483
5.6969356e-05
-9.2798864e-05
5.324385e-05
-7.9504933e-05
4.7704036e-05
-7.2471087e-05
4.2252404e-05
-7.1910442e-05
3.8148431e-05
-7.7570882e-05
3.6688203e-05
-8.92054e-05
3.9005769e-05
-0.00010566607
4.5763992e-05
-0.00012601354
5.71332e-05
-0.0001483202
7.2916272e-05
-0.00017117193
9.2250663e-05
-0.00019237338
0.00011418614
-0.00021147406
0.00013786581
-0.0002289759
0.00016250373
-0.00024509536
0.00018802547
-0.00026100307
0.00021511352
-0.00027807187
0.00024471109
-0.00029729526
0.00027864193
-0.00031921705
0.00031842775
-0.00034331409
0.00036549431
-0.00036820505
0.00042121851
-0.00039122743
0.00048479922
-0.00040782801
0.00055384866
-0.0004132473
0.00062477317
-0.00040297244
0.00069200121
-0.00037428675
0.00075112235
-0.0003285508
0.00079868593
-0.00026894189
0.00083256557
-0.00019939975
0.00085232914
-0.00012499873
0.00085854087
-5.0134357e-05
0.00085279903
2.2413778e-05
0.00083664377
9.0226388e-05
0.00081179659
0.00015197068
0.00077986416
0.00020690036
0.00074233211
0.00025466262
0.00070048726
0.00029523708
0.00065548466
0.00032876111
0.00060833105
0.00035547041
0.00055993216
0.00037568485
0.00051106843
0.00038976094
0.00046244264
0.00039814025
0.00041466528
0.00040127975
0.00036829229
0.00039966849
0.00032379484
0.00039381346
0.0002815712
0.00038427743
0.00024190119
0.00037164169
0.00020502617
0.00035645282
0.00017112484
0.00033926424
0.00014027774
0.00032064948
0.0001124894
0.00030114823
8.7677184e-05
0.00028122897
6.5749907e-05
0.00026126324
4.6599393e-05
0.00024183418
3.0087984e-05
0.00022307956
1.5910053e-05
0.00020561486
3.9295422e-06
0.00018943876
-6.598966e-06
0.00017537586
-1.4886882e-05
0.00016164194
-2.2470492e-05
0.0001536534
0.00013922415
2.9476898e-05
1.7315169e-05
3.3528557e-05
2.6477904e-05
3.6769197e-05
3.2859233e-05
3.8731054e-05
4.2775735e-05
3.908191e-05
5.3396892e-05
3.7743526e-05
6.5155675e-05
3.4499418e-05
7.7887377e-05
2.9311115e-05
9.1211448e-05
2.1907037e-05
0.00010505102
1.2364809e-05
0.00011878208
5.7080384e-07
0.00013220802
-1.3421825e-05
0.00014498348
-2.9566974e-05
0.00015664074
-4.7762531e-05
0.00016678008
-6.7767566e-05
0.00017495977
-8.9399511e-05
0.00018081103
-0.00011236088
0.0001837162
-0.00013622314
0.00018342335
-0.0001605523
0.00017950917
-0.00018486787
0.00017159173
-0.000208544
0.0001593316
-0.00023084367
0.00014243624
-0.00025103771
0.00012081798
-0.00026815188
9.418207e-05
-0.0002812083
6.2714669e-05
-0.00028914912
2.6619326e-05
-0.00029089465
-1.3703117e-05
-0.00028526196
-5.7386825e-05
-0.00027112995
-0.00010278651
-0.00024792144
-0.00014846902
-0.00021503853
-0.00019250182
-0.0001729772
-0.00023106696