/*--------------------------------*- C++ -*----------------------------------*\
  =========                 |
  \\      /  F ield         | OpenFOAM: The Open Source CFD Toolbox
   \\    /   O peration     | Website:  https://openfoam.org
    \\  /    A nd           | Version:  9
     \\/     M anipulation  |
\*---------------------------------------------------------------------------*/
FoamFile
{
    format      ascii;
    class       volScalarField;
    location    "21";
    object      p;
}
// * * * * * * * * * * * * * * * * * * * * * * * * * * * * * * * * * * * * * //

dimensions      [0 2 -2 0 0 0 0];

internalField   nonuniform List<scalar> 
918
(
0.37670979
1.5939405
0.018023819
0.33636981
-0.0067367008
1.5645943
-1.1534686
1.1375427
0.39740995
-0.34371342
-0.22192144
0.67350054
1.4359964
1.1959009
-0.91976359
-0.060327701
1.0464304
-0.9580771
0.38801858
-0.039453056
1.2476531
0.34663128
0.37400065
0.34792326
0.84913158
1.1783628
1.2988619
0.0062339931
0.0086877859
-0.012002402
-0.0040859153
-0.045799123
-0.037984114
1.4408715
1.4948909
1.5185834
0.4312302
0.35241322
-0.90768526
-1.0344697
-0.97179764
-1.2297195
1.117442
1.118596
-0.52282231
1.1381812
1.1581544
0.36916579
0.39205238
0.40149034
0.34245727
0.372316
0.38853991
0.29579725
-0.36046052
-0.42199768
-0.30675772
-0.28970692
-0.088667949
-0.23986631
-0.23434411
-0.21486331
-0.18532689
0.51072623
0.63484315
0.62005194
0.68747964
0.72188415
1.5310368
1.4944765
1.521458
1.4682829
1.4585883
1.4158519
1.3790055
1.2345164
1.2418258
1.1935527
1.157578
-1.456528
-2.5091504
-0.33542772
-0.024403302
-0.0053703079
-0.087537987
-0.087997921
1.022251
1.0244297
1.0437109
1.0640552
1.1125262
-0.89530397
-1.1703102
0.39044942
0.38337522
0.37875566
0.36057079
0.4064817
0.45154516
-0.035626741
-0.059799717
-0.04302938
-0.017808658
-0.033463281
1.2218028
1.2100483
0.36313331
0.36834686
0.74235785
0.80490997
0.77846712
0.35001166
0.87741858
0.9152203
0.96731254
1.1663223
1.1794107
1.1594523
1.2850169
1.2403071
1.3455541
1.3711552
0.020311721
0.0067046897
-0.069516357
-0.046647144
-0.04037747
0.44451138
0.46609246
0.43993177
0.41643737
0.41572201
0.29472053
0.1516666
0.44297404
0.46066161
-0.73984545
-0.83467249
-1.0169606
-1.0365907
-1.2503077
0.71558367
1.0977968
1.0997111
-0.56268073
-0.40885233
-0.65992139
-0.31834639
-0.40893537
0.39496446
0.3834575
0.39106396
0.36451562
0.36891736
0.36774857
0.37403782
0.37582117
0.39028561
0.3628801
0.50596358
0.2403736
0.19145453
-0.65275075
-0.44873412
-0.6323903
-0.27734087
-0.26933036
-0.063749216
-0.03343742
-0.065610022
-0.096109826
-0.2634932
-0.2509256
-0.25227728
-0.17453286
-0.14689171
0.49820475
0.50273935
0.4938153
0.50361619
0.54187611
0.54937416
0.59184588
0.57817025
1.3049726
1.3286442
1.3733351
1.3362795
-3.9153959
-6.6202205
0.30791199
0.49188576
-0.0047301539
0.001027947
0.0027541096
0.012077404
-0.0011979845
-0.0076417481
-0.10346161
-0.11939423
-0.10481296
-0.10403332
0.99615914
0.9939162
1.0576522
1.0968792
0.97520295
0.96687403
0.40247085
0.39669225
0.39980788
0.39444336
-0.12733417
-0.081376711
-0.10009372
1.1602151
1.1897121
1.1824505
0.26832771
0.14379671
0.40449403
0.44210908
0.96921692
0.93702519
0.96339668
1.0429836
1.0779312
1.3606951
1.3727213
1.410549
1.4073342
1.4556331
1.4479643
1.4064238
0.48706823
0.46805333
0.49158828
0.40426896
0.42482259
0.41567778
0.50427426
0.46244932
0.49486142
-0.016566815
-0.35833573
0.53429671
0.52812767
0.50664327
0.50096044
0.79139022
0.88342861
1.0608793
1.0781438
1.0832793
-0.17791376
-0.26184387
0.11941439
0.097081363
0.46222576
0.4886321
0.48923721
1.2791019
1.2794882
1.3258295
1.2881129
1.229452
1.2521659
-0.38583935
-1.5612088
-0.94098167
0.89975023
0.67715187
0.78305074
-0.11197169
-0.1293859
-0.12225464
1.0672027
1.1285266
0.56388406
0.81576532
0.81782297
1.1269853
1.1499919
1.2211489
1.1462559
1.1730171
1.1980383
1.1811004
0.66189847
0.56912526
0.59215808
0.92998934
0.98377872
0.067278233
-0.046275571
-0.081776292
-0.017603638
0.028065534
-0.0058254066
1.0904256
1.0280511
1.1011329
0.37305159
0.36504882
0.018978634
0.013995201
0.39905421
0.37144787
0.00030104644
-0.001238786
0.75699173
-0.66825522
0.080815207
0.39865746
0.39828078
0.38666799
-0.33511428
0.26695313
-0.20003251
-0.15802174
-0.16310236
0.65230931
0.52360638
0.5121547
0.0073128534
-0.032228641
-0.071280435
-0.55466503
0.3808533
0.36091875
0.3774037
0.36227386
0.39398064
-0.0030026366
0.0066906556
0.00010552991
-0.050012743
-0.030277192
-0.014514306
0.46428632
0.48242738
-0.44965282
0.38996067
0.37505651
0.39241592
0.34820634
0.40710672
0.35921853
-0.031931043
-0.01234142
-0.042731752
0.30189856
0.45411598
1.0769523
1.2413391
1.0879094
0.70495293
0.37647671
0.93416554
1.0330956
0.89463697
1.077504
1.0689474
1.1108927
0.15871321
-0.073344389
0.17769378
0.117886
0.39706071
0.40237389
0.40334878
0.40103752
0.39663164
0.37127001
0.3952891
0.39676375
0.39274606
0.40913866
-0.26073024
-0.30744117
-0.32668528
-0.40847355
0.2757335
0.55278088
0.18791016
0.21365703
0.015369041
-0.2160517
-0.2039129
-0.20638436
-0.22243083
-0.24541898
-0.19005008
-0.13949637
-0.091810428
-0.12467615
-0.17558524
-0.26013243
-0.25083778
-0.22280619
0.61431647
0.59743709
0.64088096
0.69316655
0.51490123
0.50661562
0.50945038
0.51491378
0.51032118
0.46584017
0.49677998
0.48097576
-0.014068605
0.01229227
-0.0054978806
-0.054157594
-0.08741181
-0.024373417
-0.0034197862
-0.0034002643
-0.026503397
-0.026941811
-0.089740336
-0.092725038
-0.50644855
-0.66713121
1.0102881
0.86612769
0.045578101
0.3681071
0.36004332
0.35052543
0.38726221
0.37437291
0.38033948
0.38196359
0.37987442
0.43492365
0.41123353
0.48146846
0.51884989
-0.36539465
-0.60110304
-0.33752545
-0.39118824
0.21826836
0.93929639
0.44124954
0.36763953
0.38469829
0.76076575
1.2674999
1.1392173
1.1915712
1.2382402
-0.30714745
0.18348402
-0.1086592
0.57318004
0.79414983
1.0502832
1.110079
1.1147654
1.0841273
1.0184183
-0.21561537
0.77780959
-0.23341543
-0.21600046
0.122888
-0.052323636
1.1335664
1.0415314
1.0489203
1.09455
1.1314733
1.0543208
0.99713069
1.0121684
1.0851987
1.0870854
0.71457183
0.33088883
0.2216463
0.21686223
1.0092701
0.77921344
0.87677445
0.71111121
0.40694711
0.41370637
0.39987753
0.42831065
0.41842322
0.41437893
0.44836867
0.46454035
0.4173736
0.38705966
0.42661454
0.40012973
-0.26464782
-0.27204971
-0.22449743
-0.42770975
-0.40481703
-0.52193059
-0.3063986
-0.069700055
-0.10075825
0.10199838
0.23038088
-0.11369426
-0.31894973
-0.26123744
-0.20297243
0.020683705
0.079810984
-0.032477218
0.012130197
0.015646993
-0.0023285817
0.12175434
0.12296672
-0.21816167
-0.21760517
-0.2036969
-0.22293954
-0.1513698
-0.029174785
-0.038307204
-0.21856816
-0.27379525
-0.19302117
-0.16224642
-0.16051427
-0.20600456
-0.19472658
-0.14448957
-0.038116952
-0.051325081
-0.063219839
-0.20053053
-0.11788949
-0.17381885
0.54242754
0.56613052
0.55292423
0.71146183
0.70750022
0.75256016
0.71026807
0.46420781
0.48651127
0.47613964
0.53646508
0.5085727
0.54902901
0.56117822
0.59366067
0.60649222
0.49544056
0.47425658
0.57174384
0.52892617
0.53160171
0.53855637
0.56909229
0.50967428
0.52731091
-0.022803274
-0.018352011
-0.016987076
-0.070052829
-0.0037662403
-0.013697684
-0.12540582
-0.067740894
-0.10302766
-0.087680874
-0.13630546
-0.027702329
-0.04403168
-0.33397207
-0.16973085
-0.55839032
-0.59297167
-0.69289872
0.90075156
1.0585833
0.80140062
0.52026044
0.55264032
0.8399231
0.98347255
0.5002923
0.62571805
0.7442565
0.6783787
0.91785516
0.38526136
0.37890911
0.39321141
0.37529216
0.40150648
-0.18062122
0.010122841
-0.053421773
0.12490395
0.33582464
0.38712613
0.19755659
0.13646986
0.29597472
0.19081079
0.93611214
0.96419257
0.85094258
0.90652903
0.90704407
0.57582518
0.73303256
0.84764517
0.76191164
0.84130729
0.86061446
0.79363514
0.83800867
0.77896523
0.68280004
0.69665742
0.52873671
0.59249877
0.54824671
0.51693569
0.62519438
0.58641408
0.62129515
0.61422829
0.67210223
0.76771187
0.74950877
0.76597846
0.81620844
0.6706715
0.60336165
0.62002422
0.68410223
0.58054186
0.58918451
0.62322253
0.20044517
0.21331838
0.085908716
-0.014148593
0.07214253
-0.090837505
-0.11124242
-0.078806604
0.23486728
-0.4003579
-0.38777353
-0.75939069
0.65499637
1.2971364
1.0631192
1.0536529
1.1326985
1.0917645
1.0817288
1.1502785
1.1565699
0.99485917
1.0333712
1.0340832
0.92735098
0.97183132
1.0667105
1.0489515
0.74139951
0.48185111
0.43499032
0.41487256
0.16641813
0.24178778
0.6175205
0.47969991
0.34419965
0.34902573
0.66684238
0.45159498
0.5710375
0.65540554
0.51737848
0.44414832
0.79891383
0.93158895
0.92379479
0.87074814
0.69317117
0.73256951
0.79285782
0.8646363
0.90315149
0.97855819
0.42197834
0.42340045
0.41739418
0.40375899
0.43667082
0.43330083
0.43207316
0.41257678
0.41208487
0.40804922
0.42340834
-0.22847703
-0.22132413
-0.24644717
-0.25084332
-0.19024968
-0.20949067
-0.12587806
-0.15747543
-0.18378823
-0.16824027
-0.21277553
-0.22703581
-0.21929785
-0.19780124
0.0026590742
0.03098879
-0.038460712
-0.054636841
0.13812612
0.28167958
0.33620088
0.25261975
0.070569043
0.098560866
0.16503348
-0.14302207
-0.13724579
-0.1537374
-0.1026784
-0.079649939
-0.24205431
-0.22062072
-0.21382062
-0.27681561
-0.22698915
-0.1713975
-0.11793358
-0.12629345
-0.14583464
-0.14303565
-0.12726891
0.46311383
0.48740003
0.54238816
0.50938716
0.5036084
0.52326395
0.48955481
0.50662928
0.50986156
0.54275984
0.52999866
0.56907869
0.55667997
-0.11535474
-0.065888509
-0.093327324
-0.11066625
-0.06842025
-0.039391138
-0.058603937
0.051876105
-0.089131237
-0.056683828
-0.17217443
-0.40446586
-0.2981542
0.42009616
0.55574437
0.5530933
0.78491534
0.56976915
0.51850118
0.66587177
0.78990069
0.21864479
0.44760269
0.25801409
0.9194726
0.82250086
0.99744072
0.53934635
0.21978562
0.44852893
0.54139271
0.22630207
0.33704473
0.34474018
0.18093097
0.25530391
0.2726688
0.42558785
0.22045509
0.27145834
0.20211507
0.22490857
0.28437845
0.30418316
0.40382198
0.46576616
0.15046851
0.11881249
0.052623016
0.93047045
0.95973775
0.99087215
0.94699008
0.99076468
0.82705073
0.81883841
0.85378122
0.86949507
0.84994398
-0.59171568
-0.68936109
-1.0314427
-0.48507508
0.12835737
0.6944941
0.58067427
1.1336699
0.8873215
1.1094237
1.0588813
1.0077325
0.92311622
0.90117196
0.98820873
0.48451837
0.65063684
0.62534181
0.60558625
0.43548249
0.34376918
0.881927
0.86462575
0.93769473
0.97007685
0.91173456
0.98626577
0.45152401
0.47099191
0.4461959
0.46551152
0.45627131
0.46186107
-0.076560927
-0.13286494
-0.031347236
-0.058508214
-0.12392086
-0.14928784
-0.17866221
-0.14288078
-0.14237932
-0.13517265
-0.12355463
-0.18147628
0.07428107
0.034220761
-0.15685735
-0.045181505
-0.20762783
-0.30573496
-0.36664919
-0.18684877
-0.062541368
-0.040511292
0.35029124
0.63479984
0.47827404
0.59209062
0.41854876
0.53004639
0.50162343
0.46022698
0.50010906
0.37597214
0.39181471
0.37775501
-0.41331916
-0.079966302
1.1843043
1.1171476
0.73751102
0.58736752
0.52948012
0.86385718
0.78239886
0.63494532
0.73144402
0.85209601
0.84086434
0.16177741
0.14416129
0.49278525
0.62841646
0.27909916
0.15835939
0.12487776
0.29330602
0.3447273
)
;

boundaryField
{
    wall-4
    {
        type            zeroGradient;
    }
    velocity-inlet-5
    {
        type            zeroGradient;
    }
    velocity-inlet-6
    {
        type            zeroGradient;
    }
    pressure-outlet-7
    {
        type            fixedValue;
        value           uniform 0;
    }
    wall-8
    {
        type            zeroGradient;
    }
    frontAndBackPlanes
    {
        type            empty;
    }
}


// ************************************************************************* //
