/*--------------------------------*- C++ -*----------------------------------*\
  =========                 |
  \\      /  F ield         | OpenFOAM: The Open Source CFD Toolbox
   \\    /   O peration     | Website:  https://openfoam.org
    \\  /    A nd           | Version:  9
     \\/     M anipulation  |
\*---------------------------------------------------------------------------*/
FoamFile
{
    format      ascii;
    class       surfaceScalarField;
    location    "21";
    object      phi;
}
// * * * * * * * * * * * * * * * * * * * * * * * * * * * * * * * * * * * * * //

dimensions      [0 3 -1 0 0 0 0];

internalField   nonuniform List<scalar> 
1300
(
1.7582594
5.6264299
-6.9129739
1.7582594
-7.0082266
5.6264299
-6.1362831
6.1362831
-1.6042707
1.6042707
3.7345966
3.6500927
-4.4099812
4.4099812
-4.0527565
4.0527565
-2.5218281
2.5218281
-5.2377083
5.2377083
-5.0567166
5.0567166
4.7618962
-4.7618962
-5.6881699
5.6881699
-2.2162438
2.2162438
-5.5143003
5.5143003
1.4766553
-1.4766553
-5.0341414
5.0341414
-0.4318155
0.4318155
-0.57628158
5.1477559
1.1819778
1.1819778
-2.8774086
2.8774086
-4.8460674
4.8460674
6.2143183
-6.2143183
10.418098
-10.418098
-3.5051238
-4.1071356
1.6047753
-10.154061
-5.4034512
-5.4034512
-8.4382685
8.4382685
-2.8118386
2.8145914
1.7517923
-1.7517923
-1.7930164
1.7930164
-6.1146322
-0.021650934
-6.1146322
6.1586707
-0.022387634
6.1586707
-1.7941404
0.18986968
-1.7941404
5.4968728
-5.4968728
1.3770315
0.22723919
1.3770315
1.2787247
-1.2787247
-3.7359822
7.4705788
3.6487071
-3.0526693
8.2004251
-3.3942817
7.0443744
-6.6072476
6.6072476
-4.7013898
0.29140859
-4.7013898
4.1636493
0.2463318
4.1636493
-7.3698429
7.3698429
-3.9718389
-0.080917627
-3.9718389
4.1849161
-0.13215965
4.1849161
2.7543921
-2.7543921
-2.3261065
-0.19572155
-2.3261065
2.6999197
-0.17809163
2.6999197
0.35898316
5.2674468
-5.9854131
8.8000044
-5.2674468
0.029738437
5.2000648
0.037643517
5.2000648
-5.0934775
0.036760937
-5.0934775
5.0134499
0.043266684
5.0134499
4.8613979
-0.099501661
4.8613979
-4.8614252
0.099528985
-4.8614252
-3.8031628
-4.4462937
-5.8527704
0.1646006
-5.8527704
-2.2569577
0.040713879
-2.2569577
2.1555683
0.060675539
2.1555683
-4.1679395
4.1679395
-5.9294215
0.41512113
-5.9294215
1.3562992
0.12035603
1.3562992
2.0100197
2.5614547
3.768279
-3.7682789
2.2916236
-4.8303869
-0.20375446
-4.8303869
-5.2408339
-5.1772637
5.2408337
-0.20669239
-0.84228219
0.41046668
-0.8422822
1.23133
-0.049352278
1.23133
2.8489564
-0.14903662
-2.8489563
-0.028452277
4.1145018
-4.1145018
2.2150073
0.66240132
2.2150073
-5.5774056
5.5774056
4.9511215
0.062328424
-4.9511215
0.10505401
6.1539633
0.060354976
6.1539633
-6.1927268
-0.021591525
-6.1927268
3.7885027
-7.8956383
-4.261558
5.5408904
0.14727956
-5.5408905
0.13743923
1.981198
-0.22940568
1.981198
-1.4916637
1.4916637
-1.5858067
-0.16598562
-1.5858067
-2.1239799
0.33096357
-2.12398
1.5232675
0.26974893
1.5232675
-5.9285523
-0.18607989
-5.9285523
-6.1114246
0.18200312
6.1114246
0.047246116
1.4267831
-1.4267831
-1.9530293
0.15888889
-1.9530293
-5.6832089
-0.24534337
5.6832089
-0.1863361
-5.3930562
-0.10381657
-5.3930562
-1.4116783
-0.17412847
1.4116783
-0.13295364
1.2610426
-0.029712554
-1.2610426
-0.017682108
-3.0533745
5.6148292
-3.3935765
7.0422835
-6.2200055
-0.38724215
-6.2200055
6.9613117
-0.35406403
6.9613116
5.1355849
0.37871543
-5.1355849
0.43419507
3.9990909
0.16455847
3.9990909
-7.4780199
0.10817708
-7.4780199
7.1386194
0.23122359
7.1386194
3.9436457
0.055445177
-3.9436456
-0.028193285
4.3686737
-0.18375757
4.3686737
3.0064086
-0.25201655
3.0064086
-2.5029855
-0.25140662
-2.5029855
1.9000255
-1.9000255
2.1180169
-0.2179914
-2.1180169
-0.20808964
-11.148719
11.127127
-0.035790649
-11.112928
5.1642741
5.1642741
4.0738684
0.78752955
4.0738684
-5.0500297
0.18860451
-5.0500297
3.7068668
-7.9684247
4.3909454
-8.1941082
4.4035474
-14.557609
3.9448437
-8.3911374
6.4146052
-6.4146052
6.0744
0.34020518
-6.0744001
0.22162966
-2.2794112
0.022453458
-2.2794111
-3.5444203
-0.62351921
-3.5444203
4.8321677
-0.66422816
4.8321677
-1.3643928
1.3643928
-1.3386978
-0.025695019
1.3386978
0.017601446
4.6120679
-0.24339419
-4.612068
-0.2183189
1.1226219
0.25440958
-1.1226219
0.28033972
4.5814148
-0.46691298
4.5814148
-3.6433473
-0.47115454
-3.6433473
-2.2623102
-0.017100914
2.2623102
-0.047302918
-5.8215193
0.24411366
-5.8215193
-11.213433
0.10050482
-11.175789
-6.092222
-6.092222
2.3460465
11.146051
-2.2359846
-0.26700087
2.2359846
-0.25478661
1.4197379
-0.055345138
-1.4197379
-0.071925785
-1.6881448
-0.21188074
1.6881448
-0.19648116
-2.5488233
0.4248433
-2.5488232
-1.2396186
1.2396186
-1.332388
0.092769455
1.332388
0.19087942
1.7361223
-0.30933913
1.7361222
2.0675813
0.087986964
-2.0675813
0.11455199
-5.1878511
-0.20520508
-5.1878511
7.2514978
-0.29018613
7.2514977
-3.3109344
-0.33241293
3.3109344
-0.30452574
-0.035245419
11.162373
-5.1290287
0.035551179
5.1290287
-11.222727
11.258279
-3.1267029
0.57787961
3.1267028
0.94716558
5.3110677
0.2663379
-5.3110677
0.26103796
6.8091175
0.32950189
-6.8091175
0.39451231
-3.0290167
-0.51540363
-3.0290167
-5.5782497
-0.64175575
5.5782497
-0.74608202
-11.475789
-0.19496086
11.67075
-11.432523
6.0164802
0.13748313
-6.0164802
11.395762
-1.2593306
-0.16745252
1.2593306
-0.019712007
2.0882345
-0.35211223
2.0882345
4.9689582
-0.3875434
-4.9689582
-0.2188929
-7.4292026
-0.048817335
7.4292027
-0.177705
-2.536014
-0.49300268
2.536014
-0.44777958
-5.3470854
5.2977331
2.8533397
-3.5481484
-4.3474899
-8.7254121
2.5538936
3.0609356
4.8455172
-9.2024064
-5.3552025
-9.0649671
7.2782334
-7.0171955
-9.5145343
9.4150326
10.031381
-10.135197
-7.3904288
7.4080302
8.6362827
-8.7692363
3.7692682
3.7013107
10.942724
-10.651316
-16.744784
16.357542
9.4868408
-9.5677585
17.281887
-17.17371
-19.245192
19.574694
-7.3323014
7.1365798
-8.6463979
8.3949913
-8.7879176
8.4833919
-3.3076365
-4.8864716
12.598019
-12.433418
12.358711
-12.562465
-11.51671
11.931831
4.0640113
1.2337218
4.0342987
-3.6194419
7.38871
-3.4249324
6.2782722
4.4164011
-7.7240376
3.5520236
-7.8995134
6.7080612
5.6506494
-6.5013687
-2.2240433
-7.9484541
7.7190484
-7.6288986
7.4324174
12.025212
-12.046863
-3.5994173
7.3007279
-3.4428662
6.5038017
-3.7202778
-3.670151
3.5999218
1.2455955
7.4800203
5.1179989
-7.6273001
-1.4376671
-10.141225
9.7536818
-10.473781
10.002627
-0.46156008
5.7929487
-5.3313886
4.3845073
-1.4720855
7.2650342
5.8061479
5.9947524
5.8692205
-5.6028826
1.147975
-6.4793636
-6.3743096
-3.4339704
3.5928592
3.3724301
-3.1451909
7.9018208
2.1295599
7.7154847
-7.228346
-2.9068514
-7.4335511
4.528982
2.8790482
4.503287
5.266331
3.3699516
5.0922025
5.8723789
-5.939916
0.067537099
-5.4400581
11.312437
1.3608119
-9.1102091
-7.8646136
6.9250604
4.0176639
7.1713922
-7.5365501
-3.1147658
-7.102355
-10.232701
-6.5120833
-10.874456
10.922632
5.4349095
10.568568
-12.825543
12.647838
6.2572684
3.2295723
6.1251089
-6.4685148
-3.0992435
-6.4967082
13.816918
-3.580629
-10.236289
-11.305007
-7.9401844
11.073784
6.2081034
11.483111
8.0915828
11.877623
4.9614215
8.8554963
-11.169525
3.2293406
-4.4548218
-2.8774796
-4.6629114
4.5888935
2.5476864
4.4108018
-5.1084142
-3.5379837
-5.3754151
-5.0200914
-3.7678262
5.272108
3.1228833
-5.2049323
-5.2688488
5.5373452
2.9460467
4.2557253
-9.6109277
4.135412
-9.0218836
-9.1743331
-3.2590853
-8.9527035
5.5683835
2.2505092
-7.8188928
-2.1556539
12.279211
-6.6285611
10.055167
-7.188807
-5.3736583
-7.4071259
-9.1360051
-2.3807053
-8.954002
-9.5636646
9.048261
-9.9451877
9.2809596
13.854698
-6.7034611
-7.1512365
-4.8819585
-3.8872778
4.8996406
-0.86534191
-7.2113438
7.2788809
0.17736615
6.4556383
7.6893601
6.8240182
-4.5187117
-3.1101869
-4.5906375
4.7420761
2.6903413
4.5301953
9.1178593
2.9073532
9.0954717
-8.5757793
-3.4710841
-8.7618592
9.5735997
-9.2426361
3.8333449
-3.8504458
6.7631171
3.2395094
-6.2962041
-3.8450211
8.5205547
-3.9117559
-4.6087988
-12.089624
10.666496
1.4231282
-4.82459
-0.44008265
-0.008267146
-5.5822136
-3.9323207
5.4826846
0.5120678
11.178564
7.2462432
-5.5180054
5.7621191
6.1527448
6.2150732
-0.1592364
6.0958302
-5.5179506
7.0862707
-3.0979506
-3.9883201
7.0231055
-7.2684489
-1.7387537
-7.1320481
5.3932944
0.44703581
2.2943713
-1.8839047
-2.7370689
-0.69690144
-2.6225169
1.9780825
1.3943476
2.2324921
1.3222677
2.2705915
-3.9373221
0.68472973
3.2525924
-2.6150544
-2.4604612
-4.8768149
-1.388678
6.2654929
7.2606551
2.4930267
-7.0417622
-0.39178889
3.6551934
-3.5945178
-1.1226023
-3.7542126
2.7847428
-3.9073451
-4.7333761
-2.5615449
7.2949211
-3.7936055
-0.79703194
3.8489507
0.65433624
-4.6584293
-3.2900248
4.8244149
0.26778759
-5.1839425
10.792524
-5.6085812
-8.2941294
4.5583877
6.7540492
7.4374359
-9.1184005
4.6960468
4.4223537
-2.3643513
5.9008173
1.2705749
6.0653757
-9.1234095
6.0086438
7.8766032
4.0552283
-8.2553186
1.1529636
-7.970446
10.502218
-9.1001167
-1.4021009
5.2798612
5.2223564
7.5703489
6.2843487
-6.0474176
13.617767
-1.3909659
-7.7091507
9.3614119
-5.3061836
6.060907
-11.367091
-12.345256
4.6361049
-9.6785243
11.838632
-2.1601076
-3.8615076
-8.9640356
13.540032
-1.3143464
-12.225686
9.2542218
-5.2926113
-5.5276075
10.820219
-8.8732401
8.626851
-2.2222414
-6.4046096
-10.921002
-6.2527078
10.969819
1.6780194
-11.896687
15.126028
-3.0411908
5.4858907
0.63921819
5.3021331
3.9693525
-6.9416982
2.9723457
4.9038875
-7.126129
2.2879275
-9.2296258
-7.3226523
12.70197
-5.3793176
-10.581738
-10.425056
-0.15668193
2.1674863
12.958542
-10.259069
7.1599308
3.0991383
4.0043665
0.52582883
-3.7863751
-0.87653636
0.80687888
6.4641601
-7.271039
5.2176807
5.0686441
5.1429076
1.3212525
4.9727385
2.7463098
-4.7179519
-0.65746317
-5.9188383
2.1510121
-2.795955
-5.8991431
8.0501552
-6.6981445
0.79900144
-3.9877
-6.0331556
10.020856
-6.8651795
5.2777632
5.5147605
7.9681045
-8.367308
2.3341524
-4.3307336
-4.0365745
4.3639921
-7.1599471
3.0701162
4.9800391
6.0161628
0.74731403
6.8676035
5.8343664
-9.1181129
0.096229342
10.952365
-9.5146983
3.1669063
8.7107168
-10.326837
-0.098218631
-9.0509221
0.53257095
-7.161132
-7.2863218
6.6723369
-9.0530422
-4.6947537
8.3037874
0.79168428
-8.3510335
-0.60296845
-6.5243245
-3.0393402
-7.0173271
-3.3054789
-6.6397088
-9.3528965
-1.7850329
-7.5678636
7.263228
-7.2320015
-3.6424548
7.9780835
1.3028761
-8.0318882
7.8644357
-8.0801765
7.7280642
0.26639411
7.0124868
7.0904123
3.2031344
-4.6481355
7.8512699
-6.6746983
9.5820515
-11.2463
4.5716021
5.3690894
-8.8401735
-5.8772111
5.4786049
4.0949948
5.7483538
9.4043674
-10.846931
1.4425632
-11.070866
12.635858
-1.5649926
-17.14473
6.0738643
-7.7403626
3.5552301
0.27811483
3.5776835
0.96444078
3.0359961
-4.0004369
-2.886005
-2.9333079
-3.2010041
-4.6402224
7.8412266
1.5224663
-4.5927739
3.0703075
-4.6682536
6.19072
-0.022111113
-4.5706628
7.0754609
-4.0394648
7.3535757
-4.6903647
2.663211
4.4810899
7.7716669
-3.290577
5.861688
-2.6221786
2.6235555
-5.9141325
-2.0166669
-4.8279602
7.3756466
-5.1928954
5.9918968
-0.10460764
6.0965045
-5.5015696
1.5898137
-0.35866205
4.709982
4.6815297
6.2401528
-4.9189004
4.2827785
-6.9049571
-1.631354
-6.1576431
-1.1776041
-0.47677424
-5.065383
5.5421573
6.7393213
-7.2160955
-5.3614643
9.7725745
-4.4111102
8.083427
-5.5473148
-2.5361122
-4.5685691
-4.674067
4.1437258
1.9521044
10.035531
0.27831952
-5.8256343
-5.2396311
-4.2924655
4.3659799
2.7202908
-2.4149166
3.8380448
2.4231838
-0.12881245
0.82377054
1.4087215
2.4787107
-1.6549401
0.1948434
2.2838673
-1.6890613
2.671494
0.9836994
-2.7594809
0.13696398
-1.9163302
4.701073
1.3362622
-2.7306098
1.0756697
1.5735525
-4.6715031
6.4062973
-3.1867503
-3.219547
7.9798498
1.5332826
-4.7200329
5.5987655
-5.1517297
3.0662807
-4.4549587
-1.6537522
-6.8054819
-4.675922
-3.3083595
6.3786671
-4.532867
7.0258937
1.6452909
-6.6341049
8.2793958
-4.7329462
2.1714013
-4.1448642
5.1285637
-1.4577737
-2.6870905
3.6391908
3.6557303
-3.8568187
0.10260605
-0.21762792
3.0959812
-3.3136091
-0.81136398
-3.4264184
-7.4037282
7.6715158
-3.8174933
8.5135401
4.0337766
-3.4229645
11.936505
3.2810218
-6.7039863
-5.0131076
-5.8101396
-2.2816326
5.1558033
-0.71327676
-5.7834314
-7.1178866
5.7279863
0.33738947
-9.3090354
10.348124
-1.0390885
-5.2913715
-0.7172722
5.9971334
-7.5510708
0.42494178
-5.2631433
5.0849806
6.3555554
6.6929448
-12.035046
-0.19063937
-6.6001369
1.3999717
-8.0001086
6.6223281
-3.8204751
8.4565801
-11.100168
7.4577127
-9.7972914
7.0544792
-0.94562943
7.364296
-4.3919504
2.8719928
-9.1247007
-7.4466814
6.7540475
-3.5244752
7.3932659
-4.2545527
11.647819
-7.2957434
7.1796389
4.4681797
-1.8690335
-5.5380924
-6.7002853
4.8312519
0.47935357
5.7814867
7.4264596
-4.6801498
6.7689964
3.9289344
-8.2596679
-3.2310127
-11.544025
3.2843571
-6.0292646
-2.9482291
6.2325861
5.0198754
5.5457042
2.1960117
-4.6691679
9.2952327
-9.4519147
-3.915915
-3.3704067
7.0964041
-2.2651521
5.4383863
-8.808793
-1.7227458
5.6961843
-0.6891599
-5.0070244
1.0072768
-5.7020305
2.2875247
-7.9895552
6.7655175
-7.3684859
2.3527203
-10.093083
-5.679168
-5.69888
-2.4320746
-5.6481019
-7.980859
5.5487844
-1.9069947
5.957441
-8.9126441
8.2234842
-3.7232143
9.2719986
-5.8729933
-1.1443339
6.3207729
1.4072914
10.67929
0.35551162
-6.2327227
-2.666228
5.4665757
-2.8003477
1.699752
-4.7098714
0.75670426
3.3257425
4.6541073
-8.7190369
-0.12113662
-6.3538593
-4.1717299
8.2667247
5.6008447
12.340166
1.4932354
9.4229123
-1.1561876
10.916148
4.5921662
4.7830457
-4.0856169
5.52818
1.4565404
6.0281425
-1.13021
3.793421
2.4474735
2.4881874
1.1063305
2.7910862
1.8904435
4.3809
0.38046311
-2.5528448
4.7069472
-8.9994127
-1.1186871
-8.2118832
1.2031494
5.8883062
-4.6851567
4.2842973
-1.5640065
1.4839496
0.10535004
-2.4232702
2.3179201
-3.88297
-2.5520826
-0.26821535
-2.0963115
3.1719811
2.6047615
-2.9037658
-0.97920428
0.40358913
-5.0795111
4.0513696
-3.9487635
-0.29303324
7.9863625
-3.6554384
0.34182929
-1.4840371
-3.0845891
-3.7814906
3.6445266
11.356749
0.57975576
5.7481676
8.2512716
4.9612468
0.28109696
4.672975
-6.8330826
-4.556651
-7.023722
-0.4013939
5.5957395
3.2092759
9.7492659
7.6774556
5.4123035
-3.3964895
-12.848404
8.164918
-2.636738
6.5999254
-1.5929009
-6.3966543
6.5418091
3.0402424
-7.3334934
-0.034992575
-6.4316469
-9.0683849
-0.4938277
8.7173119
-10.185462
9.0411284
6.0017882
1.5660754
-4.8343806
-0.86449934
4.7416111
0.041434528
10.957582
-1.1997289
-7.1530449
8.3527738
-4.6885772
3.5698902
1.0033587
2.8346861
3.3212788
1.7572723
-5.3957725
-10.080929
-2.5413393
-2.1301638
-5.7608863
0.50460658
-3.1093681
6.3040505
-2.7341603
3.7679383
5.6186135
7.1025631
-2.0453234
-5.1707721
6.4564335
-2.6884952
4.4140679
)
;

boundaryField
{
    wall-4
    {
        type            calculated;
        value           uniform 0;
    }
    velocity-inlet-5
    {
        type            calculated;
        value           nonuniform List<scalar> 8(-1.7582594 -1.7582594 -7.3846893 -4.5714743 -7.3846893 -6.446951 -4.5714743 -6.446951);
    }
    velocity-inlet-6
    {
        type            calculated;
        value           uniform -5.6264299;
    }
    pressure-outlet-7
    {
        type            calculated;
        value           nonuniform List<scalar> 8(6.9129739 7.0082266 7.6122594 8.5492862 8.2494565 8.0500607 8.0978123 8.3483913);
    }
    wall-8
    {
        type            calculated;
        value           uniform 0;
    }
    frontAndBackPlanes
    {
        type            empty;
        value           nonuniform List<scalar> 0();
    }
}


// ************************************************************************* //
