/*--------------------------------*- C++ -*----------------------------------*\
  =========                 |
  \\      /  F ield         | OpenFOAM: The Open Source CFD Toolbox
   \\    /   O peration     | Website:  https://openfoam.org
    \\  /    A nd           | Version:  9
     \\/     M anipulation  |
\*---------------------------------------------------------------------------*/
FoamFile
{
    format      ascii;
    class       volVectorField;
    location    "21";
    object      U;
}
// * * * * * * * * * * * * * * * * * * * * * * * * * * * * * * * * * * * * * //

dimensions      [0 1 -1 0 0 0 0];

internalField   nonuniform List<vector> 
918
(
(0.40811477 -6.8687622e-05 0)
(0.009045592 2.957628 0)
(-0.018468483 1.8321974 0)
(0.28963632 -0.0087651974 0)
(-0.0068883475 1.8622998 3.5333551e-20)
(-0.011744099 2.9485777 -3.0630855e-18)
(1.0775515 1.659624 9.6308462e-19)
(0.50017955 0.29335276 -2.4151983e-20)
(1.988475 0.0032274891 0)
(0.029906056 1.2707213 0)
(-0.021826061 1.1693314 0)
(0.7022168 -0.027134707 0)
(0.012839585 2.9163447 0)
(0.013801612 2.7905975 0)
(0.1021727 3.1878273 5.0718109e-19)
(0.004819253 1.7494837 6.3241731e-20)
(0.6599927 0.16282749 1.5634692e-18)
(0.22643853 1.7304944 7.6820283e-19)
(0.35495287 0.0020974115 0)
(-0.012602749 1.4610533 0)
(0.11213953 0.28094806 -1.2353612e-18)
(1.0468736 -0.022285912 0)
(0.54374531 -0.029279549 0)
(0.24504971 -0.0067321006 0)
(0.83702353 -0.0020083201 0)
(0.025105021 2.6119964 0)
(-0.0099444661 2.9059577 1.1131739e-18)
(-0.034491262 1.8439448 0)
(-0.055449592 2.0275274 0)
(-0.027575384 1.8348593 0)
(-0.014701561 2.2836144 0)
(0.0015016772 1.9054515 -2.7657774e-20)
(0.0023675596 1.7476274 0)
(-0.018161388 2.981325 -1.1336448e-22)
(-0.018374499 3.0070235 2.3781428e-18)
(0.00086050157 3.0015939 0)
(0.39585172 0.020129051 0)
(0.43878505 0.9215695 1.9321266e-19)
(1.1749893 1.6342252 -1.1900451e-18)
(1.2468809 1.5160113 1.2227043e-18)
(0.98526256 1.7729524 -2.1889546e-19)
(0.87880627 1.7821233 1.2628097e-18)
(0.62069343 0.34752984 2.3476936e-20)
(0.54716661 0.27411688 0)
(1.5434953 0.87760252 0)
(0.55562287 0.35742566 1.0783512e-19)
(0.44632347 0.29605879 -1.1240604e-19)
(0.24321793 -0.0035203019 0)
(1.9893736 -0.00013992757 0)
(1.9886752 -0.0028457144 0)
(1.3573682 0.00029927879 0)
(1.8673034 0.0048520605 0)
(1.7378345 0.0028898848 0)
(0.030581141 2.0528934 -5.2378808e-19)
(0.050054897 1.4807877 0)
(0.049404132 1.369751 0)
(0.037083075 1.4132664 0)
(0.02249654 1.1824889 0)
(-0.036307177 2.2064529 0)
(-0.023309391 1.3113461 0)
(-0.013016095 1.1401033 0)
(-0.02944986 1.3487892 0)
(-0.021177752 1.2065877 0)
(0.77121006 0.03649753 0)
(0.82852994 -0.043250884 0)
(0.62952948 -0.029455853 0)
(0.87125978 -0.035000803 0)
(0.76976791 -0.021355659 0)
(0.016738958 3.0145156 1.1692242e-18)
(0.012391454 3.0113757 0)
(0.0077285949 3.0035785 0)
(0.013329819 3.0004877 1.2423941e-23)
(0.010556946 2.9476309 -1.669861e-18)
(0.016843598 2.9848909 0)
(0.013437446 2.8938296 0)
(0.017732234 2.9238189 2.6290233e-24)
(0.013869811 2.8180837 0)
(0.017818581 2.9100891 0)
(0.011310222 2.7535203 0)
(0.2532582 3.6507213 0)
(0.18026361 3.588096 0)
(0.13624724 3.3212306 -4.745064e-19)
(0.050775418 3.0100248 0)
(-0.082945451 2.2013985 0)
(0.0013946986 1.9398219 -6.2317521e-20)
(-0.0023979876 1.7727629 8.023846e-20)
(0.80334217 0.18426416 -5.3847205e-19)
(0.68594318 0.12649896 -5.1923278e-19)
(0.77182029 0.22225041 -1.6217507e-18)
(0.63682215 0.19301206 -1.0748641e-18)
(0.18186679 1.1770318 0)
(0.34792816 1.8667262 -8.1267637e-19)
(0.43861737 1.8515609 1.3525897e-18)
(0.55221645 0.035740169 0)
(0.29371399 0.020472736 0)
(1.2186255 -0.0013507957 0)
(0.73907587 -0.035184306 0)
(0.65232813 0.016985562 -2.0724014e-18)
(0.64704886 -0.026453022 1.6423727e-18)
(-0.02519575 1.6013882 0)
(-0.016721181 1.4078034 0)
(-0.046636259 1.8385309 0)
(-0.0291998 1.6737244 0)
(-0.017639516 1.5187554 0)
(0.20532092 0.32956725 3.7592526e-19)
(0.283587 0.27809406 0)
(0.50462314 0.018534235 0)
(0.23945706 0.013407566 0)
(0.91150988 -0.028912591 0)
(0.93679583 -0.012835884 0)
(0.82464773 -0.016219636 0)
(1.2052556 0.060668438 0)
(0.91884844 0.022136068 0)
(0.7676862 0.030231882 2.1714103e-18)
(0.0023862815 2.8625512 9.2253683e-19)
(0.021945399 2.8986933 0)
(0.037293272 2.8727432 0)
(0.016170711 2.7014136 0)
(-0.010371057 2.9857979 1.0701937e-18)
(-0.009044292 2.8909426 0)
(-0.01173815 2.9907677 -3.2988228e-18)
(-0.0095862708 2.9158942 1.1306816e-18)
(-0.07234399 2.1273741 0)
(-0.064509436 2.1449575 0)
(0.0038766607 1.913742 1.5308265e-21)
(0.0042633547 1.8852442 0)
(-0.00019860422 1.7435655 0)
(0.71280088 0.052070003 0)
(0.47500791 0.032683627 0)
(0.31523002 -0.012332232 0)
(0.65922624 0.0343996 0)
(0.33627997 0.023431862 0)
(0.52629664 1.1022601 -2.4043394e-19)
(0.55940637 1.138268 0)
(0.41704296 0.9091576 3.4120773e-20)
(0.32238385 0.6923345 0)
(1.3111315 1.4551724 -3.4647486e-19)
(1.3631444 1.3037732 6.8223363e-19)
(0.56189855 1.9121021 0)
(0.78133224 1.876654 0)
(0.66580557 1.8548981 0)
(0.15223593 0.25912785 -3.3646563e-19)
(0.67031595 0.32143212 0)
(0.58519308 0.25248846 3.0511368e-19)
(1.4250109 1.2446924 0)
(1.5165783 1.0244428 0)
(1.4590512 1.086933 -5.4851808e-19)
(1.5967361 0.81247464 0)
(1.6116005 0.68512226 9.5009093e-20)
(0.61842564 0.045201125 0)
(0.56342331 0.033968343 0)
(0.27828978 0.025666625 0)
(0.52409218 0.0077699885 0)
(0.53654081 -0.0050962091 0)
(0.24747005 0.0063010336 0)
(1.4990104 -0.0023319926 0)
(1.8698969 -0.0029786018 0)
(1.7318579 -0.00010801519 0)
(0.044575067 2.2587197 2.9437519e-19)
(0.052876536 1.9731294 0)
(0.03859607 2.3504561 4.2171534e-19)
(0.024586664 2.121082 -3.1379739e-19)
(0.16311497 1.7165848 -6.3378408e-19)
(0.075729277 1.5669556 0)
(0.099480985 1.543194 0)
(0.024015138 1.350931 0)
(0.0088940938 1.1335563 0)
(-0.03827577 2.4119011 1.1837989e-21)
(-0.017117809 2.2454174 0)
(-0.047013761 2.3481769 6.3132111e-20)
(-0.035292574 2.1259659 -1.4454435e-19)
(0.0029832754 1.3142624 0)
(-0.014584898 1.3040011 0)
(-0.0046834409 1.1221688 0)
(-0.034779313 1.3951654 0)
(-0.026024697 1.2645594 0)
(0.95878952 0.052559132 0)
(0.85525402 0.035738752 0)
(0.89431084 0.055005393 0)
(0.67670105 0.034864705 0)
(0.47090365 -0.028972191 0)
(0.72137993 -0.043662067 0)
(0.77366132 -0.042124903 0)
(0.55699517 -0.027059809 0)
(0.0037377886 3.0719557 -9.9107755e-21)
(0.010802371 3.0616538 0)
(0.016172437 2.9688012 0)
(0.013256728 2.8677075 0)
(0.73478271 4.2411332 0)
(1.2369539 3.3052552 9.3828806e-19)
(0.073444327 3.1404898 0)
(0.030432807 2.9110248 0)
(-0.097337098 2.1265526 0)
(-0.10970436 2.1841448 0)
(-0.089124756 2.1573601 0)
(-0.045417567 2.2762175 4.0979979e-21)
(-0.090969193 2.2321286 0)
(-0.061113254 2.2289566 0)
(-0.029622045 1.9082154 -3.9398518e-21)
(-0.037924548 2.0489843 -8.8050836e-20)
(-0.014288321 1.9767118 -8.1708348e-20)
(-0.017926233 1.8207581 0)
(0.8321526 0.14089038 7.9996738e-19)
(0.71941231 0.092629888 -7.845366e-19)
(0.3073406 1.7107265 0)
(0.21082327 0.95343004 -3.2098314e-19)
(0.22654857 1.8521539 -9.8341893e-19)
(0.13841564 1.4185004 9.8608987e-19)
(0.28186707 -0.0099321417 0)
(0.55423047 -0.010735603 0)
(0.54312743 0.006876583 0)
(0.27280922 0.00086077178 0)
(-0.041028627 1.4630745 0)
(-0.032788499 1.5342846 0)
(-0.024468252 1.3397591 0)
(0.47758153 0.35566793 9.9113995e-19)
(0.37759455 0.34139367 -1.1909093e-18)
(0.37537653 0.29190719 0)
(1.4236137 0.13484316 3.1402414e-20)
(1.4084485 0.13197035 0)
(1.2489314 0.090515449 0)
(1.0646597 0.043679011 0)
(0.85376265 0.099786541 0)
(0.87371059 0.059568541 -3.4932097e-18)
(0.74174977 0.062219884 1.3274166e-18)
(0.0034917317 2.9864321 9.4291069e-19)
(-0.0030805256 2.8664611 4.7182408e-20)
(0.0038489669 3.0539101 -2.0833542e-20)
(0.012753836 3.0472808 7.4995678e-19)
(-0.0093853713 2.9952593 3.6831346e-20)
(-0.0083888246 2.9361907 -1.4800292e-22)
(-0.013155542 3.0201622 -6.9676283e-19)
(0.0012174552 3.0231578 5.0220778e-19)
(0.0066774849 3.0397963 -7.5049656e-19)
(0.83297873 0.055045779 0)
(0.77713986 0.054303764 0)
(0.57104969 0.02928397 0)
(0.56449537 -0.013740026 0)
(0.58574522 -0.015142054 0)
(0.30162933 -0.012132251 0)
(0.67735257 -0.050525865 0)
(0.62786424 -0.04856992 0)
(0.38562426 -0.029461547 0)
(0.71318975 1.3876981 5.2633906e-20)
(0.78044919 1.468851 0)
(0.1652987 0.35585527 7.4634813e-20)
(0.33682579 0.7749686 5.5712168e-19)
(0.35893445 0.80744235 -3.3031264e-19)
(0.23008176 0.49073011 6.3681124e-19)
(0.42372091 0.97303708 1.7420981e-18)
(0.1694586 0.34409706 4.0686357e-19)
(0.7430827 0.25602547 1.1443009e-18)
(0.71021808 0.29003744 2.9002752e-19)
(0.6110953 0.22126222 5.7411936e-19)
(1.6242692 0.60617016 2.3832533e-19)
(1.6185064 0.46803376 2.2248792e-19)
(0.029658062 2.4126146 1.2919411e-19)
(0.012645982 2.2031198 0)
(1.1263128 0.064000354 0)
(1.0376581 0.059713148 0)
(0.95873662 0.038747471 0)
(0.010061368 3.0770286 0)
(0.017003155 2.9386733 1.4517355e-18)
(0.016552426 2.9536846 0)
(0.013512738 2.8433324 -1.4491631e-18)
(0.0096109003 3.0917321 3.3043485e-19)
(0.0038426521 3.0887337 0)
(0.8709071 1.7583418 -1.4245332e-19)
(1.1360987 2.3699149 1.9872596e-19)
(0.84979842 1.8747947 -9.6216824e-19)
(0.015466242 3.0008977 -8.4647406e-19)
(0.037007082 3.0428398 0)
(0.013141639 2.87651 0)
(-0.054908 2.2608741 -1.0629419e-20)
(-0.048747027 2.1606585 1.9252231e-19)
(-0.029078595 2.0262877 -6.8592101e-21)
(0.34785506 1.5468012 1.0075932e-18)
(0.21580084 0.76834916 -6.9327695e-19)
(0.090130081 2.1693612 6.4669518e-19)
(0.1672043 2.0308806 -8.2105154e-19)
(0.083368619 1.7076605 1.2291608e-19)
(0.014732615 3.1139529 -2.1704381e-18)
(0.017218285 3.119616 2.4569462e-18)
(-0.0084543636 2.9804563 1.0141205e-18)
(-0.0049060981 2.9778465 -9.8567052e-19)
(-0.0074360532 2.8767083 -1.033065e-18)
(0.0048746332 3.1054638 -2.5648099e-18)
(0.0097876842 3.1046687 2.5460841e-18)
(0.38207744 0.84265088 0)
(0.33527827 0.78236544 -1.2791275e-18)
(0.13650347 0.2833065 5.7123613e-19)
(0.41825774 1.0944396 1.1591092e-18)
(0.19426373 0.43890562 -1.7979608e-18)
(1.57927 0.24134692 5.6535448e-20)
(1.6167307 0.39573781 0)
(1.5664402 0.26651586 3.4579418e-20)
(-0.0082998798 2.4444123 3.3613949e-22)
(0.010159133 2.4325425 0)
(0.00032351408 2.2481035 0)
(0.39700621 1.4105933 -3.6104958e-19)
(0.42775787 1.2656703 -8.1522463e-19)
(0.20418125 0.58166763 1.4553604e-18)
(1.1977834 0.0051085784 0)
(1.3347116 0.0016170742 3.2655596e-19)
(-0.089327801 2.0798064 0)
(-0.083724771 2.0768762 0)
(1.5137868 -0.0029502669 1.1410139e-21)
(1.1059534 0.015896685 7.2182701e-19)
(-0.048388439 2.3028029 -5.3477357e-21)
(-0.021098755 2.3266076 0)
(0.065624057 3.1834437 6.4421371e-19)
(0.54389251 3.5611821 0)
(1.480883 0.89199276 -4.8749827e-20)
(1.2916503 -0.000202759 2.4779004e-20)
(1.3714887 0.032965653 0)
(1.9984104 0.0053895659 6.3614636e-21)
(0.11718744 1.8794622 0)
(0.11529008 2.7443426 0)
(-0.0094004621 1.6678381 0)
(-0.033316918 2.8507661 -1.2666475e-19)
(-0.14795713 2.7952033 -1.0046635e-19)
(1.2598732 -0.056021526 1.3204751e-20)
(1.3407857 0.07611809 0)
(1.3629748 0.1115371 0)
(-0.1339947 2.1834996 0)
(-0.065122282 2.4757903 0)
(-0.12488902 1.906524 0)
(0.34133612 1.9876788 -4.2834438e-19)
(1.2986777 0.010348818 0)
(1.1049208 0.0097655268 0)
(1.9693397 0.008044202 4.3021325e-19)
(1.6547635 0.01616862 -4.8857055e-19)
(1.9056395 0.009290927 0)
(-0.14541227 2.137849 0)
(-0.11783633 2.0788965 0)
(-0.1136802 2.1194552 0)
(-0.12234288 1.9249184 0)
(-0.085613604 1.9897317 0)
(-0.080815713 1.9538414 0)
(1.3649089 0.066550024 0)
(1.313104 -0.048011056 2.308051e-20)
(1.0296718 1.7132944 5.8710451e-19)
(1.9561643 -0.0012864446 -4.3849212e-19)
(1.7076082 -0.0071724044 5.1806514e-19)
(1.8973247 -0.0080771835 0)
(1.3175206 -0.0050085083 4.1782773e-19)
(1.1911512 -0.00025796255 -5.3760691e-19)
(0.9401504 0.019516491 0)
(-0.066921218 2.4626445 0)
(-0.04497296 2.3783431 -2.5662633e-20)
(-0.027906764 2.4035535 2.2041518e-20)
(1.5338531 0.39381225 7.1648996e-19)
(1.4501462 0.19291381 0)
(0.08647599 3.0554402 -1.2795038e-18)
(0.047882878 2.8412239 -9.1799981e-20)
(0.18621929 3.1859313 1.9463881e-18)
(0.16943456 3.249125 -2.7245858e-19)
(0.16743016 3.2963411 0)
(0.033394926 3.1359462 3.5519219e-19)
(0.088616986 3.1753958 1.2564901e-18)
(0.085104698 3.2037736 -6.6377314e-19)
(0.053487502 3.1082366 0)
(0.88271934 0.44615402 0)
(0.76268789 0.52026435 0)
(1.4252406 0.94426612 7.2159524e-20)
(1.4296745 1.1337633 4.988961e-21)
(1.497839 0.75913725 0)
(1.5409574 0.73664797 0)
(1.2839842 0.002694016 -8.6285043e-19)
(1.1289465 -0.0011012155 1.1170609e-18)
(1.3714486 0.033944723 0)
(1.2414581 0.044116671 0)
(2.0010694 0.007866189 0)
(1.87471 -0.0051187743 0)
(1.9368901 0.0035238126 0)
(1.7304401 -0.016300184 0)
(1.6682628 -0.007577778 0)
(1.7993295 -0.0064361957 0)
(0.1069766 1.8709514 0)
(0.089630127 1.8583467 0)
(0.13155924 1.9047011 0)
(0.14639496 1.9361892 0)
(0.13367813 2.7751523 0)
(0.1791617 2.8593008 -3.7123099e-19)
(0.095903883 2.8386554 0)
(0.082718033 2.8588111 1.0780111e-19)
(0.036618045 2.867197 7.4889813e-21)
(-0.014316286 1.663614 0)
(-0.037655884 1.6300878 0)
(0.028642649 1.6971318 0)
(0.0043602289 1.7075647 0)
(0.044751967 2.3208126 1.9434143e-19)
(-0.1167929 2.8382061 -1.9680698e-19)
(-0.059848416 2.9025887 -1.7866325e-19)
(-0.088395456 2.8977069 0)
(-0.15109618 2.810099 2.5263186e-19)
(-0.15119886 2.7699484 1.7311155e-19)
(0.0087612374 2.3752503 -1.349503e-19)
(-0.11717225 2.703844 2.5865102e-19)
(-0.076970547 2.7079425 2.2642245e-19)
(1.2785854 -0.049316027 1.3382749e-18)
(1.1406988 -0.064631383 -1.6366534e-18)
(1.2472044 -0.050332496 -1.4271582e-18)
(1.1551758 -0.05458419 1.8914685e-18)
(1.3549068 0.065450529 0)
(1.273532 0.081272712 0)
(1.3696767 0.096630764 0)
(1.3501066 0.077055242 0)
(1.2336057 0.078779949 0)
(1.4379311 0.17156699 0)
(1.3742035 0.12213994 0)
(1.3041183 0.1121176 0)
(-0.10386271 2.2897689 1.3801861e-21)
(-0.14377304 2.2326781 0)
(-0.10645199 2.2457008 0)
(-0.10235607 2.5493999 -3.0715204e-20)
(-0.071238922 2.5781594 2.1679924e-21)
(-0.20686064 2.1654707 -1.5223963e-20)
(-0.17314822 2.1281057 1.5295068e-20)
(-0.18815294 2.0071389 0)
(-0.15985048 2.0492228 0)
(-0.15420063 2.0726217 0)
(-0.15421896 1.8560954 0)
(-0.091069891 1.7819299 0)
(0.48079366 1.9940754 7.8498586e-19)
(0.4992076 2.0222406 3.4153244e-19)
(0.59498455 2.6454182 -2.3091237e-19)
(0.38171581 2.7744461 5.6656033e-19)
(0.40109583 2.2466734 2.8116325e-20)
(1.3947098 0.028072654 0)
(1.3322116 0.023952396 0)
(1.1586053 0.019263051 0)
(1.9778772 0.01214846 0)
(1.9593252 0.0087002935 0)
(1.7214882 0.016351327 0)
(1.623553 0.016478747 0)
(1.6406148 0.023358041 0)
(1.342911 -0.040342823 9.477814e-19)
(1.1058176 -0.02761467 -1.1472715e-18)
(1.2946416 -0.044240223 -1.0642032e-18)
(1.1889337 -0.054557127 1.4243613e-18)
(0.9845756 1.7325108 0)
(0.87272342 1.8831761 6.1885275e-19)
(1.126971 1.5935055 2.9129827e-19)
(1.1834309 1.5954291 -3.8795591e-19)
(1.278219 2.7178359 3.7573854e-19)
(1.074976 0.14928275 8.3900417e-19)
(1.4542497 0.21213291 0)
(1.5065238 0.29669253 -5.5928399e-19)
(1.4785958 0.26418807 -2.2387072e-20)
(1.4014841 0.11687427 0)
(0.23495746 2.9359313 7.7216104e-19)
(0.12001036 2.8230369 -1.8578261e-18)
(0.052865754 2.3686488 1.1865502e-18)
(0.082098015 0.09518282 -6.0103005e-19)
(0.37522718 3.4740845 -9.3351977e-20)
(0.24097418 3.3772447 0)
(0.25378184 3.4429686 1.3161894e-19)
(0.27813532 3.0929895 -1.9763751e-18)
(0.41189254 3.1807785 0)
(0.014844459 3.1191359 6.5814622e-20)
(0.0180932 3.1325329 -7.1157144e-19)
(0.033177503 3.1175533 1.10595e-18)
(0.04054951 3.1488715 0)
(0.038728209 3.157965 0)
(1.3626187 2.8140667 0)
(0.72765147 1.0877536 -6.9089612e-19)
(1.3473493 1.3617999 -9.2264319e-20)
(1.2579965 1.4124888 0)
(1.0899265 1.2826824 -9.2372087e-20)
(1.3704699 1.1899108 4.632167e-20)
(0.46466924 0.54164294 -1.4062273e-18)
(0.95036392 0.44290928 -4.0939587e-20)
(0.91102198 0.38198243 6.1975373e-19)
(0.77705248 0.56699908 4.5741881e-20)
(0.67190593 0.52085316 -1.893041e-18)
(0.90169378 0.48713525 0)
(0.9354924 0.5836631 1.0082833e-18)
(0.95746672 0.55220718 0)
(0.83567542 0.52986737 0)
(0.80820621 0.46224731 0)
(1.0415414 0.8193475 5.5342756e-19)
(1.5242055 0.40649758 -6.0045407e-19)
(1.5413855 0.57208426 0)
(1.5587143 0.53829979 0)
(1.0122836 0.3051612 9.256469e-19)
(1.063931 0.72269136 -5.5946178e-19)
(0.99747049 0.6965676 9.8430096e-19)
(1.2346712 0.53484626 -1.0097515e-18)
(1.281312 -0.026466313 6.0220721e-19)
(1.2561428 -0.011052888 -6.0176132e-19)
(1.0662035 -0.01807793 0)
(1.3895486 0.059579157 0)
(1.35885 0.049488013 -5.9235395e-19)
(1.19119 0.055226492 5.8605546e-19)
(1.7926839 -0.012823515 0)
(1.6804294 -0.033566182 0)
(1.9061426 -0.0080771038 0)
(1.6723429 -0.014850675 0)
(1.9411823 0.0045464828 0)
(1.9305905 0.0032254942 0)
(0.08361794 1.8525529 0)
(0.061433405 1.8159308 0)
(0.15479043 1.8127664 1.9017164e-19)
(0.31832189 1.9767845 2.3363894e-19)
(0.18929387 1.9665967 5.2647378e-19)
(0.21341878 1.9896816 -8.4403258e-19)
(0.19980794 1.8548294 0)
(0.14841878 1.9557539 8.9938471e-20)
(0.13124428 1.9445504 0)
(0.37124603 2.203356 -3.8966393e-20)
(0.35926684 2.5093454 4.5608762e-19)
(0.21491092 1.8946099 -8.061713e-20)
(0.31221159 1.8459994 1.4355234e-19)
(0.24676931 1.8289191 -1.1689265e-19)
(0.33803006 1.7612662 1.1870711e-19)
(0.25836391 1.9337852 0)
(0.31151804 1.9514232 -4.7691428e-20)
(0.063562263 2.4435167 2.391377e-20)
(0.04414216 2.8590418 0)
(0.062392382 2.5520781 9.0388944e-21)
(0.060407844 2.560279 0)
(0.064556829 2.8721133 -1.2060909e-19)
(0.053643494 2.9120377 0)
(0.07873751 1.8053177 2.1046522e-19)
(0.11103343 1.9244239 0)
(0.093568312 1.7844286 0)
(0.070784215 1.7271369 -2.3889579e-19)
(-0.0096690154 2.8755974 1.1149884e-20)
(0.022587645 2.8741516 -2.6645768e-20)
(-0.0045733261 2.9291554 -2.7741267e-22)
(-0.15083951 2.3189768 -1.425692e-19)
(-0.052465156 2.1468029 -9.2415609e-20)
(-0.045893214 1.6559745 0)
(-0.058076015 1.629754 0)
(0.11893465 2.0037137 -2.1765071e-19)
(0.1193772 1.8574596 -2.622958e-19)
(0.12367453 1.9358419 3.1709467e-19)
(0.11308831 2.0061394 0)
(-0.22196315 2.3937452 1.1734524e-19)
(-0.18854367 2.5269236 -4.1421191e-20)
(-0.20633464 2.5441408 1.5407134e-20)
(-0.20343317 2.2843782 1.6857467e-19)
(-0.21882393 2.6598134 4.6452877e-20)
(-0.20320818 2.6708806 -1.9791271e-19)
(1.254022 -0.056639825 -7.8250877e-19)
(1.2654708 -0.058447016 8.5499149e-19)
(1.1139372 -0.068184484 0)
(1.4380524 0.009150298 1.4082579e-18)
(1.2154115 -0.043748694 -1.5818757e-18)
(1.166574 -0.047463302 1.8026369e-18)
(1.4469353 0.037178211 -1.9413519e-19)
(1.3616133 0.066086912 0)
(1.3571421 0.067431589 6.8253621e-19)
(1.2783799 0.076765345 -6.7594264e-19)
(1.529274 0.089552324 -4.4672757e-20)
(1.5290744 0.071108591 3.7765803e-19)
(1.6482899 0.085525986 0)
(1.7331646 0.070250308 -1.4787267e-19)
(1.657182 -0.00081283256 0)
(1.5326339 -0.016304556 0)
(1.8101506 -0.014815031 0)
(1.6212831 -0.036974712 0)
(1.7782556 0.015039233 2.8513277e-19)
(1.7759679 0.0003393743 -5.8635256e-19)
(1.7194669 0.059801264 -2.9428953e-19)
(1.7338287 0.061136995 -3.3612973e-19)
(1.6576648 0.10651204 7.0547066e-19)
(1.5173189 0.12749023 0)
(1.5305389 0.17922271 0)
(-0.20313394 2.3659207 5.4940384e-20)
(-0.16690143 2.2605672 1.6697631e-21)
(-0.19708478 2.2748726 0)
(-0.13459558 2.403363 -5.6879831e-20)
(-0.11736846 2.3132057 -2.9106575e-21)
(-0.1108363 2.3560268 3.5885759e-21)
(-0.15247335 2.7526461 -1.5798468e-19)
(-0.18213549 2.6359294 6.1486105e-21)
(-0.20666406 2.6553257 -3.6703715e-20)
(-0.11666561 2.6614814 7.4162122e-20)
(-0.11350934 2.6827457 -8.6088313e-20)
(-0.24408772 2.0700456 8.6196182e-22)
(-0.23105388 2.1663633 -5.4120234e-20)
(0.48200785 1.8855623 -3.7095363e-19)
(0.44237594 1.7978278 -1.7772025e-19)
(0.84018422 1.8978174 -6.0021485e-19)
(0.66723644 1.9857968 -3.2980808e-19)
(0.69275413 1.9902965 0)
(0.64592349 2.6081532 1.9967408e-19)
(0.70273566 2.6239061 3.3634836e-19)
(0.44900398 2.7067305 1.126039e-19)
(0.45754161 2.7101 -4.3290144e-19)
(0.54513545 2.6397268 4.9786604e-19)
(0.55602212 2.6625429 0)
(0.4866588 2.7207823 -5.2392228e-19)
(0.22353806 2.7873417 9.6968338e-19)
(0.33316209 2.7773934 -4.7523853e-20)
(0.26978266 2.8630237 -1.3609513e-18)
(1.0271988 2.5532411 7.5818594e-19)
(0.89729557 2.5670878 0)
(1.9489726 0.017936352 1.7204303e-20)
(1.6487175 0.025263575 -1.4713606e-20)
(1.6653127 0.026595976 -2.6280931e-19)
(1.8647231 0.026971324 2.6350192e-19)
(1.9801073 0.021204629 0)
(0.87661054 1.6714218 0)
(0.84113811 1.5501703 0)
(1.0087109 1.4589658 0)
(0.86643893 1.474461 0)
(1.2849449 2.7523302 8.3792186e-23)
(1.1956081 2.5804286 0)
(0.94040816 2.2821097 3.0795523e-21)
(0.88252368 2.5455794 0)
(0.99941376 2.6191904 -2.8853486e-19)
(1.0281324 2.6060266 1.9720438e-19)
(1.1118301 0.18461448 0)
(1.0612178 0.21356088 2.337635e-19)
(1.2042182 0.12208231 1.2953598e-18)
(1.1195245 0.12081143 -4.8817296e-19)
(1.0673851 0.083234758 -1.5196755e-18)
(1.4379825 0.31629392 -1.1267785e-18)
(1.314892 0.3869793 -2.884211e-20)
(1.220275 0.34762744 1.2193499e-18)
(1.3468486 0.27946686 1.0106029e-18)
(1.2769865 0.15600088 -1.7228746e-18)
(1.2404477 0.19009445 2.1706466e-19)
(1.2773123 0.27271226 -4.6435416e-19)
(1.253972 0.25282754 0)
(1.3747541 0.16518209 8.4800779e-19)
(1.4303378 0.22367567 0)
(1.4064727 0.27160197 0)
(1.4877588 0.21897334 3.5253647e-19)
(1.5035926 0.24142099 -2.3946256e-20)
(1.4517834 0.32422574 -1.9909254e-19)
(1.4791365 0.30448181 0)
(1.5040192 -0.020658409 7.0975747e-19)
(1.7041817 0.041836888 8.7286565e-19)
(1.6778755 0.010839155 -6.7547624e-19)
(1.6489042 0.048612076 -5.9664727e-19)
(1.4880949 0.0097883582 -1.0122374e-18)
(1.3412013 0.070985497 0)
(1.3559113 0.028557201 0)
(1.1907349 -0.020412805 -6.5667626e-19)
(1.1496207 0.0014715416 2.6622631e-19)
(1.5529275 0.076714 8.9668609e-19)
(1.5639355 0.17999895 -1.0328007e-18)
(1.5379266 0.18801242 9.4000071e-19)
(1.5162499 0.14518989 0)
(1.5913673 0.14853747 0)
(1.6447588 0.11342586 -4.0024317e-19)
(1.6366709 0.089181082 -7.3032842e-19)
(0.73641469 1.4840218 1.057098e-19)
(0.82233932 1.8342668 -1.3229857e-19)
(1.1859551 2.7853649 -1.2100788e-19)
(1.3041807 3.1380714 1.2952867e-20)
(1.3484196 2.8320574 -2.3996997e-19)
(1.4036881 2.9008544 -6.7545284e-20)
(1.276171 2.5773158 2.715152e-20)
(1.3369276 3.0623179 -4.3565135e-20)
(1.3441639 3.0796664 1.4242186e-19)
(1.3235287 3.3467496 -1.3799409e-19)
(1.4414506 3.1146313 1.42388e-19)
(1.4593965 3.0435578 0)
(0.73485813 1.1563835 -5.7121751e-20)
(0.27438403 1.3787194 7.5700889e-19)
(0.64095753 0.74175128 9.3402957e-19)
(0.4119114 0.33291567 1.0811124e-18)
(0.68624624 0.56928422 1.059256e-18)
(0.72733448 0.66192286 -1.7363871e-18)
(0.70780318 0.68197413 1.4064154e-18)
(0.62574038 0.59514121 -5.5087269e-19)
(0.5529026 0.49516092 1.2525142e-18)
(1.0376651 0.34782144 -5.1974599e-19)
(0.98230503 0.38970307 0)
(0.9533412 0.34908675 1.8451002e-20)
(0.94371134 0.70358585 5.3867896e-19)
(0.91634415 0.66439551 -1.9592542e-18)
(0.78021654 0.67762455 3.0769011e-20)
(0.81972328 0.64002308 0)
(0.84483093 1.0253361 5.4082921e-19)
(1.0611154 1.0253253 4.3823459e-19)
(0.98622923 1.1542258 -5.0817788e-19)
(1.114891 1.0476495 -1.8624662e-19)
(1.225515 1.1184373 -3.3416982e-20)
(1.1903776 1.1190002 3.3729286e-20)
(1.1096779 0.83732537 -9.2823213e-19)
(1.1613392 0.94149083 1.7472345e-19)
(1.268897 0.94519948 0)
(1.2919292 0.89821562 -2.4415983e-19)
(1.3344405 0.41902577 2.9395822e-19)
(1.4686157 0.41706044 3.5861583e-19)
(1.4136474 0.37555685 4.7296796e-19)
(1.3008687 0.49231803 -6.0014471e-19)
(1.3698542 0.54700627 0)
(1.4174768 0.53679309 0)
(1.1900225 0.48288093 1.1080597e-20)
(1.1297879 0.38576534 0)
(1.1634246 0.35943673 6.0036674e-19)
(1.2010481 0.36720374 -2.3258474e-20)
(1.2170386 0.57296578 2.6457625e-18)
(1.1413621 0.6602173 7.2940599e-19)
(1.1428608 0.59877189 -8.2024836e-19)
(1.0856114 0.58616256 8.8412626e-19)
(1.0469777 0.59504538 5.3853765e-19)
(1.0046449 0.55977452 -5.2761302e-19)
(1.6268344 0.040670468 4.8254349e-19)
(1.926643 0.02427468 0)
(1.8905868 0.032978276 3.2144486e-19)
(1.6502894 0.038798372 -7.2550816e-19)
(1.9008906 0.006814976 3.613596e-19)
(1.8556019 -0.015628694 -7.6153095e-19)
(1.6732267 -0.029090383 0)
(1.5678339 -0.022914348 -1.513878e-19)
(1.831382 -0.01101512 3.7721105e-19)
(1.6646482 -0.013090465 -1.926273e-19)
(1.5976918 -0.015140791 1.4293157e-19)
(0.036775929 1.756747 0)
(0.078819558 1.7659655 0)
(0.059312146 1.8088082 0)
(0.027692789 1.7674768 0)
(0.10075153 1.8446731 -4.0107603e-19)
(0.10259454 1.8255867 1.3234103e-19)
(0.11630016 1.8930215 6.7730413e-20)
(0.11182736 1.8045272 -1.0565819e-19)
(0.11724094 1.878499 2.4992227e-19)
(0.11010714 1.8757968 -1.9185387e-19)
(0.10091525 1.8309263 -2.0202536e-20)
(0.096497204 1.841236 2.7748131e-19)
(0.086694815 1.802464 4.0264399e-20)
(0.09144992 1.8051672 3.2630558e-20)
(0.080110587 2.4922252 -8.8896148e-21)
(0.087595253 2.5323408 0)
(0.13879961 2.2466343 2.8969883e-20)
(0.12428663 2.0283412 -2.097002e-20)
(0.25926465 2.2226347 -3.6101288e-20)
(0.22771439 2.6056369 0)
(0.27214536 2.59295 -4.0574992e-19)
(0.3229956 2.493048 2.917628e-19)
(0.21554128 2.1848358 -7.3089195e-20)
(0.16378511 2.3439895 7.8725961e-20)
(0.15498056 2.48432 0)
(0.093046501 2.2290831 1.8915801e-19)
(0.03739234 2.6182185 2.3011655e-19)
(0.061906576 2.4190147 0)
(0.043213955 2.6442138 -1.7208304e-20)
(0.064171478 2.4786119 -7.2508238e-20)
(-0.02179094 1.7408355 -3.9469668e-20)
(-0.053935985 1.7233395 6.0859171e-19)
(-0.075469389 1.7664338 -1.5293536e-19)
(-0.039651779 1.814897 -2.3455036e-19)
(0.037501431 1.8060622 0)
(-0.12543976 1.7359782 0)
(-0.11928167 1.7538431 -1.2652571e-19)
(-0.16023449 1.7742523 4.0119929e-20)
(-0.13834675 1.7465685 0)
(-0.0920175 1.6818293 -1.0334591e-19)
(-0.087982325 1.7012123 1.9832552e-19)
(1.5531472 0.040396925 0)
(1.5389096 0.039310498 -6.3148897e-20)
(1.8506687 0.024274365 -4.8913977e-19)
(1.700269 0.041138785 0)
(1.5280107 0.038751129 0)
(1.8323598 0.016950408 1.6985583e-20)
(1.8430254 0.016423145 6.855561e-19)
(1.7196668 -0.017596847 9.1031181e-19)
(1.608618 -0.033645349 0)
(1.5293395 -0.031598483 0)
(1.6960411 -0.005628158 4.8775867e-19)
(1.5457024 -0.019341226 0)
(1.518384 -0.035880844 0)
(-0.25988997 2.3431828 0)
(-0.2562105 2.1966854 -1.492748e-20)
(-0.25832581 2.2857581 -2.5665191e-20)
(-0.19356929 1.8503318 0)
(-0.27322017 2.113832 -6.1202166e-20)
(-0.25641424 2.0237638 1.3122413e-20)
(-0.21689975 1.8914723 0)
(0.49368009 1.9002784 0)
(0.4413336 1.6825603 2.7057541e-19)
(0.40362044 1.7012495 0)
(0.53000605 1.7235633 -4.3898207e-19)
(0.63003289 1.9003863 0)
(0.56456175 1.8410431 2.3591884e-19)
(1.1160497 2.8092119 -1.4831047e-20)
(1.0477986 2.5726337 -8.7363842e-19)
(1.0432382 2.4650829 9.7299558e-19)
(0.92438537 2.5539139 2.6588386e-19)
(0.91457199 2.6123621 0)
(0.97908052 2.5933151 0)
(1.0020403 2.5575393 0)
(0.98242293 2.5542423 -9.615924e-19)
(0.73784942 2.5545555 -3.2213938e-19)
(0.86307411 2.5825855 -8.0993525e-20)
(0.86308594 2.5349611 6.4806048e-20)
(0.75231628 2.5868232 0)
(0.85346743 2.5788901 0)
(0.80886795 2.5981258 -3.6333112e-19)
(0.80863138 2.6046566 0)
(0.81182097 1.4332039 0)
(0.698782 1.2632569 -4.9844111e-19)
(0.7658991 1.2698058 -3.1041122e-20)
(0.73976611 1.3786411 0)
(0.73012407 1.3527189 7.6348639e-19)
(1.0058197 1.1953875 -1.2332131e-19)
(1.0202753 1.330203 0)
(1.0240437 1.2543677 1.6786048e-19)
(0.84414948 1.3912159 0)
(0.86567828 1.2703169 0)
(1.2543643 2.827826 -2.0633627e-19)
(1.2141266 2.8652579 -1.3887209e-19)
(1.005379 2.3744443 2.2872754e-19)
(1.0048523 2.405329 -8.5688303e-20)
(1.2235109 2.8173152 0)
(1.1805222 2.7726034 1.0938236e-19)
(1.2085546 2.6527837 -2.4390286e-19)
(1.1191492 2.4962683 -2.9797205e-20)
(0.68049591 1.6857355 0)
(0.68630492 1.4704217 -9.3053475e-20)
(0.72545857 1.5271978 0)
(1.1581941 0.2772219 0)
(1.0836861 0.23804273 0)
(1.0111137 0.24900391 0)
(1.1437106 0.31014014 -9.3100262e-19)
(1.0599955 0.28810903 5.478406e-19)
(1.1569196 0.0078682234 -5.2465651e-19)
(1.2190568 0.059944828 0)
(1.1997563 0.084608068 2.3576681e-19)
(1.118832 0.055837307 9.6161843e-19)
(1.0796506 0.029931078 -6.0837556e-19)
(1.3329717 3.4718966 -3.9685691e-19)
(1.3145233 3.4031326 0)
(1.3540298 3.426324 -8.7251351e-19)
(0.53820406 3.5264977 8.3620031e-19)
(0.78619186 3.0571579 -2.1000158e-19)
(0.64158875 1.1716573 7.3636018e-19)
(0.61581922 1.1890316 0)
(0.55058012 0.75696856 -2.2812237e-19)
(0.64328802 1.0129109 1.1422386e-18)
(0.66189428 0.71484975 -3.1769229e-19)
(0.65120967 0.75065812 3.5433446e-19)
(0.82996755 0.73174816 7.4140947e-19)
(0.90538818 0.75572872 0)
(0.83137042 0.85845893 0)
(0.7679317 0.81097695 0)
(1.2654533 0.78048276 8.1456153e-20)
(1.1640008 0.71270855 -6.9538414e-19)
(1.1748792 0.75851156 5.2096466e-19)
(1.2219091 0.67533066 -5.3523874e-19)
(1.3649809 0.66550535 0)
(1.3817008 0.72937743 -1.2157083e-19)
(1.1030905 0.53047711 -1.2188057e-18)
(1.126163 0.51299945 -1.4530317e-18)
(1.0588316 0.51680261 9.5084871e-19)
(1.0507575 0.48860628 -9.868077e-19)
(1.1257892 0.42895225 -7.5911078e-19)
(1.0597899 0.42578419 9.422415e-19)
(1.8787991 0.011236278 -4.0986144e-19)
(1.9013545 0.013102493 8.3190447e-19)
(1.6214955 0.040677797 5.1505246e-19)
(1.6309267 0.044086004 -6.1319109e-19)
(1.7146459 0.038416724 0)
(1.8842468 0.028091192 -1.1054123e-18)
(0.093003701 2.0243119 -1.7765695e-20)
(0.094283241 1.9680224 0)
(0.10331704 2.0148948 -8.9421063e-20)
(0.1065967 2.0069566 7.9800741e-20)
(0.099987499 1.9235678 -1.2005251e-19)
(0.10304837 1.9138524 0)
(-0.22533169 2.242874 0)
(-0.22309255 1.9674705 4.3509536e-20)
(-0.23327827 1.9632236 -3.9374918e-20)
(-0.27118192 2.1160954 -1.6236312e-20)
(-0.25482492 2.3420658 6.6535899e-20)
(-0.24896622 2.3549924 -3.7607901e-20)
(0.65601737 1.6853525 -1.0111055e-19)
(0.61819704 1.7214971 1.1000898e-19)
(0.56915412 1.6976511 2.1925158e-19)
(0.5723441 1.6553673 -1.1622294e-21)
(0.81377147 1.7066768 0)
(0.69292919 1.8126123 4.0774515e-19)
(0.76487978 1.824848 -3.9594242e-19)
(0.60095588 1.7143235 -2.1752357e-19)
(0.67479665 1.643324 0)
(0.72491725 1.6132866 0)
(0.71528315 2.5236603 4.7164219e-19)
(0.71756349 2.5935805 1.0812773e-18)
(0.76350564 2.5936003 -7.771052e-19)
(0.63566658 2.6007831 -1.7475793e-19)
(0.62175267 2.658774 2.5643926e-19)
(0.57564532 2.6290778 -6.5787245e-19)
(1.0924963 2.5549285 -5.2340728e-19)
(1.1364483 2.5787876 0)