/*--------------------------------*- C++ -*----------------------------------*\
  =========                 |
  \\      /  F ield         | OpenFOAM: The Open Source CFD Toolbox
   \\    /   O peration     | Website:  https://openfoam.org
    \\  /    A nd           | Version:  9
     \\/     M anipulation  |
\*---------------------------------------------------------------------------*/
FoamFile
{
    format      ascii;
    class       surfaceScalarField;
    location    "0.13";
    object      alphaPhi0.phase1;
}
// * * * * * * * * * * * * * * * * * * * * * * * * * * * * * * * * * * * * * //

dimensions      [0 3 -1 0 0 0 0];

internalField   nonuniform List<scalar> 
19800
(
-1.0635588e-117
2.7211409e-118
-2.3293014e-117
7.1799434e-118
-1.3502723e-114
3.9558484e-115
-5.1782531e-112
1.3009297e-112
-1.5355568e-109
3.3815854e-110
-3.6860851e-107
7.2299991e-108
-7.3968265e-105
1.3083506e-105
-1.2705555e-102
2.0465372e-103
-1.9023549e-100
2.8117714e-101
-2.5185633e-98
3.4360018e-99
-2.9825193e-96
3.772389e-97
-3.1893387e-94
3.7513232e-95
-3.1043025e-92
3.4016513e-93
-2.7689562e-90
2.8288677e-91
-2.2767861e-88
2.1675996e-89
-1.7348454e-86
1.5361917e-87
-1.2307674e-84
1.0105437e-85
-8.1646242e-83
6.1866902e-84
-5.0851256e-81
3.5322914e-82
-2.9850086e-79
1.8834552e-80
-1.6575879e-77
9.3833755e-79
-8.7394347e-76
4.3633844e-77
-4.3910972e-74
1.8876448e-75
-2.1105265e-72
7.5394779e-74
-9.7395194e-71
2.7335486e-72
-4.3243156e-69
8.6270448e-71
-1.8529743e-67
2.0798475e-69
-8.0125531e-66
1.5352236e-68
-3.5770134e-64
-6.4594494e-66
-1.6328583e-62
-6.5607334e-64
-7.3572095e-61
-4.6316264e-62
-3.1274965e-59
-2.729632e-60
-1.2233086e-57
-1.4111311e-58
-4.3658878e-56
-6.4366233e-57
-1.4120074e-54
-2.6050399e-55
-4.100662e-53
-9.3437991e-54
-1.0578098e-51
-2.9495194e-52
-2.3952468e-50
-8.0994269e-51
-4.6878282e-49
-1.908166e-49
-7.7309263e-48
-3.7957343e-48
-1.0432804e-46
-6.2542213e-47
-1.1432635e-45
-8.39734e-46
-1.0301856e-44
-9.1217763e-45
-7.3564304e-44
-7.9131847e-44
-3.7425193e-43
-5.1790762e-43
-1.3247792e-42
-2.3502282e-42
-3.5637255e-42
-7.5059129e-42
-7.0421476e-42
-1.9697974e-41
-1.0768416e-41
-4.6122828e-41
3.9498856e-43
-8.6009204e-41
1.1428228e-41
-8.561395e-41
7.1726872e-42
-4.5752636e-41
3.4878135e-42
-1.9317289e-41
1.2319368e-42
-7.1914153e-42
3.119735e-43
-2.1552214e-42
4.7142074e-44
-4.154577e-43
3.4123046e-45
-4.2358431e-44
1.0830505e-46
-2.1524299e-45
1.532641e-48
-5.0556198e-47
1.388149e-50
-6.2400414e-49
2.2689889e-52
-5.4565593e-51
6.0168602e-54
-1.241195e-52
1.1680352e-55
-4.6809241e-54
1.6049188e-57
-8.5648855e-56
1.6938214e-59
-1.007299e-57
1.5027262e-61
-8.8956956e-60
1.1923985e-63
-6.525756e-62
1.456649e-65
-4.1756642e-64
6.3705763e-66
-2.8332664e-66
6.3352432e-66
-3.4106125e-67
1.7020546e-66
-1.3455029e-67
5.5860008e-68
-1.5705652e-68
4.5010741e-70
4.0384628e-71
6.6083855e-72
3.8509593e-72
1.613286e-73
1.4620432e-73
3.8976527e-75
4.8176125e-75
8.6366282e-77
1.4071646e-76
1.7967753e-78
3.7065916e-78
3.5361829e-80
8.9482588e-80
6.5715618e-82
1.997152e-81
1.1498547e-83
4.1378418e-83
1.8888489e-85
7.9727774e-85
2.9037754e-87
1.429008e-86
4.163123e-89
2.3807622e-88
5.5447601e-91
3.6812817e-90
6.8307608e-93
5.2716326e-92
7.7452471e-95
6.9694314e-94
8.0378096e-97
8.4763997e-96
7.5848775e-99
9.442099e-98
6.4579967e-101
9.5803739e-100
4.9152583e-103
8.7965924e-102
3.306567e-105
7.2515432e-104
1.9384782e-107
5.3138225e-106
9.7276106e-110
3.4187226e-108
4.0817609e-112
1.9006476e-110
1.3874799e-114
8.9417365e-113
3.6530778e-117
3.4597977e-115
6.4032259e-120
1.0578586e-117
2.9676753e-120
1.9439396e-120
7.2381165e-121
-1.2708024e-117
5.1930324e-118
-1.9872057e-115
1.7411394e-115
-1.3277064e-112
9.5920442e-113
-6.0082883e-110
3.7947869e-110
-1.9933238e-107
1.1118413e-107
-5.195299e-105
2.5883696e-105
-1.1114654e-102
4.9958908e-103
-2.0118196e-100
8.2267143e-101
-3.1497867e-98
1.1796442e-98
-4.3378508e-96
1.4956492e-96
-5.324329e-94
1.6965032e-94
-5.8871162e-92
1.7379897e-92
-5.9155668e-90
1.6202894e-90
-5.4420453e-88
1.3832619e-88
-4.612963e-86
1.0869713e-86
-3.6231225e-84
7.8957464e-85
-2.6497643e-82
5.3202488e-83
-1.8126326e-80
3.3345102e-81
-1.1646519e-78
1.9479458e-79
-7.0559199e-77
1.061814e-77
-4.0455308e-75
5.3995059e-76
-2.2031213e-73
2.5571339e-74
-1.1436406e-71
1.1222742e-72
-5.6792678e-70
4.5161022e-71
-2.7072176e-68
1.6272407e-69
-1.241747e-66
4.9398495e-68
-5.5453925e-65
1.0059268e-66
-2.4973714e-63
-1.3000063e-65
-1.1414663e-61
-3.5961619e-63
-5.2844559e-60
-3.0742754e-61
-2.4088756e-58
-2.0601579e-59
-1.0335949e-56
-1.1931016e-57
-4.0717321e-55
-6.0512591e-56
-1.4588266e-53
-2.7067528e-54
-4.7183651e-52
-1.0719687e-52
-1.3655393e-50
-3.7491045e-51
-3.4993758e-49
-1.1502494e-49
-7.8404431e-48
-3.0650501e-48
-1.511553e-46
-7.0032011e-47
-2.4554597e-45
-1.3507171e-45
-3.2801415e-44
-2.1596942e-44
-3.5480178e-43
-2.8144699e-43
-3.117587e-42
-2.9562697e-42
-2.1722792e-41
-2.4632864e-41
-1.0359219e-40
-1.5344839e-40
-2.7562437e-40
-6.3898209e-40
-4.23045e-40
-1.6857104e-39
-5.4928252e-40
-3.2406721e-39
-5.644315e-40
-6.041288e-39
2.0623527e-41
-9.593431e-39
6.0454901e-40
-9.5842765e-39
5.6783473e-40
-6.0309552e-39
4.2952065e-40
-3.2370739e-39
2.6865565e-40
-1.644945e-39
9.4903664e-41
-6.0461089e-40
1.5218418e-41
-1.278832e-40
1.0718658e-42
-1.3704795e-41
3.6496778e-44
-7.507684e-43
5.7548279e-46
-1.9595381e-44
5.5523824e-48
-2.7445307e-46
6.4938133e-50
-2.402695e-48
1.8419461e-51
-2.940279e-50
3.9790355e-53
-1.3377186e-51
6.1151993e-55
-2.939404e-53
7.1684776e-57
-3.9880986e-55
7.0079847e-59
-3.9915697e-57
6.0369971e-61
-3.2781426e-59
4.7020456e-63
-2.3168779e-61
9.8847606e-65
-1.4756342e-63
2.3573987e-64
-1.8222728e-64
5.5117473e-64
-7.9279274e-65
6.2758576e-65
-1.0040702e-65
6.4702544e-67
-6.8972794e-68
3.565144e-69
4.6564872e-69
5.4714511e-71
1.3741842e-70
1.2115903e-72
3.8120432e-72
2.5893254e-74
1.0302944e-73
5.1594727e-76
2.5893846e-75
9.7375687e-78
6.0253215e-77
1.7419252e-79
1.3030398e-78
2.9410662e-81
2.6235641e-80
4.6697608e-83
4.9191436e-82
6.948242e-85
8.5874641e-84
9.6510652e-87
1.3944019e-85
1.2460951e-88
2.1020744e-87
1.4885883e-90
2.9344723e-89
1.6364676e-92
3.7813893e-91
1.6453572e-94
4.4793352e-93
1.5021011e-96
4.853649e-95
1.2344942e-98
4.7817688e-97
9.0373791e-101
4.251552e-99
5.8174928e-103
3.3797153e-101
3.2383009e-105
2.3744036e-103
1.5249712e-107
1.4519571e-105
5.8955403e-110
7.5722916e-108
1.7911989e-112
3.2733937e-110
3.9983565e-115
1.1241651e-112
6.1337967e-118
2.8678731e-115
3.6253428e-120
5.3736913e-118
1.4607102e-120
-3.4532519e-116
6.0316641e-116
-2.8850548e-113
3.0632007e-113
-1.8661092e-110
1.706529e-110
-8.6202833e-108
6.6944221e-108
-3.0609865e-105
2.0641296e-105
-8.4513328e-103
5.1094681e-103
-1.8841213e-100
1.0287708e-100
-3.5204516e-98
1.7483047e-98
-5.6563017e-96
2.569867e-96
-7.9633695e-94
3.3255757e-94
-9.9661385e-92
3.8386603e-92
-1.1214891e-89
3.9929758e-90
-1.1453561e-87
3.7737017e-88
-1.069827e-85
3.261588e-86
-9.2000422e-84
2.5917787e-84
-7.3258082e-82
1.9017708e-82
-5.4287753e-80
1.293271e-80
-3.7608864e-78
8.1716737e-79
-2.4458888e-76
4.8068431e-77
-1.4990756e-74
2.6345874e-75
-8.6903205e-73
1.3448233e-73
-4.7820222e-71
6.3768501e-72
-2.5065767e-69
2.7922248e-70
-1.2559403e-67
1.1144814e-68
-6.0342222e-66
3.9378154e-67
-2.7875333e-64
1.1371779e-65
-1.2645632e-62
1.8533598e-64
-5.7491594e-61
-8.2348585e-63
-2.6313932e-59
-1.1843203e-60
-1.2165079e-57
-9.3144223e-59
-5.5646384e-56
-6.047415e-57
-2.4029261e-54
-3.4523146e-55
-9.4894096e-53
-1.740842e-53
-3.3962061e-51
-7.6943211e-52
-1.0937915e-49
-3.0021328e-50
-3.1419681e-48
-1.0312881e-48
-7.9671922e-47
-3.0990873e-47
-1.7615817e-45
-8.0712997e-46
-3.3439349e-44
-1.7997021e-44
-5.3376258e-43
-3.3832005e-43
-6.9913314e-42
-5.266209e-42
-7.3971397e-41
-6.6740191e-41
-6.3421053e-40
-6.8155175e-40
-4.3174518e-39
-5.5328464e-39
-2.0402743e-38
-3.3835302e-38
-5.511895e-38
-1.402847e-37
-8.6303725e-38
-3.7301582e-37
-1.105896e-37
-7.2028511e-37
-1.1864871e-37
-1.3278848e-36
4.390571e-39
-2.1605951e-36
1.2715667e-37
-2.1583276e-36
1.143485e-37
-1.3253822e-36
8.7627062e-38
-7.1903981e-37
5.3811272e-38
-3.6415944e-37
1.8769546e-38
-1.3301011e-37
3.0805614e-39
-2.8452388e-38
2.3228395e-40
-3.182445e-39
8.8258938e-42
-1.8861639e-40
1.5949851e-43
-5.5478787e-42
1.6804038e-45
-8.796631e-44
1.3716965e-47
-8.044292e-46
4.3939884e-49
-7.110619e-48
1.0336581e-50
-3.0742014e-49
1.7500906e-52
-7.7324963e-51
2.2615254e-54
-1.188779e-52
2.4350127e-56
-1.3404652e-54
2.2979128e-58
-1.2326353e-56
1.901611e-60
-9.646353e-59
3.9494495e-62
-6.9898695e-61
5.4673509e-61
-1.4429266e-61
2.3188876e-61
-5.6630195e-62
7.076727e-63
-3.855754e-63
4.7670343e-65
-2.9488355e-65
5.7501956e-67
5.0921229e-67
1.2356034e-68
2.5730449e-68
2.8151084e-70
8.7526161e-70
5.9915056e-72
2.5679084e-71
1.1927698e-73
6.7052612e-73
2.2443107e-75
1.5907135e-74
3.9923579e-77
3.4716667e-76
6.6920116e-79
7.0118392e-78
1.0535169e-80
1.3141872e-79
1.5525197e-82
2.2874482e-81
2.1335902e-84
3.6958325e-83
2.7230475e-86
5.534916e-85
3.2123527e-88
7.6658808e-87
3.4837013e-90
9.786707e-89
3.4509716e-92
1.1469761e-90
3.0993205e-94
1.2277131e-92
2.5006804e-96
1.1926503e-94
1.7923364e-98
1.0430919e-96
1.1250459e-100
8.1313957e-99
6.0698078e-103
5.5767032e-101
2.7436775e-105
3.3063346e-103
1.0011355e-107
1.6536056e-105
2.8835148e-110
6.7231574e-108
6.6047774e-113
2.2701693e-110
1.0514719e-115
5.9799133e-113
1.259136e-118
1.1034566e-115
2.1257715e-118
-4.899389e-114
1.1859912e-113
-3.5757608e-111
4.3598534e-111
-2.4156615e-108
2.5603725e-108
-1.092391e-105
1.0133913e-105
-3.7087451e-103
3.0430597e-103
-1.0487723e-100
7.4690742e-101
-2.4648386e-98
1.5761159e-98
-4.8112327e-96
2.801867e-96
-7.9973523e-94
4.2616664e-94
-1.1578056e-91
5.6677767e-92
-1.4841454e-89
6.6941821e-90
-1.7058991e-87
7.103026e-88
-1.7759763e-85
6.8320288e-86
-1.6885485e-83
5.9992331e-84
-1.4763726e-81
4.8367367e-82
-1.1941643e-79
3.5967742e-80
-8.9814308e-78
2.4757733e-78
-6.3102866e-76
1.5818081e-76
-4.1589974e-74
9.3973372e-75
-2.5813184e-72
5.1949866e-73
-1.5142447e-70
2.6706437e-71
-8.4249394e-69
1.2728799e-69
-4.46104e-67
5.5865097e-68
-2.2556928e-65
2.2249908e-66
-1.0923616e-63
7.7765619e-65
-5.0824185e-62
2.1672425e-63
-2.3334316e-60
2.8363912e-62
-1.0709959e-58
-2.2909549e-60
-4.916525e-57
-2.7880361e-58
-2.2680752e-55
-2.112418e-56
-1.0353973e-53
-1.3458425e-54
-4.468936e-52
-7.6141986e-53
-1.7649376e-50
-3.7995855e-51
-6.2993594e-49
-1.6646181e-49
-2.0167375e-47
-6.4192201e-48
-5.7417298e-46
-2.1728946e-46
-1.4390652e-44
-6.4174011e-45
-3.1371823e-43
-1.6389203e-43
-5.858392e-42
-3.5765622e-42
-9.1777811e-41
-6.5680176e-41
-1.1764405e-39
-9.9671593e-40
-1.2138763e-38
-1.2290334e-38
-1.0119674e-37
-1.2194904e-37
-6.7074568e-37
-9.6308059e-37
-3.1222367e-36
-5.7658081e-36
-8.4540304e-36
-2.3669895e-35
-1.3278664e-35
-6.2880225e-35
-1.6634621e-35
-1.2092148e-34
-1.8123888e-35
-2.1948771e-34
6.9895889e-37
-3.6189822e-34
1.9478774e-35
-3.615035e-34
1.722161e-35
-2.1905535e-34
1.3494293e-35
-1.2066572e-34
8.270749e-36
-6.1422283e-35
2.8861779e-36
-2.2488945e-35
4.8772366e-37
-4.8915482e-36
3.9454616e-38
-5.7168588e-37
1.6790037e-39
-3.6730207e-38
3.4978433e-41
-1.2172188e-39
4.0552455e-43
-2.1801948e-41
3.3643638e-45
-2.1700669e-43
8.5530282e-47
-1.9716987e-45
2.1758316e-48
-5.7361452e-47
4.0278394e-50
-1.627707e-48
5.7377536e-52
-2.8138096e-50
6.8612842e-54
-3.5895185e-52
7.1718413e-56
-3.7357603e-54
6.1670303e-58
-3.2672347e-56
1.4629176e-59
-2.8932923e-58
2.6185509e-58
-7.233581e-59
6.0811843e-59
-2.4146726e-59
1.2446618e-60
-1.3398436e-60
7.9055897e-63
-9.6574522e-63
1.1092333e-64
8.1397269e-65
2.4946525e-66
5.3161528e-66
5.6132416e-68
1.9033227e-67
1.1772704e-69
5.6555437e-69
2.3210391e-71
1.4808905e-70
4.3267751e-73
3.5095168e-72
7.6179102e-75
7.6312648e-74
1.2627669e-76
1.5325615e-75
1.9643325e-78
2.8516209e-77
2.8579837e-80
4.9212131e-79
3.8746618e-82
7.874014e-81
4.8739238e-84
1.1664438e-82
5.6609702e-86
1.5959924e-84
6.0369138e-88
2.0103443e-86
5.8714931e-90
2.3212064e-88
5.1664755e-92
2.4433637e-90
4.0724924e-94
2.3286471e-92
2.8400685e-96
1.9917924e-94
1.7238732e-98
1.5116478e-96
8.9048148e-101
1.0023381e-98
3.8143967e-103
5.682599e-101
1.3840212e-105
2.7071194e-103
4.3776881e-108
1.1601941e-105
1.0006012e-110
4.0275645e-108
1.5235157e-113
1.0489476e-110
2.039235e-116
1.8545281e-113
4.7019855e-116
-6.2193372e-112
1.9921057e-111
-3.7874902e-109
5.1719799e-109
-2.7026884e-106
3.2675385e-106
-1.2596777e-103
1.3313804e-103
-4.336595e-101
4.044836e-101
-1.1728719e-98
9.8316275e-99
-2.6451281e-96
1.9979516e-96
-5.3373612e-94
3.5518487e-94
-9.2956344e-92
5.6690431e-92
-1.3954288e-89
7.8206731e-90
-1.8432045e-87
9.5158692e-88
-2.1741047e-85
1.0354506e-85
-2.3159699e-83
1.0180671e-83
-2.2482399e-81
9.116513e-82
-2.0036767e-79
7.4814158e-80
-1.6496557e-77
5.6539145e-78
-1.2614231e-75
3.9496459e-76
-9.0008048e-74
2.5577349e-74
-6.0185926e-72
1.5382328e-72
-3.7857552e-70
8.5956033e-71
-2.2482076e-68
4.4600931e-69
-1.2648422e-66
2.1417292e-67
-6.7639652e-65
9.4486695e-66
-3.4495776e-63
3.7702104e-64
-1.6824851e-61
1.3122173e-62
-7.8765785e-60
3.5801848e-61
-3.6467788e-58
3.9050703e-60
-1.6839519e-56
-4.5697074e-58
-7.7364862e-55
-5.1928926e-56
-3.5540647e-53
-3.8421976e-54
-1.6136419e-51
-2.4150585e-52
-6.9432642e-50
-1.3523178e-50
-2.7326912e-48
-6.6972525e-49
-9.6981468e-47
-2.9077153e-47
-3.0790933e-45
-1.1083698e-45
-8.6706792e-44
-3.6994384e-44
-2.1441007e-42
-1.0747501e-42
-4.6012307e-41
-2.6940604e-41
-8.4402474e-40
-5.7587043e-40
-1.2955635e-38
-1.0336286e-38
-1.6214351e-37
-1.5291798e-37
-1.6265354e-36
-1.8328381e-36
-1.3135502e-35
-1.7638853e-35
-8.4429497e-35
-1.3518151e-34
-3.851083e-34
-7.8974868e-34
-1.0367571e-33
-3.1951173e-33
-1.6214511e-33
-8.4285609e-33
-1.9846606e-33
-1.6062077e-32
-2.1753019e-33
-2.8658112e-32
8.924377e-35
-4.7592182e-32
2.3483313e-33
-4.7538202e-32
2.0588085e-33
-2.8598939e-32
1.6499424e-33
-1.6022329e-32
1.0165636e-33
-8.2374037e-33
3.5767998e-34
-3.0414033e-33
6.2497853e-35
-6.7550327e-34
5.4308881e-36
-8.256647e-35
2.5998452e-37
-5.7658027e-36
6.2245914e-39
-2.1560798e-37
8.0268317e-41
-4.3343895e-39
7.0531846e-43
-4.8616535e-41
1.3365293e-44
-4.450037e-43
3.8178311e-46
-8.5200287e-45
7.6661852e-48
-2.8561397e-46
1.2089418e-49
-5.5260363e-48
1.6330719e-51
-8.0799523e-50
1.9285222e-53
-9.7360072e-52
1.6350884e-55
-9.7078322e-54
5.1858221e-57
-1.1532176e-55
7.426905e-56
-2.0747919e-56
1.4498599e-56
-6.8906258e-57
2.5014827e-58
-3.9463521e-58
1.4107285e-60
-2.8269159e-60
1.9603798e-62
1.336511e-62
4.4020867e-64
1.0211256e-63
9.736094e-66
3.685596e-65
2.0075851e-67
1.0873558e-66
3.9124106e-69
2.8247328e-68
7.2165403e-71
6.6445758e-70
1.2560224e-72
1.4333e-71
2.0562185e-74
2.8527355e-73
3.1560862e-76
5.2552391e-75
4.5265312e-78
8.9674785e-77
6.0428342e-80
1.4170864e-78
7.4758307e-82
2.0707276e-80
8.5275432e-84
2.7908843e-82
8.9154553e-86
3.4572598e-84
8.4819942e-88
3.9182659e-86
7.278712e-90
4.0384983e-88
5.5714823e-92
3.7561933e-90
3.7487956e-94
3.1207317e-92
2.1721992e-96
2.2842757e-94
1.0849561e-98
1.4437133e-96
4.9627466e-101
8.1808585e-99
1.9913171e-103
4.2694663e-101
5.9991822e-106
1.8442218e-103
1.3192856e-108
6.2674933e-106
1.9286691e-111
1.5913635e-108
2.9584927e-114
2.6574495e-111
8.910894e-114
-7.127535e-110
2.8965544e-109
-3.4432673e-107
5.0998795e-107
-2.6410092e-104
3.5729424e-104
-1.2724143e-101
1.5151347e-101
-4.469175e-99
4.6964995e-99
-1.2366135e-96
1.1547271e-96
-2.7711467e-94
2.3540382e-94
-5.1946282e-92
4.0740929e-92
-9.0599583e-90
6.2464454e-90
-1.4207722e-87
8.950197e-88
-1.951277e-85
1.1328922e-85
-2.377088e-83
1.2731566e-83
-2.6037701e-81
1.28663e-81
-2.590923e-79
1.1801989e-79
-2.3612558e-77
9.8953937e-78
-1.9841605e-75
7.6247541e-76
-1.5459722e-73
5.4213173e-74
-1.1223308e-71
3.5673041e-72
-7.6244479e-70
2.1765493e-70
-4.8657728e-68
1.2322247e-68
-2.9273608e-66
6.4660628e-67
-1.6659056e-64
3.1346031e-65
-8.9969247e-63
1.3932866e-63
-4.6260687e-61
5.5875592e-62
-2.2709726e-59
1.9474651e-60
-1.0687062e-57
5.2757496e-59
-4.9762393e-56
5.2453953e-58
-2.3055912e-54
-7.2566504e-56
-1.0578563e-52
-8.011235e-54
-4.8228053e-51
-5.8547324e-52
-2.168284e-49
-3.6331397e-50
-9.2656907e-48
-2.0129405e-48
-3.6253795e-46
-9.8839921e-47
-1.2761456e-44
-4.2517723e-45
-4.0079649e-43
-1.6011813e-43
-1.1137263e-41
-5.267562e-42
-2.7113914e-40
-1.5050618e-40
-5.716671e-39
-3.7026099e-39
-1.0281346e-37
-7.7518682e-38
-1.5431648e-36
-1.3595988e-36
-1.8805979e-35
-1.959409e-35
-1.8269836e-34
-2.279126e-34
-1.4224233e-33
-2.121869e-33
-8.8209453e-33
-1.5729446e-32
-3.9204271e-32
-8.9345402e-32
-1.0417092e-31
-3.5469059e-31
-1.6110507e-31
-9.2437745e-31
-1.9228917e-31
-1.7384743e-30
-2.1020967e-31
-3.0445061e-30
9.4051646e-33
-5.0691292e-30
2.2845441e-31
-5.0631143e-30
2.0008158e-31
-3.0378573e-30
1.6424874e-31
-1.7335709e-30
1.0239903e-31
-9.0383055e-31
3.6581803e-32
-3.3820288e-31
6.6389907e-33
-7.699445e-32
6.2122871e-34
-9.8571505e-33
3.3583385e-35
-7.5060217e-34
9.218593e-37
-3.1689636e-35
1.3162936e-38
-7.0738788e-37
1.2488638e-40
-8.8789607e-39
1.8309156e-42
-8.3256508e-41
5.7243424e-44
-1.2115538e-42
1.2335649e-45
-4.3251862e-44
2.1724203e-47
-9.2836748e-46
3.4011457e-49
-1.5848884e-47
4.6427711e-51
-2.2760361e-49
3.5451759e-53
-2.6400318e-51
1.9715227e-54
-4.3723643e-53
1.6015881e-53
-4.4156835e-54
2.6446475e-54
-1.3001691e-54
4.0008985e-56
-6.425806e-56
2.2597871e-58
-4.4030597e-58
3.189084e-60
2.1754013e-60
7.0364475e-62
1.8011918e-61
1.5252356e-63
6.4645944e-63
3.0935843e-65
1.8838639e-64
5.9474276e-67
4.8351563e-66
1.0825993e-68
1.1243496e-67
1.8580431e-70
2.3967947e-69
2.9965068e-72
4.7106259e-71
4.526442e-74
8.5592259e-73
6.381504e-76
1.4392739e-74
8.3630167e-78
2.2385225e-76
1.0141063e-79
3.2146087e-78
1.1317069e-81
4.2508248e-80
1.1547821e-83
5.1560781e-82
1.0688478e-85
5.7071153e-84
8.8834528e-88
5.7250621e-86
6.5411259e-90
5.1573462e-88
4.2030731e-92
4.1195428e-90
2.4190934e-94
2.8878611e-92
1.3431488e-96
1.9022424e-94
6.5794592e-99
1.1758942e-96
2.4794575e-101
6.107405e-99
7.21566e-104
2.5713065e-101
1.5497441e-106
8.5638618e-104
2.1422001e-109
2.1033818e-106
3.8668965e-112
3.2578609e-109
1.4687142e-111
-7.5071481e-108
3.6928978e-107
-3.5620289e-105
4.3900641e-105
-2.2495326e-102
3.3494478e-102
-1.1332317e-99
1.4981422e-99
-4.0798618e-97
4.7792452e-97
-1.1461268e-94
1.196338e-94
-2.648069e-92
2.4745442e-92
-5.1011197e-90
4.3568214e-90
-8.2924694e-88
6.6120087e-88
-1.2504521e-85
8.9353601e-86
-1.773659e-83
1.141514e-83
-2.2536431e-81
1.3390835e-81
-2.5559098e-79
1.4013631e-79
-2.6208265e-77
1.3243927e-77
-2.4527882e-75
1.1398423e-75
-2.1107845e-73
8.9895991e-74
-1.6804754e-71
6.5266676e-72
-1.2440457e-69
4.376232e-70
-8.6013981e-68
2.7155202e-68
-5.5761396e-66
1.5604914e-66
-3.4015312e-64
8.2967892e-65
-1.9589882e-62
4.0677266e-63
-1.0685463e-60
1.8251437e-61
-5.5377504e-59
7.3747351e-60
-2.7343778e-57
2.5852477e-58
-1.2920391e-55
7.0360139e-57
-6.0345903e-54
7.0677073e-56
-2.7987901e-52
-9.5701614e-54
-1.2793468e-50
-1.055333e-51
-5.7740964e-49
-7.6515042e-50
-2.5615214e-47
-4.6991375e-48
-1.0833323e-45
-2.5733422e-46
-4.2015338e-44
-1.2518427e-44
-1.462922e-42
-5.33115e-43
-4.533338e-41
-1.9812598e-41
-1.2401328e-39
-6.4185699e-40
-2.9659883e-38
-1.8023694e-38
-6.1311562e-37
-4.3498706e-37
-1.0790857e-35
-8.9161712e-36
-1.5804927e-34
-1.5273612e-34
-1.8701089e-33
-2.1421757e-33
-1.751874e-32
-2.4133502e-32
-1.3074487e-31
-2.1667221e-31
-7.7734906e-31
-1.5475116e-30
-3.3455304e-30
-8.5114822e-30
-8.714479e-30
-3.3020478e-29
-1.3242924e-29
-8.4653148e-29
-1.5376477e-29
-1.565837e-28
-1.6643772e-29
-2.6880882e-28
8.3342742e-31
-4.4689029e-28
1.8263751e-29
-4.4633603e-28
1.6070911e-29
-2.6818746e-28
1.3537896e-29
-1.5609108e-28
8.5914245e-30
-8.280512e-29
3.1365731e-30
-3.1534056e-29
5.9424634e-31
-7.3851832e-30
6.0109153e-32
-9.9281044e-31
3.6758206e-33
-8.2411993e-32
1.1478993e-34
-3.8942944e-33
1.7926697e-36
-9.5581324e-35
1.8567463e-38
-1.3362733e-36
2.2744995e-40
-1.3263584e-38
7.5200003e-42
-1.6380462e-40
1.7045052e-43
-5.8066956e-42
3.3993417e-45
-1.358181e-43
6.378119e-47
-2.770119e-45
1.0277389e-48
-4.8920932e-47
6.7597872e-51
-6.6925349e-49
8.3794837e-52
-1.4511067e-50
3.4323496e-51
-1.2240999e-51
3.577967e-52
-2.9866636e-52
3.6169634e-54
-9.5739481e-54
2.4898018e-56
-5.2406415e-56
4.2715031e-58
2.9788423e-58
9.7024042e-60
2.6224815e-59
2.0947391e-61
9.6485698e-61
4.2318137e-63
2.8346225e-62
8.0816644e-65
7.2767031e-64
1.4568475e-66
1.6838626e-65
2.4701354e-68
3.5597139e-67
3.9271596e-70
6.9196127e-69
5.8360119e-72
1.2406925e-70
8.0775217e-74
2.0541491e-72
1.0370009e-75
3.1388716e-74
1.2289145e-77
4.4187893e-76
1.3364724e-79
5.7138245e-78
1.3241663e-81
6.7569548e-80
1.1842131e-83
7.2635224e-82
9.4383296e-86
7.038892e-84
6.7173695e-88
6.0754816e-86
4.4871947e-90
4.7914432e-88
2.870636e-92
3.5886494e-90
1.6353767e-94
2.5222836e-92
7.4873456e-97
1.5310409e-94
2.7292791e-99
7.7109247e-97
7.7971492e-102
3.1795342e-99
1.6146638e-104
1.0317135e-101
2.07299e-107
2.4252913e-104
4.613008e-110
3.3885026e-107
2.1444936e-109
-7.3297246e-106
4.1684682e-105
-3.2617299e-103
3.645292e-103
-1.6642782e-100
2.6835807e-100
-8.8731371e-98
1.2874971e-97
-3.3045582e-95
4.262684e-95
-9.4890752e-93
1.0938602e-92
-2.2242704e-90
2.3039888e-90
-4.4219702e-88
4.1265634e-88
-7.5000715e-86
6.4160033e-86
-1.0838701e-83
8.7091142e-84
-1.4457756e-81
1.0569067e-81
-1.8613549e-79
1.2184041e-79
-2.2013239e-77
1.325003e-77
-2.3437052e-75
1.3006238e-75
-2.2653102e-73
1.1561078e-73
-2.0054095e-71
9.3780632e-72
-1.6371999e-69
6.9801354e-70
-1.2394488e-67
4.7849211e-68
-8.7415743e-66
3.0278702e-66
-5.766876e-64
1.7703711e-64
-3.57137e-62
9.5562059e-63
-2.0830189e-60
4.7464575e-61
-1.147873e-58
2.1534772e-59
-5.9951281e-57
8.7854857e-58
-2.9759653e-55
3.1086951e-56
-1.410552e-53
8.5798377e-55
-6.5933371e-52
9.453162e-54
-3.0549034e-50
-1.0830728e-51
-1.3886067e-48
-1.2187873e-49
-6.1874721e-47
-8.8048217e-48
-2.6977589e-45
-5.341949e-46
-1.1246528e-43
-2.8809794e-44
-4.3096011e-42
-1.3837813e-42
-1.4801934e-40
-5.8246926e-41
-4.5144984e-39
-2.1336684e-39
-1.2129429e-37
-6.7999934e-38
-2.8435593e-36
-1.8752026e-36
-5.7522296e-35
-4.4369265e-35
-9.8901656e-34
-8.9011472e-34
-1.4108682e-32
-1.4886944e-32
-1.616093e-31
-2.0301198e-31
-1.4526944e-30
-2.2104531e-30
-1.0320398e-29
-1.9068553e-29
-5.8360233e-29
-1.306104e-28
-2.4141397e-28
-6.9242142e-28
-6.120826e-28
-2.6136785e-27
-9.0786293e-28
-6.5591408e-27
-1.0218714e-27
-1.1877953e-26
-1.0866816e-27
-1.993735e-26
6.3146958e-29
-3.2938112e-26
1.2096618e-27
-3.2895706e-26
1.0750821e-27
-1.988882e-26
9.3175403e-28
-1.1836832e-26
6.056191e-28
-6.4182084e-27
2.2746376e-28
-2.4995021e-27
4.5280623e-29
-6.0457349e-28
4.9785474e-30
-8.5637936e-29
3.4347708e-31
-7.7517211e-30
1.2056785e-32
-4.0659009e-31
2.0551112e-34
-1.0898173e-32
2.364464e-36
-1.6962491e-34
2.47546e-38
-1.7912132e-36
8.9156009e-40
-1.9086518e-38
2.0605814e-41
-7.0928427e-40
4.7545588e-43
-1.7606314e-41
1.1070559e-44
-4.3954608e-43
2.128046e-46
-9.7918659e-45
1.3826354e-48
-1.5806305e-46
3.7675897e-49
-4.0704351e-48
9.6711428e-49
-5.0072311e-49
5.2091008e-50
-7.2294476e-50
2.9121478e-52
-1.1105259e-51
2.6888766e-54
-5.8760221e-54
5.507647e-56
4.3598434e-56
1.2496576e-57
3.6804264e-57
2.6611476e-59
1.351226e-58
5.339888e-61
3.9523027e-60
1.0110164e-62
1.00799e-61
1.8012922e-64
2.3110535e-63
3.0107922e-66
4.8285114e-65
4.7074183e-68
9.2536545e-67
6.862899e-70
1.6320334e-68
9.2949409e-72
2.6516503e-70
1.1644435e-73
3.9661038e-72
1.342202e-75
5.4498432e-74
1.4140105e-77
6.8554833e-76
1.3497654e-79
7.8530362e-78
1.1538907e-81
8.1302538e-80
8.9939179e-84
7.5280005e-82
6.8476039e-86
6.591233e-84
4.9624425e-88
5.5378777e-86
3.214266e-90
4.3554991e-88
1.7319011e-92
3.0215282e-90
7.5919319e-95
1.7701586e-92
2.7089809e-97
8.684313e-95
7.5246395e-100
3.4931127e-97
1.4865821e-102
1.0962539e-99
2.8377584e-105
2.4377922e-102
5.1162408e-108
3.1883344e-105
2.8045015e-107
-6.4021842e-104
4.1399858e-103
-2.3310276e-101
2.6209728e-101
-1.0707676e-98
1.8306494e-98
-6.142275e-96
9.6821027e-96
-2.3854099e-93
3.3591284e-93
-7.0561972e-91
8.8931751e-91
-1.6901591e-88
1.9186873e-88
-3.4126727e-86
3.5043511e-86
-5.9761743e-84
5.5581621e-84
-9.0754677e-82
7.7664326e-82
-1.1903055e-79
9.5755206e-80
-1.4432394e-77
1.0632097e-77
-1.6914686e-75
1.1229252e-75
-1.8689142e-73
1.1290689e-73
-1.880762e-71
1.0455889e-71
-1.722911e-69
8.7792433e-70
-1.4489229e-67
6.7320548e-68
-1.1257094e-65
4.7364744e-66
-8.1209675e-64
3.0662882e-64
-5.462877e-62
1.8286728e-62
-3.4393978e-60
1.0041686e-60
-2.0334446e-58
5.061665e-59
-1.1324752e-56
2.3255011e-57
-5.9599194e-55
9.5940911e-56
-2.9725236e-53
3.4352478e-54
-1.4117261e-51
9.6778226e-53
-6.5871317e-50
1.2222401e-51
-3.0408109e-48
-1.0668413e-49
-1.3716336e-46
-1.2471246e-47
-6.0143939e-45
-9.0328004e-46
-2.5668293e-43
-5.3924417e-44
-1.0478912e-41
-2.860119e-42
-3.9468551e-40
-1.3514514e-40
-1.3336928e-38
-5.6064258e-39
-3.9943611e-37
-2.0221514e-37
-1.0516955e-35
-6.3332398e-36
-2.4118954e-34
-1.713759e-34
-4.765915e-33
-3.973807e-33
-7.9930393e-32
-7.8015629e-32
-1.1086977e-30
-1.2738552e-30
-1.2257233e-29
-1.6880046e-29
-1.0513214e-28
-1.7726533e-28
-7.0481367e-28
-1.4633274e-27
-3.7505617e-27
-9.5571631e-27
-1.4765854e-26
-4.8529506e-26
-3.6121512e-26
-1.7697879e-25
-5.1833699e-26
-4.2992283e-25
-5.6187674e-26
-7.5186968e-25
-5.8159162e-26
-1.2233414e-24
4.1422153e-27
-2.0129687e-24
6.6234501e-26
-2.0102621e-24
5.9724559e-26
-1.2202127e-24
5.3516541e-26
-7.4899996e-25
3.5908868e-26
-4.2076671e-25
1.3987464e-26
-1.6945929e-25
2.9520002e-27
-4.2616687e-26
3.5611078e-28
-6.3970314e-27
2.7779152e-29
-6.3359263e-28
1.0876745e-30
-3.6713511e-29
2.0188771e-32
-1.0682233e-30
2.6006368e-34
-1.8497658e-32
2.9163312e-36
-2.1419999e-34
9.4871631e-38
-2.4112722e-36
2.2483464e-39
-7.8330327e-38
6.197967e-41
-2.0770796e-39
1.8275584e-42
-6.4836727e-41
4.1491352e-44
-1.837078e-42
1.835096e-46
-3.44426e-44
2.0379929e-46
-1.2625846e-46
2.4039444e-46
-1.0785938e-46
4.9355627e-48
-1.0937278e-47
2.1906827e-50
-1.2598846e-49
3.0608225e-52
-6.6943223e-52
6.7559155e-54
6.5112117e-54
1.5043462e-55
4.9416646e-55
3.1611886e-57
1.7834485e-56
6.273483e-59
5.1490839e-58
1.1726686e-60
1.2960912e-59
2.0578855e-62
2.9291756e-61
3.380021e-64
6.0216976e-63
5.1799512e-66
1.1333385e-64
7.3813337e-68
1.9585798e-66
9.7413932e-70
3.1096905e-68
1.184832e-71
4.5315458e-70
1.319933e-73
6.0444258e-72
1.3355933e-75
7.3462082e-74
1.2268522e-77
8.0770101e-76
1.0591558e-79
8.1420453e-78
8.8935999e-82
7.8209227e-80
7.0862801e-84
7.1923557e-82
5.127454e-86
6.2142769e-84
3.1739878e-88
4.831619e-86
1.6223506e-90
3.2188667e-88
6.9222067e-93
1.8241101e-90
2.4086963e-95
8.7140115e-93
6.4446765e-98
3.4000107e-95
1.1997851e-100
1.023724e-97
2.609792e-103
2.1174982e-100
5.2799418e-106
2.868845e-103
3.3023883e-105
-5.052658e-102
3.6749142e-101
-1.3801813e-99
1.5858154e-99
-5.7919444e-97
1.0250929e-96
-3.6711951e-94
6.2190635e-94
-1.5021327e-91
2.2917596e-91
-4.608559e-89
6.3071391e-89
-1.1365281e-86
1.4020959e-86
-2.3478655e-84
2.6263606e-84
-4.185817e-82
4.2592447e-82
-6.5824167e-80
6.096112e-80
-9.1262487e-78
7.7835301e-78
-1.1098354e-75
8.8681747e-76
-1.2409853e-73
9.1496221e-74
-1.3363952e-71
8.927936e-72
-1.3873906e-69
8.3475303e-70
-1.3264803e-67
7.3172772e-68
-1.1566298e-65
5.8208228e-66
-9.2684088e-64
4.2260288e-64
-6.8659704e-62
2.8108679e-62
-4.7238225e-60
1.71578e-60
-3.0304439e-58
9.6113453e-59
-1.8190358e-56
4.927473e-57
-1.0249332e-54
2.2969715e-55
-5.4381842e-53
9.6010973e-54
-2.7252995e-51
3.48665e-52
-1.2962088e-49
1.006756e-50
-6.0235281e-48
1.4597584e-49
-2.7669788e-46
-8.9785063e-48
-1.2356942e-44
-1.1407414e-45
-5.3252623e-43
-8.2689684e-44
-2.2153813e-41
-4.8726224e-42
-8.810517e-40
-2.5312206e-40
-3.2493917e-38
-1.1728213e-38
-1.0771397e-36
-4.790464e-37
-3.1600519e-35
-1.699601e-35
-8.1357671e-34
-5.2250101e-34
-1.8216547e-32
-1.3864442e-32
-3.5105889e-31
-3.1498821e-31
-5.7363712e-30
-6.0534919e-30
-7.7263883e-29
-9.6552278e-29
-8.2195403e-28
-1.2432666e-27
-6.6835225e-27
-1.2569635e-26
-4.1806796e-26
-9.8798059e-26
-2.0611868e-25
-6.0944226e-25
-7.6086924e-25
-2.9267209e-24
-1.7748211e-24
-1.0227288e-23
-2.435867e-24
-2.3798581e-23
-2.5151751e-24
-3.9656926e-23
-2.5067098e-24
-6.2341307e-23
2.3752419e-25
-1.0464217e-22
2.9712191e-24
-1.0448903e-22
2.7210535e-24
-6.2168712e-23
2.5393541e-24
-3.9484783e-23
1.7760823e-24
-2.3289161e-23
7.2517194e-25
-9.8028616e-24
1.6454017e-25
-2.5816096e-24
2.2122251e-26
-4.1620582e-25
1.9647448e-27
-4.5480634e-26
8.5352992e-29
-2.9002977e-27
1.7186972e-30
-9.1052742e-29
2.5193449e-32
-1.7520656e-30
3.1365703e-34
-2.3413278e-32
9.5685661e-36
-2.732058e-34
2.3221518e-37
-8.322403e-36
7.9090301e-39
-2.3075247e-37
2.9133108e-40
-9.0744909e-39
7.6450373e-42
-3.2160206e-40
5.4618728e-44
-6.8652121e-42
4.274042e-44
-3.7568515e-44
2.5144042e-44
-1.6393077e-44
3.6462921e-46
-1.1107457e-45
2.0702711e-48
-1.0698606e-47
3.3651125e-50
-5.8670634e-50
7.5569298e-52
9.2130609e-52
1.6675381e-53
6.1818356e-53
3.4695668e-55
2.1789097e-54
6.8081487e-57
6.191872e-56
1.2551633e-58
1.5350896e-57
2.166229e-60
3.4129623e-59
3.4882764e-62
6.8887602e-61
5.223468e-64
1.2696991e-62
7.2458325e-66
2.142405e-64
9.2692263e-68
3.309451e-66
1.0871416e-69
4.6723186e-68
1.1593979e-71
6.006069e-70
1.1350155e-73
6.9805482e-72
1.073169e-75
7.5962258e-74
9.8464599e-78
7.9431521e-76
8.5211306e-80
7.9234846e-78
6.770761e-82
7.4377366e-80
4.6969804e-84
6.3640183e-82
2.7310215e-86
4.7255389e-84
1.3507697e-88
3.0236183e-86
5.6244406e-91
1.6638558e-88
1.8920557e-93
7.7113637e-91
4.8337283e-96
2.9003607e-93
8.3370072e-99
8.2978434e-96
1.9922383e-101
1.5525205e-98
4.928944e-104
2.2154806e-101
3.4819364e-103
-3.5629728e-100
2.872546e-99
-7.274557e-98
8.6077083e-98
-4.6233739e-95
5.4536842e-95
-1.8492703e-92
3.3224742e-92
-8.1080054e-90
1.3304314e-89
-2.6030068e-87
3.846514e-87
-6.652451e-85
8.873522e-85
-1.4174142e-82
1.7151321e-82
-2.5941319e-80
2.8613313e-80
-4.172298e-78
4.204547e-78
-5.9999449e-76
5.5241749e-76
-7.7165504e-74
6.5441151e-74
-8.8398851e-72
6.9920574e-72
-9.3219566e-70
6.8082684e-70
-9.4057309e-68
6.2404405e-68
-9.1394145e-66
5.4614725e-66
-8.2958683e-64
4.4985668e-64
-6.9027508e-62
3.3945554e-62