/*--------------------------------*- C++ -*----------------------------------*\
  =========                 |
  \\      /  F ield         | OpenFOAM: The Open Source CFD Toolbox
   \\    /   O peration     | Website:  https://openfoam.org
    \\  /    A nd           | Version:  9
     \\/     M anipulation  |
\*---------------------------------------------------------------------------*/
FoamFile
{
    format      ascii;
    class       volScalarField;
    location    "0.13";
    object      p;
}
// * * * * * * * * * * * * * * * * * * * * * * * * * * * * * * * * * * * * * //

dimensions      [1 -1 -2 0 0 0 0];

internalField   nonuniform List<scalar> 
10000
(
0
-0.00054481392
-0.02585208
-0.069463863
-0.1314719
-0.21117251
-0.30848881
-0.42345344
-0.55625235
-0.70711702
-0.87632119
-1.0642515
-1.2713084
-1.4979411
-1.7446573
-2.0119628
-2.3003895
-2.6104998
-2.9428348
-3.2979157
-3.6762439
-4.0782585
-4.5043056
-4.9546121
-5.4292417
-5.9280953
-6.4508646
-6.9966511
-7.560341
-8.1486966
-8.755426
-9.3778164
-10.01293
-10.656914
-11.305424
-11.953681
-12.596443
-13.2278
-13.841002
-14.429414
-14.986568
-15.506234
-15.982551
-16.410141
-16.784223
-17.100697
-17.356142
-17.547831
-17.673724
-17.732388
-17.723025
-17.645423
-17.499977
-17.287769
-17.01054
-16.670759
-16.271669
-15.817279
-15.312287
-14.762096
-14.172756
-13.550634
-12.902459
-12.235199
-11.55593
-10.870908
-10.185718
-9.5054472
-8.8347369
-8.1777478
-7.5375577
-6.9171008
-6.322817
-5.7481259
-5.1981582
-4.6738702
-4.1756114
-3.7034308
-3.2571925
-2.8366071
-2.4412272
-2.0705353
-1.7239987
-1.4009197
-1.100634
-0.82253817
-0.56598796
-0.3303615
-0.11508545
0.080428182
0.25666491
0.4140626
0.55307576
0.67410989
0.77747632
0.86346745
0.93235129
0.98412559
1.0203658
1.0380586
0.031849338
0.021282642
-0.0073297231
-0.052098334
-0.1144233
-0.19411351
-0.29118402
-0.40578187
-0.53809988
-0.6883526
-0.8568795
-1.0440389
-1.2502396
-1.4759629
-1.7216945
-1.9879508
-2.2753009
-2.5843073
-2.9155275
-3.2695244
-3.6468339
-4.0479344
-4.4732337
-4.92301
-5.3973487
-5.8960564
-6.4185468
-6.9636749
-7.5325956
-8.1232084
-8.7331595
-9.3597581
-9.9997199
-10.6493
-11.304128
-11.959262
-12.609198
-13.247869
-13.868711
-14.465004
-15.030091
-15.557536
-16.041279
-16.475762
-16.856039
-17.177896
-17.437822
-17.632981
-17.761265
-17.821214
-17.812057
-17.73358
-17.586122
-17.370779
-17.089361
-16.744403
-16.339217
-15.877947
-15.365476
-14.807356
-14.209863
-13.579623
-12.923516
-12.248602
-11.561808
-10.869564
-10.177718
-9.4915503
-8.8157245
-8.154282
-7.5106997
-6.8878486
-6.2882765
-5.7141403
-5.1644125
-4.6402721
-4.1423222
-3.6707148
-3.2252704
-2.8056521
-2.4113666
-2.0418418
-1.6964873
-1.374621
-1.0755485
-0.79862281
-0.54317078
-0.30855481
-0.094199831
0.10042905
0.27585576
0.4325511
0.57095519
0.69143969
0.79432893
0.87995469
0.94855833
1.0001335
1.0362589
1.0538438
0.07670355
0.062663615
0.031702987
-0.014160464
-0.0768967
-0.1565137
-0.25323157
-0.36726262
-0.49880677
-0.64816401
-0.8156614
-1.0016655
-1.2066223
-1.4310004
-1.6752978
-1.9400743
-2.2259078
-2.5333829
-2.8631045
-3.2156821
-3.5917044
-3.9917293
-4.4162408
-4.8655962
-5.3399875
-5.8394008
-6.3635857
-6.9123733
-7.4850495
-8.0801403
-8.6957798
-9.3294612
-9.9780188
-10.637643
-11.303872
-11.971591
-12.635043
-13.287882
-13.923321
-14.534353
-15.113976
-15.655403
-16.152247
-16.59868
-16.989532
-17.320408
-17.587712
-17.78856
-17.920811
-17.982983
-17.974245
-17.894378
-17.743737
-17.523387
-17.23513
-16.881545
-16.46602
-15.992829
-15.467116
-14.894745
-14.28228
-13.636758
-12.965451
-12.275715
-11.574702
-10.869157
-10.165247
-9.4684245
-8.7834708
-8.1144708
-7.4648098
-6.837194
-6.2336334
-5.6557515
-5.1042782
-4.5794337
-4.0814641
-3.6103407
-3.1657931
-2.7474003
-2.3545482
-1.9866283
-1.6429886
-1.3228631
-1.0255198
-0.75028228
-0.49645769
-0.26342673
-0.050555703
0.14271357
0.31691192
0.47248853
0.6098802
0.72948767
0.83160164
0.91658226
0.98466277
1.0358581
1.071757
1.0892436
0.13296176
0.11762534
0.085494496
0.038927347
-0.023992939
-0.10340957
-0.19961691
-0.31283955
-0.44336997
-0.59151992
-0.75762164
-0.9420821
-1.14534
-1.3678679
-1.6102059
-1.8729307
-2.1566373
-2.4619568
-2.7895491
-3.1400839
-3.5142361
-3.9126656
-4.3359706
-4.7846544
-5.2590978
-5.7595197
-6.2859324
-6.8379661
-7.4152573
-8.0166446
-8.6404199
-9.2842195
-9.9449958
-10.618958
-11.301542
-11.987417
-12.670509
-13.344075
-14.000885
-14.633427
-15.234154
-15.795739
-16.311307
-16.774643
-17.180292
-17.523658
-17.80107
-18.009652
-18.147271
-18.212456
-18.204366
-18.122763
-17.967957
-17.740925
-17.443385
-17.07789
-16.647913
-16.157903
-15.613261
-15.020297
-14.386085
-13.71821
-13.024564
-12.313046
-11.591323
-10.866554
-10.145241
-9.4331539
-8.7351585
-8.0553472
-7.3969835
-6.7626277
-6.1541362
-5.5728023
-5.019041
-4.4932
-3.9952654
-3.5249445
-3.0817727
-2.6652078
-2.2745042
-1.9088837
-1.5676619
-1.2500236
-0.95514046
-0.68228826
-0.43076234
-0.19989822
0.010965126
0.20238486
0.37486446
0.52890793
0.66495034
0.78335868
0.88447651
0.96860702
1.0360114
1.0866831
1.1222265
1.139551
0.20311023
0.18735983
0.15474121
0.10796944
0.045164271
-0.033804225
-0.12921183
-0.24136046
-0.37056124
-0.51712945
-0.68143939
-0.86389717
-1.0649399
-1.2850768
-1.5248696
-1.7849059
-2.0658197
-2.3682962
-2.6930554
-3.0408506
-3.4124625
-3.8086713
-4.2302285
-4.6778296
-5.1520738
-5.6534186
-6.1821366
-6.7382514
-7.3214727
-7.9309639
-8.5652915
-9.2223183
-9.8991587
-10.592083
-11.296427
-12.006594
-12.716105
-13.417677
-14.103413
-14.765048
-15.394238
-15.982888
-16.523429
-17.009102
-17.434115
-17.793693
-18.084115
-18.302559
-18.446982
-18.516001
-18.508817
-18.42515
-18.265191
-18.02975
-17.720379
-17.339515
-16.890628
-16.378371
-15.808502
-15.187853
-14.524252
-13.826098
-13.102175
-12.361183
-11.61151
-10.860976
-10.116499
-9.3841499
-8.6689351
-7.9749553
-7.3053084
-6.6623058
-6.0474888
-5.4618206
-4.9056548
-4.3789099
-3.8812771
-3.4122364
-2.9710839
-2.5570538
-2.1693053
-1.8068833
-1.4689005
-1.1545162
-0.86285201
-0.5931046
-0.34455202
-0.11648217
0.091738191
0.28072735
0.45103704
0.60310929
0.73736292
0.85421242
0.95403761
1.0371067
1.1036537
1.1536475
1.188727
1.2058449
0.28784203
0.27199683
0.2393551
0.19273169
0.13033918
0.052133175
-0.042205581
-0.15298574
-0.28051495
-0.42514458
-0.5872503
-0.76723164
-0.96555716
-1.182757
-1.4193966
-1.6760919
-1.9535229
-2.2524272
-2.5735987
-2.9178871
-3.2861878
-3.6794268
-4.0985465
-4.5444708
-5.0180586
-5.5200711
-6.0511321
-6.6116487
-7.2016434
-7.8206619
-8.4676462
-9.1408057
-9.8374904
-10.554062
-11.285768
-12.026722
-12.769941
-13.507426
-14.230365
-14.929433
-15.595168
-16.218398
-16.790625
-17.304389
-17.753497
-18.133018
-18.439256
-18.669564
-18.822133
-18.895786
-18.88981
-18.803863
-18.637938
-18.392542
-18.068908
-17.669252
-17.196917
-16.65666
-16.054714
-15.39863
-14.697241
-13.960095
-13.197146
-12.418274
-11.632885
-10.849578
-10.075897
-9.3182493
-8.5817405
-7.870405
-7.1871455
-6.5339175
-5.9118637
-5.3215396
-4.7629342
-4.2355858
-3.7388003
-3.2717247
-2.8334021
-2.4227992
-2.0388326
-1.6804484
-1.3466022
-1.0363392
-0.74870624
-0.48283686
-0.23797787
-0.01337939
0.19164663
0.3776792
0.54527095
0.69493829
0.82705709
0.9420282
1.0402486
1.1220042
1.1875067
1.2366807
1.2711954
1.288043
0.38719442
0.37147004
0.33905459
0.29285353
0.23118635
0.15401017
0.061021625
-0.0480711
-0.17360259
-0.31592106
-0.4753878
-0.6524259
-0.84752247
-1.061205
-1.2940529
-1.546716
-1.8199149
-2.1144445
-2.431179
-2.7710657
-3.1351265
-3.5244603
-3.9402253
-4.3836031
-4.8557677
-5.3578591
-5.8909271
-6.4558189
-7.0530372
-7.6826423
-8.3440984
-9.0360812
-9.7562933
-10.501273
-11.266234
-12.044987
-12.829941
-13.61217
-14.381637
-15.127575
-15.838979
-16.505209
-17.116537
-17.664598
-18.142697
-18.545808
-18.870448
-19.114382
-19.276256
-19.355256
-19.350846
-19.262594
-19.090183
-18.833657
-18.493648
-18.071847
-17.571342
-16.996922
-16.355347
-15.655136
-14.906403
-14.120312
-13.308442
-12.482266
-11.652553
-10.828936
-10.019664
-9.231499
-8.4696857
-7.7380587
-7.0391698
-6.3745246
-5.7447325
-5.1497657
-4.5890944
-4.0617943
-3.5667463
-3.102642
-2.668168
-2.2620399
-1.8829624
-1.5296585
-1.2009271
-0.89568938
-0.61293915
-0.3517736
-0.11132771
0.10916532
0.31035182
0.49285671
0.65725276
0.80404243
0.93364186
1.0464455
1.1427881
1.2229712
1.2872228
1.3354636
1.3693421
1.385849
0.50111283
0.48559022
0.45358358
0.40806691
0.34736322
0.27147676
0.18013253
0.073022634
-0.050175487
-0.18978684
-0.34618705
-0.51981318
-0.71114274
-0.92070452
-1.1490971
-1.3969951
-1.665158
-1.9544393
-2.2657849
-2.6002403
-2.9589683
-3.3432535
-3.7544833
-4.1941315
-4.6637466
-5.1649137
-5.6991781
-6.2679299
-6.8723085
-7.5130684
-8.1903625
-8.9035155
-9.6507481
-10.428931
-11.233351
-12.057541
-12.893191
-13.730207
-14.556946
-15.360699
-16.128368
-16.847291
-17.506048
-18.095077
-18.607111
-19.037193
-19.382391
-19.641265
-19.81325
-19.898139
-19.895706
-19.80545
-19.62655
-19.358274
-19.000298
-18.553348
-18.019914
-17.404708
-16.715007
-15.960594
-15.153377
-14.306747
-13.434516
-12.550292
-11.666596
-10.794383
-9.9427711
-9.1188508
-8.3278513
-7.5733053
-6.8572638
-6.1805149
-5.5429934
-4.9439183
-4.3820667
-3.8559092
-3.3638335
-2.9040662
-2.4748539
-2.0745242
-1.7015439
-1.3544582
-1.0319363
-0.73275605
-0.45584181
-0.20018697
0.035070325
0.25073526
0.44748015
0.62591114
0.78663045
0.93012949
1.0568237
1.1670997
1.2612949
1.3396809
1.4024886
1.4496574
1.4828077
1.4989281
0.62938345
0.61412961
0.58270784
0.538051
0.47853253
0.40419538
0.31475386
0.20992176
0.089409581
-0.047111725
-0.20002518
-0.3697539
-0.55676671
-0.76159651
-0.98484971
-1.2272185
-1.4894969
-1.7725827
-2.0774839
-2.4053459
-2.757472
-3.1353286
-3.5405474
-3.9749319
-4.4404467
-4.9391697
-5.4732216
-6.04469
-6.6555157
-7.3073429
-8.0012159
-8.7373566
-9.5147532
-10.330868
-11.181257
-12.059241
-12.955717
-13.859154
-14.755828
-15.630441
-16.467016
-17.250047
-17.965716
-18.602888
-19.15371
-19.613597
-19.980688
-20.254969
-20.437214
-20.528209
-20.528254
-20.436804
-20.252265
-19.972607
-19.595966
-19.121536
-18.550588
-17.887404
-17.13984
-16.319349
-15.440365
-14.519307
-13.573162
-12.61835
-11.6697
-10.73977
-9.8386379
-8.9737217
-8.1500318
-7.3704826
-6.63637
-5.9475648
-5.3030325
-4.7010685
-4.1395909
-3.61631
-3.1289372
-2.6751833
-2.2528254
-1.8598497
-1.4944468
-1.1549393
-0.83984331
-0.54778357
-0.27764516
-0.028393896
0.20087913
0.41098497
0.60261587
0.77642378
0.93298692
1.0727649
1.1961957
1.3036313
1.3954038
1.4717735
1.5329584
1.578919
1.6112393
1.6269309
0.77173728
0.75683929
0.72609995
0.68246858
0.62434733
0.55177291
0.46448496
0.36223718
0.24474518
0.11168018
-0.037321384
-0.20266641
-0.38481837
-0.58430295
-0.80172355
-1.0377812
-1.2932847
-1.5691585
-1.8664665
-2.1864417
-2.5305081
-2.9003063
-3.297727
-3.7249229
-4.1842918
-4.6784462
-5.21019
-5.7824382
-6.3981657
-7.0600576
-7.770361
-8.5304971
-9.3406311
-10.19918
-11.102264
-12.043186
-13.012049
-13.995616
-14.977517
-15.93895
-16.859901
-17.720793
-18.504393
-19.197443
-19.791538
-20.282974
-20.671817
-20.960542
-21.152099
-21.248873
-21.252045
-21.160944
-20.972848
-20.683864
-20.289587
-19.786537
-19.173892
-18.454945
-17.638138
-16.737161
-15.770112
-14.757653
-13.72118
-12.680933
-11.654739
-10.657077
-9.6989411
-8.7879303
-7.9285614
-7.1227809
-6.3706265
-5.6707717
-5.0208626
-4.4180802
-3.8592552
-3.3411779
-2.8607801
-2.4151834
-2.001681
-1.617876
-1.2616948
-0.93126162
-0.62488546
-0.34116576
-0.078864825
0.16307065
0.38556365
0.58941731
0.77534038
0.94397041
1.095873
1.2315277
1.3513137
1.4556074
1.5446959
1.6188284
1.6782252
1.7228462
1.7542452
1.7694703
0.92787806
0.91336499
0.8834212
0.84096909
0.78440249
0.71379204
0.628914
0.52953244
0.41537129
0.28612565
0.14145218
-0.019042114
-0.19580229
-0.38933651
-0.60023603
-0.82918874
-1.0769944
-1.3445911
-1.6330798
-1.9437482
-2.2781143
-2.6379853
-3.0255034
-3.4431544
-3.8937688
-4.380546
-4.90707
-5.4772387
-6.0951939
-6.7649561
-7.4903073
-8.2743266
-9.1188481
-10.023773
-10.986302
-12.000089
-13.0546
-14.13469
-15.220642
-16.288908
-17.313733
-18.269617
-19.134304
-19.891525
-20.532444
-21.055142
-21.46298
-21.762917
-21.961238
-22.062505
-22.069535
-21.981549
-21.793969
-21.500246
-21.092114
-20.561497
-19.904034
-19.121027
-18.221357
-17.221917
-16.146114
-15.02092
-13.873901
-12.730447
-11.612132
-10.535718
-9.5130074
-8.5513493
-7.6542101
-6.8220634
-6.0531926
-5.3445358
-4.6921129
-4.0916063
-3.5385889
-3.0287663
-2.5582327
-2.1234371
-1.7211809
-1.3486921
-1.0035724
-0.68380848
-0.38756892
-0.11338847
0.13999672
0.37366412
0.58858788
0.78547994
0.96507213
1.1280061
1.2747907
1.4059028
1.5216848
1.6225309
1.7086812
1.7803711
1.8378303
1.8809804
1.9113805
1.9261078
1.0974213
1.083353
1.0543059
1.0131339
0.95827042
0.88982518
0.80758256
0.71132023
0.60078986
0.47570954
0.33575388
0.18055469
0.0096944535
-0.1773083
-0.38101114
-0.60206531
-0.84124532
-1.0994788
-1.377863
-1.6777005
-2.0005767
-2.3484368
-2.723627
-3.1289214
-3.5675781
-4.0434227
-4.560887
-5.1249381
-5.7410717
-6.4149631
-7.1523551
-7.9585027
-8.8376049
-9.7918066
-10.820156
-11.917382
-13.072744
-14.269121
-15.482681
-16.683506
-17.837643
-18.910703
-19.872679
-20.702795
-21.392237
-21.94246
-22.361868
-22.666213
-22.866493
-22.96928
-22.981058
-22.900708
-22.720567
-22.43087
-22.017395
-21.463925
-20.760504
-19.904697
-18.905386
-17.784175
-16.572625
-15.307182
-14.024184
-12.755987
-11.528791
-10.36173
-9.2670903
-8.2512276
-7.3157444
-6.4588294
-5.676329
-4.9627897
-4.3121131
-3.7182315
-3.175198
-2.677534
-2.2203889
-1.7995468
-1.4112969
-1.0525037
-0.72052818
-0.41315939
-0.12855796
0.1348117
0.37822039
0.60271128
0.80921923
0.99847976
1.1711839
1.3278989
1.4691353
1.5953268
1.7067901
1.8038865
1.8868542
1.9559048
2.0112734
2.0528418
2.0821712
2.0963624
1.2799809
1.2664076
1.2383107
1.1985189
1.145507
1.079396
0.99998566
0.90708235
0.80046029
0.67985834
0.54498067
0.39549048
0.231001
0.05107596
-0.14478317
-0.35717659
-0.5868334
-0.83462434
-1.1015927
-1.3890198
-1.6985163
-2.0320956
-2.3922246
-2.7819064
-3.2048045
-3.665359
-4.1688438
-4.7213644
-5.3299948
-6.0023351
-6.7465534
-7.570802
-8.4824619
-9.4869796
-10.586466
-11.777944
-13.051361
-14.387935
-15.75904
-17.126371
-18.444187
-19.66438
-20.744383
-21.656212
-22.392534
-22.96133
-23.375878
-23.672418
-23.867492
-23.964597
-23.983042
-23.917657
-23.755366
-23.485272
-23.083195
-22.517453
-21.770768
-20.833202
-19.712641
-18.438221
-17.054566
-15.612572
-14.161204
-12.742058
-11.386814
-10.116713
-8.9436669
-7.8718627
-6.8997555
-6.0220779
-5.2313204
-4.5189327
-3.8761404
-3.294769
-2.7671232
-2.2864552
-1.8469337
-1.443643
-1.0724633
-0.72993424
-0.41326643
-0.12014075
0.15130577
0.40259615
0.63493611
0.84937781
1.0467415
1.2277201
1.3929639
1.5429973
1.6782694
1.7991618
1.9060186
1.9991109
2.0786744
2.1449118
2.198036
2.2379256
2.2661073
2.2797188
1.4751217
1.462052
1.4349712
1.3966601
1.3456178
1.2819884
1.2055964
1.1162677
1.013798
0.89795713
0.76848095
0.62506463
0.46736826
0.29501922
0.1075876
-0.095454782
-0.31475001
-0.55106134
-0.80533349
-1.0787809
-1.372962
-1.6898499
-2.0319332
-2.402368
-2.8051428
-3.245221
-3.728663
-4.2627073
-4.8562373
-5.5189368
-6.2619612
-7.0970891
-8.035944
-9.0887699
-10.262501
-11.558334
-12.968686
-14.474218
-16.041301
-17.620953
-19.150572
-20.560469
-21.786611
-22.787988
-23.564033
-24.139003
-24.520417
-24.777386
-24.944681
-25.036577
-25.062249
-25.019408
-24.897637
-24.678494
-24.315573
-23.755268
-22.974669
-21.947056
-20.675834
-19.203558
-17.596927
-15.929404
-14.268019
-12.666202
-11.161518
-9.7763978
-8.5205986
-7.3942162
-6.3906992
-5.4997065
-4.7091368
-4.0065113
-3.3797766
-2.8184841
-2.3128896
-1.8549733
-1.4379713
-1.0563342
-0.70559923
-0.38211323
-0.082989592
0.19407551
0.45087645
0.68885817
0.90915078
1.1126792
1.3002004
1.4723496
1.629647
1.7725605
1.9014878
2.016767
2.1187273
2.2075786
2.2835362
2.3468037
2.3975569
2.4356716
2.4626285
2.4756261
1.6823416
1.6698025
1.6438005
1.6070454
1.5580799
1.4970741
1.423864
1.3382943
1.2401924
1.1293592
1.0055563
0.8685203
0.71797643
0.55362301
0.3751051
0.18200176
-0.026187041
-0.25007924
-0.49048119
-0.74846181
-1.0254133
-1.3231488
-1.6440683
-1.991352
-2.3691483
-2.7827799
-3.2389993
-3.7462672
-4.3146158
-4.956692
-5.6868811
-6.5213404
-7.4772786
-8.5716021
-9.8185636
-11.22645
-12.793254
-14.501604
-16.313903
-18.168644
-19.979877
-21.643769
-23.057845
-24.152724
-24.976091
-25.473223
-25.779932
-25.969713
-26.094425
-26.173196
-26.208396
-26.197957
-26.135313
-25.996739
-25.725091
-25.244439
-24.432678
-23.3086
-21.843337
-20.10629
-18.203117
-16.242952
-14.317953
-12.495674
-10.818918
-9.3089591
-7.9702332
-6.7955416
-5.7707532
-4.8784611
-4.1004462
-3.4194248
-2.8197962
-2.2876599
-1.8120419
-1.3835179
-0.99449435
-0.63896721
-0.3122251
-0.010590235
0.26874226
0.52795938
0.76870753
0.9922697
1.1996379
1.3915491
1.5686301
1.7314091
1.8803279
2.0157548
2.1380353
2.2474502
2.3442504
2.4286457
2.5008252
2.5609684
2.6092457
2.6454962
2.6711656
2.6835332
1.9011359
1.8891507
1.8642711
1.8291446
1.7823645
1.7241041
1.6542128
1.5725656
1.4790156
1.3733849
1.2554681
1.1250561
0.98193871
0.82588768
0.65664987
0.47395216
0.27746931
0.066759666
-0.15878327
-0.39997259
-0.65791078
-0.93413237
-1.2308
-1.5509104
-1.8985199
-2.2790547
-2.6996967
-3.1697769
-3.7009506
-4.3081832
-5.0094839
-5.8261683
-6.7824552
-7.9042037
-9.2163234
-10.738566
-12.479478
-14.428602
-16.548015
-18.764199
-20.96134
-22.982509
-24.657209
-25.880112
-26.623206
-26.998907
-27.15286
-27.221325
-27.28736
-27.353111
-27.399815
-27.425844
-27.442824
-27.444716
-27.344065
-27.000867
-26.267102
-25.019835
-23.288036
-21.179738
-18.87051
-16.525259
-14.268755
-12.182945
-10.312616
-8.6730046
-7.2581998
-6.0491578
-5.0204162
-4.1448703
-3.3966289
-2.7526343
-2.1931714
-1.7017367
-1.2654024
-0.87375131
-0.51861152
-0.19378771
0.10538539
0.38240602
0.63984302
0.87962987
1.1031157
1.3113254
1.5050129
1.6847183
1.8508862
2.0038883
2.1440922
2.2717347
2.3871049
2.4904295
2.5818743
2.6616386
2.7298965
2.7867878
2.8324892
2.8668031
2.8911318
2.902861
2.1309771
2.1195501
2.0958489
2.0624305
2.0179213
1.9625071
1.8960587
1.8184726
1.7296148
1.6293291
1.5174542
1.3938321
1.2583095
1.1107446
0.95101955
0.77903146
0.59464278
0.39762868
0.187671
-0.03567633
-0.27311099
-0.52574902
-0.79530538
-1.0843158
-1.396435
-1.7368426
-2.1127542
-2.5339668
-3.0133706
-3.5678795
-4.2191137
-4.9940349
-5.9250962
-7.0495619
-8.4072641
-10.035677
-11.961623
-14.189964
-16.690716
-19.38511
-22.126199
-24.676933
-26.731089
-28.075008
-28.650988
-28.738106
-28.600963
-28.470766
-28.47893
-28.557276
-28.61769
-28.660285
-28.760295
-28.985161
-29.197261
-29.160665
-28.604215
-27.236369
-25.118033
-22.461185
-19.580116
-16.724156
-14.053433
-11.658778
-9.579323
-7.8157648
-6.3436423
-5.1253974
-4.1195492
-3.2863958
-2.5908424
-2.0034376
-1.5003018
-1.0625857
-0.67580633
-0.3289275
-0.013736668
0.27581092
0.54403289
0.7939686
1.0277289
1.2467612
1.4520361
1.644221
1.8237054
1.9907903
2.1457216
2.2887085
2.4199638
2.5396317
2.6479029
2.7449418
2.8308801
2.9058713
2.9700742
3.0236181
3.0666547
3.0989653
3.1219082
3.1329765
2.371315
2.3604639
2.3379985
2.306345
2.2641778
2.2117044
2.1488068
2.0753858
1.9913187
1.8964785
1.7907415
1.6739858
1.5461171
1.4071008
1.2569654
1.0957732
0.92358794
0.74046716
0.54646821
0.34159779
0.12567552
-0.10181314
-0.34187407
-0.59626616
-0.86787511
-1.1611715
-1.4828174
-1.8424137
-2.2533069
-2.7337211
-3.3082367
-4.00916
-4.8778658
-5.9654817
-7.3317219
-9.0398993
-11.146369
-13.68464
-16.646917
-19.968032
-23.492736
-26.883905
-29.564343
-31.01757
-31.183673
-30.689525
-30.018192
-29.560862
-29.595852
-29.797667
-29.876528
-29.827724
-29.932905
-30.514064
-31.286388
-31.855993
-31.726357
-30.256821
-27.501667
-23.977453
-20.273033
-16.744988
-13.567978
-10.824499
-8.534759
-6.6713491
-5.1791265
-3.9929113
-3.0494527
-2.2935117
-1.6797864
-1.172576
-0.74441467
-0.3747331
-0.048359242
0.24566915
0.51510196
0.7652391
0.99961977
1.2204853
1.4292418
1.6266806
1.8131832
1.9889496
2.1539998
2.3083156
2.4518857
2.584746
2.7069268
2.8185125
2.9195729
3.0101969
3.0905084
3.1606177
3.220661
3.2707768
3.3110772
3.3413306
3.3628586
3.3732479
2.6216095
2.6113471
2.5901475
2.5603043
2.5205511
2.4711039
2.4118408
2.3426623
2.2634604
2.1741281
2.0745594
1.9646623
1.84441
1.7138745
1.5732128
1.4226418
1.2624511
1.0930399
0.91490344
0.72856923
0.53450217
0.33299736
0.12402518
-0.093055594
-0.31991089
-0.55972323
-0.81784246
-1.1027169
-1.4270325
-1.8091142
-2.2749404
-2.860742
-3.6161977
-4.6076538
-5.9194639
-7.6509531
-9.9045879
-12.761953
-16.254163
-20.361383
-25.01316
-29.829704
-33.650674
-35.259159
-34.440985
-32.829421
-31.055044
-30.092657
-30.509287
-31.225755
-31.330996
-30.800149
-30.563652
-31.68327
-33.590277
-35.311928
-36.198244
-34.587858
-30.680884
-25.692956
-20.803107
-16.424543
-12.655726
-9.5421511
-7.0691541
-5.1609826
-3.7136106
-2.622298
-1.7961233
-1.1623966
-0.66593496
-0.26603645
0.066797178
0.35353388
0.60884164
0.84255931
1.0611558
1.2685752
1.4670426
1.6576303
1.8407428
2.0163127
2.1840135
2.3434397
2.4941562
2.6357924
2.7680841
2.8908487
3.0039719
3.1074448
3.2012528
3.2854124
3.3600156
3.4251643
3.4809788
3.5275822
3.5650765
3.5932273
3.6133153
3.6230357
2.8813025
2.8716097
2.8517011
2.8237163
2.7864436
2.7400944
2.6845367
2.619671
2.5453927
2.4615934
2.3681679
2.265055
2.1522886
2.0300185
1.8984968
1.7580924
1.6093468
1.4530171
1.2900596
1.1215935
0.94886886
0.77318192
0.59572402
0.41733548
0.23809935
0.056799318
-0.12975801
-0.32771007
-0.54748443
-0.80549077
-1.1267069
-1.5482166
-2.124683
-2.9357674
-4.0934343
-5.7452022
-8.0637297
-11.209102
-15.261469
-20.244334
-26.398027
-33.788044
-39.883561
-41.856213
-38.628123
-35.095549
-31.086328
-29.371789
-30.985312
-33.614209
-33.7506
-31.370255
-29.965909
-31.874081
-36.043112
-39.738918
-43.095987
-41.149885
-34.953976
-27.337059
-20.855779
-15.509701
-11.093241
-7.6243206
-5.0445229
-3.1960607
-1.8984285
-0.99275406
-0.35597305
0.10084359
0.43968957
0.70309408
0.91996867
1.1095991
1.2843448
1.4516856
1.6157901
1.7785111
1.9402289
2.1004005
2.2581511
2.4123552
2.5618302
2.7054772
2.8423478
2.9717064
3.0930287
3.2059174
3.3101397
3.4055591
3.4921187
3.5697978
3.6386462
3.6987777
3.7503127
3.7933417
3.8279782
3.8540015
3.8726164
3.881683
3.1497954
3.1406408
3.1220554
3.0959744
3.0612412
3.0180598
2.9662841
2.9058023
2.836493
2.7582268
2.6708887
2.5744351
2.4689299
2.3545562
2.23163
2.100664
1.962446
1.8180653
1.6689348
1.5168214
1.3638643
1.2125164
1.0654299
0.92528863
0.79445233
0.67440007
0.56506474
0.46391396
0.36455591
0.25491429
0.11494894
-0.087998352
-0.40646503
-0.92546667
-1.7812415
-3.1800275
-5.3994832
-8.7434194
-13.349646
-18.998013
-26.488135
-38.934716
-50.641994
-53.10973
-43.04856
-34.293624
-27.29404
-24.930813
-30.637441
-38.07598
-38.26183
-31.146961
-25.68141
-28.254535
-35.439834
-44.420308
-54.733829
-52.346527
-40.525417
-27.78228
-19.818279
-13.677693
-8.5780568
-4.8214584
-2.2963907
-0.68860308
0.30036327
0.89767814
1.2566982
1.4750519
1.6142348
1.712925
1.7952167
1.8758926
1.9630604
2.060331
2.1684867
2.286476
2.4122384
2.5432988
2.6771364
2.811375
2.9438999
3.0728692
3.196803
3.3146097
3.4254952
3.5289101
3.6244936
3.7120192
3.7913979
3.8626031
3.9256774
3.9807427
4.0279302
4.0673349
4.099083
4.1229603
4.1400818
4.1485189
3.4264724
3.4178257
3.4005857
3.3764494
3.3443208
3.3043885
3.2564838
3.2004652
3.1361724
3.0634369
2.9821188
2.8921625
2.7936147
2.6866422
2.5715932
2.4490846
2.3200899
2.1859833
2.0486102
1.9103873
1.7743689
1.6442709
1.5244362
1.4197238
1.3352395
1.2758645
1.2456424
1.2469046
1.279038
1.3370926
1.4103987
1.4781242
1.5024435
1.411582
1.0636081
0.19492162
-1.6206062
-4.9785346
-10.258617
-16.047086
-22.152174
-43.19155
-72.030229
-74.822595
-57.262167
-22.674955
-21.539157
-14.639525
-29.24632
-50.404563
-50.687496
-29.946656
-15.570336
-22.666244
-23.953645
-58.876026
-76.926779
-74.296159
-45.361499
-23.949889
-17.099792
-10.66849
-4.681467
-0.79804866
1.3572865
2.4267554
2.8805036
3.0164341
3.0002603
2.9191746
2.8206023
2.7312381
2.6652649
2.6296738
2.6262071
2.6532178
2.7070178
2.7828362
2.8756014
2.9805293
3.093256
3.21
3.3276237
3.4435908
3.5559397
3.6632305
3.7644437
3.8589156
3.9461917
4.0260358
4.0983421
4.1631004
4.2203924
4.2703581
4.3131414
4.3488692
4.3776937
4.3993837
4.4149972
4.4228398
3.7107052
3.7025223
3.6866425
3.6644991
3.635048
3.5984658
3.5545424
3.5030889
3.4438828
3.3766973
3.3013434
3.2177095
3.1257728
3.0256324
2.9176174
2.8023677
2.6809346
2.5548964
2.4264672
2.2986402
2.1753363
2.061565
1.9635013
1.8884452
1.8446819
1.8411449
1.8868033
1.9899053
2.1571194
2.392821
2.6991146
3.0745042
3.5141412
3.9937909
4.4166224
4.502287
3.6577062
0.77971598
-5.6912641
-12.818155
-9.1387722
-33.549374
-106.79171
-129.72915
-103.26159
-31.340718
15.248512
11.62696
-28.303858
85.091525
85.374315
-29.282014
10.390069
13.949339
-32.625621
-105.1506
-132.72855
-109.8751
-36.305573
-11.851983
-14.084272
-6.1968315
1.3879895
4.9054233
6.0812593
6.1449697
5.7664213
5.2748296
4.7954838
4.3683389
4.0065207
3.7156857
3.4957572
3.3432841
3.2518123
3.2130849
3.2179958
3.2573348
3.3226039
3.40635
3.5022525
3.6050962
3.7107139
3.8159527
3.9184619
4.016529
4.1090073
4.1951598
4.2745346
4.3469328
4.4122799
4.4706234
4.5221079
4.566921
4.6052411
4.6372252
4.6630698
4.6825256
4.6966194
4.7039082
4.0018432
3.9940542
3.9795494
3.9594533
3.9327681
3.8996639
3.8598712
3.8131225
3.7591157
3.6975494
3.6281514
3.5507008
3.4650431
3.3711543
3.2692562
3.1599032
3.0440975
2.9234717
2.8004564
2.6784705
2.5621874
2.4578234
2.3733653
2.3187037
2.3056652
2.3478029
2.4598603
2.6570078
2.9537133
3.3628376
3.9012056
4.5889258
5.4685993
6.6139653
8.0904422
9.7497152
10.924972
9.8274099
-0.22843174
-9.9478025
15.296121
48.425854
-81.312171
61.90071
121.06732
-422.8458
-414.26361
1286.4695
4655.4155
7397.0401
7409.2861
4678.7292
1298.6534
-416.31305
-425.65678
120.621
59.610406
-84.953458
44.519126
10.105625
-11.959926
-0.95658737
11.209721
12.901472
11.931596
10.290412
8.7468893
7.5038484
6.5208244
5.7345235
5.106061
4.616049
4.2469982
3.9851771
3.8152102
3.721101
3.6873104
3.6996388
3.7457938
3.8154957
3.9004435
3.9940784
4.0913986
4.1887469
4.2834925
4.3738313
4.4585994
4.5370962
4.6089871
4.6741509
4.7326241
4.7845644
4.8301898
4.8697548
4.903502
4.9316455
4.9544281
4.9716155
4.9841893
4.9910042
4.2991869
4.2917114
4.2785855
4.2605866
4.2367931
4.2073415
4.1718738
4.130028
4.0814054
4.0256107
3.9622481
3.8909272
3.8113031
3.7231541
3.6264694
3.5215834
3.4093086
3.2911179
3.1693944
3.0477339
2.9313192
2.827327
2.7453776
2.697928
2.7005312
2.7718872
2.9334531
3.2083849
3.6195049
4.1879622
4.9309406
5.885654
7.1289581
8.8764029
11.542093
15.457631
20.514651
26.121938
25.778199
88.268904
-5.18048
344.08226
223.33039
3510.1523
6748.7431
4233.5411
3028.5193
3914.5299
5672.1637
6968.8265
6975.1494
5685.5542
3923.938
3033.6928
4237.9874
6769.4415
3502.8631
204.37535
339.60516
-13.888776
104.24867
29.371153
29.463714
23.682086
18.439237
14.298178
11.400322
9.4445859
8.0235532
6.9197485
6.0515732
5.3768762
4.8747578
4.5208676
4.2901383
4.1577683
4.100949
4.0999793
4.1385408
4.2036201
4.285097
4.3753048
4.4686993
4.5613613
4.6506307
4.7348292
4.8129271
4.8844188
4.9491808
5.0072599
5.0588769
5.1043455
5.1439914
5.1781589
5.2071778
5.2313406
5.2509651
5.2658637
5.27693
5.2833844
4.6019884
4.594668
4.5829386
4.5671093
4.5463902
4.5208275
4.4899398
4.4532724
4.410325
4.3605739
4.3034498
4.2383455
4.1646694
4.0819047
3.9896797
3.8879345
3.7770862
3.6581979
3.5332689
3.4056821
3.2806831
3.1659497
3.0723392
3.0145923
3.0119376
3.0886795
3.2740936
3.6007524
4.1010566
4.8018805
5.7155715
6.8526986
8.2532667
10.204499
13.669886
19.95967
27.679319
38.011485
69.504708
21.123661
-468.2566
-34.796679
1824.7377
5737.4811
6914.2063
5493.7672
4631.1682
4767.7581
5406.3894
5883.1861
5885.9133
5411.6384
4771.8471
4633.8463
5493.4024
6906.9387
5685.6444
1736.1903
-67.314164
-482.82726
22.475432
76.971914
43.50237
32.091211
23.781807
16.988955
13.098253
10.81945
9.1676583
7.8355043
6.7662431
5.9381982
5.3313678
4.9137747
4.6496514
4.5040675
4.4460822
4.4501164
4.4959234
4.5680146
4.6548985
4.7483252
4.8426181
4.9339943
5.020127
5.0996973
5.1720528
5.2370661
5.2949214
5.345957
5.3906295
5.4294411
5.4628808
5.4914247
5.5155041
5.5354885
5.5518163
5.5643815
5.5739445
5.5802135
4.9092758
4.9019398
4.8916483
4.8781497
4.8607768
4.8394075
4.8134359
4.782326
4.745467
4.7021725
4.6516639
4.5930753
4.5254969
4.4480163
4.3597862
4.2601628
4.148884
4.0262802
3.8935735
3.7533906
3.6103834
3.472012
3.3495842
3.2593943
3.2239507
3.2734018
3.4463162
3.787861
4.3452002
5.1563832
6.2246466
7.4957307
8.7795223
9.9556344
12.709439
22.927054
44.493886
54.302633
68.376665
279.632
1178.0057
4183.7134
4696.6687
5297.7665
5583.1098
5300.2535
4974.2867
4985.9376
5222.9834
5395.9871
5397.2789
5224.4771
4986.9077
4973.4544
5295.6057
5572.693
5273.8057
4681.5272
4194.7457
1108.3857
286.69197
73.57659
61.338813
49.901255
27.54178
16.538629
13.136297
11.520989
9.9310236
8.4360766
7.1934044
6.2414887
5.5670437
5.1259221
4.8671105
4.7427223
4.7123614
4.744511
4.815543
4.9082084
5.0104531
5.1142292
5.2143677
5.3077939
5.3929257
5.4691383
5.5364403
5.5952521
5.646199
5.6900239
5.7274869
5.7593267
5.7862346
5.8088425
5.8276952
5.8432477
5.8560387
5.8661304
5.8741783
5.8804402
5.2195796
5.2121875
5.2036246
5.1927725
5.1791241
5.1623147
5.1416897
5.1166366
5.0864137
5.0501544
5.0068548
4.9553583
4.8943547
4.8224398
4.7381757
4.6401524
4.5271313
4.3983047
4.2536093
4.0942292
3.9233681
3.7472143
3.5762328
3.4268883
3.323745
3.3020571
3.4108583
3.713546
4.2834083
5.1941671
6.4676735
8.0060422
9.161613
8.197018
5.1024559
10.120083
60.77632
99.29384
-766.43988
1670.0665
3552.0815
4419.8165
4712.3454
4972.7798
5135.6464
5076.5938
4971.2859
4970.7653
5057.1518
5127.0276
5127.2506
5057.3376
4970.0898
4968.7924
5071.1919
5126.1314
4957.7852
4696.996
4402.1149
3547.3833
1714.038
-755.43491
108.92119