/*--------------------------------*- C++ -*----------------------------------*\
  =========                 |
  \\      /  F ield         | OpenFOAM: The Open Source CFD Toolbox
   \\    /   O peration     | Website:  https://openfoam.org
    \\  /    A nd           | Version:  9
     \\/     M anipulation  |
\*---------------------------------------------------------------------------*/
FoamFile
{
    format      ascii;
    class       surfaceScalarField;
    location    "0.13";
    object      phi;
}
// * * * * * * * * * * * * * * * * * * * * * * * * * * * * * * * * * * * * * //

dimensions      [0 3 -1 0 0 0 0];

internalField   nonuniform List<scalar> 
19800
(
-0.00010260586
0.00010959336
-0.00013336692
0.00010931314
-0.00016407905
0.00010955207
-0.00019457023
0.00010952825
-0.00022483198
0.00010956545
-0.0002548001
0.00010955119
-0.00028441307
0.00010944555
-0.00031357363
0.00010921309
-0.00034218366
0.00010879965
-0.00037014353
0.00010814607
-0.00039733064
0.0001072072
-0.00042361638
0.00010591344
-0.00044886706
0.00010420711
-0.00047292396
0.00010204182
-0.00049562177
9.9347905e-05
-0.00051679256
9.6050047e-05
-0.00053625779
9.2118878e-05
-0.00055382546
8.74957e-05
-0.00056931389
8.2133476e-05
-0.00058254879
7.5999556e-05
-0.00059335413
6.9071983e-05
-0.00060156234
6.1332587e-05
-0.0006070324
5.2780695e-05
-0.00060964731
4.3424992e-05
-0.00060930102
3.3275523e-05
-0.00060589745
2.2336962e-05
-0.00059949853
1.0681859e-05
-0.00059142105
-7.6022538e-07
-0.00058147947
-1.275615e-05
-0.0005666687
-2.420139e-05
-0.00054784413
-3.5394253e-05
-0.00052583955
-4.6279042e-05
-0.00050065837
-5.7581723e-05
-0.00047271276
-6.9107931e-05
-0.00044253387
-8.0885827e-05
-0.00041077847
-9.2939316e-05
-0.00037826954
-0.00010517455
-0.00034558827
-0.000117282
-0.0003129038
-0.00012887953
-0.00028044796
-0.00013976617
-0.0002484975
-0.00014982075
-0.00021729067
-0.00015895504
-0.00018700344
-0.00016710423
-0.00015774613
-0.00017421963
-0.0001295552
-0.00018027215
-0.00010238288
-0.00018525493
-7.6077281e-05
-0.00018917472
-5.0410729e-05
-0.00019204356
-2.511131e-05
-0.00019393069
9.8205784e-08
-0.00019491836
2.526966e-05
-0.00019487187
5.0457005e-05
-0.00019379236
7.594321e-05
-0.00019182033
0.00010200933
-0.0001888765
0.00012889351
-0.00018489403
0.00015676188
-0.00017986121
0.00018567077
-0.00017377914
0.00021559359
-0.00016665053
0.00024643899
-0.00015850242
0.00027804772
-0.00014938595
0.00031018098
-0.00013936539
0.0003425658
-0.00012852277
0.00037497783
-0.00011697593
0.00040726786
-0.00010491724
0.00043887294
-9.2724844e-05
0.00046896064
-8.0715211e-05
0.00049685987
-6.8984931e-05
0.00052203827
-5.7505055e-05
0.00054408193
-4.6246901e-05
0.0005629716
-3.5401026e-05
0.00057787808
-2.4241967e-05
0.00058793822
-1.2816283e-05
0.00059618854
-8.6343311e-07
0.0006027377
1.0568564e-05
0.00060629712
2.2199625e-05
0.00060681091
3.3123782e-05
0.00060437267
4.3264572e-05
0.00059907878
5.2610251e-05
0.00059103987
6.1150965e-05
0.00058039405
6.8884699e-05
0.00056731423
7.5814437e-05
0.00055198373
8.1952771e-05
0.00053457016
8.7315454e-05
0.00051525695
9.1938201e-05
0.00049423291
9.5868665e-05
0.00047167021
9.9165426e-05
0.00044773642
0.00010186499
0.00042260639
0.0001040356
0.00039643847
0.00010574042
0.00036936823
0.00010703309
0.0003415283
0.00010796954
0.00031303636
0.00010861339
0.00028399454
0.00010901376
0.00025450787
0.00010923085
0.00022466481
0.00010931404
0.00019453712
0.00010929825
0.00016418726
0.00010921762
0.00013361329
0.00010917201
0.00010299084
0.00010890526
0.00010900668
-0.00010257375
0.00014021852
-0.00013321589
0.00013994825
-0.00016377433
0.00014011364
-0.00019422945
0.00013997631
-0.0002245073
0.00013984502
-0.00025455159
0.00013958962
-0.00028428219
0.00013917808
-0.00031362364
0.00013855712
-0.00034249383
0.00013766389
-0.00037078828
0.00013644133
-0.0003983831
0.00013480219
-0.00042516258
0.00013269091
-0.00045098299
0.00013002998
-0.00047568985
0.00012674848
-0.00049911558
0.00012277047
-0.00052109577
0.0001180308
-0.00054143872
0.00011246375
-0.00055995569
0.00010601322
-0.00057645845
9.8636966e-05
-0.00059075984
9.0301116e-05
-0.00060266192
8.0973534e-05
-0.00061199417
7.0666155e-05
-0.00061859766
5.9386549e-05
-0.00062234259
4.7169828e-05
-0.00062314123
3.4072185e-05
-0.00062099076
2.0186632e-05
-0.00061602089
5.7157547e-06
-0.00060778856
-8.9875084e-06
-0.00059658335
-2.3958078e-05
-0.00058181986
-3.8963855e-05
-0.00056354774
-5.3666178e-05
-0.00054173672
-6.8090616e-05
-0.00051691265
-8.2407392e-05
-0.00048937469
-9.6646554e-05
-0.00045955022
-0.00011070923
-0.00042798269
-0.00012450531
-0.00039526949
-0.00013788495
-0.00036191923
-0.00015062872
-0.00032829347
-0.00016250391
-0.00029471888
-0.00017334076
-0.00026149447
-0.00018304544
-0.00022888999
-0.00019156054
-0.00019711438
-0.00019888156
-0.00016631334
-0.0002050234
-0.00013653361
-0.00021005176
-0.00010774531
-0.0002140402
-7.9856802e-05
-0.00021706212
-5.2700126e-05
-0.00021920061
-2.6083472e-05
-0.00022054907
1.582717e-07
-0.00022115898
2.6361315e-05
-0.00022107267
5.2861824e-05
-0.00022029311
7.9830433e-05
-0.00021878664
0.0001074689
-0.00021650933
0.00013595247
-0.0002133725
0.00016538964
-0.00020929632
0.00019582175
-0.00020420953
0.00022721464
-0.00019804323
0.00025943743
-0.00019072748
0.00029229875
-0.00018224351
0.0003255372
-0.00017259852
0.00035885717
-0.00016184523
0.00039194282
-0.00015006481
0.00042444423
-0.00013741708
0.00045585626
-0.00012413557
0.00048558092
-0.00011043746
0.00051307212
-9.647499e-05
0.00053789812
-8.2332726e-05
0.00055975358
-6.8101792e-05
0.00057809935
-5.3750515e-05
0.00059296434
-3.9112434e-05
0.00060429822
-2.4152242e-05
0.00061266461
-9.2279698e-06
0.00061780068
5.433121e-06
0.00062012658
1.9874334e-05
0.00061950596
3.3742521e-05
0.000615936
4.6830083e-05
0.00060950237
5.903826e-05
0.00060033964
7.0311142e-05
0.0005886054
8.0617491e-05
0.00057446858
8.9949645e-05
0.00055812706
9.8295362e-05
0.00053976465
0.00010567839
0.00051956692
0.00011213569
0.00049772539
0.00011771103
0.00047443233
0.00012245641
0.00044985279
0.0001264439
0.00042415482
0.00012973597
0.00039749696
0.00013240272
0.00037001966
0.00013451401
0.00034183877
0.00013614895
0.00031308515
0.00013736401
0.00028385393
0.00013824649
0.0002542325
0.0001388532
0.00022429918
0.00013924193
0.0001941277
0.00013946662
0.00016378083
0.00013956787
0.00013332401
0.00013963848
0.00010278596
0.0001394578
0.00013954405
-0.00010270764
0.00017081777
-0.0001333706
0.00017061423
-0.0001639576
0.00017069488
-0.00019447012
0.00017049129
-0.00022485028
0.00017021926
-0.00025503717
0.00016977749
-0.00028497161
0.00016911659
-0.00031458764
0.00016816913
-0.00034378553
0.00016686268
-0.00037246986
0.00016512609
-0.00040053403
0.00016286347
-0.00042784404
0.00016000208
-0.00045426718
0.00015645321
-0.00047964933
0.00015212749
-0.00050381897
0.00014693954
-0.00052658672
0.00014079949
-0.00054777424
0.00013365087
-0.00056717585
0.0001254146
-0.00058458632
0.00011604734
-0.00059979523
0.00010550954
-0.00061260627
9.3785865e-05
-0.00062281615
8.087919e-05
-0.00063025301
6.6825237e-05
-0.00063476704
5.1683738e-05
-0.00063624184
3.554745e-05
-0.0006346019
1.8548831e-05
-0.00062972295
8.3984708e-07
-0.00062119769
-1.7509384e-05
-0.0006095252
-3.5627845e-05
-0.00059449206
-5.3996019e-05
-0.00057612362
-7.2034285e-05
-0.00055453463
-8.9678934e-05
-0.00052946414
-0.00010747798
-0.00050163717
-0.00012447339
-0.00047148417
-0.00014085974
-0.00043948612
-0.00015650075
-0.00040616048
-0.00017120985
-0.00037199372
-0.00018479541
-0.0003374185
-0.00019707933
-0.0003028215
-0.00020793741
-0.00026855629
-0.00021731032
-0.00023492997
-0.00022518783
-0.00020217117
-0.0002316404
-0.00017043835
-0.000236756
-0.00013981604
-0.00024067342
-0.00011029176
-0.0002435625
-8.1754275e-05
-0.00024559872
-5.4000936e-05
-0.00024695216
-2.6771618e-05
-0.00024777779
2.5661739e-07
-0.00024818641
2.7243725e-05
-0.00024805695
5.4348356e-05
-0.00024739644
8.1897745e-05
-0.0002463352
0.00011016362
-0.00024477325
0.00013935766
-0.00024256509
0.0001696045
-0.00023954459
0.00020093496
-0.00023553952
0.00023327769
-0.00023038513
0.00026649156
-0.0002239422
0.00030036441
-0.00021611796
0.00033460049
-0.00020683405
0.00036885304
-0.00019609537
0.00040274478
-0.00018395601
0.00043585113
-0.00017052755
0.0004676949
-0.00015597893
0.00049775485
-0.0001404955
0.00052554311
-0.00012426377
0.00055061887
-0.00010740788
0.0005722507
-8.9735025e-05
0.00059070368
-7.2206193e-05
0.00060585352
-5.4263382e-05
0.00061767743
-3.5976769e-05
0.00062634103
-1.7891246e-05
0.00063139076
3.818057e-07
0.00063320461
1.8058444e-05
0.00063191067
3.5036246e-05
0.00062758243
5.1160075e-05
0.00062032699
6.6293517e-05
0.00061029262
8.0346198e-05
0.00059764949
9.3257437e-05
0.00058260475
0.00010499306
0.00056535527
0.0001155457
0.00054610878
0.00012492799
0.00052506576
0.00013317576
0.00050243605
0.00014034041
0.0004783989
0.00014649386
0.00045314566
0.00015169945
0.00042684281
0.00015603909
0.00039964789
0.0001595975
0.00037169487
0.000162463
0.00034312259
0.00016472292
0.00031403242
0.00016645629
0.00028452465
0.00016775121
0.0002546922
0.00016868991
0.00022460017
0.00016932854
0.00019432291
0.00016974053
0.00016390212
0.00016998107
0.00013339263
0.00017014138
0.00010282245
0.00017003573
0.00017009985
-0.00010272124
0.00020141888
-0.00013341753
0.00020130301
-0.00016407229
0.00020135172
-0.00019469175
0.0002011055
-0.00022522928
0.00020075781
-0.00025562924
0.0002001823
-0.00028584104
0.00019932544
-0.00031579924
0.00019812807
-0.00034542355
0.00019648805
-0.00037461232
0.00019431192
-0.00040326478
0.00019151602
-0.00043125343
0.00018799103
-0.0004584381
0.00018363518
-0.00048465846
0.00017834699
-0.0005097424
0.00017202439
-0.00053351694
0.0001645735
-0.00055576352
0.00015589655
-0.00057627942
0.0001459301
-0.0005948378
0.00013460517
-0.00061121078
0.00012188333
-0.00062518134
0.00010775942
-0.00063653302
9.2233564e-05
-0.0006450584
7.5351497e-05
-0.00065056733
5.7193416e-05
-0.00065289507
3.787703e-05
-0.00065190674
1.7562434e-05
-0.00064750946
-3.5556596e-06
-0.00063960886
-2.540693e-05
-0.00062804261
-4.7190186e-05
-0.00061278206
-6.9254668e-05
-0.00059397469
-9.0841824e-05
-0.00057157634
-0.00011207633
-0.00054611405
-0.000132938
-0.00051767999
-0.00015290584
-0.00048670817
-0.00017183049
-0.0004537028
-0.00018950628
-0.00041917717
-0.00020573703
-0.00038363931
-0.00022033355
-0.00034757376
-0.00023314411
-0.00031143862
-0.00024407174
-0.00027565087
-0.00025309694
-0.000240556
-0.00026028194
-0.00020645967
-0.00026573487
-0.00017356006
-0.00026965477
-0.00014195487
-0.00027228001
-0.00011163366
-0.00027388285
-8.248443e-05
-0.0002747454
-5.429344e-05
-0.00027513865
-2.6774215e-05
-0.00027529445
3.9733147e-07
-0.0002753578
2.7523572e-05
-0.00027518094
5.4904089e-05
-0.00027477506
8.2865692e-05
-0.00027429809
0.00011170782
-0.00027361776
0.00014165915
-0.00027251655
0.00017284514
-0.00027073221
0.00020529547
-0.00026798886
0.00023892691
-0.00026401792
0.00027356071
-0.00025857858
0.00030891382
-0.00025146954
0.00034465444
-0.00024257414
0.00038037379
-0.00023181627
0.00041562602
-0.0002192055
0.00044992555
-0.00020482986
0.0004827713
-0.00018882724
0.00051365171
-0.0001713759
0.0005420532
-0.00015266098
0.00056753556
-0.00013289067
0.00059000187
-0.00011220311
0.0006089099
-9.1116868e-05
0.00062429652
-6.9654194e-05
0.00063600666
-4.7686293e-05
0.00064409167
-2.5971978e-05
0.0006486672
-4.1893373e-06
0.00064984473
1.6881996e-05
0.00064770895
3.7170112e-05
0.00064238863
5.6474709e-05
0.0006340467
7.4630323e-05
0.00062287262
9.1517842e-05
0.0006090768
0.00010705509
0.00059287218
0.00012119761
0.00057447606
0.00013394127
0.00055411495
0.00014528872
0.00053201395
0.00015527774
0.00050837949
0.00016397652
0.00048342035
0.00017145271
0.00045732239
0.00017779749
0.00043025616
0.00018310299
0.00040237941
0.00018747302
0.00037383748
0.00019100671
0.00034475511
0.00019380331
0.00031523695
0.00019597366
0.00028538427
0.00019760469
0.00025525799
0.00019881462
0.00022495005
0.00019963852
0.0001945116
0.00020017972
0.00016396989
0.00020051792
0.000133386
0.00020072064
0.00010277382
0.00020065019
0.00020066259
-0.000102709
0.00023206167
-0.00013345459
0.0002320493
-0.00016421145
0.00023210186
-0.00019496754
0.0002318623
-0.00022568597
0.00023148172
-0.00025635881
0.00023085328
-0.00028693565
0.00022990322
-0.00031733371
0.00022852779
-0.00034749239
0.00022664425
-0.00037730138
0.00022412077
-0.00040667547
0.00022089109
-0.0004354908
0.00021680487
-0.00046360379
0.00021174823
-0.00049085485
0.00020560017
-0.00051707204
0.00019824202
-0.00054205333
0.00018955381
-0.00056558429
0.00017942671
-0.00058744
0.00016778502
-0.00060738697
0.00015455223
-0.00062515908
0.00013965727
-0.00064051875
0.00012312095
-0.00065321461
0.00010493003
-0.00066300478
8.5142122e-05
-0.00066966149
6.3851213e-05
-0.00067297798
4.119459e-05
-0.0006727682
1.7353757e-05
-0.00066885639
-7.4652323e-06
-0.00066123555
-3.3023941e-05
-0.00064962553
-5.8796194e-05
-0.00063421617
-8.4662325e-05
-0.00061494389
-0.00011011458
-0.00059200039
-0.00013501872
-0.00056555116
-0.00015938425
-0.00053597591
-0.00018248054
-0.00050369107
-0.00020411757
-0.00046916863
-0.00022403073
-0.00043293879
-0.00024196735
-0.0003955509
-0.00025771981
-0.00035755909
-0.00027113403
-0.00031949116
-0.00028213855
-0.00028183222
-0.00029075364
-0.00024503013
-0.0002970828
-0.00020943263
-0.00030133251
-0.00017529111
-0.00030379679
-0.00014273846
-0.00030483329
-0.00011177203
-0.0003048463
-8.2259714e-05
-0.00030425398
-5.3943877e-05
-0.00030345056
-2.6466391e-05
-0.00030276913
5.9135578e-07
-0.00030241637
2.7594849e-05
-0.00030218539
5.4908164e-05
-0.00030208775
8.2957547e-05
-0.00030234673
0.00011211204
-0.00030277372
0.00014264829
-0.00030305309
0.00017471626
-0.00030280285
0.00020834118
-0.00030161351
0.00024341064
-0.00029908686
0.00027968975
-0.00029486203
0.0003168586
-0.00028863857
0.00035448841
-0.00028019978
0.00039210039
-0.00026942745
0.00042918022
-0.00025628585
0.00046517558
-0.00024082866
0.00049954327
-0.00022319345
0.00053174454
-0.00020357864
0.00056130503
-0.0001822216
0.00058779067
-0.00015937747
0.00061081905
-0.0001352323
0.00063021798
-0.00011051509
0.00064578104
-8.5215706e-05
0.00065756882
-5.9475346e-05
0.00066538312
-3.3787995e-05
0.0006694927
-8.2967627e-06
0.00066990395
1.6472023e-05
0.00066678982
4.028393e-05
0.00066033343
6.2930635e-05
0.00065073831
8.4226683e-05
0.00063822621
0.00010402713
0.00062304564
0.00012223821
0.00060544306
0.00013879935
0.00058565793
0.00015372634
0.00056395575
0.00016699273
0.00054056656
0.00017866608
0.00051571777
0.00018882206
0.00048962929
0.00019754061
0.00046249801
0.00020492781
0.00043450385
0.00021110216
0.0004058001
0.0002161741
0.00037652913
0.00022027131
0.00034682056
0.00022351566
0.00031676873
0.00022602807
0.00028646036
0.00022791057
0.00025598719
0.00022928356
0.00022540637
0.0002302194
0.00019474161
0.00023084432
0.0001640677
0.00023118893
0.00013338219
0.00023140452
0.00010270064
0.00023133006
0.00023126391
-0.00010260976
0.00026277592
-0.00013345465
0.00026288732
-0.00016434629
0.00026299407
-0.00019529201
0.0002628129
-0.00022628152
0.00026246953
-0.00025727715
0.00026185033
-0.00028823936
0.00026086793
-0.00031913034
0.00025941718
-0.00034986984
0.00025738396
-0.00038042744
0.00025468007
-0.00041065401
0.00025111729
-0.00044043449
0.00024658655
-0.00046963217
0.00024094978
-0.00049809093
0.0002340613
-0.00052562296
0.00022577395
-0.00055202304
0.00021595305
-0.00057707021
0.00020447282
-0.00060050295
0.00019121735
-0.00062205793
0.00017610815
-0.00064148947
0.00015908945
-0.00065848439
0.00014011495
-0.00067276028
0.00011920509
-0.0006840347
9.6417046e-05
-0.00069203903
7.1855893e-05
-0.00069652201
4.5677214e-05
-0.00069725619
1.8089175e-05
-0.00069403389
-1.0683863e-05
-0.00068671183
-4.0342493e-05
-0.00067520299
-7.0303383e-05
-0.00065942012
-0.00010044457
-0.00063952049
-0.00013001383
-0.0006156282
-0.00015891019
-0.00058800623
-0.00018700542
-0.0005569181
-0.00021357034
-0.00052282582
-0.00023821264
-0.00048624145
-0.00026061531
-0.00044773869
-0.00028046863
-0.00040794553
-0.00029751099
-0.0003674783
-0.00031159897
-0.00032696681
-0.00032264829
-0.00028700443
-0.00033071401
-0.00024812447
-0.00033596311
-0.00021076714
-0.00033869223
-0.00017525052
-0.0003393135
-0.00014175035
-0.00033833212
-0.00011027466
-0.00033631821
-8.0663255e-05
-0.00033386211
-5.2592848e-05
-0.00033151901
-2.5603665e-05
-0.0003297567
8.4315586e-07
-0.00032886415
2.722354e-05
-0.00032856673
5.4015336e-05
-0.00032887953
8.1769024e-05
-0.00033009997
0.00011095521
-0.0003319614
0.00014191987
-0.00033401764
0.00017484731
-0.00033573092
0.00020975548
-0.00033652153
0.0002464974
-0.00033582758
0.00028477334
-0.00033314002
0.00032417474
-0.00032803826
0.00036419002
-0.00032021299
0.00040423764
-0.00030947598
0.0004437
-0.00029574887
0.00048195968
-0.00027909012
0.00051839317
-0.00025962874
0.00055241975
-0.00023760431
0.00058351455
-0.00021331618
0.00061120441
-0.00018706965
0.00063521557
-0.00015924346
0.00065527365
-0.00013057228
0.00067123401
-0.00010117546
0.00068295378
-7.1196104e-05
0.00069049723
-4.1331117e-05
0.00069393987
-1.1741778e-05
0.00069342327
1.6985464e-05
0.00068915514
4.4548937e-05
0.00068136475
7.0723977e-05
0.0006702971
9.5299257e-05
0.00065621562
0.00011811156
0.0006394042
0.00013905205
0.00062014463
0.00015806315
0.0005987499
0.00017512102
0.00057546875
0.00019027272
0.00055056399
0.00020357108
0.00052429658
0.00021509
0.00049689099
0.00022494975
0.00046855174
0.00023326921
0.00043946351
0.00024018574
0.00040979285
0.00024584465
0.00037967138
0.00025039215
0.00034922339
0.00025395866
0.00031857172
0.00025668245
0.00028776828
0.00025871429
0.00025688751
0.00026015822
0.00022596895
0.00026113287
0.00019506503
0.00026174614
0.00016418993
0.00026206697
0.00013336768
0.0002622277
0.00010259008
0.00026210542
0.00026193243
-0.00010245301
0.00029355943
-0.00013338018
0.00029381694
-0.00016441486
0.00029403382
-0.00019556444
0.00029396045
-0.00022682236
0.00029372898
-0.00025817618
0.00029320699
-0.00028960221
0.00029229327
-0.00032107712
0.00029089321
-0.00035253032
0.00028883968
-0.00038388211
0.00028603208
-0.00041505942
0.00028229607
-0.0004459525
0.00027748433
-0.00047639615
0.00027139737
-0.0005062448
0.00026391105
-0.00053530253
0.00025483117
-0.00056335233
0.00024400172
-0.00059014955
0.00023126949
-0.00061542773
0.00021649639
-0.00063889828
0.00019957926
-0.0006602462
0.0001804358
-0.0006791502
0.00015901667
-0.00069528083
0.00013533491
-0.00070830825
0.0001094445
-0.00071790765
8.1454468e-05
-0.00072377209
5.1540928e-05
-0.0007256226
1.9941412e-05
-0.00072320486
-1.3098245e-05
-0.00071631108
-4.7234826e-05
-0.00070485615
-8.1759033e-05
-0.00068882019
-0.0001164802
-0.00066810996
-0.00015072271
-0.00064300481
-0.00018401555
-0.00061382667
-0.00021618493
-0.00058076659
-0.00024663166
-0.00054433448
-0.00027464505
-0.00050510022
-0.0002998481
-0.00046371158
-0.00032185599
-0.00042084517
-0.00034037654
-0.00037726126
-0.00035518078
-0.00033370133
-0.00036620714
-0.00029088786
-0.00037352718
-0.0002494795
-0.00037737142
-0.00021003581
-0.00037813621
-0.00017297052
-0.00037637677
-0.00013852159
-0.00037277919
-0.00010671214
-0.00036812556
-7.7341555e-05
-0.00036323217
-4.999343e-05
-0.00035886929
-2.4063654e-05
-0.00035568628
1.1578037e-06
-0.00035408371
2.6300276e-05
-0.00035370718
5.1994342e-05
-0.00035457407
7.8964789e-05
-0.00035707148
0.00010782799
-0.00036082471
0.000139026
-0.00036521473
0.00017278735
-0.00036949525
0.00020912345
-0.00037285863
0.00024783629
-0.0003745341
0.00028853504
-0.00037383747
0.00033069426
-0.00037019915
0.00037368235
-0.0003632028
0.00041679192
-0.00035258816
0.00045929681
-0.00033825377
0.00050043967
-0.0003202349
0.00053953378
-0.00029872495
0.00057592243
-0.0002739949
0.00060902262
-0.00024641658
0.00063831092
-0.00021635539
0.00066357946
-0.00018451077
0.00068448288
-0.0001514763
0.00070075564
-0.00011744691
0.00071245106
-8.2890242e-05
0.00071959751
-4.8477933e-05
0.00072226251
-1.4409145e-05
0.00072065321
1.8591096e-05
0.00071502361
5.0175176e-05
0.00070565354
8.0096709e-05
0.00069284253
0.00010811233
0.00067691365
0.00013404135
0.00065819765
0.00015776887
0.00063702427
0.00017923662
0.00061371548
0.00019843054
0.00058858882
0.00021540176
0.00056193268
0.00023022869
0.00053401713
0.00024301052
0.00050507917
0.00025388102
0.00047534468
0.00026300052
0.00044500629
0.0002705253
0.00041421724
0.00027663219
0.00038313865
0.00028147029
0.00035187612
0.00028522393
0.00032051578
0.00028804464
0.00028913078
0.0002900948
0.00025778613
0.00029150146
0.000226507
0.00029241
0.00019532447
0.00029292765
0.00016424819
0.00029314382
0.00013327623
0.00029319902
0.00010241548
0.0002929654
0.00029266231
-0.00010218611
0.00032439244
-0.00013320379
0.00032484012
-0.00016436926
0.00032519766
-0.00019571362
0.00032530699
-0.0002272592
0.00032527712
-0.00025900089
0.00032494795
-0.00029092892
0.00032422304
-0.00032301295
0.00032298049
-0.00035523446
0.00032106164
-0.00038751517
0.00031831364
-0.00041976656
0.00031455159
-0.00045187689
0.00030959892
-0.00048375355
0.00030327583
-0.00051518646
0.00029534379
-0.00054598756
0.00028563109
-0.00057592685
0.00027394042
-0.00060474568
0.00026008964
-0.00063215698
0.00024390926
-0.00065783062
0.00022525219
-0.00068142575
0.00020402867
-0.00070257593
0.00018016538
-0.00072089007
0.0001536483
-0.0007359882
0.00012454134
-0.0007474846
9.2949581e-05
-0.00075500972
5.9066072e-05
-0.00075821936
2.3152154e-05
-0.0007568096
-1.450709e-05
-0.00075046837
-5.3576135e-05
-0.00073912421
-9.3103494e-05
-0.00072263451
-0.00013296887
-0.00070096166
-0.00017239438
-0.00067448014
-0.00021049791
-0.00064341682
-0.00024724915
-0.00060787252
-0.00028217517
-0.00056852465
-0.00031399229
-0.00052598323
-0.00034238903
-0.0004809585
-0.00036687982
-0.00043427957
-0.00038705451
-0.00038681146
-0.00040264738
-0.00033946006
-0.00041355857
-0.00029311514
-0.00041987244
-0.00024860579
-0.00042187892
-0.0002066533
-0.00042008691
-0.00016780807
-0.00041521914
-0.00013239872
-0.00040818653
-0.00010047512
-0.00040004829
-7.1782929e-05
-0.00039192428
-4.5774574e-05
-0.00038487969
-2.164653e-05
-0.00037981464
1.5491297e-06
-0.0003772801
2.4652535e-05
-0.00037681096
4.8501547e-05
-0.00037842157
7.4058771e-05
-0.00038262693
0.00010214031
-0.00038890864
0.00013332843
-0.00039640244
0.00016790835
-0.00040407355
0.00020587148
-0.00041082106
0.0002469373
-0.00041559904
0.00029059554
-0.00041749681
0.00033616749
-0.00041577199
0.000382856
-0.00040988888
0.00042978335
-0.00039952219
0.00047606784
-0.00038453828
0.00052083554
-0.00036500375
0.00056325558
-0.00034114553
0.00060259966
-0.0003133372
0.00063823487
-0.0002820512
0.00066947015
-0.00024759318
0.00069617614
-0.00021121627
0.0007180886
-0.00017338477
0.0007348648
-0.0001342233
0.00074649965
-9.4525728e-05
0.0007531281
-5.5107811e-05
0.00075482428
-1.6104909e-05
0.00075188454
2.1528019e-05
0.00074461653
5.7443554e-05
0.00073336338
9.1352206e-05
0.00071849451
0.00012298695
0.00070038937
0.00015214569
0.0006794292
0.00017872792
0.00065601216
0.00020265597
0.0006305008
0.00022394301
0.00060323771
0.00024266673
0.00057455784
0.00025890891
0.00054474574
0.00027281791
0.00051406456
0.00028455988
0.00048274477
0.00029431693
0.00045097966
0.00030228636
0.00041896149
0.00030865368
0.00038679822
0.0003136332
0.00035460467
0.00031741645
0.00032247193
0.00032018098
0.00029046267
0.00032210685
0.0002586106
0.00032335451
0.00022694193
0.00032407835
0.00019547086
0.00032439974
0.00016418726
0.00032442665
0.00013308629
0.000324299
0.00010213281
0.00032391985
0.0003234359
-0.00010177573
0.00035523629
-0.00013285279
0.0003559152
-0.00016412573
0.00035647359
-0.00019565013
0.00035683333
-0.00022749056
0.00035711603
-0.0002596131
0.00035707209
-0.00029206482
0.00035667817
-0.00032482888
0.00035574495
-0.00035787941
0.00035411215
-0.00039116365
0.00035160066
-0.00042460889
0.00034800028
-0.0004581198
0.00034311164
-0.00049155335
0.0003367095
-0.00052475944
0.00032854874
-0.00055752917
0.00031839997
-0.00058961864
0.0003060313
-0.00062074817
0.00029122183
-0.00065060397
0.00027376597
-0.00067883635
0.00025348337
-0.00070503737
0.00023022848
-0.00072880131
0.00020392856
-0.00074969304
0.00017453841
-0.00076724305
0.00014208935
-0.00078099752
0.00010670364
-0.00079051341
6.8582683e-05
-0.00079537946
2.8017827e-05
-0.00079525982
-1.4627739e-05
-0.00078954444
-5.9290947e-05
-0.00077849449
-0.00010415173
-0.00076140386
-0.00015005826
-0.00073892736
-0.00019487032
-0.00071064982
-0.00023877525
-0.00067708684
-0.00028081141
-0.00063865315
-0.00032060787
-0.00059578017
-0.00035686601
-0.00054918026
-0.00038898958
-0.00049970012
-0.00041635847
-0.00044829352
-0.00043845993
-0.0003960052
-0.00045493478
-0.00034393917
-0.00046562351
-0.00029320367
-0.0004706066
-0.00024485546
-0.00047022438
-0.00019983658
-0.00046510429
-0.00015889245
-0.00045616199
-0.00012248942
-0.00044458884
-9.0728465e-05
-0.00043180823
-6.3283515e-05
-0.00041936503
-3.9428629e-05
-0.00040873315
-1.8081291e-05
-0.00040116393
2.0401028e-06
-0.00039740445
2.2051951e-05
-0.00039682257
4.3065436e-05
-0.00039943481
6.6373237e-05
-0.00040593499
9.3075485e-05
-0.00041561444
0.00012394192
-0.0004272669
0.00015933405
-0.00043946223
0.00019919996
-0.00045068635
0.00024313482
-0.00045953324
0.00029044764
-0.00046481105
0.00034025636
-0.00046558194
0.00039154354
-0.00046117294
0.00044322071
-0.00045119957
0.00049419828
-0.00043551888
0.000543427
-0.00041423383
0.00058993736
-0.00038765645
0.0006328611
-0.00035625937
0.00067145376
-0.00032064137
0.00070525008
-0.00028138759
0.00073382552
-0.00023979018
0.00075665527
-0.00019621542
0.00077408752
-0.00015165636
0.00078549352
-0.00010593165
0.00079150646
-6.1121795e-05
0.00079196102
-1.6558938e-05
0.00078739857
2.608917e-05
0.0007781635
6.6681683e-05
0.00076466723
0.00010485207
0.00074735307
0.000140303
0.00072667506
0.00017282636
0.00070310809
0.0002022949
0.00067708604
0.00022867923
0.00064901386
0.00025201814
0.00061930256
0.00027237299
0.00058830834
0.00028990396
0.00055634089
0.00030478224
0.00052368618
0.00031721312
0.00049058876
0.0003274172
0.00045725376
0.00033562476
0.00042383882
0.0003420679
0.00039048212
0.00034699018
0.00035727693
0.00035062251
0.00032430335
0.00035314715
0.00029161361
0.00035479641
0.00025923226
0.00035573725
0.00022717312
0.00035613773
0.00019540869
0.00035616641
0.00016394254
0.00035589127
0.00013272746
0.00035551473
0.00010171115
0.00035493974
0.00035422562
-0.00010119027
0.00038604184
-0.00013227785
0.00038700551
-0.00016363153
0.00038782751
-0.00019533273
0.00038853136
-0.00022739936
0.00038918344
-0.00025992687
0.00038960247
-0.00029290875
0.00038966013
-0.00032636302
0.00038919864
-0.00036028584
0.00038803661
-0.00039464056
0.00038595778
-0.00042938239
0.00038274365
-0.00046440462
0.00037813438
-0.00049958923
0.00037189339
-0.00053477008
0.00036372865
-0.0005697475
0.00035337833
-0.00060426587
0.00034055226
-0.00063802512
0.00032498282
-0.00067068693
0.00030642783
-0.00070185952
0.00028465558
-0.00073109101
0.00025945937
-0.00075791699
0.00023075286
-0.0007818181
0.00019843743
-0.00080226519
0.00016253584
-0.00081871407
0.00012315356
-0.00083062529
8.0494415e-05
-0.00083747825
3.4869663e-05
-0.00083877118
-1.3335323e-05
-0.00083436135
-6.3698834e-05
-0.00082337568
-0.00011513529
-0.00080611856
-0.00016731512
-0.00078221819
-0.00021877025
-0.00075195519
-0.00026903669
-0.00071574643
-0.00031701909
-0.00067376862
-0.00036258532
-0.00062660925
-0.00040402564
-0.00057509436
-0.00044050439
-0.00052016901
-0.00047128275
-0.00046295297
-0.0004956763
-0.00040469982
-0.00051318838
-0.00034676455
-0.0005235571
-0.00029054006
-0.00052682856
-0.00023738608
-0.00052337466
-0.00018854664
-0.00051394163
-0.00014504749
-0.00049966
-0.00010757715
-0.00048205653
-7.6327996e-05
-0.00046305492
-5.0880686e-05
-0.00044481031
-3.0269649e-05
-0.00042934563
-1.3007661e-05
-0.00041842587
2.6501584e-06
-0.00041306117
1.817593e-05
-0.00041234773
3.503211e-05
-0.00041629431
5.4975236e-05
-0.00042587798
7.9515955e-05
-0.00044015496
0.00010966607
-0.00045741845
0.00014588655
-0.00047568009
0.00018805164
-0.00049285128
0.00023555636
-0.00050703352
0.0002874402
-0.00051669612
0.00034254502
-0.00052068212
0.00039955868
-0.0005181878
0.00045712086
-0.00050876285
0.00051388328
-0.00049228125
0.00056858145
-0.00046892969
0.00062006673
-0.00043914361
0.00066735948
-0.00040355337
0.00070959424
-0.00036287317
0.00074614565
-0.00031793769
0.00077680199
-0.00027044357
0.0008011225
-0.0002205357
0.00081879765
-0.00016933152
0.0008301864
-0.00011732251
0.00083501107
-6.5947138e-05
0.00083406949
-1.5615088e-05
0.0008275458
3.2613468e-05
0.00081593597
7.8292315e-05
0.00079975972
0.00012103116
0.0007795574
0.00016050663
0.00075587732
0.00019650724
0.00072925007
0.00022892702
0.00070019486
0.00025773608
0.00066917806
0.00028303116
0.00063665768
0.00030489322
0.00060302624
0.00032353182
0.00056862492
0.00033917955
0.0005337573
0.00035207829
0.00049867755
0.00036249181
0.0004635891
0.00037071289
0.00042865497
0.00037700344
0.0003939935
0.00038165176
0.00035971523
0.00038490051
0.00032586388
0.00038700147
0.00029247754
0.00038818363
0.00025956106
0.00038865461
0.00022709859
0.00038860228
0.00019508408
0.00038818265
0.00016344473
0.00038752885
0.00013214757
0.00038681384
0.0001011145
0.00038597468
0.00038498359
-0.00010038055
0.00041673942
-0.00013141914
0.00041804199
-0.00016278564
0.00041918861
-0.00019457949
0.00042032461
-0.00022687695
0.00042148258
-0.00025975947
0.00042248442
-0.00029326447
0.00042316426
-0.00032742733
0.00042336262
-0.00036225993
0.00042287105
-0.00039774898
0.00042144839
-0.00043386485
0.00041886072
-0.00047052788
0.00041479758
-0.00050762391
0.00040898893
-0.0005449912
0.00040109657
-0.00058241986
0.00039080877
-0.00061966643
0.00037779987
-0.00065640213
0.00036171849
-0.0006922485
0.00034227444
-0.0007267775
0.00031918472
-0.00075952707
0.00029220731
-0.00078991827
0.00026114154
-0.00081736906
0.0002258878
-0.00084125369
0.0001864224
-0.00086093059
0.00014283189
-0.00087575357
9.5316917e-05
-0.00088509122