/*--------------------------------*- C++ -*----------------------------------*\
  =========                 |
  \\      /  F ield         | OpenFOAM: The Open Source CFD Toolbox
   \\    /   O peration     | Website:  https://openfoam.org
    \\  /    A nd           | Version:  9
     \\/     M anipulation  |
\*---------------------------------------------------------------------------*/
FoamFile
{
    format      ascii;
    class       volVectorField;
    location    "0.13";
    object      U;
}
// * * * * * * * * * * * * * * * * * * * * * * * * * * * * * * * * * * * * * //

dimensions      [0 1 -1 0 0 0 0];

internalField   nonuniform List<vector> 
10000
(
(-0.0069749198 0.007467866 0)
(-0.012948997 0.0074489033 0)
(-0.014544208 0.0074749096 0)
(-0.017956031 0.0074831782 0)
(-0.020969116 0.0074981637 0)
(-0.023982271 0.0075106902 0)
(-0.026961726 0.0075185495 0)
(-0.029901211 0.0075199371 0)
(-0.032790567 0.0075111797 0)
(-0.035620388 0.0074873178 0)
(-0.038379311 0.0074456105 0)
(-0.041054606 0.0073810934 0)
(-0.043635067 0.0072889233 0)
(-0.046105334 0.0071670933 0)
(-0.048445555 0.007010624 0)
(-0.050642023 0.0068125018 0)
(-0.052679409 0.0065712627 0)
(-0.054536807 0.0062834436 0)
(-0.056195134 0.0059442612 0)
(-0.057637499 0.0055505438 0)
(-0.058846574 0.0051014647 0)
(-0.059804289 0.0045954763 0)
(-0.06049551 0.0040313996 0)
(-0.060907776 0.0034098042 0)
(-0.061029636 0.0027328142 0)
(-0.06085033 0.0020017249 0)
(-0.060366324 0.0012115334 0)
(-0.05965133 0.00035330285 0)
(-0.058761046 -0.00048715333 0)
(-0.057521076 -0.0012572187 0)
(-0.055845745 -0.0020399029 0)
(-0.053821909 -0.002844823 0)
(-0.051465222 -0.0036711573 0)
(-0.0488067 -0.0045331499 0)
(-0.045899722 -0.0054301832 0)
(-0.042801175 -0.0063598016 0)
(-0.039585228 -0.007312807 0)
(-0.03632109 -0.0082675762 0)
(-0.0330458 -0.0091993778 0)
(-0.029779971 -0.010092752 0)
(-0.02654924 -0.010934962 0)
(-0.023379283 -0.011714121 0)
(-0.020291004 -0.012420318 0)
(-0.017299479 -0.013045846 0)
(-0.014412598 -0.013584843 0)
(-0.011630062 -0.01403239 0)
(-0.0089444557 -0.014382853 0)
(-0.0063370553 -0.014633351 0)
(-0.0037815303 -0.014788718 0)
(-0.0012519629 -0.014858723 0)
(0.0012694076 -0.014856452 0)
(0.0037919472 -0.014781907 0)
(0.0063329067 -0.014622274 0)
(0.0089194657 -0.014367908 0)
(0.011578581 -0.014014171 0)
(0.014330282 -0.013563759 0)
(0.017183677 -0.013023408 0)
(0.02013967 -0.012397189 0)
(0.023191385 -0.01169073 0)
(0.026325988 -0.010912254 0)
(0.029523652 -0.010071913 0)
(0.032758671 -0.0091811438 0)
(0.036005524 -0.0082521266 0)
(0.039245158 -0.0072996329 0)
(0.042442591 -0.0063484843 0)
(0.045529132 -0.0054210573 0)
(0.048429504 -0.0045267516 0)
(0.051085743 -0.0036674706 0)
(0.053443897 -0.002843291 0)
(0.055472566 -0.0020399542 0)
(0.057155648 -0.0012582814 0)
(0.058406306 -0.00048890372 0)
(0.059311712 0.00035085459 0)
(0.060043444 0.0012060026 0)
(0.060542372 0.0019942386 0)
(0.060736908 0.0027250744 0)
(0.060632305 0.0034023401 0)
(0.060238619 0.0040233873 0)
(0.059564973 0.0045861405 0)
(0.058623051 0.0050911736 0)
(0.057429081 0.0055403294 0)
(0.05600255 0.0059345804 0)
(0.054360575 0.0062742085 0)
(0.05251874 0.0065620144 0)
(0.050496146 0.0068028149 0)
(0.0483129 0.0070003919 0)
(0.045984926 0.0071570493 0)
(0.043527547 0.0072791195 0)
(0.040959596 0.0073711129 0)
(0.038295973 0.0074355418 0)
(0.035548841 0.00747714 0)
(0.032730971 0.0075003261 0)
(0.029853439 0.0075082032 0)
(0.026926133 0.0075058282 0)
(0.02395919 0.0074961545 0)
(0.020958566 0.0074810987 0)
(0.017960875 0.0074628156 0)
(0.014553539 0.0074482315 0)
(0.012987153 0.0074203871 0)
(0.00702064 0.0074225256 0)
(-0.0069980269 0.01354264 0)
(-0.012937096 0.013508229 0)
(-0.014506504 0.013532609 0)
(-0.017927249 0.013525933 0)
(-0.020934929 0.013523945 0)
(-0.023953581 0.013514071 0)
(-0.02694229 0.013492117 0)
(-0.029896146 0.013452936 0)
(-0.032808072 0.013390345 0)
(-0.035667551 0.013298397 0)
(-0.038463233 0.013170101 0)
(-0.041184674 0.012998329 0)
(-0.04381762 0.012776438 0)
(-0.046346857 0.012497632 0)
(-0.048757351 0.012153947 0)
(-0.051032106 0.011737834 0)
(-0.053152681 0.011244188 0)
(-0.055101404 0.010665941 0)
(-0.056859036 0.0099983974 0)
(-0.058405297 0.0092377944 0)
(-0.059721663 0.0083802855 0)
(-0.060790757 0.0074245002 0)
(-0.061595777 0.0063704087 0)
(-0.062121565 0.0052193654 0)
(-0.062356322 0.0039738519 0)
(-0.062296682 0.0026363773 0)
(-0.061949545 0.0012083045 0)
(-0.06129748 -0.00030161815 0)
(-0.060332445 -0.0017912356 0)
(-0.059043352 -0.0031966853 0)
(-0.057398442 -0.0046068467 0)
(-0.055397825 -0.0060350123 0)
(-0.053072094 -0.0074792666 0)
(-0.050457012 -0.0089328722 0)
(-0.047589615 -0.010394101 0)
(-0.044519514 -0.011857438 0)
(-0.041303319 -0.013308725 0)
(-0.037995948 -0.014718823 0)
(-0.034641391 -0.016054654 0)
(-0.031273488 -0.017295595 0)
(-0.027923187 -0.0184292 0)
(-0.024619536 -0.019447287 0)
(-0.021386904 -0.020345104 0)
(-0.018243407 -0.021119548 0)
(-0.015199784 -0.021770481 0)
(-0.012257414 -0.022300409 0)
(-0.0094101566 -0.022713924 0)
(-0.0066459563 -0.023014957 0)
(-0.0039486205 -0.023211558 0)
(-0.0012990171 -0.02331024 0)
(0.001328437 -0.0233036 0)
(0.0039707079 -0.023191819 0)
(0.0066528517 -0.022983098 0)
(0.0093951825 -0.022671442 0)
(0.012214811 -0.022249086 0)
(0.015124316 -0.021712224 0)
(0.01813212 -0.021056743 0)
(0.021238567 -0.020280341 0)
(0.024433076 -0.019382837 0)
(0.027699234 -0.018367112 0)
(0.031014405 -0.017238046 0)
(0.034350313 -0.016003437 0)
(0.037676536 -0.014675 0)
(0.040960285 -0.01327235 0)
(0.044158056 -0.011828309 0)
(0.04721518 -0.010372213 0)
(0.050075159 -0.0089183833 0)
(0.052688292 -0.0074718089 0)
(0.055016483 -0.0060337654 0)
(0.057022863 -0.0046113751 0)
(0.058676421 -0.0032059157 0)
(0.059976575 -0.0018038797 0)
(0.060954415 -0.00031642262 0)
(0.061622075 0.0011891798 0)
(0.061986988 0.0026141215 0)
(0.062063996 0.0039498586 0)
(0.06184628 0.0051942713 0)
(0.061337735 0.0063442109 0)
(0.060549938 0.0073973294 0)
(0.059497812 0.0083528306 0)
(0.05819799 0.0092107807 0)
(0.056668199 0.0099721502 0)
(0.054926751 0.010639951 0)
(0.052992788 0.011218323 0)
(0.050886176 0.011712152 0)
(0.048624766 0.012128457 0)
(0.046227069 0.012473066 0)
(0.043710475 0.012752824 0)
(0.041089926 0.012975006 0)
(0.038380573 0.013146763 0)
(0.035596483 0.013274612 0)
(0.032748373 0.013365604 0)
(0.029847878 0.013426722 0)
(0.026904979 0.013464 0)
(0.023926933 0.013483531 0)
(0.020919165 0.013490042 0)
(0.017923244 0.013487547 0)
(0.014508392 0.013486818 0)
(0.012958734 0.013459813 0)
(0.0070221799 0.013470849 0)
(-0.0070181355 0.015432298 0)
(-0.012951864 0.015405443 0)
(-0.014515759 0.015411888 0)
(-0.017950574 0.015389066 0)
(-0.020963162 0.01536198 0)
(-0.023993891 0.015320692 0)
(-0.027000256 0.015260577 0)
(-0.02997846 0.015174971 0)
(-0.032919621 0.015057154 0)
(-0.035815076 0.014901176 0)
(-0.038654269 0.014698604 0)
(-0.04142451 0.014441564 0)
(-0.044114061 0.014123354 0)
(-0.04670835 0.013735179 0)
(-0.049189122 0.013268375 0)
(-0.051539548 0.012716591 0)
(-0.053743218 0.012074083 0)
(-0.055778891 0.011333226 0)
(-0.057624549 0.010490507 0)
(-0.059261915 0.0095432206 0)
(-0.060670671 0.0084893685 0)
(-0.061829058 0.0073297491 0)
(-0.06271907 0.0060676475 0)
(-0.063324921 0.0047086763 0)
(-0.063633341 0.0032609461 0)
(-0.063634182 0.0017363419 0)
(-0.063317248 0.00015556828 0)
(-0.062655056 -0.00145086 0)
(-0.061650147 -0.0030704266 0)
(-0.060322153 -0.0046683033 0)
(-0.058665518 -0.006238028 0)
(-0.056674513 -0.0077843079 0)
(-0.054342641 -0.0093065375 0)
(-0.051701598 -0.010801528 0)
(-0.048805531 -0.01225722 0)
(-0.045698772 -0.013662094 0)
(-0.042431676 -0.014999974 0)
(-0.039054312 -0.016252089 0)
(-0.035611972 -0.017399024 0)
(-0.032145619 -0.018426865 0)
(-0.028693072 -0.019328263 0)
(-0.025287475 -0.020101658 0)
(-0.021954922 -0.020751101 0)
(-0.018715213 -0.021282233 0)
(-0.015582049 -0.021705588 0)
(-0.01255943 -0.0220328 0)
(-0.009641552 -0.022277133 0)
(-0.0068132854 -0.02245131 0)
(-0.0040529028 -0.022566335 0)
(-0.0013302664 -0.022627081 0)
(0.0013793018 -0.022616305 0)
(0.00409395 -0.022534546 0)
(0.0068379106 -0.022399987 0)
(0.0096424365 -0.022208612 0)
(0.012530232 -0.021950106 0)
(0.015517568 -0.021612171 0)
(0.018611907 -0.021181391 0)
(0.021810714 -0.020646892 0)
(0.025101682 -0.019998057 0)
(0.028466926 -0.019228836 0)
(0.031881814 -0.018334805 0)
(0.035314042 -0.017316922 0)
(0.038726467 -0.016181696 0)
(0.042079163 -0.014942117 0)
(0.045327596 -0.013617261 0)
(0.048421895 -0.012225345 0)
(0.051311305 -0.010782715 0)
(0.053950921 -0.0093000006 0)
(0.056285406 -0.0077886217 0)
(0.058282425 -0.0062516862 0)
(0.059948945 -0.0046897035 0)
(0.061290264 -0.0030981596 0)
(0.062309633 -0.0014845068 0)
(0.062987727 0.00011818213 0)
(0.063322189 0.0016960248 0)
(0.063338478 0.0032186924 0)
(0.063047853 0.0046651775 0)
(0.062460788 0.0060233773 0)
(0.061589246 0.0072853798 0)
(0.060448044 0.0084454962 0)
(0.059055528 0.0095002878 0)
(0.05743401 0.010448742 0)
(0.055604207 0.011292222 0)
(0.053583896 0.012033907 0)
(0.051394513 0.0126778 0)
(0.049057481 0.013230745 0)
(0.046589528 0.013698828 0)
(0.044007754 0.01408823 0)
(0.041330135 0.01440715 0)
(0.038571277 0.014664233 0)
(0.035743218 0.014866427 0)
(0.032858826 0.015021762 0)
(0.029928357 0.015138357 0)
(0.026960535 0.015222402 0)
(0.02396411 0.015280371 0)
(0.020943168 0.015318825 0)
(0.01794083 0.015342709 0)
(0.014512324 0.015360922 0)
(0.012961847 0.01535234 0)
(0.0070312233 0.015364475 0)
(-0.0070262543 0.018534909 0)
(-0.012952904 0.018520962 0)
(-0.01451774 0.018527818 0)
(-0.017968876 0.018505938 0)
(-0.020992553 0.018475115 0)
(-0.024041732 0.018423977 0)
(-0.027072264 0.018347857 0)
(-0.0300814 0.018240479 0)
(-0.033061068 0.018093215 0)
(-0.036002567 0.01789718 0)
(-0.038896418 0.017644605 0)
(-0.041730216 0.017325231 0)
(-0.044491007 0.016929861 0)
(-0.04716523 0.016449638 0)
(-0.049735323 0.015875075 0)
(-0.052181484 0.015196236 0)
(-0.054486868 0.014406245 0)
(-0.056631214 0.013498605 0)
(-0.058590649 0.012466898 0)
(-0.060343649 0.01130681 0)
(-0.061868404 0.010018234 0)
(-0.063142416 0.0086012002 0)
(-0.064144424 0.0070590553 0)
(-0.064854806 0.0053986085 0)
(-0.065255939 0.0036307557 0)
(-0.065332094 0.0017707863 0)
(-0.065071801 -0.0001608845 0)
(-0.064465744 -0.0021418647 0)
(-0.063501231 -0.0041684948 0)
(-0.062169198 -0.006201362 0)
(-0.060473841 -0.0082146842 0)
(-0.058420287 -0.010183155 0)
(-0.056033327 -0.012091767 0)
(-0.053342903 -0.013938633 0)
(-0.050376437 -0.015704352 0)
(-0.047180264 -0.017370032 0)
(-0.043803967 -0.018915692 0)
(-0.040299326 -0.020321699 0)
(-0.036715319 -0.021571463 0)
(-0.033098291 -0.022654611 0)
(-0.029492234 -0.023567058 0)
(-0.025937595 -0.024311071 0)
(-0.022465794 -0.024895703 0)
(-0.019100762 -0.025336858 0)
(-0.01585918 -0.025654062 0)
(-0.012745831 -0.025869502 0)
(-0.0097553694 -0.026006021 0)
(-0.0068720981 -0.026086172 0)
(-0.0040723307 -0.026129832 0)
(-0.0013247706 -0.026150612 0)
(0.0014019315 -0.026135176 0)
(0.0041404396 -0.026084505 0)
(0.0069217521 -0.026012933 0)
(0.0097782757 -0.025907962 0)
(0.012734881 -0.025750902 0)
(0.015808656 -0.025519915 0)
(0.019006857 -0.025192712 0)
(0.022326391 -0.024747286 0)
(0.025751969 -0.024163695 0)
(0.0292616 -0.023425868 0)
(0.032825988 -0.022524267 0)
(0.036405946 -0.021455697 0)
(0.039958424 -0.020223225 0)
(0.043437693 -0.018835904 0)
(0.046794872 -0.017309228 0)
(0.049977775 -0.015662321 0)
(0.052937393 -0.013914964 0)
(0.055627713 -0.012085413 0)
(0.058019679 -0.01019255 0)
(0.060082012 -0.0082375503 0)
(0.061788907 -0.0062347217 0)
(0.063133813 -0.0042099475 0)
(0.06411376 -0.0021908336 0)
(0.064738296 -0.00021558485 0)
(0.065018008 0.0017118165 0)
(0.064960913 0.00356975 0)
(0.064578116 0.0053370603 0)
(0.063886226 0.0069972883 0)
(0.062902698 0.0085394102 0)
(0.061646516 0.0099568463 0)
(0.060138791 0.011246821 0)
(0.058402043 0.012408912 0)
(0.056458303 0.01344274 0)
(0.054329212 0.014352233 0)
(0.052037894 0.015143991 0)
(0.049604696 0.015824384 0)
(0.047047277 0.016400514 0)
(0.044385257 0.016881976 0)
(0.041636024 0.01727838 0)
(0.038813455 0.017598447 0)
(0.035930617 0.017851297 0)
(0.032999702 0.018047034 0)
(0.030030394 0.018193424 0)
(0.027030941 0.018301268 0)
(0.024009224 0.01837487 0)
(0.020969276 0.018422238 0)
(0.017955121 0.018451101 0)
(0.014510443 0.01846894 0)
(0.012955689 0.018459743 0)
(0.0070329486 0.018462884 0)
(-0.0070300028 0.021678703 0)
(-0.012950673 0.02167516 0)
(-0.014521313 0.021680762 0)
(-0.017990883 0.021656721 0)
(-0.02103038 0.021620543 0)
(-0.024104372 0.021559982 0)
(-0.027164845 0.021468926 0)
(-0.030211991 0.021339966 0)
(-0.033239886 0.021162685 0)
(-0.0362388 0.020926668 0)
(-0.039199299 0.020624041 0)
(-0.042110582 0.020241887 0)
(-0.044959186 0.019769079 0)
(-0.047730504 0.019194775 0)
(-0.05040793 0.018508455 0)
(-0.052971906 0.01769866 0)
(-0.055402182 0.016755153 0)
(-0.057677452 0.015671608 0)
(-0.059773916 0.014439958 0)
(-0.061666547 0.013055828 0)
(-0.06333068 0.011518937 0)
(-0.064741602 0.0098295244 0)
(-0.065874572 0.0079925888 0)
(-0.06670612 0.0060169591 0)
(-0.067214371 0.003915572 0)
(-0.067379544 0.0017058533 0)
(-0.067183967 -0.00059074868 0)
(-0.066616139 -0.0029468096 0)
(-0.065662904 -0.0053327386 0)
(-0.064321209 -0.0077215003 0)
(-0.062598399 -0.010083102 0)
(-0.06049675 -0.012395713 0)
(-0.058032268 -0.014639646 0)
(-0.055237856 -0.016782347 0)
(-0.052150496 -0.018800316 0)
(-0.048813918 -0.020668891 0)
(-0.045278182 -0.022365314 0)
(-0.041597085 -0.023869186 0)
(-0.037825508 -0.025165956 0)
(-0.034017205 -0.0262473 0)
(-0.030223089 -0.027113826 0)
(-0.02648962 -0.027773973 0)
(-0.022856338 -0.028243894 0)
(-0.019353658 -0.028549147 0)
(-0.016001261 -0.028719833 0)
(-0.012806382 -0.028790469 0)
(-0.0097630618 -0.028796666 0)
(-0.0068524811 -0.028771974 0)
(-0.0040452604 -0.028744865 0)
(-0.001301653 -0.028733011 0)
(0.001417401 -0.02871236 0)
(0.0041501752 -0.028684081 0)
(0.0069356662 -0.028673579 0)
(0.009815088 -0.028664817 0)
(0.012819089 -0.028630848 0)
(0.015968047 -0.028539192 0)
(0.01927025 -0.028355115 0)
(0.022720801 -0.02804458 0)
(0.026301814 -0.027577007 0)
(0.029984703 -0.026926097 0)
(0.033732236 -0.026074761 0)
(0.037499316 -0.025013439 0)
(0.041236285 -0.023740521 0)
(0.044890494 -0.022262814 0)
(0.048407236 -0.020593022 0)
(0.051731775 -0.018750248 0)
(0.054813655 -0.016756025 0)
(0.057609147 -0.014635057 0)
(0.060079631 -0.012410858 0)
(0.062192263 -0.010115795 0)
(0.063930165 -0.0077688103 0)
(0.065288121 -0.0053911978 0)
(0.06625824 -0.0030126715 0)
(0.066845378 -0.00066292429 0)
(0.067062133 0.0016287526 0)
(0.066917709 0.0038353642 0)
(0.066429083 0.0059354368 0)
(0.065616867 0.0079110859 0)
(0.064502942 0.0097487956 0)
(0.063110456 0.011439638 0)
(0.061463883 0.012978587 0)
(0.059587659 0.014365355 0)
(0.057506767 0.015599812 0)
(0.055246298 0.016685971 0)
(0.052829798 0.017631731 0)
(0.050278737 0.018443988 0)
(0.047613729 0.01913279 0)
(0.044854384 0.019709186 0)
(0.042017421 0.020183552 0)
(0.039117099 0.020566914 0)
(0.036166995 0.020870588 0)
(0.033178109 0.021105965 0)
(0.030161678 0.021282719 0)
(0.027123197 0.02141133 0)
(0.02406805 0.021501058 0)
(0.021004307 0.021559524 0)
(0.017974459 0.021593682 0)
(0.014510458 0.02161414 0)
(0.012947421 0.021606485 0)
(0.0070313276 0.021603251 0)
(-0.0070247192 0.024743397 0)
(-0.012940089 0.024751047 0)
(-0.014524194 0.024759011 0)
(-0.018014688 0.024737885 0)
(-0.0210728 0.024701127 0)
(-0.024174757 0.024638066 0)
(-0.027271456 0.024540273 0)
(-0.030364604 0.024397661 0)
(-0.03344927 0.024199786 0)
(-0.036514063 0.023935941 0)
(-0.039552165 0.023594281 0)
(-0.042554147 0.02316095 0)
(-0.045505049 0.022623367 0)
(-0.048390674 0.021968123 0)
(-0.051194015 0.021182211 0)
(-0.053895112 0.020253105 0)
(-0.056471798 0.019168818 0)
(-0.058901826 0.01792009 0)
(-0.061159388 0.016498869 0)
(-0.063215188 0.014899515 0)
(-0.065042999 0.013119982 0)
(-0.06661501 0.011161462 0)
(-0.067901528 0.0090295945 0)
(-0.068875186 0.0067345181 0)
(-0.069509757 0.0042909541 0)
(-0.069780996 0.0017187851 0)
(-0.069667276 -0.00095710595 0)
(-0.069150791 -0.003708009 0)
(-0.068219967 -0.0064982553 0)
(-0.06686435 -0.0092971825 0)
(-0.065091302 -0.012064414 0)
(-0.062913098 -0.014761529 0)
(-0.060344703 -0.017359636 0)
(-0.057417097 -0.019829395 0)
(-0.054165496 -0.022132524 0)
(-0.050637141 -0.024236457 0)
(-0.046886353 -0.026111973 0)
(-0.042973384 -0.0277368 0)
(-0.038959735 -0.029095588 0)
(-0.034907228 -0.030180247 0)
(-0.030876915 -0.030994851 0)
(-0.026924802 -0.03155405 0)
(-0.023099535 -0.031883516 0)
(-0.019439248 -0.032019147 0)
(-0.015969107 -0.032005011 0)
(-0.012699038 -0.031890551 0)
(-0.0096223521 -0.031726853 0)
(-0.0067156438 -0.031561992 0)
(-0.0039412742 -0.031436425 0)
(-0.0012483317 -0.031375267 0)
(0.0014137919 -0.031348831 0)
(0.0040939214 -0.031358395 0)
(0.0068423025 -0.031435516 0)
(0.0097117999 -0.03155729 0)
(0.012741788 -0.031685212 0)
(0.015957604 -0.031772581 0)
(0.01936846 -0.03176948 0)
(0.022967425 -0.031627222 0)
(0.026731896 -0.031301378 0)
(0.03062606 -0.030755144 0)
(0.034603669 -0.029961459 0)
(0.03860999 -0.028903953 0)
(0.042585552 -0.027576891 0)
(0.046469935 -0.025986225 0)
(0.050201565 -0.024145504 0)
(0.053719203 -0.022075452 0)
(0.056967647 -0.019803746 0)
(0.059898898 -0.017362096 0)
(0.062476191 -0.014788251 0)
(0.06466803 -0.01211178 0)
(0.066458973 -0.0093625771 0)
(0.067834696 -0.0065770363 0)
(0.068785761 -0.003795902 0)
(0.069323389 -0.0010514354 0)
(0.069459929 0.0016196448 0)
(0.069211182 0.0041888698 0)
(0.068597769 0.0066314891 0)
(0.06764469 0.0089274365 0)
(0.066378137 0.011061159 0)
(0.064825162 0.013022201 0)
(0.063015296 0.014804694 0)
(0.060976154 0.016407503 0)
(0.058734081 0.017832474 0)
(0.056318522 0.01908493 0)
(0.053755567 0.020172716 0)
(0.051067571 0.021105548 0)
(0.048276531 0.021894772 0)
(0.045402371 0.022552875 0)
(0.042462421 0.02309235 0)
(0.039471518 0.02352705 0)
(0.036442979 0.023869815 0)
(0.033387201 0.024133629 0)
(0.030313234 0.02433131 0)
(0.027228847 0.024471987 0)
(0.024138858 0.024569983 0)
(0.021045607 0.024633138 0)
(0.017995767 0.024667076 0)
(0.014511773 0.024686077 0)
(0.012935623 0.024674933 0)
(0.0070251388 0.024664338 0)
(-0.0070144172 0.027817006 0)
(-0.012922072 0.027835644 0)
(-0.014519956 0.02785126 0)
(-0.018032356 0.027838521 0)
(-0.021111905 0.027809222 0)
(-0.024244823 0.027751412 0)
(-0.027382675 0.027655377 0)
(-0.030527647 0.027510038 0)
(-0.033674476 0.02730499 0)
(-0.036814873 0.027026828 0)
(-0.039942686 0.026659598 0)
(-0.043047578 0.026189146 0)
(-0.046115737 0.025599746 0)
(-0.04913299 0.024877465 0)
(-0.052081705 0.024005074 0)
(-0.054941346 0.022968424 0)
(-0.057688482 0.021753372 0)
(-0.060297956 0.020347587 0)
(-0.06274214 0.018742317 0)
(-0.064990061 0.016930039 0)
(-0.067010641 0.014906207 0)
(-0.068771453 0.012672813 0)
(-0.070238857 0.010235468 0)
(-0.071380426 0.0076051405 0)
(-0.072164573 0.004798528 0)
(-0.072561421 0.0018382439 0)
(-0.072544217 -0.0012476548 0)
(-0.072090288 -0.0044258235 0)
(-0.071185487 -0.0076539922 0)
(-0.069821362 -0.010892991 0)
(-0.067995324 -0.014095508 0)
(-0.065717612 -0.017212572 0)
(-0.063013731 -0.020210372 0)
(-0.059911214 -0.023044501 0)
(-0.056445764 -0.025664185 0)
(-0.052669658 -0.028030312 0)
(-0.048643768 -0.030107833 0)
(-0.044435935 -0.031868395 0)
(-0.040115768 -0.033292754 0)
(-0.035756848 -0.034374322 0)
(-0.031433046 -0.035119469 0)
(-0.027212658 -0.035549086 0)
(-0.023156503 -0.035698629 0)
(-0.019313344 -0.035617415 0)
(-0.015716288 -0.035366296 0)
(-0.012379261 -0.035013891 0)
(-0.0092944578 -0.03463142 0)
(-0.006431868 -0.034285835 0)
(-0.0037421713 -0.034033421 0)
(-0.0011584257 -0.033908964 0)
(0.0013861296 -0.033875669 0)
(0.0039547961 -0.033934986 0)
(0.0066136036 -0.034126364 0)
(0.0094316061 -0.034417564 0)
(0.012460495 -0.034754951 0)
(0.015732747 -0.035073505 0)
(0.019258748 -0.035303018 0)
(0.023028558 -0.035376118 0)
(0.027012604 -0.035231917 0)
(0.031165089 -0.034819969 0)
(0.035428035 -0.034102912 0)
(0.039734607 -0.033057181 0)
(0.044012567 -0.031673935 0)
(0.048189877 -0.029957569 0)
(0.052196544 -0.027924905 0)
(0.055963395 -0.02560193 0)
(0.059428781 -0.023022172 0)
(0.062539219 -0.020223239 0)
(0.065256198 -0.017254619 0)
(0.067550799 -0.014161409 0)
(0.0693993 -0.010979603 0)
(0.070788764 -0.0077559914 0)
(0.071717265 -0.0045380179 0)
(0.072194673 -0.0013665976 0)
(0.072236846 0.0017150507 0)
(0.071864849 0.0046733465 0)
(0.071103873 0.0074801665 0)
(0.069984215 0.010112523 0)
(0.068537444 0.012553119 0)
(0.066796127 0.014790349 0)
(0.064793885 0.016818351 0)
(0.062562893 0.018635112 0)
(0.06013436 0.020245285 0)
(0.057539385 0.021656042 0)
(0.054805885 0.022875738 0)
(0.051959109 0.023916661 0)
(0.04902214 0.024792824 0)
(0.046015785 0.025518592 0)
(0.042958167 0.026110092 0)
(0.039863772 0.026582308 0)
(0.036745189 0.026950568 0)
(0.033613549 0.027229951 0)
(0.030476083 0.027435588 0)
(0.027339789 0.027579956 0)
(0.024209479 0.027675729 0)
(0.021083893 0.027733268 0)
(0.018012068 0.02776056 0)
(0.014505633 0.027771421 0)
(0.012915276 0.027752396 0)
(0.0070144534 0.027730295 0)
(-0.006996485 0.030899767 0)
(-0.012891085 0.030934647 0)
(-0.01450467 0.030963147 0)
(-0.018038072 0.030964349 0)
(-0.021139438 0.030950921 0)
(-0.024306116 0.030907127 0)
(-0.027488202 0.03082356 0)
(-0.030688188 0.030688407 0)
(-0.033903332 0.030488893 0)
(-0.03712798 0.030208643 0)
(-0.040355795 0.029830845 0)
(-0.04357736 0.02933916 0)
(-0.046777525 0.028714407 0)
(-0.049943613 0.027939353 0)
(-0.053058524 0.026995129 0)
(-0.056099411 0.025864318 0)
(-0.059042334 0.024530222 0)
(-0.061859463 0.02297719 0)
(-0.064520188 0.021193437 0)
(-0.066991265 0.019170262 0)
(-0.069236989 0.016900973 0)
(-0.071219472 0.014386578 0)
(-0.072900144 0.01163266 0)
(-0.074240653 0.0086500557 0)
(-0.075203197 0.0054576227 0)
(-0.07575224 0.002080759 0)
(-0.075855077 -0.0014491423 0)
(-0.07547939 -0.0050964036 0)
(-0.074608947 -0.0088055734 0)
(-0.073228307 -0.012534833 0)
(-0.071332724 -0.016214078 0)
(-0.068942815 -0.019807415 0)
(-0.066077872 -0.023250188 0)
(-0.062756551 -0.026485168 0)
(-0.05902363 -0.029461072 0)
(-0.054939686 -0.032125337 0)
(-0.050570742 -0.034432802 0)
(-0.045993025 -0.036346586 0)
(-0.041290036 -0.037842488 0)
(-0.036550067 -0.038912529 0)
(-0.031861955 -0.039564654 0)
(-0.027310959 -0.039825903 0)
(-0.022974176 -0.039742756 0)
(-0.018915176 -0.039380517 0)
(-0.01517847 -0.03882072 0)
(-0.011784226 -0.038156774 0)
(-0.0087235293 -0.037486689 0)
(-0.0059571175 -0.036902766 0)
(-0.0034193894 -0.036482778 0)
(-0.0010212398 -0.036274555 0)
(0.0013265287 -0.036232715 0)
(0.0037070136 -0.036358628 0)
(0.006208124 -0.036701825 0)
(0.0089210034 -0.03721741 0)
(0.01191413 -0.037830957 0)
(0.015230485 -0.038453095 0)
(0.018881646 -0.038986638 0)
(0.022851719 -0.039339695 0)
(0.027101266 -0.039431128 0)
(0.031571032 -0.039194134 0)
(0.036187811 -0.038579809 0)
(0.040868057 -0.037557369 0)
(0.045523817 -0.036114799 0)
(0.050068457 -0.034257538 0)
(0.054418587 -0.032006581 0)
(0.058496076 -0.029395797 0)
(0.062233268 -0.026468918 0)
(0.065568618 -0.023276787 0)
(0.068453534 -0.01986961 0)
(0.070865304 -0.016304748 0)
(0.072787208 -0.012646448 0)
(0.074198544 -0.008933716 0)
(0.075097773 -0.0052349583 0)
(0.075500463 -0.0015947292 0)
(0.07542556 0.0019320766 0)
(0.074903806 0.0053084394 0)
(0.073966362 0.0085025588 0)
(0.072649105 0.011488568 0)
(0.070990039 0.014246981 0)
(0.06902751 0.016766924 0)
(0.066800335 0.019041986 0)
(0.064346478 0.021070787 0)
(0.061701357 0.022860573 0)
(0.058898458 0.024419483 0)
(0.055968727 0.025758965 0)
(0.052940214 0.026894309 0)
(0.049837178 0.027842709 0)
(0.0466813 0.028621694 0)
(0.043490769 0.02924961 0)
(0.040279586 0.029743867 0)
(0.037060836 0.030123587 0)
(0.033844737 0.030405433 0)
(0.030637989 0.030605786 0)
(0.027445529 0.030740879 0)
(0.02427072 0.030823948 0)
(0.021111233 0.030866905 0)
(0.01801687 0.030879286 0)
(0.014489236 0.030876215 0)
(0.012882646 0.030845877 0)
(0.0069950371 0.030806786 0)
(-0.0069680563 0.033984529 0)
(-0.012842129 0.034040599 0)
(-0.014471709 0.034086417 0)
(-0.018023785 0.034108938 0)
(-0.0211466 0.034118758 0)
(-0.024347646 0.034101227 0)
(-0.027574632 0.034043602 0)
(-0.030833353 0.03393262 0)
(-0.034122991 0.033752466 0)
(-0.03743919 0.033485868 0)
(-0.040775749 0.033114658 0)
(-0.044124939 0.032619189 0)
(-0.047473561 0.031978179 0)
(-0.050807392 0.031168488 0)
(-0.054108888 0.030170097 0)
(-0.057355257 0.028961531 0)
(-0.060521305 0.027522712 0)
(-0.063576899 0.025834933 0)
(-0.066487457 0.02388213 0)
(-0.069217116 0.021652502 0)
(-0.071725113 0.019138152 0)
(-0.073966906 0.0163374 0)
(-0.075899019 0.013254744 0)
(-0.07747584 0.0099016751 0)
(-0.078651455 0.0062982948 0)
(-0.079383569 0.0024730287 0)
(-0.079634606 -0.0015362132 0)
(-0.079357284 -0.0056845213 0)
(-0.078532651 -0.0099329695 0)
(-0.077138366 -0.014202257 0)
(-0.075175752 -0.018435861 0)
(-0.072654793 -0.022556702 0)
(-0.069578453 -0.026498391 0)
(-0.065991639 -0.030196252 0)
(-0.061940211 -0.033582444 0)
(-0.057480308 -0.036591335 0)
(-0.052689057 -0.03916391 0)
(-0.047655576 -0.041253979 0)
(-0.042479028 -0.042829689 0)
(-0.037265778 -0.04387785 0)
(-0.032125041 -0.04440681 0)
(-0.027163983 -0.044449276 0)
(-0.022481904 -0.044063828 0)
(-0.018162795 -0.043334474 0)
(-0.014267912 -0.042368415 0)
(-0.010827561 -0.041291781 0)
(-0.0078322173 -0.040239009 0)
(-0.005230307 -0.039337549 0)
(-0.0029335259 -0.038694898 0)
(-0.00082195046 -0.038376062 0)
(0.0012245638 -0.038323406 0)
(0.0033152507 -0.038538467 0)
(0.005567927 -0.039084654 0)
(0.0081049507 -0.039900427 0)
(0.011017795 -0.040882268 0)
(0.014363036 -0.041906629 0)
(0.018153791 -0.042841301 0)
(0.022364392 -0.043561395 0)
(0.026940119 -0.043959836 0)
(0.031802662 -0.043950777 0)
(0.036858117 -0.043472485 0)
(0.042002505 -0.042487953 0)
(0.047127108 -0.04098251 0)
(0.052126272 -0.038964817 0)
(0.0569006 -0.036462753 0)
(0.061357951 -0.03351914 0)
(0.065419252 -0.030191527 0)
(0.069026902 -0.02654432 0)
(0.072130464 -0.022643922 0)
(0.074682922 -0.018555453 0)
(0.076680177 -0.014345023 0)
(0.078110463 -0.010092977 0)
(0.078967896 -0.0058565289 0)
(0.07927561 -0.0017127208 0)
(0.079056367 0.0022956114 0)
(0.078354205 0.0061225713 0)
(0.077205653 0.0097297213 0)
(0.075653146 0.013088115 0)
(0.073743483 0.016176954 0)
(0.071522371 0.018984846 0)
(0.069032862 0.021506798 0)
(0.066320445 0.023743641 0)
(0.063425635 0.025703412 0)
(0.06038365 0.027398003 0)
(0.057230126 0.028843055 0)
(0.053995639 0.030057113 0)
(0.050705584 0.03106034 0)
(0.047381945 0.031874039 0)
(0.044042775 0.03251942 0)
(0.040703169 0.033018287 0)
(0.037375114 0.033391903 0)
(0.034066595 0.033660393 0)
(0.030784638 0.033841654 0)
(0.027533075 0.03395324 0)
(0.024312528 0.034011013 0)
(0.021118345 0.034028456 0)
(0.018002492 0.034017476 0)
(0.014456134 0.033993343 0)
(0.012832623 0.033946007 0)
(0.0069650639 0.033886001 0)
(-0.0069262669 0.037067844 0)
(-0.012771187 0.037150097 0)
(-0.014415583 0.037218658 0)
(-0.017982825 0.037271077 0)
(-0.021122729 0.03731428 0)
(-0.024354954 0.037334417 0)
(-0.027628117 0.037316039 0)
(-0.030948372 0.037244029 0)
(-0.034316677 0.037100894 0)
(-0.037729793 0.036867964 0)
(-0.041183826 0.036523405 0)
(-0.044672205 0.036043908 0)
(-0.048183582 0.035406912 0)
(-0.051703781 0.034585121 0)
(-0.055214211 0.033553898 0)
(-0.058692054 0.032287665 0)
(-0.062110432 0.030762175 0)
(-0.065437507 0.028955006 0)
(-0.068635828 0.026844691 0)
(-0.071664124 0.024415565 0)
(-0.074476441 0.021658686 0)
(-0.077022721 0.018566955 0)
(-0.079251401 0.015143562 0)
(-0.081108563 0.011400272 0)
(-0.082539631 0.0073575464 0)
(-0.08349125 0.003045999 0)
(-0.083913707 -0.0014920176 0)
(-0.083773276 -0.0062038873 0)
(-0.083020573 -0.011043414 0)
(-0.081623569 -0.015923076 0)
(-0.079578844 -0.020765926 0)
(-0.076891994 -0.025486406 0)
(-0.073588848 -0.030003897 0)
(-0.069691729 -0.034233238 0)
(-0.065251833 -0.038097433 0)
(-0.060336378 -0.041508368 0)
(-0.055030903 -0.044393751 0)
(-0.049439374 -0.04669229 0)
(-0.043678988 -0.048360161 0)
(-0.037878651 -0.049375868 0)
(-0.032173737 -0.04974525 0)
(-0.026700161 -0.049505663 0)
(-0.021586733 -0.048727904 0)
(-0.016946074 -0.047517236 0)
(-0.01286482 -0.046012945 0)
(-0.0093900465 -0.044385057 0)
(-0.0065133224 -0.042819939 0)
(-0.0041671068 -0.041492801 0)
(-0.0022309086 -0.040553645 0)
(-0.00054091087 -0.040090295 0)
(0.0010649398 -0.040025242 0)
(0.0027296463 -0.040359656 0)
(0.0046120024 -0.041178125 0)
(0.0068790061 -0.042398155 0)
(0.0096544832 -0.043874627 0)
(0.013011544 -0.045436247 0)
(0.016963902 -0.04690181 0)
(0.021470807 -0.048103094 0)
(0.026453862 -0.048900578 0)
(0.03180767 -0.049186153 0)
(0.037409874 -0.048884325 0)
(0.04312975 -0.047952443 0)
(0.04883333 -0.046376903 0)
(0.05439102 -0.04417162 0)
(0.059684203 -0.041375039 0)
(0.064604237 -0.038044188 0)
(0.069062195 -0.034249457 0)
(0.072990165 -0.030078848 0)
(0.076331432 -0.025607234 0)
(0.079058049 -0.020921082 0)
(0.081144283 -0.016103615 0)
(0.082583376 -0.011241141 0)
(0.083377244 -0.0064117401 0)
(0.083555085 -0.0017025444 0)
(0.083166445 0.0028367433 0)
(0.082246958 0.0071524049 0)
(0.08084467 0.011201551 0)
(0.07901286 0.014952627 0)
(0.076807216 0.018384611 0)
(0.074282039 0.021485426 0)
(0.071488493 0.024251683 0)
(0.068476973 0.026689873 0)
(0.06529402 0.028808354 0)
(0.061980351 0.030623491 0)
(0.058573851 0.032156431 0)
(0.055107248 0.033429402 0)
(0.05160745 0.034466386 0)
(0.048097092 0.035293029 0)
(0.044594928 0.03593469 0)
(0.041115126 0.036417842 0)
(0.037668897 0.036765281 0)
(0.034263153 0.037000734 0)
(0.030901973 0.037145679 0)
(0.027588356 0.037218659 0)
(0.02432158 0.037237751 0)
(0.021095156 0.037218138 0)
(0.017961026 0.037173889 0)
(0.014399741 0.037120064 0)
(0.012760713 0.037049728 0)
(0.0069221283 0.036964241 0)
(-0.0068688294 0.04014423 0)
(-0.012672165 0.040257781 0)
(-0.014328058 0.040355873 0)
(-0.017903361 0.040447349 0)
(-0.021056854 0.040536383 0)
(-0.024317686 0.040605432 0)
(-0.027634533 0.040641091 0)