/*--------------------------------*- C++ -*----------------------------------*\
  =========                 |
  \\      /  F ield         | OpenFOAM: The Open Source CFD Toolbox
   \\    /   O peration     | Website:  https://openfoam.org
    \\  /    A nd           | Version:  9
     \\/     M anipulation  |
\*---------------------------------------------------------------------------*/
FoamFile
{
    format      ascii;
    class       volScalarField;
    location    "7.5";
    object      p;
}
// * * * * * * * * * * * * * * * * * * * * * * * * * * * * * * * * * * * * * //

dimensions      [1 -1 -2 0 0 0 0];

internalField   nonuniform List<scalar> 
5250
(
1.00001
1.00003
1.0001
1.00026
1.00064
1.00158
1.00399
1.0095
1.02447
1.05874
1.15097
1.3883
2.06725
4.06664
9.58991
11.3394
11.1686
11.0829
11.167
11.3855
11.6046
11.7429
11.8495
11.9337
11.9984
1.00001
1.00003
1.0001
1.00026
1.00062
1.00161
1.00374
1.00994
1.02286
1.06041
1.14585
1.38664
2.04965
4.02553
9.49266
11.3407
11.1657
11.0738
11.1584
11.3774
11.596
11.7345
11.8427
11.9281
11.9942
1.00001
1.00003
1.0001
1.00023
1.00064
1.00146
1.00395
1.0089
1.02403
1.05558
1.14667
1.37023
2.02394
3.92975
9.27573
11.3439
11.1557
11.0452
11.128
11.3441
11.5597
11.6959
11.8033
11.8879
11.9537
1.00001
1.00003
1.00009
1.00025
1.00056
1.00154
1.00345
1.00935
1.02126
1.05663
1.13552
1.36024
1.97125
3.79256
8.93298
11.3545
11.1418
10.9978
11.0761
11.2855
11.4961
11.6277
11.7316
11.8139
11.88
1.00001
1.00003
1.00008
1.00023
1.00054
1.00144
1.00327
1.0088
1.02002
1.05348
1.12749
1.33847
1.9089
3.60593
8.46167
11.3783
11.1263
10.9332
11.0052
11.2042
11.4078
11.5325
11.6307
11.7093
11.7769
1
1.00003
1.00008
1.00021
1.00051
1.00129
1.0031
1.00799
1.01881
1.04892
1.11851
1.31045
1.83305
3.37516
7.85401
11.417
11.1102
10.8512
10.9145
11.0986
11.292
11.4057
11.4938
11.5647
11.6326
1
1.00003
1.00007
1.00019
1.00045
1.00121
1.00274
1.00739
1.01675
1.04489
1.10605
1.28061
1.74253
3.10882
7.11313
11.4596
11.0943
10.7534
10.8046
10.9664
11.1447
11.2411
11.3108
11.3647
11.4272
1
1.00002
1.00006
1.00018
1.0004
1.00109
1.00242
1.00659
1.01486
1.03973
1.09378
1.24662
1.64629
2.81949
6.26752
11.4574
11.0673
10.6453
10.6789
10.8064
10.9624
11.032
11.0702
11.0881
11.1249
1
1.00002
1.00006
1.00015
1.00036
1.00094
1.00216
1.00574
1.01299
1.03487
1.0813
1.21389
1.55282
2.53884
5.40996
11.3271
10.9845
10.5286
10.5355
10.615
10.7389
10.768
10.755
10.6996
10.6478
1
1.00002
1.00005
1.00012
1.00034
1.00077
1.00205
1.00471
1.01234
1.02909
1.07456
1.18462
1.48779
2.34056
4.86067
10.8297
10.7392
10.424
10.3568
10.3973
10.4662
10.4465
10.3555
10.1401
9.8185
1
1.00002
1.00004
1.00012
1.00027
1.00074
1.00166
1.00449
1.01011
1.02716
1.06309
1.1658
1.42162
2.16787
4.33501
9.91127
10.4658
10.3066
10.16
10.1631
10.1561
10.0771
9.83632
9.2716
7.82376
1
1.00001
1.00004
1.00009
1.00026
1.00059
1.00158
1.00358
1.00955
1.02206
1.05751
1.13981
1.36793
1.994
3.83524
8.82748
10.3083
10.1964
9.98145
9.92405
9.853
9.68255
9.30323
8.54122
7.05813
1
1.00001
1.00003
1.00009
1.0002
1.00054
1.00127
1.00317
1.00791
1.01907
1.04843
1.11911
1.30829
1.82846
3.34015
7.58972
10.2092
10.096
9.83061
9.68711
9.56103
9.31074
8.84064
8.0738
6.91721
1
1.00001
1.00003
1.00007
1.00017
1.00045
1.00102
1.00274
1.00617
1.01662
1.03804
1.10058
1.24684
1.66753
2.84961
6.24521
10.1183
10.0056
9.70277
9.46207
9.27654
8.98601
8.50636
7.80834
6.90123
1
1.00001
1.00002
1.00005
1.00015
1.00033
1.00089
1.00201
1.00539
1.01212
1.03251
1.07536
1.19776
1.5049
2.38371
4.83574
9.85803
9.83926
9.60617
9.26435
9.02206
8.71598
8.26027
7.63859
6.8809
1
1.00001
1.00002
1.00005
1.00011
1.00029
1.00066
1.00178
1.00398
1.01069
1.02434
1.06425
1.15408
1.40836
2.09561
4.08701
9.02236
9.5763
9.42058
9.08695
8.80251
8.48974
8.06416
7.5082
6.85065
1
1
1.00001
1.00004
1.00009
1.00022
1.00058
1.0013
1.00349
1.00784
1.02106
1.04845
1.12727
1.31709
1.86237
3.39981
7.52258
9.29725
9.20937
8.95552
8.62295
8.29891
7.90028
7.39921
6.81802
1
1
1.00001
1.00003
1.00007
1.00018
1.00041
1.00109
1.00253
1.00649
1.01562
1.03883
1.09662
1.24496
1.64721
2.78456
5.93812
9.10168
9.07159
8.87747
8.48905
8.1414
7.76152
7.30609
6.78634
1
1
1.00001
1.00002
1.00006
1.00013
1.00034
1.00076
1.00204
1.00457
1.01225
1.02774
1.07325
1.17518
1.46286
2.22923
4.32855
8.66582
8.95929
8.79367
8.41525
8.02082
7.64516
7.2257
6.75599
1
1
1.00001
1.00002
1.00004
1.0001
1.00024
1.00061
1.00144
1.00375
1.00855
1.02263
1.05238
1.13646
1.34069
1.9198
3.52156
7.56524
8.72976
8.62519
8.3356
7.92129
7.54511
7.15358
6.72565
1
1
1
1.00001
1.00003
1.00008
1.00018
1.00047
1.00106
1.00282
1.00633
1.01695
1.03872
1.1017
1.24887
1.66677
2.81193
5.90745
8.47403
8.44744
8.26134
7.86378
7.46583
7.08895
6.69529
1
1
1
1.00001
1.00002
1.00005
1.00014
1.00031
1.00082
1.00186
1.00486
1.01131
1.02859
1.06925
1.17424
1.44448
2.17714
4.10281
7.9803
8.33805
8.19294
7.8429
7.41268
7.03697
6.66854
1
1
1
1.00001
1.00002
1.00004
1.0001
1.00022
1.0006
1.00133
1.00356
1.00798
1.02117
1.04891
1.12666
1.31411
1.83912
3.26102
6.8136
8.11813
8.04673
7.80701
7.3824
6.99961
6.64649
1
1
1
1
1.00001
1.00003
1.00007
1.00017
1.00041
1.00097
1.00248
1.00571
1.015
1.03442
1.08978
1.21823
1.577
2.5397
5.09151
7.76092
7.85982
7.72713
7.39159
6.99136
6.63635
1
1
1
1
1.00001
1.00002
1.00005
1.00012
1.00027
1.0007
1.00164
1.00404
1.00997
1.0238
1.05995
1.14599
1.37393
1.97442
3.54896
6.99931
7.71756
7.63158
7.38549
7.0006
6.63932
1
1
1
1
1.00001
1.00001
1.00003
1.00008
1.00019
1.00047
1.00115
1.00271
1.00696
1.01599
1.04165
1.09803
1.25358
1.65012
2.7341
5.46855
7.45223
7.472
7.35428
7.04616
6.65485
1
1
1
1
1
1.00001
1.00002
1.00005
1.00013
1.00031
1.00075
1.00185
1.00436
1.0111
1.02572
1.06593
1.15796
1.40637
2.04244
3.64785
6.88615
7.37955
7.29943
7.07617
6.69508
1
1
1
1
1
1.00001
1.00001
1.00003
1.00009
1.0002
1.00052
1.00118
1.00305
1.00712
1.01772
1.04311
1.10617
1.26654
1.69018
2.81449
5.60463
7.16281
7.17385
7.06356
6.78558
1
1
1
1
1
1
1.00001
1.00002
1.00006
1.00013
1.00033
1.00076
1.00199
1.00448
1.0118
1.02659
1.06976
1.16424
1.42737
2.08987
3.76187
6.65143
7.08033
7.01839
6.8323
1
1
1
1
1
1
1.00001
1.00001
1.00004
1.00009
1.0002
1.00053
1.0012
1.00315
1.00704
1.01864
1.04224
1.11013
1.26546
1.69608
2.79453
5.4665
6.85961
6.90886
6.81798
1
1
1
1
1
1
1
1.00001
1.00002
1.00005
1.00014
1.00032
1.0008
1.0019
1.00459
1.01139
1.02682
1.06771
1.16313
1.41637
2.0587
3.6479
6.33584
6.80987
6.77125
1
1
1
1
1
1
1
1.00001
1.00001
1.00004
1.00008
1.00021
1.00048
1.00126
1.0028
1.00738
1.01663
1.04308
1.1011
1.25897
1.65184
2.68262
5.14168
6.57205
6.68851
1
1
1
1
1
1
1
1
1.00001
1.00002
1.00005
1.00012
1.00032
1.00071
1.00185
1.00418
1.01072
1.02489
1.0622
1.15008
1.37799
1.94714
3.31848
6.01277
6.60346
1
1
1
1
1
1
1
1
1.00001
1.00001
1.00003
1.00008
1.00019
1.00045
1.00115
1.00258
1.00676
1.01508
1.03976
1.09102
1.23574
1.58467
2.50588
4.72929
6.3389
1
1
1
1
1
1
1
1
1
1.00001
1.00002
1.00005
1.00011
1.00029
1.00065
1.00168
1.00379
1.00975
1.02248
1.0563
1.13525
1.33947
1.84866
3.08681
5.68538
1
1
1
1
1
1
1
1
1
1
1.00001
1.00003
1.00007
1.00017
1.00042
1.00101
1.00237
1.00601
1.01367
1.03536
1.08165
1.20913
1.51682
2.32155
4.26457
1
1
1
1
1
1
1
1
1
1
1.00001
1.00002
1.00004
1.00011
1.00027
1.00061
1.00157
1.00352
1.00921
1.02063
1.05399
1.12517
1.32177
1.8079
3.0471
1
1
1
1
1
1
1
1
1
1
1
1.00001
1.00003
1.00007
1.00017
1.00044
1.00098
1.0026
1.0058
1.01532
1.03473
1.09037
1.21635
1.56622
2.47315
1
1
1
1
1
1
1
1
1
1
1
1.00001
1.00002
1.00006
1.00013
1.00035
1.00078
1.00208
1.00469
1.01255
1.02878
1.07566
1.18371
1.48895
2.32879
1
1
1
1
1
1
1
1
1
1
1
1.00001
1.00002
1.00005
1.00012
1.0003
1.00069
1.00185
1.00422
1.01142
1.02622
1.07027
1.17076
1.46019
2.26442
1
1
1
1
1
1
1
1
1
1
1
1.00001
1.00002
1.00005
1.0001
1.00028
1.00064
1.00176
1.00398
1.01087
1.02505
1.06712
1.16396
1.44345
2.22611
1
1
1
1
1
1
1
1
1
1
1
1.00001
1.00002
1.00004
1.0001
1.00027
1.00063
1.00168
1.00389
1.01054
1.02439
1.06536
1.16035
1.43269
2.20203
1
1
1
1
1
1
1
1
1
1
1
1.00001
1.00002
1.00004
1.0001
1.00025
1.00066
1.00153
1.00415
1.00946
1.02587
1.06089
1.1619
1.42098
2.18504
1
1
1
1
1
1
1
1
1
1
1
1.00001
1.00002
1.00004
1.0001
1.00025
1.00063
1.00158
1.00383
1.00996
1.02402
1.06234
1.15653
1.41745
2.16792
1
1
1
1
1
1
1
1
1
1
1
1.00001
1.00002
1.00004
1.0001
1.00023
1.00064
1.00145
1.00402
1.00912
1.02508
1.05896
1.15778
1.40912
2.15685
1
1
1
1
1
1
1
1
1
1
1
1.00001
1.00002
1.00004
1.0001
1.00023
1.00062
1.00146
1.00385
1.00933
1.02388
1.05983
1.15395
1.40757
2.14725
1
1
1
1
1
1
1
1
1
1
1
1.00001
1.00002
1.00004
1.0001
1.00022
1.00062
1.0014
1.00388
1.00896
1.02421
1.05822
1.15406
1.40404
2.14318
1
1
1
1
1
1
1
1
1
1
1
1.00001
1.00001
1.00004
1.00009
1.00022
1.0006
1.00139
1.00384
1.00875
1.02434
1.05718
1.15412
1.40224
2.14177
1
1
1
1
1
1
1
1
1
1
1
1.00001
1.00002
1.00003
1.00009
1.00022
1.0006
1.00139
1.00377
1.00894
1.02362
1.0581
1.15242
1.40299
2.14157
1
1
1
1
1
1
1
1
1
1
1
1.00001
1.00001
1.00003
1.00009
1.00021
1.0006
1.00137
1.00378
1.00881
1.02378
1.05765
1.15266
1.40261
2.14238
3.72525
3.03829
3.99525
4.18041
3.89919
3.79572
3.74814
3.68592
3.59114
3.49484
3.41187
3.33332
3.24892
3.16544
3.08745
3.01265
2.94046
2.90398
2.88933
2.88591
2.90269
2.95917
3.05542
3.18268
3.32785
3.47885
3.62834
3.77193
3.90846
4.03487
4.15097
4.25642
4.35275
4.44044
4.51977
4.5929
4.65921
4.71785
4.76858
4.81206
4.84881
4.87939
4.90703
4.92915
4.94322
4.95158
4.95482
4.95421
4.95064
4.94207
4.92803
4.91125
4.89185
4.86987
4.8455
4.81891
4.79028
4.75983
4.72771
4.69409
4.65909
4.62286
4.58547
4.54707
4.50769
4.46747
4.42642
4.38466
4.34219
4.2991
4.25543
4.21122
4.1665
4.12134
4.07576
4.02981
3.98352
3.93697
3.89018
3.84322
3.79614
3.74902
3.70189
3.65484
3.60792
3.56119
3.51472
3.46857
3.42281
3.37753
3.33281
3.28881
3.24567
3.20362
3.16299
3.12428
3.08823
3.05604
3.02938
3.01184
4.60597
4.01031
4.19726
4.10595
3.88331
3.80741
3.79978
3.72149
3.59311
3.48046
3.39631
3.32752
3.24559
3.16108
3.08197
3.0108
2.94715
2.904
2.88456
2.87926
2.89316
2.94757
3.04204
3.16977
3.31643
3.46867
3.61901
3.7625
3.89898
4.02528
4.14104
4.24583
4.34129
4.42857
4.50759
4.58197
4.64958
4.70858
4.75958
4.8036
4.84079
4.87227
4.89949
4.92133
4.93623
4.9451
4.94872
4.94835
4.94565
4.93834
4.92383
4.90673
4.88742
4.86588
4.84182
4.81551
4.78704
4.7568
4.72479
4.69134
4.65642
4.62031
4.58298
4.54467
4.50535
4.46519
4.42419
4.38248
4.34005
4.29702
4.25338
4.20921
4.16453
4.11941
4.07386
4.02795
3.9817
3.93517
3.88842
3.84149
3.79444
3.74735
3.70026
3.65325
3.60637
3.55969
3.51326
3.46715
3.42142
3.37617
3.33145
3.28744
3.24427
3.20215
3.16136
3.12249
3.08624
3.05375
3.02654
3.00843
5.4175
4.62706
4.38098
4.14127
3.92388
3.82064
3.76164
3.68082
3.57674
3.47514
3.40022
3.33633
3.24422
3.15324
3.06812
2.9954
2.93896
2.89979
2.87864
2.87132
2.88292
2.93052
3.01972
3.14679
3.29586
3.44862
3.59892
3.74095
3.88058
4.0078
4.12479
4.23099
4.32798
4.41667
4.49735
4.57168
4.63874
4.69808
4.74964
4.79429
4.83213
4.86416
4.89106
4.91274
4.92806
4.93747
4.94139
4.94113
4.93904
4.93295
4.91986
4.90182
4.88214
4.86079
4.83706
4.81104
4.78281
4.75271
4.72086
4.6875
4.6527
4.61666
4.57942
4.54115
4.50189
4.46175
4.42079
4.3791
4.33671
4.29369
4.25009
4.20595
4.1613
4.11621
4.0707
4.02481
3.97859
3.93209
3.88536
3.83847
3.79146
3.74441
3.69737
3.65043
3.60361
3.557
3.51062
3.46458
3.41889
3.37371
3.32901
3.28496
3.24177
3.19966
3.15886
3.11978
3.08313
3.05003
3.02191
3.0029
5.7875
4.96409
4.5132
4.22192
4.00544
3.85662
3.76671
3.67548
3.57165
3.46912
3.38862
3.31586
3.23082
3.14254
3.06046
2.99034
2.93729
2.9007
2.87549
2.85581
2.86466
2.91496
3.0013
3.12671
3.2727
3.42454
3.57513
3.71923
3.85709
3.98497
4.1024
4.20931
4.30681
4.3961
4.47757
4.55206
4.61945
4.67936
4.73164
4.77695
4.8156
4.84825
4.8754
4.89715
4.91304
4.92314
4.92773
4.92761
4.92616
4.92152
4.91086
4.89259
4.87257
4.8512
4.82787
4.80233
4.77461
4.7449
4.7134
4.68029
4.64575
4.60989
4.57284
4.5347
4.49557
4.45554
4.41468
4.37307
4.33077
4.28782
4.2443
4.20023
4.15566
4.11062
4.06518
4.01933
3.97317
3.92672
3.88005
3.83321
3.78628
3.7393
3.69237
3.64553
3.59884
3.55237
3.50614
3.46023
3.41463
3.36956
3.32503
3.28119
3.23799
3.19575
3.15473
3.11533
3.07815
3.04427
3.01502
2.99482
5.97763
5.20501
4.6845
4.34175
4.10051
3.92474
3.79508
3.69063
3.58294
3.47896
3.39294
3.31169
3.22541
3.13953
3.06011
2.99294
2.94118
2.90413
2.88042
2.87478
2.88589
2.92681
3.01077
3.12398
3.25764
3.39853
3.5436
3.68556
3.82212
3.95053
4.06937
4.17834
4.27792
4.3689
4.45195
4.52746
4.59562
4.65625
4.70938
4.75543
4.7949
4.82824
4.8559
4.87804
4.89457
4.90546
4.91087
4.91094
4.90995
4.90647
4.89812
4.88127
4.86111
4.83949
4.81633
4.79123
4.76406
4.73485
4.70378
4.67104
4.6368
4.60119
4.56436
4.52641
4.48744
4.44755
4.40682
4.36533
4.32313
4.2803
4.23686
4.19289
4.14839
4.10344
4.05805
4.01228
3.96617
3.91979
3.87318
3.82644
3.77959
3.73276
3.68593
3.6393
3.59275
3.54645
3.50037
3.45473
3.40942
3.36457
3.32012
3.27634
3.23317
3.1909
3.14969
3.10999
3.07228
3.03762
3.00721
2.98562
6.09481
5.39818
4.86466
4.48398
4.20922
4.00794
3.85367
3.72864
3.61368
3.50616
3.40901
3.32059
3.23338
3.14976
3.07559
3.01581
2.9727
2.94547
2.93418
2.937
2.95158
2.98956
3.06259
3.15089
3.25513
3.36931
3.49608
3.63133
3.76893
3.90119
4.02461
4.13753
4.24005
4.33304
4.41749
4.49409
4.56324
4.62495
4.67923
4.72637
4.76679
4.80101
4.82943
4.8523
4.86968
4.88157
4.88805
4.88894
4.88823
4.88559
4.87907
4.86544
4.84582
4.82419
4.80114
4.77644
4.74983
4.72126
4.69078
4.65856
4.62474
4.58951
4.55298
4.51531
4.47657
4.4369
4.39635
4.35503
4.31298
4.27028
4.22697
4.18311
4.13872
4.09386
4.04854
4.00284
3.95681
3.9105
3.86398
3.81734
3.77064
3.72401
3.67725
3.63088
3.58466
3.53876
3.49303
3.44767
3.40257
3.35791
3.31361
3.2699
3.22678
3.18449
3.14316
3.10318
3.06498
3.02957
2.99807
2.97515
6.17089
5.54878
5.02993
4.62997
4.32825
4.10146
3.92446
3.78374
3.6604
3.54708
3.4424
3.34556
3.25756
3.17858
3.11359
3.06679
3.04068
3.03337
3.03781
3.05512
3.09286
3.13536
3.17675
3.2238
3.28225
3.35597
3.43331
3.54816
3.68324
3.82302
3.95791
4.08058
4.18984
4.28687
4.37357
4.45149
4.52192
4.58502
4.64092
4.68971
4.73167
4.76726
4.79687
4.82086
4.8394
4.85256
4.86038
4.86263
4.86215
4.86025
4.85537
4.84494
4.82704
4.80611
4.78335
4.75896
4.73285
4.70489
4.67509
4.64348
4.61023
4.57546
4.53934
4.50201
4.46358
4.42416
4.38386
4.34274
4.30089
4.25836
4.2152
4.17147
4.12719
4.08242
4.03719
3.99157
3.9456
3.89939
3.85299
3.8065
3.75995
3.7136
3.66753
3.62149
3.57559
3.52999
3.48452
3.43939
3.39447
3.34999
3.30585
3.26228
3.21926
3.177
3.13561
3.09544
3.05686
3.02082
2.98838
2.96425
6.22014
5.66288
5.17087
4.76771
4.44903
4.20073
4.00459
3.84757
3.71365
3.59385
3.48497
3.38675
3.30056
3.22848
3.17719
3.15093
3.15176
3.16153
3.19259
3.25933
3.31688
3.34153
3.34905
3.34971
3.35199
3.36444
3.40053
3.47067
3.56688
3.70313
3.85164
3.99283
4.11785
4.22558
4.31874
4.39994
4.47251
4.53711
4.59472
4.6453
4.68915
4.72667
4.75799
4.78355
4.8036
4.81831
4.82774
4.83179
4.83158
4.83037
4.82696
4.81935
4.80411
4.78458
4.7625
4.73856
4.7129
4.68552
4.65636
4.62543
4.5928
4.5586
4.52296
4.48605
4.44798
4.40889
4.36886
4.328
4.28636
4.24404
4.20105
4.15747
4.11331
4.06864
4.02349
3.97795
3.93209
3.88602
3.83979
3.79364
3.74758
3.70164
3.65581
3.61017
3.56459
3.51926
3.47406
3.42917
3.38451
3.34027
3.29638
3.25301
3.21017
3.16802
3.12668
3.08641
3.04759
3.01106
2.97789
2.95275
6.25145
5.74854
5.28737
4.89158
4.5654
4.30237
4.09069
3.91871
3.77439
3.64791
3.53607
3.43784
3.35586
3.29617
3.26949
3.27241
3.28915
3.3361
3.4383
3.55435
3.59675
3.59266
3.57382
3.5264
3.44984
3.41003
3.41509
3.44025
3.4974
3.58681
3.71423
3.86446
4.00832
4.1353
4.24371
4.33534
4.4137
4.48153
4.54104
4.59327
4.63887
4.67857
4.71194
4.73957
4.7616
4.77827
4.78965
4.79585
4.79656
4.7959
4.79363
4.78816
4.77678
4.75912
4.73828
4.71516
4.69012
4.66333
4.6348
4.60455
4.5726
4.53905
4.504
4.4676
4.42998
4.39128
4.3516
4.31104
4.26967
4.22756
4.18477
4.14133
4.09729
4.05272
4.00764
3.9622
3.91646
3.87066
3.82488
3.77923
3.7336
3.68807
3.64254
3.59719
3.55191
3.50688
3.46198
3.41741
3.37306
3.32913
3.28552
3.24242
3.1998
3.15784
3.11661
3.07637
3.03742
3.0006
2.96688
2.94088
6.27032
5.81287
5.38286
5.00061
4.67441
4.40303
4.17974
3.99573
3.84193
3.70995
3.59641
3.50152
3.42931
3.39568
3.39918
3.4187
3.47387
3.59739
3.79344
3.90774
3.90665
3.88768
3.8319
3.71273
3.57991
3.4892
3.45398
3.45876
3.48089
3.53375
3.61144
3.72113
3.86032
4.00047
4.12988
4.24167
4.33522
4.4128
4.47791
4.53344
4.58137
4.62295
4.65848
4.68845
4.71292
4.73206
4.74589
4.75451
4.75765
4.75734
4.75595
4.75231
4.74442
4.72957
4.71063
4.68879
4.66467
4.63861
4.61075
4.58118
4.54991
4.51704
4.48263
4.44682
4.40972
4.37147
4.33218
4.29196
4.25088
4.20902
4.16642
4.12314
4.07921
4.03476
3.98969
3.94452
3.89921
3.85392
3.8086
3.76335
3.71806
3.67287
3.62766
3.58264
3.53767
3.49297
3.44841
3.4042
3.3602
3.3166
3.27333
3.23055
3.18823
3.14653
3.10551
3.06542
3.0265
2.98955
2.95553
2.92892
6.28086
5.86233
5.46133
5.09563
4.77458
4.50025
4.26956
4.07685
3.91557
3.78007
3.66784
3.58124
3.53329
3.53584
3.55462
3.61067
3.73811
3.99392
4.21037
4.26376
4.24845
4.19511
4.07402
3.89056
3.72932
3.61049
3.5369
3.50875
3.51204
3.52859
3.57087
3.63446
3.72193
3.84027
3.97497
4.10582
4.22158
4.31866
4.39811
4.46292
4.51638
4.56117
4.5991
4.63121
4.65804
4.67967
4.6962
4.70762
4.71386
4.71471
4.71407
4.71187
4.70665
4.69582
4.67901
4.65886
4.63607
4.61103
4.58398
4.55511
4.52453
4.49234
4.45859
4.4234
4.38686
4.34912
4.31028
4.27044
4.22968
4.18809
4.14569
4.10257
4.05875
4.0144
3.96984
3.92505
3.88019
3.83533
3.79038
3.74545
3.70048
3.65563
3.61078
3.56611
3.52153
3.47721
3.43305
3.38922
3.34563
3.30242
3.25955
3.21714
3.1752
3.13384
3.09315
3.05331
3.01459
2.97771
2.94361
2.9167
6.28747
5.90144
5.52686
5.17865
4.86613
4.59308
4.35907
4.16127
3.99582
3.86005
3.7554
3.68658
3.68709
3.7029
3.75648
3.88489
4.15132
4.4717
4.62303
4.61585
4.57658
4.47674
4.27592
4.06967
3.89648
3.76238
3.66526
3.60273
3.56943
3.56981
3.57765
3.60279
3.65392
3.71996
3.81326
3.93773
4.06473
4.18278
4.28477
4.36865
4.43583
4.4893
4.5324
4.56774
4.597
4.6211
4.64013
4.65456
4.66382
4.66803
4.66788
4.66679
4.66369
4.65682
4.64307
4.62515
4.60409
4.5804
4.5544
4.52641
4.49659
4.46511
4.43205
4.39753
4.36162
4.32446
4.28612
4.24673
4.20634
4.16503
4.12284
4.07984
4.03623
3.99231
3.94819
3.90394
3.85953
3.81506
3.77047
3.72591
3.68132
3.63684
3.59239
3.54813
3.50397
3.46008
3.41635
3.37294
3.32978
3.28702
3.24458
3.20262
3.1611
3.12018
3.07989
3.04044
3.00205
2.96544
2.93149
2.9045
6.2918
5.93351
5.58291
5.25212
4.95005
4.68164
4.44813
4.24926
4.08437
3.9554
3.86711
3.8492
3.86343
3.91444
4.03989
4.30533
4.69325
4.94459
4.97127
4.94636
4.86591
4.69107
4.45838
4.25019
4.07682
3.93589
3.8232
3.7364
3.67314
3.63401
3.6172
3.62004
3.63404
3.66664
3.71333
3.78682
3.89177
4.0111
4.12929
4.23581
4.32517
4.39653
4.45222
4.49556
4.52969
4.55695
4.57874
4.5957
4.60794
4.61557
4.61788
4.61747
4.61583
4.61167
4.60279
4.58755
4.56846
4.54637
4.52169
4.49478
4.46586
4.43518
4.40285
4.36903
4.33379
4.29724
4.25946
4.22055
4.18055
4.13954
4.09755
4.05486
4.01173
3.96834
3.92469
3.88088
3.83686
3.79279
3.74859
3.70444
3.66025
3.61619
3.57218
3.52837
3.48467
3.44123
3.39798
3.35506
3.31239
3.27011
3.22819
3.18673
3.14574
3.10534
3.06558
3.02667
2.98881
2.95269
2.91915
2.89241
6.29647
5.96083
5.63202
5.31866
5.02858
4.7673
4.53813
4.34316
4.18633
4.07353
4.03404
4.04549
4.09102
4.20898
4.4632
4.89474
5.22517
5.3196
5.30142
5.23632
5.08727
4.85302
4.62828
4.43291
4.2656
4.12188
3.99842
3.89351
3.8068
3.73844
3.68952
3.65771
3.65187
3.65693
3.67371
3.70752
3.75915
3.84259
3.9502
4.06468
4.17289
4.26717
4.34433
4.40454
4.4503
4.4849
4.51127
4.53146
4.54647
4.55709
4.56291
4.56386
4.56325
4.56112
4.55599
4.54532
4.52871
4.50853
4.48546
4.45989
4.43208
4.40234
4.37085
4.3378
4.30329
4.26741
4.23025
4.19186
4.15229
4.11153
4.06995
4.02783
3.98528
3.94241
3.89923
3.85586
3.81228
3.76864
3.72489
3.68119
3.63747
3.59388
3.55035
3.50703
3.46384
3.42091
3.37818
3.33579
3.29367
3.25194
3.21059
3.16972
3.12933
3.08956
3.05046
3.01224
2.9751
2.93974
2.9069
2.8808
6.30501
5.98685
5.67756
5.38111
5.10399
4.85245
4.63176
4.44849
4.31009
4.24361
4.2513
4.29046
4.39874
4.63685
5.08821
5.48077
5.63677
5.62714
5.58014
5.46376
5.23591
5.00607
4.80035
4.61931
4.45823
4.31282
4.18117
4.0627
3.95806
3.86789
3.79345
3.7347
3.69449
3.67012
3.67082
3.67774
3.69553
3.73255
3.79327
3.88664
3.99111
4.09774
4.19625
4.2799
4.3463
4.39654
4.43346
4.46026
4.47963
4.49331
4.50208
4.50651
4.50644
4.50558
4.5029
4.49674
4.48418
4.46644
4.44535
4.42142
4.39499
4.3664
4.33591
4.30374
4.27002
4.23488
4.19836
4.16052
4.12134
4.08115
4.04019
3.9987
3.95672
3.91439
3.8717
3.82882
3.78572
3.74257
3.69931
3.65611
3.61289
3.56982
3.52682
3.48404
3.4414
3.39904
3.3569
3.31509
3.27358
3.23249
3.19179
3.15159
3.11193
3.07292
3.03464
2.99733
2.96117
2.92693
2.89517
2.87023
6.32129
6.01633
5.72348
5.44271
5.17944
4.94123
4.73561
4.5753
4.47854
4.48199
4.51448
4.61374
4.83823
5.28816
5.71875
5.93175
5.92896
5.89406
5.79765
5.60082
5.37116
5.16268
4.97728
4.80845
4.65149
4.50385
4.36531
4.23637
4.11821
4.01175
3.91807
3.83787
3.77214
3.72161
3.68784
3.67359
3.67539
3.68303
3.70384
3.74714
3.81742
3.91084
4.01338
4.11378
4.2034
4.27714
4.3337
4.37483
4.40363
4.42334
4.43593
4.44363
4.44609
4.44577
4.44443
4.44094
4.43339
4.41911
4.40061
4.37878
4.3541
4.32698
4.29771
4.26658
4.23376
4.1994
4.16356
4.12625
4.08766
4.04821
4.008
3.96719
3.92584
3.8841
3.84198
3.79966
3.7571
3.7145
3.67179
3.62915
3.5865
3.544
3.50159
3.4594
3.41739
3.37565
3.33416
3.29302
3.25221
3.21182
3.17188
3.13248
3.09367
3.0556
3.01836
2.98223
2.94739
2.91475
2.88456
2.86153
6.35422
6.05353
5.77263
5.50619
5.25853
5.03868
4.86058
4.73994
4.73239
4.7598
4.85283
5.07081
5.51161
5.96185
6.20575
6.22499
6.19565
6.10725
5.9227
5.70608
5.50582
5.32487
5.15682
4.99618
4.8408
4.6905
4.54629
4.40946
4.28123
4.16269
4.05464
3.95787
3.87303
3.80098
3.74253
3.69944
3.67225
3.66602
3.66687
3.67484
3.69875
3.74927
3.82769
3.9215
4.02109
4.11547
4.19669
4.26099
4.30831
4.34095
4.36205
4.37473
4.38102
4.38192
4.38137
4.37951
4.37508
4.36579
4.3504
4.33122
4.30885
4.28367
4.25598
4.22611
4.19433
4.16083
4.12567
4.08904
4.05128
4.01266
3.97324
3.93319
3.89254
3.85148
3.81001
3.76832
3.72639
3.68441
3.64231
3.60029
3.55828
3.51643
3.47468
3.43316
3.39183
3.35079
3.31004
3.26964
3.22962
3.19005
3.15099
3.11253
3.07477
3.03785
3.00195
2.96739
2.93437
2.90401
2.87614
2.85609
6.41133
6.10001
5.82616
5.57425
5.34659
5.1565
5.02231
4.9963
5.0223
5.11324
5.32955
5.76864
6.22896
6.48671
6.5185
6.49042
6.40352
6.22196
6.01164
5.82258
5.65208
5.49116
5.33379
5.17753
5.02247
4.86999
4.72166
4.57913
4.44351
4.31598
4.19712
4.08778
3.98839
3.89966
3.82219
3.75693
3.70544
3.66804
3.65164
3.64182
3.64329
3.65371
3.68223
3.74159
3.82467
3.92005
4.01634
4.10435
4.17735
4.23249
4.27069
4.29497
4.30843
4.31431
4.31424
4.31337
4.31086
4.30527
4.29393
4.27795
4.25843
4.23573
4.21009
4.18186
4.15137
4.11885
4.08451
4.04878
4.01197
3.97425
3.93571
3.8965
3.85665
3.81637
3.77565
3.73469
3.69347
3.65219
3.6108
3.56949
3.52819
3.48706
3.44605
3.40527
3.36473
3.32447
3.28455
3.245
3.20589
3.16728
3.12927
3.09195
3.05548
3.02006
2.98591
2.95349
2.92303
2.89596
2.87151
2.85588
6.47396
6.15578
5.88616
5.65123
5.45461
5.31239
5.2751
5.29997
5.39112
5.61091
6.05799
6.52605
6.78864
6.82127
6.79166
6.70033
6.51157
6.30502
6.12002
5.95684
5.8047
5.65471
5.50304
5.34928
5.19459
5.04091
4.88996
4.74349
4.60255
4.46833
4.34135
4.22245
4.11192
4.01043
3.9184
3.83639
3.76541
3.70642
3.661
3.63255
3.61577
3.60673
3.60984
3.6243
3.65867
3.72774
3.81274
3.90794
4.00037
4.08118
4.1453
4.19127
4.22067
4.23702
4.24315
4.24298
4.24175
4.23848
4.23146
4.21875
4.20221
4.1823
4.15918
4.13308
4.10432
4.07312
4.03995
4.00537
3.96961
3.93289
3.8953
3.85703
3.81809
3.77869
3.73882
3.69869
3.65829
3.61781
3.57722
3.53671
3.49622
3.4559
3.41573
3.3758
3.33613
3.29677
3.25779
3.21922
3.18118
3.1437
3.10696
3.07106
3.03625
3.00279
2.97103
2.9416
2.91481
2.89254
2.87267
2.86069
6.58331
6.23728
5.96124
5.74891
5.60081
5.56091
5.58629
5.68219
5.91352
6.38288
6.86022
7.11992
7.14258
7.10852
7.00616
6.79844
6.58835
6.40558
6.24718
6.10151
5.95901
5.81405
5.66501
5.51247
5.35803
5.2036
5.05097
4.90172
4.75697
4.61777
4.48462
4.3584
4.23927
4.12793
4.02464
3.92994
3.8441
3.76809
3.70285
3.64998
3.61086
3.58816
3.56766
3.56155
3.56691
3.58614
3.62896
3.7044
3.79144
3.88441
3.97204
4.04576
4.10129
4.13843
4.15945
4.16798
4.16781
4.16636
4.16245
4.15415
4.14046
4.12307
4.10248
4.07886
4.0523
4.02302
3.99159
3.95848
3.92399
3.88842
3.85191
3.81467
3.77674
3.73832
3.69941
3.66023
3.62075
3.58119
3.5415
3.50189
3.46232
3.42291
3.38369
3.34472
3.30605
3.26772
3.22985
3.19243
3.15566
3.11957
3.08442
3.05035
3.01774
2.98697
2.95855
2.9334
2.91215
2.89518
2.88004
2.87428
6.63118
6.33749
6.06601
5.88922
5.84751
5.87619
5.98243
6.23557
6.74574
7.23653
7.49204
7.49172
7.44871
7.32729
7.09056
6.87053
6.68564
6.52944
6.38871
6.25246
6.11346
5.96965
5.82096
5.66843
5.51381
5.35878
5.20503
5.0538
4.90632
4.76323
4.62554
4.49345
4.36775
4.24866
4.13647
4.03166
3.93458
3.84557
3.76539
3.69479
3.63517
3.58715
3.55491
3.52926
3.51043
3.51113
3.51947
3.54322
3.59367
3.67136
3.7606
3.85133
3.93356
3.9998
4.04657
4.07458
4.08759
4.08801
4.08668
4.08265
4.07386
4.05886
4.04027
4.01892
3.99482
3.96797
3.93882
3.90767
3.87483
3.84066
3.80541
3.76932
3.73249
3.69516
3.65731
3.6192
3.58076
3.54224
3.50359
3.46502
3.42649
3.38814
3.35
3.31212
3.27462
3.23749
3.20091
3.16488
3.12966
3.09531
3.06221
3.03059
3.00098
2.97406
2.95035
2.93191
2.91611
2.90574
2.89954
2.90057
6.62705
6.46306
6.21933
6.14109
6.17291
6.29304
6.57751
7.14697
7.66174
7.90054
7.89076
7.82274
7.65684
7.39796
7.15995
6.96685
6.80882
6.66994
6.53745
6.40369
6.2648
6.12021
5.97077
5.81775
5.66277
5.50728
5.35265
5.19999
5.0503
4.90434
4.76292
4.62628
4.49534
4.3699
4.25083
4.13805
4.03208
3.93299
3.84136
3.75756
3.68243
3.61688
3.56181
3.52079
3.48835
3.4635
3.44844
3.45107
3.46326
3.49292
3.55315
3.63222
3.72216
3.80978
3.88534
3.94288
3.9804
3.99971
4.00378
4.00264
3.99876
3.98996
3.97376
3.95417
3.93195
3.90762
3.88103
3.85228
3.82157
3.78926
3.75558
3.72088
3.68531
3.64919
3.61252
3.57558
3.53832
3.50097
3.4635
3.4261
3.38876
3.35161
3.31471
3.27812
3.24195
3.20627
3.17122
3.13693
3.10364
3.0716
3.04121
3.01302
2.9877
2.96635
2.95004
2.9376
2.92974
2.93053
2.93428
2.94507
6.61349
6.57243
6.48119
6.51016
6.63893
6.95404
7.58554
8.13503
8.35757
8.33524
8.23456
8.0096
7.71996
7.46271
7.25686
7.09204
6.95114
6.81956
6.6883
6.55297
6.41199
6.26571
6.11509
5.96139
5.80593
5.64999
5.49456
5.34073
5.1892
5.04091
4.89627
4.7561
4.62059
4.49034
4.36551
4.2464
4.13322
4.02619
3.92558
3.83166
3.74489
3.66591
3.59531
3.53461
3.48434
3.44796
3.41405
3.38915
3.38193
3.38635
3.40212
3.43759
3.50632
3.58709
3.67495
3.75794
3.82636
3.87507
3.90331
3.91409
3.91342
3.91016
3.90217
3.88599
3.8658
3.84306
3.81837
3.79184
3.76353
3.7335
3.70186
3.66893
3.63495
3.60025
3.56495
3.52931
3.49339
3.45734
3.42123
3.38517
3.34921
3.31347
3.278
3.24293
3.20834
3.1744
3.14125
3.10916
3.0784
3.04946
3.02288
2.99963
2.98065
2.96755
2.95686
2.95589
2.95839
2.9668
2.98629
3.02744
6.62648
6.70163
6.80046
7.01795
7.46931
8.13382
8.66888
8.8564
8.81936
8.67936
8.38446
8.05983
7.7812
7.56079
7.38602
7.23901
7.10464
6.97272
6.83808
6.69882
6.55444
6.40605
6.25403
6.09954
5.9435
5.78704
5.63083
5.47595
5.32284
5.17258
5.02535
4.88216
4.74296
4.60862
4.479
4.35468
4.23562
4.12216
4.01434
3.91245
3.8167
3.72749
3.64522
3.57055
3.50451
3.4473
3.40329
3.36386
3.33267
3.30979
3.3105
3.31735
3.33716
3.37967
3.45088
3.53393
3.61997
3.69746
3.75792
3.79697
3.81738
3.81848
3.8165
3.81047
3.79705
3.77611
3.75244
3.72739
3.70106
3.67325
3.64388
3.6131
3.5811
3.54816
3.51452
3.4804
3.44601
3.41145
3.37687
3.34235
3.30798
3.27386
3.2401
3.20682
3.17417
3.14238
3.11167
3.08245
3.05518
3.03053
3.00961
2.99362
2.98321
2.97725
2.97854
2.98412
2.99936
3.03176
3.07933
3.16064
6.5944
6.96874
7.38095
8.03768
8.81058
9.31833
9.41742
9.35387
9.15817
8.77062
8.41263
8.11454
7.88016
7.69486
7.53969
7.39915
7.26302
7.12576
6.98509
6.8406
6.69285
6.54164
6.38799
6.23253
6.07585
5.91873
5.76178
5.60582
5.45138
5.29927
5.1499
5.00397
4.86177
4.72381
4.59029
4.46148
4.33764
4.21876
4.10504
3.99659
3.89369
3.79647
3.70524
3.62027
3.54219
3.47148
3.40927
3.35737
3.31382
3.27431
3.24543
3.22987
3.23206
3.24208
3.26701
3.31835
3.39165
3.47553
3.55825
3.62868
3.68019
3.71025
3.72018
3.71902
3.71453
3.70419
3.68385
3.66091
3.63581
3.60941
3.58188
3.55325
3.5235
3.49269
3.46107
3.42882
3.39624
3.36343
3.33064
3.29788
3.26537
3.23314
3.20141
3.1703
3.14008
3.11103
3.08358
3.05828
3.03598
3.01748
3.00574
2.99729
2.99722
3.00019
3.01005
3.03292
3.07902
3.151
3.22583
3.32999
6.41499
7.5095
8.54843
9.56145
10.0958
10.0826
9.95753
9.64957
9.19047
8.7841
8.46014
8.21267
8.01894
7.85645
7.70861
7.56555
7.42226
7.27685
7.12892
6.97869
6.82666
6.67268
6.51723
6.36049
6.20286
6.04485
5.88702
5.72996
5.57428
5.42055
5.26928
5.12096
4.97606
4.83495
4.69797
4.56537
4.43743
4.31411
4.19557
4.08184
3.97306
3.86938
3.7709
3.67798
3.59076
3.50974
3.43541
3.3686
3.31039
3.26232
3.21703
3.18007
3.15302
3.14769
3.15129
3.16429
3.19409
3.25402
3.32919
3.41233
3.49032
3.55325
3.59429
3.61758
3.61739
3.61481
3.60768
3.59201
3.56893
3.54336
3.51696
3.49003
3.46235
3.43383
3.40455
3.3746
3.34421
3.31352
3.2828
3.25212
3.22176
3.19179
3.1625
3.1341
3.10699
3.08163
3.05863
3.03906
3.02375
3.0157
3.01221
3.01375
3.02052
3.03754
3.07278
3.13279
3.21233
3.31354
3.40732
3.51123
5.87661
8.60369
10.3665
10.9329
10.8812
10.6472
10.1462
9.62699
9.17836
8.82073
8.55587
8.35596
8.18918
8.03541
7.88456
7.73289
7.57964
7.4251
7.26968
7.11359
6.95704
6.79975
6.64193
6.48343
6.32442
6.16525
6.00633
5.84812
5.69114
5.53596
5.38301
5.23274
5.08562
4.9419
4.80199
4.66597
4.53405
4.40654
4.28366
4.16546
4.05184
3.943
3.83883
3.73965
3.64545
3.55655
3.47324
3.3959
3.32544
3.2618
3.20796
3.15879
3.11505
3.0824
3.06132
3.06204
3.06789
3.08491
3.12167