/*--------------------------------*- C++ -*----------------------------------*\
  =========                 |
  \\      /  F ield         | OpenFOAM: The Open Source CFD Toolbox
   \\    /   O peration     | Website:  https://openfoam.org
    \\  /    A nd           | Version:  9
     \\/     M anipulation  |
\*---------------------------------------------------------------------------*/
FoamFile
{
    format      ascii;
    class       volScalarField;
    location    "7.5";
    object      T;
}
// * * * * * * * * * * * * * * * * * * * * * * * * * * * * * * * * * * * * * //

dimensions      [0 0 0 1 0 0 0];

internalField   nonuniform List<scalar> 
5250
(
1.00001
1.00002
1.00005
1.00014
1.00029
1.00084
1.00183
1.00498
1.01155
1.03033
1.07527
1.20286
1.54109
2.28143
2.69773
2.74919
2.74126
2.7412
2.75218
2.76842
2.78025
2.78852
2.79469
2.79874
2.80196
1.00001
1.00002
1.00005
1.00012
1.00033
1.00075
1.00194
1.00474
1.01168
1.02954
1.07502
1.19915
1.53542
2.2699
2.69414
2.74895
2.74073
2.74042
2.75136
2.7675
2.77922
2.78743
2.79355
2.79752
2.80061
1.00001
1.00002
1.00005
1.00012
1.00031
1.00073
1.00194
1.00439
1.01199
1.02762
1.07444
1.1921
1.52148
2.24547
2.68536
2.748
2.739
2.73796
2.74894
2.76442
2.7763
2.78399
2.79008
2.79358
2.79674
1.00001
1.00002
1.00005
1.00012
1.00028
1.00076
1.00168
1.00472
1.01032
1.02862
1.06831
1.18669
1.49656
2.20759
2.67133
2.74651
2.73614
2.73386
2.74401
2.76016
2.7711
2.7796
2.78508
2.78896
2.79156
1
1.00002
1.00004
1.00011
1.00028
1.00069
1.00166
1.00426
1.01008
1.0264
1.06503
1.17433
1.467
2.15221
2.65147
2.74433
2.73203
2.72791
2.73822
2.75269
2.76391
2.77115
2.7771
2.78023
2.78322
1
1.00001
1.00004
1.00009
1.00027
1.00059
1.00163
1.00372
1.00976
1.02357
1.06111
1.15884
1.43019
2.07812
2.62431
2.74086
2.7261
2.72005
2.72971
2.74485
2.75504
2.76198
2.76682
2.77007
2.77189
1
1.00001
1.00004
1.00009
1.00023
1.00058
1.00138
1.00361
1.00834
1.02226
1.05365
1.14406
1.38398
1.98493
2.5882
2.73429
2.71714
2.70856
2.7179
2.73197
2.74278
2.74866
2.75253
2.75388
2.75521
1
1.00001
1.00003
1.00009
1.0002
1.00054
1.00118
1.00331
1.00719
1.02004
1.0467
1.12677
1.33399
1.87225
2.54063
2.72242
2.70418
2.69421
2.70381
2.71688
2.72659
2.7321
2.73403
2.7333
2.72963
1
1.00001
1.00003
1.00007
1.00019
1.00044
1.00111
1.00273
1.00661
1.01691
1.04139
1.10806
1.2866
1.75171
2.48251
2.70353
2.6846
2.67557
2.68403
2.69738
2.70604
2.70938
2.70842
2.70194
2.68742
1
1.00001
1.00003
1.00006
1.00017
1.00036
1.00107
1.00217
1.00646
1.0137
1.03837
1.09274
1.25343
1.66743
2.42297
2.68423
2.67066
2.66136
2.66493
2.67498
2.68199
2.68262
2.67539
2.65388
2.59752
1
1.00001
1.00002
1.00006
1.00014
1.00036
1.00082
1.00224
1.0049
1.01367
1.0312
1.08448
1.21842
1.58857
2.33004
2.64888
2.65968
2.65129
2.64802
2.65278
2.65485
2.65018
2.63165
2.58584
2.47985
1
1.00001
1.00002
1.00005
1.00013
1.00028
1.00081
1.00169
1.00492
1.01049
1.0294
1.06994
1.19121
1.50591
2.21185
2.60177
2.65114
2.64165
2.63414
2.63257
2.62906
2.61677
2.58684
2.52338
2.41286
1
1.00001
1.00001
1.00005
1.00009
1.00028
1.00058
1.00168
1.00365
1.00995
1.02319
1.06148
1.15755
1.42723
2.06156
2.54068
2.63977
2.62985
2.61842
2.61203
2.60286
2.58336
2.54693
2.48319
2.38619
1
1.00001
1.00001
1.00003
1.00009
1.00022
1.00051
1.00135
1.00302
1.00831
1.0187
1.05077
1.12659
1.34442
1.8839
2.45959
2.61935
2.61236
2.60028
2.58937
2.57715
2.55498
2.51597
2.4574
2.37718
1
1
1.00001
1.00003
1.00007
1.00017
1.00043
1.00101
1.00263
1.00599
1.01612
1.03758
1.10031
1.26009
1.68295
2.35691
2.582
2.5842
2.57543
2.56327
2.54887
2.52724
2.49082
2.4365
2.36873
1
1
1.00001
1.00002
1.00006
1.00014
1.00032
1.00089
1.00191
1.00542
1.01171
1.03254
1.07742
1.21084
1.55176
2.24674
2.5407
2.55998
2.55062
2.53921
2.52376
2.50124
2.46892
2.41954
2.35816
1
1
1.00001
1.00002
1.00004
1.00011
1.00027
1.00065
1.0017
1.00388
1.01042
1.02406
1.06412
1.16358
1.44047
2.07089
2.46921
2.5394
2.53098
2.5189
2.50167
2.47786
2.44806
2.40566
2.3505
1
1
1.00001
1.00002
1.00003
1.00009
1.00019
1.00057
1.00116
1.0034
1.00727
1.02007
1.04716
1.12704
1.33189
1.8573
2.37144
2.51259
2.51247
2.49983
2.48175
2.45728
2.42762
2.39047
2.3428
1
1
1
1.00001
1.00003
1.00007
1.00016
1.00038
1.00099
1.00224
1.00607
1.01358
1.03659
1.08857
1.23691
1.61503
2.24224
2.46626
2.48445
2.47586
2.45884
2.4373
2.40903
2.37521
2.3338
1
1
1
1.00001
1.00002
1.00005
1.00013
1.00028
1.00075
1.00176
1.00437
1.01084
1.02658
1.06775
1.17618
1.46543
2.08845
2.41107
2.4599
2.4525
2.43655
2.41561
2.39065
2.36001
2.3235
1
1
1
1.00001
1.00002
1.00004
1.00009
1.00022
1.00053
1.00136
1.00313
1.00834
1.01917
1.0509
1.12749
1.34203
1.86379
2.3128
2.42958
2.43052
2.41794
2.39688
2.37203
2.34434
2.31167
1
1
1
1
1.00001
1.00002
1.00007
1.00015
1.00042
1.00085
1.00253
1.00521
1.01474
1.03328
1.0893
1.2257
1.59373
2.17245
2.37955
2.40183
2.39439
2.37685
2.35323
2.32818
2.29978
1
1
1
1
1.00001
1.00002
1.00005
1.00011
1.00029
1.00064
1.00178
1.0038
1.01072
1.02366
1.06427
1.15984
1.4273
2.00025
2.31861
2.37531
2.37064
2.35557
2.33454
2.31106
2.28607
1
1
1
1
1
1.00001
1.00003
1.00009
1.00019
1.00051
1.00116
1.00292
1.00712
1.01746
1.04395
1.11213
1.2943
1.75298
2.20887
2.33871
2.34637
2.33641
2.31783
2.29561
2.2724
1
1
1
1
1
1.00001
1.00002
1.00006
1.00012
1.00036
1.00075
1.00211
1.00458
1.01231
1.02855
1.07489
1.18875
1.49855
2.04626
2.2788
2.31659
2.31262
2.29887
2.27837
2.25712
1
1
1
1
1
1.00001
1.00001
1.00004
1.00009
1.00024
1.00053
1.00141
1.00324
1.00818
1.01993
1.04989
1.12741
1.33418
1.8215
2.18596
2.28334
2.28952
2.28191
2.26456
2.24206
1
1
1
1
1
1
1.00001
1.00002
1.00007
1.00014
1.00039
1.00085
1.00224
1.00519
1.01309
1.03172
1.08049
1.20495
1.53394
2.03903
2.23198
2.26206
2.25986
2.2472
2.22848
1
1
1
1
1
1
1.00001
1.00002
1.00004
1.00009
1.00027
1.00054
1.00159
1.00324
1.00918
1.02032
1.05427
1.13349
1.35429
1.8409
2.15804
2.23261
2.23779
2.23075
2.21486
1
1
1
1
1
1
1
1.00001
1.00003
1.00007
1.00016
1.00039
1.00094
1.00224
1.00567
1.01316
1.03422
1.08275
1.21639
1.55461
2.02162
2.18913
2.21374
2.21199
2.19979
1
1
1
1
1
1
1
1.00001
1.00002
1.00004
1.0001
1.00025
1.00059
1.00153
1.00342
1.00921
1.02059
1.05501
1.13424
1.35593
1.82565
2.11591
2.1847
2.1912
2.18516
1
1
1
1
1
1
1
1
1.00001
1.00002
1.00007
1.00014
1.00042
1.00086
1.00239
1.00522
1.01379
1.03217
1.08336
1.20925
1.54134
1.97957
2.1418
2.16805
2.16791
1
1
1
1
1
1
1
1
1.00001
1.00002
1.00004
1.0001
1.00023
1.00062
1.00133
1.0037
1.00787
1.02168
1.04932
1.13159
1.33337
1.78228
2.06395
2.13929
2.15016
1
1
1
1
1
1
1
1
1
1.00001
1.00003
1.00006
1.00016
1.00033
1.00095
1.00191
1.00551
1.01155
1.03154
1.0734
1.19272
1.48693
1.92231
2.09364
2.12719
1
1
1
1
1
1
1
1
1
1.00001
1.00001
1.00004
1.00009
1.00023
1.00054
1.0013
1.00322
1.00745
1.01937
1.0452
1.11809
1.2996
1.71606
2.01786
2.1042
1
1
1
1
1
1
1
1
1
1
1.00001
1.00002
1.00005
1.00014
1.0003
1.00086
1.00173
1.005
1.01041
1.02854
1.06582
1.17275
1.43715
1.86732
2.06012
1
1
1
1
1
1
1
1
1
1
1.00001
1.00001
1.00004
1.00008
1.00022
1.00046
1.00122
1.00278
1.00691
1.01676
1.04106
1.10319
1.26442
1.64081
1.98832
1
1
1
1
1
1
1
1
1
1
1
1.00001
1.00002
1.00005
1.00012
1.00031
1.00073
1.00176
1.00437
1.01016
1.02615
1.06221
1.16053
1.40854
1.86147
1
1
1
1
1
1
1
1
1
1
1
1.00001
1.00001
1.00003
1.00008
1.00021
1.00047
1.00127
1.00274
1.0076
1.01645
1.04483
1.10663
1.28212
1.68712
1
1
1
1
1
1
1
1
1
1
1
1
1.00001
1.00003
1.00006
1.00017
1.00037
1.00103
1.0022
1.00627
1.01363
1.03767
1.09099
1.24584
1.65943
1
1
1
1
1
1
1
1
1
1
1
1
1.00001
1.00002
1.00006
1.00014
1.00035
1.00086
1.00212
1.00541
1.01305
1.03409
1.08639
1.23211
1.66853
1
1
1
1
1
1
1
1
1
1
1
1
1.00001
1.00002
1.00005
1.00014
1.00031
1.00087
1.00189
1.00542
1.01199
1.0334
1.08205
1.22597
1.63545
1
1
1
1
1
1
1
1
1
1
1
1
1.00001
1.00002
1.00005
1.00012
1.00033
1.00077
1.00198
1.00496
1.0123
1.03155
1.0816
1.22008
1.61619
1
1
1
1
1
1
1
1
1
1
1
1
1.00001
1.00002
1.00005
1.00013
1.0003
1.00078
1.00194
1.00477
1.01235
1.03059
1.08043
1.21682
1.60119
1
1
1
1
1
1
1
1
1
1
1
1
1.00001
1.00002
1.00005
1.00011
1.00033
1.00071
1.00199
1.00457
1.01229
1.0298
1.0798
1.21257
1.59302
1
1
1
1
1
1
1
1
1
1
1
1
1.00001
1.00002
1.00005
1.00011
1.00031
1.0007
1.00199
1.00432
1.01251
1.02863
1.07939
1.20934
1.58609
1
1
1
1
1
1
1
1
1
1
1
1
1.00001
1.00002
1.00005
1.0001
1.00032
1.00065
1.002
1.00424
1.01221
1.02846
1.07824
1.20708
1.58392
1
1
1
1
1
1
1
1
1
1
1
1
1.00001
1.00002
1.00005
1.00011
1.00031
1.00066
1.00195
1.00415
1.01219
1.0279
1.07768
1.20553
1.58318
1
1
1
1
1
1
1
1
1
1
1
1
1.00001
1.00002
1.00004
1.00011
1.00028
1.0007
1.0018
1.00436
1.01162
1.02841
1.07613
1.2058
1.583
1
1
1
1
1
1
1
1
1
1
1
1
1.00001
1.00002
1.00005
1.0001
1.0003
1.00062
1.00194
1.00404
1.012
1.02758
1.0769
1.20415
1.58573
1
1
1
1
1
1
1
1
1
1
1
1
1.00001
1.00002
1.00005
1.0001
1.0003
1.00063
1.00191
1.00404
1.01199
1.02744
1.07685
1.20399
1.58681
2.33854
2.4644
2.68983
2.93611
2.9525
2.91206
2.89647
2.88494
2.86648
2.84466
2.82324
2.80397
2.78382
2.76325
2.74253
2.72324
2.70409
2.68927
2.68231
2.68013
2.68186
2.69099
2.70894
2.73334
2.76155
2.78845
2.81552
2.83701
2.8596
2.87478
2.89127
2.90164
2.91288
2.92069
2.92729
2.9318
2.93614
2.93892
2.94012
2.94044
2.94
2.93914
2.9367
2.93412
2.92888
2.92552
2.91889
2.91355
2.90724
2.90102
2.89333
2.88567
2.87811
2.8702
2.86233
2.85396
2.84563
2.83692
2.82842
2.81962
2.81092
2.80206
2.79293
2.78402
2.77453
2.7656
2.75605
2.74695
2.73762
2.72811
2.71888
2.70916
2.69961
2.69014
2.68014
2.67088
2.6607
2.65135
2.64119
2.63171
2.62148
2.61204
2.60169
2.59231
2.58202
2.57247
2.56254
2.55262
2.54319
2.53304
2.52398
2.51404
2.50515
2.49589
2.48731
2.47913
2.47158
2.46522
2.46028
2.45679
2.35079
2.44235
2.55209
2.77772
2.90093
2.95056
2.98789
3.00404
2.99272
2.97197
2.95765
2.94001
2.92472
2.9065
2.88742
2.87033
2.85211
2.8396
2.83078
2.82926
2.83154
2.84106
2.85573
2.87456
2.89433
2.90933
2.92594
2.93406
2.94391
2.94896
2.95362
2.9555
2.95408
2.95187
2.94863
2.94537
2.93947
2.93519
2.92629
2.92054
2.91305
2.9051
2.89658
2.88906
2.88113
2.87296
2.86378
2.85551
2.84631
2.83798
2.82725
2.81787
2.80701
2.79781
2.78682
2.77758
2.76626
2.75709
2.74557
2.73667
2.72503
2.71633
2.70469
2.69585
2.68441
2.67516
2.66396
2.65445
2.6432
2.63377
2.62228
2.61302
2.60142
2.59215
2.58067
2.57123
2.55995
2.55031
2.53917
2.52946
2.51839
2.50863
2.49776
2.48782
2.4774
2.46712
2.4573
2.44669
2.43742
2.42673
2.41779
2.40737
2.39862
2.38881
2.38039
2.37146
2.36398
2.35677
2.35199
2.34784
2.34044
2.36536
2.44293
2.49214
2.596
2.70654
2.82846
2.91575
2.97169
2.99377
2.99551
2.9916
2.99633
2.98966
2.97459
2.9661
2.95679
2.94583
2.94094
2.9409
2.94538
2.95429
2.96418
2.97571
2.98285
2.98537
2.98284
2.97697
2.97029
2.96108
2.9516
2.93857
2.92205
2.90783
2.89398
2.88264
2.86999
2.85875
2.84554
2.83457
2.82144
2.81076
2.79796
2.78783
2.77518
2.76503
2.75248
2.74294
2.73091
2.7217
2.70921
2.69971
2.68765
2.67864
2.66722
2.65844
2.64759
2.63882
2.6285
2.61963
2.60993
2.60081
2.59168
2.58219
2.57348
2.56383
2.55533
2.54581
2.5374
2.52794
2.51964
2.51002
2.50181
2.49202
2.48381
2.47397
2.46569
2.4559
2.44744
2.43774
2.42914
2.41945
2.41089
2.40109
2.39276
2.38283
2.37476
2.36482
2.3569
2.34717
2.33928
2.32997
2.32203
2.31332
2.30552
2.29774
2.29081
2.28473
2.28024
2.27729
2.31768
2.30654
2.33194
2.3681
2.41307
2.48698
2.55381
2.65096
2.73655
2.83621
2.89856
2.92485
2.95162
2.97438
2.98507
2.98891
2.98727
2.96882
2.96167
2.9716
2.98487
2.98942
2.98987
2.98648
2.97902
2.968
2.95141
2.93342
2.91512
2.89726
2.87911
2.86199
2.84483
2.82949
2.81395
2.79974
2.7851
2.7717
2.75785
2.74503
2.73176
2.7194
2.70686
2.69476
2.68276
2.67071
2.65902
2.64729
2.63652
2.62515
2.61417
2.60229
2.59155
2.58003
2.56984
2.55841
2.54863
2.53718
2.52774
2.51631
2.50702
2.49592
2.48659
2.47611
2.46658
2.45676
2.44704
2.43781
2.42802
2.41927
2.40952
2.40111
2.39141
2.38328
2.37362
2.36574
2.35613
2.34844
2.33888
2.33126
2.32184
2.31412
2.30501
2.29704
2.28833
2.28006
2.27174
2.26325
2.25514
2.24661
2.23849
2.23009
2.22202
2.214
2.20627
2.19895
2.19214
2.18622
2.18178
2.17883
2.30808
2.27131
2.26813
2.2843
2.30645
2.34815
2.3932
2.44428
2.50657
2.56602
2.64391
2.72465
2.78563
2.84347
2.88607
2.91081
2.92926
2.93134
2.93193
2.9331
2.93146
2.92362
2.91319
2.8981
2.87914
2.85635
2.83532
2.81435
2.79426
2.77516
2.7572
2.73963
2.72341
2.70708
2.69198
2.67685
2.66332
2.6497
2.63741
2.62482
2.61336
2.60176
2.59122
2.5806
2.57072
2.56087
2.55121
2.5422
2.53328
2.52526
2.51625
2.5079
2.49851
2.49056
2.48164
2.47394
2.46525
2.45762
2.449
2.44135
2.43267
2.42493
2.41615
2.40829
2.3995
2.39148
2.38282
2.37455
2.36612
2.35757
2.34937
2.34057
2.3325
2.32355
2.31552
2.30648
2.29851
2.28941
2.28159
2.27243
2.26488
2.25568
2.24844
2.2392
2.23226
2.223
2.21622
2.20692
2.2001
2.19098
2.18411
2.17533
2.16839
2.16007
2.15327
2.14562
2.13946
2.13307
2.12889
2.12545
2.30078
2.2568
2.23265
2.22955
2.23797
2.25555
2.28728
2.31539
2.35639
2.39387
2.442
2.49073
2.54794
2.5985
2.6579
2.71371
2.7648
2.80839
2.8348
2.84494
2.84211
2.82713
2.80237
2.76794
2.73265
2.69591
2.66811
2.64295
2.623
2.60552
2.58972
2.57592
2.56338
2.55219
2.5417
2.53245
2.52338
2.51535
2.50719
2.50012
2.49276
2.48635
2.47943
2.47317
2.46643
2.46002
2.45331
2.44666
2.4406
2.43402
2.42821
2.42064
2.41434
2.40636
2.40049
2.39242
2.38668
2.37843
2.37271
2.36451
2.35879
2.35073
2.34482
2.33684
2.33063
2.32269
2.31621
2.3083
2.30153
2.29363
2.28655
2.27867
2.27129
2.2635
2.25584
2.24815
2.24032
2.23265
2.22479
2.21705
2.20931
2.20146
2.19396
2.18588
2.1786
2.17026
2.16315
2.15476
2.14778
2.13944
2.13253
2.12442
2.11759
2.10984
2.10322
2.09602
2.08999
2.0839
2.07969
2.07654
2.29561
2.25002
2.21657
2.19826
2.19278
2.19712
2.21089
2.22795
2.25098
2.27666
2.30538
2.33759
2.37284
2.41285
2.45356
2.50173
2.54597
2.59051
2.62263
2.64798
2.64703
2.6306
2.59784
2.55834
2.51795
2.48328
2.46063
2.44514
2.43858
2.43516
2.43457
2.43346
2.43252
2.43058
2.42931
2.42734
2.42612
2.42418
2.42222
2.41932
2.41627
2.41258
2.4089
2.40473
2.40059
2.396
2.3912
2.38625
2.38136
2.37654
2.37154
2.36582
2.35971
2.35331
2.34701
2.34066
2.33426
2.32796
2.32125
2.31491
2.30785
2.30141
2.29412
2.28754
2.28011
2.27335
2.26586
2.25894
2.25145
2.24438
2.23694
2.22973
2.22235
2.21499
2.2077
2.20016
2.193
2.18525
2.17827
2.17025
2.1635
2.15523
2.14862
2.14017
2.13375
2.12531
2.11898
2.11065
2.10429
2.09617
2.08971
2.08189
2.07537
2.06795
2.06155
2.05469
2.04878
2.04295
2.03868
2.03579
2.29158
2.24631
2.20944
2.18311
2.16731
2.16061
2.16184
2.16877
2.18071
2.1945
2.21298
2.23327
2.25737
2.28617
2.31799
2.35726
2.39367
2.43327
2.46612
2.49415
2.49507
2.47959
2.4488
2.41312
2.37892
2.35209
2.33412
2.32537
2.32591
2.33236
2.34082
2.34709
2.35209
2.3545
2.35649
2.3565
2.35609
2.35525
2.35339
2.35194
2.34899
2.34674
2.34285
2.33956
2.33512
2.33101
2.3261
2.32124
2.31612
2.31138
2.30653
2.30123
2.29554
2.28937
2.28346
2.27716
2.27132
2.26497
2.2591
2.25266
2.24666
2.24009
2.2339
2.2272
2.2209
2.21415
2.20787
2.2011
2.19482
2.18797
2.18152
2.17456
2.1679
2.16082
2.154
2.14678
2.13989
2.13252
2.12562
2.11806
2.11117
2.10344
2.09673
2.08897
2.08237
2.07468
2.06815
2.06064
2.05414
2.04692
2.04039
2.03353
2.02698
2.0205
2.01403
2.00807
2.00201
1.997
1.99249
1.9904
2.28755
2.2429
2.20505
2.17438
2.15238
2.13803
2.13063
2.12905
2.13185
2.13859
2.14662
2.16134
2.17658
2.20022
2.22901
2.26139
2.29657
2.33472
2.37553
2.39981
2.39738
2.38092
2.35279
2.31798
2.2831
2.25822
2.2398
2.22839
2.22428
2.22777
2.23717
2.24774
2.25741
2.26432
2.2693
2.27226
2.27449
2.27566
2.27661
2.27688
2.27662
2.27586
2.27503
2.27333
2.27175
2.26923
2.26708
2.26384
2.2613
2.25785
2.25528
2.25118
2.24761
2.24249
2.23835
2.23308
2.22868
2.22333
2.21857
2.21309
2.208
2.20242
2.19705
2.1913
2.18562
2.17963
2.17361
2.16743
2.16115
2.15486
2.14837
2.14194
2.13527
2.12863
2.12181
2.11494
2.10805
2.1009
2.09399
2.08661
2.0798
2.07225
2.06556
2.0579
2.05132
2.04365
2.03711
2.02947
2.02291
2.01536
2.00875
2.00135
1.99474
1.98756
1.98109
1.97427
1.96823
1.96218
1.95761
1.95435
2.2831
2.24144
2.203
2.1708
2.14454
2.12521
2.11186
2.10383
2.10043
2.10058
2.10431
2.11183
2.12641
2.1461
2.17383
2.20339
2.24097
2.29115
2.33073
2.34585
2.33926
2.32177
2.29265
2.25508
2.22023
2.19356
2.1757
2.16481
2.15746
2.15758
2.16234
2.17284
2.18657
2.19864
2.20967
2.21749
2.22366
2.22764
2.23068
2.23244
2.23389
2.23453
2.23475
2.23438
2.23373
2.23241
2.23105
2.22868
2.22649
2.22359
2.2212
2.21807
2.21494
2.21075
2.20681
2.20216
2.19791
2.19301
2.18852
2.18338
2.17858
2.17313
2.168
2.16227
2.15686
2.15093
2.14531
2.13922
2.13343
2.12718
2.12127
2.11489
2.1089
2.10233
2.09624
2.08937
2.08319
2.07603
2.06991
2.06253
2.05647
2.04894
2.04296
2.03535
2.02941
2.02183
2.01587
2.00843
2.00243
1.99517
1.98911
1.98208
1.97596
1.96918
1.9631
1.95665
1.95086
1.94513
1.9406
1.93765
2.27527
2.23808
2.20162
2.16863
2.14078
2.11802
2.10054
2.0879
2.07972
2.07562
2.07573
2.08128
2.0956
2.11605
2.1401
2.17517
2.22289
2.27881
2.3101
2.31506
2.30542
2.2846
2.25102
2.21282
2.17948
2.15183
2.13264
2.11936
2.1116
2.10621
2.10639
2.11064
2.11971
2.13265
2.14651
2.1588
2.16888
2.17617
2.18158
2.18539
2.18802
2.18992
2.19101
2.19174
2.19196
2.19159
2.19079
2.18943
2.18762
2.18523
2.18307
2.18049
2.1779
2.17443
2.17087
2.16676
2.16273
2.15826
2.15385
2.14902
2.14423
2.13904
2.13389
2.12838
2.12296
2.11725
2.11165
2.1058
2.10005
2.09406
2.08812
2.08189
2.07571
2.06921
2.06286
2.05614
2.04979
2.04292
2.0366
2.02961
2.02331
2.01627
2.00999
2.00298
1.9967
1.98978
1.98348
1.97667
1.97036
1.96372
1.9574
1.95097
1.94468
1.93851
1.9323
1.92647
1.92056
1.91541
1.91075
1.90833
2.26721
2.23342
2.19961
2.16772
2.13902
2.11476
2.09505
2.07932
2.06867
2.06163
2.06097
2.06814
2.08278
2.10368
2.13266
2.1775
2.23678
2.28352
2.29963
2.29606
2.28332
2.25779
2.22179
2.18532
2.15444
2.12818
2.10744
2.09168
2.08102
2.07439
2.06961
2.06974
2.07284
2.08013
2.09195
2.10615
2.11972
2.13127
2.14067
2.14739
2.15247
2.15575
2.15818
2.15981
2.16075
2.16137
2.16127
2.16067
2.15981
2.15799
2.15669
2.15458
2.15301
2.1502
2.1475
2.14381
2.14041
2.13622
2.13228
2.12768
2.12332
2.11843
2.11375
2.10868
2.10373
2.09849
2.09327
2.08785
2.08237
2.07669
2.07095
2.06496
2.05899
2.05265
2.0466
2.04003
2.03396
2.02717
2.02109
2.01415
2.00806
2.00101
1.99492
1.98782
1.9817
1.97458
1.96841
1.96129
1.95506
1.94798
1.94169
1.93474
1.92846
1.92173
1.91556
1.90915
1.90331
1.89756
1.89293
1.88985
2.25705
2.22622
2.19546
2.16587
2.13817
2.11332
2.09247
2.07542
2.06299
2.05654
2.05788
2.06852
2.08364
2.10857
2.14845
2.20845
2.26445
2.29065
2.29343
2.28606
2.26788
2.23702
2.20295
2.17049
2.14223
2.11723
2.09608
2.07817
2.06432
2.05367
2.04763
2.04292
2.04214
2.04324
2.04812
2.05788
2.07059
2.08459
2.09701
2.10773
2.11571
2.12165
2.12582
2.12863
2.13051
2.13159
2.1321
2.13202
2.13149
2.13037
2.12905
2.1273
2.12584
2.12363
2.12128
2.11792
2.11468
2.11067
2.10683
2.10234
2.09807
2.09327
2.08867
2.0836
2.07871
2.07341
2.06827
2.06274
2.05736
2.05156
2.04596
2.03986
2.03407
2.02777
2.02194
2.01547
2.00961
2.00299
1.99711
1.99039
1.98449
1.97774
1.97182
1.96508
1.95914
1.95243
1.94645
1.9398
1.93379
1.92724
1.92123
1.91483
1.90883
1.90265
1.89674
1.8909
1.88526
1.88009
1.87555
1.87302
2.24706
2.21902
2.19014
2.16206
2.13623
2.112
2.0916
2.075
2.0632
2.06005
2.06561
2.07857
2.09876
2.13398
2.19172
2.25247
2.28728
2.29583
2.29181
2.27902
2.25366
2.2224
2.19218
2.16398
2.13841
2.11489
2.09358
2.07468
2.05808
2.04465
2.03375
2.02644
2.02173
2.01922
2.01936
2.02209
2.02923
2.04028
2.05382
2.06681
2.07846
2.08771
2.09477
2.09955
2.10285
2.10468
2.10574
2.10614
2.10602
2.10535
2.10454
2.10304
2.1019
2.10026
2.09856
2.09584
2.09297
2.08936
2.0858
2.08166
2.07762
2.07315
2.06876
2.06407
2.05937
2.05445
2.04945
2.04422
2.0389
2.03331
2.02767
2.02173
2.016
2.00984
2.0041
1.99777
1.99203
1.98556
1.9798
1.97324
1.9674
1.96078
1.95483
1.9482
1.94214
1.93551
1.92938
1.92277
1.91662
1.91008
1.90396
1.89755
1.89152
1.88534
1.87947
1.8736
1.86805
1.86283
1.8584
1.8557
2.23437
2.21051
2.18524
2.15883
2.13476
2.11198
2.09257
2.07751
2.06991
2.07233
2.08314
2.09941
2.13142
2.18376
2.24635
2.28815
2.30092
2.29941
2.29094
2.27202
2.24323
2.21472
2.18798
2.16349
2.13974
2.11782
2.09647
2.07717
2.059
2.04318
2.02903
2.01786
2.00858
2.00374
1.99988
1.99905
1.99967
2.00394
2.01269
2.02455
2.03722
2.0494
2.05965
2.06763
2.07328
2.07693
2.07916
2.08017
2.08067
2.08054
2.08002
2.07892
2.07798
2.0765
2.07521
2.07289
2.07033
2.0669
2.06357
2.05965
2.05587
2.05162
2.0475
2.04299
2.03857
2.03377
2.029
2.02384
2.01871
2.01312
2.0077
2.00183
1.9963
1.99021
1.98463
1.97836
1.97275
1.96637
1.96075
1.95433
1.94869
1.9423
1.93661
1.93024
1.92445
1.91807
1.91217
1.90578
1.89982
1.89346
1.88753
1.8813
1.87548
1.8695
1.86387
1.85826
1.85299
1.84809
1.84392
1.84147
2.22134
2.1991
2.17761
2.15404
2.13187
2.11163
2.09546
2.08419
2.08469
2.09367
2.10766
2.13603
2.18417
2.24689
2.29126
2.30791
2.30854
2.30278
2.28711
2.26363
2.23712
2.21255
2.18895
2.16694
2.14474
2.12379
2.10263
2.08305
2.06375
2.04629
2.02986
2.01562
2.0033
1.99379
1.98646
1.98293
1.97966
1.97968
1.98138
1.98712
1.99691
2.00842
2.02026
2.03095
2.03971
2.0463
2.05071
2.05352
2.05489
2.05566
2.05551
2.05481
2.05401
2.05266
2.05162
2.04982
2.04783
2.04483
2.04181
2.03816
2.03459
2.03054
2.02656
2.02224
2.01795
2.01336
2.00874
2.00378
1.99877
1.99338
1.98816
1.98245
1.97713
1.97118
1.96583
1.95971
1.95433
1.9481
1.94264
1.93636
1.93078
1.92452
1.91882
1.9126
1.90681
1.90063
1.89479
1.88865
1.88281
1.87672
1.87093
1.86497
1.85931
1.85359
1.84815
1.84284
1.83784
1.83328
1.82944
1.82721
2.20937
2.18917
2.16899
2.14911
2.12926
2.1123
2.1006
2.09875
2.10588
2.11913
2.14581
2.19077
2.25101
2.29676
2.31598
2.3182
2.31367
2.30086
2.27951
2.25647
2.23403
2.21302
2.19218
2.17202
2.15121
2.13061
2.10997
2.08967
2.07008
2.05119
2.03349
2.01728
2.00266
1.98997
1.97918
1.97105
1.96502
1.96204
1.95928
1.95914
1.96169
1.96847
1.9783
1.98984
2.00115
2.01124
2.019
2.02467
2.02817
2.03016
2.03095
2.03076
2.03004
2.0287
2.02765
2.02612
2.02456
2.02206
2.01941
2.01615
2.01289
2.00915
2.0054
2.00129
1.99715
1.99267
1.98817
1.98327
1.97844
1.97321
1.96824
1.96272
1.95763
1.95185
1.94667
1.9407
1.93546
1.92939
1.92408
1.918
1.91261
1.90656
1.90103
1.89502
1.88936
1.88339
1.87763
1.87172
1.86596
1.86014
1.85445
1.8488
1.84328
1.8379
1.83267
1.82777
1.82309
1.81907
1.81568
1.81386
2.19586
2.17777
2.15986
2.14248
2.12765
2.11519
2.11282
2.11901
2.13217
2.15789
2.20129
2.25935
2.30495
2.32493
2.32781
2.32384
2.31202
2.29242
2.27168
2.25202
2.23353
2.21505
2.19655
2.17694
2.15716
2.13664
2.11655
2.09594
2.07632
2.05647
2.03835
2.02065
2.00462
1.98964
1.97622
1.96444
1.95458
1.94767
1.94242
1.93879
1.93688
1.93705
1.94088
1.94885
1.95916
1.97052
1.98113
1.99025
1.99701
2.00157
2.00411
2.00522
2.00513
2.00426
2.00333
2.00201
2.00085
1.99886
1.9967
1.99383
1.9909
1.98746
1.98391
1.97998
1.97593
1.97158
1.96716
1.96243
1.95778
1.95276
1.94798
1.94267
1.93779
1.93224
1.92729
1.92154
1.91652
1.91064
1.90552
1.89959
1.89434
1.88846
1.88305
1.87723
1.87166
1.86594
1.86027
1.85465
1.84898
1.84349
1.83792
1.83264
1.82731
1.82238
1.81746
1.81311
1.80893
1.8056
1.80291
1.80153
2.18236
2.1659
2.1506
2.13639
2.1261
2.12433
2.13067
2.14418
2.16983
2.21286
2.27014
2.31469
2.3345
2.33809
2.33443
2.32286
2.30459
2.28513
2.2673
2.25038
2.23399
2.21703
2.19948
2.18069
2.16164
2.14156
2.12171
2.10129
2.08162
2.06186
2.04337
2.0248
2.00769
1.99087
1.97559
1.96135
1.9488
1.93806
1.92954
1.92301
1.91841
1.91464
1.91348
1.91428
1.91908
1.92822
1.93884
1.94983
1.95972
1.96763
1.97347
1.97695
1.97863
1.97891
1.9783
1.9771
1.97621
1.97466
1.97299
1.97054
1.96805
1.96498
1.96179
1.95812
1.95434
1.95022
1.94599
1.94149
1.93704
1.93225
1.92765
1.92256
1.91789
1.91252
1.90781
1.90222
1.89742
1.8917
1.88675
1.88105
1.8759
1.87031
1.86497
1.8595
1.85402
1.84862
1.84306
1.83772
1.83222
1.82698
1.82165
1.81665
1.81166
1.80712
1.8027
1.79898
1.79557
1.79315
1.79122
1.79023
2.17189
2.15436
2.1418
2.13304
2.13154
2.13918
2.15334
2.18035
2.22415
2.28126
2.32568
2.34504
2.34787
2.34401
2.33188
2.31321
2.29507
2.27843
2.26331
2.24867
2.2336
2.2178
2.20071
2.1829
2.16422
2.145
2.12541
2.10557
2.08582
2.06624
2.04702
2.02811
2.01008
1.9924
1.97592
1.96025
1.94589
1.93251
1.92077
1.91106
1.90331
1.89697
1.89225
1.88891
1.88838
1.89026
1.89644
1.90564
1.91636
1.92717
1.9365
1.94393
1.94868
1.95139
1.9523
1.95187
1.95108
1.94986
1.9486
1.94655
1.94426
1.94155
1.93867
1.93544
1.93197
1.92816
1.92421
1.91999
1.91579
1.9112
1.90687
1.90197
1.89758
1.89245
1.88794
1.88262
1.87791
1.8725
1.86758
1.86216
1.85709
1.8517
1.84651
1.8412
1.83594
1.83075
1.82547
1.82047
1.81522
1.81048
1.80541
1.80099
1.79637
1.79249
1.78871
1.78586
1.78341
1.7819
1.78088
1.78043
2.15815
2.14493
2.13439
2.13464
2.14477
2.15937
2.18859
2.23509
2.29371
2.33699
2.35472
2.35707
2.35289
2.33971
2.32091
2.30314
2.28796
2.27398
2.26055
2.24702
2.23247
2.21728
2.20069
2.18355
2.1652
2.14658
2.12717
2.1078
2.08806
2.06885
2.04925
2.03073
2.01181
1.99417
1.9766
1.96008
1.94396
1.92924
1.91524
1.90286
1.89176
1.88281
1.87551
1.86897
1.86506
1.86242
1.86246
1.8655
1.87316
1.88284
1.89393
1.9042
1.91286
1.91921
1.92307
1.92495
1.92494
1.92411
1.92337
1.92198
1.92026
1.91791
1.91541
1.9126
1.90953
1.9061
1.90245
1.8985
1.89448
1.89013
1.88592
1.88127
1.87701
1.87212
1.86784
1.86269
1.85837
1.85301
1.84855
1.84319
1.83848
1.83335
1.8283
1.82349
1.8181
1.81362
1.80801
1.80377
1.79826
1.79419
1.78914
1.78543
1.78114
1.77826
1.77525
1.77375
1.77222
1.77223
1.77302
1.77284
2.14735
2.13982
2.13552
2.14515
2.16293
2.1952
2.24574
2.3062
2.3493
2.3659
2.36831
2.36227
2.34651
2.32657
2.30916
2.29403
2.28116
2.26895
2.25661
2.2438
2.22963
2.21468
2.19839
2.18154
2.16368
2.14549
2.12666
2.10773
2.0885
2.0694
2.05021
2.03156
2.0126
1.99487
1.97642
1.95969
1.94243
1.92688
1.9112
1.8972
1.88377
1.87213
1.86192
1.85361
1.84635
1.84075
1.83687
1.83569
1.83631
1.84064
1.84907
1.85963
1.87056
1.8808
1.88892
1.89444
1.89747
1.89821
1.89786
1.89705
1.89602
1.89417
1.89193
1.88926
1.88645
1.88333
1.88005
1.87645
1.87278
1.8687
1.86483
1.86036
1.85648
1.85172
1.84781
1.84286
1.8388
1.8338
1.82944
1.82449
1.81984
1.81494
1.81009
1.80527
1.80039
1.79566
1.79098
1.78639
1.78203
1.77785
1.77391
1.77053
1.76743
1.76546
1.76379
1.76332
1.76362
1.76514
1.76704
1.76821
2.13444
2.13718
2.14529
2.16544
2.19973
2.25483
2.31814
2.36248
2.37573
2.37684
2.3687
2.35144
2.33097
2.31281
2.2986
2.28627
2.27476
2.26357
2.25134
2.2389
2.22501
2.2106
2.19509
2.17881
2.16183
2.144
2.12586
2.10704
2.08837
2.06923
2.05051
2.03148
2.01299
1.9944
1.9764
1.95859
1.94128
1.9246
1.9083
1.89296
1.87841
1.86461
1.85245
1.84118
1.83212
1.82388
1.8171
1.81204
1.8092
1.80888
1.81068
1.81675
1.82555
1.8367
1.84754
1.85725
1.86459
1.86916
1.87142
1.87174
1.87127
1.87039
1.86879
1.86655
1.86393
1.86108
1.85808
1.85474
1.85146
1.84764
1.84409
1.83981
1.83604
1.83154
1.82761
1.82307
1.81894
1.81444
1.81013
1.80564
1.80122
1.79667
1.79221
1.78754
1.78319
1.77845
1.77436
1.76987
1.76615
1.76228
1.75926
1.75657
1.75494
1.75393
1.75402
1.75512
1.75696
1.76116
1.76613
1.76978
2.12681
2.14205
2.16805
2.20867
2.27387
2.33325
2.37364
2.38777
2.3866
2.37557
2.35576
2.33437
2.31567
2.30159
2.28981
2.2796
2.26868
2.25769
2.24553
2.23286
2.21921
2.20456
2.18944
2.17293
2.15656
2.13866
2.12154
2.1028
2.08538
2.06606
2.04854
2.02893
2.01138
1.99205
1.97463
1.95606
1.93913
1.92156
1.90536
1.88902
1.87374
1.8588
1.84515
1.83193
1.82056
1.8102
1.80165
1.7937
1.78753
1.78361
1.7822
1.78237
1.78562
1.79327
1.80352
1.81509
1.82597
1.83524
1.84177
1.84563
1.84692
1.84676
1.84616
1.845
1.8427
1.84014
1.8371
1.83419
1.83102
1.82776
1.82433
1.82062
1.81682
1.81279
1.80871
1.80458
1.80033
1.79615
1.79183
1.78754
1.78325
1.77886
1.77466
1.77017
1.76616
1.76173
1.75802
1.75402
1.7509
1.74782
1.74586
1.74446
1.74425
1.74471
1.74628
1.74945
1.75356
1.76205
1.77263
1.77923
2.119
2.16279
2.21932
2.29249
2.35683
2.39035
2.39949
2.39636
2.3807
2.35796
2.33645
2.31893
2.30384
2.29183
2.28129
2.27125
2.26085
2.24958
2.23766
2.22477
2.2114
2.19704
2.18216
2.16638
2.15014
2.13314
2.11597
2.09813
2.0804
2.06211
2.04411
2.02584
2.00778
1.98985
1.97187
1.95442
1.93674
1.91981
1.90262
1.88621
1.86996
1.85456
1.83959
1.82569
1.81238
1.80057
1.78949
1.78066
1.77195
1.76529
1.75998
1.7576
1.75763
1.75918
1.76414
1.77275
1.78431
1.79601
1.80729
1.8159
1.82178
1.82462
1.82526
1.82489
1.82399
1.82209
1.81944
1.8165
1.81341
1.81018
1.80685
1.8035
1.79974
1.79615
1.79195
1.78817
1.78375
1.7799
1.77534
1.77151
1.76695
1.76312
1.75874
1.75487
1.75078
1.74705
1.7435
1.74029
1.73776
1.73592
1.73506
1.73512
1.73609
1.73816
1.7415
1.74842
1.758
1.77144
1.78563
1.79344
2.12735
2.22114
2.31627
2.38307
2.41391
2.41563
2.40742
2.3856
2.35978
2.3374
2.3194
2.3052
2.29371
2.28303
2.27367
2.26341
2.25298
2.2414
2.22932
2.21657
2.20317
2.1892
2.17442
2.15907
2.14301
2.12657
2.10963
2.09256
2.0751
2.05783
2.04024
2.02279
2.005
1.98731
1.96938
1.95178
1.93407
1.91704
1.90009
1.88366
1.86759
1.85182
1.83672
1.82193
1.80801
1.7948
1.78249
1.77165
1.76181
1.75367
1.74593
1.74055
1.7368
1.73641
1.73722
1.74036
1.74742
1.75773
1.77017
1.78229
1.79298
1.80066
1.80538
1.80718
1.807
1.80628
1.80481
1.80199
1.79893
1.7954
1.79195
1.78859
1.78492
1.78157
1.77751
1.77397
1.76954
1.76588
1.76125
1.7575
1.75292
1.74912
1.74481
1.74112
1.73729
1.73397
1.73103
1.72864
1.72731
1.72682
1.72724
1.72856
1.73105
1.73634
1.74398
1.75668
1.7706
1.78712
1.80206
1.80901
2.15412
2.32626
2.42277
2.44793
2.44433
2.42864
2.39686
2.36622
2.34118
2.32191
2.30814
2.29742
2.28776
2.27774
2.26734
2.25636
2.24471
2.23279
2.22018
2.20741
2.1939
2.17993
2.1654
2.15012
2.13457
2.11841
2.10205
2.08534
2.06849
2.05147
2.03424
2.0172
2.00002
1.98317
1.96619
1.94948
1.93258
1.91584
1.89919
1.88282
1.86688
1.85104
1.83595
1.82094
1.80682
1.79313
1.78027
1.76839
1.75741
1.74787
1.73928
1.73141
1.72531
1.72071
1.71976
1.7204
1.72267
1.728
1.73644
1.74879
1.76113
1.77336
1.78302
1.78955
1.79274
1.7935
1.79286
1.79132
1.78933
1.78535
1.78232
1.77792
1.77462
1.77017
1.76672
1.76231
1.75854
1.75418
1.7501
1.74583
1.74165
1.73765
1.73366
1.73014
1.72678
1.72409
1.72202
1.72092
1.72096
1.72166