/*--------------------------------*- C++ -*----------------------------------*\
  =========                 |
  \\      /  F ield         | OpenFOAM: The Open Source CFD Toolbox
   \\    /   O peration     | Website:  https://openfoam.org
    \\  /    A nd           | Version:  9
     \\/     M anipulation  |
\*---------------------------------------------------------------------------*/
FoamFile
{
    format      ascii;
    class       volVectorField;
    location    "7.5";
    object      U;
}
// * * * * * * * * * * * * * * * * * * * * * * * * * * * * * * * * * * * * * //

dimensions      [0 1 -1 0 0 0 0];

internalField   nonuniform List<vector> 
5250
(
(3 3.50523e-08 0)
(2.99998 -2.59583e-08 0)
(2.99996 5.03056e-07 0)
(2.99989 -1.66366e-07 0)
(2.99974 3.79855e-06 0)
(2.99934 -1.38314e-06 0)
(2.99839 2.66466e-05 0)
(2.99597 -1.05166e-05 0)
(2.99011 0.000154181 0)
(2.97505 2.06955e-05 0)
(2.93592 0.000656065 0)
(2.82699 0.000935573 0)
(2.50795 0.00344473 0)
(1.60976 0.00935709 0)
(0.727945 0.0236593 0)
(0.519182 0.0234413 0)
(0.555227 0.0239355 0)
(0.555377 0.0256631 0)
(0.502543 0.0274811 0)
(0.416006 0.029417 0)
(0.333677 0.0317822 0)
(0.265143 0.0345657 0)
(0.195983 0.0375074 0)
(0.117616 0.0409431 0)
(0.0515084 0.0458433 0)
(3 3.08442e-08 0)
(2.99998 2.36667e-07 0)
(2.99996 6.54631e-07 0)
(2.9999 2.36238e-06 0)
(2.99974 5.24224e-06 0)
(2.99936 1.42344e-05 0)
(2.99839 3.73454e-05 0)
(2.99607 8.02347e-05 0)
(2.99014 0.000239366 0)
(2.97547 0.000506329 0)
(2.9367 0.00142122 0)
(2.82923 0.00360771 0)
(2.51514 0.0101394 0)
(1.62561 0.0293346 0)
(0.737749 0.0719216 0)
(0.516403 0.0676136 0)
(0.554134 0.0661304 0)
(0.555211 0.0689211 0)
(0.502234 0.0719249 0)
(0.415772 0.075297 0)
(0.333476 0.0793119 0)
(0.264424 0.0837499 0)
(0.194314 0.0878991 0)
(0.114719 0.0919448 0)
(0.0482272 0.0959631 0)
(3 5.40211e-08 0)
(2.99998 3.93815e-07 0)
(2.99996 1.28945e-06 0)
(2.9999 3.77051e-06 0)
(2.99975 9.40092e-06 0)
(2.99937 2.57258e-05 0)
(2.99845 5.68078e-05 0)
(2.99613 0.000162832 0)
(2.99047 0.000346408 0)
(2.97603 0.000985151 0)
(2.93855 0.00229276 0)
(2.83412 0.00628918 0)
(2.52974 0.0172595 0)
(1.66196 0.0502757 0)
(0.760282 0.124561 0)
(0.512761 0.11467 0)
(0.554731 0.110961 0)
(0.558398 0.115938 0)
(0.505728 0.121589 0)
(0.419916 0.128359 0)
(0.337998 0.135852 0)
(0.26854 0.143866 0)
(0.197418 0.151557 0)
(0.116368 0.158594 0)
(0.0479515 0.163822 0)
(3 1.08719e-07 0)
(2.99999 4.26197e-07 0)
(2.99996 2.20268e-06 0)
(2.9999 4.20198e-06 0)
(2.99975 1.60924e-05 0)
(2.9994 2.94011e-05 0)
(2.9985 9.85499e-05 0)
(2.99631 0.00018775 0)
(2.99082 0.000582152 0)
(2.9771 0.00121661 0)
(2.94109 0.0034753 0)
(2.84181 0.00855355 0)
(2.55171 0.0244951 0)
(1.7186 0.0704251 0)
(0.795388 0.177931 0)
(0.50756 0.161082 0)
(0.557079 0.154778 0)
(0.565323 0.162124 0)
(0.513459 0.170653 0)
(0.428766 0.181209 0)
(0.347366 0.192603 0)
(0.277572 0.204738 0)
(0.205278 0.216735 0)
(0.121871 0.227564 0)
(0.049874 0.234476 0)
(3 1.09086e-07 0)
(2.99999 6.76632e-07 0)
(2.99996 2.30973e-06 0)
(2.99991 6.74872e-06 0)
(2.99977 1.75015e-05 0)
(2.99943 4.40421e-05 0)
(2.99858 0.000113371 0)
(2.99654 0.000266077 0)
(2.99132 0.00070196 0)
(2.97845 0.00164109 0)
(2.94463 0.0043184 0)
(2.85175 0.011112 0)
(2.58139 0.0310846 0)
(1.79547 0.089799 0)
(0.843279 0.231926 0)
(0.501434 0.207306 0)
(0.561824 0.198066 0)
(0.576366 0.207635 0)
(0.525609 0.218891 0)
(0.442484 0.23324 0)
(0.361696 0.248777 0)
(0.291601 0.265539 0)
(0.217857 0.282595 0)
(0.131073 0.29827 0)
(0.053733 0.307857 0)
(3 1.21766e-07 0)
(2.99999 8.04033e-07 0)
(2.99997 2.70529e-06 0)
(2.99991 7.89945e-06 0)
(2.99979 2.03094e-05 0)
(2.99948 5.25058e-05 0)
(2.99869 0.000128795 0)
(2.9968 0.00032742 0)
(2.99197 0.000798001 0)
(2.9801 0.0020257 0)
(2.94902 0.00506938 0)
(2.86404 0.0133626 0)
(2.61798 0.0369969 0)
(1.89377 0.107158 0)
(0.905907 0.284882 0)
(0.497677 0.254101 0)
(0.571135 0.241621 0)
(0.593095 0.252952 0)
(0.543462 0.266757 0)
(0.462185 0.285225 0)
(0.382085 0.305517 0)
(0.31169 0.327854 0)
(0.236339 0.351453 0)
(0.145121 0.374113 0)
(0.0602506 0.388735 0)
(3 1.29348e-07 0)
(2.99999 8.80185e-07 0)
(2.99997 2.9658e-06 0)
(2.99992 8.60984e-06 0)
(2.9998 2.22894e-05 0)
(2.99952 5.82227e-05 0)
(2.99881 0.000141207 0)
(2.9971 0.000368991 0)
(2.99274 0.000875115 0)
(2.98201 0.00230126 0)
(2.95407 0.00562947 0)
(2.87842 0.0150117 0)
(2.66012 0.0413095 0)
(2.01313 0.119939 0)
(0.986316 0.330912 0)
(0.503302 0.302748 0)
(0.588257 0.287984 0)
(0.617639 0.299189 0)
(0.569141 0.314518 0)
(0.490038 0.337349 0)
(0.410531 0.363106 0)
(0.339901 0.392299 0)
(0.263054 0.424496 0)
(0.166671 0.457692 0)
(0.0711853 0.482325 0)
(3 1.40912e-07 0)
(2.99999 9.02415e-07 0)
(2.99997 3.07172e-06 0)
(2.99993 8.91378e-06 0)
(2.99983 2.30715e-05 0)
(2.99958 5.95155e-05 0)
(2.99895 0.000148543 0)
(2.99742 0.00037137 0)
(2.99358 0.000932458 0)
(2.98407 0.00231049 0)
(2.9596 0.00590171 0)
(2.89393 0.0153058 0)
(2.70598 0.0423758 0)
(2.14896 0.122932 0)
(1.09183 0.354401 0)
(0.53434 0.348581 0)
(0.619169 0.338742 0)
(0.652648 0.34753 0)
(0.605491 0.363164 0)
(0.528959 0.390135 0)
(0.449799 0.421941 0)
(0.379018 0.45938 0)
(0.301449 0.502649 0)
(0.200501 0.551668 0)
(0.0904534 0.597011 0)
(3 1.24765e-07 0)
(2.99999 8.79544e-07 0)
(2.99998 2.74881e-06 0)
(2.99994 8.66825e-06 0)
(2.99985 2.06866e-05 0)
(2.99963 5.64482e-05 0)
(2.99907 0.000133138 0)
(2.99775 0.000343067 0)
(2.99436 0.000835389 0)
(2.98615 0.0020876 0)
(2.96493 0.00524137 0)
(2.90888 0.0135087 0)
(2.75076 0.0366484 0)
(2.28608 0.105149 0)
(1.22497 0.312496 0)
(0.59676 0.376736 0)
(0.66277 0.392024 0)
(0.694133 0.395911 0)
(0.650737 0.41379 0)
(0.578601 0.443607 0)
(0.500997 0.482342 0)
(0.43136 0.528619 0)
(0.355988 0.585156 0)
(0.25583 0.659007 0)
(0.1265 0.747686 0)
(3 1.11245e-07 0)
(2.99999 7.34454e-07 0)
(2.99998 2.4963e-06 0)
(2.99995 7.22169e-06 0)
(2.99987 1.85729e-05 0)
(2.99967 4.82669e-05 0)
(2.99918 0.000115943 0)
(2.998 0.000298598 0)
(2.99503 0.000702657 0)
(2.98774 0.00181993 0)
(2.96914 0.00436287 0)
(2.92001 0.0113428 0)
(2.78254 0.0298884 0)
(2.37769 0.0839185 0)
(1.35173 0.248833 0)
(0.649913 0.41609 0)
(0.682582 0.449091 0)
(0.714405 0.44725 0)
(0.688836 0.466589 0)
(0.629034 0.497005 0)
(0.55975 0.542427 0)
(0.496024 0.597116 0)
(0.432264 0.671679 0)
(0.349323 0.787228 0)
(0.195884 0.993252 0)
(3 1.06564e-07 0)
(2.99999 6.70873e-07 0)
(2.99998 2.33944e-06 0)
(2.99995 6.6283e-06 0)
(2.99988 1.74189e-05 0)
(2.99971 4.45358e-05 0)
(2.99928 0.000109087 0)
(2.99824 0.000275675 0)
(2.99562 0.000664153 0)
(2.9892 0.00167655 0)
(2.97285 0.00410212 0)
(2.93014 0.010489 0)
(2.81058 0.0276593 0)
(2.46155 0.0771462 0)
(1.51515 0.226802 0)
(0.742192 0.469065 0)
(0.689975 0.494809 0)
(0.721088 0.493343 0)
(0.7165 0.513092 0)
(0.674946 0.545565 0)
(0.621452 0.59526 0)
(0.573541 0.65884 0)
(0.541057 0.74961 0)
(0.537663 0.891864 0)
(0.571301 1.13276 0)
(3 9.72888e-08 0)
(2.99999 6.9502e-07 0)
(2.99998 2.20519e-06 0)
(2.99996 6.82084e-06 0)
(2.9999 1.65775e-05 0)
(2.99975 4.50172e-05 0)
(2.99938 0.000104478 0)
(2.99846 0.000277278 0)
(2.9962 0.000637607 0)
(2.9906 0.00168367 0)
(2.97648 0.00395832 0)
(2.93963 0.0103958 0)
(2.83788 0.0267787 0)
(2.54118 0.0751584 0)
(1.70196 0.218165 0)
(0.860899 0.513754 0)
(0.69707 0.525331 0)
(0.729254 0.527865 0)
(0.741653 0.54778 0)
(0.717806 0.585091 0)
(0.683841 0.637401 0)
(0.657984 0.707871 0)
(0.658615 0.805095 0)
(0.711645 0.940813 0)
(0.838718 1.11844 0)
(3 1.08086e-07 0)
(2.99999 6.27439e-07 0)
(2.99999 2.35782e-06 0)
(2.99996 6.16215e-06 0)
(2.99991 1.75344e-05 0)
(2.99978 4.14229e-05 0)
(2.99947 0.000109544 0)
(2.99868 0.000260073 0)
(2.9968 0.000663127 0)
(2.99197 0.00161443 0)
(2.98011 0.0040665 0)
(2.94914 0.0101758 0)
(2.86452 0.0268319 0)
(2.62044 0.0739822 0)
(1.90724 0.214655 0)
(1.00438 0.552332 0)
(0.71281 0.554785 0)
(0.744323 0.557375 0)
(0.76966 0.574681 0)
(0.76175 0.615472 0)
(0.745386 0.670265 0)
(0.741739 0.74146 0)
(0.766315 0.833069 0)
(0.840716 0.944076 0)
(0.982795 1.05275 0)
(3 9.65848e-08 0)
(3 6.31312e-07 0)
(2.99999 2.11387e-06 0)
(2.99997 6.22841e-06 0)
(2.99993 1.58878e-05 0)
(2.99982 4.13979e-05 0)
(2.99956 0.000102454 0)
(2.99892 0.000255068 0)
(2.99733 0.000641577 0)
(2.99344 0.00156733 0)
(2.98361 0.00398606 0)
(2.95864 0.0099517 0)
(2.89098 0.0261161 0)
(2.69835 0.0718479 0)
(2.1279 0.208494 0)
(1.1774 0.576738 0)
(0.75585 0.591978 0)
(0.776043 0.595409 0)
(0.806984 0.602708 0)
(0.811649 0.640295 0)
(0.80696 0.694609 0)
(0.817671 0.761152 0)
(0.85623 0.839546 0)
(0.935129 0.925306 0)
(1.06896 0.995724 0)
(3 8.44668e-08 0)
(3 5.48114e-07 0)
(2.99999 1.86139e-06 0)
(2.99998 5.40078e-06 0)
(2.99994 1.39083e-05 0)
(2.99986 3.59387e-05 0)
(2.99965 8.82545e-05 0)
(2.99913 0.000222637 0)
(2.99789 0.000543981 0)
(2.99475 0.00136574 0)
(2.98711 0.00335747 0)
(2.96757 0.00849664 0)
(2.91633 0.0217472 0)
(2.77332 0.0590321 0)
(2.35739 0.16915 0)
(1.40534 0.498236 0)
(0.855806 0.609993 0)
(0.834845 0.632687 0)
(0.855709 0.63913 0)
(0.869495 0.666382 0)
(0.870693 0.71359 0)
(0.887015 0.771876 0)
(0.930649 0.836639 0)
(1.00755 0.902531 0)
(1.12784 0.953355 0)
(3 7.19387e-08 0)
(3 4.43653e-07 0)
(2.99999 1.56838e-06 0)
(2.99998 4.35621e-06 0)
(2.99995 1.16503e-05 0)
(2.99988 2.88361e-05 0)
(2.99971 7.30183e-05 0)
(2.9993 0.000176896 0)
(2.99828 0.000441608 0)
(2.99578 0.00107107 0)
(2.98955 0.00266436 0)
(2.97396 0.00655729 0)
(2.93307 0.016611 0)
(2.8205 0.0436228 0)
(2.49386 0.121204 0)
(1.62474 0.361889 0)
(0.949977 0.638371 0)
(0.876393 0.671246 0)
(0.893942 0.683066 0)
(0.917509 0.696407 0)
(0.92871 0.731908 0)
(0.949156 0.7797 0)
(0.993485 0.832056 0)
(1.06582 0.883009 0)
(1.17196 0.921637 0)
(3 5.85919e-08 0)
(3 3.91126e-07 0)
(2.99999 1.30383e-06 0)
(2.99998 3.8334e-06 0)
(2.99996 9.73116e-06 0)
(2.99991 2.53488e-05 0)
(2.99977 6.12397e-05 0)
(2.99944 0.000155388 0)
(2.99863 0.000372902 0)
(2.99661 0.000940068 0)
(2.99168 0.00226594 0)
(2.97917 0.0057329 0)
(2.9471 0.0141563 0)
(2.85911 0.0373686 0)
(2.60643 0.102263 0)
(1.88459 0.299535 0)
(1.09892 0.679488 0)
(0.905575 0.70631 0)
(0.918536 0.718102 0)
(0.950225 0.721911 0)
(0.97626 0.747496 0)
(1.00269 0.786037 0)
(1.04684 0.828229 0)
(1.11406 0.86794 0)
(1.2074 0.897683 0)
(3 5.31102e-08 0)
(3 3.28609e-07 0)
(3 1.16071e-06 0)
(2.99999 3.23049e-06 0)
(2.99997 8.65073e-06 0)
(2.99993 2.14956e-05 0)
(2.99982 5.46159e-05 0)
(2.99956 0.000133005 0)
(2.99894 0.000334103 0)
(2.99736 0.000814217 0)
(2.99355 0.00204136 0)
(2.98386 0.00503303 0)
(2.95941 0.0127299 0)
(2.89354 0.0329578 0)
(2.70628 0.0904252 0)
(2.15612 0.261662 0)
(1.29682 0.688546 0)
(0.956494 0.736009 0)
(0.950839 0.743412 0)
(0.981485 0.743895 0)
(1.01874 0.759098 0)
(1.05037 0.789911 0)
(1.09342 0.824611 0)
(1.1552 0.856276 0)
(1.2375 0.879508 0)
(3 4.29074e-08 0)
(3 2.7226e-07 0)
(3 9.29294e-07 0)
(2.99999 2.6735e-06 0)
(2.99998 6.96508e-06 0)
(2.99995 1.75876e-05 0)
(2.99987 4.43873e-05 0)
(2.99967 0.000107579 0)
(2.9992 0.000272635 0)
(2.99803 0.00064978 0)
(2.99519 0.00166976 0)
(2.98808 0.00398043 0)
(2.97038 0.0102878 0)
(2.92381 0.0257886 0)
(2.79606 0.0700438 0)
(2.42518 0.199347 0)
(1.56907 0.578154 0)
(1.06492 0.740804 0)
(1.00721 0.762442 0)
(1.02311 0.769441 0)
(1.06139 0.774443 0)
(1.09697 0.795643 0)
(1.13739 0.822921 0)
(1.19273 0.848082 0)
(1.26498 0.866268 0)
(3 3.52488e-08 0)
(3 2.03681e-07 0)
(3 7.55655e-07 0)
(2.99999 2.00012e-06 0)
(2.99998 5.58376e-06 0)
(2.99996 1.32668e-05 0)
(2.9999 3.48477e-05 0)
(2.99975 8.13788e-05 0)
(2.99939 0.000209777 0)
(2.99853 0.000492253 0)
(2.99632 0.00125323 0)
(2.99105 0.00298269 0)
(2.97757 0.00755017 0)
(2.94317 0.0186169 0)
(2.84903 0.0489912 0)
(2.57969 0.13427 0)
(1.84389 0.399775 0)
(1.18545 0.744393 0)
(1.05188 0.781351 0)
(1.05816 0.796459 0)
(1.09519 0.795914 0)
(1.13685 0.805617 0)
(1.17717 0.824795 0)
(1.22726 0.844007 0)
(1.29088 0.857829 0)
(3 2.5718e-08 0)
(3 1.71013e-07 0)
(3 5.73092e-07 0)
(2.99999 1.6836e-06 0)
(2.99999 4.26188e-06 0)
(2.99997 1.11796e-05 0)
(2.99992 2.67186e-05 0)
(2.99982 6.8563e-05 0)
(2.99955 0.000162528 0)
(2.9989 0.000414847 0)
(2.99727 0.000986648 0)
(2.99333 0.00250313 0)
(2.98338 0.00607656 0)
(2.95823 0.0154043 0)
(2.89043 0.039617 0)
(2.69901 0.108195 0)
(2.13922 0.315161 0)
(1.36914 0.759297 0)
(1.1001 0.813356 0)
(1.09131 0.822255 0)
(1.12175 0.818818 0)
(1.16867 0.817714 0)
(1.2123 0.829112 0)
(1.25903 0.843067 0)
(1.31553 0.853199 0)
(3 1.95033e-08 0)
(3 1.34088e-07 0)
(3 4.36848e-07 0)
(3 1.3168e-06 0)
(2.99999 3.26499e-06 0)
(2.99998 8.69625e-06 0)
(2.99995 2.05408e-05 0)
(2.99987 5.31929e-05 0)
(2.99968 0.000125134 0)
(2.99921 0.000320543 0)
(2.99806 0.000760964 0)
(2.99529 0.00192928 0)
(2.98832 0.00466676 0)
(2.97107 0.0118028 0)
(2.92604 0.0298584 0)
(2.80287 0.0804694 0)
(2.44638 0.22958 0)
(1.65268 0.641639 0)
(1.20638 0.813001 0)
(1.14505 0.835713 0)
(1.15808 0.840446 0)
(1.20092 0.833802 0)
(1.2465 0.836855 0)
(1.29017 0.845147 0)
(1.3402 0.851749 0)
(3 1.52722e-08 0)
(3 9.50732e-08 0)
(3 3.36464e-07 0)
(3 9.30518e-07 0)
(2.99999 2.49406e-06 0)
(2.99998 6.16534e-06 0)
(2.99996 1.54643e-05 0)
(2.9999 3.79113e-05 0)
(2.99977 9.23402e-05 0)
(2.99943 0.000228669 0)
(2.99861 0.000548547 0)
(2.99658 0.0013761 0)
(2.99161 0.00327962 0)
(2.97919 0.00830411 0)
(2.94743 0.020343 0)
(2.86147 0.0533672 0)
(2.61794 0.145456 0)
(1.95195 0.429766 0)
(1.33642 0.798429 0)
(1.19233 0.847842 0)
(1.1913 0.863092 0)
(1.22706 0.856804 0)
(1.27532 0.849405 0)
(1.31887 0.850408 0)
(1.36441 0.853053 0)
(3 1.17277e-08 0)
(3 7.03141e-08 0)
(3 2.55248e-07 0)
(3 6.8871e-07 0)
(3 1.89081e-06 0)
(2.99999 4.57083e-06 0)
(2.99997 1.17798e-05 0)
(2.99993 2.81366e-05 0)
(2.99984 7.07614e-05 0)
(2.99959 0.000170402 0)
(2.99902 0.000421962 0)
(2.99756 0.00103292 0)
(2.99409 0.00252734 0)
(2.98528 0.0062927 0)
(2.96332 0.0155391 0)
(2.90477 0.040082 0)
(2.74168 0.107767 0)
(2.26609 0.312485 0)
(1.54674 0.761204 0)
(1.25811 0.86297 0)
(1.22972 0.881016 0)
(1.25019 0.879995 0)
(1.2962 0.86668 0)
(1.34329 0.859729 0)
(1.38746 0.857435 0)
(3 8.41455e-09 0)
(3 5.26328e-08 0)
(3 1.8325e-07 0)
(3 5.16237e-07 0)
(3 1.35865e-06 0)
(2.99999 3.40905e-06 0)
(2.99998 8.54179e-06 0)
(2.99995 2.07875e-05 0)
(2.99989 5.17733e-05 0)
(2.99972 0.000124804 0)
(2.99933 0.000310891 0)
(2.99834 0.000749964 0)
(2.99599 0.00186772 0)
(2.99004 0.0045475 0)
(2.97552 0.0113642 0)
(2.93781 0.0286233 0)
(2.8361 0.0757769 0)
(2.54393 0.213568 0)
(1.84583 0.60171 0)
(1.37593 0.854641 0)
(1.28286 0.88839 0)
(1.28349 0.898536 0)
(1.31834 0.88682 0)
(1.36514 0.872178 0)
(1.40915 0.864996 0)
(3 5.96532e-09 0)
(3 3.83613e-08 0)
(3 1.29741e-07 0)
(3 3.76516e-07 0)
(3 9.62389e-07 0)
(2.99999 2.47076e-06 0)
(2.99999 6.06048e-06 0)
(2.99997 1.4928e-05 0)
(2.99992 3.67908e-05 0)
(2.99981 8.86108e-05 0)
(2.99954 0.000221719 0)
(2.99886 0.000525683 0)
(2.99726 0.00133116 0)
(2.99318 0.00314807 0)
(2.98336 0.00801875 0)
(2.9581 0.0194959 0)
(2.89139 0.0508615 0)
(2.70451 0.137044 0)
(2.17409 0.401501 0)
(1.54647 0.833662 0)
(1.33746 0.903616 0)
(1.31796 0.914881 0)
(1.33738 0.907373 0)
(1.38185 0.888479 0)
(1.42855 0.875573 0)
(3 4.19207e-09 0)
(3 2.71285e-08 0)
(3 9.15824e-08 0)
(3 2.65834e-07 0)
(3 6.79691e-07 0)
(3 1.73759e-06 0)
(2.99999 4.25805e-06 0)
(2.99998 1.0495e-05 0)
(2.99995 2.5806e-05 0)
(2.99987 6.2226e-05 0)
(2.99969 0.000155163 0)
(2.99926 0.000368678 0)
(2.99817 0.000930442 0)
(2.99561 0.0022011 0)
(2.98913 0.00558889 0)
(2.97333 0.0134769 0)
(2.93231 0.034681 0)
(2.82206 0.0911867 0)
(2.50338 0.261211 0)
(1.82815 0.683997 0)
(1.44093 0.882864 0)
(1.36956 0.913193 0)
(1.36907 0.920384 0)
(1.40201 0.906042 0)
(1.44736 0.886109 0)
(3 2.84447e-09 0)
(3 1.8391e-08 0)
(3 6.32489e-08 0)
(3 1.79376e-07 0)
(3 4.68132e-07 0)
(3 1.17908e-06 0)
(2.99999 2.89258e-06 0)
(2.99999 7.1879e-06 0)
(2.99997 1.72123e-05 0)
(2.99992 4.30659e-05 0)
(2.9998 0.000101577 0)
(2.9995 0.000255799 0)
(2.99878 0.000601092 0)
(2.99707 0.00151797 0)
(2.99275 0.00358149 0)
(2.98229 0.00904835 0)
(2.95551 0.02198 0)
(2.88466 0.0571284 0)
(2.6863 0.154061 0)
(2.14294 0.443517 0)
(1.58342 0.849547 0)
(1.41963 0.916723 0)
(1.40196 0.930033 0)
(1.41912 0.923081 0)
(1.46068 0.900528 0)
(3 2.02207e-09 0)
(3 1.22256e-08 0)
(3 4.37246e-08 0)
(3 1.19503e-07 0)
(3 3.22935e-07 0)
(3 7.86341e-07 0)
(3 2.00424e-06 0)
(2.99999 4.77248e-06 0)
(2.99998 1.19643e-05 0)
(2.99995 2.85396e-05 0)
(2.99987 7.06371e-05 0)
(2.99968 0.000170295 0)
(2.99922 0.000416379 0)
(2.99809 0.00101778 0)
(2.9954 0.00246577 0)
(2.98864 0.00610846 0)
(2.97209 0.0149702 0)
(2.92905 0.0380023 0)
(2.81323 0.100452 0)
(2.47757 0.286891 0)
(1.84176 0.719228 0)
(1.5072 0.897949 0)
(1.44669 0.928069 0)
(1.44578 0.934106 0)
(1.4763 0.918564 0)
(3 1.30938e-09 0)
(3 8.32547e-09 0)
(3 2.84721e-08 0)
(3 8.14085e-08 0)
(3 2.10254e-07 0)
(3 5.31253e-07 0)
(3 1.3128e-06 0)
(2.99999 3.19145e-06 0)
(2.99999 7.88976e-06 0)
(2.99996 1.88273e-05 0)
(2.99991 4.69566e-05 0)
(2.99979 0.00011107 0)
(2.99949 0.000278011 0)
(2.99877 0.00065601 0)
(2.99699 0.00164814 0)
(2.9927 0.00390888 0)
(2.98199 0.00984274 0)
(2.95511 0.0239808 0)
(2.88371 0.0624033 0)
(2.68376 0.169149 0)
(2.15343 0.480859 0)
(1.64275 0.862365 0)
(1.49486 0.930008 0)
(1.47575 0.942586 0)
(1.49021 0.935799 0)
(3 8.6021e-10 0)
(3 5.48342e-09 0)
(3 1.8946e-08 0)
(3 5.35407e-08 0)
(3 1.39777e-07 0)
(3 3.51899e-07 0)
(3 8.63452e-07 0)
(3 2.13293e-06 0)
(2.99999 5.1347e-06 0)
(2.99998 1.26877e-05 0)
(2.99995 3.03917e-05 0)
(2.99987 7.49885e-05 0)
(2.99968 0.000179766 0)
(2.99923 0.000442686 0)
(2.99811 0.00106612 0)
(2.99546 0.00262336 0)
(2.98878 0.00636799 0)
(2.97254 0.0158223 0)
(2.93043 0.0396791 0)
(2.81725 0.105206 0)
(2.4913 0.299813 0)
(1.89376 0.728189 0)
(1.5787 0.90848 0)
(1.51709 0.940035 0)
(1.51367 0.94495 0)
(3 5.69151e-10 0)
(3 3.53297e-09 0)
(3 1.24091e-08 0)
(3 3.44581e-08 0)
(3 9.14763e-08 0)
(3 2.26264e-07 0)
(3 5.64148e-07 0)
(3 1.36966e-06 0)
(2.99999 3.34547e-06 0)
(2.99999 8.14825e-06 0)
(2.99997 1.96628e-05 0)
(2.99992 4.82211e-05 0)
(2.9998 0.000115404 0)
(2.99951 0.000285254 0)
(2.99881 0.000678175 0)
(2.99712 0.00168694 0)
(2.99298 0.00402634 0)
(2.98278 0.0100474 0)
(2.95709 0.024662 0)
(2.8897 0.0634941 0)
(2.70062 0.1727 0)
(2.20548 0.483616 0)
(1.71604 0.867441 0)
(1.56394 0.93988 0)
(1.54087 0.950559 0)
(3 3.56208e-10 0)
(3 2.32924e-09 0)
(3 7.89509e-09 0)
(3 2.27211e-08 0)
(3 5.81892e-08 0)
(3 1.48661e-07 0)
(3 3.58189e-07 0)
(3 8.97234e-07 0)
(3 2.12574e-06 0)
(2.99999 5.30845e-06 0)
(2.99998 1.25078e-05 0)
(2.99995 3.12294e-05 0)
(2.99988 7.36549e-05 0)
(2.9997 0.000183308 0)
(2.99928 0.000434165 0)
(2.99825 0.00107615 0)
(2.99574 0.00257638 0)
(2.9897 0.00635997 0)
(2.97465 0.0155259 0)
(2.93649 0.0392178 0)
(2.83504 0.102629 0)
(2.54357 0.291952 0)
(1.97606 0.708333 0)
(1.65139 0.907449 0)
(1.58088 0.943038 0)
(3 2.36673e-10 0)
(3 1.42211e-09 0)
(3 5.09881e-09 0)
(3 1.38837e-08 0)
(3 3.74553e-08 0)
(3 9.06711e-08 0)
(3 2.31043e-07 0)
(3 5.44107e-07 0)
(3 1.36674e-06 0)
(2.99999 3.2147e-06 0)
(2.99999 7.99595e-06 0)
(2.99997 1.89028e-05 0)
(2.99992 4.65902e-05 0)
(2.99981 0.000111274 0)
(2.99955 0.000270836 0)
(2.9989 0.000654005 0)
(2.99738 0.00157868 0)
(2.99356 0.0038593 0)
(2.98437 0.00932045 0)
(2.96108 0.0231582 0)
(2.90078 0.0584318 0)
(2.73357 0.157372 0)
(2.28726 0.43766 0)
(1.79622 0.837731 0)
(1.62307 0.930521 0)
(3 1.40825e-10 0)
(3 9.19051e-10 0)
(3 3.0829e-09 0)
(3 8.95336e-09 0)
(3 2.27629e-08 0)
(3 5.80329e-08 0)
(3 1.41148e-07 0)
(3 3.46147e-07 0)
(3 8.40439e-07 0)
(3 2.02553e-06 0)
(2.99999 4.96559e-06 0)
(2.99998 1.1798e-05 0)
(2.99995 2.92018e-05 0)
(2.99989 6.88287e-05 0)
(2.99973 0.000171455 0)
(2.99934 0.000402069 0)
(2.99842 0.00100563 0)
(2.99615 0.0023671 0)
(2.99069 0.00592385 0)
(2.97714 0.014209 0)
(2.943 0.036033 0)
(2.85293 0.0929088 0)
(2.59598 0.261012 0)
(2.06048 0.656015 0)
(1.70939 0.891413 0)
(3 8.54907e-11 0)
(3 5.58832e-10 0)
(3 1.89256e-09 0)
(3 5.43225e-09 0)
(3 1.39162e-08 0)
(3 3.53754e-08 0)
(3 8.52372e-08 0)
(3 2.12333e-07 0)
(3 5.02062e-07 0)
(3 1.24608e-06 0)
(3 2.93357e-06 0)
(2.99999 7.2659e-06 0)
(2.99997 1.71074e-05 0)
(2.99993 4.22233e-05 0)
(2.99983 9.99252e-05 0)
(2.9996 0.000244723 0)
(2.99901 0.000583493 0)
(2.99765 0.00142019 0)
(2.99423 0.00342245 0)
(2.98608 0.00832948 0)
(2.96544 0.0204243 0)
(2.91261 0.0515539 0)
(2.76828 0.136861 0)
(2.37607 0.384285 0)
(1.86545 0.778482 0)
(3 5.33173e-11 0)
(3 3.26059e-10 0)
(3 1.15381e-09 0)
(3 3.16933e-09 0)
(3 8.45199e-09 0)
(3 2.06144e-08 0)
(3 5.17551e-08 0)
(3 1.23048e-07 0)
(3 3.03733e-07 0)
(3 7.20032e-07 0)
(3 1.7625e-06 0)
(2.99999 4.19615e-06 0)
(2.99998 1.01738e-05 0)
(2.99996 2.4465e-05 0)
(2.9999 5.86252e-05 0)
(2.99975 0.000142551 0)
(2.99939 0.000337744 0)
(2.99851 0.000829833 0)
(2.99645 0.00195902 0)
(2.99127 0.00483978 0)
(2.97877 0.0115833 0)
(2.94691 0.0290082 0)
(2.86335 0.0742538 0)
(2.62968 0.206093 0)
(2.10367 0.53804 0)
(3 2.94846e-11 0)
(3 1.89184e-10 0)
(3 6.38014e-10 0)
(3 1.83751e-09 0)
(3 4.65636e-09 0)
(3 1.17856e-08 0)
(3 2.85102e-08 0)
(3 6.89559e-08 0)
(3 1.66954e-07 0)
(3 3.94438e-07 0)
(3 9.65417e-07 0)
(3 2.23942e-06 0)
(2.99999 5.54188e-06 0)
(2.99997 1.26899e-05 0)
(2.99993 3.15866e-05 0)
(2.99983 7.19649e-05 0)
(2.99959 0.000178695 0)
(2.99901 0.000407627 0)
(2.99757 0.00100704 0)
(2.99409 0.00231715 0)
(2.9855 0.00568722 0)
(2.9641 0.0134318 0)
(2.90827 0.0336905 0)
(2.75735 0.0875897 0)
(2.35009 0.24918 0)
(3 1.55376e-11 0)
(3 1.00745e-10 0)
(3 3.41961e-10 0)
(3 9.72785e-10 0)
(3 2.47305e-09 0)
(3 6.1998e-09 0)
(3 1.47564e-08 0)
(3 3.60553e-08 0)
(3 8.39221e-08 0)
(3 2.04021e-07 0)
(3 4.69067e-07 0)
(3 1.13648e-06 0)
(2.99999 2.61081e-06 0)
(2.99998 6.23636e-06 0)
(2.99995 1.44125e-05 0)
(2.99987 3.38333e-05 0)
(2.99967 7.8957e-05 0)
(2.9992 0.00018131 0)
(2.99804 0.000426153 0)
(2.99516 0.000962993 0)
(2.988 0.00227342 0)
(2.96997 0.00513031 0)
(2.92232 0.0121864 0)
(2.79108 0.0288579 0)
(2.4216 0.0737705 0)
(3 7.95912e-12 0)
(3 5.01336e-11 0)
(3 1.72894e-10 0)
(3 4.82386e-10 0)
(3 1.24207e-09 0)
(3 3.04958e-09 0)
(3 7.32879e-09 0)
(3 1.74965e-08 0)
(3 4.09748e-08 0)
(3 9.71379e-08 0)
(3 2.25064e-07 0)
(3 5.31317e-07 0)
(2.99999 1.22063e-06 0)
(2.99998 2.86967e-06 0)
(2.99995 6.58451e-06 0)
(2.99989 1.53221e-05 0)
(2.99971 3.52001e-05 0)
(2.99929 8.08193e-05 0)
(2.99822 0.000186455 0)
(2.99563 0.000423188 0)
(2.98896 0.00097842 0)
(2.97227 0.0022147 0)
(2.92743 0.00516294 0)
(2.80224 0.0120081 0)
(2.43992 0.0284472 0)
(3 3.89905e-12 0)
(3 2.41968e-11 0)
(3 8.43275e-11 0)
(3 2.3118e-10 0)
(3 6.03937e-10 0)
(3 1.45117e-09 0)
(3 3.53092e-09 0)
(3 8.21296e-09 0)
(3 1.95166e-08 0)
(3 4.52886e-08 0)
(3 1.0549e-07 0)
(3 2.4658e-07 0)
(2.99999 5.68027e-07 0)
(2.99998 1.33701e-06 0)
(2.99996 3.04113e-06 0)
(2.99989 7.25031e-06 0)
(2.99973 1.64315e-05 0)
(2.99933 3.85325e-05 0)
(2.99832 8.89436e-05 0)
(2.99582 0.000204738 0)
(2.98949 0.000484845 0)
(2.97343 0.00112204 0)
(2.93029 0.00268759 0)
(2.80896 0.00660615 0)
(2.45123 0.01588 0)
(3 1.98859e-12 0)
(3 1.26446e-11 0)
(3 4.61667e-11 0)
(3 1.18175e-10 0)
(3 3.26939e-10 0)
(3 7.63769e-10 0)
(3 1.84017e-09 0)
(3 4.57468e-09 0)
(3 9.63223e-09 0)
(3 2.66194e-08 0)
(3 4.95968e-08 0)
(3 1.53833e-07 0)
(2.99999 2.5479e-07 0)
(2.99998 8.80259e-07 0)
(2.99996 1.31916e-06 0)
(2.9999 4.98589e-06 0)
(2.99974 7.00265e-06 0)
(2.99936 2.7446e-05 0)
(2.99836 3.78613e-05 0)
(2.99596 0.000148738 0)
(2.98972 0.000223022 0)
(2.97409 0.000773682 0)
(2.93195 0.00146171 0)
(2.81273 0.00427653 0)
(2.45924 0.0102293 0)
(3 1.25662e-12 0)
(3 7.90772e-12 0)
(3 2.70894e-11 0)
(3 7.80108e-11 0)
(3 1.94578e-10 0)
(3 5.11579e-10 0)
(3 1.14533e-09 0)
(3 3.02631e-09 0)
(3 6.39241e-09 0)
(3 1.76072e-08 0)
(3 3.56696e-08 0)
(3 9.95309e-08 0)
(2.99999 1.97293e-07 0)
(2.99998 5.69127e-07 0)
(2.99996 1.10054e-06 0)
(2.9999 3.08439e-06 0)
(2.99975 6.40329e-06 0)
(2.99936 1.65094e-05 0)
(2.99842 3.72358e-05 0)
(2.99598 9.21485e-05 0)
(2.99001 0.000213826 0)
(2.97444 0.000540833 0)
(2.93322 0.00127568 0)
(2.816 0.00338056 0)
(2.46635 0.00875744 0)
(3 7.94089e-13 0)
(3 7.393e-12 0)
(3 1.95957e-11 0)
(3 7.26559e-11 0)
(3 1.51819e-10 0)
(3 4.7232e-10 0)
(3 9.41584e-10 0)
(3 2.88324e-09 0)
(3 5.56605e-09 0)
(3 1.70827e-08 0)
(3 3.29691e-08 0)
(3 9.76827e-08 0)
(2.99999 1.98525e-07 0)
(2.99998 5.30221e-07 0)
(2.99996 1.21026e-06 0)
(2.9999 2.76554e-06 0)
(2.99975 7.39609e-06 0)
(2.99938 1.45157e-05 0)
(2.99842 4.40528e-05 0)
(2.99611 7.83638e-05 0)
(2.9901 0.000247808 0)
(2.97496 0.000467462 0)
(2.93431 0.00130739 0)
(2.81876 0.00309734 0)
(2.47424 0.00826098 0)
(3 9.00811e-13 0)
(3 5.74796e-12 0)
(3 2.03558e-11 0)
(3 5.67316e-11 0)
(3 1.51495e-10 0)
(3 3.87962e-10 0)
(3 9.44764e-10 0)
(3 2.47779e-09 0)
(3 5.69274e-09 0)
(3 1.50876e-08 0)
(3 3.36379e-08 0)
(3 9.10894e-08 0)
(2.99999 1.92108e-07 0)
(2.99998 5.35158e-07 0)
(2.99996 1.10846e-06 0)
(2.9999 3.13304e-06 0)
(2.99976 6.07819e-06 0)
(2.99939 1.86316e-05 0)
(2.99848 3.36016e-05 0)
(2.99615 0.000101191 0)
(2.99034 0.000195868 0)
(2.97532 0.000521966 0)
(2.9354 0.00115194 0)
(2.82149 0.00291817 0)
(2.48101 0.0074279 0)
(3 8.15645e-13 0)
(3 5.10385e-12 0)
(3 1.71988e-11 0)
(3 5.20493e-11 0)
(3 1.24455e-10 0)
(3 3.59188e-10 0)
(3 8.00377e-10 0)
(3 2.23577e-09 0)
(3 5.1707e-09 0)
(3 1.31792e-08 0)
(3 3.21786e-08 0)
(3 7.6942e-08 0)
(2.99999 1.97559e-07 0)
(2.99998 4.46844e-07 0)
(2.99996 1.17302e-06 0)
(2.9999 2.62312e-06 0)
(2.99976 6.69776e-06 0)
(2.9994 1.4657e-05 0)
(2.99849 3.78049e-05 0)
(2.99624 7.67318e-05 0)
(2.99045 0.000208126 0)
(2.97575 0.000415981 0)
(2.93627 0.00108275 0)
(2.82367 0.00239896 0)
(2.4867 0.00616438 0)
(3 9.7013e-13 0)
(3 2.95738e-12 0)
(3 1.95793e-11 0)
(3 2.88676e-11 0)
(3 1.47592e-10 0)
(3 2.21235e-10 0)
(3 9.36814e-10 0)
(3 1.57464e-09 0)
(3 5.54557e-09 0)
(3 1.09754e-08 0)
(3 3.17249e-08 0)
(3 7.5558e-08 0)
(2.99999 1.7216e-07 0)
(2.99999 4.97931e-07 0)
(2.99996 8.92826e-07 0)
(2.99991 3.11131e-06 0)
(2.99977 4.48818e-06 0)
(2.99941 1.80315e-05 0)
(2.99853 2.17602e-05 0)
(2.99629 0.000103091 0)
(2.99062 0.000102521 0)
(2.97604 0.000495669 0)
(2.937 0.000678129 0)
(2.82537 0.0020574 0)
(2.4904 0.0044821 0)
(3 3.41672e-13 0)
(3 3.32672e-12 0)
(3 8.24102e-12 0)
(3 3.25655e-11 0)
(3 7.11613e-11 0)
(3 2.18906e-10 0)
(3 5.20168e-10 0)
(3 1.38323e-09 0)
(3 3.50389e-09 0)
(3 8.66653e-09 0)
(3 2.27347e-08 0)
(3 5.21723e-08 0)
(2.99999 1.4141e-07 0)
(2.99999 3.04773e-07 0)
(2.99996 8.32634e-07 0)
(2.99991 1.64426e-06 0)
(2.99977 4.85535e-06 0)
(2.99942 8.36956e-06 0)
(2.99856 2.66295e-05 0)
(2.99631 4.39172e-05 0)
(2.99077 0.000132758 0)
(2.97622 0.000240208 0)
(2.9375 0.000606573 0)
(2.82659 0.00124729 0)
(2.49226 0.00294596 0)
(3 5.23917e-14 0)
(3 2.94158e-12 0)
(3 2.81461e-12 0)
(3 3.0213e-11 0)
(3 2.43636e-11 0)
(3 1.99965e-10 0)
(3 1.96454e-10 0)
(3 1.2199e-09 0)
(3 1.52408e-09 0)
(3 7.06179e-09 0)
(3 1.15054e-08 0)
(3 3.77344e-08 0)
(2.99999 8.53138e-08 0)
(2.99999 1.90775e-07 0)
(2.99996 5.64088e-07 0)
(2.99991 9.66365e-07 0)
(2.99977 3.49398e-06 0)
(2.99943 4.01284e-06 0)
(2.99856 2.08833e-05 0)
(2.99638 1.20509e-05 0)
(2.99078 0.000115595 0)
(2.97642 7.05308e-05 0)
(2.93779 0.00044583 0)
(2.82702 0.000595251 0)
(2.49348 0.0015876 0)
(3 1.58417e-13 0)
(3 6.64085e-13 0)
(3 3.24125e-12 0)
(3 6.98536e-12 0)
(3 2.28596e-11 0)
(3 5.04583e-11 0)
(3 1.50951e-10 0)
(3 3.48531e-10 0)
(3 9.32317e-10 0)
(3 2.30756e-09 0)
(3 5.65734e-09 0)
(3 1.55586e-08 0)
(2.99999 3.15132e-08 0)
(2.99999 9.94856e-08 0)
(2.99996 1.69306e-07 0)
(2.99991 6.71906e-07 0)
(2.99978 7.00354e-07 0)
(2.99943 3.90752e-06 0)
(2.99857 3.17777e-06 0)
(2.99639 1.88159e-05 0)
(2.99082 1.66401e-05 0)
(2.97649 7.08325e-05 0)
(2.93792 9.94149e-05 0)
(2.82725 0.000243735 0)
(2.49367 0.000460171 0)
(1.14121 1.00697 0)
(1.07442 0.718891 0)
(0.251924 0.471682 0)
(-0.434244 0.0398744 0)
(-0.495104 -0.0163261 0)
(-0.670036 -0.0246387 0)
(-0.728941 -0.0189711 0)
(-0.770282 0.00395902 0)
(-0.827056 0.019116 0)
(-0.892258 0.0199481 0)
(-0.950577 0.0145439 0)
(-1.00141 0.00889675 0)
(-1.05123 0.00683478 0)
(-1.10102 0.00565673 0)
(-1.14758 0.00413126 0)
(-1.19062 0.00225603 0)
(-1.23135 0.00160655 0)
(-1.26125 0.00375803 0)
(-1.27491 0.00373299 0)
(-1.27898 0.00213201 0)
(-1.27443 -8.41576e-05 0)
(-1.25342 -0.00320303 0)
(-1.2117 -0.00703837 0)
(-1.15245 -0.0113425 0)
(-1.08153 -0.015155 0)
(-1.00501 -0.0178508 0)
(-0.926946 -0.0195153 0)
(-0.84969 -0.0203206 0)
(-0.774103 -0.0206882 0)
(-0.701123 -0.0206638 0)
(-0.63157 -0.020354 0)
(-0.565355 -0.0200143 0)
(-0.502217 -0.0199791 0)
(-0.441406 -0.0205363 0)
(-0.382893 -0.0215765 0)
(-0.324352 -0.0234348 0)
(-0.267793 -0.0242784 0)
(-0.212963 -0.0244873 0)
(-0.16016 -0.0244309 0)
(-0.108927 -0.0247233 0)
(-0.0589787 -0.0252671 0)
(-0.0113205 -0.0276277 0)
(0.0425557 -0.0269863 0)
(0.0886634 -0.0244704 0)
(0.133175 -0.0229464 0)
(0.17574 -0.0217849 0)
(0.216617 -0.0208478 0)
(0.254638 -0.0197663 0)
(0.291161 -0.0190014 0)
(0.32848 -0.0188102 0)
(0.365933 -0.0185964 0)
(0.401958 -0.0179918 0)
(0.43664 -0.0172353 0)
(0.470236 -0.0165868 0)
(0.502894 -0.0159911 0)
(0.534745 -0.0154496 0)
(0.565823 -0.0149051 0)
(0.596182 -0.0143921 0)
(0.625845 -0.0138777 0)
(0.654865 -0.0133944 0)
(0.683262 -0.0129133 0)
(0.711085 -0.0124595 0)
(0.738349 -0.012011 0)
(0.765097 -0.011584 0)
(0.791346 -0.0111664 0)
(0.817126 -0.0107646 0)
(0.842458 -0.0103742 0)
(0.867359 -0.00999605 0)
(0.891852 -0.00962749 0)
(0.915949 -0.0092704 0)
(0.939668 -0.0089196 0)
(0.963024 -0.00857959 0)
(0.986027 -0.00824498 0)
(1.00869 -0.00791821 0)
(1.03103 -0.00759751 0)
(1.05306 -0.00728098 0)
(1.07477 -0.00697009 0)
(1.09617 -0.00666123 0)
(1.11726 -0.00635665 0)
(1.13805 -0.00605344 0)
(1.15853 -0.00575388 0)
(1.17871 -0.00545567 0)
(1.19857 -0.00516117 0)
(1.21813 -0.00486865 0)
(1.23737 -0.00457953 0)
(1.2563 -0.00429327 0)
(1.27491 -0.00400859 0)
(1.29321 -0.00372693 0)
(1.31117 -0.00344365 0)
(1.3288 -0.00316057 0)
(1.34605 -0.00287024 0)
(1.36289 -0.00257183 0)
(1.37926 -0.00226088 0)
(1.39506 -0.00192749 0)
(1.41013 -0.00155269 0)
(1.42425 -0.0011345 0)
(1.43705 -0.000669167 0)
(1.44802 -0.000128414 0)
(1.45613 0.000546867 0)
(1.46198 0.00135892 0)
(1.19366 0.913931 0)
(1.21041 0.6253 0)
(0.864631 0.500321 0)
(0.607499 0.394747 0)