/*--------------------------------*- C++ -*----------------------------------*\
  =========                 |
  \\      /  F ield         | OpenFOAM: The Open Source CFD Toolbox
   \\    /   O peration     | Website:  https://openfoam.org
    \\  /    A nd           | Version:  9
     \\/     M anipulation  |
\*---------------------------------------------------------------------------*/
FoamFile
{
    format      ascii;
    class       surfaceScalarField;
    location    "0.79";
    object      phi;
}
// * * * * * * * * * * * * * * * * * * * * * * * * * * * * * * * * * * * * * //

dimensions      [0 3 -1 0 0 0 0];

internalField   nonuniform List<scalar> 
19800
(
-3.6644013e-05
0.00011466352
-5.6979052e-05
0.00011500303
-7.7339415e-05
0.0001158528
-9.7618201e-05
0.00011651895
-0.00011788849
0.00011737643
-0.00013809438
0.0001182074
-0.00015822907
0.00011902599
-0.00017825683
0.00011977435
-0.00019813069
0.00012038777
-0.00021780201
0.00012083154
-0.00023721733
0.00012103727
-0.00025628827
0.00012095729
-0.00027495572
0.0001205425
-0.00029314955
0.00011970791
-0.0003107921
0.00011842957
-0.00032781157
0.00011666414
-0.00034415132
0.00011440415
-0.00035975038
0.00011164784
-0.00037455354
0.00010841024
-0.00038851694
0.00010471381
-0.0004016128
0.00010061664
-0.00041383329
9.6229599e-05
-0.00042519734
9.1673226e-05
-0.00043576575
8.7080468e-05
-0.0004456605
8.2619883e-05
-0.00045507648
7.8466721e-05
-0.00046430141
7.4820847e-05
-0.00047375863
7.186897e-05
-0.00048403989
6.9797737e-05
-0.00049591108
6.8791261e-05
-0.00051033251
6.9054813e-05
-0.00052867488
7.0769046e-05
-0.00055253295
7.4236128e-05
-0.00058232072
8.0120587e-05
-0.00061838018
8.8486293e-05
-0.00066139385
9.8748565e-05
-0.00071206128
0.00011010562
-0.00077083975
0.00012144721
-0.0008377418
0.0001312699
-0.00091209204
0.0001376676
-0.00099219574
0.00013813853
-0.0010749383
0.00012951472
-0.0011547815
0.0001075565
-0.0012226004
6.6104316e-05
-0.0012615483
-3.6996975e-06
-0.0012614871
-0.00010058259
-0.0011847248
-0.00025644723
-0.00099307757
-0.00047439977
-0.00066249233
-0.0007403098
-0.00017967627
-0.0010362759
0.00047001417
-0.0013529214
0.0012710769
-0.001632186
0.002148246
-0.0017866393
0.0029784188
-0.001749573
0.003687572
-0.0015795961
0.0042661233
-0.0013725831
0.0047165616
-0.0011504052
0.0050379669
-0.0009067099
0.0052282786
-0.00062976659
0.0052428233
-0.00026735761
0.0050437027
0.0001251333
0.0047222443
0.00044232229
0.004352686
0.00063583299
0.0039712119
0.00075997772
0.0035902202
0.00085309643
0.0032218315
0.00092211884
0.0028749288
0.00096919273
0.002553329
0.00099632254
0.0022583958
0.0010042988
0.0019900286
0.00099476622
0.0017469229
0.00096997882
0.0015269847
0.00093215273
0.0013277495
0.00088363654
0.0011467754
0.00082722125
0.00098192888
0.00076604287
0.00083151313
0.0007031284
0.00069425779
0.0006409141
0.0005692351
0.00058103436
0.00045573883
0.00052436446
0.00035320602
0.00047136459
0.00026118805
0.00042214056
0.00017931013
0.00037661584
0.00010721275
0.00033468185
4.4582558e-05
0.00029614176
-8.7978452e-06
0.00026074594
-5.3278674e-05
0.00022823364
-8.9254657e-05
0.00019822245
-0.00011724713
0.00017038702
-0.00013781928
0.00014447138
-0.00015153172
0.00012032224
-0.00015894545
9.7960048e-05
-0.0001604822
7.7218269e-05
-0.00015662329
5.7962062e-05
-0.00014768864
4.0116807e-05
-0.00013410122
2.3748277e-05
-0.00011667329
9.0091852e-06
-9.8254472e-05
-2.6762962e-06
-7.835455e-05
-1.5136873e-05
-5.6971051e-05
-2.4138172e-05
-3.1393582e-05
-3.5992256e-05
0.00013475966
-5.607569e-05
0.00013510545
-7.6195115e-05
0.0001359703
-9.635913e-05
0.00013669314
-0.00011656345
0.00013758225
-0.00013677366
0.00013842219
-0.00015696444
0.00013922095
-0.00017711644
0.00013992625
-0.00019718453
0.00014046307
-0.00021711474
0.00014076101
-0.00023684915
0.0001407767
-0.00025631536
0.00014042887
-0.00027543627
0.00013966093
-0.00029413058
0.00013840365
-0.00031232047
0.00013661985
-0.00032992398
0.00013426509
-0.0003468515
0.00013133381
-0.00036301844
0.00012781658
-0.00037835215
0.00012374487
-0.00039278073
0.00011914878
-0.00040626756
0.00011410743
-0.00041879615
0.00010875348
-0.00043035784
0.00010323209
-0.00044099617
9.7721784e-05
-0.00045082099
9.2444443e-05
-0.00046001203
8.7654849e-05
-0.00046883673
8.3648715e-05
-0.000477695
8.0733453e-05
-0.00048714952
7.9253126e-05
-0.00049794964
7.9590217e-05
-0.00051104124
8.2150154e-05
-0.00052759364
8.7326094e-05
-0.00054887806
9.5519525e-05
-0.00057592276
0.00010716195
-0.00060978089
0.00012234503
-0.00065161377
0.00014058507
-0.00070252098
0.00016101578
-0.00076338091
0.00018230917
-0.00083475364
0.00020264518
-0.00091659253
0.00021950991
-0.0010081463
0.00022969456
-0.0011074757
0.00022884384
-0.0012109597
0.00021104136
-0.0013127088
0.0001678583
-0.0014038844
8.74808e-05
-0.0014531133
-5.1351352e-05
-0.0014304737
-0.00027908458
-0.0013042632
-0.00060060543
-0.001057606
-0.00098696125
-0.00063233263
-0.0014615468
8.6241548e-05
-0.002071495
0.0010785031
-0.0026244475
0.0022087052
-0.0029168402
0.0032580451
-0.0027989096
0.0041048716
-0.0024264193
0.0047538091
-0.0020215208
0.0052203443
-0.0016169435
0.0055189586
-0.0012053286
0.0056777717
-0.00078858448
0.005630856
-0.00022044655
0.0053658329
0.00039015191
0.0049733907
0.00083476299
0.0045384575
0.0010707685
0.0041031175
0.001195319
0.0036800235
0.0012761905
0.0032761862
0.0013259573
0.0028967691
0.001348612
0.0025469688
0.0013461236
0.0022301391
0.0013211285
0.0019463871
0.001278519
0.0016935176
0.0012228477
0.0014681485
0.001157522
0.0012664702
0.0010853162
0.0010848948
0.0010087978
0.00092049355
0.00093044585
0.00077113058
0.00085249575
0.00063534961
0.00077669979
0.00051216057
0.00070422793
0.00040082356
0.00063570254
0.00030074089
0.00057144724
0.00021140073
0.00051147804
0.00013234239
0.00045567464
6.3132811e-05
0.00040389568
3.3594241e-06
0.0003559165
-4.7339496e-05
0.00031144512
-8.9318435e-05
0.0002702117
-0.00012301772
0.00023191947
-0.00014891893
0.00019628403
-0.00016753789
0.00016308806
-0.00017936542
0.00013214901
-0.00018484129
0.00010343142
-0.00018440961
7.6786528e-05
-0.00017866315
5.2217105e-05
-0.00016810438
2.9559859e-05
-0.00015314069
8.7885013e-06
-0.00013555506
-8.5780196e-06
-0.0001134459
-2.4780026e-05
-8.9590843e-05
-3.8984674e-05
-6.4318077e-05
-4.9394464e-05
-5.9230163e-05
-3.5472946e-05
0.00015470538
-5.5501016e-05
0.00015512955
-7.5555821e-05
0.00015602846
-9.5676449e-05
0.00015681202
-0.00011578448
0.00015768968
-0.00013598891
0.00015862685
-0.0001562607
0.00015948869
-0.00017656041
0.00016022936
-0.00019682962
0.00016072822
-0.00021703315
0.00016096449
-0.00023710418
0.00016085019
-0.00025696949
0.00016029074
-0.00027655215
0.00015924491
-0.00029576135
0.00015761576
-0.00031449699
0.00015535559
-0.00033267792
0.00015244932
-0.00035017588
0.00014883407
-0.00036689703
0.00014453724
-0.0003827264
0.00013957872
-0.00039756648
0.0001339938
-0.00041134266
0.00012788058
-0.00042398064
0.00012138805
-0.00043544477
0.00011469922
-0.00044574049
0.00010801944
-0.00045493905
0.00010164092
-0.00046317318
9.5890708e-05
-0.00047068272
9.1164074e-05
-0.00047783529
8.7887426e-05
-0.00048515607
8.6570948e-05
-0.0004933545
8.7789486e-05
-0.0005033562
9.2156724e-05
-0.00051633812
0.00010030934
-0.00053369055
0.0001128689
-0.0005568561
0.00013032697
-0.00058731863
0.0001528112
-0.00062676428
0.00018003286
-0.00067672865
0.00021097927
-0.00073875213
0.00024433274
-0.00081392214
0.0002778162
-0.00090314229
0.00030872918
-0.001006517
0.00033306772
-0.0011238676
0.00034619431
-0.0012544986
0.00034167404
-0.0013953811
0.00030874386
-0.0015404225
0.00023252468
-0.0016760417
8.426944e-05
-0.0017715319
-0.00018359174
-0.0017826649
-0.0005894683
-0.001586255
-0.0011833673
-0.00098519317
-0.0020626078
0.00012274995
-0.0031794373
0.001519524
-0.0040212188
0.0030196934
-0.0044170067
0.0044180488
-0.0041972637
0.0055535526
-0.0035619229
0.0063922609
-0.00286023
0.006940216
-0.0021649007
0.007159419
-0.0014245351
0.0071135771
-0.00074274768
0.0066214575
0.0002716686
0.0058524369
0.0011591705
0.0051549881
0.0015322102
0.004642708
0.0015830493
0.0042050192
0.0016330096
0.0037632796
0.0017179328
0.0033265081
0.0017627285
0.0029149424
0.0017601801
0.0025377042
0.0017233622
0.0021972798
0.0016615528
0.0018939989
0.0015818009
0.0016262184
0.0014906289
0.0013904754
0.0013932648
0.0011824453
0.0012933475
0.00099787163
0.0011933738
0.00083314279
0.0010951786
0.00068548647
0.0010001541
0.00055288674
0.00090930257
0.00043387627
0.00082324062
0.00032731594
0.00074226342
0.00023231195
0.00066645341
0.00014809765
0.00059569238
7.4050252e-05
0.00052972161
9.6023119e-06
0.00046834669
-4.5750601e-05
0.00041127162
-9.2363231e-05
0.00035805903
-0.00013067213
0.00030851833
-0.00016106061
0.00026230615
-0.00018393517
0.00021915469
-0.00019971023
0.00017885791
-0.00020888855
0.00014132814
-0.00021191096
0.00010645498
-0.00020926815
7.4146251e-05
-0.00020146884
4.4417872e-05
-0.00018915278
1.724172e-05
-0.0001719166
-8.4504298e-06
-0.00015072812
-2.9769032e-05
-0.00012680848
-4.8706784e-05
-0.00010036004
-6.5435749e-05
-7.1951666e-05
-7.7801678e-05
-8.9985216e-05
-3.4970916e-05
0.00017444204
-5.4801625e-05
0.00017496623
-7.4726262e-05
0.00017594957
-9.4755482e-05
0.00017684258
-0.00011493443
0.0001778702
-0.0001352209
0.00017891083
-0.00015559963
0.00017987183
-0.00017605246
0.0001806796
-0.00019658354
0.00018125857
-0.00021710286
0.00018148556
-0.00023756014
0.00018130281
-0.0002578876
0.00018061685
-0.00027798642
0.00017934581
-0.00029776086
0.00017739064
-0.00031710828
0.00017470655
-0.00033590085
0.00017124525
-0.00035402101
0.00016695366
-0.00037132021
0.00016183952
-0.00038766143
0.00015592574
-0.00040294274
0.00014927416
-0.00041704277
0.00014197691
-0.00042984868
0.00013419626
-0.00044126217
0.0001261162
-0.00045127737
0.00011803351
-0.0004598835
0.00011024711
-0.00046717255
0.00010318434
-0.0004733251
9.7318516e-05
-0.00047865365
9.3212231e-05
-0.00048361243
9.1527585e-05
-0.00048888432
9.3064506e-05
-0.0004954155
9.8690747e-05
-0.00050443711
0.00010932968
-0.00051741758
0.00012584776
-0.00053605308
0.0001489644
-0.00056230687
0.00017906791
-0.00059826527
0.00021599047
-0.00064619183
0.00025890221
-0.00070814575
0.00030628486
-0.0007861718
0.00035584185
-0.00088199788
0.00040455272
-0.00099749605
0.00044856337
-0.0011349419
0.0004836409
-0.0012961438
0.00050287792
-0.0014837986
0.00049640028
-0.0017050416
0.00045376904
-0.0019786658
0.00035789534
-0.0022803121
0.00011805692
-0.002326484
-0.00054329435
-0.0016783995
-0.0018314497
-0.00048091796
-0.0032600881
0.0010635941
-0.0047239476
0.0026493193
-0.0056069414
0.0042294045
-0.0059970902
0.0057534391
-0.0057212988
0.0071992928
-0.0050077774
0.0084802561
-0.0041411937
0.0094372358
-0.0031218827
0.0099592169
-0.0019465204
0.009827026
-0.00061056156
0.0088532026
0.0012454881
0.0071350197
0.0028773517
0.0055981942
0.0030690355
0.0046350603
0.002546184
0.0041457386
0.002122332
0.0037593654
0.0021043081
0.0033357792
0.0021863143
0.0028977039
0.0021982546
0.0024909564
0.0021301118
0.0021300082
0.0020225033
0.0018132782
0.0018985316
0.0015364825
0.0017674248
0.0012950764
0.0016346709
0.0010843104
0.0015041164
0.00089959194
0.0013780956
0.00073689583
0.0012578765
0.00059293739
0.0011441128
0.00046514273
0.0010370982
0.00035153426
0.00093685314
0.00025056118
0.00084323922
0.00016103446
0.00075598082
8.2072185e-05
0.00067465552
1.297002e-05
0.00059882465
-4.6934718e-05
0.00052825204
-9.8170901e-05
0.00046250944
-0.00014098056
0.00040087085
-0.00017588834
0.00034342326
-0.00020313734
0.00028955197
-0.00022314132
0.00023916035
-0.00023631385
0.00019203116
-0.00024299758
0.00014801363
-0.00024354681
0.00010700706
-0.00023837472
6.8972987e-05
-0.00022782948
3.3867214e-05
-0.0002123435
1.7601612e-06
-0.00019327997
-2.7511992e-05
-0.00016984989
-5.3193459e-05
-0.00014298482
-7.5571948e-05
-0.0001131054
-9.5319369e-05
-8.1488693e-05
-0.00010941381
-0.00012438892
-3.4340312e-05
0.0001939512
-5.3997579e-05
0.00019461996
-7.3811134e-05
0.00019576012
-9.3780803e-05
0.00019681315
-0.00011391921
0.00019800534
-0.00013425919
0.00019925506
-0.00015477751
0.00020038808
-0.00017548658
0.00020138727
-0.00019631621
0.00020208993
-0.00021724204
0.00020240728
-0.00023818314
0.00020224193
-0.00025906833
0.00020150415
-0.00027979224
0.00020007075
-0.00030025246
0.00019785455
-0.00032032923
0.0001947874
-0.00033987796
0.00019079339
-0.00035875704
0.00018583431
-0.00037680707
0.00017989538
-0.0003938537
0.00017297318
-0.00040973836
0.00016515516
-0.00042429159
0.00015653136
-0.00043734877
0.00014725743
-0.00044880526
0.00013757185
-0.00045852125
0.00012774733
-0.00046645668
0.00011818478
-0.00047260527
0.00010933468
-0.0004770309
0.00010174009
-0.0004799034
9.6080289e-05
-0.00048159117
9.3216476e-05
-0.00048268949
9.4165599e-05
-0.00048410056
0.00010010092
-0.00048707796
0.00011230517
-0.00049331044
0.00013208134
-0.00050489601
0.00016055198
-0.000524331
0.00019850222
-0.00055438359
0.00024604003
-0.00059794549
0.00030246097
-0.00065795159
0.00036628935
-0.00073722047
0.00043510996
-0.00083840144
0.00050573169
-0.00096465514
0.00057481558
-0.0011197105
0.00063869803
-0.0013081693
0.00069133902
-0.0015419517
0.00073018278
-0.0018745717
0.00078638831
-0.0023708652
0.00085418933
-0.0027858744
0.00053306739
-0.0023753393
-0.00095382924
-0.00082812266
-0.0033786658
0.00055097816
-0.0046391879
0.0020157249
-0.0061886933
0.0037103151
-0.0073015308
0.0054186736
-0.007705449
0.0071614958
-0.0074641215
0.0088132793
-0.0066595615
0.010389564
-0.0057174792
0.01183385
-0.0045661713
0.012714315
-0.0028269907
0.012501437
-0.00039768825
0.01188877
0.0018581526
0.010395771
0.0043703512
0.0079185247
0.0055462809
0.0058301941
0.0046345134
0.0044260085
0.0035265182
0.0037150348
0.0028152815
0.0032550125
0.0026463381
0.0028198966
0.0026333704
0.0023951885
0.0025548209
0.0020144279
0.0024032635
0.0016878071
0.002225152
0.0014085541
0.0020466811
0.001168507
0.0018747206
0.00096129343
0.0017113287
0.00078157528
0.0015578135
0.0006248183
0.001414633
0.00048732087
0.0012816146
0.00036615101
0.0011582721
0.00025904625
0.0010439605
0.00016428966
0.00093799596
8.0606523e-05
0.00083966111
7.0054162e-06
0.00074825585
-5.7322995e-05
0.00066315553
-0.00011265547
0.00058358923
-0.00015946931
0.00050932523
-0.00019836927
0.00043976933
-0.0002295992
0.00037465025
-0.00025345609
0.00031341023
-0.00027025949
0.00025596518
-0.00028037859
0.00020215005
-0.00028405309
0.00015168951
-0.00028164909
0.00010460278
-0.0002735188
6.084237e-05
-0.00026007311
2.0422026e-05
-0.00024172851
-1.6582877e-05
-0.000219042
-5.0197845e-05
-0.00019217555
-8.0061011e-05
-0.00016202568
-0.00010571962
-0.00012853869
-0.00012880847
-9.3127339e-05
-0.00014482745
-0.00016290305
-3.3594051e-05
0.00021319016
-5.303757e-05
0.00021406366
-7.2681376e-05
0.00021540217
-9.2531671e-05
0.00021666051
-0.00011270086
0.00021817896
-0.00013310974
0.00021966295
-0.00015381285
0.00022109069
-0.00017475568
0.00022233219
-0.00019594555
0.00022327581
-0.00021732469
0.00022378345
-0.00023882141
0.00022373996
-0.00026034773
0.00022303122
-0.00028180905
0.0002215354
-0.00030309151
0.00021914149
-0.0003240496
0.0002157451
-0.00034451315
0.00021125724
-0.00036431919
0.00020564578
-0.00038327054
0.00019884895
-0.0004011796
0.0001908789
-0.00041780972
0.00018178523
-0.00043296138
0.00017168673
-0.0004464187
0.0001607139
-0.00045798262
0.00014913111
-0.00046747084
0.0001372344
-0.0004746982
0.000125413
-0.00047954284
0.00011417582
-0.000481965
0.00010415663
-0.00048201128
9.612549e-05
-0.00047986406
9.1071619e-05
-0.00047596618
9.0267311e-05
-0.0004711261
9.5257614e-05
-0.00046661308
0.00010779146
-0.00046425611
0.00012972653
-0.00046651231
0.00016280795
-0.00047641931
0.00020840576
-0.00049753802
0.00026715676
-0.00053369695
0.00033862038
-0.00058876043
0.00042135271
-0.00066635779
0.00051270633
-0.00076982191
0.00060919546
-0.00090241157
0.00070740608
-0.0010671932
0.00080348151
-0.0012701362
0.00089428235
-0.001550872
0.0010109164
-0.0020191245
0.0012546384
-0.0026578901
0.0014929543
-0.0028361775
0.00071135493
-0.0016347691
-0.0021552391
7.4993343e-05
-0.0050884293
0.0011973083
-0.0057615025
0.002592659
-0.0075840435
0.0041644617
-0.0088733337
0.0059774769
-0.009518465
0.007852267
-0.0093389121
0.0097084652
-0.0085157608
0.011415324
-0.0074243399
0.012794503
-0.0059453537
0.01362155
-0.0036540409
0.013864261
-0.00064040318
0.013316705
0.0024057062
0.012477454
0.0052096031
0.010645148
0.0073785869
0.0079659345
0.0073137262
0.0055431231
0.005949328
0.0039817705
0.0043766349
0.0031743406
0.0034537692
0.0026770381
0.0031306725
0.0022401061
0.0029917529
0.0018466237
0.0027967472
0.0015146863
0.0025570901
0.0012387033
0.0023226645
0.0010064781
0.0021069452
0.00080885452
0.0019089499
0.00063921691
0.0017274515
0.00049239677
0.0015614527
0.00036435418
0.0014096598
0.00025198931
0.0012706368
0.00015299675
0.0011429531
6.5679498e-05
0.0010253131
-1.1200108e-05
0.00091653932
-7.858348e-05
0.00081564101
-0.00013706851
0.0007216412
-0.0001873791
0.00063390033
-0.00022952766
0.00055147379
-0.00026418619
0.00047443106
-0.00029123438
0.00040169838
-0.00031127519
0.00033345328
-0.00032450912
0.00026920075
-0.0003310145
0.00020865287
-0.00033123773
0.00015191262
-0.00032543384
9.8802574e-05
-0.00031393931
4.9348084e-05
-0.0002970722
3.5552958e-06
-0.00027515459
-3.8502498e-05
-0.00024880652
-7.6550839e-05
-0.00021834009
-0.000110524
-0.00018404523
-0.00014001556
-0.00014653755
-0.00016631859
-0.00010677128
-0.00018459413
-0.00020584551
-3.269785e-05
0.00023211667
-5.1880052e-05
0.00023324693
-7.1355266e-05
0.00023487213
-9.1114086e-05
0.00023642387
-0.00011122056
0.00023828415
-0.0001316968
0.00024013932
-0.00015256259
0.0002419601
-0.00017379871
0.00024356576
-0.00019538951
0.00024486383
-0.00021727716
0.00024567183
-0.00023940191
0.00024586447
-0.00026167276
0.00024530389
-0.00028398442
0.00024385065
-0.00030620126
0.00024135744
-0.00032817018
0.00023771294
-0.00034970317
0.0002327948
-0.00037061313
0.0002265589
-0.00039066362
0.00021889668
-0.00040961243
0.0002098268
-0.00042719795
0.00019937417
-0.0004431352
0.00018762341
-0.0004571664
0.00017473878
-0.00046900513
0.0001609655
-0.00047836981
0.0001465985
-0.00048499921
0.00013203971
-0.00048864971
0.00011782109
-0.00048907931
0.0001045841
-0.00048610705
9.3154706e-05
-0.00047966545
8.4629837e-05
-0.00046995565
8.0554278e-05
-0.00045756815
8.2867882e-05
-0.00044368798
9.3911919e-05
-0.00043028502
0.00011632413
-0.00042021222
0.00015273321
-0.00041719829
0.00020538973
-0.00042567853
0.0002756383
-0.00045061524
0.00036355991
-0.00049705823
0.00046779586
-0.00056965181
0.00058529921
-0.00067176992
0.0007113154
-0.00080423235
0.00083987052
-0.00096561697
0.00096486504
-0.0011690274
0.0010976892
-0.0014884359
0.0013303217
-0.0019917668
0.0017579676
-0.0023809603
0.0018821468
-0.0018575711
0.00018796465
0.00017322968
-0.0041860414
0.00097771646
-0.0058929171
0.0016000822
-0.0063838682
0.0023571505
-0.008341112
0.0040166985
-0.010532882
0.0059867161
-0.011488483
0.0079198715
-0.011272068
0.0097662825
-0.010362173
0.011376918
-0.009034978
0.012692033
-0.0072604729
0.013595535
-0.0045575466
0.013884371
-0.0009292416
0.013344306
0.0029457711
0.012304222
0.0062496903
0.010862393
0.0088204151
0.0085868001
0.0095893195
0.0063233394
0.008212789
0.0043629354
0.0063370399
0.0031627122
0.0046539903
0.0024804619
0.0038129218
0.0020068444
0.0034653725
0.0016136564
0.0031899379
0.001288871
0.0028818743
0.0010255177
0.0025860155
0.00080900643
0.0023234544
0.00062754704
0.0020904087
0.00047323556
0.0018817643
0.00034043558
0.0016942531
0.000224977
0.0015251218
0.000123781
0.0013718331
3.4683053e-05
0.0012320512
-4.386888e-05
0.0011038661
-0.00011278426
0.00098545432
-0.0001731904
0.00087604834
-0.00022535522
0.00077380658
-0.00026986539
0.00067840976
-0.00030700925
0.00058861566
-0.0003368215
0.00050424336
-0.0003597194
0.00042459774
-0.00037570757
0.00034944439
-0.00038497161
0.00027846626
-0.00038776332
0.00021144969
-0.00038433334
0.00014848185
-0.00037483229
8.9302345e-05
-0.00035956219
3.4072652e-05
-0.00033886674
-1.7143229e-05
-0.00031315234
-6.4211395e-05
-0.00028267581
-0.00010702933
-0.00024790719
-0.00014529422
-0.00020917173
-0.00017874826
-0.00016732716
-0.00020815553
-0.00012253835
-0.00022938418
-0.00025356274
-3.1609063e-05
0.00025066314
-5.047664e-05
0.00025211217
-6.9675661e-05
0.00025407383
-8.9305433e-05
0.0002560517
-0.00010935782
0.00025833657
-0.00012989777
0.00026068267
-0.00015093584
0.00026299628
-0.00017248673
0.00026511459
-0.00019451889
0.00026689685
-0.00021698245
0.0002681346
-0.00023981726
0.00026869967
-0.00026292992
0.00026841867
-0.00028620672
0.00026712532
-0.00030951508
0.00026466295
-0.00033266532
0.00026086641
-0.00035547213
0.00025560507
-0.00037769072
0.00024877517
-0.00039906658
0.00024027099
-0.00041930334
0.00023006693
-0.00043808867
0.00021816
-0.00045509487
0.00020462309
-0.0004699691
0.00018960668
-0.00048235122
0.00017334599
-0.00049186823
0.00015611388
-0.00049815451
0.00013832178
-0.00050079652
0.00012046082
-0.00049935883
0.00010314789
-0.00049337414
8.7170405e-05
-0.0004824307
7.3683193e-05
-0.00046628424
6.4405066e-05
-0.00044519224
6.177633e-05
-0.00042007339
6.879364e-05
-0.00039288986
8.913913e-05
-0.00036683396
0.00012667632
-0.00034644765
0.00018500491
-0.00033732864
0.00026652184
-0.00034594166
0.0003721743
-0.00037919289
0.00050104674
-0.00044319058
0.000649297
-0.0005403907
0.00080851719
-0.00066637692
0.00096585669
-0.0008162396
0.001114724
-0.0010168423
0.0012982876
-0.0013364079
0.0016498854
-0.0016785188
0.0021000779
-0.0014877448
0.0016913718
-9.2834913e-05
-0.0012069461
0.0012646477
-0.005543524
0.0011471365
-0.0057754058
0.0014137384
-0.00665047
0.0023329276
-0.0092603017
0.0040130566
-0.012213011
0.0059636028
-0.01343903
0.0076840662
-0.012992532
0.0090221439
-0.011700253
0.010053779
-0.010066616
0.011107459
-0.0083141573
0.012101581
-0.0055516716
0.012481664
-0.0013093245
0.012011752
0.0034156852
0.010906221
0.0073552233
0.0096258268
0.010100811
0.0079277056
0.011287442
0.0059048245
0.010235672
0.0043016592
0.0079402061
0.0029873578
0.0059682926
0.0021764072
0.0046238734
0.0016718294
0.0039699494
0.0012980086
0.003563759
0.0010017444
0.0031781376
0.00076628119
0.0028214778
0.00057616976
0.002513563
0.00041868638
0.0022478914
0.00028543104
0.0020150204
0.00017087022
0.0018088165
7.1113109e-05
0.0016248824
-1.6759472e-05
0.0014597086
-9.4326875e-05
0.0013096201
-0.00016282449
0.0011723643
-0.00022345774
0.0010460863
-0.0002758293
0.00092842021
-0.0003214352
0.00081941455
-0.00035990887
0.00071688318
-0.00039163965
0.00062034416
-0.00041658331
0.00052918492
-0.00043491155
0.00044292738
-0.00044665209
0.00036118977
-0.00045188879
0.00028370274
-0.00045080214
0.0002103622
-0.0004434232
0.00014109522
-0.00042998622
7.586316e-05
-0.00041070806
1.4798297e-05
-0.00038585649
-4.1987595e-05
-0.00035576521
-9.4299846e-05
-0.0003208726
-0.0001419197
-0.0002813517
-0.00018481417
-0.00023774979
-0.00022235633
-0.0001911283
-0.0002547743
-0.00014066499
-0.00027984741
-0.0003064306
-3.0268437e-05
0.00026873263
-4.8730205e-05
0.00027057914
-6.7626694e-05
0.00027296586
-8.7047029e-05
0.0002754724
-0.00010699979
0.0002782929
-0.00012758958
0.00028127006
-0.00014881758
0.00028422232
-0.0001706967
0.00028699472
-0.0001932056
0.0002894047
-0.00021631135
0.00029123982
-0.00023993926
0.00029232854
-0.00026400875
0.00029248491
-0.00028839401
0.00029150612
-0.0003129396
0.0002892103
-0.0003374699
0.00028540002
-0.00036176499
0.00027989806
-0.00038555125
0.00027255932
-0.00040852521
0.00026324825
-0.00043034526
0.00025188892
-0.00045064485
0.00023845427
-0.00046903937
0.00022301087
-0.00048509617
0.00020566152
-0.00049836705
0.00018661651
-0.00050842461
0.00016616874
-0.00051476036
0.00014465538
-0.00051681039
0.00012251209
-0.00051392243
0.00010026128
-0.00050530477
7.8550818e-05
-0.00049000933
5.8385083e-05
-0.00046714078
4.1536872e-05
-0.00043639159
3.1029057e-05
-0.00039806351
3.0465239e-05
-0.00035406761
4.5141428e-05
-0.00030775612
8.0365314e-05
-0.00026446699
0.00014171814
-0.00023120578
0.00023326138
-0.00021668672
0.00035765442
-0.00023088487
0.00051524438
-0.00028237497
0.0007007867
-0.00037302083
0.00089916201
-0.00049310711
0.0010859412
-0.00064379455
0.0012654092
-0.00086616732
0.0015206585
-0.0011545577
0.0019382752
-0.0012016217
0.0021471424
-0.0005008158
0.00099056659
0.0011333694
-0.0028411308
0.0014917084
-0.0059018624
0.0014338117
-0.0057175082
0.0017558926
-0.0069725488
0.0023999609
-0.0099043694
0.0038223041
-0.013635356
0.0053238288
-0.014940557
0.0065354986
-0.014204202
0.0072860878
-0.012450845
0.0078482477
-0.010628781
0.0089110479
-0.0093769613
0.0096554319
-0.0062960554
0.0098207142
-0.001474605
0.0093473029
0.0038891
0.0083849282
0.0083176014
0.0072646823
0.011221059
0.005931195
0.012620928
0.004572038
0.011594829
0.0034496261
0.009062619
0.0023787343
0.0070391858
0.0016556369
0.0053469708
0.001201051
0.0044245335
0.00088793972
0.0038768713
0.00064881731
0.0034172618
0.00046070987
0.0030095855
0.00030983277
0.0026644389
0.00018477757
0.0023729456
7.8294229e-05
0.0021215036
-1.4136842e-05
0.0019012487
-9.5301955e-05
0.0017060513
-0.00016783129
0.0015322406
-0.00023233319
0.0013741223
-0.00028993987
0.0012299699
-0.00034087214
0.0010970182
-0.00038600324
0.0009735538
-0.00042445787
0.00085786787
-0.00045677728
0.00074920125
-0.00048301577
0.00064658537
-0.00050307676
0.00054925166
-0.00051679871
0.00045665502
-0.0005243
0.00036869371
-0.000525346
0.00028475256
-0.00052006629
0.00020508255
-0.00050855479
0.00012958759
-0.0004910147
5.832407e-05
-0.00046745892
-8.7600744e-06
-0.00043815888
-7.1286455e-05
-0.00040340288
-0.0001290544
-0.00036350456
-0.00018182335
-0.00031893696
-0.0002293887
-0.00026998829
-0.0002713061
-0.00021781005
-0.00030695279
-0.00016123199
-0.00033642057
-0.00036518627
-2.8620945e-05
0.00028621148
-4.6569204e-05
0.00028852502
-6.5063893e-05
0.00029146069
-8.4172979e-05
0.00029458474
-0.00010401856
0.00029813622
-0.00012463839
0.00030188811
-0.00014605551
0.00030564044
-0.00016828371
0.00030922186
-0.00019131352
0.00031243375
-0.0002151097
0.0003150364
-0.00023962223
0.00031683719
-0.00026475115
0.00031760849
-0.0002903801
0.00031713592
-0.00031635262
0.00031518598
-0.00034247359
0.00031151904
-0.0003685012
0.00030592309
-0.00039413532
0.00029819657
-0.00041902812
0.00028814432
-0.00044279598
0.00027565316
-0.00046499838
0.00026065056
-0.00048515948
0.00024317035
-0.00050280372
0.00022330664
-0.0005174213
0.00020123272
-0.00052847028
0.00017721576
-0.00053538457
0.0001515706
-0.00053749287
0.00012462212
-0.00053391058
9.6678041e-05
-0.00052346796
6.8106366e-05
-0.0005046024
3.9520469e-05
-0.00047524814
1.218546e-05
-0.00043445669
-9.7611998e-06
-0.00038094604
-2.304655e-05
-0.00031679712
-1.9008739e-05
-0.0002450671
8.6354104e-06
-0.00017207192
6.8723299e-05
-0.00010642219
0.00016761054
-6.0067486e-05
0.0003112979
-4.7153818e-05
0.00050232963
-8.0721098e-05
0.0007343532
-0.00016721725
0.00098565728
-0.00029729537
0.0012160188
-0.00049111336
0.0014592268
-0.00078655704
0.0018161016
-0.001042185
0.0021939038
-0.00079383721
0.0018987963
0.0002756632
-7.893183e-05
0.0015189992
-0.0040844654
0.0021227396
-0.0065056008
0.0021007878
-0.0056955545
0.0020817245
-0.0069534843
0.0022914359
-0.010114081
0.0031724668
-0.014516387
0.0041229708
-0.015891061
0.0047358452
-0.014817079
0.0054003465
-0.013115351
0.0059980867
-0.011226524
0.0066434959
-0.010022371
0.006628439
-0.0062809974
0.006207829
-0.001053994
0.0055475532
0.0045493779
0.004777877
0.0090872811
0.0040553909
0.011943545
0.0031995721
0.013476746
0.0026156825
0.01217872
0.0019237127
0.0097545885
0.0013290393
0.0076338589
0.00087870852
0.005797302
0.00058756586
0.0047156784
0.00038852784
0.0040759112
0.00023653819
0.0035692555
0.00011509185
0.0031310317
1.5611192e-05
0.0027639187
-6.9880201e-05
0.0024584332
-0.00014425765
0.0021958803
-0.00021102776
0.0019680194
-0.00027199267
0.0017670171
-0.00032711904
0.0015873653
-0.00037757006
0.0014245771
-0.00042377656
0.0012761794
-0.00046509396
0.0011383367
-0.00050163488
0.0010100948
-0.00053325959
0.0008894908
-0.00055976209
0.00077570331
-0.00058060993
0.00066743395
-0.00059580656
0.00056444813
-0.00060507124
0.00046592285
-0.00060805373
0.0003716718
-0.00060493322
0.00028162964
-0.00059555775
0.00019570314
-0.00057989861
0.0001139258
-0.0005579545
3.6380448e-05
-0.00052989367
-3.6821951e-05
-0.00049586911
-0.00010531358
-0.0004560964
-0.00016882615
-0.00041091098
-0.0002270064
-0.00036069952
-0.00027960409
-0.00030585356
-0.00032615275
-0.00024725695
-0.00036555198
-0.00018426555
-0.00039940863
-0.00043063126
-2.6609649e-05
0.00030293
-4.3892739e-05
0.00030581264
-6.1881896e-05
0.00030945351
-8.0647025e-05
0.00031334698
-0.00010030352
0.00031779191
-0.00012089485
0.00032248075
-0.00014248009
0.00032722454
-0.00016506832
0.00033180951
-0.00018864518
0.00033601109
-0.00021320115
0.00033958849
-0.00023867158
0.00034230216
-0.00026497827
0.00034391582
-0.00029200628
0.00034416727
-0.00031959445
0.00034277255
-0.00034754205
0.00033946386
-0.00037557608
0.00033396013
-0.0004033752
0.00032600007
-0.00043056317
0.0003153304
-0.00045667753
0.00030176237
-0.00048121273
0.0002851846
-0.00050360983
0.00026556936
-0.00052330803
0.0002430045
-0.00053974897
0.00021767154
-0.00055237305
0.00018983997
-0.00056057835
0.00015977769
-0.00056360483
0.00012764846
-0.00056047297
9.3544588e-05
-0.0005496621
5.7296324e-05
-0.00052879815
1.8660218e-05
-0.00049444547
-2.2164686e-05
-0.00044317525
-6.1032275e-05
-0.00037398128
-9.2242495e-05
-0.00028689291
-0.00010609787
-0.00018447949
-9.3778014e-05
-7.4366616e-05
-4.1390108e-05
3.6259288e-05
5.6982892e-05
0.00012975623
0.00021779859
0.00018051809
0.00045156693
0.00016660592
0.00074826694
7.710277e-05
0.0010751622
-9.2030095e-05
0.0013851518
-0.00038325347
0.0017504497
-0.00077084271
0.002203691
-0.00094845833
0.002371521
-0.00049836046
0.0014486998
0.00048193324
-0.0010592238
0.0012588162
-0.0048613447
0.0024769672
-0.0077237478
0.0023029888
-0.005521576
0.0019541378
-0.0066046357
0.0018502489
-0.010010193
0.0022072332