/*--------------------------------*- C++ -*----------------------------------*\
  =========                 |
  \\      /  F ield         | OpenFOAM: The Open Source CFD Toolbox
   \\    /   O peration     | Website:  https://openfoam.org
    \\  /    A nd           | Version:  9
     \\/     M anipulation  |
\*---------------------------------------------------------------------------*/
FoamFile
{
    format      ascii;
    class       volScalarField;
    location    "0.85";
    object      p;
}
// * * * * * * * * * * * * * * * * * * * * * * * * * * * * * * * * * * * * * //

dimensions      [1 -1 -2 0 0 0 0];

internalField   nonuniform List<scalar> 
10000
(
0
0.0059334242
0.022701015
0.048594878
0.08343494
0.12734227
0.17995296
0.24102898
0.31019719
0.38710689
0.47132299
0.56236464
0.65973835
0.76285967
0.87114173
0.98396473
1.1006598
1.2205869
1.3430952
1.4675236
1.5932752
1.719838
1.8468921
1.9737683
2.1004743
2.2267518
2.3526268
2.4782351
2.6038103
2.7296572
2.8561317
2.9835638
3.1121561
3.2419051
3.3725393
3.5034291
3.6334725
3.7609466
3.8832416
3.9966428
4.096691
4.1789065
4.2392568
4.2742731
4.2813973
4.2632075
4.2325967
4.1948875
4.1292605
3.9717871
3.674983
3.4351432
3.1938861
3.0659586
2.9413156
2.7882863
2.4311535
1.9818615
1.4750057
1.155423
1.0024659
0.89208549
0.76197253
0.60512121
0.42927659
0.23507202
0.029318725
-0.18095975
-0.39200754
-0.60043224
-0.80313235
-0.99798232
-1.1835432
-1.3588382
-1.5232961
-1.6766061
-1.8186777
-1.9495713
-2.0694264
-2.1784898
-2.277112
-2.3655646
-2.4443565
-2.513868
-2.5742849
-2.626016
-2.6698946
-2.7067685
-2.7373614
-2.7624235
-2.7824403
-2.7978569
-2.8091704
-2.8175175
-2.8227936
-2.8254666
-2.8258855
-2.8247199
-2.8224779
-2.8148178
-0.0037953195
0.001950771
0.018726424
0.04455026
0.079388509
0.12327655
0.17594747
0.23705934
0.30632315
0.38335691
0.46772142
0.55897761
0.6565761
0.75996775
0.86856698
0.98170449
1.0987302
1.2189727
1.3417242
1.4663338
1.5922069
1.7187697
1.8455767
1.971858
2.0978322
2.2231284
2.3478192
2.4720679
2.5961717
2.7205735
2.8458014
2.9723725
3.1007239
3.2310993
3.3633733
3.4969212
3.6304881
3.7619977
3.8884098
4.0056748
4.108939
4.1931346
4.2537174
4.2868402
4.2884624
4.2588919
4.2197654
4.2007699
4.1831428
4.0239592
3.6077806
3.2574092
2.7057795
2.5987188
2.500593
2.4273911
2.1022882
1.7560021
1.1512468
0.87430413
0.71917033
0.61451518
0.49748046
0.35387721
0.19963269
0.028209801
-0.15409154
-0.34167434
-0.53153239
-0.72051011
-0.90606698
-1.0862252
-1.2592843
-1.4239772
-1.5794562
-1.7251351
-1.8606531
-1.985875
-2.10077
-2.2054772
-2.3002062
-2.3852187
-2.46086
-2.5274913
-2.5854765
-2.6352714
-2.6775304
-2.7129594
-2.7422108
-2.7658877
-2.7847123
-2.7992362
-2.8099553
-2.8174126
-2.822035
-2.8241772
-2.8241467
-2.8226078
-2.8200627
-2.8120798
-0.018417743
-0.012635556
0.0042154571
0.030238226
0.065333024
0.10961745
0.16272884
0.22439769
0.29429844
0.37203255
0.45720652
0.54931911
0.64785426
0.75224525
0.86185133
0.9760217
1.0940652
1.2152666
1.3389193
1.4643371
1.590839
1.717801
1.8447006
1.9709265
2.0962883
2.220686
2.3441499
2.4668663
2.5892374
2.7118751
2.8355316
2.9610125
3.0890949
3.220376
3.3550431
3.4926913
3.6321371
3.7711373
3.9062165
4.0327043
4.1448537
4.2362928
4.3010985
4.3344943
4.3281861
4.2692739
4.195915
4.203366
4.3357273
4.1556915
3.5795244
3.110174
2.9821874
2.9511454
1.9903458
1.8964153
1.577677
1.9683747
1.6868514
1.1452534
0.55263856
0.42888459
0.31913277
0.16109204
0.0050239021
-0.16084389
-0.32904045
-0.4990454
-0.67174538
-0.8448596
-1.016101
-1.1835314
-1.3453241
-1.5000803
-1.6468045
-1.7847753
-1.913479
-2.0326569
-2.1421811
-2.2420121
-2.3323138
-2.4133219
-2.4853317
-2.5486961
-2.6038441
-2.6512367
-2.6914311
-2.7250551
-2.7527353
-2.7750959
-2.7927642
-2.8062271
-2.8160733
-2.8225197
-2.8261168
-2.8272998
-2.826465
-2.8242811
-2.8212523
-2.8127324
-0.043901879
-0.038092578
-0.021003641
0.0053437751
0.040964624
0.08585788
0.13973569
0.20231025
0.27323288
0.35214882
0.43861607
0.53215794
0.63225016
0.73829006
0.84962504
0.96556772
1.0853822
1.2083239
1.3336475
1.4605822
1.5883709
1.716318
1.8438262
1.970284
2.0951743
2.2186465
2.3406191
2.4613336
2.5813196
2.7013847
2.8225791
2.9461201
3.0732652
3.2051375
3.3424649
3.4852962
3.6327052
3.7824087
3.9305099
4.0714842
4.1981821
4.3020416
4.3746195
4.4098093
4.3924043
4.2685865
4.0658577
4.265807
5.0400817
5.0623064
4.5553315
3.5376147
1.9981744
0.92942855
0.78766809
0.83784018
0.75004929
0.64742464
-0.40416584
-0.23517426
-0.22583979
-0.2082528
-0.24049132
-0.22970441
-0.28370155
-0.39752061
-0.53429014
-0.67774254
-0.82639078
-0.97970052
-1.1353416
-1.2900445
-1.4410738
-1.5865678
-1.72518
-1.8559027
-1.9780523
-2.0912366
-2.1952384
-2.289956
-2.3755226
-2.452138
-2.5200799
-2.5797025
-2.6314487
-2.6757768
-2.713202
-2.7443155
-2.7696898
-2.7898883
-2.805496
-2.8169911
-2.8249967
-2.8298989
-2.8321319
-2.8321131
-2.8302451
-2.827194
-2.8235177
-2.8143289
-0.078116944
-0.072266461
-0.054951158
-0.02813738
0.0081001588
0.053810767
0.10868888
0.17242533
0.24472369
0.32519115
0.41339665
0.50887651
0.61106819
0.71934995
0.83305347
0.95144384
1.073749
1.1991771
1.3268943
1.4560344
1.5857594
1.7152662
1.8438417
1.9709057
2.0953823
2.217863
2.3379995
2.4561154
2.572859
2.6892642
2.8067582
2.92709
3.0521731
3.1839031
3.3238624
3.4728815
3.6305487
3.794737
3.9611891
4.12334
4.2721687
4.3960856
4.482467
4.5203075
4.489299
4.2649249
3.8148226
4.8477469
5.164949
4.989078
3.8889543
2.1474325
0.85191839
-0.055290834
-0.59920113
-0.96903118
-1.3169403
-1.439645
-1.1490498
-1.094495
-2.1037246
-1.1668523
-0.99718634
-0.94728713
-0.73283846
-0.71081408
-0.79040587
-0.89903006
-1.0167876
-1.1439978
-1.279818
-1.4191796
-1.5576715
-1.6925838
-1.8220284
-1.9444939
-2.0591044
-2.1652878
-2.2627401
-2.3513698
-2.4312355
-2.5024984
-2.5654317
-2.620406
-2.6678428
-2.7082102
-2.7420057
-2.7697778
-2.7920677
-2.8094513
-2.822441
-2.8316126
-2.8374259
-2.8403581
-2.8408368
-2.8392875
-2.8360841
-2.8319629
-2.8274054
-2.817372
-0.12219254
-0.116277
-0.098558674
-0.071157224
-0.034119372
0.012615247
0.068736969
0.13398367
0.20802416
0.29047805
0.38093636
0.47889722
0.58378902
0.69498402
0.81177068
0.93337584
1.0589919
1.1877345
1.3186625
1.4508361
1.5832824
1.7150411
1.8452525
1.9731667
2.0980055
2.2191677
2.3370774
2.4518844
2.5642907
2.6755837
2.7876403
2.9028633
3.0240373
3.1541452
3.2960143
3.4517198
3.6218729
3.8048975
3.9963585
4.1885299
4.3701392
4.5262651
4.6392046
4.6900187
4.6617458
4.394215
3.8431304
4.6584153
4.6972783
3.9871439
3.5478935
2.0650785
0.22502039
-1.3543836
-2.5365466
-3.7738516
-4.6012401
-4.8412919
-5.007075
-4.5537343
-3.9167139
-3.1515833
-2.2831059
-1.8049555
-1.248858
-1.0632245
-1.0736149
-1.1464245
-1.2341064
-1.3336981
-1.4477254
-1.5702633
-1.6949457
-1.8180633
-1.9373112
-2.0503511
-2.1562299
-2.2542505
-2.344056
-2.4255024
-2.4986231
-2.5635626
-2.620587
-2.6700713
-2.7124241
-2.7481095
-2.7776092
-2.8014109
-2.8200352
-2.8340421
-2.8439353
-2.8502138
-2.853361
-2.8538831
-2.8522119
-2.8487672
-2.8439222
-2.8384601
-2.8327865
-2.8217114
-0.1763318
-0.17027168
-0.15212364
-0.12401994
-0.085989189
-0.038025701
0.019629115
0.086701738
0.16285593
0.24774983
0.34094828
0.44194309
0.55017018
0.66496748
0.78559551
0.91125114
1.0410466
1.1740007
1.309085
1.4452295
1.5812991
1.7161716
1.848795
1.9782284
2.1037054
2.2234398
2.3388538
2.4495556
2.5562641
2.6605409
2.7647663
2.8721122
2.9864711
3.1122861
3.2541386
3.4160098
3.6002935
3.8066642
4.0308742
4.2640384
4.4922799
4.6971305
4.8572112
4.9484464
4.9695606
4.7553319
4.5643896
4.3463063
4.4744933
4.5360643
3.666565
1.9579273
-0.36834652
-2.6514431
-4.8788935
-5.7825792
-5.6247012
-7.2965112
-8.1635611
-7.5557261
-6.5248913
-5.5946358
-4.1076583
-2.7553553
-1.8214384
-1.4326764
-1.3660387
-1.4042041
-1.4652045
-1.539509
-1.6325441
-1.7385457
-1.8493142
-1.9600454
-2.069001
-2.171575
-2.2678745
-2.3569054
-2.4382049
-2.5116177
-2.577165
-2.63498
-2.6853393
-2.7286089
-2.7651874
-2.7954983
-2.8200167
-2.8391934
-2.8535539
-2.8635871
-2.8697957
-2.8726715
-2.8726901
-2.8703726
-2.8661558
-2.8604211
-2.8536281
-2.8465535
-2.8395106
-2.827193
-0.2407356
-0.23455968
-0.21587481
-0.18694025
-0.14778931
-0.098364817
-0.038932039
0.030236462
0.10891439
0.1966801
0.29311641
0.3977295
0.50993667
0.62906252
0.75434767
0.88493205
1.0198429
1.1580253
1.2983352
1.4395341
1.5803172
1.7193577
1.8553294
1.9869851
2.1131726
2.2328893
2.3449685
2.4506761
2.5500469
2.6448835
2.7380891
2.833686
2.936898
3.0540315
3.1920825
3.3578816
3.5567468
3.790737
4.0566088
4.3443094
4.6366513
4.9101914
5.1383491
5.2918796
5.387706
5.3017796
5.4217293
5.122787
4.8055767
4.4279094
3.6429705
2.1814134
0.83250962
-0.38379638
-4.8224279
-9.2380017
-11.655189
-12.368432
-12.564726
-11.373012
-9.5845319
-8.2921095
-6.3302656
-4.1672063
-2.6026942
-1.8702697
-1.6763594
-1.670667
-1.7055746
-1.757713
-1.8320742
-1.9228795
-2.0202304
-2.1190362
-2.2158575
-2.3079267
-2.3940334
-2.4733047
-2.5452883
-2.609813
-2.6669258
-2.7168035
-2.7597144
-2.7959932
-2.8260485
-2.8502828
-2.8691314
-2.8830337
-2.8924856
-2.8979581
-2.8999355
-2.8988894
-2.8953302
-2.8897117
-2.8825182
-2.8741317
-2.8650368
-2.8560666
-2.8474018
-2.8335685
-0.31575106
-0.30941616
-0.29012705
-0.26027061
-0.21982267
-0.16875212
-0.10730013
-0.035688508
0.045807845
0.13688773
0.23708182
0.34589136
0.46274207
0.58696071
0.71775419
0.85419821
0.99526644
1.1398167
1.2865655
1.4340916
1.5808902
1.7253813
1.8659235
2.000878
2.1287229
2.2481035
2.3579463
2.4575198
2.5476374
2.6300309
2.7081295
2.7867619
2.8726173
2.9743049
3.1020543
3.2668322
3.4785075
3.7432408
4.0602392
4.4189615
4.7974044
5.1653272
5.4790616
5.7090511
5.8805038
5.9524784
6.1519807
5.7520937
5.1351461
4.6572452
4.9118157
3.0803901
1.1438152
-1.8529149
-9.1196685
-11.87528
-14.500867
-16.713766
-16.331333
-14.356093
-12.063692
-10.124094
-8.8008949
-5.8451546
-3.5361874
-2.3791374
-1.9981725
-1.9459616
-1.956036
-1.9886081
-2.047375
-2.1241559
-2.2084334
-2.2949332
-2.3797071
-2.4602686
-2.5352145
-2.6037258
-2.6653946
-2.7200794
-2.7678448
-2.8088975
-2.8435023
-2.8719984
-2.8947717
-2.9122299
-2.92474
-2.9327442
-2.9367018
-2.9370638
-2.9342939
-2.9288314
-2.9212053
-2.911861
-2.9012541
-2.889817
-2.8780237
-2.8668046
-2.8562867
-2.8406338
-0.40170233
-0.3952067
-0.37527171
-0.34436208
-0.3024943
-0.24960241
-0.18588139
-0.1115549
-0.026857678
0.067907657
0.17237955
0.28595464
0.40813216
0.53822769
0.67541315
0.81873563
0.96711196
1.1192926
1.2738497
1.4291945
1.5835713
1.7350977
1.8817777
2.0215247
2.152289
2.2722098
2.3797383
2.4732237
2.5520825
2.6183721
2.676389
2.7313298
2.7912703
2.8674751
2.9743217
3.1286155
3.3472327
3.6431957
4.0206162
4.471114
4.9599775
5.44181
5.8873211
6.2014502
6.4346391
6.5797455
6.6223291
6.3282052
5.5207219
7.589266
5.1495962
3.1997619
0.13072688
-4.7258852
-11.1618
-15.382034
-18.450318
-19.906443
-19.382317
-16.484966
-13.648963
-12.886768
-10.653359
-7.1895444
-4.3235245
-2.8832178
-2.2922984
-2.2396799
-2.2188035
-2.2347003
-2.2803266
-2.3439035
-2.4153258
-2.4889741
-2.5608907
-2.6288176
-2.6914459
-2.7480464
-2.7982985
-2.842124
-2.8795893
-2.9109179
-2.9363998
-2.9563755
-2.9711502
-2.9811255
-2.9866858
-2.9882215
-2.9861466
-2.9808391
-2.9727772
-2.9624402
-2.950254
-2.9366909
-2.9222209
-2.9072977
-2.8924299
-2.878665
-2.8660016
-2.8481114
-0.49898728
-0.49233149
-0.47167372
-0.43964121
-0.39623869
-0.34135109
-0.27516594
-0.19786644
-0.1096386
-0.010753551
0.09848725
0.21734786
0.34553387
0.48230318
0.62682122
0.77812051
0.93504588
1.0962459
1.2601704
1.4250467
1.5888578
1.7493714
1.9041796
2.0506826
2.18617
2.3080471
2.4139489
2.5020021
2.5682951
2.6135354
2.6459901
2.668991
2.691688
2.7281325
2.7977031
2.9255365
3.139331
3.4627764
3.9064256
4.4790822
5.1243575
5.7796734
6.3934441
6.7760112
7.0384405
7.2527914
7.1754321
6.9288131
5.9204852
6.3106378
5.7354901
3.8461521
-1.2939229
-5.9424274
-12.057621
-17.158668
-20.809594
-22.519084
-22.015967
-19.843995
-17.294317
-14.975142
-11.649746
-8.008424
-4.5254037
-2.5591717
-2.6745981
-2.5518586
-2.4976198
-2.4992761
-2.5337482
-2.5845044
-2.6423567
-2.7019048
-2.759632
-2.8135533
-2.8625555
-2.9060283
-2.9436988
-2.9755748
-3.001778
-3.0225294
-3.0381176
-3.0488203
-3.0549303
-3.0568177
-3.0548269
-3.0493127
-3.0406288
-3.0291968
-3.0153808
-2.9996378
-2.9823995
-2.9641218
-2.9453434
-2.9265192
-2.9081325
-2.8914533
-2.8763431
-2.855804
-0.60801449
-0.60117304
-0.57976423
-0.54654365
-0.50149716
-0.44449437
-0.37567513
-0.29516668
-0.20313104
-0.099835547
0.014338455
0.13931599
0.27423863
0.41850668
0.57134537
0.73176354
0.8985601
1.0703135
1.2453569
1.4217237
1.5971426
1.769024
1.9344763
2.0903071
2.2330253
2.3590544
2.4648962
2.5475859
2.6058364
2.6198008
2.6225873
2.6039534
2.5748648
2.5518455
2.5591467
2.6322934
2.8161627
3.154295
3.6766426
4.4013981
5.2619029
6.1591725
7.0156265
7.5299115
7.7750946
8.0328579
7.7521761
7.7347572
6.9363323
4.9069495
4.4060583
1.999998
-0.67132737
-6.2993727
-11.809887
-17.049723
-21.02887
-23.022477
-22.794724
-20.782016
-18.150856
-15.364598
-11.97333
-7.7947775
-3.2022649
-3.2260632
-2.9997217
-2.8460433
-2.7971631
-2.790704
-2.8126334
-2.8487787
-2.8910083
-2.9344939
-2.9762358
-3.0144992
-3.0483498
-3.0773037
-3.1011784
-3.1200405
-3.1340454
-3.1433642
-3.148284
-3.149039
-3.1458729
-3.1391043
-3.1289947
-3.115917
-3.1001568
-3.0820573
-3.0620007
-3.0403637
-3.017602
-2.994182
-2.9706597
-2.9474355
-2.9250862
-2.9051331
-2.8871577
-2.8635076
-0.72917132
-0.72216955
-0.69998556
-0.66551705
-0.61877294
-0.55955866
-0.4879523
-0.4040509
-0.3079647
-0.19988284
-0.080060325
0.051207942
0.19346838
0.34603599
0.508159
0.67886365
0.8569347
1.0409108
1.2290089
1.419093
1.6086461
1.7947327
1.9739537
2.1424446
2.2958308
2.4293008
2.5376723
2.615585
2.6579607
2.6592727
2.6171651
2.5447354
2.4461907
2.3380888
2.2470324
2.2192877
2.3276896
2.6516126
3.2574192
4.17768
5.3340813
6.5703873
7.8802578
8.5943747
8.7903583
8.7783297
8.521294
8.7063478
8.3948419
7.1667885
7.0378863
3.4734336
0.48350971
-5.231799
-10.063887
-14.894679
-18.942581
-21.178365
-21.426028
-19.90839
-17.461748
-14.675192
-11.477521
-6.6086811
-3.8447847
-3.6822176
-3.3719227
-3.200895
-3.1396341
-3.1164933
-3.1210317
-3.1388382
-3.1623671
-3.1871877
-3.2106697
-3.2313207
-3.2483239
-3.2612968
-3.2701529
-3.2749419
-3.2758106
-3.2729125
-3.2664499
-3.2566025
-3.2435805
-3.2276263
-3.2089666
-3.1878768
-3.1645809
-3.1393788
-3.1126355
-3.0846792
-3.0559222
-3.0268769
-2.9981541
-2.9700515
-2.9432457
-2.9196147
-2.8983223
-2.871095
-0.86290736
-0.85575351
-0.83277165
-0.79706186
-0.74859441
-0.68709562
-0.61261373
-0.52519723
-0.42487629
-0.31176457
-0.18602961
-0.047909524
0.10224507
0.26385651
0.43621801
0.61839435
0.80920703
1.007172
1.2104281
1.4167099
1.6232898
1.8269035
2.0236741
2.2090586
2.3777224
2.5234707
2.6391411
2.7166401
2.7477059
2.7252344
2.6452826
2.504817
2.3172675
2.0930678
1.8548535
1.6542395
1.6051928
1.8496288
2.4990378
3.6517934
5.2672461
7.0638853
8.9665074
9.9899439
10.316393
9.9876871
9.8046806
10.024242
9.9248011
8.957573
7.5823485
6.0759033
3.2195627
-1.6969223
-6.15301
-10.953805
-14.908129
-17.302649
-17.93871
-17.039845
-15.107373
-12.652966
-9.011621
-5.9611446
-4.4793908
-4.0797824
-3.7686057
-3.6031665
-3.5212612
-3.4773197
-3.4597075
-3.4550598
-3.4563844
-3.4595479
-3.4622114
-3.4631172
-3.4615286
-3.4570879
-3.4497069
-3.4394056
-3.4262884
-3.4104465
-3.3919693
-3.3709713
-3.3476448
-3.3220952
-3.2945263
-3.2650308
-3.2338285
-3.2011602
-3.1673552
-3.1326438
-3.0974601
-3.0623773
-3.0279118
-2.9943861
-2.9626784
-2.9349386
-2.9097928
-2.8784746
-1.0096581
-1.0023729
-0.97862897
-0.94168921
-0.89149128
-0.82771146
-0.75033894
-0.65934679
-0.5546945
-0.43639726
-0.30451335
-0.15917151
-0.00064885769
0.17073798
0.35423964
0.5490647
0.75410262
0.96787865
1.1885339
1.4137259
1.6405547
1.8654976
2.0842864
2.2917472
2.4816217
2.6463112
2.7765108
2.8608542
2.8862993
2.8410352
2.7171123
2.5062542
2.2098991
1.8381782
1.3949985
0.91009704
0.53320649
0.49960415
1.0577777
2.4923134
4.8205498
7.5988611
10.258352
11.855497
12.327432
11.900031
11.665863
11.850446
11.690655
10.793483
9.5771029
9.1146781
6.2583199
1.4856794
-1.3938823
-6.505153
-9.287048
-12.393206
-13.234911
-13.124887
-11.637139
-9.7789689
-7.616689
-5.7722269
-4.9646948
-4.507607
-4.2124214
-4.0443248
-3.9382414
-3.8709473
-3.8272701
-3.7962581
-3.7718079
-3.7502632
-3.7295501
-3.7085594
-3.6866156
-3.6633426
-3.6385836
-3.6122777
-3.5844184
-3.5550059
-3.5240375
-3.491536
-3.4575805
-3.4221505
-3.3853845
-3.3472212
-3.307878
-3.2674368
-3.2262199
-3.1844122
-3.1424062
-3.1008089
-3.0601115
-3.0206278
-2.9834989
-2.9511545
-2.9215703
-2.8854907
-1.1698792
-1.1625112
-1.1380539
-1.0999144
-1.0480408
-0.982044
-0.90182575
-0.80729379
-0.69831198
-0.5747677
-0.43657584
-0.28374482
-0.11639425
0.065258964
0.26071392
0.46929261
0.68998979
0.92142593
1.1617875
1.4087477
1.6593395
1.9098462
2.15574
2.3914022
2.6097977
2.8020963
2.9570885
3.0594263
3.0884574
3.0255861
2.8575952
2.5769826
2.1571839
1.6159835
0.90239016
-0.04711123
-1.0730175
-1.7854171
-1.5274559
0.12262153
3.3116793
7.4510092
11.600889
14.114923
14.827575
14.230352
13.808502
13.888494
13.593237
12.738667
11.100404
10.49357
8.5810573
4.1032277
0.77897183
-1.9529919
-4.9433651
-7.172869
-8.3229183
-8.8058711
-8.4035196
-7.6435947
-6.7100857
-5.7893285
-5.2540465
-4.9405093
-4.6920836
-4.5201022
-4.3914294
-4.296493
-4.2221951
-4.1605572
-4.1065751
-4.0572045
-4.0105992
-3.965649
-3.9216829
-3.8782757
-3.8351382
-3.7920674
-3.7489034
-3.7055187
-3.6617854
-3.6175701
-3.5728032
-3.5274222
-3.4813558
-3.4343858
-3.3866785
-3.3382951
-3.2893951
-3.2401639
-3.1910241
-3.1425002
-3.0950616
-3.0490747
-3.0059491
-2.9684358
-2.9337237
-2.892191
-1.3440483
-1.3366221
-1.3115056
-1.2722628
-1.2188332
-1.1507305
-1.0678
-0.96986132
-0.85664506
-0.72790091
-0.58340515
-0.42299463
-0.24660405
-0.054299092
0.15383518
0.37712867
0.61482599
0.86571696
1.1281188
1.399784
1.6777986
1.9584352
2.2370237
2.5077755
2.7633039
2.993986
3.1874067
3.3243459
3.3707098
3.2984517
3.0898617
2.7348731
2.215085
1.4903402
0.4437991
-1.1959147
-3.5181127
-5.8324952
-6.7253773
-5.3245875
-1.0267579
5.5086299
11.94577
16.040762
17.361869
16.616337
16.340933
16.299425
15.79051
14.939434
13.336029
11.44448
8.9013896
6.069798
2.8061194
0.74289177
-2.0521745
-4.3554731
-6.4904003
-7.5489899
-7.7396879
-7.2032447
-6.5224802
-6.0266917
-5.7037148
-5.4461996
-5.2211709
-5.0358902
-4.8809809
-4.7523786
-4.6422122
-4.5452997
-4.4579041
-4.3775272
-4.3024896
-4.231641
-4.1642072
-4.0995891
-4.0373202
-3.9769881
-3.9182255
-3.8607049
-3.80412
-3.7482151
-3.6927043
-3.6374013
-3.582122
-3.526277
-3.4702075
-3.4138034
-3.3571175
-3.3003057
-3.2437308
-3.1879179
-3.1332801
-3.0801986
-3.0304339
-2.9871632
-2.9464358
-2.8986401
-1.5325912
-1.5251361
-1.4994509
-1.4592412
-1.404404
-1.3344033
-1.2489875
-1.1478661
-1.0306386
-0.89691231
-0.74629592
-0.57840791
-0.39292217
-0.18963515
0.031501807
0.27024698
0.52612101
0.7981326
1.084811
1.3841118
1.6932714
2.0086995
2.3258267
2.6389684
2.9410904
3.2227419
3.4721825
3.6697984
3.7520913
3.6803443
3.4359638
3.0157774
2.4070021
1.5089433
0.07349301
-2.6103408
-7.0682725
-11.886837
-14.329565
-13.385082
-7.8814959
1.3152542
10.615745
16.863781
19.017457
19.118085
20.969576
21.02068
18.630249
17.407879
15.37115
13.077751
10.210639
7.1036232
3.962171
1.0770568
-1.5260916
-3.8020519
-5.5096047
-6.5599647
-7.0662008
-7.0323173
-6.8001504
-6.5499842
-6.3013843
-6.053101
-5.8161868
-5.6004825
-5.4075837
-5.2366224
-5.0840674
-4.9467163
-4.8218754
-4.7073868
-4.601589
-4.5031681
-4.4111276
-4.3245694
-4.2427564
-4.1650044
-4.0906154
-4.0190724
-3.9498539
-3.8825164
-3.816537
-3.7514825
-3.6868707
-3.6227431
-3.5585405
-3.4942064
-3.4297504
-3.365312
-3.3011679
-3.237776
-3.1754963
-3.1147212
-3.0576812
-3.0079368
-2.9601471
-2.9051774
-1.7359118
-1.7284412
-1.7023259
-1.6612981
-1.6052847
-1.5336626
-1.4460727
-1.3421222
-1.2212867
-1.0829991
-0.92664232
-0.75158759
-0.55723176
-0.34307478
-0.10880423
0.14588504
0.42089538
0.7154601
1.0284654
1.358183
1.7021373
2.0569504
2.4183326
2.7810118
3.1391897
3.4850277
3.8109343
4.1136915
4.2563759
4.1935357
3.9137003
3.4300179
2.74519
1.7027512
-0.15441681
-3.8679007
-10.521718
-17.621772
-22.34819
-20.772776
-14.382268
-4.1773508
6.9550319
14.783834
17.884879
18.451444
21.277539
23.295362
20.804194
19.445282
17.132343
14.410966
11.164866
7.7370351
4.5164459
1.5080238
-1.1178688
-3.4222908
-5.2198597
-6.4710171
-7.1789702
-7.4150652
-7.3996127
-7.2527359
-7.0256109
-6.7582321
-6.4819515
-6.2163199
-5.9701046
-5.7459676
-5.5432157
-5.3598185
-5.1934786
-5.0420108
-4.9035151
-4.7762757
-4.6588843
-4.5500812
-4.4486847
-4.3536653
-4.2640571
-4.1790091
-4.0976914
-4.019459
-3.9435887
-3.8694155
-3.7963284
-3.7239604
-3.6519133
-3.5799319
-3.5079113
-3.43589
-3.3641087
-3.292966
-3.2226988
-3.1536594
-3.0887281
-3.0317109
-2.9755187
-2.9121461
-1.9543868
-1.9468587
-1.9204864
-1.8788586
-1.8219346
-1.7490346
-1.6597037
-1.553452
-1.4295981
-1.2873648
-1.1258879
-0.94426377
-0.74156877
-0.51692734
-0.26960587
0.00083928187
0.29569201
0.61387956
0.95494264
1.3176072
1.6997417
2.098288
2.5092905
2.9277599
3.3498325
3.7694466
4.1846308
4.6640663
4.8883392
4.8301111
4.5185612
3.9814339
3.2469689
2.1225254
-0.044172834
-4.4505191
-11.930579
-19.990006
-24.604617
-24.266256
-18.848459
-9.6691917
0.054132911
7.3697357
11.067736
14.228313
17.859085
22.95021
21.523332
20.289374
18.187364
15.51964
11.969761
7.9755147
4.0799366
1.0089783
-1.5783414
-3.8066603
-5.6226448
-6.9717766
-7.8241347
-8.2144525
-8.2890035
-8.1569056
-7.8946689
-7.5670398
-7.2198253
-6.8808083
-6.5640186
-6.2746572
-6.0132806
-5.7781519
-5.5665886
-5.3757422
-5.2030801
-5.0463049
-4.9033659
-4.7724628
-4.6519736
-4.5403767
-4.4363256
-4.3386323
-4.2461552
-4.1579509
-4.0730643
-3.9905998
-3.9097512
-3.8299332
-3.7506401
-3.6715052
-3.5922752
-3.5129378
-3.4336818
-3.3547946
-3.27628
-3.19854
-3.1251062
-3.0597715
-2.993505
-2.9202027
-2.1883099
-2.1806332
-2.154229
-2.1122425
-2.0547206
-1.9809822
-1.8904884
-1.7826234
-1.6565216
-1.5111931
-1.3455233
-1.1582863
-0.94817092
-0.71382707
-0.45391542
-0.16710307
0.1466663
0.488919
0.85931261
1.2570239
1.6804052
2.1267568
2.5924098
3.0720922
3.564489
4.0618152
4.5563341
5.2267419
5.5307511
5.5560336
5.248063
4.6980785
3.9604682
2.9089582
0.87793727
-3.1940705
-10.015374
-17.850937
-22.518077
-23.602261
-20.497454
-14.858295
-9.4675198
4.5667803
3.6219282
4.0525785
11.850033
19.43926
19.946237
19.686884
18.479566
16.420709
12.945692
8.3868528
3.7750291
0.21721554
-2.4592362
-4.6617821
-6.507848
-7.9739715
-8.9571758
-9.4046008
-9.4751899
-9.2852352
-8.924477
-8.4845728
-8.0275081
-7.5874941
-7.1811754
-6.814046
-6.4858877
-6.1937686
-5.9337727
-5.7018527
-5.4943365
-5.3080204
-5.1400225
-4.9878282
-4.8492604
-4.722272
-4.6050473
-4.4960422
-4.3937985
-4.2969279
-4.204253
-4.1146793
-4.0271213
-3.9408006
-3.8551034
-3.7695423
-3.6837431
-3.5976085
-3.5112703
-3.4248931
-3.3381573
-3.2515117
-3.1690563
-3.0941998
-3.0154568
-2.9300737
-2.4378735
-2.4299789
-2.4037141
-2.3616389
-2.3039078
-2.229882
-2.1389248
-2.0302771
-1.9029093
-1.7556194
-1.5870175
-1.3955156
-1.1793554
-0.9366667
-0.66555186
-0.36421211
-0.031251568
0.33529332
0.73575944
1.1701328
1.6373614
2.1351398
2.659803
3.203166
3.7631589
4.3220914
4.7352957
6.6932747
6.3040494
6.0396869
5.9259978
5.5294471
4.9454585
4.1194949
2.6142956
-0.29902099
-5.3073482
-11.379178
-17.600686
-20.678606
-20.371873
-18.259135
-11.764937
8.4028531
1.1184472
-5.7018699
4.6954221
13.124553
16.811564
17.667058
17.734749
16.526868
13.479074
8.7401443
3.4685077
-0.63058595
-3.5993566
-5.9336776
-7.8821393
-9.4837492
-10.601546
-11.012214
-11.009416
-10.673084
-10.126027
-9.508297
-8.8950364
-8.3239793
-7.8091438
-7.3522925
-6.9502001
-6.5969269
-6.2863468
-6.0126832
-5.7706519
-5.5557069
-5.363957
-5.1920182
-5.0370297
-4.8963828
-4.7678034
-4.6493081
-4.539038
-4.4352793
-4.3364731
-4.2412822
-4.1484589
-4.0569458
-3.9659827
-3.8749701
-3.7834777
-3.6913299
-3.5986567
-3.5053713
-3.4108517
-3.3155912
-3.2238244
-3.1379028
-3.0433229
-2.9426175
-2.7031501
-2.6950073
-2.6689794
-2.6271289
-2.5696404
-2.4959395
-2.4053172
-2.2968884
-2.1694802
-2.0216608
-1.851732
-1.6577202
-1.4373975
-1.1883109
-0.90787771
-0.59345898
-0.24244129
0.14716937
0.57755576
1.0495332
1.5628419
2.1156522
2.704388
3.316405
3.961501
4.6561251
6.025885
12.679643
12.823633
7.55175
6.7644893
6.4532471
6.1958858
5.7261841
4.8185342
3.2572676
0.035482345
-5.8223318
-12.874862
-17.783782
-19.790438
-19.899123
-15.158354
-1.7770264
-4.9782268
-13.130134
-0.88645757
8.7977247
12.69708
14.503905
15.32355
14.773437
12.94351
8.8015907
3.0627219
-1.9854681
-5.5072578
-7.9036375
-9.8576238
-11.542595
-12.926868
-13.103678
-12.975525
-12.365724
-11.499078
-10.619286
-9.8006146
-9.0702746
-8.4304418
-7.8739062
-7.3928627
-6.9761558
-6.6145964
-6.2999069
-6.0248709
-5.7833177
-5.5700425
-5.3806911
-5.2116855
-5.0598231
-4.9222643
-4.7965831
-4.6805458
-4.572052
-4.4692332
-4.3703954
-4.2740822
-4.1789854
-4.0841609
-3.9889179
-3.8928604
-3.7958165
-3.6978552
-3.5986722
-3.4974109
-3.3945545
-3.2941332
-3.1954152
-3.0799203
-2.9588727
-2.9840622
-2.9757188
-2.9499904
-2.9086541
-2.8518757
-2.7791452
-2.6897538
-2.5827168
-2.4567144
-2.3100907
-2.1408358
-1.9465696
-1.724561
-1.4717399
-1.184709
-0.85987788
-0.49361866
-0.082491565
0.37681191
0.88649723
1.4474078
2.0582555
2.714074
3.3995959
4.1234081
4.8822405
10.05641
13.083429
13.877481
10.622912
7.5295486
7.4764735
7.727131
7.6644925
7.2310597
6.6146991
4.1293127
-2.0392133
-10.415272
-16.690027
-20.671966
-20.315377
-19.160369
-6.0886067
-17.971686
-18.298804
-7.0493215
1.4190256
7.1143456
9.6263571
11.185643
11.018809
10.046647
7.0739982
0.99583284
-6.2546802
-11.563865
-14.012872
-14.981312
-15.407783
-15.563347
-15.661376
-15.410445
-14.400469
-13.02363
-11.779079
-10.710445
-9.8000344
-9.0231932
-8.3596405
-7.7989488
-7.318912
-6.9079037
-6.554749
-6.2497555
-5.9848007
-5.7532458
-5.5496913
-5.3697537
-5.2096702
-5.0661428
-4.9362007
-4.8171862
-4.7066453
-4.6022802
-4.5021646
-4.4045435
-4.3077816
-4.2107898
-4.1128353
-4.0135324
-3.9129136
-3.8111059
-3.7075844
-3.6013932
-3.4933587
-3.38678
-3.2742477
-3.1306474
-2.9823687
-3.2804863
-3.2720602
-3.2466628
-3.205982
-3.1503357
-3.0792473
-2.9920502
-2.8877125
-2.7647729
-2.6213744
-2.4552198
-2.2635199
-2.0429977
-1.7898951
-1.4999594
-1.1685081
-0.79061068
-0.36124293
0.12447729
0.67082118
1.2805274
1.9541541
2.6868926
3.4719069
4.3191232
5.1930788
9.3225584
13.748335
14.153998
8.7947637
8.0774087
8.6497728
9.4157896
9.6855472
9.5092854
8.947432
6.5357401
-1.1984071
-11.201953
-18.752551
-25.771131
-24.900093
-24.225126
-8.0529152
-28.270313
-21.129832
-11.801965
-1.2042271
1.977002
5.174519
6.4674586
6.4136714
5.4837385
2.7735082
-4.2096977
-15.90344
-26.379469
-28.781191
-28.098297
-24.954504
-22.166973
-20.135886
-18.716828
-16.814843
-14.650912
-12.905513
-11.558161
-10.472286
-9.5647836
-8.8017206
-8.1543678
-7.6120757
-7.1553345
-6.7684151
-6.4383116
-6.1545431
-5.9089629
-5.6951652
-5.5080118
-5.3433079
-5.1973241
-5.0665884
-4.9479881
-4.8386458
-4.7358637
-4.6373022
-4.5409331
-4.4446617
-4.3474215
-4.2483882
-4.1473458
-4.0446431
-3.9407382
-3.8349838
-3.7261866
-3.6170574
-3.5106635
-3.3861464
-3.2028255
-3.0146747
-3.592423
-3.5839667
-3.5587725
-3.5187206
-3.4644897
-3.3956696
-3.3116602
-3.2114293
-3.0934229
-2.9556017
-2.7954068
-2.6096683
-2.3945533
-2.1455746
-1.8575375
-1.5245887
-1.1403027
-0.69782492
-0.19015063
0.38944542
1.0467156
1.7840458
2.593818
3.4712949
4.4279912
5.501366
6.370627
9.6194389
9.4613232
9.437982
9.6435433
10.504496
11.383256
11.624221
11.25545
10.175701
6.5158724
-4.8120579
-16.274749
-23.727873
-35.755863
-38.733233
-28.660921
-29.565229
-29.858722
-22.478942
-13.474129
-4.7492949
-1.219051
1.8113186
3.2761649
3.2167605
1.9898388
-1.7624442
-11.262544
-26.731031
-35.259636
-25.790625
-43.878548
-38.217015
-32.875543
-27.646051
-23.400973
-19.41699
-16.019962
-13.799544
-12.26169
-11.050351
-10.026931
-9.1621551
-8.4377021
-7.8383495
-7.3457541
-6.932674
-6.584336
-6.287759
-6.0333048
-5.8138396
-5.6237942
-5.4585567
-5.3141226
-5.1865909
-5.072416
-4.9681394
-4.8705756
-4.7768306
-4.6845177
-4.5915008
-4.4961565
-4.3977627
-4.2963312
-4.1928977
-4.0888387
-3.9834518
-3.875089
-3.7710898
-3.6794397
-3.5529229
-3.3059037
-3.0454387
-3.9201697
-3.9113625
-3.8859343
-3.8462006
-3.7934581
-3.7274413
-3.6476017
-3.5529722
-3.4419583
-3.3123701
-3.1614232
-2.9856223
-2.7806028
-2.5411374
-2.261076
-1.9332927
-1.5497129
-1.1014022
-0.57887009
0.02703846
0.72801282
1.528002
2.4251226
3.4215197
4.5681596
5.9079377
7.3103877
8.9830209
10.653975
11.339974
12.051517
13.053533
13.757637
13.456789
12.3052
9.7051107
4.0774207
-12.112763
-23.884917
-28.701222
-48.747357
-42.397675
-23.327397
-44.398025
-31.695888
-24.999755
-14.198172
-7.1785274
-2.8635637
0.52237849
2.0130063
1.697843
-1.247829
-7.1512946
-17.007121
-31.640981
-32.160978
-22.650126
-48.829148
-50.982019
-48.335091
-38.593772
-29.337118
-21.519253
-16.559715
-14.188854
-12.735968
-11.541807
-10.410452
-9.4427973
-8.6364638
-7.9874731
-7.4695553
-7.0406397
-6.6831099
-6.3809309
-6.1234438
-5.9032781
-5.7149135
-5.5536821
-5.4152511
-5.2955068
-5.1903316
-5.0956202
-5.0075935
-4.9227071
-4.8378853
-4.7511201
-4.6598718
-4.5636058
-4.4627188
-4.3594321
-4.2570991
-4.1556264
-4.0521495
-3.9630461
-3.9222655
-3.8476019
-3.5152436
-3.123894
-4.2645808
-4.2544188
-4.2276516
-4.1874512
-4.135934
-4.0731003
-3.9984213
-3.9109309
-3.8090841
-3.6906424
-3.5526492
-3.3913243
-3.2018582
-2.9783273
-2.7136511
-2.3994
-2.0257388
-1.581483
-1.0540381
-0.42932321
0.30361009
1.1595711
2.1423643
3.2602314
4.5808993
6.1368081
7.8945225
10.016939
12.814036
13.873897
15.151708
16.392856
16.794207
15.519147
12.853299
7.5621836
-1.4053064
-20.113286
-27.851236
-36.821438
-70.026307
-34.167658
-24.493366
-32.894605
-28.06564
-22.507727
-15.398612
-9.3129507
-3.7994443
1.8133054
3.089143