/*--------------------------------*- C++ -*----------------------------------*\
  =========                 |
  \\      /  F ield         | OpenFOAM: The Open Source CFD Toolbox
   \\    /   O peration     | Website:  https://openfoam.org
    \\  /    A nd           | Version:  9
     \\/     M anipulation  |
\*---------------------------------------------------------------------------*/
FoamFile
{
    format      ascii;
    class       surfaceScalarField;
    location    "0.85";
    object      phi;
}
// * * * * * * * * * * * * * * * * * * * * * * * * * * * * * * * * * * * * * //

dimensions      [0 3 -1 0 0 0 0];

internalField   nonuniform List<scalar> 
19800
(
2.9789179e-05
4.1476364e-05
3.9687232e-05
4.249228e-05
4.9214947e-05
4.4228364e-05
5.8385831e-05
4.6105075e-05
6.6977592e-05
4.8511001e-05
7.4952347e-05
5.1169756e-05
8.2184923e-05
5.4109078e-05
8.8558361e-05
5.7306015e-05
9.3956287e-05
6.0700506e-05
9.8242962e-05
6.4250621e-05
0.00010129763
6.7892759e-05
0.00010298005
7.1653524e-05
0.00010313934
7.5448684e-05
0.00010164364
7.9156728e-05
9.8284636e-05
8.2892303e-05
9.2897737e-05
8.6531806e-05
8.5305478e-05
9.0007425e-05
7.534839e-05
9.3248323e-05
6.2811036e-05
9.6305288e-05
4.7452921e-05
9.9021263e-05
2.8786955e-05
0.00010136206
6.1327517e-06
0.00010323807
-2.0052769e-05
0.00010535921
-4.9474254e-05
0.00010773027
-8.2036265e-05
0.00011022661
-0.00011764451
0.00011265322
-0.00015616504
0.00011487621
-0.00019740591
0.0001167338
-0.00024110252
0.00011808404
-0.0002868927
0.0001188339
-0.00033430519
0.0001189902
-0.00038275466
0.00011863317
-0.00043154526
0.00011794733
-0.00047994484
0.00011730726
-0.00052735332
0.0001171642
-0.00057345237
0.00011794687
-0.00061833609
0.00012016662
-0.00066271948
0.00012426307
-0.0007083252
0.00013044786
-0.00075807245
0.00013867487
-0.00081569894
0.00014856465
-0.00088501587
0.00015900461
-0.00096895123
0.00016730006
-0.0010687115
0.000168842
-0.0011818629
0.00015473687
-0.0012882087
9.7732944e-05
-0.0013256397
-5.2208176e-05
-0.001231622
-0.00031342208
-0.00095385431
-0.00063251045
-0.00052542466
-0.00087589917
-0.00012230065
-0.00091466622
0.00055796339
-0.0013916664
0.0014024065
-0.0017233056
0.0025294833
-0.0022275183
0.0038859585
-0.0026588846
0.0052592768
-0.0025948825
0.0062710916
-0.00194863
0.0067475813
-0.001121514
0.0066084135
-0.00024133344
0.0061860891
0.00028279468
0.0057020196
0.00056474849
0.0052174351
0.0007587523
0.0047080761
0.00094145875
0.0041865645
0.0010921191
0.0036865429
0.0011996604
0.0032239543
0.0012633152
0.0028011767
0.001285014
0.0024183531
0.0012802399
0.0020754342
0.0012598682
0.0017700567
0.001225348
0.0014980253
0.0011768932
0.0012550106
0.0011158596
0.0010371799
0.0010441003
0.00084118867
0.00096425091
0.00066423382
0.00087985765
0.00050412234
0.00079476661
0.00035924382
0.00071221486
0.00022845041
0.00063428724
0.00011090943
0.00056195154
6.0557949e-06
0.00049551188
-8.5988531e-05
0.00043434828
-0.00016580851
0.0003788738
-0.000233724
0.0003284617
-0.0002896311
0.00028258492
-0.00033388675
0.00024059576
-0.00036748889
0.00020176087
-0.00039148972
0.00016548241
-0.00040639659
0.0001313638
-0.00041229149
9.8961124e-05
-0.00041044774
6.8976339e-05
-0.00040252102
4.1339904e-05
-0.00039024655
1.6131955e-05
-0.00037430435
-6.1877504e-06
-0.00035193481
-2.6073096e-05
-0.00032140094
-4.1673554e-05
-0.00028413406
-5.444724e-05
-0.00024131036
-6.4933688e-05
-0.00019377647
-7.362975e-05
-0.00014257856
-8.0264101e-05
-8.681097e-05
3.1107129e-05
3.0617999e-05
4.164024e-05
3.195492e-05
5.1731725e-05
3.4134915e-05
6.13889e-05
3.6448986e-05
7.0370693e-05
3.9531642e-05
7.8670675e-05
4.287085e-05
8.6152692e-05
4.6628412e-05
9.2703904e-05
5.0754559e-05
9.8216901e-05
5.5185716e-05
0.0001025652
5.9902652e-05
0.00010560744
6.4852099e-05
0.00010723206
7.0031315e-05
0.00010727179
7.5412517e-05
0.00010558864
8.0842596e-05
0.00010196894
8.6514015e-05
9.6370301e-05
9.2133689e-05
8.852539e-05
9.7856536e-05
7.8234144e-05
0.00010354328
6.5298749e-05
0.00010924295
4.9450877e-05
0.00011486946
3.0314585e-05
0.00012049784
7.7616443e-06
0.00012579206
-1.8269009e-05
0.00013139337
-4.7710378e-05
0.00013717594
-8.0490854e-05
0.00014300991
-0.00011649255
0.00014865542
-0.0001555477
0.00015393088
-0.00019740031
0.00015858769
-0.0002416953
0.00016238351
-0.00028797018
0.00016511488
-0.00033562519
0.00016665026
-0.00038394342
0.00016695361
-0.00043216068
0.00016616297
-0.00047953722
0.00016467986
-0.00052547458
0.00016309897
-0.00056971983
0.00016219127
-0.00061255293
0.0001629977
-0.00065503552
0.00016674222
-0.00069933502
0.00017474419
-0.00074892485
0.00018826145
-0.00080869485
0.00020833071
-0.0008848005
0.00023510757
-0.00098402499
0.00026652588
-0.0011132998
0.00029811973
-0.0012830216
0.00032445854
-0.0015005154
0.00031522675
-0.0017013466
0.00014862665
-0.00165255
-0.00036221678
-0.0011160696
-0.0011689934
-0.00033846729
-0.0016535051
0.00023112205
-0.001484258
0.0011633664
-0.002323911
0.0020191137
-0.0025790535
0.0031806611
-0.0033890661
0.0048246557
-0.0043028811
0.0064949976
-0.0042652262
0.0077049096
-0.0031585425
0.0081943979
-0.0016110027
0.0078025593
0.0001505044
0.0070813115
0.0010040406
0.0062499312
0.0013961256
0.0054963645
0.0015123177
0.0048291289
0.0016086917
0.0042501318
0.0016711169
0.0037173637
0.0017324272
0.0032125301
0.0017681494
0.0027537451
0.0017438003
0.0023504782
0.0016835072
0.0019978947
0.0016124487
0.0016888609
0.0015343778
0.0014170341
0.0014487198
0.0011765611
0.0013563297
0.00096230159
0.0012583531
0.00076997579
0.0011565732
0.00059626124
0.0010535729
0.00043883771
0.00095219167
0.00029626356
0.0008547892
0.00016769575
0.00076285141
5.2592478e-05
0.00067705428
-4.9325534e-05
0.00059742972
-0.00013879475
0.00052381443
-0.00021592374
0.00045600184
-0.00028107474
0.00039361302
-0.00033465022
0.00033615919
-0.00037708862
0.00028303543
-0.00040902822
0.00023370207
-0.00043122359
0.00018767646
-0.00044449359
0.00014463178
-0.00044989742
0.00010436531
-0.00044782156
6.6901666e-05
-0.00043888543
3.2405603e-05
-0.00042227128
-4.8172508e-07
-0.00039958112
-2.8878301e-05
-0.00037145321
-5.4199189e-05
-0.0003372006
-7.5925939e-05
-0.00029709147
-9.4559919e-05
-0.00025177428
-0.00011025119
-0.00020199513
-0.00012341089
-0.00014867736
-0.00013358038
-0.00014363717
3.2649748e-05
1.91519e-05
4.3666203e-05
2.0936339e-05
5.4319973e-05
2.3481625e-05
6.4404333e-05
2.6365847e-05
7.38816e-05
3.0054221e-05
8.2616874e-05
3.4136058e-05
9.0501539e-05
3.8743878e-05
9.7395205e-05
4.3860229e-05
0.00010320488
4.9377447e-05
0.00010782876
5.5281066e-05
0.00011110132
6.1581788e-05
0.0001129217
6.8213861e-05
0.00011309147
7.5245218e-05
0.00011141726
8.2518849e-05
0.00010801534
8.9919312e-05
0.0001024613
9.7692341e-05
9.459555e-05
0.00010572665
8.4277977e-05
0.0001138639
7.1242171e-05
0.00012227983
5.5146694e-05
0.00013096464
3.6206214e-05
0.00013943877
1.374744e-05
0.00014825338
-1.2208089e-05
0.0001573525
-4.1461355e-05
0.00016643199
-7.428494e-05
0.00017583485
-0.00011049322
0.00018486449
-0.00014995151
0.00019339092
-0.0001924051
0.00020104526
-0.00023746558
0.00020744977
-0.00028458403
0.00021223828
-0.0003330406
0.00021510899
-0.00038198747
0.00021590083
-0.00043051353
0.00021468883
-0.00047768609
0.0002118514
-0.00052268926
0.00020810122
-0.00056510122
0.00020460334
-0.00060505392
0.00020294948
-0.00064364024
0.00020532541
-0.00068312123
0.00021422205
-0.00072739799
0.00023253658
-0.00078235468
0.0002632857
-0.00085636945
0.00030911876
-0.00095956646
0.00036972016
-0.0011069114
0.00044546587
-0.0013460472
0.00056359616
-0.0017442305
0.00071340967
-0.0020971587
0.00050155526
-0.0017516939
-0.00070768156
-0.00053164036
-0.0023890495
0.00071235417
-0.0028975024
0.0012272499
-0.0019991552
0.0018731937
-0.002969853
0.0028784726
-0.0035843316
0.004468864
-0.0049794574
0.0060803274
-0.0059143453
0.0075390031
-0.0057239024
0.0089653894
-0.0045849283
0.0099257805
-0.0025713942
0.010311195
-0.00023491249
0.0096109236
0.0017043075
0.0082924911
0.0027145539
0.0067815922
0.0030232133
0.0054123293
0.0029779513
0.0044424026
0.0026410412
0.0037719749
0.0024028569
0.0032190102
0.0023211155
0.0027219715
0.0022408397
0.0022853791
0.0021200994
0.0019100613
0.0019877634
0.0015869982
0.0018574352
0.0013066797
0.0017290345
0.0010618934
0.0016011159
0.00084660736
0.0014736348
0.0006555918
0.0013475876
0.00048478114
0.0012243864
0.00033140689
0.0011055657
0.00019378197
0.0009924158
7.0830152e-05
0.00088580353
-3.8087801e-05
0.00078596962
-0.00013360568
0.00069294655
-0.00021641693
0.00060662444
-0.0002870755
0.00052665804
-0.00034613606
0.00045267321
-0.00039413148
0.00038415578
-0.00043158358
0.00032048823
-0.00045911987
0.00026123765
-0.00047737827
0.00020593474
-0.00048700483
0.00015425609
-0.00048859967
0.00010595848
-0.00048260755
6.0911503e-05
-0.00046903989
1.8840002e-05
-0.00044980328
-1.9718729e-05
-0.00042422789
-5.4456112e-05
-0.00039268391
-8.5739852e-05
-0.00035521476
-0.00011339403
-0.00031231482
-0.00013745652
-0.00026449021
-0.00015807938
-0.00021228422
-0.00017561711
-0.0001565688
-0.00018929903
-0.00020296697
3.4260573e-05
7.1026755e-06
4.5886078e-05
9.3112619e-06
5.7062637e-05
1.2305672e-05
6.7698282e-05
1.572847e-05
7.7762032e-05
1.9989105e-05
8.6985367e-05
2.49116e-05
9.5356993e-05
3.0371174e-05
0.00010272226
3.649646e-05
0.00010897386
4.312852e-05
0.00011397658
5.0280458e-05
0.00011767676
5.7883867e-05
0.00011975251
6.6140131e-05
0.00012042071
7.4578855e-05
0.00011920943
8.3733363e-05
0.0001160033
9.313007e-05
0.00011070655
0.0001029936
0.00010311938
0.00011331714
9.2980347e-05
0.00012400453
8.0195382e-05
0.00013506495
6.4644955e-05
0.00014651532
4.5742071e-05
0.00015834335
2.3457854e-05
0.00017054034
-2.1653376e-06
0.00018297812
-3.1473254e-05
0.0001957414
-6.456945e-05
0.00020893233
-0.00010133331
0.00022163069
-0.00014171222
0.00023377359
-0.00018549183
0.00024482929
-0.00023227527
0.00025423736
-0.00028146759
0.00026143359
-0.00033224229
0.00026588485
-0.00038354337
0.00026720228
-0.00043410046
0.00026524673
-0.00048254734
0.00026029819
-0.0005276206
0.00025317266
-0.00056834933
0.00024533054
-0.00060444084
0.00023904036
-0.00063656052
0.00023744354
-0.00066684305
0.00024450169
-0.00069928568
0.0002649762
-0.00074050956
0.00030450698
-0.00079993443
0.00036854026
-0.00089102133
0.00046080367
-0.0010522337
0.00060667911
-0.0013840944
0.00089546084
-0.0019435058
0.0012728226
-0.0022494923
0.00080754078
-0.0011222432
-0.0018349324
0.00066995706
-0.0041812518
0.0019352826
-0.0041628278
0.0032263198
-0.0032901916
0.0039050039
-0.0036485361
0.0048515085
-0.0045308374
0.0061799731
-0.0063079234
0.0077761865
-0.0075105584
0.0092227551
-0.0071704704
0.010171804
-0.0055339782
0.010775434
-0.0031750286
0.01096187
-0.00042135302
0.010711072
0.0019551009
0.0094888391
0.0039367854
0.0077661065
0.0047459446
0.0059648873
0.0047791695
0.0045684665
0.00403746
0.0036596049
0.003311719
0.0030759547
0.0029047673
0.0026138092
0.0027029848
0.0021871998
0.0025467059
0.0018014359
0.0023735271
0.0014681466
0.002190724
0.001181626
0.0020155498
0.00093325302
0.0018494888
0.00071678649
0.0016901035
0.00052707533
0.0015372986
0.00035984034
0.0013916219
0.00021188244
0.0012535242
8.0984634e-05
0.0011233133
-3.4294005e-05
0.0010010814
-0.00013520898
0.00088688115
-0.00022293877
0.00078067309
-0.00029833342
0.00068201802
-0.00036209096
0.00059041598
-0.0004148974
0.00050547942
-0.000457357
0.00042661229
-0.00048991553
0.00035304531
-0.00051317742
0.00028449956
-0.00052758392
0.00022034181
-0.00053365109
0.00016032353
-0.0005318609
0.00010416823
-0.00052262639
5.1676009e-05
-0.00050687047
3.0821544e-06
-0.00048434967
-4.2236433e-05
-0.00045533326
-8.3470023e-05
-0.00042025231
-0.00012082027
-0.00037937574
-0.00015427047
-0.00033309865
-0.00018373034
-0.00028186994
-0.00020930725
-0.00022622725
-0.00023125391
-0.00016725217
-0.00024826967
-0.00026564685
3.6364193e-05
-5.7166548e-06
4.871935e-05
-3.043289e-06
6.0613524e-05
4.0960346e-07
7.1941646e-05
4.3978069e-06
8.2564699e-05
9.3632867e-06
9.2434276e-05
1.5039308e-05
0.00010135668
2.1448913e-05
0.00010933357
2.8521368e-05
0.00011614962
3.6313641e-05
0.00012168111
4.4749886e-05
0.00012575469
5.3810958e-05
0.00012853697
6.3358474e-05
0.00012943496
7.3682893e-05
0.00012879933
8.437253e-05
0.00012606569
9.5867286e-05
0.00012130603
0.00010775593
0.00011417931
0.00012044531
0.00010449227
0.00013369187
9.2275503e-05
0.00014728182
7.6937425e-05
0.00016185431
5.8410106e-05
0.00017687222
3.6511144e-05
0.0001924407
1.0945615e-05
0.00020854466
-1.8296861e-05
0.00022498484
-5.1494468e-05
0.00024213134
-8.885906e-05
0.00025899757
-0.00013032222
0.00027523967
-0.00017569073
0.00029020041
-0.00022459151
0.00030314023
-0.00027637756
0.0003132217
-0.0003300844
0.00031959294
-0.00038440248
0.00032151978
-0.00043771556
0.00031855825
-0.00048816676
0.00031074748
-0.00053383968
0.00029884299
-0.00057300083
0.00028448969
-0.00060448446
0.00027052347
-0.0006281812
0.00026113935
-0.00064551411
0.00026183142
-0.00065996232
0.00027941967
-0.00067727236
0.00032181337
-0.00070469107
0.00039595791
-0.00075946336
0.00051557658
-0.00090598095
0.00075319973
-0.0012299657
0.0012194507
-0.0015824494
0.0016253087
-0.0012747455
0.00049983605
0.00074745463
-0.0038571338
0.0025083301
-0.0059421284
0.004143818
-0.005798315
0.0055814594
-0.0047278334
0.0061369751
-0.0042040537
0.0069317601
-0.0053256256
0.0082577154
-0.0076338814
0.0098681266
-0.0091209708
0.011124586
-0.008426931
0.011733972
-0.0061433667
0.011644679
-0.0030857387
0.01149932
-0.00027599577
0.010563439
0.0028909823
0.0093775688
0.0051226575
0.0077901521
0.0063333613
0.006274282
0.0062950358
0.0047321749
0.0055795662
0.003513496
0.0045303985
0.0027830601
0.0036352045
0.0023663442
0.0031197032
0.0020032853
0.0029097636
0.0016386718
0.0027381402
0.0013085051
0.002520892
0.0010244439
0.0022996108
0.00077954736
0.0020943845
0.00056723518
0.0019024148
0.00038280798
0.0017217252
0.00022207524
0.0015523513
8.1606962e-05
0.0013939885
-4.0870984e-05
0.0012457892
-0.0001475621
0.0011077707
-0.00024028172
0.00097959699
-0.00032031172
0.00086070282
-0.00038861895
0.00075032533
-0.00044605904
0.00064785236
-0.00049308466
0.00055250404
-0.00053023535
0.00046376341
-0.00055808782
0.00038089662
-0.00057703769
0.00030344744
-0.00058748636
0.00023078822
-0.00058982835
0.00016266449
-0.00058447617
9.8818581e-05
-0.00057178293
3.8983177e-05
-0.00055195421
-1.6745104e-05
-0.00052554935
-6.8637977e-05
-0.00049269507
-0.00011632431
-0.00045370399
-0.0001598146
-0.00040884205
-0.00019913038
-0.00035854402
-0.00023402747
-0.00030346915
-0.00026437826
-0.00024392665
-0.00029079547
-0.00018088952
-0.00031130359
-0.00033242179
3.8783514e-05
-1.9399221e-05
5.2028265e-05
-1.628958e-05
6.4695908e-05
-1.2259935e-05
7.6898628e-05
-7.8082559e-06
8.8250436e-05
-1.9927154e-06
9.8856586e-05
4.4313718e-06
0.00010853107
1.177445e-05
0.00011714066
1.9911502e-05
0.00012459589
2.8857935e-05
0.00013080828
3.853681e-05
0.00013563596
4.8982454e-05
0.00013885927
6.0135505e-05
0.00014055601
7.1987845e-05
0.00014030431
8.4625981e-05
0.00013826071
9.791202e-05
0.00013386558
0.00011215167
0.00012743789
0.00012687309
0.00011856972
0.00014255994
0.000106707
0.00015914471
9.2178054e-05
0.00017638374
7.4473313e-05
0.00019457737
5.3225818e-05
0.00021368848
2.8130457e-05
0.0002336404
-1.0088069e-06
0.00025412449
-3.421085e-05
0.00027533348
-7.2140041e-05
0.00029692687
-0.00011477341
0.00031787395
-0.00016206685
0.00033749551
-0.00021371655
0.0003547916
-0.0002690778
0.0003685841
-0.00032707684
0.0003775916
-0.00038613465
0.00038057458
-0.0004441475
0.00037656708
-0.00049855418
0.00036515168
-0.00054648291
0.00034677046
-0.00058505718
0.00032306265
-0.00061184589
0.00029731068
-0.00062545305
0.00027474431
-0.00062612116
0.0002624962
-0.00061611755
0.00026941233
-0.00059844622
0.00030413968
-0.0005756435
0.00037315623
-0.00056320137
0.00050313816
-0.00061797817
0.0008079812
-0.00073523465
0.0013367121
-0.00063460768
0.0015246832
0.00058006733
-0.00071484056
0.0025009006
-0.0057779676
0.0039888571
-0.0074300856
0.0050660429
-0.0068755022
0.0065038603
-0.0061656545
0.0076077781
-0.0053079756
0.0086845206
-0.0064023708
0.010142983
-0.0090923446
0.011651258
-0.010629248
0.012740855
-0.0095165297
0.013190772
-0.0065932866
0.013266679
-0.0031616457
0.012691566
0.00029911944
0.011804273
0.0037782774
0.010480324
0.0064466054
0.0088741286
0.0079395567
0.0070850653
0.0080840969
0.0052879383
0.0073766938
0.0036273558
0.0061909821
0.0025548861
0.0047076748
0.002054177
0.0036204136
0.001737106
0.0032268341
0.0014131045
0.0030621447
0.0010995753
0.0028344221
0.00082587059
0.0025733112
0.00059125716
0.0023289946
0.00038913606
0.0021045326
0.00021505893
0.0018957983
6.4223245e-05
0.0017031838
-6.5483145e-05
0.0015236913
-0.00017777347
0.0013580766
-0.00027495637
0.0012049535
-0.00035876929
0.0010634093
-0.00043042745
0.00093236057
-0.00049106156
0.00081095776
-0.00054139476
0.00069818229
-0.00058209602
0.00059320426
-0.00061345806
0.00049512486
-0.00063607029
0.00040350839
-0.00065005109
0.00031742758
-0.00065593378
0.00023666831
-0.00065398828
0.0001607171
-0.00064440377
8.9236915e-05
-0.00062758008
2.2159021e-05
-0.00060370438
-4.062232e-05
-0.00057313382
-9.9210673e-05
-0.00053609428
-0.00015336051
-0.00049277643
-0.00020312999
-0.00044362704
-0.00024827375
-0.00038903209
-0.0002886231
-0.00032931938
-0.00032409145
-0.0002652774
-0.00035483107
-0.00019739011
-0.00037918839
-0.00040397394
4.1635206e-05
-3.4086395e-05
5.5827064e-05
-3.0481497e-05
6.9471216e-05
-2.5905605e-05
8.2420283e-05
-2.0761006e-05
9.4666804e-05
-1.4241755e-05
0.00010611503
-7.0181742e-06
0.00011667209
1.2159129e-06
0.00012608762
1.0494688e-05
0.0001343454
2.059893e-05
0.00014130708
3.1573693e-05
0.00014689717
4.3391657e-05
0.00015097347
5.6059416e-05
0.00015334989
6.9611444e-05
0.00015398805
8.3987248e-05
0.00015262449
9.9274982e-05
0.00014939673
0.00011537905
0.00014364941
0.0001326201
0.00013553689
0.00015067211
0.00012477177
0.00016990935
0.00011115216
0.00019000291
9.4256824e-05
0.00021147268
7.3844568e-05
0.00023410106
4.95025e-05
0.00025798237
2.0774515e-05
0.00028285131
-1.2346537e-05
0.0003084526
-5.0543349e-05
0.00033512231
-9.4423318e-05
0.00036175444
-0.00014393345
0.00038700768
-0.00019895159
0.00040981104
-0.00025893064
0.00042856227
-0.00032273936
0.00044139789
-0.0003885508
0.00044638307
-0.00045375783
0.0004417718
-0.0005149624
0.00042635558
-0.00056805614
0.000399864
-0.0006084869
0.00036349186
-0.00063198896
0.0003208103
-0.0006353813
0.00027813393
-0.00061725861
0.00024437036
-0.00057809893
0.00023024995
-0.00051749797
0.0002435377
-0.00043471462
0.00029037429
-0.00034176717
0.00041019378
-0.00027381497
0.00074003162
-0.00011318401
0.0011760837
0.00040742467
0.0010040749
0.001870809
-0.0021782276
0.0030517313
-0.0069588915
0.0040323766
-0.008410732
0.0055115248
-0.0083546521
0.0072132049
-0.0078673381
0.0087197395
-0.006814513
0.010095784
-0.0077784173
0.011583693
-0.010580253
0.012559019
-0.011604575
0.013318017
-0.010275528
0.013630375
-0.0069056463
0.01333323
-0.0028645013
0.012484511
0.0011478375
0.011711267
0.0045515187
0.010958576
0.0071992953
0.0098487459
0.0090493865
0.0080865535
0.0098462907
0.0059768866
0.0094863639
0.0039614741
0.0082063916
0.0025221069
0.0061470392
0.0018010813
0.0043414425
0.0014446604
0.0035832564
0.0011403169
0.0033664862
0.00084551393
0.0031292217
0.00058731935
0.0028315026
0.00036789865
0.0025484123
0.00018086181
0.0022915667
2.0849241e-05
0.002055807
-0.00011453376
0.0018385639
-0.00023091204
0.0016400671
-0.00033091537
0.0014580774
-0.00041676361
0.0012908021
-0.00049014414
0.0011367917
-0.00055230761
0.00099452598
-0.00060434087
0.00086299117
-0.00064682354
0.0007406643
-0.00068037505
0.00062675528
-0.00070539342
0.00052013913
-0.00072211801
0.00042022839
-0.00073091169
0.00032622055
-0.00073191294
0.0002376694
-0.00072531708
0.00015412131
-0.00071135274
7.5270666e-05
-0.00069024874
1.0554628e-06
-0.00066207447
-6.8797313e-05
-0.00062713142
-0.00013415613
-0.00058558145
-0.00019490883
-0.00053774681
-0.00025096701
-0.00048386157
-0.0003021617
-0.00042431571
-0.00034816717
-0.00035953142
-0.00038887125
-0.00029041951
-0.0004239384
-0.00021688538
-0.00045272061
-0.00048101888
4.4877215e-05
-4.9885389e-05
6.0156677e-05
-4.5759353e-05
7.4820555e-05
-4.0570199e-05
8.8816415e-05
-3.4757776e-05
0.00010209194
-2.7518314e-05
0.00011442393
-1.9351603e-05
0.00012573337
-1.0094431e-05
0.00013618242
4.5097686e-08
0.0001453473
1.1433253e-05
0.00015321362
2.3706842e-05
0.0001596904
3.6914707e-05
0.00016463292
5.1116125e-05
0.00016800193
6.6240831e-05
0.0001695562
8.2431443e-05
0.00016923562
9.9594592e-05
0.00016679223
0.0001178218
0.0001623981
0.00013701342
0.00015532962
0.00015773933
0.0001457629
0.00017947469
0.00013317775
0.0002025875
0.00011758886
0.00022706218
9.8558035e-05
0.00025313249
7.5305941e-05
0.00028123346
4.7763823e-05
0.00031039085
1.4777258e-05
0.00034143677
-2.338429e-05
0.00037328313
-6.8371264e-05
0.00040674239
-0.00012016383
0.00043880165
-0.00017906972
0.00046871705
-0.00024474541
0.00049423661
-0.00031613289
0.0005127844
-0.00039123516
0.00052148574
-0.00046693751
0.00051747484
-0.00053890631
0.00049832454
-0.00060153849
0.00046249547
-0.0006480143
0.00040996581
-0.00067151148
0.00034430531
-0.00066647114
0.00027309135
-0.00062917278
0.00020706818
-0.00055842939
0.00015950218
-0.00045199108
0.00013709729
-0.00031228649
0.0001506701
-0.00016232938
0.00026023737
-2.1874958e-05
0.00059957568
0.00018678171
0.00096742613
0.00089855842
0.00029229875
0.0022631843
-0.0035428553
0.0032932071
-0.0079889172
0.0041586024
-0.0092761294
0.0055396174
-0.0097356664
0.0071397854
-0.0094675047
0.008862804
-0.0085375311
0.010469348
-0.0093849627
0.011717742
-0.011828649
0.012707422
-0.012594257
0.012669599
-0.010237706
0.012378211
-0.0066142604
0.011899985
-0.0023862794
0.0108714
0.0021764183
0.010065931
0.0053569827
0.0097501803
0.0075150464
0.0091157679
0.0096838021
0.0077951724
0.011166885
0.0059253946
0.01135614
0.0040033271
0.010128457
0.0024811475
0.0076692172
0.0016056815
0.005216911
0.0011552992
0.0040336406
0.00083129685
0.0036904884
0.00054876682
0.0034117489
0.00031033141
0.003069936
0.00011030266
0.0027484383
-5.5670389e-05
0.0024575389
-0.00019471147
0.002194847
-0.00031287683
0.0019567269
-0.00041316432
0.0017403528
-0.00049850992
0.0015434223
-0.00057116357
0.0013634572
-0.00063273972
0.0011983697
-0.00068450809
0.0010462957
-0.00072693531
0.00090541943
-0.00076107109
0.00077480032
-0.00078709807
0.00065278145
-0.00080540016
0.00053843989
-0.00081610148
0.00043092679
-0.00081939201
0.00032950821
-0.00081533
0.0002336026
-0.00080399904
0.00014278711
-0.00078553198
5.6802309e-05
-0.00075989683
-2.4572747e-05
-0.00072725718
-0.00010143652
-0.00068773069
-0.00017368095
-0.00064146507
-0.00024117668
-0.00058868301
-0.00030374306
-0.00052973359
-0.00036111046
-0.00046476564
-0.00041313177
-0.0003944022
-0.00045922904
-0.0003195519
-0.00049878944
-0.00023963899
-0.00053263437
-0.00056430637
4.8570997e-05
-6.6929739e-05
6.5032372e-05
-6.2217682e-05
8.0868559e-05
-5.6404171e-05
9.5959104e-05
-4.9847623e-05
0.00011028882
-4.1848351e-05
0.0001236684
-3.27307e-05
0.00013613148
-2.2556347e-05
0.00014733062
-1.1153281e-05
0.00015762708
1.137287e-06
0.00016650941
1.4824848e-05
0.00017398845
2.9435091e-05
0.00018000011
4.5102876e-05
0.00018436908
6.18701e-05
0.00018705452
7.9744673e-05
0.00018785922
9.8788813e-05
0.000186657
0.00011902267
0.00018314873
0.00014051964
0.00017778591
0.00016309975
0.00016955177
0.00018770724
0.00015858584
0.00021355353
0.00014440243
0.00024124667
0.00012675038
0.00027078482
0.00010533036
0.00030265197
7.8924242e-05
0.0003367946
4.7451638e-05
0.00037290783
9.5108673e-06
0.00041122364
-3.5504668e-05
0.00045175804
-8.9258451e-05
0.00049255537
-0.00015230803
0.00053176682
-0.00022468217
0.00056661185
-0.000305533
0.00059363735
-0.00039290282
0.00060885763
-0.00048338518
0.00060795781
-0.00057167641
0.00058661531
-0.00065031286
0.00054113151
-0.00070935061
0.00046900219
-0.00073841213
0.00037336376
-0.00072887065
0.00026354667
-0.00067343027
0.00015162415
-0.00056973495
5.5801899e-05
-0.00041723526
-1.5406769e-05
-0.00022992013
-3.6647533e-05
-6.9277417e-05
9.9593533e-05
5.3151795e-05
0.00047714429
0.00033836304
0.00068221309
0.0012884069
-0.0006577444
0.0021242786
-0.0043787277
0.0029800172
-0.0088446579
0.0042191025
-0.010515216
0.0056041528
-0.011120715
0.0068503762
-0.010713725
0.008114918
-0.0098020721
0.0098552753
-0.011125322
0.011082846
-0.013056223
0.011372506
-0.012883918
0.010827593
-0.0096927953
0.0099122144
-0.0056988846
0.0089086302
-0.0013827008
0.0077711047
0.00331394
0.0071361413
0.0059919443
0.0069481177
0.0077030703
0.0068203436
0.0098115776
0.0061172487
0.011869981
0.0048400402
0.012633347
0.0034517391
0.011516757
0.0021716155
0.0089493407
0.0013273922
0.0060611352
0.00081746643
0.0045435682
0.00046977795
0.0040381769
0.00020255359
0.0036789728
-1.0463539e-05
0.0032829557
-0.00017904377
0.0029170172
-0.00031799894
0.0025964926
-0.00043332816
0.0023101753
-0.00052947918
0.0020528773
-0.00061038584
0.0018212598
-0.0006788981
0.0016119345
-0.00073668691
0.0014212462
-0.0007852106
0.0012468964
-0.00082538633
0.0010864724
-0.00085806602
0.00093809453
-0.00088333227
0.00080006211
-0.00090158154
0.00067103053
-0.00091299817
0.00054985773
-0.00091757968
0.00043550803
-0.00091527648
0.00032720136
-0.00090612251
0.00022444548
-0.00088994386
0.00012660839
-0.000866803
3.3662985e-05
-0.00083657086
-5.4802748e-05
-0.00079934137
-0.0001386671
-0.00075506488
-0.00021795177
-0.00070385893
-0.00029237773
-0.00064589506
-0.00036170493
-0.00058138667
-0.00042561901
-0.0005106524
-0.00048386561
-0.00043419839
-0.00053568588
-0.00035280811
-0.00058017855
-0.00026580891
-0.00061963014
-0.00065480498
5.276172e-05
-8.533545e-05
7.051765e-05
-7.9968598e-05
8.7594958e-05
-7.3479204e-05
0.00010393713
-6.6188983e-05
0.00011942986
-5.7339252e-05
0.00013398243
-4.7280382e-05
0.00014743627
-3.6007733e-05
0.00015990732
-2.362272e-05
0.00017102883
-9.9833919e-06
0.00018115073
4.7028021e-06
0.00018980605
2.0778831e-05
0.000196963
3.7944793e-05
0.00020252081
5.6311145e-05
0.00020642593
7.5838153e-05
0.00020850311
9.6709698e-05
0.00020869679
0.00011882629
0.00020676808
0.00014244506
0.00020245005
0.00016741491
0.00019629186
0.00019386421
0.00018709066
0.00022275518
0.00017508054
0.00025325766
0.00015956418
0.00028630119
0.00014066804
0.00032154701
0.00011694817
0.00036051275
8.7379118e-05
0.00040247509
5.0522882e-05
0.00044807829
5.8573878e-06
0.00049642244
-4.9143912e-05
0.00054755662
-0.00011614338
0.00059876754
-0.0001959694
0.00064643974
-0.00028822476
0.00068589416
-0.00039119345
0.00071182684
-0.00050127167
0.00071803577
-0.00061265921
0.00069800257
-0.00071648629
0.00064495872
-0.00079864344
0.00055115777
-0.00084297372
0.00041768921
-0.00083566365
0.0002562324
-0.00076436841
8.032762e-05
-0.00062137533
-8.7193742e-05
-0.00041976609
-0.00021702151
-0.00020521705
-0.00025120152
-5.8540752e-05
-4.7083259e-05
-1.0128283e-05
0.00042873313
0.00027827156
0.00039381192
0.0011018097
-0.001481285
0.0017308667
-0.0050077867
0.0025110242
-0.0096248154
0.0042423919
-0.012246584
0.0057620817
-0.012640405
0.0062268306
-0.011178474
0.0072301661
-0.010805409
0.0083722476
-0.012267402
0.0087598439
-0.013443821
0.0081490604
-0.012273135
0.007573766
-0.0091175046
0.0069487548
-0.0050738764
0.0062416684
-0.00067561437
0.0056278407
0.0039277661
0.0049055083
0.0067142762
0.0044050908
0.0082034916
0.0041526629
0.010064006
0.0037629942
0.012259651
0.0030120085
0.01338433
0.0022579888
0.012270774
0.0013688353
0.0098384953
0.00080287921
0.0066270909
0.00035107366
0.0049953757
2.3556e-05
0.0043656976
-0.00020067004
0.0039032018
-0.00036770646
0.0034499938
-0.00049983139
0.0030491401
-0.00060538614
0.0027020474
-0.00069102089
0.0023958103
-0.00076182588
0.002123679
-0.00082091759
0.0018803486
-0.00087032463
0.0016613417
-0.00091170766
0.0014626294
-0.00094618006
0.0012813683
-0.00097422521
0.0011145169
-0.00099626686
0.00096013468
-0.001012495
0.00081628917
-0.0010229578
0.00068149262
-0.001027443
0.00055433844
-0.0010258927
0.0004339577
-0.0010180918
0.00031940306
-0.0010037403
0.00021009537
-0.00098275799
0.00010562548
-0.00095509323
5.9966609e-06
-0.00092031808
-8.9581218e-05
-0.00087836817
-0.00018061155
-0.00082925554
-0.00026706317
-0.00077295565
-0.00034867616
-0.00070955687
-0.00042510845
-0.00063921548
-0.00049595984
-0.00056221191
-0.0005608667
-0.00047908702
-0.000618813
-0.00039038324
-0.00066888694
-0.00029564554
-0.00071436629
-0.00075341287
5.7483994e-05
-0.00010522416
7.6716768e-05
-9.9198865e-05
9.5140953e-05
-9.1902875e-05
0.0001127638
-8.380985e-05
0.0001294765
-7.4048384e-05
0.00014528059
-6.3080996e-05
0.00016000949
-5.0734359e-05
0.00017355543
-3.7167843e-05
0.00018595708
-2.2385357e-05
0.00019708898
-6.4295809e-06
0.00020706129
1.0806452e-05
0.00021546641
2.9539479e-05
0.00022236491
4.9411511e-05
0.00022758801
7.0612853e-05
0.00023108735
9.3207368e-05
0.00023268848
0.00011722168
0.00023251261
0.00014261745
0.00023001353
0.00016991145
0.00022533971
0.00019853708
0.00021872444
0.00022937083
0.0002091109
0.00026287192
0.00019676061
0.00029865154
0.00018059381
0.00033771263
0.00016026383
0.0003808403
0.00013407528
0.00042866057
0.00010078871
0.0004813623
5.7172022e-05
0.00054003806
2.1527952e-06
0.00060257603
-6.7501795e-05
0.00066842194
-0.00015519266
0.00073412907
-0.00026020517
0.00079090511
-0.00038181574
0.00083343753
-0.00051812771
0.00085434864
-0.0006632407
0.00084311489
-0.00080554408
0.00078726008
-0.00092558435
0.00067119636
-0.00099773757
0.00048984006
-0.0010024497
0.00026094215
-0.00091022197
-1.1900508e-05
-0.00072755188
-0.00026986504
-0.00047327134
-0.00047130605
-0.00022657585
-0.0004979006
-6.6298393e-05
-0.0002073603
1.386679e-05
0.00034857013
0.00035535696
5.2320023e-05
0.00092855723
-0.0020544899
0.0013762576
-0.0054554907
0.0020370992
-0.010285658
0.0032600259
-0.013469509
0.003480831
-0.012861211
0.0033574477
-0.011055091
0.0044748197
-0.011922784
0.0050026414
-0.012795223
0.0046776059
-0.013118786
0.0037482543
-0.011343782
0.003158329
-0.0085275782