/*--------------------------------*- C++ -*----------------------------------*\
  =========                 |
  \\      /  F ield         | OpenFOAM: The Open Source CFD Toolbox
   \\    /   O peration     | Website:  https://openfoam.org
    \\  /    A nd           | Version:  9
     \\/     M anipulation  |
\*---------------------------------------------------------------------------*/
FoamFile
{
    format      ascii;
    class       volScalarField;
    location    "0.48";
    object      p;
}
// * * * * * * * * * * * * * * * * * * * * * * * * * * * * * * * * * * * * * //

dimensions      [1 -1 -2 0 0 0 0];

internalField   nonuniform List<scalar> 
10000
(
0
-0.015306477
-0.03418441
-0.055504795
-0.080691351
-0.11053122
-0.14410123
-0.18091784
-0.22376164
-0.272753
-0.32767809
-0.38821929
-0.45440782
-0.52641044
-0.60337303
-0.68066841
-0.75803485
-0.83746003
-0.91683186
-0.99964485
-1.0875645
-1.1797542
-1.2754857
-1.3742041
-1.475446
-1.5788616
-1.6842005
-1.7912896
-1.9000046
-2.0102849
-2.1221584
-2.2356977
-2.3510109
-2.4682186
-2.5874519
-2.7088152
-2.8323016
-2.9576528
-3.0850358
-3.2150175
-3.3460998
-3.4783858
-3.611768
-3.7460631
-3.8809858
-4.0161948
-4.1513479
-4.2860989
-4.420145
-4.5532604
-4.6852663
-4.816074
-4.9457079
-5.0742264
-5.2017804
-5.3285878
-5.4548627
-5.5807634
-5.7076917
-5.8370063
-5.9670769
-6.0984827
-6.2310491
-6.3642719
-6.4972989
-6.6290971
-6.7583538
-6.883677
-7.0035986
-7.116748
-7.2218951
-7.3180887
-7.4046756
-7.4801411
-7.5438199
-7.5958087
-7.6364181
-7.665896
-7.6847602
-7.6938295
-7.6941244
-7.6867331
-7.6727469
-7.6532617
-7.6292839
-7.6018317
-7.571838
-7.5402144
-7.5077723
-7.4752915
-7.4434665
-7.4129524
-7.3842998
-7.3581077
-7.3346676
-7.3145086
-7.2977972
-7.2852032
-7.275417
-7.2712982
0.014839138
0.0025648159
-0.014027425
-0.034554275
-0.058973009
-0.086819368
-0.12004043
-0.15989284
-0.20459745
-0.25441779
-0.30934728
-0.36920734
-0.43377703
-0.50254549
-0.57493131
-0.65287958
-0.73376137
-0.81513465
-0.89799512
-0.98392982
-1.0735971
-1.1667685
-1.2630706
-1.3621364
-1.4635926
-1.5671322
-1.6725644
-1.7797226
-1.8885362
-1.9990032
-2.1111797
-2.2251735
-2.3411188
-2.4591797
-2.5795053
-2.7021889
-2.8272827
-2.9549168
-3.0849805
-3.2173276
-3.3516855
-3.4877184
-3.6250374
-3.7632179
-3.9018036
-4.0402671
-4.1780993
-4.3148176
-4.4500157
-4.5833988
-4.7147727
-4.844062
-4.9713323
-5.0967835
-5.2207694
-5.3437856
-5.4663986
-5.5893421
-5.7132731
-5.8391577
-5.9669361
-6.0967563
-6.2284512
-6.3614933
-6.4949784
-6.6277647
-6.7584399
-6.8854439
-7.0071623
-7.122122
-7.2289376
-7.3264595
-7.4136884
-7.489944
-7.554459
-7.6070204
-7.6477232
-7.6771004
-7.6957683
-7.7045484
-7.704414
-7.6964538
-7.6817608
-7.6614343
-7.6365287
-7.6080788
-7.5770647
-7.5444177
-7.5109704
-7.4775262
-7.44479
-7.4134308
-7.3840293
-7.3571257
-7.3331364
-7.3124705
-7.2953644
-7.2825168
-7.2724706
-7.2681001
0.034370941
0.023254923
0.0078034722
-0.012139249
-0.036644208
-0.065632183
-0.099635871
-0.13910527
-0.18382268
-0.23354995
-0.28836293
-0.34828784
-0.41297524
-0.48192795
-0.55503352
-0.63232978
-0.71284456
-0.79559158
-0.88077162
-0.96880544
-1.0599798
-1.1542666
-1.251453
-1.3511623
-1.4530812
-1.556986
-1.6626742
-1.7700063
-1.8789121
-1.9894079
-2.1015835
-2.2155879
-2.3316237
-2.4499177
-2.5707017
-2.6941574
-2.8204146
-2.949559
-3.0815267
-3.21611
-3.3532373
-3.492496
-3.6333099
-3.7750882
-3.9171799
-4.0588682
-4.1994669
-4.3383497
-4.4749701
-4.6089585
-4.7400643
-4.8682056
-4.9934977
-5.1162411
-5.2370168
-5.3567147
-5.476223
-5.5966555
-5.7177153
-5.8407798
-5.9667876
-6.0959154
-6.2279199
-6.3621486
-6.4976043
-6.6329169
-6.7665292
-6.8966448
-7.0215002
-7.1393698
-7.2486775
-7.3480912
-7.4365587
-7.5131008
-7.5774822
-7.6296216
-7.6696388
-7.6980032
-7.7153989
-7.7227261
-7.7209667
-7.7112172
-7.6946403
-7.6723271
-7.6453913
-7.6149396
-7.5819922
-7.5474764
-7.5122411
-7.477113
-7.4428639
-7.4100586
-7.3794887
-7.3514449
-7.3265487
-7.3050993
-7.2874234
-7.2741793
-7.2638861
-7.2593614
0.059787377
0.049035138
0.034148528
0.014429613
-0.010275702
-0.039740112
-0.074268693
-0.11411252
-0.15906319
-0.20915534
-0.26426786
-0.32426558
-0.38893464
-0.4580891
-0.53146365
-0.60883483
-0.68973649
-0.77368516
-0.86053096
-0.95033846
-1.0431501
-1.1388493
-1.2371816
-1.337856
-1.4405878
-1.5451239
-1.6512492
-1.7588333
-1.8678224
-1.9782622
-2.0902727
-2.2040592
-2.3199114
-2.4381458
-2.5590934
-2.6830415
-2.8102138
-2.9407715
-3.0747112
-3.2119262
-3.3527603
-3.4958407
-3.6407475
-3.7867502
-3.9329836
-4.0785473
-4.2225109
-4.364047
-4.5024563
-4.6372376
-4.768103
-4.8949561
-5.0179604
-5.1375053
-5.2542923
-5.3698561
-5.4847412
-5.6003874
-5.7186569
-5.8387828
-5.9633064
-6.0922003
-6.2252438
-6.3617016
-6.5004483
-6.6398774
-6.7781239
-6.913109
-7.0427158
-7.1649427
-7.2779863
-7.3803553
-7.4709146
-7.5488311
-7.6136687
-7.6654172
-7.704362
-7.7311005
-7.7464303
-7.7513278
-7.7468841
-7.7342482
-7.7146377
-7.6892518
-7.6592533
-7.6257991
-7.589925
-7.5526151
-7.51476
-7.4771951
-7.44075
-7.4059352
-7.3735642
-7.3439455
-7.3177339
-7.2951754
-7.2766788
-7.2627894
-7.252215
-7.247814
0.090850991
0.080323407
0.065698802
0.046043279
0.021315429
-0.0083703219
-0.043215729
-0.083234426
-0.12843613
-0.17878244
-0.23416598
-0.29446672
-0.35955987
-0.42924155
-0.5032361
-0.58133125
-0.66322971
-0.74856651
-0.83711461
-0.92876393
-1.0233847
-1.1207519
-1.2205851
-1.3225832
-1.426438
-1.5318595
-1.6386154
-1.7465673
-1.8556745
-1.9659919
-2.0776791
-2.1910272
-2.3064162
-2.4242849
-2.5451154
-2.6693578
-2.7974008
-2.9295786
-3.0660554
-3.2068018
-3.3508169
-3.4982566
-3.6481516
-3.7994494
-3.9509733
-4.1014951
-4.2498066
-4.3948157
-4.5356096
-4.6715105
-4.8021073
-4.9272995
-5.047446
-5.163145
-5.2742043
-5.3845004
-5.4943056
-5.6051633
-5.7194778
-5.8338788
-5.9570696
-6.0859351
-6.2206551
-6.3604737
-6.5039991
-6.649331
-6.7941389
-6.9358959
-7.072043
-7.2002104
-7.3183166
-7.4246485
-7.5179501
-7.5974393
-7.6627397
-7.7138793
-7.7512817
-7.7756872
-7.7880431
-7.7894734
-7.7811887
-7.7645021
-7.7407017
-7.7110861
-7.6768943
-7.6393532
-7.5995401
-7.5585177
-7.5171681
-7.4764324
-7.4369991
-7.3995743
-7.3648297
-7.3331661
-7.3051854
-7.2811448
-7.2615277
-7.2468539
-7.2358439
-7.2313354
0.12720826
0.11678578
0.10222846
0.08269322
0.057954978
0.028083817
-0.0069491875
-0.047210014
-0.092693739
-0.14334412
-0.19909806
-0.25990289
-0.32560579
-0.39597396
-0.47084764
-0.55003541
-0.63325195
-0.72019678
-0.81061377
-0.90427987
-1.0009384
-1.1002816
-1.2019745
-1.3056588
-1.4109602
-1.5175332
-1.6251189
-1.7335591
-1.8427951
-1.9528866
-2.0640381
-2.1766243
-2.2911537
-2.4082001
-2.5284482
-2.6525641
-2.7811545
-2.9147077
-3.0534692
-3.1973857
-3.3460754
-3.4989431
-3.6549636
-3.8127968
-3.9708986
-4.1276612
-4.281517
-4.4310145
-4.5749417
-4.7123632
-4.8427067
-4.9658889
-5.0827211
-5.1918506
-5.2978038
-5.4009479
-5.5033309
-5.6072976
-5.7148582
-5.8274765
-5.9468713
-6.075617
-6.2127144
-6.3572596
-6.5074828
-6.6609018
-6.8145988
-6.9654509
-7.1103332
-7.246364
-7.3710781
-7.4825312
-7.5793369
-7.6606385
-7.7262214
-7.7762872
-7.8114186
-7.8325303
-7.8407779
-7.8375201
-7.8241494
-7.8020962
-7.772816
-7.7377164
-7.6981243
-7.6553743
-7.6105832
-7.5649211
-7.5191936
-7.474473
-7.4313607
-7.3906914
-7.3530009
-7.3188311
-7.2886383
-7.2628225
-7.2417341
-7.2260501
-7.2143564
-7.2094655
0.16874098
0.15832121
0.14390032
0.1244326
0.099637844
0.069669397
0.034456939
-0.0060520091
-0.051821294
-0.10283949
-0.15910035
-0.22051723
-0.28692941
-0.35819951
-0.43420667
-0.51475285
-0.5995657
-0.68837518
-0.78091305
-0.87686576
-0.97588015
-1.077581
-1.1815441
-1.287314
-1.3944324
-1.5024859
-1.6111615
-1.7202411
-1.829617
-1.9393488
-2.0496945
-2.161114
-2.2742378
-2.3898556
-2.5088781
-2.6322689
-2.7609503
-2.89566
-3.0368396
-3.184569
-3.3385248
-3.4979302
-3.6614776
-3.8274425
-3.9938137
-4.158502
-4.3194515
-4.4747317
-4.6227511
-4.7622528
-4.8924356
-5.0129841
-5.1248446
-5.2284767
-5.3262249
-5.4202245
-5.5131586
-5.6079665
-5.7075247
-5.8144827
-5.9313989
-6.0596938
-6.1999293
-6.3508382
-6.5100529
-6.6743109
-6.8398325
-7.0026412
-7.158858
-7.3049671
-7.4380391
-7.5558507
-7.6568999
-7.7402109
-7.8058275
-7.854166
-7.886068
-7.9027035
-7.9055487
-7.8962012
-7.8762671
-7.8473739
-7.8111681
-7.7692374
-7.72299
-7.6738449
-7.6229892
-7.5716165
-7.5206453
-7.4710811
-7.4235861
-7.3790046
-7.337851
-7.3006704
-7.2678365
-7.2398637
-7.2170339
-7.2001214
-7.1876734
-7.1820028
0.21538888
0.20509363
0.19076054
0.17131384
0.14652261
0.11647423
0.081090725
0.040372111
-0.0056941148
-0.057150822
-0.1139747
-0.1760601
-0.24332726
-0.31569848
-0.39305316
-0.47519263
-0.56188135
-0.65286875
-0.74784491
-0.84643428
-0.94821724
-1.0527352
-1.1594606
-1.2678023
-1.3771995
-1.4871489
-1.597249
-1.7071683
-1.8167217
-1.9259587
-2.0351824
-2.1449247
-2.2559593
-2.3693128
-2.4862302
-2.6080755
-2.7361785
-2.8716607
-3.0152656
-3.1672944
-3.3274529
-3.4948517
-3.6677834
-3.8440149
-4.0209453
-4.195847
-4.3659659
-4.5287718
-4.6821788
-4.8246335
-4.9550331
-5.0720516
-5.1782215
-5.2740089
-5.3615575
-5.4438701
-5.5244812
-5.607249
-5.6961979
-5.7952211
-5.9077377
-6.0357545
-6.1801568
-6.3396633
-6.5108838
-6.6895066
-6.8705193
-7.04878
-7.2194452
-7.3782274
-7.5216268
-7.6470693
-7.7529905
-7.8382729
-7.9034482
-7.9491328
-7.9765833
-7.987338
-7.9831844
-7.9660536
-7.9378616
-7.9005173
-7.85585
-7.8055949
-7.751338
-7.6944825
-7.636441
-7.5782969
-7.5211174
-7.4658613
-7.4132804
-7.3640926
-7.3189203
-7.278203
-7.2423984
-7.2119354
-7.1870667
-7.1686103
-7.1551285
-7.1488495
0.26726044
0.25706174
0.2427963
0.22342422
0.19865604
0.16854179
0.13305478
0.092151309
0.04576081
-0.0061399538
-0.063520086
-0.12634368
-0.1946078
-0.26824014
-0.34710933
-0.4310676
-0.51992437
-0.61341848
-0.71119924
-0.81286202
-0.91792165
-1.0258172
-1.1358957
-1.2474393
-1.3597263
-1.4720921
-1.5840454
-1.6950886
-1.8049264
-1.9135628
-2.0213053
-2.128757
-2.2368392
-2.3468402
-2.4604574
-2.5796234
-2.706183
-2.8418067
-2.9877254
-3.1445252
-3.3119848
-3.4893145
-3.6740922
-3.8634202
-4.0538944
-4.2419111
-4.4238525
-4.5964632
-4.7570657
-4.9036935
-5.0357192
-5.1463219
-5.246728
-5.3324601
-5.4069974
-5.4742091
-5.5387067
-5.6054936
-5.6801682
-5.7680853
-5.8738597
-6.0011054
-6.1510052
-6.3219246
-6.5091558
-6.7067002
-6.9078232
-7.1058663
-7.2947546
-7.4692492
-7.6251682
-7.7594719
-7.8702339
-7.9576076
-8.0215703
-8.0633636
-8.0847133
-8.0876953
-8.0745901
-8.0477052
-8.0093335
-7.9616564
-7.9067994
-7.8465523
-7.7827761
-7.7168824
-7.6504132
-7.5844529
-7.5200929
-7.4583128
-7.399855
-7.3454205
-7.2956608
-7.2509494
-7.2117439
-7.1784028
-7.1511762
-7.1308965
-7.1164968
-7.109349
0.3242876
0.31419459
0.30007621
0.28079731
0.25607124
0.22597415
0.19043768
0.14936035
0.10268376
0.050396984
-0.0075392234
-0.07118036
-0.14052877
-0.21551289
-0.29605509
-0.3820654
-0.47336555
-0.56970759
-0.67072742
-0.77598158
-0.8849012
-0.99683423
-1.1110312
-1.2266142
-1.3425805
-1.4579685
-1.5723682
-1.6849784
-1.7953225
-1.9032993
-2.0091837
-2.1136368
-2.2177346
-2.3230096
-2.4317154
-2.5465714
-2.6702195
-2.8049942
-2.952907
-3.1149974
-3.2908795
-3.4809557
-3.6808223
-3.8869584
-4.0948869
-4.2998116
-4.4970622
-4.682437
-4.8524482
-5.0043047
-5.1362072
-5.2461187
-5.3370209
-5.4095727
-5.4671935
-5.5147538
-5.5582424
-5.6039535
-5.6592928
-5.7314991
-5.8274061
-5.9525065
-6.1091538
-6.2956567
-6.5043512
-6.726756
-6.9538175
-7.1769704
-7.3886144
-7.582337
-7.7531541
-7.8976659
-8.0138224
-8.1021764
-8.1634312
-8.1993928
-8.212451
-8.2053007
-8.1808305
-8.1418254
-8.0910312
-8.0308665
-7.9638044
-7.8918349
-7.8169105
-7.7405736
-7.6643712
-7.5894797
-7.5169399
-7.4477924
-7.3827204
-7.3224607
-7.2675224
-7.2183588
-7.175395
-7.1389225
-7.1091433
-7.0866822
-7.0709756
-7.0630228
0.38643936
0.37655788
0.3625984
0.34345239
0.31886388
0.28884881
0.25329906
0.21212773
0.16527926
0.11266081
0.054154124
-0.010307305
-0.080770559
-0.15716957
-0.2395152
-0.32778318
-0.42179349
-0.52134248
-0.62608262
-0.73552171
-0.8489776
-0.96577873
-1.0850714
-1.2057529
-1.3264932
-1.4454133
-1.5632553
-1.6781481
-1.7893595
-1.8967046
-2.0003834
-2.101098
-2.2000776
-2.2988556
-2.400482
-2.5087534
-2.6274359
-2.7599133
-2.9091934
-3.0774482
-3.2653791
-3.4698516
-3.688816
-3.9166833
-4.1472408
-4.3740999
-4.5912042
-4.793202
-4.9756854
-5.1350887
-5.2689349
-5.3757497
-5.4563986
-5.5127431
-5.5489623
-5.5712722
-5.5873449
-5.6053286
-5.6344793
-5.684482
-5.765319
-5.8859175
-6.0510051
-6.2591105
-6.4966679
-6.7517686
-7.0121017
-7.2667783
-7.5064683
-7.7233495
-7.9115296
-8.0673776
-8.1884862
-8.2763648
-8.3327298
-8.3602082
-8.3620863
-8.3418477
-8.3030458
-8.2490627
-8.1831278
-8.1081176
-8.026661
-7.9410017
-7.853191
-7.7648937
-7.6776499
-7.5926568
-7.5109864
-7.4336096
-7.3611777
-7.2944596
-7.2338464
-7.1797971
-7.1326059
-7.0926668
-7.060211
-7.0354764
-7.0182098
-7.0093736
0.45373469
0.44412816
0.43038267
0.4114535
0.38707835
0.35720462
0.32175326
0.2806352
0.2337153
0.18081404
0.12181262
0.056580713
-0.014987576
-0.092812268
-0.17706755
-0.26774198
-0.36469151
-0.46783646
-0.57678966
-0.69113289
-0.80984519
-0.93248227
-1.058093
-1.1852919
-1.3128755
-1.4347116
-1.5580581
-1.6762787
-1.7889255
-1.895831
-1.9970649
-2.0933169
-2.1861562
-2.2761704
-2.3678598
-2.4665147
-2.577297
-2.7049767
-2.8542112
-3.0287632
-3.2297792
-3.4549039
-3.6993792
-3.9558937
-4.2160507
-4.4714231
-4.7142058
-4.93777
-5.1367339
-5.306749
-5.4444742
-5.5477262
-5.6163949
-5.652737
-5.662076
-5.6523676
-5.6332773
-5.6148903
-5.6087064
-5.6272832
-5.6851557
-5.7970528
-5.9717616
-6.2111181
-6.4877279
-6.7860066
-7.0887191
-7.3824039
-7.6561299
-7.9003876
-8.1082021
-8.2763291
-8.400348
-8.4855481
-8.5339404
-8.5493248
-8.5361791
-8.4990286
-8.4422331
-8.3699523
-8.2858397
-8.1931969
-8.0949117
-7.9934232
-7.8908969
-7.7890264
-7.689392
-7.5931372
-7.5013347
-7.414838
-7.3344207
-7.2605968
-7.1937807
-7.1344829
-7.0828373
-7.0391369
-7.0036734
-6.9765195
-6.9576218
-6.9477729
0.52611932
0.51690496
0.50346645
0.48481824
0.46071615
0.43111715
0.39593351
0.3550028
0.30811583
0.25506471
0.19569447
0.12986738
0.057138457
-0.021934365
-0.10809936
-0.20138298
-0.30141973
-0.40858275
-0.52210711
-0.6417868
-0.76702003
-0.89681498
-1.0299114
-1.1646975
-1.2992323
-1.4308041
-1.5592183
-1.6816775
-1.7964657
-1.9034112
-2.0021504
-2.0933021
-2.1795402
-2.2579038
-2.3357606
-2.4209063
-2.5196432
-2.6384857
-2.7850926
-2.9662254
-3.1843138
-3.4364545
-3.7152299
-4.0100874
-4.3092587
-4.6016603
-4.8774445
-5.1286799
-5.3492752
-5.5340696
-5.6784809
-5.7788144
-5.8336481
-5.845529
-5.8212186
-5.7710684
-5.7070761
-5.6417815
-5.5887665
-5.5634208
-5.585884
-5.6814376
-5.8667335
-6.1532036
-6.482327
-6.8375502
-7.1934959
-7.5345009
-7.8488493
-8.1247719
-8.3531521
-8.528703
-8.6570934
-8.7364437
-8.7723048
-8.7705987
-8.7373965
-8.6785403
-8.599381
-8.50479
-8.3989802
-8.2856197
-8.1678245
-8.0482268
-7.9290186
-7.8119614
-7.6985477
-7.5899231
-7.4871002
-7.3906144
-7.3015286
-7.2200851
-7.1467536
-7.0817824
-7.0253179
-6.9776296
-6.9389165
-6.9091553
-6.8885433
-6.8775112
0.60358799
0.59492293
0.58182214
0.5635035
0.53981694
0.51066524
0.47590014
0.43530428
0.38864442
0.33565205
0.27605263
0.21016878
0.13791067
0.057528911
-0.030566156
-0.12654676
-0.23088287
-0.34296717
-0.46107452
-0.58721645
-0.71998777
-0.85823484
-1.0005315
-1.1450193
-1.2894168
-1.4310933
-1.5677836
-1.6967296
-1.8156835
-1.9229234
-2.0196947
-2.1050991
-2.185636
-2.2483129
-2.305712
-2.3732266
-2.4550533
-2.5584537
-2.6976602
-2.8853095
-3.1259115
-3.415285
-3.7416424
-4.0887316
-4.439639
-4.7799648
-5.0975379
-5.3835515
-5.632071
-5.837383
-5.9929702
-6.0923754
-6.13207
-6.1144841
-6.0481422
-5.9471178
-5.8264868
-5.7016571
-5.5882849
-5.5029981
-5.4710135
-5.5364692
-5.7324093
-6.0913281
-6.4925852
-6.923163
-7.343158
-7.7391624
-8.100938
-8.412828
-8.6629257
-8.8479771
-8.9714904
-9.0377005
-9.0538687
-9.0281711
-8.9684478
-8.8819479
-8.7751055
-8.6535551
-8.5220312
-8.3845641
-8.24438
-8.1042781
-7.9663664
-7.8324458
-7.7039336
-7.581886
-7.4672364
-7.3596722
-7.2615595
-7.1721054
-7.0918027
-7.0208208
-6.9592888
-6.9073973
-6.865242
-6.8327535
-6.8102577
-6.7979093
0.68618233
0.6781013
0.66537549
0.64751722
0.6243985
0.59583484
0.56164898
0.52162395
0.47548064
0.42283731
0.36280695
0.29799182
0.22467458
0.14325413
0.053469286
-0.045002343
-0.15249919
-0.26599317
-0.39234961
-0.52627837
-0.66785807
-0.8160852
-0.96960154
-1.126303
-1.283484
-1.437915
-1.5861058
-1.7243909
-1.8495003
-1.9594404
-2.0555584
-2.1323449
-2.2139668
-2.2593886
-2.2940734
-2.3314155
-2.3857538
-2.4612147
-2.5847609
-2.7787643
-3.0506878
-3.3940949
-3.7890846
-4.2089165
-4.6286823
-5.0302834
-5.3992073
-5.7272494
-6.0109671
-6.2446865
-6.4187313
-6.5217489
-6.5462582
-6.4934252
-6.3746109
-6.2100086
-6.0186618
-5.8191499
-5.6310576
-5.4687049
-5.3538952
-5.3617569
-5.5771572
-6.0265306
-6.5289476
-7.0682661
-7.5642608
-8.0205956
-8.4358598
-8.7871791
-9.0559934
-9.2438
-9.3550026
-9.398506
-9.3852391
-9.3263376
-9.2317816
-9.1103436
-8.9695414
-8.8157295
-8.6540583
-8.4887763
-8.3231925
-8.1600375
-8.0014518
-7.8490475
-7.7040578
-7.5674274
-7.4397958
-7.3216618
-7.2135546
-7.1155955
-7.0279949
-6.9507534
-6.8839543
-6.827691
-6.7819534
-6.7466356
-6.7220849
-6.7082777
0.77387128
0.76633171
0.75410238
0.73681404
0.71436012
0.68653972
0.65317239
0.6140336
0.56883506
0.51733229
0.45992494
0.39328035
0.31938295
0.23716919
0.14602406
0.045419372
-0.064974727
-0.18480703
-0.31614898
-0.45787211
-0.60953108
-0.76926095
-0.93632988
-1.1082458
-1.2817996
-1.4529628
-1.6170338
-1.7688735
-1.9035479
-2.0183472
-2.1160415
-2.1776698
-2.2788537
-2.3156024
-2.3297115
-2.3187797
-2.3246328
-2.341598
-2.4329214
-2.6335589
-2.9520489
-3.3789318
-3.8783061
-4.4017147
-4.9134333
-5.3932006
-5.8225868
-6.1957164
-6.5199735
-6.792451
-6.9968631
-7.1137054
-7.1280064
-7.0348093
-6.8496001
-6.6048277
-6.3239872
-6.0290251
-5.7541219
-5.5020115
-5.2643376
-5.1841993
-5.4693851
-6.0027809
-6.6194381
-7.3103961
-7.8906599
-8.4121812
-8.8888663
-9.2804783
-9.5614365
-9.7384113
-9.8228104
-9.829128
-9.7730292
-9.6689199
-9.5291926
-9.3641212
-9.1821482
-8.9901175
-8.7934614
-8.5964425
-8.402342
-8.2136692
-8.0324023
-7.8599476
-7.6973318
-7.5452557
-7.4042088
-7.2744688
-7.1562005
-7.0494899
-6.9543335
-6.870671
-6.798488
-6.7377241
-6.6883191
-6.6500852
-6.6233743
-6.6079542
0.86660257
0.8595399
0.84788603
0.83121778
0.8095525
0.78269069
0.75041724
0.71245408
0.66842845
0.61780921
0.56089834
0.49568912
0.42224152
0.33990965
0.24791651
0.1455294
0.032114986
-0.092710164
-0.23016883
-0.38008079
-0.54196091
-0.71586243
-0.89927454
-1.0899882
-1.2844211
-1.4777072
-1.6637467
-1.8353016
-1.984623
-2.1064407
-2.2010991
-2.2499035
-2.3783292
-2.418671
-2.3073094
-2.3270554
-2.2880471
-2.1908385
-2.2215191
-2.4268017
-2.8196951
-3.3850964
-4.0505745
-4.7249225
-5.3585331
-5.9285138
-6.4175638
-6.8357936
-7.208974
-7.5341395
-7.7903041
-7.9404982
-7.9521151
-7.8128784
-7.5444838
-7.1933409
-6.7901502
-6.3806759
-6.010401
-5.6840595
-5.3087498
-4.8665823
-5.0098942
-5.8358417
-6.7435611
-7.677804
-8.3646222
-8.9681594
-9.5181986
-9.9414983
-10.215524
-10.35781
-10.392455
-10.340516
-10.223252
-10.058732
-9.8613469
-9.6425145
-9.4112624
-9.174617
-8.9378903
-8.7051865
-8.4793972
-8.2627629
-8.0570131
-7.8630829
-7.6819523
-7.5137187
-7.358744
-7.216906
-7.0882382
-6.9726271
-6.8698377
-6.7797094
-6.7020966
-6.6367998
-6.5836886
-6.5424936
-6.5135273
-6.4963068
0.96427199
0.95753689
0.94647669
0.93052306
0.90982075
0.88416285
0.85327041
0.81683494
0.7744694
0.72575696
0.66991209
0.60618493
0.53388631
0.45215981
0.36005505
0.25653788
0.14058875
0.011463967
-0.13225883
-0.29100006
-0.46491086
-0.65374104
-0.85619086
-1.0697749
-1.29066
-1.5131748
-1.7296949
-1.930513
-2.1035451
-2.2353936
-2.3179378
-2.3661138
-2.4415275
-1.3262827
0.95099178
-0.58796564
-2.0747672
-1.9226683
-1.8993838
-2.1171695
-2.6362245
-3.4531732
-4.3942868
-5.2813793
-6.0905328
-6.800514
-7.3284039
-7.7188131
-8.1002895
-8.4999858
-8.8403229
-9.0708691
-9.1459146
-8.983757
-8.5915598
-8.0830283
-7.5056863
-6.9398925
-6.4277958
-6.1097458
-5.583064
-5.2242655
-5.3117659
-5.5084533
-6.4844951
-7.7444233
-8.7432549
-9.7877878
-10.451148
-10.866506
-11.072735
-11.13285
-11.081241
-10.941796
-10.739902
-10.496449
-10.226911
-9.9431011
-9.6538936
-9.3659387
-9.0840649
-8.8117913
-8.5514573
-8.304591
-8.0724014
-7.8563946
-7.6558781
-7.4709941
-7.3016886
-7.1475872
-7.0084555
-6.8838892
-6.7734973
-6.6769728
-6.5939628
-6.5241843
-6.4673862
-6.423266
-6.3920462
-6.3727332
1.0666392
1.0600227
1.0496061
1.0345054
1.0149448
0.99071146
0.96149562
0.92697339
0.88674074
0.84030969
0.78660853
0.7250836
0.65479124
0.57463111
0.48339222
0.37969972
0.26214069
0.12959184
-0.019963238
-0.18752882
-0.37393753
-0.57949736
-0.80360102
-1.0444006
-1.2983223
-1.559213
-1.8182945
-2.0641243
-2.2803082
-2.4446872
-2.5449868
-2.6324202
-2.2921548
0.03511018
0.65667653
0.67642109
-1.1170219
-1.5116471
-1.4171978
-1.6450454
-2.3614572
-3.6490408
-5.1233536
-6.32593
-7.3072679
-8.1074516
-8.5884614
-8.9209034
-9.3409479
-9.8497491
-10.327305
-10.686698
-10.841204
-10.69891
-10.211145
-9.5337032
-8.7956179
-7.6567931
-6.8399741
-6.5151096
-5.7117755
-5.8024385
-6.8185162
-7.1754564
-8.2756706
-9.5634311
-9.9075697
-10.832493
-11.837618
-12.165113
-12.189411
-12.091769
-11.902945
-11.637841
-11.322746
-10.97924
-10.621801
-10.261156
-9.9052093
-9.5594355
-9.227646
-8.9123698
-8.615038
-8.3348977
-8.0765658
-7.8373059
-7.6168678
-7.415117
-7.2313651
-7.0650302
-6.9155175
-6.7821519
-6.664343
-6.5615891
-6.4733515
-6.3992471
-6.3388396
-6.2918587
-6.2584101
-6.2368254
1.1733778
1.166682
1.156976
1.1428421
1.1245691
1.101984
1.0747779
1.0426239
1.0050595
0.96141173
0.91084721
0.85252869
0.7853246
0.70793509
0.61884311
0.51631792
0.39850639
0.26389743
0.10955541
-0.066161627
-0.26498327
-0.48819882
-0.7363046
-1.0085498
-1.3023247
-1.6123312
-1.9297979
-2.2450532
-2.5424226
-2.7837972
-2.951067
-3.1512042
-2.8159093
-0.10924489
0.40546145
0.48135489
-0.98598501
-1.1359103
-0.83820814
-1.0706583
-2.0146751
-4.1287256
-6.4251459
-8.2680818
-9.8541273
-10.825526
-10.726543
-10.562423
-10.771162
-11.366563
-12.033765
-12.754675
-13.418412
-13.629262
-13.184991
-11.920824
-9.9487333
-8.151418
-7.2699987
-6.8429822
-6.6990101
-6.3488994
-7.6113884
-8.4556414
-9.7780088
-11.39804
-12.834513
-12.249764
-13.560512
-13.862233
-13.608658
-13.250177
-12.856708
-12.423136
-11.964557
-11.499115
-11.038042
-10.589276
-10.158393
-9.7489587
-9.3630988
-9.0020265
-8.6636512
-8.3525903
-8.066042
-7.803029
-7.5626198
-7.3439887
-7.146031
-6.9677791
-6.8081807
-6.6663676
-6.5415015
-6.4328079
-6.339619
-6.2614234
-6.1975819
-6.1479007
-6.1123934
-6.0882841
1.2840835
1.2771544
1.2681776
1.2550809
1.2382318
1.2175465
1.1927056
1.1633678
1.1290544
1.0890844
1.042558
0.98851526
0.92570267
0.85254864
0.76724016
0.66767584
0.55142398
0.41683347
0.25945103
0.077151616
-0.13301389
-0.37371239
-0.64703919
-0.95410266
-1.294398
-1.664391
-2.0580228
-2.4726941
-2.889531
-3.2418134
-3.5305167
-3.8629566
-3.9285204
-0.59656778
-0.10030525
-0.0010860216
-1.5460391
-0.80392202
-0.2386869
-0.62622925
-2.0885598
-5.7114072
-9.6316183
-11.537146
-14.091423
-15.508317
-13.779387
-12.437485
-12.455762
-13.364645
-14.383503
-15.225872
-16.788368
-18.348216
-18.457988
-15.565333
-12.233186
-10.527277
-9.0604496
-7.8803705
-8.3768866
-8.0816306
-8.8775366
-10.113526
-12.075247
-14.123593
-15.599764
-15.972483
-15.738246
-15.828495
-15.23767
-14.575046
-13.920563
-13.278009
-12.648723
-12.041989
-11.463535
-10.916975
-10.404465
-9.9267477
-9.4837473
-9.0731363
-8.69673
-8.3520045
-8.0372338
-7.7506424
-7.4906705
-7.255606
-7.0439859
-6.8543633
-6.6852779
-6.5355775
-6.4041351
-6.2899515
-6.1922147
-6.1102206
-6.0432089
-5.9910389
-5.9533354
-5.9266382
1.3982466
1.3909408
1.3826759
1.3706837
1.3553968
1.3368492
1.3147138
1.2886561
1.258215
1.2227435
1.1813144
1.1328442
1.075902
1.0087293
0.92924356
0.83498136
0.72307594
0.59039378
0.43303637
0.2469385
0.027881272
-0.22847977
-0.52636053
-0.86953926
-1.2607901
-1.7001243
-2.1868269
-2.7272003
-3.3002571
-3.8233887
-4.3110699
-4.7881957
-5.1291885
-4.7474605
-3.6035305
-3.1989524
-1.9126553
-0.17164614
1.2402433
1.1460489
-0.31744751
-10.835811
-18.32905
-21.728211
-29.50688
-30.092533
-20.683727
-15.991121
-14.865413
-15.367806
-17.044918
-19.654207
-23.879351
-29.393789
-34.625923
-32.274278
-23.642172
-19.079791
-13.463563
-9.516247
-9.3402013
-9.903869
-9.9765717
-12.307256
-15.455109
-17.775073
-19.042235
-19.321483
-18.82021
-17.945131
-16.990884
-15.993067
-15.048303
-14.169032
-13.349403
-12.587407
-11.881817
-11.230907
-10.632436
-10.083817
-9.5808973
-9.1232737
-8.7068232
-8.3288565
-7.9865846
-7.6772876
-7.398541
-7.1480141
-6.9236618
-6.7234787
-6.545729
-6.3888997
-6.2515333
-6.1324723
-6.0307071
-5.9453059
-5.8754078
-5.8208982
-5.7813097
-5.7519876
1.515277
1.5074157
1.4998696
1.4890279
1.475405
1.4591679
1.4400402
1.4177343
1.3918202
1.3617185
1.3264908
1.2849528
1.2355719
1.1764289
1.1051651
1.0189322
0.91432842
0.78753785
0.63389403
0.44802192
0.22427252
-0.043690632
-0.3626596
-0.73979654
-1.1823407
-1.6959268
-2.2868846
-2.9730837
-3.7480301
-4.5210608
-5.2528121
-5.8856615
-6.2727498
-6.2359354
-5.6132348
-4.3595326
-2.2919755
1.1539395
5.9502139
8.040634
7.1059681
-6.1027935
-17.257965
-30.302286
-38.993737
-42.291037
-25.659569
-16.900433
-14.202526
-14.359679
-18.284528
-23.579816
-31.492303
-39.357553
-46.599808
-35.642248
-19.245097
-12.505013
-5.3146075
-5.1910029
-5.9477644
-12.141756
-14.474057
-20.290988
-24.041487
-24.668667
-24.029452
-23.029305
-21.820607
-20.331656
-18.863156
-17.454116
-16.187709
-15.054855
-14.034252
-13.110256
-12.2732
-11.515424
-10.829679
-10.209065
-9.6492395
-9.1440748
-8.6887042
-8.2788778
-7.9105964
-7.5801157
-7.2840113
-7.0194042
-6.7835726
-6.5740071
-6.3886585
-6.2256308
-6.0831935
-5.9600161
-5.8548418
-5.7665432
-5.6941588
-5.6376654
-5.596394
-5.5644506
1.6345249
1.6259331
1.6190621
1.6093692
1.5974276
1.5836253
1.5677634
1.5496273
1.5289173
1.5049779
1.477068
1.4439396
1.4039945
1.3551778
1.2948956
1.2199589
1.1264934
1.0099169
0.86515009
0.68507996
0.46289632
0.19012544
-0.14283931
-0.54695294
-1.0347564
-1.619483
-2.3166163
-3.1560595
-4.1588943
-5.2550172
-6.3389487
-7.2377207
-7.7325426
-7.8152
-7.2914655
-6.1399711
-4.1875981
1.4811808
12.797542
19.347527
29.455009
25.223848
50.094412
6.3878838
5.8305239
18.759382
680.0683
2071.1618
3443.4957
4404.6123
4442.8282
3427.8318
1866.0993
429.25304
11.351402
6.7672844
26.763541
66.330102
6.9154661
12.771457
2.0903065
-14.850802
-26.929518
-41.455793
-43.386308
-38.146342
-31.957684
-27.71445
-24.990576
-22.787364
-20.734038
-18.880219
-17.277515
-15.888691
-14.667302
-13.582596
-12.616002
-11.75347
-10.982176
-10.294067
-9.6789103
-9.1288473
-8.6371532
-8.1980012
-7.8060892
-7.4565435
-7.145152
-6.8682635
-6.6225308
-6.4050788
-6.2134505
-6.0453625
-5.8988753
-5.7724349
-5.6645672
-5.5740102
-5.4996445
-5.4415278
-5.398813
-5.364258
1.7553109
1.7457758
1.7394627
1.7308114
1.7204916
1.7091646
1.6967407
1.6831013
1.668056
1.6511177
1.6316278
1.6084271
1.5799089
1.5439277
1.4977108
1.4378078
1.3599699
1.2590217
1.1289905
0.96207418
0.74991846
0.48210155
0.1463918
-0.27187761
-0.79065974
-1.4314343
-2.2202396
-3.1945508
-4.3952107
-5.8422209
-7.3014665
-8.5626681
-9.3877847
-10.044147
-10.465069
-11.346175
-12.79348
-6.9372635
10.343327
19.828935
34.154747
28.791357
14.047199
162.50108
1331.9438
4552.2716
5987.4306
6138.0221
6354.0989
6589.9791
6737.3011
6824.6655
6715.9678
5969.9698
3522.4946
687.7745
200.4328
-16.99641
-14.22029
17.810146
-0.63759384
-18.496865
-39.903837
-63.002333
-64.850535
-54.749213
-41.814441
-32.803985
-27.997938
-25.010474
-22.428673
-20.160292
-18.246401
-16.619941
-15.210731
-13.975746
-12.888032
-11.926579
-11.078506
-10.32754
-9.6618605
-9.0713549
-8.5474237
-8.0826262
-7.6703284
-7.3045644
-6.9804083
-6.6934523
-6.4398143
-6.2162247
-6.0197974
-5.8479508
-5.6985729
-5.5698261
-5.4601239
-5.3679902
-5.2921967
-5.2328863
-5.1890426
-5.1518926
1.8768855
1.8661119
1.8601536
1.8523668
1.8435055
1.8345471
1.8255544
1.816534
1.8074944
1.7982199
1.7882368
1.7764618
1.7613849
1.7408734
1.7120736
1.6713321
1.6140885
1.534707
1.4269466
1.2818396
1.090015
0.83969972
0.51656452
0.1028349
-0.42423719
-1.0938636
-1.9431558
-3.0223444
-4.3896359
-6.1005595
-8.0284667
-9.9420359
-11.622896
-14.17917
-17.520808
-20.975657
-28.079701
-27.359972
-1.9791674
14.116708
61.77513
-24.584284
1733.5281
3495.3992
6177.3488
6375.4903
6173.9979
6104.8925
6208.0138
6284.8112
6367.0368
6431.7923
6407.4724
6388.5956
6637.9983
5906.7029
2131.2897
630.73152
-42.673723
-4.7784238
-8.5745382
-21.661525
-43.872201
-65.831633
-71.649911
-64.136027
-47.239941
-35.934404
-30.365838
-26.853978
-23.791238
-21.191446
-19.027167
-17.199981
-15.628186
-14.262278
-13.065726
-12.021404
-11.10508
-10.299678
-9.5908245
-8.9662224
-8.4155658
-7.9298576
-7.5012002
-7.1228196
-6.7889044
-6.4944538
-6.2351782
-6.0073778
-5.8078189
-5.6336353
-5.4825523
-5.3525865
-5.2419996
-5.1490325
-5.07244
-5.0124118
-4.9678342
-4.9280985
1.9984446
1.9860338
1.9801489
1.9729401
1.9652143
1.9583081
1.9524861
1.9479801
1.945099
1.9439224
1.9442808
1.9452987
1.9456449
1.943301
1.9354426
1.9182998
1.8871233
1.8360632
1.7583245
1.6449256
1.4853085
1.2672876
0.97529907
0.58964677
0.084266907
-0.57635051
-1.4397278
-2.5750302
-4.0679718
-6.1088203
-8.6569557
-11.770073
-15.013661
-20.367871
-23.994976
-24.776475
-18.462988
19.664352
-17.121435
-7.7775523
-29.776624
2432.5397
6350.2387
6392.1724
6139.4964
6069.0203
6006.3742
5969.8982
6016.0515
6052.237
6091.5054
6120.8805
6116.0854
6108.3222
6108.223
5971.1264
5879.999
5319.0893
686.10994
-50.766054
-27.138163
-25.918297
-41.914023
-56.2864
-60.506033
-48.045495
-40.616653
-34.440552
-31.423869
-28.011853
-24.664839
-21.903712
-19.573038
-17.590988
-15.889004
-14.415464
-13.135189
-12.021694
-11.050629
-10.202223
-9.4598214