/*--------------------------------*- C++ -*----------------------------------*\
  =========                 |
  \\      /  F ield         | OpenFOAM: The Open Source CFD Toolbox
   \\    /   O peration     | Website:  https://openfoam.org
    \\  /    A nd           | Version:  9
     \\/     M anipulation  |
\*---------------------------------------------------------------------------*/
FoamFile
{
    format      ascii;
    class       volVectorField;
    location    "0.48";
    object      U;
}
// * * * * * * * * * * * * * * * * * * * * * * * * * * * * * * * * * * * * * //

dimensions      [0 1 -1 0 0 0 0];

internalField   nonuniform List<vector> 
10000
(
(0.0021435804 -0.00025746564 0)
(0.0026197443 -0.00019922557 0)
(0.0038097555 -0.00014172223 0)
(0.0040837308 -3.0784933e-05 0)
(0.0049401878 7.2086298e-05 0)
(0.0055755221 0.00020340989 0)
(0.0062597502 0.00033801493 0)
(0.0069677493 0.00048221516 0)
(0.0077043196 0.00060274722 0)
(0.0084488337 0.00070142914 0)
(0.0092197148 0.00077623711 0)
(0.010025334 0.00082082176 0)
(0.010899283 0.00083489033 0)
(0.011860272 0.00077825725 0)
(0.012882115 0.00065328278 0)
(0.013951541 0.00047227702 0)
(0.015087231 0.00026139643 0)
(0.016299263 5.86774e-06 0)
(0.017589641 -0.00027388607 0)
(0.019048038 -0.00056049691 0)
(0.020733963 -0.00087920171 0)
(0.022648259 -0.0012188079 0)
(0.024830648 -0.0015692778 0)
(0.027281166 -0.0019462083 0)
(0.029995913 -0.0023349169 0)
(0.032974909 -0.0027224456 0)
(0.036209817 -0.0030832139 0)
(0.039701826 -0.0034004544 0)
(0.043404626 -0.0036707622 0)
(0.047269857 -0.0038708956 0)
(0.051246254 -0.003991883 0)
(0.055253228 -0.0040189748 0)
(0.059205727 -0.0039518557 0)
(0.062972629 -0.0037591943 0)
(0.066458421 -0.0034362662 0)
(0.069506538 -0.0029742301 0)
(0.071939263 -0.0023316244 0)
(0.073701056 -0.0014494566 0)
(0.074777549 -0.00032319677 0)
(0.075150332 0.0009450467 0)
(0.07471268 0.0022750772 0)
(0.073372546 0.0036699116 0)
(0.071124343 0.0050875339 0)
(0.06804047 0.0064948857 0)
(0.064205981 0.0078073058 0)
(0.059708444 0.0089619506 0)
(0.054673811 0.0098926984 0)
(0.049251316 0.010562215 0)
(0.043616434 0.010924565 0)
(0.037998184 0.010969711 0)
(0.032582452 0.010674582 0)
(0.027551761 0.01006186 0)
(0.023112885 0.0091353833 0)
(0.019456831 0.0079419058 0)
(0.016714518 0.0065324108 0)
(0.015012069 0.0049708779 0)
(0.014437589 0.0033174531 0)
(0.015014048 0.0016390941 0)
(0.01657758 -3.2051133e-05 0)
(0.019084143 -0.0014586498 0)
(0.0226034 -0.0026128344 0)
(0.026931135 -0.0035513183 0)
(0.031849679 -0.0042362716 0)
(0.037128697 -0.004669451 0)
(0.042540067 -0.0048283051 0)
(0.047881002 -0.004746235 0)
(0.052936619 -0.0044394701 0)
(0.057545764 -0.0039437847 0)
(0.06156159 -0.003286839 0)
(0.064881847 -0.0025097864 0)
(0.067429593 -0.0016426802 0)
(0.06912654 -0.00072177802 0)
(0.069946556 0.00026906833 0)
(0.070119483 0.0013721532 0)
(0.069813854 0.0023970367 0)
(0.068924694 0.0032581478 0)
(0.067422375 0.0039743903 0)
(0.06537868 0.0045667881 0)
(0.062879471 0.005036137 0)
(0.059997606 0.0053876597 0)
(0.056814847 0.0056323112 0)
(0.053415406 0.0057741553 0)
(0.049868358 0.0058204159 0)
(0.046233604 0.0057872422 0)
(0.042573128 0.0056873026 0)
(0.038935595 0.0055258492 0)
(0.035357072 0.0053174337 0)
(0.031871639 0.0050657252 0)
(0.028503212 0.0047890348 0)
(0.025266204 0.0044972761 0)
(0.022183431 0.0042013949 0)
(0.01926309 0.0039032028 0)
(0.016508109 0.0036167495 0)
(0.013912745 0.0033413623 0)
(0.011446654 0.0030858743 0)
(0.0091485077 0.0028541395 0)
(0.0069727629 0.0026581821 0)
(0.0046338379 0.0024813243 0)
(0.0036240344 0.0023537228 0)
(0.00016213207 0.0022305224 0)
(0.0021997356 -0.0011487247 0)
(0.002738132 -0.0010349704 0)
(0.0039781491 -0.00094526942 0)
(0.0042936627 -0.00077203943 0)
(0.0051677907 -0.00061769631 0)
(0.0058320738 -0.00043628271 0)
(0.0065265825 -0.00025841055 0)
(0.0072180964 -8.3912505e-05 0)
(0.0079076994 5.2815534e-05 0)
(0.0086059018 0.00014839058 0)
(0.0093230196 0.00020201066 0)
(0.010069664 0.00018888904 0)
(0.010845698 0.00012476377 0)
(0.011672798 -4.5967425e-05 0)
(0.012577441 -0.00031117088 0)
(0.013570524 -0.00068227172 0)
(0.01464212 -0.0011223024 0)
(0.015795326 -0.001635103 0)
(0.01706476 -0.0022057213 0)
(0.018494936 -0.0027913122 0)
(0.02013779 -0.0034163122 0)
(0.02202818 -0.0040792197 0)
(0.024177444 -0.0047850852 0)
(0.026590022 -0.0055216156 0)
(0.029289891 -0.0062655456 0)
(0.032288384 -0.0070089003 0)
(0.035579169 -0.0077154403 0)
(0.039141433 -0.0083590823 0)
(0.042939836 -0.0089189507 0)
(0.046941318 -0.0093430545 0)
(0.051088645 -0.0096020531 0)
(0.055287508 -0.0096624602 0)
(0.059465577 -0.0094891972 0)
(0.063492339 -0.0090349721 0)
(0.06724501 -0.00828618 0)
(0.070594887 -0.0072199707 0)
(0.073408306 -0.0058266282 0)
(0.075594907 -0.0040573546 0)
(0.076994643 -0.0019338207 0)
(0.077498555 0.0004515845 0)
(0.077096398 0.0029487659 0)
(0.075755477 0.0054860722 0)
(0.073444041 0.0080080469 0)
(0.070201664 0.010422282 0)
(0.066092911 0.012613621 0)
(0.06123439 0.014493425 0)
(0.055771565 0.015961165 0)
(0.049873588 0.016918738 0)
(0.043739984 0.017341016 0)
(0.037604024 0.017174271 0)
(0.03167374 0.016409813 0)
(0.026150041 0.015063449 0)
(0.021267895 0.013176253 0)
(0.017244705 0.010818016 0)
(0.014215353 0.0080627745 0)
(0.012310677 0.0050530321 0)
(0.011632266 0.0018939398 0)
(0.012168751 -0.001328092 0)
(0.013934979 -0.0044164187 0)
(0.016890794 -0.0071064451 0)
(0.020819761 -0.0093263351 0)
(0.02554608 -0.011073506 0)
(0.030901157 -0.012276537 0)
(0.036647358 -0.012936926 0)
(0.042528037 -0.013034544 0)
(0.048308552 -0.012612037 0)
(0.053768241 -0.011710395 0)
(0.058727884 -0.010399216 0)
(0.06302245 -0.0087649827 0)
(0.066538846 -0.0068881788 0)
(0.069210505 -0.0048462121 0)
(0.071010551 -0.0027113218 0)
(0.071993181 -0.00051331753 0)
(0.072181666 0.001750225 0)
(0.071620312 0.0038685004 0)
(0.070416263 0.0057202303 0)
(0.068645716 0.0072988572 0)
(0.066361221 0.0086155856 0)
(0.063631771 0.0096777486 0)
(0.060539312 0.010497867 0)
(0.057163624 0.011095065 0)
(0.053582955 0.011488031 0)
(0.049875019 0.011697248 0)
(0.046104674 0.011740444 0)
(0.042325329 0.011642608 0)
(0.038588286 0.01142268 0)
(0.034927167 0.011099201 0)
(0.031377589 0.010695836 0)
(0.027971218 0.010232649 0)
(0.024715034 0.0097249189 0)
(0.021624875 0.009198703 0)
(0.018710852 0.0086613946 0)
(0.0159745 0.0081319921 0)
(0.013404746 0.0076179282 0)
(0.010977205 0.0071371872 0)
(0.0087343463 0.0066947711 0)
(0.006610318 0.0063029014 0)
(0.0043318829 0.0059619719 0)
(0.0033747116 0.005700773 0)
(3.542793e-05 0.005437447 0)
(0.0022666846 -0.0020873261 0)
(0.0028273078 -0.001959384 0)
(0.004092101 -0.0018535735 0)
(0.0044342163 -0.0016936369 0)
(0.0053061685 -0.0015420986 0)
(0.0059721508 -0.0013724912 0)
(0.0066531835 -0.0012245914 0)
(0.007323504 -0.0010996142 0)
(0.0079844141 -0.00099347136 0)
(0.0086489649 -0.00092983073 0)
(0.0093129165 -0.00091222463 0)
(0.010002259 -0.00095619458 0)
(0.010718368 -0.0010679269 0)
(0.011477724 -0.0012627608 0)
(0.012297055 -0.001541007 0)
(0.013187976 -0.001929615 0)
(0.014176861 -0.0024208304 0)
(0.015252492 -0.0030072283 0)
(0.01646426 -0.0036803965 0)
(0.017861784 -0.0044287027 0)
(0.019463939 -0.0052458801 0)
(0.021291799 -0.0061378134 0)
(0.023395104 -0.0070912065 0)
(0.025803912 -0.0080934318 0)
(0.028510314 -0.0091117399 0)
(0.03152825 -0.010122512 0)
(0.034868873 -0.011089296 0)
(0.038519862 -0.01197721 0)
(0.042461685 -0.012727318 0)
(0.046653101 -0.013283421 0)
(0.051021035 -0.01359197 0)
(0.055490594 -0.013611552 0)
(0.059993863 -0.013273585 0)
(0.06437999 -0.012525471 0)
(0.06853232 -0.011358123 0)
(0.07229144 -0.0097157411 0)
(0.075504069 -0.0076208941 0)
(0.078079014 -0.0050869722 0)
(0.079854071 -0.002174473 0)
(0.080672986 0.0010647369 0)
(0.080452895 0.004614151 0)
(0.07918574 0.0082989115 0)
(0.076835555 0.011981253 0)
(0.073416974 0.0155197 0)
(0.069008236 0.018769318 0)
(0.063710182 0.021541153 0)
(0.057649187 0.023724967 0)
(0.051048691 0.025193788 0)
(0.044141326 0.025873624 0)
(0.037179333 0.025697788 0)
(0.030432545 0.024652637 0)
(0.024131147 0.02275086 0)
(0.018537287 0.020049722 0)
(0.013878343 0.016672987 0)
(0.010372758 0.012702019 0)
(0.0081709343 0.0083464809 0)
(0.0073124924 0.0038231055 0)
(0.0079146428 -0.0006428539 0)
(0.010008508 -0.004984907 0)
(0.013417242 -0.0089176235 0)
(0.017932282 -0.01231013 0)
(0.023346852 -0.015005429 0)
(0.029427158 -0.016908545 0)
(0.035892685 -0.017988317 0)
(0.042464555 -0.018245995 0)
(0.048876126 -0.01772592 0)
(0.05488404 -0.016512236 0)
(0.060281288 -0.014714778 0)
(0.064911358 -0.012459948 0)
(0.068676943 -0.0098698586 0)
(0.071512697 -0.0070661032 0)
(0.073389186 -0.0041499508 0)
(0.074356628 -0.0012359155 0)
(0.074464075 0.0015514148 0)
(0.073754531 0.0041559314 0)
(0.07232649 0.0065301634 0)
(0.070284797 0.0086095826 0)
(0.067716975 0.010367023 0)
(0.064711509 0.011797648 0)
(0.061354758 0.012915997 0)
(0.057735482 0.013735223 0)
(0.053939134 0.01427799 0)
(0.050035256 0.014571135 0)
(0.046087891 0.014646111 0)
(0.042160319 0.014529946 0)
(0.03829477 0.014249242 0)
(0.034532878 0.01383742 0)
(0.030910731 0.013323323 0)
(0.027443203 0.012725484 0)
(0.024149656 0.01207173 0)
(0.021044611 0.011388315 0)
(0.018127431 0.010695138 0)
(0.015402446 0.010013591 0)
(0.012861525 0.0093558348 0)
(0.01047334 0.0087387631 0)
(0.0082726687 0.0081752615 0)
(0.0062064044 0.0076703589 0)
(0.0040011759 0.0072464542 0)
(0.0030877374 0.0069033372 0)
(-0.00012763655 0.0065722783 0)
(0.0023393758 -0.0027859084 0)
(0.0029477138 -0.0026245744 0)
(0.0042377855 -0.0024930665 0)
(0.0045940978 -0.0023086101 0)
(0.0054785927 -0.0021286229 0)
(0.0061414299 -0.0019304956 0)
(0.0067911703 -0.0017564639 0)
(0.0074411499 -0.0016001671 0)
(0.008070703 -0.0014803546 0)
(0.0086820086 -0.0014028202 0)
(0.0092928081 -0.0013895511 0)
(0.0099130594 -0.0014385295 0)
(0.010542031 -0.0015788899 0)
(0.01120766 -0.0018177563 0)
(0.011924303 -0.0021676294 0)
(0.01271026 -0.0026260658 0)
(0.013590292 -0.0032156735 0)
(0.014568728 -0.0039340164 0)
(0.015684176 -0.0047563585 0)
(0.016978057 -0.0057077088 0)
(0.018485316 -0.0067683977 0)
(0.020247635 -0.0079278911 0)
(0.022293221 -0.0091805493 0)
(0.024646175 -0.010503814 0)
(0.027340707 -0.011875839 0)
(0.0303913 -0.013249718 0)
(0.033801602 -0.014579916 0)
(0.037572431 -0.015808697 0)
(0.041690287 -0.016869219 0)
(0.046122003 -0.017701072 0)
(0.050798355 -0.018222715 0)
(0.055638319 -0.0183617 0)
(0.060578761 -0.018035638 0)
(0.06543014 -0.017185896 0)
(0.070072714 -0.015768968 0)
(0.074341426 -0.013750092 0)
(0.078032761 -0.011124459 0)
(0.081023115 -0.0079201842 0)
(0.083121152 -0.0041903085 0)
(0.084265288 -2.4337343e-06 0)
(0.084328327 0.0045092495 0)
(0.083149584 0.0092195274 0)
(0.080727442 0.013939531 0)
(0.077086484 0.018481413 0)
(0.072241992 0.022649895 0)
(0.066339871 0.026230289 0)
(0.05957605 0.02902581 0)
(0.052150785 0.030919349 0)
(0.044325714 0.031748649 0)
(0.03640304 0.031461338 0)
(0.028679539 0.030050981 0)
(0.021445127 0.027523707 0)
(0.015046304 0.023941881 0)
(0.0097209763 0.019399199 0)
(0.0057052332 0.014186493 0)
(0.0032616829 0.0085064055 0)
(0.0025119241 0.0025766446 0)
(0.0032683403 -0.0032897903 0)
(0.0055977725 -0.0089084282 0)
(0.009524731 -0.014039775 0)
(0.014709536 -0.018382468 0)
(0.020938185 -0.021777387 0)
(0.027912322 -0.024118296 0)
(0.035300394 -0.025336128 0)
(0.042774237 -0.02544283 0)
(0.050021181 -0.024508045 0)
(0.05675555 -0.022648454 0)
(0.062750763 -0.020021996 0)
(0.067828896 -0.01679768 0)
(0.071876248 -0.013156424 0)
(0.074854235 -0.0092856052 0)
(0.07675004 -0.0053437494 0)
(0.077592295 -0.0014738866 0)
(0.077463147 0.0021877707 0)
(0.076486256 0.0055536839 0)
(0.074760316 0.0085786106 0)
(0.072379744 0.011211833 0)
(0.06945609 0.013425943 0)
(0.066098 0.015219157 0)
(0.062405142 0.016606278 0)
(0.058465035 0.017609469 0)
(0.054370363 0.018259593 0)
(0.050205143 0.018590662 0)
(0.046034218 0.018641869 0)
(0.041907479 0.018450229 0)
(0.037881884 0.01805558 0)
(0.033994245 0.017495904 0)
(0.030265348 0.016803045 0)
(0.026724108 0.01601218 0)
(0.023386123 0.015159713 0)
(0.020259159 0.014271951 0)
(0.017348197 0.013374398 0)
(0.014647205 0.012483077 0)
(0.012140655 0.01163226 0)
(0.0098058142 0.010836759 0)
(0.0076756544 0.010109441 0)
(0.0056905777 0.0094581009 0)
(0.0035658064 0.0089069625 0)
(0.0027196969 0.0084627928 0)
(-0.00031845784 0.0080294652 0)
(0.0024451526 -0.0035355311 0)
(0.0030954605 -0.0033304548 0)
(0.0044041525 -0.0031822471 0)
(0.0047880601 -0.0029607827 0)
(0.0056742827 -0.0027499341 0)
(0.0063363388 -0.0025380701 0)
(0.0069751913 -0.0023335412 0)
(0.0075914507 -0.0021534558 0)
(0.0081742947 -0.002015047 0)
(0.0087327289 -0.0019250927 0)
(0.0092726096 -0.0019031281 0)
(0.0098108691 -0.0019657055 0)
(0.010340443 -0.0021318495 0)
(0.010893274 -0.0024049557 0)
(0.011497199 -0.002805369 0)
(0.012153697 -0.0033395329 0)
(0.012888198 -0.004032392 0)
(0.013736237 -0.0048719243 0)
(0.01472038 -0.0058728146 0)
(0.015885704 -0.0070123076 0)
(0.017284795 -0.0083023652 0)
(0.018924523 -0.0097276247 0)
(0.020866589 -0.011293071 0)
(0.023157265 -0.012955631 0)
(0.025812173 -0.014691804 0)
(0.028869068 -0.016452769 0)
(0.032350271 -0.018189011 0)
(0.036266643 -0.019818588 0)
(0.040604518 -0.021262829 0)
(0.045340345 -0.022429862 0)
(0.050411082 -0.023211469 0)
(0.055740292 -0.023527925 0)
(0.061245246 -0.023237183 0)
(0.066736648 -0.022291787 0)
(0.072073532 -0.020588854 0)
(0.077053023 -0.018108452 0)
(0.081451422 -0.014799896 0)
(0.085116716 -0.010714958 0)
(0.087855191 -0.005896173 0)
(0.089430475 -0.00045220776 0)
(0.089702245 0.0053861611 0)
(0.088612078 0.011469277 0)
(0.086064695 0.017585071 0)
(0.08207201 0.023485843 0)
(0.076685892 0.028902265 0)
(0.070010897 0.033598141 0)
(0.062264346 0.037283766 0)
(0.053710301 0.039789747 0)
(0.044631553 0.040929124 0)
(0.035439803 0.040625696 0)
(0.026465414 0.038861023 0)
(0.01801952 0.035646599 0)
(0.010436971 0.030986919 0)
(0.0041683612 0.025170848 0)
(-0.00045942568 0.018431414 0)
(-0.0033818014 0.011036773 0)
(-0.0044467892 0.0032893469 0)
(-0.0035582532 -0.0045555609 0)
(-0.00074864389 -0.011947233 0)
(0.0039119204 -0.018714754 0)
(0.010138973 -0.024467615 0)
(0.017532392 -0.028916677 0)
(0.025768811 -0.031929674 0)
(0.034453097 -0.033430294 0)
(0.043173753 -0.033449348 0)
(0.051558348 -0.032090219 0)
(0.059273275 -0.029523775 0)
(0.066055129 -0.025965373 0)
(0.071720545 -0.021660244 0)
(0.076143431 -0.016857456 0)
(0.079278281 -0.011800753 0)
(0.081148732 -0.0067035798 0)
(0.081831632 -0.0017507926 0)
(0.081432133 0.0029221481 0)
(0.080082673 0.0072011647 0)
(0.077919567 0.010994122 0)
(0.075067376 0.014262648 0)
(0.071662223 0.016989117 0)
(0.06783413 0.019180325 0)
(0.063693877 0.020853167 0)
(0.059344565 0.022044546 0)
(0.054882641 0.022799786 0)
(0.050386688 0.023163831 0)
(0.045924499 0.023180351 0)
(0.041556665 0.022902345 0)
(0.037328628 0.022382232 0)
(0.033274568 0.021658042 0)
(0.029425467 0.020778722 0)
(0.025801973 0.019785257 0)
(0.022414054 0.018718444 0)
(0.019265273 0.01761228 0)
(0.016346571 0.016498538 0)
(0.013669305 0.015396154 0)
(0.011223274 0.014341859 0)
(0.0089568032 0.013358234 0)
(0.006902577 0.012456375 0)
(0.0050130524 0.011653188 0)
(0.0030047337 0.010969159 0)
(0.0022317679 0.010418789 0)
(-0.00058674759 0.0098739578 0)
(0.0025743383 -0.0044666366 0)
(0.0032821422 -0.0042096226 0)
(0.0046158172 -0.0040332094 0)
(0.0050273783 -0.0037587193 0)
(0.0059038963 -0.0035094679 0)
(0.0065640739 -0.0032518656 0)
(0.0071821838 -0.0030039448 0)
(0.0077667627 -0.0027882818 0)
(0.0083086908 -0.0026057349 0)
(0.0088049619 -0.0024891624 0)
(0.0092645803 -0.0024456852 0)
(0.0096986603 -0.0024975949 0)
(0.010119525 -0.0026665516 0)
(0.010554116 -0.0029555484 0)
(0.011012691 -0.0033951506 0)
(0.011509462 -0.004006821 0)
(0.012087153 -0.0047843679 0)
(0.012761564 -0.0057426983 0)
(0.013581083 -0.0069086308 0)
(0.014589136 -0.008244404 0)
(0.015814269 -0.0097842333 0)
(0.017305249 -0.011514837 0)
(0.01911679 -0.013405043 0)
(0.021300759 -0.015443639 0)
(0.023897903 -0.017602676 0)
(0.026949762 -0.019806129 0)
(0.030492942 -0.022002619 0)
(0.034557895 -0.02409874 0)
(0.039143497 -0.02599991 0)
(0.044247612 -0.02758523 0)
(0.049787011 -0.028734751 0)
(0.055713508 -0.029298253 0)
(0.061927887 -0.029140774 0)
(0.068206823 -0.028155865 0)
(0.074407924 -0.026214509 0)
(0.080306687 -0.023282205 0)
(0.085620045 -0.0193055 0)
(0.09012971 -0.014334744 0)
(0.093587372 -0.0084260424 0)
(0.095751667 -0.0017825745 0)
(0.096453892 0.0054871 0)
(0.095549073 0.013135183 0)
(0.092930572 0.020869893 0)
(0.088566111 0.028382845 0)
(0.082488377 0.035323192 0)
(0.074827902 0.041339918 0)
(0.065843632 0.046124319 0)
(0.055839062 0.049382898 0)
(0.045163214 0.050932141 0)
(0.03429493 0.050624193 0)
(0.023628809 0.048433749 0)
(0.013488425 0.044355535 0)
(0.0044706464 0.038427534 0)
(-0.0029517985 0.031101368 0)
(-0.0085649407 0.022519278 0)
(-0.012033922 0.013040895 0)
(-0.013253144 0.0031613961 0)
(-0.012158144 -0.0067308981 0)
(-0.0087655431 -0.016138936 0)
(-0.0032133915 -0.024633569 0)
(0.0042802306 -0.031914368 0)
(0.013246438 -0.037569714 0)
(0.023170539 -0.041270592 0)
(0.033558905 -0.043001959 0)
(0.043910576 -0.042805135 0)
(0.053767372 -0.04083409 0)
(0.062728172 -0.037332736 0)
(0.07048618 -0.032595178 0)
(0.076829096 -0.026960457 0)
(0.081639544 -0.020775052 0)
(0.084914764 -0.014341491 0)
(0.08670848 -0.0079246396 0)
(0.087128851 -0.0017546969 0)
(0.086329057 0.003988486 0)
(0.084475245 0.009187978 0)
(0.081742545 0.013754221 0)
(0.078298173 0.017649392 0)
(0.074299454 0.020866748 0)
(0.069891482 0.023419331 0)
(0.065202735 0.025339148 0)
(0.060349938 0.026676155 0)
(0.055433457 0.027484616 0)
(0.050534887 0.027820855 0)
(0.045726859 0.027749745 0)
(0.041068386 0.02733146 0)
(0.036601044 0.026624179 0)
(0.03235851 0.025685006 0)
(0.02836523 0.024567169 0)
(0.024639988 0.023321056 0)
(0.021191994 0.021988023 0)
(0.018020457 0.02061558 0)
(0.015115289 0.01923949 0)
(0.012475711 0.017896704 0)
(0.010089555 0.016605673 0)
(0.0079081327 0.015400058 0)
(0.0059621698 0.014301642 0)
(0.0041976192 0.013331126 0)
(0.0023167261 0.01250427 0)
(0.0016381159 0.011835674 0)
(-0.00090231108 0.011172693 0)
(0.0027350461 -0.0053564204 0)
(0.0035044253 -0.0050448458 0)
(0.0048608621 -0.0048386917 0)
(0.005308351 -0.0045101618 0)
(0.006178808 -0.0042143059 0)
(0.0068428121 -0.0038974721 0)
(0.0074392832 -0.0035990454 0)
(0.0079913076 -0.0033212906 0)
(0.0084770398 -0.0030916392 0)
(0.0088981544 -0.0029242592 0)
(0.0092722454 -0.0028529583 0)
(0.0096021291 -0.0028784869 0)
(0.0098990288 -0.0030329767 0)
(0.010185329 -0.0033268924 0)
(0.010471381 -0.0038023341 0)
(0.010796163 -0.004462912 0)
(0.011190631 -0.0053256746 0)
(0.011656317 -0.0064047109 0)
(0.012269433 -0.0077152578 0)
(0.013067703 -0.0092626581 0)
(0.014078861 -0.011050494 0)
(0.015374788 -0.013079056 0)
(0.017014741 -0.01533423 0)
(0.019041624 -0.017776589 0)
(0.021535767 -0.020393644 0)
(0.024557317 -0.023106942 0)
(0.028145714 -0.025849995 0)
(0.032355059 -0.028523341 0)
(0.03720325 -0.030994963 0)
(0.042694326 -0.033131671 0)
(0.048796155 -0.034785849 0)
(0.055443562 -0.035737229 0)
(0.062507605 -0.035848132 0)
(0.069794357 -0.034935216 0)
(0.07709931 -0.032829071 0)
(0.084139539 -0.029452277 0)
(0.090593381 -0.024777036 0)
(0.096199238 -0.018824017 0)
(0.10061341 -0.011704786 0)
(0.10355048 -0.0035680306 0)
(0.10482646 0.0053834985 0)
(0.10420229 0.014865644 0)
(0.10151738 0.024528381 0)
(0.096721048 0.033953188 0)
(0.089826621 0.042712199 0)
(0.080976979 0.050341679 0)
(0.07045357 0.05647632 0)
(0.058626432 0.060705613 0)
(0.045922298 0.06280976 0)
(0.032918558 0.062530519 0)
(0.020108291 0.059889463 0)
(0.0078840774 0.054776745 0)
(-0.0029717899 0.04755216 0)
(-0.011914656 0.038376375 0)
(-0.018719909 0.027603042 0)
(-0.02295805 0.015719826 0)
(-0.024458947 0.0032329462 0)
(-0.023109083 -0.0092614382 0)
(-0.018908593 -0.021163378 0)
(-0.012122753 -0.031899473 0)
(-0.0030554803 -0.040988669 0)
(0.0079219033 -0.047997417 0)
(0.020087256 -0.052524936 0)
(0.032680826 -0.054472411 0)
(0.045126138 -0.053926658 0)
(0.056843117 -0.051111411 0)
(0.067351746 -0.046372616 0)
(0.076288225 -0.040128779 0)
(0.08341836 -0.032837731 0)
(0.088647469 -0.024940754 0)
(0.09201205 -0.016832866 0)
(0.093616415 -0.0088620219 0)
(0.093624436 -0.0013011414 0)
(0.092255324 0.0056351424 0)
(0.089731501 0.011832181 0)
(0.086268327 0.017211077 0)
(0.08207348 0.02173809 0)
(0.077332273 0.025421076 0)
(0.0722142 0.028292826 0)
(0.066866966 0.030403432 0)
(0.061415165 0.031820155 0)
(0.055960663 0.032614525 0)
(0.050593005 0.032861761 0)
(0.045384981 0.0326388 0)
(0.040388315 0.032018453 0)
(0.035647071 0.031069925 0)
(0.031190283 0.029862847 0)
(0.027039956 0.028458995 0)
(0.023206225 0.026919211 0)
(0.019695787 0.025290772 0)
(0.016507524 0.023626399 0)
(0.01362155 0.021965569 0)
(0.011032611 0.020351476 0)
(0.0087242732 0.018810018 0)
(0.0066513089 0.017374018 0)
(0.004836219 0.016064368 0)
(0.0032204106 0.014908351 0)
(0.0015014856 0.013924413 0)
(0.00092388985 0.013162348 0)
(-0.0012879113 0.012319497 0)
(0.002924046 -0.0063035819 0)
(0.0037746265 -0.005925342 0)
(0.0051577164 -0.0056704228 0)
(0.0056502077 -0.0052820695 0)
(0.0065155612 -0.0049103876 0)
(0.0071821786 -0.0045270876 0)
(0.0077612481 -0.004156095 0)
(0.0082772428 -0.003804578 0)
(0.008711043 -0.003506913 0)
(0.0090514118 -0.0032700979 0)
(0.0093218317 -0.0031346918 0)
(0.0095341363 -0.0031137457 0)
(0.0096916447 -0.003239052 0)
(0.0098105367 -0.0035299989 0)
(0.0099086532 -0.0040116334 0)
(0.010024228 -0.0047040509 0)
(0.010190604 -0.0056402714 0)
(0.010424721 -0.0068300995 0)
(0.010783626 -0.0082853635 0)
(0.011321659 -0.010033643 0)
(0.012073401 -0.012084889 0)
(0.013104621 -0.014435274 0)
(0.014508126 -0.017064406 0)
(0.016334929 -0.019967743 0)
(0.018665086 -0.023087734 0)
(0.021593237 -0.026394065 0)
(0.025177809 -0.029799462 0)
(0.029513967 -0.033166892 0)
(0.034639368 -0.036362366 0)
(0.040569895 -0.039215011 0)
(0.047309071 -0.041532626 0)
(0.05479052 -0.043077571 0)
(0.062881978 -0.043604116 0)
(0.071395351 -0.042886193 0)
(0.080082654 -0.040701902 0)
(0.088573312 -0.036936559 0)
(0.096481662 -0.031512832 0)
(0.10344327 -0.024484989 0)
(0.10908425 -0.015995181 0)
(0.11307465 -0.006156133 0)
(0.11511547 0.0047594301 0)
(0.11491589 0.016414051 0)
(0.11223063 0.028378882 0)
(0.1069523 0.040176106 0)
(0.099069312 0.051197321 0)
(0.088767611 0.060902926 0)
(0.076366077 0.068748177 0)
(0.062289979 0.07423355 0)
(0.047041526 0.077024109 0)
(0.031338585 0.076896582 0)
(0.015758614 0.073766233 0)
(0.00098445985 0.067533854 0)
(-0.012117059 0.058679643 0)
(-0.023114919 0.047279198 0)
(-0.031455753 0.033807444 0)
(-0.036653243 0.018903106 0)
(-0.038500882 0.0032732315 0)
(-0.036827224 -0.012362487 0)
(-0.031682781 -0.027303987 0)
(-0.023325099 -0.040856995 0)
(-0.01210704 -0.052174517 0)
(0.0014129981 -0.060781758 0)
(0.016395633 -0.066320848 0)
(0.031869993 -0.068403263 0)
(0.047005043 -0.067285168 0)
(0.061084943 -0.063300974 0)
(0.073504893 -0.056919908 0)
(0.083841294 -0.04872514 0)
(0.091861441 -0.039333999 0)
(0.09750283 -0.029324792 0)
(0.10085425 -0.019210232 0)
(0.10210066 -0.0094161669 0)
(0.10148646 -0.00026429238 0)
(0.099324969 0.0080108857 0)
(0.095917573 0.01529322 0)
(0.091519873 0.021519438 0)
(0.086386038 0.026676492 0)
(0.080739047 0.030797573 0)
(0.074767065 0.033941826 0)
(0.068632677 0.036184109 0)
(0.062474058 0.037613516 0)
(0.05639823 0.038323133 0)
(0.050492305 0.038409114 0)
(0.044826935 0.0379598 0)
(0.039452094 0.037066004 0)
(0.034406489 0.035811053 0)
(0.029716031 0.034274765 0)
(0.025396362 0.032530872 0)
(0.021452196 0.030642444 0)
(0.017884267 0.028673416 0)
(0.014684197 0.026672558 0)
(0.011831854 0.024689322 0)
(0.0093144864 0.022770862 0)
(0.0071074284 0.02094777 0)
(0.0051588535 0.019256138 0)
(0.0034970552 0.017716762 0)
(0.0020603008 0.016361794 0)
(0.00056011536 0.015189282 0)
(5.58075e-05 0.014360433 0)
(-0.0017870043 0.013293789 0)
(0.0031568423 -0.0073190386 0)
(0.0041113385 -0.0068550229 0)
(0.0055120488 -0.0065493038 0)
(0.0060679557 -0.0060785271 0)
(0.0069339453 -0.0056268619 0)
(0.0076017419 -0.0051532074 0)
(0.0081668947 -0.0046875227 0)
(0.0086459141 -0.0042465107 0)
(0.0090194356 -0.0038537083 0)
(0.009281827 -0.0035403819 0)
(0.0094433838 -0.0033097427 0)
(0.0095174672 -0.0032256989 0)
(0.0095076413 -0.0032912029 0)
(0.0094437981 -0.0035485472 0)
(0.009335325 -0.0040207148 0)
(0.0092123169 -0.0047270803 0)
(0.0091172569 -0.0057009208 0)
(0.0090724525 -0.0069905028 0)
(0.0091365158 -0.0085865632 0)
(0.0093484087 -0.010531347 0)
(0.0097661774 -0.012833598 0)
(0.01049212 -0.015508264 0)
(0.011586966 -0.018528905 0)
(0.013129861 -0.021940832 0)
(0.015226725 -0.025634536 0)
(0.017968056 -0.02961771 0)
(0.021497964 -0.033769141 0)
(0.025919291 -0.037973934 0)
(0.031287571 -0.042071874 0)
(0.037668919 -0.045849473 0)
(0.045098818 -0.049057867 0)
(0.053550162 -0.051411384 0)
(0.062888745 -0.05258695 0)
(0.072905274 -0.052270372 0)
(0.083278782 -0.050153159 0)
(0.093583977 -0.046066193 0)
(0.10332626 -0.039846149 0)
(0.11201702 -0.031656752 0)
(0.11924572 -0.021580432 0)
(0.12460072 -0.0097897334 0)
(0.12768165 0.0034280969 0)
(0.1280945 0.017687025 0)
(0.12553486 0.032469128 0)
(0.11977764 0.047168769 0)
(0.11077471 0.061045226 0)
(0.098728168 0.073365618 0)
(0.083961709 0.083397164 0)
(0.067037766 0.090500667 0)
(0.048641912 0.09421656 0)
(0.029607501 0.094280807 0)
(0.010593326 0.090625522 0)
(-0.0074050186 0.083233757 0)
(-0.023450153 0.072281931 0)
(-0.037038756 0.05814634 0)
(-0.047370421 0.041481067 0)
(-0.053786002 0.02295581 0)
(-0.056040331 0.0034304095 0)
(-0.054021169 -0.016164118 0)
(-0.047748382 -0.034906146 0)
(-0.037351366 -0.051871796 0)
(-0.02334693 -0.066093913 0)
(-0.0065996626 -0.076770595 0)
(0.012089459 -0.083356723 0)
(0.031351675 -0.085488357 0)
(0.049898557 -0.08347165 0)
(0.066916313 -0.077830664 0)
(0.081668818 -0.069256997 0)
(0.093647885 -0.058530287 0)
(0.10262245 -0.04646035 0)
(0.10859274 -0.033823527 0)
(0.11174643 -0.0212865 0)
(0.11238975 -0.0093577338 0)
(0.11088145 0.0015957286 0)
(0.10764774 0.011348921 0)
(0.10308095 0.019787413 0)
(0.097499922 0.026874321 0)
(0.091208421 0.032634938 0)
(0.084464467 0.037137176 0)
(0.077478305 0.040475341 0)
(0.0704267 0.042762316 0)
(0.063453696 0.04411458 0)
(0.056667623 0.044647613 0)
(0.050152817 0.044478381 0)
(0.043976153 0.043715977 0)
(0.038184523 0.042466112 0)
(0.032809932 0.040827957 0)
(0.027871777 0.038891683 0)
(0.023376131 0.03673936 0)
(0.019323194 0.034444202 0)
(0.015706259 0.032076493 0)
(0.012508002 0.02969083 0)
(0.0097083472 0.027340457 0)
(0.007283319 0.025082044 0)
(0.0052034602 0.022942366 0)
(0.0034153384 0.020968658 0)
(0.0019411964 0.019180445 0)
(0.00069507502 0.017620505 0)
(-0.00051148587 0.016210228 0)
(-0.00095150791 0.01533538 0)
(-0.0023989556 0.014051409 0)
(0.0034372366 -0.008410203 0)
(0.0045162877 -0.0078401667 0)
(0.0059419175 -0.0074799406 0)
(0.006572009 -0.0069020902 0)
(0.007441244 -0.0063570023 0)
(0.0081268845 -0.0057766004 0)
(0.0086737321 -0.0051951662 0)
(0.0091182742 -0.004637869 0)
(0.0094256855 -0.0041243703 0)
(0.0096086256 -0.0036945119 0)
(0.0096535853 -0.0033642708 0)
(0.0095751498 -0.0031754198 0)
(0.0093976683 -0.0031592698 0)
(0.0091166623 -0.0033438342 0)
(0.0087737865 -0.003776546 0)
(0.0083962351 -0.0044798225 0)
(0.0079888895 -0.0054864833 0)
(0.0076109262 -0.0068289499 0)
(0.0073250878 -0.0085572689 0)
(0.0071676875 -0.010683049 0)
(0.0072010688 -0.013224634 0)
(0.007524332 -0.016211081 0)
(0.00820073 -0.019658872 0)
(0.009364621 -0.023581857 0)
(0.011131708 -0.02791307 0)
(0.013608608 -0.032667972 0)
(0.016976226 -0.037701922 0)
(0.021370566 -0.042912459 0)
(0.026931649 -0.048116373 0)
(0.033769227 -0.053066986 0)
(0.041957962 -0.057448449 0)
(0.051490472 -0.060916968 0)
(0.062269094 -0.063047386 0)
(0.074094227 -0.063426679 0)
(0.086568335 -0.061581647 0)
(0.099185704 -0.057191717 0)
(0.1112287 -0.050208537 0)
(0.12207838 -0.040711368 0)
(0.13133192 -0.028861196 0)
(0.13845879 -0.014840125 0)
(0.14295409 0.0010922352 0)
(0.14430224 0.018471619 0)
(0.1420357 0.036726373 0)
(0.1358273 0.055030082 0)
(0.12554504 0.072501598 0)
(0.11136919 0.088110129 0)
(0.093716594 0.10093378 0)
(0.0732733 0.11012816 0)
(0.050894929 0.11512205 0)
(0.027682887 0.1155112 0)
(0.0045115314 0.11123716 0)
(-0.017606101 0.10239107 0)
(-0.037485154 0.088973507 0)
(-0.054229479 0.071569423 0)
(-0.066992141 0.050934154 0)
(-0.075075644 0.027962136 0)
(-0.078013935 0.0036676499 0)
(-0.075583955 -0.020811445 0)
(-0.067831359 -0.044289318 0)
(-0.054961974 -0.065569934 0)
(-0.03746741 -0.083474355 0)
(-0.016326337 -0.096815138 0)
(0.0072078147 -0.10466489 0)
(0.031303766 -0.1066256 0)
(0.054253276 -0.10322607 0)
(0.074934089 -0.09526948 0)
(0.092480996 -0.083741408 0)
(0.10635149 -0.06969072 0)
(0.11631639 -0.054194457 0)
(0.12244983 -0.038278912 0)
(0.12510338 -0.022791734 0)
(0.12477086 -0.0083509759 0)
(0.12198637 0.0046188513 0)
(0.11731739 0.015984317 0)
(0.11125265 0.025619767 0)
(0.10418805 0.033541657 0)
(0.096480951 0.03983746 0)
(0.088423847 0.044627314 0)
(0.080249615 0.048053056 0)
(0.072142576 0.050268301 0)
(0.064244222 0.05142281 0)
(0.056661217 0.051662177 0)
(0.049473601 0.05112682 0)
(0.042740291 0.049948798 0)
(0.036501432 0.048247782 0)
(0.030779844 0.04613838 0)
(0.025584083 0.043719535 0)
(0.02091326 0.041083125 0)
(0.016760886 0.038314997 0)
(0.013108903 0.035488528 0)
(0.0099312865 0.032668184 0)
(0.0072107124 0.029905418 0)
(0.0049086561 0.027267772 0)
(0.0029878833 0.024778993 0)
(0.0013926185 0.02249872 0)
(0.00014911464 0.020430407 0)
(-0.0009063647 0.018657782 0)
(-0.0017335141 0.016994548 0)
(-0.0020855575 0.016047055 0)
(-0.0031189658 0.014569346 0)
(0.0037810015 -0.0095925154 0)
(0.0050108431 -0.0088847766 0)
(0.0064574155 -0.0084608445 0)
(0.0071896374 -0.0077721041 0)
(0.0080592463 -0.0071019999 0)
(0.0087693147 -0.0063987521 0)
(0.0093118198 -0.0056780582 0)
(0.0097249691 -0.0049790144 0)
(0.0099737281 -0.0043157226 0)