/*--------------------------------*- C++ -*----------------------------------*\
  =========                 |
  \\      /  F ield         | OpenFOAM: The Open Source CFD Toolbox
   \\    /   O peration     | Website:  https://openfoam.org
    \\  /    A nd           | Version:  9
     \\/     M anipulation  |
\*---------------------------------------------------------------------------*/
FoamFile
{
    format      ascii;
    class       volScalarField;
    location    "0.005";
    object      p;
}
// * * * * * * * * * * * * * * * * * * * * * * * * * * * * * * * * * * * * * //

dimensions      [1 -1 -2 0 0 0 0];

internalField   nonuniform List<scalar> 
100
(
100000
100000
100000
100000
100000
100000
100000
100000
100000
100000
100000
100000
100000
100000
100000
100000
100000
100000
99999.8
99999.5
99998.3
99994.8
99984.9
99958.4
99891.8
99734.8
99391.4
98701.1
97443.6
95498.4
92915.6
89759.3
86173
82328.9
78380.1
74437.9
70575.5
66834.5
63245.8
59811.7
56569.9
53473.8
50594.3
47889.1
45356.1
43022.3
40880.6
38924.5
37165.1
35584.4
34250.2
33112.2
32143.9
31434.7
30847.7
30507.4
30354.8
30274.3
30273.5
30276
30287.3
30322.8
30427.6
30331.2
30346.3
30368.6
30359.1
30303.9
30278.1
30236.8
30096.6
30018.4
29947.9
29881
29716.1
29335.5
28507.3
26175.3
16943.6
11392.6
10235.2
10035.6
10005.3
10000.8
10000.1
10000
10000
10000
10000
10000
10000
10000
10000
10000
10000
10000
10000
10000
10000
10000
)
;

boundaryField
{
    sides
    {
        type            zeroGradient;
    }
    empty
    {
        type            empty;
    }
}


// ************************************************************************* //
