/*--------------------------------*- C++ -*----------------------------------*\
  =========                 |
  \\      /  F ield         | OpenFOAM: The Open Source CFD Toolbox
   \\    /   O peration     | Website:  https://openfoam.org
    \\  /    A nd           | Version:  9
     \\/     M anipulation  |
\*---------------------------------------------------------------------------*/
FoamFile
{
    format      ascii;
    class       surfaceScalarField;
    location    "0.005";
    object      phi;
}
// * * * * * * * * * * * * * * * * * * * * * * * * * * * * * * * * * * * * * //

dimensions      [1 0 -1 0 0 0 0];

internalField   nonuniform List<scalar> 
99
(
5.52092e-12
1.94689e-12
2.20979e-12
4.91696e-12
6.96332e-12
4.05294e-11
1.99712e-10
9.45604e-10
4.36938e-09
1.96567e-08
8.59451e-08
3.64915e-07
1.50322e-06
6.00059e-06
2.31847e-05
8.65843e-05
0.000312095
0.00108398
0.00362132
0.0116126
0.0356633
0.104612
0.2922
0.774319
1.9381
4.55705
10.0003
20.3584
37.8803
62.225
92.5172
127.315
164.546
202.245
238.924
273.638
305.864
335.333
362.024
385.668
407.099
424.972
440.642
455.393
465.082
473.479
482.86
488.73
490.201
491.167
495.151
498.056
497.112
494.443
491.116
491.058
491.405
491.643
491.614
490.945
487.963
477.217
441.242
386.548
352.585
331.437
318.787
312.033
309.278
307.125
304.769
304.069
304.694
306.229
305.277
298.67
276.562
221.345
49.1252
9.54878
1.48191
0.220683
0.0326736
0.00483499
0.000715366
0.000105682
1.55614e-05
2.27989e-06
3.31796e-07
4.78959e-08
6.85004e-09
9.69932e-10
1.35921e-10
1.87153e-11
2.45937e-12
2.69118e-13
8.88178e-15
0
0
)
;

boundaryField
{
    sides
    {
        type            calculated;
        value           nonuniform List<scalar> 2(0 -6.22652e-12);
    }
    empty
    {
        type            empty;
        value           nonuniform List<scalar> 0();
    }
}


// ************************************************************************* //
