/*--------------------------------*- C++ -*----------------------------------*\
  =========                 |
  \\      /  F ield         | OpenFOAM: The Open Source CFD Toolbox
   \\    /   O peration     | Website:  https://openfoam.org
    \\  /    A nd           | Version:  9
     \\/     M anipulation  |
\*---------------------------------------------------------------------------*/
FoamFile
{
    format      ascii;
    class       volScalarField;
    location    "0.005";
    object      T;
}
// * * * * * * * * * * * * * * * * * * * * * * * * * * * * * * * * * * * * * //

dimensions      [0 0 0 1 0 0 0];

internalField   nonuniform List<scalar> 
100
(
348.432
348.432
348.432
348.432
348.432
348.432
348.432
348.432
348.432
348.432
348.432
348.432
348.432
348.432
348.432
348.432
348.432
348.432
348.432
348.431
348.43
348.427
348.417
348.39
348.324
348.167
347.824
347.132
345.863
343.88
341.202
337.858
333.956
329.644
325.063
320.325
315.508
310.657
305.852
300.932
296.605
290.949
288.073
282.102
277.837
275.46
270.678
265.49
263.082
261.722
258.783
254.584
252.274
252.14
252.3
252.173
251.581
251.022
250.992
251.198
252.197
255.829
268.152
301.231
337.682
364.944
382.628
392.792
398.095
400.616
400.996
400.95
400.159
397.43
394.566
391.777
387.709
378.224
333.002
290.228
280.641
279.03
278.788
278.752
278.747
278.746
278.746
278.746
278.746
278.746
278.746
278.746
278.746
278.746
278.746
278.746
278.746
278.746
278.746
278.746
)
;

boundaryField
{
    sides
    {
        type            zeroGradient;
    }
    empty
    {
        type            empty;
    }
}


// ************************************************************************* //
