/*--------------------------------*- C++ -*----------------------------------*\
  =========                 |
  \\      /  F ield         | OpenFOAM: The Open Source CFD Toolbox
   \\    /   O peration     | Website:  https://openfoam.org
    \\  /    A nd           | Version:  9
     \\/     M anipulation  |
\*---------------------------------------------------------------------------*/
FoamFile
{
    format      ascii;
    class       volVectorField;
    location    "0.005";
    object      U;
}
// * * * * * * * * * * * * * * * * * * * * * * * * * * * * * * * * * * * * * //

dimensions      [0 1 -1 0 0 0 0];

internalField   nonuniform List<vector> 
100
(
(1.51416e-12 0 0)
(1.41205e-12 0 0)
(-5.48482e-13 0 0)
(1.79716e-12 0 0)
(7.17695e-13 0 0)
(3.39446e-12 0 0)
(2.04762e-11 0 0)
(9.62499e-11 0 0)
(4.54356e-10 0 0)
(2.07983e-09 0 0)
(9.27117e-09 0 0)
(4.01432e-08 0 0)
(1.68723e-07 0 0)
(6.87727e-07 0 0)
(2.71485e-06 0 0)
(1.03679e-05 0 0)
(3.82435e-05 0 0)
(0.000136067 0 0)
(0.000466076 0 0)
(0.00153427 0 0)
(0.0048427 0 0)
(0.0146213 0 0)
(0.0421025 0 0)
(0.115242 0 0)
(0.298596 0 0)
(0.728769 0 0)
(1.66558 0 0)
(3.54239 0 0)
(6.90744 0 0)
(12.1224 0 0)
(19.258 0 0)
(28.233 0 0)
(38.7989 0 0)
(50.5879 0 0)
(63.2341 0 0)
(76.4405 0 0)
(90.0009 0 0)
(103.758 0 0)
(117.637 0 0)
(131.493 0 0)
(145.391 0 0)
(159.062 0 0)
(172.645 0 0)
(185.993 0 0)
(198.953 0 0)
(211.621 0 0)
(223.787 0 0)
(235.291 0 0)
(246.172 0 0)
(256.189 0 0)
(265.172 0 0)
(273.152 0 0)
(279.912 0 0)
(285.411 0 0)
(289.248 0 0)
(291.581 0 0)
(292.949 0 0)
(293.536 0 0)
(293.96 0 0)
(294.411 0 0)
(294.741 0 0)
(295.012 0 0)
(295.157 0 0)
(294.548 0 0)
(293.253 0 0)
(292.078 0 0)
(291.313 0 0)
(291.06 0 0)
(291.313 0 0)
(291.861 0 0)
(291.97 0 0)
(291.472 0 0)
(290.536 0 0)
(288.914 0 0)
(286.203 0 0)
(281.15 0 0)
(269.728 0 0)
(236.443 0 0)
(143.871 0 0)
(36.7635 0 0)
(6.13243 0 0)
(0.938376 0 0)
(0.139589 0 0)
(0.0206662 0 0)
(0.00305839 0 0)
(0.000452088 0 0)
(6.664e-05 0 0)
(9.77885e-06 0 0)
(1.42605e-06 0 0)
(2.06357e-07 0 0)
(2.95941e-08 0 0)
(4.20238e-09 0 0)
(5.90865e-10 0 0)
(8.19764e-11 0 0)
(1.09215e-11 0 0)
(1.3362e-12 0 0)
(5.83493e-14 0 0)
(2.04036e-31 0 0)
(0 0 0)
(0 0 0)
)
;

boundaryField
{
    sides
    {
        type            zeroGradient;
    }
    empty
    {
        type            empty;
    }
}


// ************************************************************************* //
