/*--------------------------------*- C++ -*----------------------------------*\
  =========                 |
  \\      /  F ield         | OpenFOAM: The Open Source CFD Toolbox
   \\    /   O peration     | Website:  https://openfoam.org
    \\  /    A nd           | Version:  9
     \\/     M anipulation  |
\*---------------------------------------------------------------------------*/
FoamFile
{
    format      ascii;
    class       volScalarField;
    location    "0.95";
    object      alpha.phase1;
}
// * * * * * * * * * * * * * * * * * * * * * * * * * * * * * * * * * * * * * //

dimensions      [0 0 0 0 0 0 0];

internalField   nonuniform List<scalar> 
10000
(
5.4487221e-84
2.2297201e-83
9.7512101e-82
4.2169455e-81
4.7063501e-81
1.7652428e-81
5.8782082e-82
5.8788719e-82
1.9457631e-81
2.5687724e-79
3.0804734e-77
3.3017249e-75
3.2146004e-73
2.8683235e-71
2.361219e-69
1.8440039e-67
1.6132571e-65
2.8109407e-63
1.0906851e-60
5.1914852e-58
2.4307948e-55
1.0786806e-52
4.4884514e-50
1.7357597e-47
6.1747987e-45
1.9968282e-42
5.7866994e-40
1.4799403e-37
3.2924664e-35
6.294006e-33
1.0235238e-30
1.4048609e-28
1.6184416e-26
1.5593533e-24
1.2541823e-22
8.412935e-21
4.7018702e-19
2.208219e-17
9.2273815e-16
2.9390664e-14
3.835529e-13
2.7524312e-12
4.7735557e-11
8.1272959e-10
7.8305641e-09
1.546074e-06
8.7995323e-06
9.1266284e-06
9.0980183e-06
7.8410403e-06
7.7355924e-06
7.6047594e-06
7.562197e-06
5.1996397e-06
2.0631146e-06
2.0840144e-06
3.1134143e-06
3.8587858e-06
2.559136e-06
9.7636702e-07
9.6808982e-07
1.0122689e-06
2.5705147e-06
1.4876596e-06
1.7290613e-07
7.1635936e-10
7.5852895e-11
5.493807e-12
9.2310844e-13
1.6321478e-13
1.2426155e-14
5.5470292e-16
2.2363736e-17
8.4738495e-19
2.908896e-20
8.9062527e-22
2.4246574e-23
5.8477242e-25
1.2419502e-26
2.3054024e-28
3.707746e-30
5.1145887e-32
5.9811671e-34
5.8492557e-36
4.706208e-38
3.053604e-40
1.5578799e-42
6.0451371e-45
1.7040615e-47
3.2562896e-50
3.7439252e-53
2.0115425e-56
1.5492952e-60
1.6207478e-62
1.2352086e-60
7.0926066e-59
2.6502684e-57
6.8114163e-56
1.1003108e-54
5.0060003e-54
5.4487221e-84
1.821198e-82
6.4212613e-81
2.8296991e-80
3.6456666e-80
2.705802e-80
1.4419923e-80
7.3676659e-81
4.0329335e-80
5.9096037e-78
7.5381347e-76
8.5804249e-74
8.8114279e-72
8.2371936e-70
7.0566269e-68
5.5826604e-66
4.1246105e-64
3.0090603e-62
3.036523e-60
8.2585581e-58
3.6260135e-55
1.6405469e-52
7.0659474e-50
2.8517775e-47
1.0667862e-44
3.6545486e-42
1.1302051e-39
3.1063182e-37
7.4625038e-35
1.5433126e-32
2.7130966e-30
3.9954524e-28
4.8755601e-26
4.9921836e-24
4.2887272e-22
3.084797e-20
1.8674536e-18
9.9616437e-17
3.8572967e-15
6.2053629e-14
1.0552934e-12
2.4953094e-11
5.428388e-10
9.8230241e-09
2.5961622e-06
1.019468e-05
1.0229298e-05
6.5167439e-06
3.8789822e-07
2.3228919e-07
1.0698912e-06
3.7222965e-06
3.625334e-06
7.3734692e-07
7.1228063e-07
3.952455e-06
2.8643991e-05
4.38588e-05
2.1081292e-05
1.148797e-06
9.6808982e-07
9.9076036e-07
3.6615752e-06
4.896767e-06
4.6940804e-06
5.4925569e-07
1.0254212e-09
7.1137809e-11
5.3224346e-12
4.2858187e-13
5.566885e-14
3.3144238e-15
1.1805425e-16
3.9935226e-18
1.2763164e-19
3.7099914e-21
9.6820949e-23
2.2449215e-24
4.5755119e-26
8.1150698e-28
1.2402163e-29
1.6159104e-31
1.774017e-33
1.6197276e-35
1.212191e-37
7.3243409e-40
3.5304964e-42
1.1499097e-44
2.5476918e-47
3.5530658e-50
2.7801914e-53
1.7023888e-56
5.4805106e-60
2.7479433e-59
2.1556937e-57
1.1074474e-55
3.9924509e-54
7.4924149e-53
3.8356379e-52
4.4209205e-52
3.1181256e-81
2.3373355e-79
5.653904e-78
1.9206554e-77
2.2422982e-77
1.6090445e-77
8.246261e-78
4.0428568e-78
1.6445339e-77
2.5044237e-75
3.2872002e-73
3.8300326e-71
4.008462e-69
3.8060873e-67
3.303144e-65
2.6379639e-63
1.9493353e-61
1.3387655e-59
8.5753869e-58
5.1654847e-56
3.0892439e-54
2.6084476e-52
5.827436e-50
2.3449957e-47
9.1755594e-45
3.2949734e-42
1.0637095e-39
3.0538899e-37
7.7020781e-35
1.6889731e-32
3.1869801e-30
5.1779805e-28
7.2515139e-26
8.4818224e-24
8.2271625e-22
6.6083052e-20
4.5043486e-18
2.952547e-16
9.9857693e-15
7.5566075e-14
2.1157848e-12
6.0096247e-11
1.4544633e-09
2.384277e-07
7.6113476e-06
1.025898e-05
6.7440619e-06
5.0724769e-08
5.0587902e-08
5.0587993e-08
5.058177e-08
5.0574397e-08
5.1059932e-08
6.8447583e-08
1.1422571e-07
3.7768979e-05
5.2827525e-05
5.2942719e-05
5.2905104e-05
3.6137622e-05
2.042959e-06
1.0133517e-06
1.1443642e-06
4.4509018e-06
4.702718e-06
2.1375211e-06
7.9606399e-09
5.9588281e-10
3.2891546e-11
1.8439327e-12
1.5124081e-13
1.3563284e-14
5.6969179e-16
1.6982569e-17
4.9291063e-19
1.3378171e-20
3.2648074e-22
7.0557859e-24
1.3371081e-25
2.2000444e-27
3.1114147e-29
3.7412278e-31
3.7783423e-33
3.1603135e-35
2.155648e-37
1.1228968e-39
4.1405848e-42
1.335637e-44
3.1085478e-47
4.7867484e-50
4.1573407e-53
8.8027594e-57
3.1305506e-58
3.3378582e-56
2.2721391e-54
1.06198e-52
3.4476872e-51
5.7229715e-50
2.9157395e-49
3.8494204e-49
1.693489e-78
1.7665883e-76
3.2021215e-75
8.9116791e-75
9.7829961e-75
6.8939917e-75
3.4506746e-75
1.6574787e-75
5.5929728e-75
8.9037991e-73
1.2114952e-70
1.453328e-68
1.5589949e-66
1.5106466e-64
1.334468e-62
1.0815861e-60
8.091333e-59
5.6163863e-57
3.6313073e-55
2.1974423e-53
1.2487099e-51
6.5931174e-50
3.1937747e-48
1.5177484e-46
9.6687393e-45
1.2945452e-42
3.3188368e-40
1.1605285e-37
3.5492617e-35
9.0652218e-33
1.959329e-30
3.5204443e-28
5.1716546e-26
6.2968371e-24
6.3554663e-22
5.3038189e-20
3.6825027e-18
2.2073647e-16
1.0073398e-14
2.1803487e-13
3.1579948e-12
8.5492838e-11
1.9471209e-09
1.0332809e-07
6.3090722e-06
9.8476099e-06
5.2007759e-08
5.0895493e-08
5.2191558e-08
5.0588159e-08
5.0587026e-08
5.1808672e-08
3.613994e-07
1.142256e-07
4.4018477e-06
2.9031607e-05
5.0915433e-05
5.2845047e-05
5.2941586e-05
5.2273814e-05
4.5019007e-05
6.7414365e-06
1.2754413e-06
1.6507852e-06
4.4946352e-06
3.9117077e-06
5.7080466e-07
2.9566275e-09
1.6274875e-10
7.9804087e-12
4.0018461e-13
3.8771871e-14
1.9904396e-15
5.7817534e-17
1.5154515e-18
3.7789573e-20
8.505961e-22
1.6945201e-23
2.9588254e-25
4.4863361e-27
5.8505835e-29
6.4564435e-31
5.725075e-33
3.959252e-35
2.154446e-37
9.9706995e-40
3.8186345e-42
9.2816632e-45
1.4257875e-47
1.0992305e-50
2.2749316e-54
3.3437904e-57
3.2301651e-55
2.8930013e-53
1.749419e-51
7.548952e-50
2.2379249e-48
3.3195032e-47
1.6239264e-46
2.2877758e-46
6.6570075e-76
7.8732941e-74
1.2463285e-72
3.1153333e-72
3.2882728e-72
2.299798e-72
1.1346978e-72
5.3557444e-73
1.5076563e-72
2.5502356e-70
3.6380192e-68
4.5265892e-66
5.0012056e-64
4.9671325e-62
4.477597e-60
3.6918346e-58
2.8007955e-56
1.9662505e-54
1.2828354e-52
7.810449e-51
4.4572644e-49
2.3660575e-47
1.1434332e-45
5.1865674e-44
2.7114001e-42
1.931928e-40
9.9080954e-39
2.4878551e-37
6.6085961e-36
9.5426909e-34
2.645563e-31
5.6626575e-29
9.8569703e-27
1.4213525e-24
1.6823436e-22
1.6217925e-20
1.2747534e-18
8.3951884e-17
4.4935394e-15
1.2451818e-13
1.7043397e-12
4.6353582e-11
1.1098813e-09
3.4242817e-07
2.9567021e-06
2.1634788e-06
6.7856107e-08
7.239286e-08
8.7908626e-08
5.199257e-08
5.1083942e-08
5.0754924e-08
8.7566558e-07
6.8696473e-06
1.5000048e-05
7.8333287e-06
5.7397393e-06
1.5576293e-05
1.1253415e-05
3.2366863e-05
5.7235197e-05
5.9263247e-05
3.0276947e-05
1.9328196e-06
4.3374654e-06
4.7927534e-06
2.2782277e-06
9.0898577e-09
5.0199677e-10
2.3847913e-11
1.1002833e-12
1.1476752e-13
7.3210725e-15
2.1079286e-16
4.9304301e-18
1.0937925e-19
2.1645165e-21
3.7458457e-23
5.6134376e-25
7.1974058e-27
7.7883e-29
7.0517969e-31
5.6826031e-33
3.9653372e-35
2.1643385e-37
8.3566036e-40
2.1632137e-42
3.495855e-45
2.7800349e-48
6.1918677e-52
1.1551645e-55
2.223838e-54
2.5186915e-52
1.9427557e-50
1.0624152e-48
4.26944e-47
1.1597823e-45
1.5448432e-44
7.1368932e-44
1.0348615e-43
2.0178629e-73
2.5092375e-71
3.7098467e-70
8.7407347e-70
8.9880099e-70
6.2756002e-70
3.0689137e-70
1.4187289e-70
3.1579818e-70
5.8550939e-68
8.9152922e-66
1.1631349e-63
1.3323546e-61
1.3621637e-59
1.2570315e-57
1.0564136e-55
8.1390235e-54
5.7791848e-52
3.802168e-50
2.3272066e-48
1.3295896e-46
7.0561035e-45
3.4207833e-43
1.5402176e-41
7.4733829e-40
4.8649929e-38
2.9296583e-36
8.4368802e-35
1.0619419e-33
8.6596913e-33
1.0813609e-31
5.980312e-30
1.0298447e-27
1.899866e-25
2.7538116e-23
3.2182386e-21
2.9763246e-19
2.2149212e-17
1.3185013e-15
4.8897885e-14
9.1005279e-13
3.0440046e-11
1.1049608e-09
1.9958432e-07
1.0044414e-06
1.0533878e-06
3.2214853e-07
1.9547253e-07
8.6273982e-08
5.6198512e-08
5.0400481e-08
5.1065987e-08
5.3290787e-08
1.2984182e-05
1.7945508e-05
1.2746844e-05
4.969307e-06
8.4707674e-07
4.8509532e-07
4.1683038e-07
3.7411624e-05
6.1321558e-05
6.3151896e-05
4.0067858e-05
4.9474073e-06
3.9074628e-06
1.0848095e-06
1.3256793e-08
6.3453245e-10
2.8575566e-11
1.4169471e-12
1.9532266e-13
9.6541767e-15
2.4635653e-16
5.8165399e-18
1.2662899e-19
2.4356922e-21
4.0935202e-23
5.9600966e-25
7.4378609e-27
7.8462712e-29
6.853825e-31
4.6274315e-33
2.3467628e-35
8.9114789e-38
2.325571e-40
3.6756561e-43
2.7579984e-46
5.4835274e-50
1.4820094e-53
1.2140878e-53
1.6380368e-51
1.5565141e-49
1.0589666e-47
5.3180241e-46
2.0013426e-44
4.9708385e-43
5.9559357e-42
2.5758991e-41
3.7621878e-41
5.5037696e-71
6.2857962e-69
8.9857073e-68
2.0483452e-67
2.0720616e-67
1.4490059e-67
7.0575383e-68
3.1482109e-68
4.8576618e-68
1.0596211e-65
1.7867161e-63
2.4892211e-61
2.9889326e-59
3.166771e-57
3.0055774e-55
2.5819506e-53
2.0240744e-51
1.4569313e-49
9.6728334e-48
5.9544652e-46
3.4066344e-44
1.8046941e-42
8.762242e-41
3.9659611e-39
1.8419104e-37
9.9154378e-36
5.2496314e-34
1.8096902e-32
3.3012149e-31
3.2657609e-30
2.0947251e-29
1.2716441e-28
1.6961639e-27
8.6878218e-26
7.5139525e-24
5.4847817e-22
4.1330754e-20
4.0112664e-18
3.0638871e-16
1.4676697e-14
3.8906406e-13
1.2314633e-11
5.8236831e-10
3.9670849e-08
1.4659542e-07
4.1011013e-07
4.0899122e-07
6.9623243e-08
4.1877046e-08
4.1189329e-08
3.9861357e-08
4.8883919e-08
6.5649953e-08
1.6094738e-06
1.6304154e-05
2.1808309e-05
2.0918387e-05
7.6476903e-06
4.0754887e-07
3.3292295e-07
3.9891983e-07
5.8003687e-05
6.4260753e-05
6.5213418e-05
2.6141761e-05
2.0202437e-06
5.9756077e-08
6.5388143e-09
4.6912838e-10
2.5767121e-11
1.5596861e-12
1.4855069e-13
6.0179354e-15
1.5098447e-16
3.3905416e-18
6.7612867e-20
1.1672204e-21
1.7283586e-23
2.1738977e-25
2.2909544e-27
1.9851369e-29
1.3702543e-31
7.1149096e-34
2.6760701e-36
6.8323255e-39
1.029409e-41
6.9361844e-45
1.1314809e-48
1.092401e-52
5.8166422e-53
8.7208344e-51
9.6530743e-49
7.9188078e-47
4.8395741e-45
2.2556998e-43
7.9512324e-42
1.798551e-40
1.9401523e-39
7.8220657e-39
1.1357643e-38
2.7417707e-68
1.3088125e-66
1.8372819e-65
4.1231079e-65
4.1305077e-65
2.9027988e-65
1.4231529e-65
5.7414357e-66
4.0075018e-66
1.3764156e-63
2.8152335e-61
4.3452216e-59
5.5726969e-57
6.1869931e-55
6.0827459e-53
5.3713967e-51
4.3010945e-49
3.145608e-47
2.1135957e-45
1.3109817e-43
7.5239372e-42
3.9827788e-40
1.9345543e-38
8.8043631e-37
3.9991229e-35
1.8742706e-33
8.216126e-32
3.0341998e-30
8.1861064e-29
1.1652074e-27
7.8000193e-27
3.1838861e-26
1.3310112e-25
1.5768509e-24
1.7135577e-22
8.9937012e-21
1.4825815e-19
2.187809e-18
5.2692464e-17
2.7363833e-15
1.3742971e-13
5.7965387e-12
1.2699837e-10
1.3300738e-10
2.3170174e-09
1.6945701e-07
4.0321673e-07
4.2323352e-08
4.091122e-08
3.9110998e-08
3.52313e-08
5.9772404e-08
7.4348927e-08
8.8907377e-08
5.3165404e-06
2.2844001e-05
1.6829413e-05
2.3722498e-06
3.317937e-07
3.1047976e-07
3.1266064e-07
4.0350635e-05
6.5507658e-05
6.4809715e-05
6.5791674e-05
1.0260632e-05
3.983873e-08
2.1071086e-09
1.6690615e-10
1.3333514e-11
9.3740534e-13
6.8679994e-14
2.2864614e-15
5.2556114e-17
1.0601565e-18
1.8493585e-20
2.7486226e-22
3.4481672e-24
3.6051349e-26
3.0822639e-28
2.0993406e-30
1.0963486e-32
4.1640415e-35
1.0511914e-37
1.5077242e-40
1.0161832e-43
1.6271817e-47
1.4699985e-51
5.7092805e-52
4.1071865e-50
5.0164867e-48
4.7127225e-46
3.4016611e-44
1.892991e-42
8.2355918e-41
2.708488e-39
5.5574109e-38
5.4021491e-37
2.0268666e-36
2.9038063e-36
3.4794259e-65
2.4513719e-64
3.2556399e-63
7.2811744e-63
7.2558385e-63
5.1305242e-63
2.5388048e-63
9.4613186e-64
8.1644476e-65
9.9624619e-62
3.1885402e-59
5.9047349e-57
8.3433783e-55
9.8582122e-53
1.0128843e-50
9.2429094e-49
7.5924807e-47
5.6607267e-45
3.8558195e-43
2.4141092e-41
1.392361e-39
7.3821638e-38
3.5889668e-36
1.6334536e-34
7.2486846e-33
3.1100572e-31
1.2056009e-29
4.6195561e-28
1.7214964e-26
3.2267216e-25
2.2390915e-24
7.4329949e-24
1.9501588e-23
9.6420467e-23
1.5045565e-20
9.330339e-19
1.1088014e-17
4.4817569e-17
1.5625444e-16
2.0699684e-15
3.6357155e-14
4.6769986e-13
2.4743459e-12
1.6470352e-11
1.1849253e-08
7.7060841e-07
1.6676665e-07
4.3033666e-08
4.1025368e-08
3.8097377e-08
3.590624e-08
1.6760612e-07
1.0260853e-07
1.0107096e-07
7.4221688e-06
2.3399077e-05
4.6028756e-06
3.3051711e-07
3.1007904e-07
3.0813317e-07
3.0674923e-07
2.6961364e-05
6.4849064e-05
6.5068297e-05
6.5197604e-05
2.1143248e-05
6.15441e-08
3.6396217e-09
2.3046916e-10
9.913666e-12
5.6635464e-13
2.7108859e-14
6.9269679e-16
1.3755534e-17
2.3567855e-19
3.4383765e-21
4.239347e-23
4.3670965e-25
3.6892178e-27
2.4886477e-29
1.2896694e-31
4.841573e-34
1.1978947e-36
1.7575166e-39
1.2373566e-42
6.7762662e-46
2.3681166e-49
9.6212723e-51
1.8616862e-49
2.3443961e-47
2.3798442e-45
1.9385892e-43
1.2526114e-41
6.4068335e-40
2.6072377e-38
7.9490642e-37
1.4744846e-35
1.2932469e-34
4.5139083e-34
6.3550795e-34
4.5846252e-62
5.5189817e-62
5.1163894e-61
1.14549e-60
1.1398036e-60
8.1186819e-61
4.0289276e-61
1.5037752e-61
1.0484281e-62
2.1921304e-60
1.3171809e-57
3.1670443e-55
5.1084278e-53
6.6071051e-51
7.2240614e-49
6.9045199e-47
5.8811323e-45
4.5222522e-43
3.1606527e-41
2.0204504e-39
1.187478e-37
6.4355111e-36
3.2236897e-34
1.4864198e-32
6.2371999e-31
2.4123045e-29
1.015518e-27
7.5202841e-26
5.6688312e-24
1.2304177e-22
7.3556948e-22
1.8353218e-21
3.1949339e-21
1.0105042e-20
1.4700688e-18
5.7160535e-17
4.9270433e-16
1.7034108e-15
3.7053576e-15
6.2219076e-15
9.064063e-15
1.3113063e-14
8.4034802e-12
5.8096131e-08
9.7661978e-07
9.6084386e-07
1.1298083e-07
4.9483573e-08
4.4656877e-08
4.468761e-08
3.869093e-08
9.2928415e-07
2.8188021e-07
1.4600193e-07
2.2180308e-05
2.3415241e-05
7.4473133e-06
3.2850693e-07
3.0806049e-07
3.0606675e-07
3.0667967e-07
5.7732878e-06
6.5086946e-05
6.524415e-05
6.5341911e-05
1.5186612e-05
2.9218901e-07
7.484124e-09
2.2771689e-10
7.9523009e-12
3.3159346e-13
8.4724168e-15
1.5442569e-16
2.4907452e-18
3.4761347e-20
4.1284129e-22
4.1309521e-24
3.4181113e-26
2.2734804e-28
1.1652296e-30
4.337904e-33
1.1044625e-35
1.8310705e-38
2.2522326e-41
3.4428632e-44
8.2700388e-47
6.9250381e-49
5.6285148e-49
1.0478426e-46
1.0854668e-44
9.4279835e-43
6.8135301e-41
3.99053e-39
1.8840437e-37
7.1698103e-36
2.0119158e-34
3.3636105e-33
2.6662886e-32
8.6614821e-32
1.1958459e-31
4.8350098e-59
2.5790925e-59
7.3840232e-59
1.6223885e-58
1.6198788e-58
1.1642868e-58
5.8425162e-59
2.4355435e-59
1.0969103e-60
4.2734774e-59
3.8074689e-56
2.2661229e-53
5.8598261e-51
9.2679683e-49
1.1261758e-46
1.1507369e-44
1.026075e-42
8.1443364e-41
5.8271986e-39
3.7808375e-37
2.2382575e-35
1.2123937e-33
6.0160366e-32
2.7335669e-30
1.1333356e-28
4.3304923e-27
1.7313541e-25
1.0114907e-23
6.2054657e-22
1.4225455e-20
9.3913413e-20
2.3505896e-19
3.3911668e-19
6.2130883e-19
4.1966173e-17
1.2353911e-15
9.1275796e-15
3.2626379e-14
7.3921075e-14
1.5904941e-13
1.2050078e-13
1.9949935e-13
5.886423e-12
2.8737588e-07
1.015987e-06
7.021001e-07
1.5532921e-07
4.7141179e-07
1.4180573e-07
4.4683916e-08
1.6575114e-05
3.8929633e-05
5.9386182e-06
9.1715694e-07
2.3415241e-05
2.3415241e-05
8.2633337e-06
4.9932257e-07
3.0706559e-07
3.0493981e-07
3.0606675e-07
3.0627966e-07
5.9448536e-05
6.5068297e-05
3.7942979e-05
5.8664139e-06
2.8794508e-07
5.6074387e-09
1.9176962e-10
6.6164087e-12
1.7089562e-13
2.1626992e-15
2.4581344e-17
2.8645735e-19
3.1098317e-21
2.9785068e-23
2.424779e-25
1.6218895e-27
8.6131385e-30
3.6014781e-32
1.1898037e-34
3.6421416e-37
1.3075144e-39
5.0065883e-42
2.1044586e-44
9.1096304e-47
1.7728217e-48
4.7401307e-46
4.7843597e-44
4.230764e-42
3.2080383e-40
2.0708528e-38
1.1030065e-36
4.8175929e-35
1.7068193e-33
4.3796741e-32
6.5878114e-31
4.7287547e-30
1.4314019e-29
1.9358086e-29
4.0867135e-56
1.8549239e-56
1.0563166e-56
2.0965593e-56
2.1035169e-56
1.5275957e-56
7.8587292e-57
2.8247498e-57
1.2153624e-58
1.4453754e-58
2.2541493e-56
2.3148325e-51
2.9550077e-48
7.2048265e-46
1.0526272e-43
1.1935125e-41
1.1436645e-39
9.5929119e-38
7.1889084e-36
4.872875e-34
2.9997055e-32
1.6698797e-30
8.4005519e-29
4.1088403e-27
2.4206204e-25
1.7102696e-23
7.108389e-22
1.1451876e-20
9.3241965e-20
7.3765606e-19
4.9864014e-18
1.5593507e-17
2.4509071e-17
3.2714408e-17
9.5334122e-16
4.0236512e-14
2.8924066e-13
4.8169988e-13
6.6088352e-13
5.9601467e-13
3.9625133e-13
2.4587736e-13
3.6964323e-09
8.8021034e-07
1.01423e-06
4.6432954e-07
2.4543698e-06
4.5338862e-06
1.2334336e-06
5.3540188e-08
6.7831974e-05
7.5540117e-05
3.2334427e-05
6.7967809e-06
2.3122877e-05
2.3426665e-05
4.1673759e-06
1.9384191e-06
5.0761705e-06
3.0497485e-07
3.0497485e-07
3.0730727e-07
1.5777546e-05
4.841541e-05
1.3590356e-06
4.9524577e-07
1.5445421e-07
5.4923704e-11
5.0920338e-11
4.8896426e-12
6.7012084e-14
4.2228756e-16
2.7500288e-18
2.2834809e-20
2.1240791e-22
1.9302004e-24
1.604367e-26
1.1978165e-28
8.1330638e-31
5.2035861e-33
3.0680278e-35
1.6278047e-37
7.9382292e-40
3.7223523e-42
1.7589698e-44
2.235321e-46
1.9538451e-45
2.1035942e-43
1.8215726e-41
1.3929333e-39
9.3609684e-38
5.4321379e-36
2.6388853e-34
1.0689322e-32
3.5020233e-31
8.1617782e-30
1.1036811e-28
7.1924104e-28
2.0336933e-27
2.6924585e-27
2.832447e-53
1.25204e-53
1.9518176e-54
2.5404687e-54
2.5142112e-54
1.857362e-54
8.4774721e-55
5.9575876e-56
5.4997374e-56
1.0412591e-53
4.1994781e-51
1.6239785e-48
4.6232389e-44
2.1275385e-41
3.8541564e-39
5.0207809e-37
5.4215537e-35
5.129303e-33
4.3246877e-31
3.2398962e-29
2.4092425e-27
3.3799779e-25
6.7591667e-23
2.7632132e-21
2.2998877e-20
1.2175161e-19
1.3019475e-18
8.6460111e-18
2.3627856e-17
4.2318777e-17
9.4895705e-17
2.835258e-16
7.6253138e-16
5.3773797e-15
3.4336924e-14
3.0025416e-13
4.2062582e-12
3.6680083e-12
2.1112766e-12
8.1585954e-13
4.669038e-13
3.6597787e-13
3.6596127e-13
7.7952387e-07
6.2390129e-07
9.4173401e-07
4.8687813e-06
4.8644217e-06
2.3912669e-06
8.0587641e-08
5.702403e-05
7.5796581e-05
5.3154457e-05
8.6049595e-06
2.2792774e-05
1.8197273e-05
5.4893249e-06
3.5438305e-05
5.0158728e-05
3.4083684e-05
4.2619314e-06
4.8191376e-07
4.1795734e-06
1.380441e-06
5.6788413e-08
1.0676467e-08
9.8132607e-09
1.1510222e-09
1.9895121e-13
2.0355897e-12
1.3614608e-14
6.3354783e-17
3.9330895e-19
4.0077684e-21
5.0230964e-23
5.9192421e-25
6.1605173e-27
5.5986214e-29
4.4362996e-31
3.0784427e-33
1.87916e-35
1.0297676e-37
5.3211224e-40
2.6804248e-42
1.9823856e-44
1.4679321e-45
9.2017709e-43
7.72905e-41
5.7939804e-39
3.8879275e-37
2.3398424e-35
1.2246214e-33
5.4399982e-32
2.0443537e-30
6.1493572e-29
1.294147e-27
1.573842e-26
9.3465528e-26
2.4791611e-25
3.2129201e-25
1.6411197e-50
7.2181677e-51
6.6779468e-52
2.880911e-52
2.7999392e-52
2.0553595e-52
1.0578224e-52
3.8135435e-53
1.5508687e-52
3.8697153e-50
2.6264621e-47
1.1560366e-44
4.1912638e-42
1.3508489e-39
2.5432857e-37
3.5339733e-35
3.9070234e-33
3.6596115e-31
3.0173179e-29
2.2350691e-27
1.5000346e-25
9.2826032e-24
5.9364687e-22
4.3353915e-20
5.0152237e-18
2.9565112e-16
4.4401141e-15
2.0940225e-14
4.0953446e-14
4.5968628e-14
4.5690528e-14
6.2599669e-14
9.3654917e-14
1.6024431e-13
1.0086591e-12
3.2544216e-12
8.9939658e-12
8.3653124e-12
3.1087675e-12
5.7563778e-13
4.3135734e-13
3.6592111e-13
5.7023209e-08
1.5093152e-07
1.3262714e-07
3.8098968e-06
4.8626227e-06
4.86226e-06
2.9818305e-06
1.6085485e-07
2.5446628e-06
7.5255998e-05
5.1425616e-05
5.7395833e-06
2.2644e-05
1.659191e-05
1.9817683e-05
5.0163502e-05
5.0261064e-05
5.0370696e-05
5.0369772e-05
4.1001394e-05
1.5900693e-05
5.8086949e-08
9.5595521e-09
1.0444627e-09
7.4875977e-11
1.0590229e-09
2.3147474e-14
3.498736e-13
1.8431597e-15
1.9578825e-17
1.837954e-19
2.2695523e-21
3.0301618e-23
3.5501961e-25
3.6088174e-27
3.1856058e-29
2.4521285e-31
1.6727633e-33
1.0338063e-35
5.9325631e-38
3.2142941e-40
1.4106425e-42
2.1272698e-44
3.8174307e-42
3.2261227e-40
2.3580232e-38
1.5447228e-36
9.2150809e-35
4.995191e-33
2.3644784e-31
9.6226986e-30
3.3391075e-28
9.1585724e-27
1.7341339e-25
1.8999066e-24
1.0338094e-23
2.5874898e-23
3.2811879e-23
8.0674287e-48
3.5624685e-48
3.0352055e-49
3.2307638e-50
2.9239717e-50
2.1335162e-50
1.2004718e-50
4.7935323e-51
1.0384296e-50
1.5626403e-48
6.639176e-46
3.7412867e-43
1.4284724e-40
5.0843848e-38
1.0961367e-35
1.6009713e-33
1.7980949e-31
1.6959862e-29
1.3989037e-27
1.0317631e-25
6.8602715e-24
4.0889453e-22
2.30686e-20
1.6496871e-18
2.0243612e-16
1.3230273e-14
2.0985977e-13
9.7189697e-13
1.8214144e-12
1.7927514e-12
1.6043963e-12
1.5209719e-12
1.5535424e-12
1.6633927e-12
3.399604e-12
7.2321799e-12
9.5312908e-12
8.3311649e-12
5.2534885e-13
5.3916701e-13
4.5359217e-13
4.8043462e-13
6.3716454e-08
8.1462317e-09
3.9332917e-08
4.5019505e-06
4.8282096e-06
4.8601198e-06
2.9469837e-06
3.16463e-07
5.2348472e-07
5.8205909e-05
3.3710818e-05
5.0216203e-06
1.441374e-05
2.6026835e-05
4.6273619e-05
5.022654e-05
5.0234899e-05
5.0264502e-05
5.0718256e-05
5.0653578e-05
1.2306876e-05
2.3026216e-08
1.5683753e-08
1.3638948e-08
8.0963404e-12
2.4869207e-10
1.0099157e-14
3.1627127e-14
4.2473191e-16
9.1037974e-18
1.0248512e-19
1.2914605e-21
1.6378289e-23
1.7960606e-25
1.7273179e-27
1.4727777e-29
1.1264382e-31
7.8591513e-34
5.0378649e-36
2.928422e-38
1.209209e-40
1.9872772e-42
1.1965585e-41
1.3134981e-39
9.4462492e-38
6.0385238e-36
3.4992288e-34
1.8658981e-32
9.0690764e-31
3.8837602e-29
1.4522702e-27
4.6204128e-26
1.1470867e-24
1.9496636e-23
1.9306562e-22
9.7009081e-22
2.307691e-21
2.854905e-21
3.4038695e-45
1.5184772e-45
1.3305081e-46
4.4624134e-48
2.8526746e-48
2.0809399e-48
1.1843126e-48
5.278079e-49
5.2560668e-49
9.7548756e-47
3.1443442e-44
1.3529103e-41
7.2689993e-39
1.8720701e-36
2.8529529e-34
3.3726414e-32
3.3407601e-30
2.8790492e-28
2.2047216e-26
1.5183931e-24
9.4243872e-23
5.2286363e-21
2.7195263e-19
1.7607409e-17
1.8147892e-15
9.9570496e-14
1.4217663e-12
6.1039473e-12
8.9326988e-12
6.6874321e-12
1.1143459e-11
1.7491101e-11
8.5228124e-12
7.1036986e-12
7.592219e-12
8.2331954e-12
6.7087695e-12
6.7033273e-12
1.2822603e-09
1.5538507e-08
8.2405709e-09
4.8051796e-13
9.9125656e-09
4.6042414e-09
5.8045448e-09
3.2683139e-06
4.8008786e-06
4.860991e-06
2.1085455e-06
5.3915669e-07
6.0356911e-07
4.412615e-05
3.1251624e-05
4.0164294e-06
6.2382161e-06
3.5209791e-05
3.3927173e-05
4.9617782e-05
5.0289484e-05
5.0780647e-05
5.137125e-05
1.8619662e-05
6.5103754e-08
1.8377928e-08
3.9319114e-08
3.9340804e-08
5.5736523e-13
5.4372717e-12
9.2730914e-15
7.4721755e-15
1.5351985e-16
3.75113e-18
4.4795729e-20
5.4019411e-22
6.4125571e-24
6.8278271e-26
6.5809782e-28
5.793805e-30
4.6155744e-32
3.2618133e-34
1.9901626e-36
8.7129529e-39
1.2185658e-40
5.2649512e-42
4.9409608e-39
3.622776e-37
2.2787319e-35
1.2855063e-33
6.6416463e-32
3.175816e-30
1.3863225e-28
5.3872145e-27
1.8527895e-25
5.36601e-24
1.197836e-22
1.8239211e-21
1.6402241e-20
7.7165509e-20
1.7789947e-19
2.1694105e-19
1.2441329e-42
5.6350289e-43
5.2023093e-44
9.8070908e-46
2.6580441e-46
1.9393615e-46
1.0588774e-46
4.252327e-47
4.0656268e-47
1.4530944e-44
4.7847521e-42
9.5275477e-40
1.5095111e-37
2.0081123e-35
2.2712308e-33
2.2187273e-31
1.9066461e-29
1.4597325e-27
1.0055127e-25
6.2686722e-24
3.5193597e-22
1.7578718e-20
8.1750685e-19
4.6430289e-17
4.1619313e-15
2.0744887e-13
2.8001553e-12
1.4655161e-11
7.8152028e-11
3.051859e-10
2.8667615e-10
8.368863e-10
9.8078203e-11
1.4091361e-11
1.0542546e-11
7.9634654e-12
1.2846968e-11
1.3283289e-11
3.1104677e-11
1.3294014e-08
2.7970134e-08
1.2512682e-08
4.6063345e-09
4.5329094e-09
4.6050552e-09
1.2748389e-07
2.4690795e-06
2.3892706e-06
1.604255e-06
8.4716257e-07
8.0539978e-07
8.1418603e-05
4.6518127e-05
2.6401456e-06
5.5606628e-06
1.7063349e-05
6.4896979e-07
8.6711781e-06
3.6836702e-05
4.0056798e-05
8.3650134e-06
8.1820001e-08
7.8815077e-09
1.4656768e-08
4.1181332e-08
4.0648605e-08
3.9327087e-14
6.5018975e-14
7.5986512e-15
2.6785358e-15
4.8292124e-17
1.0531163e-18
1.3275377e-20
1.582225e-22
1.8828537e-24
2.1875344e-26
2.2820034e-28
2.0953535e-30
1.6270895e-32
1.0175325e-34
4.8577614e-37
2.936923e-39
1.379573e-40
1.614888e-38
1.2934988e-36
8.1495319e-35
4.5161503e-33
2.2667357e-31
1.0496657e-29
4.5087147e-28
1.7714299e-26
6.2617582e-25
1.9746556e-23
5.178678e-22
1.0338521e-20
1.4089577e-19
1.1604163e-18
5.2397458e-18
1.241768e-17
1.6574286e-17
3.9678515e-40
1.8326618e-40
1.7948831e-41
2.9990336e-43
2.3746105e-44
1.6940477e-44
9.2872461e-45
3.5974387e-45
2.8873901e-45
8.1065531e-44
2.0561595e-41
3.7608425e-39
5.4584312e-37
6.1731986e-35
6.2026126e-33
5.6696905e-31
4.646475e-29
3.4226221e-27
2.2773548e-25
1.3746034e-23
7.4753653e-22
3.6394678e-20
1.7577462e-18
1.207595e-16
1.0017701e-14
3.2572266e-13
1.3365504e-11
1.9339391e-09
5.4661271e-09
2.0604749e-08
1.930868e-08
4.9195008e-08
5.5799472e-09
2.4243502e-11
8.7779359e-12
7.9943672e-12
5.4187542e-08
1.0953795e-07
5.4329442e-08
2.0019099e-08
2.9526559e-08
1.3467972e-08
4.5372754e-09
4.5361482e-09
4.474238e-09
6.133532e-09
2.7446016e-08
1.8869944e-07
9.5192262e-07
1.5604583e-06
1.9063408e-06
9.6863212e-05
4.9414042e-05
7.6729298e-07
4.3386826e-06
5.352956e-06
3.5342937e-07
9.4814671e-08
1.2646801e-06
1.8108202e-06
3.7775635e-08
8.9142308e-09
1.6535218e-09
1.3158238e-08
3.8061728e-08
6.6978002e-09
6.1349029e-15
1.2507195e-14
5.1335839e-15
6.4395958e-16
9.460617e-18
1.9046261e-19
2.2550095e-21
2.7287955e-23
5.1596473e-25
6.662168e-27
7.0564414e-29
5.9242102e-31
3.7331666e-33
1.6530677e-35
4.3493196e-38
3.076402e-39
4.0566365e-38
4.1520836e-36
2.6901717e-34
1.485571e-32
7.3196484e-31
3.2915853e-29
1.3710203e-27
5.2984393e-26
1.8788628e-24
6.0556407e-23
1.7441891e-21
4.1224596e-20
7.3459606e-19
9.0314512e-18
6.9149913e-17
3.0327043e-16
7.4801053e-16
1.176858e-15
1.1105266e-37
5.2568742e-38
5.4933294e-39
9.670885e-41
9.8418048e-43
1.3305882e-42
8.1402677e-43
2.9492914e-43
6.6434824e-44
1.0530294e-43
1.08998e-41
2.5071427e-39
5.033252e-37
9.7572963e-35
1.563016e-32
1.9408311e-30
1.9943892e-28
1.7632113e-26
1.3732738e-24
9.5111473e-23
5.8193483e-21
3.2815361e-19
2.1981942e-17
2.0158389e-15
8.756302e-14
9.0772154e-13
5.5850083e-11
1.9877829e-07
1.0424472e-05
3.2719827e-05
2.9309468e-05
3.1850907e-06
4.2266334e-08
2.5084278e-09
2.3974208e-11
8.7779359e-12
1.1881784e-07
3.6215241e-07
3.6215241e-07
2.9097067e-07
4.5855273e-08
6.557202e-09
4.9929874e-09
4.4219048e-09
2.6472811e-09
1.8287371e-08
2.1900873e-07
1.1119701e-06
1.9190236e-05
3.5595773e-05
7.6178231e-05
9.810723e-05
4.5240582e-05
2.0796676e-07
2.3106894e-07
5.2896827e-08
6.8015747e-07
1.5383962e-08
9.7246792e-09
3.93493e-09
2.1933254e-09
5.1330403e-10
1.5535179e-10
1.9410422e-09
2.3751872e-09
6.1349029e-15
4.053475e-15
8.9810224e-15
2.3227996e-15
6.0028367e-17
1.1180638e-18
2.1207894e-20
8.0057609e-23
1.2355314e-23
1.2302001e-25
1.4434928e-27
1.2563338e-29
7.5426324e-32
3.1638271e-34
1.1371009e-36
5.1948237e-38
4.9098928e-38
1.1499211e-35
7.9868251e-34
4.469e-32
2.187749e-30
9.6606431e-29
3.9134525e-27
1.4692202e-25
5.1078469e-24
1.6342748e-22
4.8016494e-21
1.2632847e-19
2.7074591e-18
4.3379182e-17
4.8087656e-16
3.3523638e-15
1.2840735e-14
2.4765488e-14
2.543996e-14
2.7409668e-35
1.3368622e-35
1.4986571e-36
2.8344e-38
9.3744967e-41
1.6302495e-40
6.89274e-41
2.3260088e-41
5.7587581e-42
3.7454669e-42
1.1002395e-40
3.378994e-38
6.1783829e-36
8.7129355e-34
1.0471184e-31
1.0693075e-29
9.486965e-28
7.4268181e-26
5.1905426e-24
3.1910242e-22
1.719929e-20
8.4685612e-19
4.6068572e-17
1.7058673e-15
7.7853386e-14
9.5702473e-12
1.7068748e-09
1.4876301e-05
9.0110732e-05
0.00010351534
0.00010350284
5.5006258e-05
3.7361136e-06
4.5133579e-08
4.6074949e-10
2.7407017e-11
2.7040062e-10
2.4957523e-07
3.6215241e-07
3.6137587e-07
3.6059933e-07
1.0460995e-07
5.7960166e-09
1.3787716e-08
6.7950759e-08
3.1428675e-07
5.9177427e-06
5.1640295e-05
0.00025528347
0.00031296915
0.00019985655
9.0152841e-05
1.501734e-05
7.1012668e-09
6.2397045e-08
5.2903039e-08
1.6374322e-08
9.9383829e-09
2.0417726e-10
1.0788709e-10
6.1047346e-11
2.4900511e-11
1.1012294e-11
9.9643731e-12
8.0939212e-12
3.9076996e-15
3.7848318e-15
3.4104475e-15
4.5081658e-16
7.3847958e-18
1.875862e-19
-1.3869154e-37
-3.5403568e-21
1.6680209e-23
1.6026499e-26
2.1428973e-28
2.3671354e-30
2.4523754e-32
2.2436823e-34
2.5173287e-36
1.6868359e-37
2.4580225e-35
2.0774759e-33
1.2029511e-31
5.9223744e-30
2.5973235e-28
1.0348797e-26
3.78882e-25
1.2809883e-23
3.9844206e-22
1.1400194e-20
3.0320616e-19
7.3327422e-18
1.4514963e-16
2.0597625e-15
1.888217e-14
1.0491497e-13
2.850908e-13
3.5942865e-13
1.2332915e-13
5.9919703e-33
3.0280625e-33
3.6644768e-34
7.4492677e-36
2.9334405e-38
7.1874354e-39
4.6042621e-39
1.8848658e-39
4.3754575e-40
1.4056215e-40
3.13223e-39
1.2609512e-37
1.4061386e-35
1.9725452e-33
2.3591042e-31
2.4113251e-29
2.1339085e-27
1.61888e-25
9.9992415e-24
5.9863998e-22
3.3287781e-20
2.0590252e-18
8.7061907e-17
1.8907575e-15
4.7197409e-13
5.4982094e-11
1.201932e-06
5.3804391e-05
0.00010333668
0.00010350284
0.00010352606
0.00010317924
1.723934e-05
4.5475255e-08
1.786387e-09
4.1968448e-10
5.3162822e-10
5.6770771e-10
4.6145462e-08
2.730819e-07
1.7710347e-07
1.0433601e-07
9.3523485e-08
3.8168614e-07
5.7725146e-06
3.4736671e-05
0.00021968355
0.00031524507
0.00031481434
0.00031363415
0.00015528067
7.1616614e-05
4.2218172e-09
1.2978843e-09
1.2049597e-10
2.6365346e-09
1.661166e-10
4.5186868e-10
8.0602666e-11
2.8612909e-11
1.5418384e-11
1.0544989e-11
7.4569536e-12
5.1544453e-12
9.453813e-13
9.3598315e-15
8.4838215e-15
3.4601933e-15
4.5108742e-16
2.2326123e-17
9.6248935e-21
-1.305527e-20
-1.467373e-20
4.2099488e-23
1.3667641e-26
4.2534518e-28
7.2107056e-30
1.2871613e-31
1.8170948e-33
4.7132931e-35
2.4801844e-35
4.6350847e-33
2.875798e-31
1.4446253e-29
6.3643303e-28
2.5262314e-26
9.1469838e-25
3.0397252e-23
9.2452064e-22
2.5466838e-20
6.3972518e-19
1.5140739e-17
3.296075e-16
5.6817809e-15
6.4328716e-14
4.3384369e-13
1.9481507e-12
8.008909e-12
1.4723988e-11
5.0391367e-12
1.1648361e-30
6.1359274e-31
8.061623e-32
1.7646886e-33
7.7411837e-36
1.5784108e-38
2.7596771e-37
1.4762205e-37
3.3494547e-38
1.400815e-38
1.1897342e-37