/*--------------------------------*- C++ -*----------------------------------*\
  =========                 |
  \\      /  F ield         | OpenFOAM: The Open Source CFD Toolbox
   \\    /   O peration     | Website:  https://openfoam.org
    \\  /    A nd           | Version:  9
     \\/     M anipulation  |
\*---------------------------------------------------------------------------*/
FoamFile
{
    format      ascii;
    class       volScalarField;
    location    "0.95";
    object      p_rgh;
}
// * * * * * * * * * * * * * * * * * * * * * * * * * * * * * * * * * * * * * //

dimensions      [1 -1 -2 0 0 0 0];

internalField   nonuniform List<scalar> 
10000
(
0
0.011600521
0.028497295
0.051639015
0.081109748
0.11700195
0.15934083
0.20816718
0.26353484
0.32538183
0.39374277
0.46859272
0.54982989
0.63736752
0.73097719
0.83041903
0.93549458
1.0458898
1.161237
1.2811759
1.4052044
1.5327028
1.6630238
1.795441
1.9291264
2.0632164
2.1968651
2.3294224
2.4602893
2.5889267
2.714945
2.838149
2.9586464
3.0769549
3.1940504
3.3114033
3.4310587
3.5557747
3.6883367
3.8300784
3.9854669
4.1638273
4.3315615
4.3961843
4.4528689
4.6860419
5.1183751
6.3264684
7.6938021
8.8346695
9.8700444
10.674115
11.239104
11.288334
11.095629
11.007967
10.668725
10.003172
9.095424
8.3652543
7.7909158
7.5283062
7.5077635
7.5404547
7.7570453
7.750388
7.7205651
7.6491769
7.5450189
7.4170796
7.2684699
7.1028845
6.9241907
6.7361475
6.5420987
6.3449918
6.1474176
5.9515227
5.7591375
5.5717888
5.3907158
5.2169305
5.0512321
4.8942555
4.7464996
4.608335
4.4799843
4.3615504
4.2530736
4.1545433
4.0657704
3.9864155
3.9162363
3.8548534
3.8019264
3.757553
3.7222293
3.6968931
3.6726014
3.6594304
-0.0085234594
0.0043039716
0.020926433
0.043998922
0.073472359
0.10947018
0.15192599
0.20095443
0.25647784
0.31853271
0.38710906
0.46211978
0.54357234
0.63132647
0.72516792
0.82495047
0.93041546
1.0412254
1.1570724
1.2775461
1.4020919
1.530122
1.6609679
1.793808
1.9277797
2.0619955
2.1954946
2.3273161
2.4565602
2.5823747
2.7039626
2.8206548
2.9319848
3.0377135
3.1378572
3.2327237
3.322912
3.4093696
3.4926175
3.5713176
3.6463394
3.7153635
3.7299709
3.6066999
3.4895667
3.8908506
4.6763494
5.5862834
7.0486443
8.277445
9.2448836
10.053301
10.580611
10.791544
10.78866
10.212781
10.118998
10.000481
8.202081
7.4543662
6.8999531
6.7802761
7.0677193
7.5699138
7.735204
7.6733814
7.6380933
7.5368136
7.420238
7.2883811
7.1427728
6.9840486
6.8133528
6.6336274
6.4478558
6.2586436
6.0684096
5.8792687
5.6930632
5.5113819
5.3355303
5.1665342
5.0052162
4.8522528
4.7081467
4.5732578
4.4478145
4.3319549
4.2256658
4.1288617
4.0414201
3.9632718
3.8941567
3.8337084
3.7818073
3.7382649
3.7028759
3.6745704
3.6543117
3.6432325
-0.022924008
-0.0093257227
0.0069446446
0.029894363
0.059390466
0.095430461
0.13803654
0.18718484
0.24290133
0.30519779
0.37399859
0.44933395
0.53114088
0.6192668
0.7136161
0.81399836
0.92013721
1.0317889
1.1486335
1.2702055
1.3959946
1.5254193
1.6577347
1.7920811
1.927552
2.0631385
2.1977056
2.3300893
2.4591091
2.5835251
2.7020853
2.8135933
2.9169059
3.0109246
3.0946478
3.1671869
3.2276654
3.2752792
3.3087737
3.3247396
3.3219383
3.2923746
3.164937
2.8607964
2.7933152
3.2776004
3.4932984
4.7555937
6.1892077
7.5058007
8.5513875
9.3136298
9.7643864
9.9504114
9.8729059
10.672383
11.544707
10.237785
9.1469728
6.6395669
6.2145896
6.4115072
6.9194868
7.3285107
7.6690085
7.5388742
7.5444668
7.4464043
7.3130773
7.1702728
7.0237189
6.8683295
6.7028089
6.5294044
6.3505914
6.1684557
5.985059
5.802341
5.6220501
5.4457532
5.2747799
5.1101971
4.9528817
4.8035545
4.6627372
4.5308041
4.4079979
4.2944656
4.1902519
4.0953006
4.0095021
3.9332132
3.8653623
3.8061366
3.7553456
3.7127441
3.6779911
3.6500954
3.631158
3.6210186
-0.042547868
-0.030166331
-0.013732595
0.0092500805
0.038741399
0.074857148
0.11751105
0.16677032
0.22266048
0.2851231
0.35419716
0.42987752
0.51206632
0.60071888
0.6957358
0.79690034
0.90402406
1.0168815
1.1351078
1.2582781
1.3859136
1.5173817
1.6519069
1.7886182
1.9265074
2.064404
2.201003
2.3349025
2.4645667
2.58831
2.7043689
2.8109159
2.9060125
2.9876048
3.0535679
3.1016916
3.1295473
3.1345522
3.1139579
3.0632282
2.9785139
2.848463
2.590905
2.0976981
1.9841245
2.370025
2.5145794
3.7080836
5.1947718
6.5981053
7.6858225
8.3891473
8.6531373
8.5874633
8.1818422
8.1096475
9.2048118
7.7355798
6.434047
5.442952
4.0559403
5.1121358
6.2046086
7.0378137
7.2692169
7.3952927
7.338756
7.289693
7.1819052
7.0531177
6.9129877
6.7615712
6.5996569
6.4298335
6.254907
6.076911
5.897733
5.7192251
5.5430656
5.3707623
5.203643
5.0427855
4.8890446
4.7431324
4.6055674
4.4767144
4.3567952
4.2459437
4.1442039
4.0515638
3.9680941
3.8934353
3.8274136
3.7698253
3.7204855
3.6792612
3.6460455
3.6206555
3.601678
3.5922875
-0.068841275
-0.057339337
-0.040871261
-0.01790383
0.01163844
0.0477685
0.09048237
0.1398672
0.19587451
0.25855303
0.32793216
0.40395793
0.48663393
0.57594007
0.67174329
0.77391535
0.882314
0.99668259
1.1167004
1.2420042
1.3720924
1.5063108
1.6439004
1.7839467
1.9253078
2.0666539
2.206496
2.3431316
2.4746145
2.5987487
2.7131687
2.8152835
2.902229
2.9708551
3.0177091
3.0389914
3.0304717
2.9875255
2.9056235
2.7798021
2.6043062
2.3667512
2.0058461
1.4493764
1.0657092
1.0061012
1.5927233
2.7330865
4.1901647
5.6096697
6.6408071
7.1714356
7.1955064
6.9919488
6.8590474
6.3935457
5.3746537
3.8381511
2.2718729
0.51960052
2.704781
3.6674541
4.4121865
5.8540027
6.5247669
7.022108
6.996075
7.0368959
6.9969973
6.9010481
6.7759187
6.633244
6.4773715
6.3122813
6.1417046
5.9679786
5.7930807
5.6189078
5.4471509
5.2792769
5.1165554
4.9600217
4.8105122
4.6686963
4.5350438
4.4099114
4.2934931
4.1859244
4.0872415
3.9974722
3.9165087
3.8441869
3.7803264
3.7247313
3.6771901
3.637594
3.6058507
3.5815781
3.5639824
3.5558218
-0.10197892
-0.090950746
-0.074548849
-0.051565431
-0.022047054
0.01409843
0.056876477
0.10630956
0.16245047
0.2253533
0.29499403
0.37141063
0.45464612
0.54464999
0.64136604
0.74474303
0.85463163
0.97080728
1.0930352
1.22098
1.3541319
1.4918751
1.6334596
1.7779087
1.9239863
2.0702093
2.2148715
2.3559424
2.4910754
2.617444
2.7320217
2.8313918
2.9116967
2.9685829
2.9971042
2.9916687
2.946042
2.8534128
2.707203
2.5023711
2.234066
1.8939153
1.4586595
0.9257947
0.49849572
0.48344517
1.0514759
2.0942234
3.4131877
4.737409
5.5563583
5.8464523
5.6940142
5.6325029
5.3837766
3.5302926
2.6593943
1.1711277
-0.7347257
-1.9828988
-2.4635254
0.82107805
3.2452655
4.5420643
5.410837
6.097341
6.5156403
6.7270372
6.7729399
6.7122794
6.6060901
6.4768657
6.3303826
6.1724468
6.0080163
5.8399011
5.6703708
5.5014748
5.3349601
5.1722935
5.0146789
4.8631194
4.7184418
4.5812816
4.4520816
4.3311695
4.2186898
4.1148424
4.0196454
3.9331134
3.8551224
3.7855477
3.7242265
3.6709541
3.6255212
3.5878234
3.5577654
3.5348832
3.5186465
3.51182
-0.14189401
-0.13115112
-0.11474221
-0.091819559
-0.0623244
-0.026168156
0.016587202
0.066061278
0.12232148
0.18536828
0.25526188
0.33208882
0.41586289
0.50660194
0.60434189
0.70903879
0.82058124
0.93884861
1.0636576
1.1946943
1.3315228
1.4735888
1.6201254
1.7701174
1.9222904
2.0750323
2.2263611
2.3739264
2.5151461
2.6461874
2.7634462
2.862685
2.9390193
2.9868155
2.9995238
2.9696254
2.8886428
2.7473533
2.536708
2.2509382
1.8875605
1.4445219
0.93797075
0.43998289
0.11055974
0.15485071
0.72993409
1.6791973
2.8655523
3.9668433
4.4878604
4.5113117
4.2223581
3.7292069
2.8636409
1.8845397
-0.058982488
-2.9351459
-4.4716796
-5.2707506
-4.5983478
-2.8696952
0.70561869
3.2651555
4.4342348
5.2344016
5.9653675
6.3698534
6.5023127
6.4833656
6.4041826
6.2944644
6.1613009
6.0132569
5.8568418
5.6956237
5.5323884
5.3694512
5.2086725
5.051583
4.8993861
4.7531069
4.6135654
4.4813708
4.3569421
4.2406141
4.1323469
4.0326733
3.9414046
3.858527
3.7839762
3.7175897
3.6591876
3.6085862
3.5655938
3.530074
3.5019163
3.4806115
3.4657979
3.4602927
-0.18854924
-0.17791706
-0.16152723
-0.13864683
-0.1091789
-0.073103731
-0.030388498
0.019099274
0.075374842
0.13851868
0.2086429
0.28580515
0.37007967
0.46158021
0.5603638
0.66642585
0.77976572
0.90034319
1.0280221
1.1625767
1.3036849
1.4508403
1.6032947
1.7600663
1.9198682
2.0809762
2.2411162
2.3974644
2.5481309
2.6867279
2.8098472
2.9124201
2.9885131
3.0311843
3.0322241
2.9820358
2.8695305
2.6825278
2.4085934
2.0391939
1.5723592
1.0070849
0.37632426
-0.18178739
-0.49852864
-0.46287541
0.039046571
0.9146592
2.0113029
2.994596
3.2849999
3.1480133
2.8269429
2.385403
1.2367469
0.25617365
-2.8355068
-5.7911223
-7.5632341
-8.2500662
-7.3954648
-5.1818633
-1.3041107
1.8455235
4.1889046
4.2496438
5.3150827
5.9350471
6.1707999
6.2092798
6.1693179
6.0863252
5.9709563
5.8357865
5.6892686
5.5361276
5.3798934
5.223333
5.068564
4.9172247
4.7706195
4.62982
4.4956732
4.368732
4.2494028
4.1379821
4.0346069
3.9394573
3.852556
3.7738076
3.703121
3.6403451
3.5852695
3.5376899
3.4974635
3.4644315
3.4384196
3.4188486
3.4055311
3.401344
-0.2418564
-0.23133082
-0.21485558
-0.19201287
-0.16267062
-0.12669828
-0.084059976
-0.03467467
0.021544158
0.084731891
0.15497164
0.23237126
0.31710155
0.40930373
0.50906926
0.61650541
0.73171025
0.85471284
0.98547861
1.1239262
1.2698337
1.4227732
1.5820998
1.7469133
1.9159741
2.0875495
2.2592781
2.4281637
2.5900799
2.7401261
2.8732527
2.9835856
3.0642465
3.1070824
3.1023277
3.0381511
2.900537
2.6732107
2.3392101
1.8837399
1.2984032
0.57317046
-0.2817228
-1.1054573
-1.6866554
-1.8139242
-1.6831114
-0.97484935
0.18257494
1.3510624
1.7623153
1.7724204
1.5997499
1.2670719
-0.15372552
-1.1724166
-5.0808875
-7.8390027
-9.7699925
-10.386433
-9.3941978
-6.6135772
-2.4777444
1.0271864
3.409475
3.5738849
4.7036285
5.4732521
5.8013391
5.9027071
5.9084118
5.8559822
5.7613538
5.6412036
5.5058919
5.3615867
5.212805
5.0628905
4.9143052
4.768896
4.6281245
4.4930323
4.364591
4.2432146
4.1294162
4.0233827
3.9252753
3.8351826
3.7530994
3.6789346
3.6125642
3.5538289
3.5025047
3.4583672
3.4212471
3.3909914
3.3674243
3.3497836
3.3380858
3.3353172
-0.30183606
-0.29136239
-0.27464344
-0.25194426
-0.22275873
-0.18693957
-0.14450681
-0.095306841
-0.039212588
0.023875737
0.094088823
0.17162665
0.2566864
0.3494386
0.45008036
0.55882423
0.6758409
0.80127692
0.93526554
1.077854
1.2289419
1.3882585
1.5553378
1.7294306
1.9093849
2.0938539
2.2804319
2.4644373
2.64201
2.8077051
2.9554814
3.0786536
3.169587
3.2192038
3.2163365
3.1469898
2.9936386
2.7351356
2.3472097
1.8054629
1.0878288
0.16441206
-1.0202891
-2.3218975
-3.460376
-4.3448126
-4.7370321
-4.2664578
-2.848201
-1.0441472
-0.00072377357
0.63367374
0.88141917
0.80008747
-0.39574185
-2.331623
-6.183734
-8.8518492
-10.723303
-11.3507
-10.329267
-7.3536764
-2.7443324
0.77584427
2.7394353
3.0705482
4.2685044
5.0733123
5.4431211
5.5929793
5.6381268
5.613243
5.5385763
5.4332491
5.3089903
5.1733395
5.0318616
4.888509
4.7460963
4.6067167
4.4720201
4.3426915
4.2202624
4.1048771
3.9969708
3.8967705
3.8043543
3.7197771
3.6430189
3.5739172
3.5123316
3.4580747
3.4109083
3.3706115
3.3369912
3.3099577
3.2890521
3.2735685
3.2637393
3.2626749
-0.36844201
-0.35825263
-0.34057645
-0.31833422
-0.28941489
-0.2538795
-0.2117343
-0.1627999
-0.10698788
-0.044164487
0.025885632
0.10338704
0.18855677
0.28166166
0.38300036
0.49285712
0.61151701
0.73929337
0.87647862
1.0232695
1.1797597
1.3459264
1.5215268
1.7059445
1.8981142
2.0991231
2.3026162
2.5057775
2.7037005
2.8899122
3.057509
3.1991258
3.3067278
3.3708158
3.379278
3.3160489
3.1600446
2.8844939
2.4562183
1.83695
0.98218545
-0.18054981
-1.7510827
-3.6965776
-5.7338471
-7.6575044
-8.6882333
-8.351036
-6.404399
-3.7374786
-1.1718424
1.3383527
0.66034146
1.4660883
-0.86054176
-2.5821904
-6.3600376
-8.4362409
-10.143082
-10.943982
-10.190977
-7.5822872
-2.5023296
1.3569126
1.430707
2.70168
4.0052415
4.7516008
5.1317156
5.3090329
5.3765664
5.370657
5.3112181
5.2175299
5.1022636
4.9737061
4.8385073
4.7010968
4.5645755
4.4309278
4.3020986
4.179046
4.0627241
3.9535984
3.8519582
3.7579949
3.6717404
3.593164
3.5221985
3.4586386
3.4023066
3.353008
3.310477
3.2744474
3.2447053
3.2211835
3.2033466
3.1903256
3.1826983
3.1837081
-0.44122854
-0.43087469
-0.41363904
-0.39136749
-0.3627064
-0.32748936
-0.28570195
-0.23719633
-0.1818428
-0.11943624
-0.049754162
0.027446568
0.11246823
0.20566388
0.30739507
0.41804669
0.53806739
0.66793022
0.80808154
0.95893359
1.1208619
1.2941421
1.4788365
1.674619
1.8805654
2.0998023
2.3239088
2.5506574
2.7743194
2.9864702
3.1794513
3.3452882
3.4761811
3.563106
3.5937534
3.5505298
3.4091451
3.136791
2.690627
2.0170576
1.0432739
-0.3588469
-2.3506908
-4.9257897
-8.1223898
-11.022141
-12.642332
-12.035781
-9.4215665
-5.6207692
2.5166762
5.287254
1.7582646
1.5145548
0.0010536245
-2.2637123
-4.8717899
-7.0915939
-8.7013768
-9.3346563
-8.9259612
-7.0302669
-4.3919741
0.49792842
0.85699668
2.6615307
3.8873908
4.5519634
4.8940865
5.0750284
5.135298
5.1392764
5.0872305
4.9994152
4.889471
4.7646741
4.6339501
4.5014009
4.3699176
4.2417394
4.1186093
4.0016891
3.8917214
3.7891368
3.694164
3.6068855
3.5272591
3.4551977
3.3905301
3.3330293
3.2824547
3.2385702
3.2011153
3.1697931
3.1443722
3.1247977
3.1103699
3.1001111
3.0950633
3.0985405
-0.52029453
-0.5098287
-0.49299304
-0.47087878
-0.4425073
-0.40767841
-0.36640424
-0.31849704
-0.2637603
-0.20198937
-0.13295748
-0.056350366
0.028212014
0.12112341
0.22282766
0.33385277
0.45479817
0.58628149
0.72894429
0.88348577
1.0506085
1.2309499
1.4250027
1.6330959
1.8552934
2.0921897
2.3412282
2.596461
2.8516953
3.0964351
3.3206663
3.5159974
3.6761801
3.7942174
3.8588879
3.8518515
3.7464124
3.5041612
3.0729767
2.384858
1.3382579
-0.25390799
-2.6329304
-5.8771695
-10.000035
-13.780219
-15.559503
-14.781658
-11.575377
-6.4595011
0.95489105
7.0641311
4.6977087
3.1170999
1.7466002
-0.43356946
-2.9233495
-4.902488
-5.1118699
-6.907889
-6.9813345
-5.656813
-3.1615423
-0.65674603
1.467548
2.9697466
3.9353504
4.4547625
4.7330551
4.8850168
4.940255
4.9299741
4.872117
4.7819811
4.6713609
4.5482904
4.4196652
4.2900117
4.1623731
4.0389377
3.9212751
3.8104178
3.7069761
3.61124
3.5233408
3.4432296
3.370745
3.305711
3.2478753
3.1969352
3.1526159
3.1146499
3.0827223
3.0565472
3.0359562
3.0207117
3.0100829
3.0028994
3.0008625
3.0071892
-0.60555423
-0.59507706
-0.57855236
-0.55668511
-0.52868388
-0.49438695
-0.45378271
-0.40662064
-0.35271869
-0.29186937
-0.2237825
-0.14809609
-0.06440604
0.027745101
0.12891605
0.2397597
0.3609941
0.49341003
0.63790081
0.79546328
0.96714413
1.1540157
1.357114
1.5774594
1.8159398
2.072181
2.3504694
2.639389
2.9353366
3.2192212
3.4798164
3.7082834
3.901889
4.0584847
4.169551
4.2162442
4.1709336
3.99077
3.6165329
2.9692008
1.925605
0.25651512
-2.3436858
-6.1072821
-10.891338
-15.187024
-17.131891
-16.011394
-12.06097
-5.887258
0.76693107
9.2053197
7.8627396
6.4887715
4.1471897
2.2515128
-0.33961926
-1.7512499
-2.9321831
-4.158204
-4.2830173
-2.7075531
-1.7875625
0.51863824
2.2880894
3.4515877
4.1042987
4.4558962
4.6499028
4.7515585
4.7743842
4.7403887
4.6669928
4.5669167
4.4502437
4.324378
4.1951045
4.0665396
3.9415898
3.822206
3.7096862
3.604839
3.5081077
3.4195719
3.3391865
3.2667474
3.2019524
3.1445058
3.0940468
3.0502019
3.0126312
2.9810403
2.9550726
2.9344397
2.9190814
2.9087011
2.9022577
2.8985104
2.8999863
2.9095739
-0.6969333
-0.68650359
-0.67019573
-0.64863971
-0.62115499
-0.58751646
-0.54770398
-0.50148743
-0.44868658
-0.38904002
-0.32222036
-0.24786466
-0.16553807
-0.074686181
0.02534039
0.13527727
0.25597345
0.38842601
0.53378385
0.69332236
0.86844942
1.0607188
1.2717085
1.5036977
1.758273
2.0371873
2.3416067
2.6718012
3.0211129
3.3526701
3.6555412
3.9173115
4.1452606
4.345475
4.5155072
4.6327809
4.6725389
4.5868456
4.3150163
3.7743781
2.8348683
1.2506097
-1.3234293
-5.2314263
-10.245013
-14.581855
-16.575515
-15.158345
-10.758401
-4.0790271
3.1361159
9.8834329
9.8966728
10.357979
8.219649
5.4093645
4.1929909
1.7715337
0.18652536
-0.83079898
-0.66394586
1.1168909
0.46431592
1.9578434
3.2009721
3.9523186
4.3282688
4.5275576
4.6283934
4.6620033
4.6365599
4.5680647
4.4702862
4.353243
4.2252267
4.0924562
3.9596975
3.8303483
3.7068741
3.5908386
3.483191
3.3843948
3.2946112
3.2136812
3.141329
3.0771537
3.0206389
2.9713729
2.9288318
2.8925829
2.8622573
2.8375102
2.8179424
2.803143
2.7935493
2.7884749
2.7865839
2.7866704
2.7922355
2.8054983
-0.79431388
-0.78388836
-0.7677952
-0.74665446
-0.71976365
-0.68688778
-0.6480456
-0.60301009
-0.55155684
-0.49340208
-0.42823682
-0.35568087
-0.27523846
-0.18629774
-0.088160032
0.019994297
0.13916304
0.27053226
0.41546875
0.57553241
0.75251073
0.94846308
1.1658155
1.4070604
1.675826
1.9755836
2.3102134
2.6809004
3.1059406
3.4964171
3.849557
4.1359847
4.3940288
4.6464683
4.8826507
5.0806444
5.2305185
5.2665511
5.1407526
4.7784521
4.0608795
2.7574598
0.5037179
-3.0681924
-7.71665
-11.791416
-13.560476
-12.07176
-7.7602016
-1.0936168
6.0700102
11.925124
12.774918
13.458081
11.787481
9.9549533
6.4211304
4.5440614
3.3644923
2.6774987
2.4752728
2.2868943
2.6162633
3.5114982
4.1299991
4.4579689
4.5955045
4.6498482
4.6495181
4.6035764
4.5194793
4.4076981
4.2781107
4.1381033
3.9940522
3.8507551
3.7119086
3.5800753
3.4570277
3.3438054
3.2408809
3.1482946
3.0658383
2.993043
2.9293408
2.8740723
2.8265091
2.7860482
2.7520351
2.7239236
2.7013015
2.6838072
2.6710821
2.6629471
2.6590081
2.6594881
2.6624862
2.666875
2.6772637
2.6946962
-0.89748164
-0.88706351
-0.87123171
-0.85053467
-0.82429433
-0.79233621
-0.75466032
-0.71100707
-0.66114865
-0.60482944
-0.54173528
-0.47145016
-0.39345692
-0.30713584
-0.21173982
-0.10635353
0.010140202
0.1390607
0.28196502
0.44070394
0.61744051
0.8146763
1.0353914
1.2826963
1.5616474
1.8774571
2.2392444
2.6621361
3.1744607
3.6491013
4.0736566
4.3536739
4.6271439
4.9337726
5.2538244
5.5684233
5.8236246
5.9973686
6.0584595
5.9412233
5.5600803
4.7156464
3.0594314
0.22421048
-3.6062115
-7.1515361
-8.7617247
-7.4665869
-3.5582794
2.4169967
8.7217634
17.367671
15.704802
15.023185
13.99297
11.639536
9.3353898
7.2860933
6.230219
5.5865867
4.4589621
4.4165954
4.5527726
4.8156153
4.9462982
4.9439983
4.8848184
4.8004
4.6930866
4.5620598
4.4128332
4.2515451
4.0845221
3.9168538
3.7529923
3.5962989
3.4492798
3.3136316
3.1902947
3.0796113
2.9815057
2.8955322
2.8210107
2.7570731
2.7027956
2.6571963
2.6193365
2.5883286
2.5634203
2.543946
2.5294451
2.5195289
2.5137989
2.5120919
2.5145014
2.5208397
2.5290313
2.5383691
2.5546015
2.5768695
-1.0062615
-0.99585536
-0.98025595
-0.96003253
-0.9345643
-0.90366719
-0.86730464
-0.82523082
-0.77725468
-0.72312661
-0.66251135
-0.59498896
-0.52006431
-0.43712364
-0.34537521
-0.24384305
-0.13134323
-0.0064583631
0.13254096
0.28776123
0.46167385
0.6571074
0.8774291
1.1265635
1.408804
1.7295826
2.0987302
2.5453545
3.1947299
3.7869485
4.29105
4.519085
4.8092877
5.1900193
5.6006682
6.0213368
6.4269024
6.7827243
7.0372844
7.2096356
7.2284836
6.9454088
6.0221356
4.0911828
1.2250051
-1.6453425
-3.0362191
-2.1675363
0.41052275
5.162295
10.280065
18.759438
15.494794
15.490504
14.884868
13.219311
11.506634
9.6782294
7.9695661
7.0321427
6.5575926
6.2003105
5.9616247
5.8078171
5.6154774
5.3861014
5.1672039
4.9536697
4.7395531
4.5224419
4.3049998
4.0904399
3.8822853
3.6836833
3.4972864
3.3251673
3.168622
3.0283372
2.904424
2.7964609
2.7036516
2.6249888
2.5592634
2.5051318
2.4612108
2.426192
2.3988561
2.3780494
2.362856
2.3524929
2.3464433
2.3442649
2.3455822
2.350446
2.359121
2.3712847
2.3848113
2.3999789
2.4236432
2.4518448
-1.1204505
-1.1099645
-1.0946106
-1.0749227
-1.0503397
-1.020589
-0.98568711
-0.9454244
-0.8996209
-0.84800872
-0.79026863
-0.72602745
-0.65481286
-0.57601107
-0.48884375
-0.39234109
-0.2853004
-0.16621382
-0.033203489
0.11602634
0.28416912
0.47429407
0.68982303
0.93380128
1.209046
1.5189354
1.8477296
2.1654661
3.17022
4.4646189
5.0380461
4.5865263
4.8808748
5.3999138
5.9188298
6.4659771
7.0312691
7.5881743
8.0700804
8.502705
8.8747059
9.11864
8.8571764
7.7189983
5.5337021
3.3203146
2.0044059
1.8435551
2.1447368
4.0911291
7.9118156
15.19986
13.386678
14.557729
14.804654
13.967168
12.752809
11.213443
9.875837
8.9318386
8.2287915
7.5845212
7.0419537
6.5925464
6.1735666
5.7805356
5.4229561
5.0892898
4.7725059
4.4706887
4.1843379
3.9147135
3.6633718
3.4318934
3.2213985
3.0326969
2.8660005
2.7209785
2.59678
2.4921885
2.4056516
2.3354311
2.2796974
2.2365642
2.2041619
2.1808159
2.1649313
2.155124
2.1502576
2.1494362
2.1520765
2.1576528
2.165841
2.1770571
2.1916276
2.2090424
2.2276388
2.2498685
2.2834768
2.3192221
-1.2397456
-1.2291104
-1.2140548
-1.1949457
-1.1712771
-1.1427806
-1.1095197
-1.0712904
-1.0279009
-0.97911116
-0.92464869
-0.86418052
-0.797267
-0.72334988
-0.64171763
-0.55146701
-0.45141808
-0.34001486
-0.21529927
-0.074768166
0.084483035
0.26586167
0.47312065
0.70928089
0.97683178
1.2634139
1.5505286
2.2289922
6.8772936
8.4778644
8.7903229
6.6696937
5.0430513
5.5911299
6.206649
6.9006763
7.633064
8.3495001
9.0238535
9.6844857
10.372869
10.880904
10.956317
10.299909
8.5509523
7.0873306
6.497884
6.0324083
7.6698622
19.018168
12.355208
9.5996843
12.190828
13.971949
14.50654
14.093353
13.188247
12.115507
11.041861
10.115763
9.3029196
8.5385336
7.8406997
7.2163727
6.6437819
6.1182338
5.6373571
5.1919928
4.7780796
4.3941347
4.0396521
3.7146772
3.419443
3.1542632
2.9191094
2.7136323
2.5369766
2.3878293
2.2643737
2.1644432
2.0856512
2.0254691
1.9813597
1.9507639
1.9313065
1.9208549
1.9174836
1.9195572
1.9256777
1.9348027
1.9462205
1.9593596
1.9739028
1.9909104
2.0105204
2.0318329
2.0543268
2.0848492
2.1323718
2.1783126
-1.3638936
-1.3530324
-1.3382904
-1.3197388
-1.2970343
-1.2699291
-1.2384668
-1.2024492
-1.1616985
-1.1160298
-1.0652061
-1.0089352
-0.94685403
-0.87851516
-0.80334089
-0.72053266
-0.6290051
-0.52725454
-0.41329918
-0.2844504
-0.13756275
0.031205669
0.2265151
0.45210425
0.71886451
1.0107272
1.3518353
3.8945145
8.2563158
8.5198474
9.0437274
10.386726
5.4551313
5.7305781
6.4364287
7.3222666
8.2533798
9.1113232
9.8750464
10.604485
11.291553
11.765733
11.62735
10.964665
9.7717209
9.04956
7.4034941
10.672671
13.813304
17.076999
7.8470983
9.0981219
11.944174
13.845335
14.530765
14.352935
13.697614
12.819267
11.878349
10.964254
10.09072
9.2522181
8.4612998
7.7240824
7.0353373
6.3940796
5.7999071
5.2502756
4.7443807
4.2813299
3.8603157
3.480707
3.1419119
2.8432269
2.5837313
2.3621217
2.1765552
2.0247142
1.9037778
1.8105567
1.7416729
1.6937241
1.6633245
1.6472051
1.6424338
1.6463576
1.6566995
1.6715295
1.6892593
1.7087019
1.7289397
1.7493138
1.7698222
1.7911596
1.8146326
1.8375779
1.8603642
1.8999394
1.9706937
2.0338867
-1.4926337
-1.48139
-1.4669351
-1.4489555
-1.427294
-1.4016814
-1.372133
-1.3384924
-1.3006046
-1.2583137
-1.2114138
-1.1596809
-1.1028766
-1.0407131
-0.97278544
-0.89850031
-0.81697224
-0.72687295
-0.6262555
-0.51232746
-0.38157788
-0.2300732
-0.051354215
0.1556905
0.40604861
0.61272334
1.2810119
1.6649199
3.4525822
6.707644
6.5011538
4.9613647
4.956576
5.5544897
6.4905605
7.6845929
8.9080218
9.9272551
10.725831
11.286086
11.63505
11.513073
10.748671
8.9724852
8.1102066
11.13234
13.331554
12.247031
13.632439
10.843209
9.1557908
10.418321
12.879466
14.431901
15.068555
14.947486
14.389594
13.580358
12.66062
11.716364
10.782726
9.8718853
8.9946136
8.1563807
7.3588712
6.6064216
5.9041306
5.2552168
4.6611951
4.1218316
3.6362774
3.2034082
2.8220354
2.4908055
2.2080947
1.9718138
1.7792343
1.6269982
1.5112386
1.4276441
1.3716778
1.3388817
1.3248757
1.3255981
1.3375069
1.3574921
1.3828883
1.4114586
1.4414545
1.4714945
1.5004469
1.5273634
1.552167
1.5766949
1.6025062
1.6227258
1.6348126
1.6799295
1.793803
1.8871021
-1.6255949
-1.6138207
-1.5996179
-1.5822577
-1.5616672
-1.537627
-1.5101182
-1.4790235
-1.4441887
-1.4054594
-1.3626859
-1.315738
-1.2645195
-1.2089411
-1.1488516
-1.0839602
-1.013761
-0.93723623
-0.8526123
-0.75720934
-0.64701479
-0.51895121
-0.36083438
-0.1836997
0.059245577
0.27630442
0.82423202
1.184859
2.1496628
2.8630365
3.5696561
4.1424117
4.6548544
5.3771552
6.5013063
8.031805
9.6263485
10.800023
11.721963
11.833407
11.460289
9.9024522
10.308737
17.119845
13.830895
12.110782
11.271
11.859572
11.85522
11.200775
11.781082
13.179878
14.698287
15.795458
16.197714
15.966346
15.346676
14.480377
13.488508
12.457486
11.435505
10.43755
9.4666214
8.5246923
7.6168166
6.7529903
5.94414
5.1982298
4.5187299
3.9056537
3.3577623
2.8734339
2.4509792
2.0886434
1.784422
1.5356354
1.3388012
1.1895266
1.0827298
1.0127475
0.97367499
0.95975622
0.96552394
0.98598937
1.0169289
1.0548023
1.0966257
1.1399419
1.1828378
1.2237616
1.2613743
1.2942307
1.3217185
1.346168
1.3703451
1.3798338
1.3508925
1.3576887
1.5340611
1.6907212
-1.7624
-1.7500107
-1.7359595
-1.7192328
-1.6997249
-1.6773474
-1.6520309
-1.6236384
-1.5920037
-1.5569744
-1.5184506
-1.4764034
-1.4308897
-1.3820485
-1.3300735
-1.2751483
-1.2173236
-1.1562205
-1.0906271
-1.0178252
-0.9336284
-0.83538708
-0.70766285
-0.55209669
-0.3349655
-0.062060858
0.25944736
0.82127437
1.7965435
2.5765037
3.2947353
4.0078953
4.6873001
5.4056047
6.6792213
8.4883302
10.509137
11.784842
12.679055
12.351177
11.097604
12.770764
21.288678
16.499814
7.9953696
11.421354
8.948276
10.208495
11.63305
13.055094
14.343834
15.74442
16.910737
17.701621
17.821244
17.363532
16.549269
15.516299
14.369595
13.192096
12.047992
10.950748
9.8808175
8.8312743
7.8084038
6.8293105
5.9119516
5.0693539
4.3065084
3.622559
3.015037
2.4814701
2.019717
1.6279899
1.3043163
1.0458125
0.84838424
0.70658043
0.61383164
0.56281254
0.54585059
0.5556047
0.58527147
0.62885708
0.68148233
0.73920266
0.79880662
0.8577827
0.91417309
0.96634738
1.0127073
1.0511847
1.0799344
1.1008123
1.1185962
1.1151627
1.0099037
0.84134589
1.1373435
1.4892536
-1.9027608
-1.8895707
-1.875525
-1.8594078
-1.8410571
-1.8204507
-1.7974707
-1.7719327
-1.743643
-1.7124336
-1.6782098
-1.6410147
-1.601067
-1.5587924
-1.5148141
-1.4699019
-1.424891
-1.3811155
-1.3372845
-1.2915224
-1.2401085
-1.1771206
-1.0933254
-0.97500666
-0.80277399
-0.54100156
-0.21332414
0.39362405
1.3557878
2.2926762
2.687167
3.4752478
4.8136698
5.8770233
7.2836686
9.0774348
11.163978
12.98664
13.171528
12.664866
12.505559
15.101942
6.6590858
4.2627991
6.6204442
7.871967
9.7618359
11.764468
13.40484
15.189019
16.812227
18.341698
19.463702
20.041418
19.858377
19.072345
17.941144
16.650881
15.28676
13.901317
12.592423
11.401222
10.238602
9.0792658
7.9324643
6.829297
5.7973481
4.8565888
4.0129355
3.2621781
2.5985855
2.0184048
1.5191053
1.0995113
0.75847114
0.49349168
0.30012043
0.17172008
0.099829155
0.07484579
0.086798694
0.12628992
0.18487217
0.25546656
0.33254857
0.41193475
0.49043945
0.56574033
0.63614935
0.7001477
0.75584
0.80046793
0.83055854
0.84706082
0.85930746
0.85739836
0.74247187
0.54854241
2.9831241
6.5841266
-2.0463392
-2.0320281
-2.0178632
-2.0023412
-1.9852137
-1.9665062
-1.9460356
-1.9235571
-1.8988002
-1.8715214
-1.8415803
-1.8090427
-1.7742714
-1.7379907
-1.7013422
-1.6657984
-1.6325465
-1.6074742
-1.5877573
-1.5744707
-1.5654201
-1.552668
-1.522983
-1.4652977
-1.3447007
-1.1115197
-0.75148256
-0.11366544
0.87539361
1.9289999
1.5018924
2.2372128
4.5270899
6.2966976
7.7818171
9.7074088
11.879946
14.13018
14.087047
13.838341
16.807141
5.5061672
5.5710171
5.2813384
6.3605998
7.721381
9.9697848
12.771364
15.245562
17.546769
19.616444
21.364527
22.52451
22.880221
22.364296
21.117109
19.486348
17.828368
16.226511
14.570292
12.977015
11.746277
10.539459
9.2721537
7.9808976
6.7370351
5.5819009
4.5433237
3.6245711
2.8141105
2.0996402
1.4758159
0.94007936
0.49314476
0.13620895
-0.13179981
-0.31531918
-0.42249067
-0.46437405
-0.45385102
-0.40408743
-0.32727061
-0.23382002
-0.13197765
-0.027788319
0.074661861
0.17264717
0.26442645
0.34902675
0.42532554
0.49156581
0.5456211
0.58589441
0.62041698
0.65890075
0.68697103
0.66585311
1.3762856
8.6553019
8.9182743
-2.1927546
-2.1768783
-2.1625172
-2.1475177
-2.1316935
-2.1150577
-2.0973585
-2.0782463
-2.0572951
-2.0341065
-2.0084196
-1.9802348
-1.9499822
-1.9186817
-1.8881185
-1.8611134
-1.841974
-1.8309479
-1.8358941
-1.8592961
-1.901073
-1.9535579
-2.0008779
-2.0224457
-1.9705558
-1.7699645
-1.3731366
-0.68893905
0.25217408
1.3130605
0.078259043
0.80831037
5.4911917
4.821026
7.0857726
9.9397183
12.743505
15.426366
17.375615
16.806428
11.625565
9.5322261
7.7848494
6.2714094
5.9802755
7.4538482
10.647542
14.422157
17.772759
20.836046
23.373269
25.233262
26.227117
26.318184
25.449171
23.527693
21.032173
18.780741
16.984452
15.027876
12.896019
11.947398
10.875843
9.4433387
7.9556112
6.5431099
5.2458676
4.1096113
3.1254454
2.2678887
1.5110288
0.84689442
0.27412182
-0.20218477
-0.57531271
-0.84316192
-1.0096298
-1.0849661
-1.0843402
-1.0254874
-0.92623484
-0.80253441
-0.66724224
-0.52980104
-0.39640425
-0.27050575
-0.15367565
-0.046444634
0.051311525
0.13988839
0.22004552
0.29195853
0.35332058
0.40223918
0.4473406
0.46766052
0.42760743
1.6401552
8.6613877
8.7974218
-2.3414256
-2.3236918
-2.3089685
-2.2943771
-2.2798892
-2.265677
-2.251129
-2.2358194
-2.21911
-2.2003372
-2.1789805
-2.1548232
-2.1281987
-2.1002807
-2.0733469
-2.0511676
-2.0390426
-2.0431907
-2.0730996
-2.1376519
-2.2425882
-2.3840577
-2.5446761
-2.6900626
-2.7408052
-2.5731049
-2.1236953
-1.3490312
-0.34184087
0.58569877
0.78586979
1.5039939
9.4124738
7.6707409
5.4085324
9.6816494
13.964434
17.080939
18.891129
17.340479
14.807183
11.587319
8.8210436
6.8265351
5.6064839
7.1334882
11.92952
17.380747
21.794467
25.232358
28.028853
29.74451
30.433702
30.402206
29.392524
26.589666
22.49103
19.566446
18.756026
16.417146
12.449631
13.171136
10.806975
9.4479753
7.7546201
6.1590026
4.7167442
3.5138384
2.4949243
1.618194
0.83285604
0.12919396
-0.48582112
-0.99934377
-1.3927746
-1.6580742
-1.7981868
-1.8268539
-1.7660189
-1.6411091
-1.4768905
-1.2944095
-1.1094014
-0.93232386
-0.76888911
-0.62105623
-0.48838886
-0.36961261
-0.26262666
-0.16311905
-0.065640134
0.028301678
0.10706783
0.16241859
0.18950727
0.19017442
0.16515519
0.64053013
8.3041499
8.4270108
-2.4917773
-2.4721541
-2.4566499
-2.4421296
-2.4289259
-2.4178769
-2.406996
-2.3961724
-2.3844361
-2.3707079
-2.3540228
-2.3337368
-2.3098196
-2.283329
-2.2567996
-2.2349447
-2.2252188
-2.2377255
-2.2884509
-2.395765
-2.5770882
-2.8384251
-3.1672949
-3.5223866
-3.768058
-3.681961
-3.1398917
-2.202445
-0.96397829
0.21429208
1.5730198
5.3369898
5.2519721
4.4431837
3.3435293