/*--------------------------------*- C++ -*----------------------------------*\
  =========                 |
  \\      /  F ield         | OpenFOAM: The Open Source CFD Toolbox
   \\    /   O peration     | Website:  https://openfoam.org
    \\  /    A nd           | Version:  9
     \\/     M anipulation  |
\*---------------------------------------------------------------------------*/
FoamFile
{
    format      ascii;
    class       volScalarField;
    location    "0.8";
    object      alpha.phase1;
}
// * * * * * * * * * * * * * * * * * * * * * * * * * * * * * * * * * * * * * //

dimensions      [0 0 0 0 0 0 0];

internalField   nonuniform List<scalar> 
10000
(
5.4215283e-84
2.2365716e-83
1.0023978e-81
4.3007566e-81
4.7397748e-81
1.6474869e-81
5.7469359e-82
5.7482806e-82
1.9786913e-81
2.6245193e-79
3.1188094e-77
3.3048289e-75
3.1734922e-73
2.7853467e-71
2.2413161e-69
1.6605433e-67
1.1379205e-65
7.2424088e-64
4.2968477e-62
2.3842811e-60
1.2411605e-58
6.0733217e-57
2.7930239e-55
1.2096455e-53
5.0215846e-52
2.0539872e-50
8.037625e-49
2.6809101e-47
7.2836257e-46
1.8689112e-44
5.6008967e-43
1.9810092e-41
7.3759193e-40
2.7625706e-38
1.0404734e-36
3.9915205e-35
1.5975603e-33
6.9007074e-32
3.3177305e-30
1.7883007e-28
1.0532911e-26
6.4777725e-25
3.9845382e-23
2.3937648e-21
1.4327571e-19
8.9218073e-18
5.3718406e-16
1.3740084e-14
1.7473729e-13
2.2005485e-12
3.0228823e-11
1.8242176e-10
7.0033183e-10
1.7474175e-09
3.8397816e-09
4.1870469e-09
1.824506e-09
5.5377597e-10
1.6244573e-10
4.0375732e-11
9.4392844e-12
2.803579e-12
7.165198e-13
1.2206559e-13
1.2355516e-14
8.0443797e-16
4.2309206e-17
2.0102668e-18
8.4806003e-20
3.1151699e-21
9.9921087e-23
2.8226804e-24
7.0721378e-26
1.579996e-27
3.1604316e-29
5.6759618e-31
9.1666509e-33
1.3317578e-34
1.7392916e-36
2.0384465e-38
2.1382948e-40
2.0009334e-42
1.6638187e-44
1.2239771e-46
7.9240063e-49
4.4884482e-51
2.2103631e-53
9.3966262e-56
3.4212023e-58
1.0573063e-60
2.746075e-63
5.9316444e-66
1.0554066e-68
1.5408058e-71
5.176493e-72
8.2141004e-72
9.39012e-70
8.0575384e-68
2.7525377e-66
3.7455246e-65
5.4215283e-84
2.1626214e-82
7.6890344e-81
3.3640878e-80
4.2862995e-80
3.1766622e-80
1.7022933e-80
8.7489031e-81
5.1008704e-80
7.6031344e-78
9.7085619e-76
1.104116e-73
1.1299675e-71
1.0495745e-69
8.9100944e-68
6.9545528e-66
5.0165609e-64
3.3592828e-62
2.0966212e-60
1.2240792e-58
6.7058546e-57
3.4537516e-55
1.6746653e-53
7.6885868e-52
3.3866544e-50
1.4351736e-48
5.655243e-47
1.9982001e-45
6.5698853e-44
2.2078778e-42
7.8757376e-41
2.8709657e-39
1.0388519e-37
3.7225208e-36
1.3295521e-34
4.7928398e-33
1.7919938e-31
7.2812152e-30
3.3723812e-28
1.8038887e-26
1.0791497e-24
6.8395503e-23
4.3600604e-21
2.7154546e-19
1.6692395e-17
9.871438e-16
4.2178172e-14
1.5256351e-12
3.0979815e-11
1.2093312e-10
1.8922119e-10
7.3028271e-10
1.8055185e-09
3.7926393e-09
6.974876e-09
5.0337087e-08
3.9254552e-08
3.3375031e-08
1.5661227e-08
3.0060703e-09
2.1393562e-10
4.0018017e-11
1.2388887e-11
3.4877751e-12
5.8314043e-13
4.1917961e-14
1.5426377e-15
4.9841118e-17
1.6165243e-18
4.7477458e-20
1.2286706e-21
2.8545811e-23
6.0671083e-25
1.1922082e-26
2.173003e-28
3.6642417e-30
5.6821104e-32
8.0460235e-34
1.0335346e-35
1.1969803e-37
1.2429612e-39
1.1511575e-41
9.4524913e-44
6.8358509e-46
4.327995e-48
2.3816125e-50
1.1303462e-52
4.5884617e-55
1.5787369e-57
4.5594555e-60
1.0945705e-62
2.1715676e-65
3.5708475e-68
5.2004586e-71
4.1530919e-70
4.1575986e-68
2.0936596e-66
4.7454897e-65
6.7893149e-64
1.0092124e-63
3.621954e-81
2.8425307e-79
6.9446233e-78
2.3260126e-77
2.686417e-77
1.8990679e-77
9.7668304e-78
4.8775666e-78
2.1184456e-77
3.3116206e-75
4.3628141e-73
5.0929108e-71
5.3291054e-69
5.0447439e-67
4.3525126e-65
3.443899e-63
2.5121844e-61
1.6968713e-59
1.0654427e-57
6.2405609e-56
3.4188736e-54
1.7514951e-52
8.3735084e-51
3.7819409e-49
1.6881904e-47
7.6045671e-46
3.0135814e-44
8.7071595e-43
1.9093377e-41
4.203543e-40
1.1858409e-38
3.9493488e-37
1.3448078e-35
4.5151878e-34
1.4917973e-32
4.8514943e-31
1.5848104e-29
5.5714588e-28
2.3251232e-26
1.1940673e-24
7.1423041e-23
4.5867682e-21
2.9911047e-19
2.1201385e-17
1.4716604e-15
3.0994485e-14
2.0463387e-13
9.8264327e-11
3.1423115e-09
7.6364675e-09
9.9120193e-09
3.4338664e-07
9.523368e-07
3.3417224e-06
7.5376584e-06
1.193779e-05
1.0548574e-05
5.5253326e-06
1.1409914e-06
7.2690332e-09
2.7193615e-10
5.45815e-11
2.7855563e-10
1.4220442e-10
1.3657648e-11
4.0681876e-13
3.0091254e-14
1.9293956e-15
5.2084247e-17
9.7090356e-19
2.0806496e-20
4.6726227e-22
9.6547373e-24
1.8315993e-25
3.2499312e-27
5.3756691e-29
8.2011415e-31
1.1428613e-32
1.4432256e-34
1.6401798e-36
1.6669437e-38
1.5053735e-40
1.1988542e-42
8.3659162e-45
5.0786744e-47
2.6608959e-49
1.1931259e-51
4.5405591e-54
1.4549108e-56
3.8999491e-59
8.7366071e-62
1.6553812e-64
2.7606677e-67
8.1086383e-69
1.1900205e-66
8.1488243e-65
3.2036518e-63
6.334457e-62
7.6036794e-61
1.3912085e-60
1.9486357e-78
2.1537613e-76
3.9298298e-75
1.0724673e-74
1.1684412e-74
8.0933981e-75
4.0674732e-75
2.0010732e-75
7.2739768e-75
1.200698e-72
1.6450393e-70
1.9842338e-68
2.1357656e-66
2.0728745e-64
1.8288981e-62
1.4767582e-60
1.0973752e-58
7.5393016e-57
4.8085083e-55
2.8578004e-53
1.5873042e-51
8.2296653e-50
3.9617603e-48
1.7969404e-46
8.3089874e-45
4.2465141e-43
1.93517e-41
5.3138217e-40
8.4394204e-39
1.0901655e-37
1.9036472e-36
5.2408134e-35
1.6731668e-33
5.3791727e-32
1.7013506e-30
5.122182e-29
1.4244344e-27
3.9026913e-26
1.2840247e-24
5.9086434e-23
3.4788706e-21
2.3164791e-19
1.8798701e-17
1.239661e-15
1.8993619e-14
2.7247081e-13
1.1504854e-11
4.8740523e-10
3.1204849e-07
4.1960154e-06
1.0704212e-05
1.3648328e-05
1.4592963e-05
1.9303975e-05
1.9539726e-05
1.963495e-05
1.9635027e-05
1.9634993e-05
1.2488428e-05
1.8839695e-07
4.8846953e-09
3.6626052e-10
2.3896546e-11
4.4845804e-13
7.2366308e-14
1.4727048e-14
3.7172854e-15
2.9370703e-15
1.0657203e-15
1.0293624e-16
1.637417e-18
7.8048457e-21
9.6202573e-23
1.8594782e-24
3.357418e-26
5.5398973e-28
8.3995199e-30
1.1557641e-31
1.4309733e-33
1.5842779e-35
1.5588357e-37
1.3533671e-39
1.030704e-41
6.8410343e-44
3.9291429e-46
1.939147e-48
8.1682828e-51
2.9235333e-53
8.8940486e-56
2.318389e-58
5.2899471e-61
1.0900022e-63
2.2522732e-66
1.9253218e-65
1.826807e-63
9.7977353e-62
3.2005242e-60
5.6392769e-59
5.8507019e-58
1.1671906e-57
7.5962179e-76
9.6110241e-74
1.5275117e-72
3.7258921e-72
3.9121103e-72
2.6825327e-72
1.3286178e-72
6.4604048e-73
1.9769804e-72
3.5130095e-70
5.0628598e-68
6.3574785e-66
7.0766735e-64
7.0695804e-62
6.3981118e-60
5.2851354e-58
4.0090992e-56
2.8066909e-54
1.8211779e-52
1.0996042e-50
6.1983908e-49
3.2589319e-47
1.5878873e-45
7.2561433e-44
3.3895699e-42
1.8414306e-40
9.5821665e-39
2.8520305e-37
4.1560752e-36
3.9049392e-35
3.9541685e-34
7.0218949e-33
1.9091929e-31
5.8341909e-30
1.8539889e-28
5.6984505e-27
1.4564972e-25
2.9937605e-24
6.2692872e-23
2.0581513e-21
1.1202364e-19
9.0717783e-18
5.9845257e-16
7.4013345e-15
2.7037549e-13
1.4189438e-11
5.8592132e-10
3.4577164e-07
1.4143095e-05
2.3020481e-05
2.2881578e-05
2.2419537e-05
2.1330677e-05
1.4536548e-05
1.1492589e-05
1.4548372e-05
1.950606e-05
1.7266412e-05
3.7781109e-06
2.3560839e-07
2.1433474e-06
1.2244003e-05
5.5348219e-06
2.0330571e-11
1.2743327e-12
7.2368748e-14
6.4472064e-15
3.1404564e-15
2.2150787e-15
4.8931889e-16
1.0909216e-17
4.7527265e-20
5.4464265e-22
1.0745964e-23
1.9472058e-25
3.2061981e-27
4.8046511e-29
6.498299e-31
7.8861123e-33
8.5355977e-35
8.1890203e-37
6.9216134e-39
5.1016507e-41
3.2271942e-43
1.7357867e-45
7.9733457e-48
3.1795868e-50
1.119707e-52
3.5489526e-55
1.0351741e-57
2.8127299e-60
7.1958608e-63
1.8031528e-64
2.5469779e-62
1.8537436e-60
8.1943079e-59
2.2955978e-57
3.669053e-56
3.3633505e-55
6.9707034e-55
2.2781447e-73
3.0620852e-71
4.5356586e-70
1.0375372e-69
1.06381e-69
7.2589687e-70
3.5625018e-70
1.706344e-70
4.1504113e-70
8.2463717e-68
1.2735062e-65
1.683016e-63
1.9507427e-61
2.0150261e-59
1.8762437e-57
1.5885078e-55
1.2312065e-53
8.7845558e-52
5.7961782e-50
3.5514193e-48
2.0275405e-46
1.0779158e-44
5.305663e-43
2.4427677e-41
1.133816e-39
5.9947093e-38
3.1788202e-36
1.0540515e-34
1.7282338e-33
1.6321835e-32
1.2743005e-31
1.2762311e-30
2.1939708e-29
5.6860685e-28
1.8036817e-26
6.177783e-25
1.6830761e-23
2.8678254e-22
3.592831e-21
5.7041008e-20
2.3946327e-18
1.8378028e-16
5.255081e-15
5.7902194e-14
3.6090705e-12
2.0039368e-10
7.766103e-09
9.1902382e-06
2.3659955e-05
2.3733942e-05
1.3741665e-05
4.2995245e-06
5.3917617e-07
4.6553286e-07
5.6613435e-07
5.5344397e-07
4.0896888e-07
3.6088085e-07
3.5486455e-07
3.3409281e-07
3.1035858e-07
1.9520945e-05
2.5999686e-05
7.2196213e-06
9.6413824e-09
7.2415176e-10
2.4505662e-11
6.2755733e-13
1.3513104e-14
2.8505593e-16
1.74431e-17
2.04842e-19
3.7658801e-22
7.3339752e-24
2.9144136e-25
6.1980559e-27
9.8318013e-29
1.3110357e-30
1.4981461e-32
1.4767906e-34
1.2643701e-36
9.4503166e-39
6.2586499e-41
3.7691478e-43
2.1329139e-45
1.1397693e-47
5.6741884e-50
2.6234395e-52
1.0779089e-54
3.7624488e-57
1.1573209e-59
3.525468e-62
2.4413306e-61
2.3168004e-59
1.3585381e-57
5.113929e-56
1.2534109e-54
1.8358971e-53
1.5107956e-52
3.1637442e-52
5.558162e-71
7.6689096e-69
1.095071e-67
2.4111444e-67
2.4343717e-67
1.6584958e-67
8.098646e-68
3.7634626e-68
6.2758962e-68
1.5264068e-65
2.6208913e-63
3.7147622e-61
4.5331297e-59
4.8758888e-57
4.6932436e-55
4.0860636e-53
3.2434156e-51
2.3621485e-49
1.5863162e-47
9.8669534e-46
5.7035529e-44
3.0622928e-42
1.5208228e-40
7.0699268e-39
3.2729772e-37
1.6342154e-35
7.9823701e-34
2.7842906e-32
5.674746e-31
6.8497154e-30
5.5501686e-29
3.7820906e-28
3.1946989e-27
5.2250885e-26
1.5252396e-24
5.8135139e-23
1.842926e-21
3.0202358e-20
2.6499024e-19
2.0133675e-18
3.8688032e-17
1.5211662e-15
1.5728439e-14
1.7324439e-13
1.2454273e-11
7.5412545e-10
1.3356932e-06
2.1520732e-05
2.3733942e-05
1.0503786e-05
3.2947831e-07
3.3091856e-07
3.3144646e-07
3.3192177e-07
4.8163314e-07
3.5341363e-06
2.4057771e-06
1.496353e-06
5.1671921e-07
3.0995432e-07
3.0230511e-07
9.3189501e-06
2.7352689e-05
2.7759568e-05
4.6370683e-06
9.1776537e-09
2.5810515e-10
5.6964226e-12
1.0205275e-13
1.5571334e-15
1.8281474e-16
4.4869664e-18
4.9803768e-20
7.0651239e-22
1.0594948e-23
1.4480579e-25
1.7809109e-27
1.9649722e-29
1.9339924e-31
1.6919056e-33
1.3102968e-35
8.9455007e-38
5.39889e-40
3.0123332e-42
1.563516e-44
7.9753341e-47
3.6577886e-49
1.31156e-51
4.2736428e-54
1.3654598e-56
4.0360537e-59
1.5398832e-60
2.0871801e-58
1.5546717e-56
7.5876077e-55
2.4802545e-53
5.4025693e-52
7.3107485e-51
5.4669607e-50
1.1368762e-49
1.1476988e-68
1.5861657e-66
2.2303969e-65
4.8077837e-65
4.8064411e-65
3.2818152e-65
1.6083601e-65
6.6447762e-66
4.8396503e-66
2.025757e-63
4.241402e-61
6.6897932e-59
8.759212e-57
9.9215244e-55
9.9447943e-53
8.9484137e-51
7.3010383e-49
5.442108e-47
3.7273385e-45
2.3572979e-43
1.3813737e-41
7.4970754e-40
3.7597604e-38
1.7683482e-36
8.2084125e-35
3.8965499e-33
1.7230033e-31
6.0782124e-30
1.5799765e-28
2.6626895e-27
2.4829559e-26
1.376438e-25
6.5499703e-25
5.1950932e-24
1.2036843e-22
5.0134885e-21
1.8545812e-19
3.0550136e-18
2.1244126e-17
9.7318517e-17
7.4257878e-16
1.0571679e-14
5.4545918e-14
3.2337038e-13
1.8567048e-11
1.2444239e-09
2.7363895e-06
2.1289639e-05
1.6131183e-05
3.2940207e-07
3.2958393e-07
3.2934371e-07
3.3187557e-07
3.2441261e-07
1.7384972e-05
4.6015413e-05
4.0159579e-05
1.0981518e-05
4.0287083e-07
2.9922063e-07
2.8626861e-07
2.9540133e-07
1.8011336e-05
3.4008975e-05
1.2962202e-05
1.7141153e-08
5.2611558e-10
9.7179149e-12
1.3406054e-13
3.042819e-15
1.2243817e-15
4.3217222e-17
3.8721446e-19
5.2402839e-21
7.6374152e-23
1.0056385e-24
1.2060825e-26
1.3228589e-28
1.3165102e-30
1.1837857e-32
9.6216258e-35
7.1275037e-37
4.7646337e-39
2.4885408e-41
1.0853152e-43
3.9733287e-46
1.2688867e-48
3.8845049e-51
1.0975181e-53
3.0061946e-56
9.2239982e-59
1.4293428e-57
1.3225342e-55
8.0261129e-54
3.3381968e-52
9.6230726e-51
1.8879381e-49
2.3735695e-48
1.6282442e-47
3.3281631e-47
2.0726873e-66
2.7998965e-64
3.9340966e-63
8.3995617e-63
8.3432692e-63
5.719034e-63
2.8159744e-63
1.0496236e-63
6.0994528e-65
1.4854457e-61
4.9208118e-59
9.3647717e-57
1.357342e-54
1.6441504e-52
1.7312176e-50
1.6188148e-48
1.3625329e-46
1.0420104e-44
7.2909244e-43
4.6936078e-41
2.790531e-39
1.5323252e-37
7.7679056e-36
3.6936996e-34
1.7126875e-32
7.7881759e-31
3.2261699e-29
1.1845116e-27
3.9470653e-26
8.7869396e-25
8.9218432e-24
4.3196211e-23
1.4429295e-22
6.2443572e-22
1.0824228e-20
5.5758006e-19
2.1964664e-17
2.9149662e-16
1.378772e-15
3.687423e-15
1.1308056e-14
6.0299772e-14
2.3345445e-13
1.084809e-12
5.7549044e-11
5.0436839e-09
3.8475614e-06
1.1003853e-05
3.4073675e-07
3.4609045e-07
3.2928901e-07
3.3269894e-07
3.3436504e-07
1.614656e-05
4.8521732e-05
4.8498407e-05
4.8565371e-05
1.9214994e-05
3.9668466e-07
2.8432755e-07
2.7545297e-07
2.8050686e-07
1.5016314e-05
3.4793344e-05
2.3658539e-05
7.1530553e-07
6.7497086e-10
9.2678254e-12
7.4109044e-13
5.5597114e-14
5.4832169e-15
1.3912223e-16
1.4146848e-18
1.9408101e-20
3.0219694e-22
4.2060927e-24
4.9690894e-26
5.1515493e-28
4.7601255e-30
3.9027979e-32
2.8095463e-34
1.7588497e-36
9.5648028e-39
4.7171677e-41
2.0035915e-43
7.3603176e-46
2.3890829e-48
7.4347279e-51
2.251886e-53
6.4825694e-56
7.0599283e-57
8.7648483e-55
6.4574631e-53
3.2814323e-51
1.1844043e-49
3.0489751e-48
5.4527639e-47
6.3926184e-46
4.0528461e-45
8.1029333e-45
3.3712189e-64
4.3101683e-62
6.1215579e-61
1.3065543e-60
1.2925426e-60
8.9004899e-61
4.3804947e-61
1.6279212e-61
6.5040884e-63
3.2611027e-60
2.0712158e-57
5.1656406e-55
8.5909665e-53
1.144694e-50
1.2891796e-48
1.269317e-46
1.114531e-44
8.838932e-43
6.3873289e-41
4.2338387e-39
2.5878074e-37
1.4651811e-35
7.7135618e-34
3.7771094e-32
1.7106798e-30
7.2684426e-29
3.2827053e-27
2.1066017e-25
1.4905424e-23
4.3530519e-22
3.9369015e-21
1.4367872e-20
3.2912972e-20
8.4307463e-20
1.1926457e-18
7.5218123e-17
2.212553e-15
1.7598347e-14
4.9947171e-14
1.0380938e-13
1.4333476e-13
2.0846778e-13
2.6263238e-13
1.7293938e-13
2.9682764e-12
9.0066316e-08
6.19436e-06
3.2104108e-07
3.3473712e-07
3.3803688e-07
3.6342401e-07
4.8545205e-07
3.6289962e-07
4.5598933e-05
4.8388982e-05
4.8439371e-05
3.6322832e-05
2.8318971e-06
2.8899169e-07
2.7544796e-07
2.736703e-07
2.7526141e-07
1.6386218e-05
3.5163474e-05
3.5086729e-05
4.7922432e-06
6.799601e-10
5.4305193e-11
3.244451e-12
1.3441808e-13
8.501762e-15
2.2176121e-16
2.8017251e-18
3.5893668e-20
5.182367e-22
7.0519485e-24
8.5179235e-26
8.9060048e-28
8.1053588e-30
6.4183432e-32
4.4163344e-34
2.6343303e-36
1.3725422e-38
6.3931241e-41
2.6505439e-43
1.0713788e-45
4.1277973e-48
1.4809177e-50
4.9143509e-53
1.7984255e-55
4.6821963e-54
4.1172294e-52
2.4941936e-50
1.0840824e-48
3.4496192e-47
8.0156551e-46
1.3195663e-44
1.4473072e-43
8.5328798e-43
1.6656778e-42
5.084851e-62
5.883608e-60
8.5266787e-59
1.8320651e-58
1.8083078e-58
1.2522733e-58
6.1878014e-59
2.2499229e-59
8.8936145e-62
6.3230263e-59
5.5010202e-56
3.8057272e-53
1.026006e-50
1.6816369e-48
2.1157301e-46
2.2388508e-44
2.0696468e-42
1.7057007e-40
1.2691153e-38
8.5993181e-37
5.3395898e-35
3.0510067e-33
1.609291e-31
7.8658192e-30
3.572012e-28
1.5252334e-26
6.7283236e-25
3.8772159e-23
2.3906635e-21
6.6603199e-20
6.1502966e-19
2.2583583e-18
4.4133868e-18
7.8847474e-18
6.4546038e-17
3.4427852e-15
7.2429531e-14
4.3156542e-13
1.1450455e-12
2.4107696e-12
2.336429e-12
9.9874997e-13
2.970584e-13
3.8090714e-13
1.3825358e-11
8.361897e-07
3.903842e-06
2.9037305e-07
3.1671328e-07
1.5035558e-06
2.7969912e-06
2.6556299e-06
4.6977534e-07
4.8048323e-05
4.8278319e-05
4.8055943e-05
2.023748e-06
4.736357e-07
4.216812e-07
2.7366309e-07
2.7366808e-07
2.729008e-07
1.1499783e-05
3.5190405e-05
3.5163474e-05
2.7875536e-06
4.177559e-09
1.7578213e-10
2.1774475e-12
1.4002997e-13
7.8836751e-15
2.0631784e-16
2.8328066e-18
3.9512885e-20
5.5996571e-22
7.1616915e-24
8.2953828e-26
8.5208255e-28
7.6190524e-30
5.9198871e-32
4.0161719e-34
2.410254e-36
1.3240017e-38
6.8708064e-41
3.7127823e-43
1.8513939e-45
8.1380708e-48
3.128205e-50
1.0537714e-52
1.9009105e-53
2.1507458e-51
1.5237786e-49
7.7758632e-48
2.9418349e-46
8.3611036e-45
1.7707063e-43
2.7047278e-42
2.7868217e-41
1.5353286e-40
2.9240082e-40
7.3214434e-60
7.2113009e-58
1.0750081e-56
2.339682e-56
2.3064533e-56
1.6063182e-56
8.2409129e-57
2.8708294e-57
8.7599486e-61
7.3152971e-59
5.1368668e-56
3.7515913e-51
5.3504707e-48
1.3645499e-45
2.0755625e-43
2.449487e-41
2.445226e-39
2.1414169e-37
1.6786468e-35
1.1937611e-33
7.7625313e-32
4.6100166e-30
2.5059516e-28
1.331532e-26
8.3422385e-25
6.2865157e-23
3.0758809e-21
6.1503703e-20
5.8323751e-19
4.8043832e-18
3.885019e-17
1.7049355e-16
3.8419542e-16
6.4739919e-16
1.9344685e-15
1.0303159e-13
2.2718903e-12
7.3060189e-12
5.2299644e-12
1.6779967e-12
1.4445447e-12
9.8668394e-13
3.9065567e-13
3.5825569e-12
1.5390499e-07
2.2806576e-06
8.856291e-08
2.5617417e-07
2.0142735e-06
6.7885395e-05
7.3735955e-05
5.8825588e-06
2.6050556e-06
3.7733126e-05
4.8203774e-05
8.1611663e-06
3.0141688e-07
3.9679163e-07
6.4716917e-07
2.7835638e-07
2.736703e-07
2.7855244e-07
8.0119028e-06
3.5187867e-05
3.5123347e-05
2.7197526e-10
2.4626427e-11
3.9182879e-11
1.528411e-12
1.0548267e-13
5.7623109e-15
1.5357144e-16
2.2946934e-18
3.2395487e-20
4.6303299e-22
5.9223422e-24
6.615315e-26
6.5876285e-28
5.8666031e-30
4.7115645e-32
3.4143632e-34
2.2477854e-36
1.3579637e-38
7.56194e-41
3.8771222e-43
1.7946109e-45
7.3418003e-48
2.3912864e-50
1.5333927e-52
9.4056681e-51
7.7129263e-49
4.5344533e-47
1.9882213e-45
6.6444303e-44
1.7055377e-42
3.3204313e-41
4.7380492e-40
4.6032534e-39
2.3799784e-38
4.4220548e-38
1.0330247e-57
8.0133901e-56
1.2380639e-54
2.7448784e-54
2.6981818e-54
1.9130292e-54
8.1594978e-55
2.9383861e-57
7.1849436e-59
4.9017285e-56
3.2551625e-53
3.0347129e-49
8.5000837e-44
4.1770635e-41
7.9191658e-39
1.0790385e-36
1.2191822e-34
1.2090877e-32
1.0774086e-30
8.6389349e-29
6.7743332e-27
8.6632122e-25
1.7544767e-22
8.8243814e-21
8.3706209e-20
3.0035537e-19
1.9070879e-18
2.888661e-17
1.3591582e-16
3.6752492e-16
1.0037984e-15
3.8591203e-15
1.6368821e-14
3.291016e-14
1.7567128e-13
3.4331509e-12
2.2801085e-12
2.323558e-11
6.3966431e-10
2.1250389e-11
1.0054741e-12
9.9821456e-13
7.46795e-13
1.1010285e-11
1.1378723e-06
2.2278536e-06
8.5860351e-08
8.1068159e-07
4.1903267e-05
0.00010292005
0.00010287637
7.3161189e-06
9.0979306e-06
4.2770256e-05
3.9940796e-05
3.0122518e-07
2.9937201e-07
2.9846834e-07
2.9291019e-07
2.7854391e-07
2.8311823e-07
3.7385279e-07
3.0034334e-05
3.518841e-05
6.9173005e-06
2.363026e-11
7.5097946e-13
7.6882721e-13
7.629662e-13
5.9201927e-14
3.4585697e-15
9.9568951e-17
1.5220744e-18
2.1228861e-20
3.1267505e-22
4.177771e-24
4.8355206e-26
4.9930015e-28
4.6351946e-30
3.8801552e-32
2.9381867e-34
1.9903531e-36
1.1965322e-38
6.3563267e-41
2.9283869e-43
1.1314783e-45
2.9898402e-48
2.4076853e-50
2.4438456e-50
3.3105486e-48
2.2101974e-46
1.1027799e-44
4.2242595e-43
1.2627029e-41
2.9554176e-40
5.3292749e-39
7.1471378e-38
6.5683703e-37
3.2002214e-36
5.8019004e-36
1.4562877e-55
8.1513099e-54
1.312142e-52
2.9825255e-52
2.9340764e-52
2.062016e-52
1.0300581e-52
3.9450926e-53
2.4199972e-52
6.6961622e-50
4.7446689e-47
2.1781208e-44
8.0515129e-42
2.727263e-39
5.3821321e-37
7.8507228e-35
9.1129858e-33
8.9678324e-31
7.783346e-29
6.0914543e-27
4.34163e-25
2.8239353e-23
1.7708922e-21
1.3944039e-19
1.7322684e-17
1.1368491e-15
1.8892238e-14
9.3449734e-14
2.0589484e-13
3.0552084e-13
4.3994228e-13
9.071952e-13
2.2406909e-12
2.9488662e-12
4.4746272e-12
5.6560232e-11
1.9189698e-10
1.8182731e-10
1.4836662e-10
1.5501614e-11
2.0701777e-07
6.6491847e-08
2.3675281e-08
5.3700644e-07
2.0556229e-06
3.0208345e-07
8.3170146e-08
7.6649281e-07
6.1049421e-05
0.00010293931
0.00010297066
4.6853897e-06
2.0425675e-05
4.6484181e-05
4.0587515e-05
3.2130007e-07
3.0120754e-07
2.9936264e-07
2.9776328e-07
2.8743551e-07
3.430136e-06
2.9208932e-05
3.0518827e-05
2.824148e-05
6.2515649e-10
4.2098716e-12
2.9666159e-12
2.8779496e-12
3.1493861e-13
3.14412e-14
2.1610782e-15
6.7972491e-17
1.0557023e-18
1.5048986e-20
2.2817632e-22
3.151414e-24
3.7709444e-26
3.9586011e-28
3.6548751e-30
2.9636109e-32
2.1243605e-34
1.3256625e-36
7.0337661e-39
3.1350211e-41
1.0834487e-43
2.2618716e-46
1.6962895e-48
2.3411269e-49
1.2355688e-47
9.1941459e-46
5.1521727e-44
2.2232784e-42
7.5419291e-41
2.0377237e-39
4.3845614e-38
7.3732767e-37
9.3414696e-36
8.1484331e-35
3.7538037e-34
6.6410943e-34
2.065021e-53
7.6645845e-52
1.2878356e-50
3.0200567e-50
2.9809626e-50
2.0938502e-50
1.1615579e-50
4.765809e-51
1.56268e-50
2.8610645e-48
1.2232232e-45
7.2286073e-43
2.8128554e-40
1.0538833e-37
2.3923908e-35
3.674031e-33
4.3347593e-31
4.2979045e-29
3.7289087e-27
2.8984732e-25
2.0401694e-23
1.2996812e-21
7.7943846e-20
5.6076999e-18
6.6209159e-16
4.8449982e-14
8.7908689e-13
4.3029376e-12
8.5098085e-12
1.0419977e-11
1.0746212e-11
1.1200694e-11
1.5059058e-11
1.5223322e-11
9.5188167e-12
9.5245859e-12
3.5824985e-09
3.3386339e-10
1.4910204e-10
1.7889545e-07
3.0531671e-07
1.5962052e-07
9.9156208e-08
1.3464235e-06
2.0515726e-06
2.0029307e-07
8.3161997e-08
8.3161997e-08
9.0851251e-06
0.00010292005
6.0530071e-05
1.0769617e-06
2.4342878e-05
4.6559788e-05
4.6484181e-05
1.9328914e-05
3.2272536e-07
3.0773187e-07
4.5035894e-06
2.5124815e-05
3.3995668e-05
3.2979979e-05
2.9930927e-05
1.581131e-07
5.4403978e-11
1.2804541e-11
1.5982825e-11
2.1866501e-12
1.6296234e-13
1.904042e-14
1.4108761e-15
4.5050979e-17
7.513734e-19
1.1251263e-20
1.7024542e-22
2.2910132e-24
2.6471888e-26
2.6215496e-28
2.2147436e-30
1.5746941e-32
9.3169813e-35
4.5983663e-37
1.8302786e-39
5.6489682e-42
1.0462435e-44
2.1459072e-46
3.882259e-47
5.446491e-47
3.3260982e-45
2.0668727e-43
9.9266414e-42
3.7602056e-40
1.142471e-38
2.8142625e-37
5.6066599e-36
8.8465279e-35
1.0639531e-33
8.8315348e-33
3.8583731e-32
6.66311e-32
2.9337324e-51
6.7311297e-50
1.1775356e-48
2.8658418e-48
2.8432003e-48
2.0040515e-48
1.1171511e-48
5.3950293e-49
6.2652237e-49
1.3820531e-47
2.9813895e-45
1.8471032e-41
1.4383819e-38
3.9814925e-36
6.3099518e-34
7.7508521e-32
7.981324e-30
7.1428104e-28
5.6679394e-26
4.0384899e-24
2.5936451e-22
1.4952275e-20
8.0523299e-19
5.1046191e-17
4.9695466e-15
2.995486e-13
4.7173731e-12
2.0695e-11
3.6976913e-11
4.144971e-11
3.272945e-11
2.0984134e-11
1.8063394e-11
1.653266e-11
9.7821073e-12
1.1944942e-11
1.3368837e-08
2.2505632e-07
3.9755098e-08
1.7363101e-08
4.9922552e-08
4.1854972e-08
4.2538659e-08
4.2538659e-08
2.4271041e-07
1.1280714e-07
8.3170146e-08
8.3246002e-08
3.6444524e-06
8.6441899e-05
8.86806e-07
4.3743572e-07
1.8700184e-05
4.6484181e-05
4.6560127e-05
4.6380907e-05
1.5814604e-05
2.7560719e-05
3.4246468e-05
3.4246468e-05
3.4246468e-05
2.8461709e-05
5.4256587e-07
1.5218978e-09
-1.3162588e-11
5.5220593e-11
5.3943317e-11
1.5610541e-12
9.8428999e-14
1.220423e-14
7.7542687e-16
2.3847403e-17
4.0370879e-19
6.6677238e-21
1.0043171e-22
1.242884e-24
1.2681166e-26
1.063712e-28
7.252069e-31
3.9440128e-33
1.6388014e-35
5.3502794e-38
1.3027418e-40
2.4624701e-43
1.8094025e-44
8.7546955e-45
2.5432423e-45
1.1858632e-44
7.2347521e-43
3.8273059e-41
1.6018175e-39
5.3915322e-38
1.4804987e-36
3.3490458e-35
6.2154195e-34
9.2515037e-33
1.0606719e-31
8.398884e-31
3.4892402e-30
5.8838696e-30
4.1355498e-49
5.5760493e-48
1.005124e-46
2.5592954e-46
2.5591994e-46
1.8299299e-46
9.3728024e-47
4.0420463e-47
3.8422971e-47
2.199695e-44
8.2919281e-42
1.7853388e-39
2.9851778e-37
4.1189248e-35
4.7724185e-33
4.7780593e-31
4.205044e-29
3.2883013e-27
2.3018183e-25
1.449673e-23
8.2058382e-22
4.1450915e-20
1.9360737e-18
1.0366664e-16
8.3925565e-15
4.5385137e-13
6.7160384e-12
2.7934318e-11
4.7211014e-11
5.0595343e-11
4.4648775e-11
2.5754696e-11
1.7526067e-11
1.6617253e-11
4.4356659e-11
7.0693956e-10
7.2631206e-10
3.2196934e-06
4.6793582e-06
1.8783363e-06
5.0995606e-08
1.1270967e-05
4.9307962e-05
3.9747177e-05
3.7849365e-06
1.0205098e-07
9.0186546e-08
9.5957006e-08
2.6217055e-06
1.0615127e-06
3.021015e-06
1.1647123e-07
7.5435211e-06
4.6489294e-05
4.6489294e-05
4.6432699e-05
4.6103512e-05
4.5470257e-05
2.479326e-05
6.1080762e-06
9.5232985e-06
3.2201089e-06
2.8274248e-09
9.8454972e-11
3.8411259e-11
6.9741546e-11
6.6928107e-11
1.1139747e-12
6.2165734e-14
7.5910173e-15
5.2900096e-16
1.779388e-17
2.5923724e-19
2.3838197e-21
3.372484e-23
3.5901857e-25
2.8946405e-27
1.7687457e-29
8.1392626e-32
3.0275196e-34
9.0561996e-37
2.3686956e-39
8.7580844e-42
1.1243982e-42
8.1194061e-43
3.8248239e-43
2.3084787e-43
2.3469928e-42
1.2923179e-40
5.9304526e-39
2.191804e-37
6.6153981e-36
1.6532165e-34
3.4541698e-33
6.0029134e-32
8.4702418e-31
9.2917086e-30
7.034019e-29
2.7858759e-28
4.5896541e-28
5.7231448e-47
4.4275859e-46
8.0366862e-45
2.1583046e-44
2.1816649e-44
1.5727537e-44
7.8197176e-45
3.2506243e-45
3.4521824e-45
1.3957691e-43
3.6512562e-41
6.6745729e-39
9.7972129e-37
1.1688125e-34
1.2320322e-32
1.1687075e-30
9.8999323e-29
7.5113011e-27
5.1261971e-25
3.1549863e-23
1.7426929e-21
8.5791743e-20
3.9936929e-18
2.2847618e-16
1.8037416e-14
7.2867829e-13
7.9629809e-12
2.7444689e-11
4.3858105e-11
4.7531019e-11
4.9037557e-11
9.5811105e-11
2.2797009e-11
1.7474271e-11
1.8834629e-10
1.913129e-09
7.9093699e-10
1.899432e-09
3.5657254e-09
3.5705551e-09
2.3524253e-05
8.1951336e-05
8.2822931e-05
8.3199772e-05
8.3271602e-05
1.974949e-05
1.0645265e-07
9.5735801e-08
1.0766645e-07
2.4406572e-07
8.2379399e-06
3.3625633e-08
3.3370504e-08
1.8560876e-05
4.6276551e-05
1.801416e-05
3.2160546e-08
3.3004083e-07
1.1754503e-06
2.1009915e-07
3.0652065e-09
1.2946226e-09
8.974386e-11
2.5031708e-11
3.6652093e-11
8.0231325e-11
5.4134268e-11
1.830444e-13
1.1195732e-14
1.3408326e-15
8.3044739e-16
2.0208343e-17
1.344785e-19
2.0205301e-21
6.3459821e-24
4.6486088e-26
3.2450239e-28
2.1647158e-30
1.9055074e-32
1.2673703e-34
7.4231109e-37
3.5159677e-39
7.9467668e-41
5.8325839e-41
4.3356579e-41
2.9257697e-41
2.8526552e-41
3.9871356e-40
1.9285628e-38
7.7936471e-37
2.5709175e-35
7.0067324e-34
1.6012962e-32
3.1029833e-31
5.0719365e-30
6.8142638e-29
7.1750563e-28
5.203357e-27
1.9700461e-26
3.1726285e-26
7.7076852e-45
3.4552827e-44
6.0307144e-43
1.7235391e-42
1.7700971e-42
1.2774894e-42
6.4614525e-43
2.1770464e-43
5.3079041e-44
1.1773877e-43
1.4421695e-41
2.9839547e-39
6.4856209e-37
1.697619e-34
3.2787309e-32
4.4938933e-30
4.9830608e-28
4.7097856e-26
3.8873777e-24
2.8255512e-22
1.7960915e-20
1.0196868e-18
6.1163542e-17
4.5763312e-15
2.241863e-13
3.493363e-12
1.7720668e-11
3.9392388e-11
5.1004109e-11
4.75416e-11
4.7611295e-11
1.1907437e-09
6.0281484e-09
1.3638259e-10
7.2800632e-10
6.3815677e-09
3.1743972e-09
5.0925291e-09
3.2688212e-09
3.7321036e-09
1.5370828e-08
4.5270516e-05
8.3332033e-05
8.3800141e-05
8.3271602e-05
6.3769163e-05
2.7502944e-06
1.1423003e-07
1.2199908e-07
3.675645e-06
8.436735e-06
3.3370717e-08
3.3267023e-08
3.2902243e-08
3.2391107e-08
3.2175017e-08
3.3248957e-08
2.2206032e-08
5.5793425e-09
3.0660937e-09
1.8370871e-09
7.4924848e-11
1.9178925e-11
1.8931342e-11
3.3618078e-11
4.4474413e-11
1.8718337e-11
2.8557823e-12
2.3102707e-12
6.601528e-13
1.3895691e-16
3.219209e-17
-1.0650407e-18
5.1223529e-21
4.9863345e-24
3.2797608e-26
3.3555125e-28
3.3824789e-30
4.5026264e-32
5.1371056e-34
4.0091628e-36
2.7663925e-38
3.5019319e-39
3.3019318e-39
3.202097e-39
3.3425804e-39
4.2859044e-39
5.7198752e-38
2.4440262e-36
8.8029257e-35
2.6120699e-33
6.4576948e-32
1.3532114e-30
2.4382431e-29
3.7616462e-28
4.8307608e-27
4.896293e-26
3.4077779e-25
1.2369266e-24
1.9489966e-24
1.004343e-42
2.7428721e-42
4.2619581e-41
1.3055898e-40
1.3702776e-40
9.8725534e-41
5.006193e-41
1.6370772e-41
4.5176899e-42
4.4446008e-42
2.2241233e-40
6.8148984e-38
1.3155219e-35
1.9259445e-33
2.4046146e-31
2.5587289e-29
2.35746e-27
1.9012855e-25
1.3488001e-23
8.3754918e-22
4.4902289e-20
2.0686515e-18
8.6867643e-17
3.6419536e-15
1.2393344e-13
2.048847e-12
1.4797487e-11
5.6062721e-11
1.5213199e-10
2.9213043e-10
2.4516376e-10
5.8134944e-10
7.5034408e-08
2.5378418e-07
1.7055342e-07
3.0541187e-07
1.1662649e-06
1.3053939e-07
8.525742e-09
1.2630298e-07
3.3415077e-07
4.3719961e-07
7.8864761e-06
8.2822428e-05
8.3800141e-05
8.3419271e-05
1.7349291e-05
2.0145938e-07
2.1581967e-07
7.8477131e-06
8.5035158e-06
3.3471923e-08
3.3370718e-08
3.3267024e-08
3.2902246e-08
4.1358912e-08
1.4402532e-07
1.5399214e-07
6.1332282e-08
4.680921e-09
4.7534157e-10
1.9178925e-11
1.8802307e-11
1.8802307e-11
1.881032e-11
2.3138324e-11
5.2998867e-11
8.343137e-11
8.5952906e-11
4.0068547e-11
0
2.9311808e-17
-4.6821712e-18
1.5599574e-20
4.2755242e-23
1.6685659e-24
2.4418603e-26
3.1242225e-28
3.0703658e-30
2.1721166e-32
1.0932015e-34
8.2916704e-37
1.824654e-37
2.4748453e-37
3.5709427e-37
4.3167915e-37
5.5577235e-37
6.9605329e-36
2.6680252e-34
8.6496054e-33
2.3222375e-31
5.2197944e-30
1.0030599e-28
1.6817889e-27
2.4553586e-26
3.0241533e-25
2.9577017e-24
1.9797156e-23
6.911035e-23
1.0666676e-22
1.2605435e-40
2.2974297e-40
2.8517478e-39
9.3828677e-39
1.0136883e-38
7.2938764e-39
3.6920729e-39
1.2229591e-39
2.7542489e-40
1.1277356e-40
6.3462461e-39
2.5769614e-37
2.7793869e-35
3.9821913e-33
4.8561459e-31
5.0801386e-29
4.6219628e-27
3.6690351e-25
2.5266274e-23
1.6136418e-21
9.1957318e-20
4.3066128e-18
1.6020476e-16
5.3036766e-15
7.5381383e-13
3.7709538e-11
1.9275244e-11
5.5421012e-11
1.0958509e-10
9.244796e-10
3.8007314e-09
3.0001429e-09
7.2811299e-08
9.736983e-07
1.8064423e-06
5.6763915e-06
6.5275257e-06
2.523098e-07
7.4261461e-08
2.4528302e-07
5.0174461e-07
6.5846032e-07
1.222574e-06
2.8390585e-05
8.3306035e-05
6.7289211e-05
5.3504072e-06
2.8252909e-07
2.4606299e-07
1.0335626e-05
9.3320986e-06
3.3763427e-08
3.3471924e-08
3.35505e-08
3.4589935e-08
4.3901565e-08
5.7997307e-07
1.9228949e-06
1.1494887e-06
1.0945918e-07
2.5628093e-08
3.4345315e-09
1.9252377e-11
4.2280299e-11
1.089569e-10
2.0500806e-11
2.0856808e-11
1.3923647e-10
2.2424426e-10
1.4015354e-10
-7.1841425e-19
3.4305522e-18
-8.9639254e-18
1.1227441e-19
8.1385046e-22
3.4572921e-23
4.1970663e-25
5.2964154e-27
5.2010596e-29
3.7272055e-31
2.2300661e-33
1.5158316e-35
1.3347619e-35
2.9582695e-35
4.4275862e-35
5.0900817e-35
5.8360445e-35
7.3091509e-34
2.5412213e-32
7.4777222e-31
1.8245083e-29
3.7288937e-28
6.5559544e-27
1.0214171e-25
1.4132247e-24
1.6738401e-23
1.5830646e-22
1.021499e-21
3.4423708e-21
5.2104006e-21
1.5217251e-38
2.0913782e-38
1.8147407e-37
6.3939384e-37
7.1722669e-37
5.1643448e-37
2.6061523e-37
8.6738026e-38
1.8734616e-38
1.2507628e-38