/*--------------------------------*- C++ -*----------------------------------*\
  =========                 |
  \\      /  F ield         | OpenFOAM: The Open Source CFD Toolbox
   \\    /   O peration     | Website:  https://openfoam.org
    \\  /    A nd           | Version:  9
     \\/     M anipulation  |
\*---------------------------------------------------------------------------*/
FoamFile
{
    format      ascii;
    class       volScalarField;
    location    "0.8";
    object      p_rgh;
}
// * * * * * * * * * * * * * * * * * * * * * * * * * * * * * * * * * * * * * //

dimensions      [1 -1 -2 0 0 0 0];

internalField   nonuniform List<scalar> 
10000
(
0
-0.016865156
-0.039867075
-0.069103989
-0.10651541
-0.15120597
-0.20283866
-0.26113291
-0.32558282
-0.39576754
-0.4710626
-0.55081425
-0.63437099
-0.7208714
-0.80948523
-0.89930349
-0.98925245
-1.0783105
-1.1654161
-1.2493914
-1.3291027
-1.4034311
-1.4712079
-1.5313537
-1.5829416
-1.6251422
-1.657292
-1.6790016
-1.690145
-1.6908579
-1.6816237
-1.6633029
-1.6371734
-1.6054002
-1.5702412
-1.533804
-1.4981183
-1.4650513
-1.4361457
-1.4123769
-1.3938946
-1.3798065
-1.3678782
-1.3537963
-1.3297939
-1.2884279
-1.2310617
-1.150847
-1.0567304
-0.97002392
-0.91323968
-0.90531527
-1.0365528
-1.3579181
-1.8333444
-2.3605141
-2.8389953
-3.1899806
-3.3852297
-3.416439
-3.3183176
-3.1345922
-2.8980067
-2.640275
-2.3776362
-2.115175
-1.8570176
-1.6066595
-1.3646858
-1.1300642
-0.90144244
-0.67740987
-0.45676993
-0.23869559
-0.022755294
0.19110744
0.40271029
0.61169326
0.81755662
1.019726
1.2175661
1.4104062
1.5975053
1.7780512
1.9508939
2.1153082
2.2708911
2.4174489
2.554849
2.6828988
2.8013386
2.9097312
3.0074095
3.0940346
3.1708565
3.2457134
3.3134963
3.3662883
3.4054702
3.4352671
0.015562907
-0.0013976545
-0.024658838
-0.054146877
-0.09202367
-0.13718303
-0.1894757
-0.24842777
-0.31370946
-0.3847739
-0.46101797
-0.54188877
-0.62658688
-0.71434281
-0.8043392
-0.89554295
-0.98696076
-1.0775834
-1.1662438
-1.2517895
-1.3330881
-1.4089095
-1.4780532
-1.5394519
-1.5921003
-1.6350964
-1.6677792
-1.6897337
-1.7007814
-1.7010951
-1.6912761
-1.6723333
-1.6457219
-1.6134633
-1.5778448
-1.5411945
-1.5057966
-1.4738014
-1.4469984
-1.4265035
-1.4124975
-1.4039829
-1.398445
-1.391588
-1.3771315
-1.3476432
-1.2881278
-1.1981238
-1.0951803
-1.0109941
-0.98458259
-0.92931996
-1.0429151
-1.4045542
-1.9376462
-2.5410682
-3.0915787
-3.4788636
-3.6919536
-3.6940726
-3.5457202
-3.3398641
-3.0987198
-2.830403
-2.547259
-2.2621943
-1.9837729
-1.7159344
-1.4587219
-1.210765
-0.97041949
-0.73596797
-0.50603077
-0.27967454
-0.056362268
0.16406399
0.38149953
0.59566469
0.80611357
1.01231
1.2136467
1.4094631
1.5990708
1.7817644
1.9567948
2.1235667
2.2816405
2.4306944
2.5704839
2.7007667
2.8213057
2.9319935
3.0329353
3.1244051
3.2074891
3.2780189
3.3406833
3.391376
3.4296635
3.4590029
0.041334522
0.023943359
0.000307713
-0.029745156
-0.068261345
-0.11431379
-0.16756298
-0.22772426
-0.29434274
-0.36687184
-0.44483256
-0.52752099
-0.61421945
-0.70420014
-0.79651562
-0.89019967
-0.98428671
-1.0776488
-1.1691202
-1.2575492
-1.3416769
-1.4202044
-1.4919175
-1.5556436
-1.6102533
-1.6547909
-1.6885153
-1.7108854
-1.7216556
-1.7209944
-1.7095022
-1.6882302
-1.6587584
-1.6232087
-1.5840771
-1.5440553
-1.5059118
-1.4723158
-1.4455428
-1.4271515
-1.4177449
-1.4166736
-1.4216403
-1.428572
-1.4315311
-1.4199737
-1.3768702
-1.2840122
-1.1715642
-1.1140704
-1.1740123
-1.0674518
-1.1420965
-1.6810116
-2.2302269
-2.7337501
-3.4281168
-3.9067295
-4.1545478
-4.0699661
-3.8434845
-3.5999206
-3.3195751
-3.0156921
-2.7024689
-2.3919953
-2.0925307
-1.8085545
-1.5385772
-1.2799944
-1.0304097
-0.78751839
-0.54962252
-0.31569727
-0.085209403
0.14196062
0.36564639
0.58554743
0.80121661
1.0121254
1.2176699
1.4172424
1.6102284
1.79595
1.9737901
2.1432336
2.303848
2.4552894
2.5973083
2.7296924
2.8523087
2.965119
3.0683586
3.1602652
3.2418661
3.3132283
3.3745346
3.4243151
3.4620972
3.4912649
0.073674584
0.055907878
0.031679132
0.00097517991
-0.038521141
-0.085661699
-0.14029413
-0.2020401
-0.27042306
-0.34503482
-0.42526326
-0.51045595
-0.59996997
-0.69295773
-0.78850913
-0.88571524
-0.98350703
-1.0807296
-1.1762261
-1.2687302
-1.3568794
-1.4393415
-1.5147955
-1.5819023
-1.6394175
-1.6862629
-1.7215121
-1.7444591
-1.7547619
-1.7525047
-1.7382232
-1.7130107
-1.6786124
-1.6373807
-1.5921625
-1.5462034
-1.502979
-1.4659136
-1.4380354
-1.4216791
-1.4182654
-1.4279348
-1.4489685
-1.4778533
-1.510448
-1.5365201
-1.5195019
-1.428213
-1.2665227
-1.189512
-1.5246341
-1.3591982
-1.3832421
-1.1395143
-1.684616
-2.6000102
-3.3352202
-3.5862936
-4.4340038
-4.764116
-4.3786291
-4.008627
-3.6693852
-3.2977745
-2.9074781
-2.5477518
-2.2163905
-1.9092234
-1.6222987
-1.3511328
-1.0913209
-0.83943755
-0.59325016
-0.35148456
-0.11352384
0.12076735
0.35118768
0.57742303
0.79898642
1.0153268
1.2258288
1.4299094
1.6269384
1.8163308
1.9975327
2.1700687
2.3335572
2.4876553
2.6321031
2.7666681
2.891151
3.0053017
3.1088836
3.2031616
3.286224
3.3584014
3.4196096
3.4691883
3.5068403
3.5360847
0.11448552
0.096221533
0.071384116
0.039759193
-0.00088939412
-0.049507434
-0.1058752
-0.16958437
-0.24029662
-0.31749616
-0.40060532
-0.48906659
-0.58214073
-0.67899466
-0.7787914
-0.88054337
-0.98313912
-1.0854442
-1.1862131
-1.2840626
-1.3775815
-1.465336
-1.5458212
-1.6175406
-1.6790942
-1.7291749
-1.766608
-1.7904864
-1.8002765
-1.7958749
-1.7777168
-1.7469318
-1.7054203
-1.6558314
-1.601529
-1.5465268
-1.4952492
-1.4521616
-1.4214054
-1.4064675
-1.4099542
-1.43333
-1.4760336
-1.5354585
-1.6149624
-1.7248576
-1.800518
-1.675232
-1.2516556
-1.107881
-0.86716957
-0.88916088
-1.2008298
-2.632947
-3.7295766
-4.7825907
-5.4261981
-5.7760717
-6.9248468
-6.5092153
-5.8770966
-4.3071995
-4.1978997
-3.6645132
-3.13413
-2.717245
-2.3588285
-2.0301945
-1.7247
-1.4387848
-1.1666364
-0.9036406
-0.64705832
-0.39541919
-0.14804799
0.095206746
0.3340882
0.56831834
0.79731964
1.0204944
1.2372689
1.4470147
1.6491702
1.8431834
2.0285736
2.2049309
2.3718949
2.5291501
2.6764327
2.8135437
2.9403053
3.0565662
3.1622037
3.2573904
3.341519
3.414457
3.476028
3.5258021
3.5636089
3.5930879
0.16400951
0.14525321
0.11957041
0.086927127
0.044799816
-0.0055928669
-0.064004709
-0.13016419
-0.20364325
-0.28394981
-0.37061877
-0.46302231
-0.56042439
-0.66207908
-0.76709818
-0.87444584
-0.9830423
-1.0916962
-1.1990486
-1.3036624
-1.4040417
-1.4985715
-1.5855648
-1.6633517
-1.7302804
-1.7847325
-1.8252426
-1.8506136
-1.8599868
-1.8529687
-1.8298251
-1.7916412
-1.7404213
-1.6791702
-1.6119386
-1.5437428
-1.4802648
-1.4274115
-1.3908642
-1.3756324
-1.3858391
-1.4247758
-1.4936224
-1.5918778
-1.7392943
-1.9951137
-2.2796874
-2.0158553
-1.5049688
-1.2462543
-2.8499414
-3.0284269
-3.4261521
-3.9337368
-4.8110712
-6.1605265
-7.6594393
-9.2493584
-9.8888671
-9.5953292
-8.6018377
-5.9130707
-3.9331903
-4.0016215
-3.3431583
-2.8566458
-2.4979362
-2.1622755
-1.8420603
-1.5411391
-1.255203
-0.97930784
-0.71031853
-0.44667751
-0.18776647
0.066496548
0.31558367
0.55953732
0.79757272
1.029034
1.253313
1.4698244
1.6780599
1.8775305
2.067802
2.248523
2.419372
2.5801055
2.730494
2.8703894
2.9996245
3.1180932
3.2256378
3.3221848
3.4075352
3.4814534
3.5437146
3.5939748
3.6322196
3.6620869
0.22265586
0.20321655
0.17658848
0.14265392
0.098806662
0.046395168
-0.014471575
-0.083442297
-0.16011259
-0.24411362
-0.33493257
-0.43194379
-0.53450948
-0.64186013
-0.75306497
-0.86713187
-0.98295929
-1.0992599
-1.2146258
-1.3275583
-1.4364021
-1.5393583
-1.634565
-1.7201035
-1.7939859
-1.8542437
-1.8990449
-1.9267588
-1.9360619
-1.9261553
-1.8969942
-1.8494644
-1.7855851
-1.7087552
-1.6238622
-1.53718
-1.4560593
-1.3883576
-1.3417787
-1.3232285
-1.3385127
-1.3927962
-1.4896851
-1.6337504
-1.863187
-2.2958516
-2.8528932
-2.0363177
-1.6412847
-3.5255956
-3.5457607
-3.8169938
-4.5478262
-5.8375784
-7.5835818
-9.6911661
-11.696842
-13.168514
-14.017105
-13.696887
-12.263991
-9.9709742
-5.7904125
-4.0349634
-3.6212612
-3.0396349
-2.659098
-2.3118355
-1.9768438
-1.6587838
-1.3565662
-1.0654509
-0.78176015
-0.50386627
-0.23125038
0.036258454
0.29676193
0.55236201
0.8009176
1.04192
1.2747928
1.4990144
1.7141369
1.9197315
2.1154408
2.3009822
2.4761128
2.6406509
2.7944292
2.9372897
3.0691628
3.1899417
3.299504
3.3977251
3.4844789
3.5595502
3.6227436
3.6737531
3.7126436
3.7430141
0.29091278
0.27066293
0.24272936
0.20729607
0.1615295
0.10675472
0.043149713
-0.028964696
-0.10931623
-0.19750613
-0.29302896
-0.3953687
-0.50388896
-0.61778922
-0.73619723
-0.85813461
-0.98243049
-1.1077639
-1.2326954
-1.3556015
-1.4746617
-1.5879213
-1.6932969
-1.7885439
-1.8713066
-1.9392161
-1.9899448
-2.0212738
-2.0312731
-2.0185543
-1.9825193
-1.9236287
-1.8437628
-1.7466767
-1.6381919
-1.5261562
-1.4201688
-1.3307441
-1.2682121
-1.2417651
-1.2586416
-1.3248861
-1.4459941
-1.6310332
-1.9266328
-2.4428788
-3.0973373
-1.7977367
-2.8972807
-3.7734324
-4.2554996
-4.7783152
-5.9227609
-7.9638815
-10.144138
-11.357337
-13.695235
-17.474127
-18.615742
-18.29124
-16.31989
-12.996445
-9.4133464
-4.7000026
-4.2912885
-3.4050622
-2.9074238
-2.5038651
-2.1392294
-1.797208
-1.4742684
-1.1642803
-0.86273154
-0.56773865
-0.27909667
0.0034295814
0.27892395
0.54732024
0.80772434
1.0595001
1.3020793
1.5349597
1.757746
1.9701011
2.1717842
2.362588
2.5423757
2.7109909
2.8683738
3.0144158
3.1490622
3.2723367
3.3840505
3.484116
3.5724698
3.6488989
3.7132156
3.7651701
3.8048743
3.8358702
0.36994108
0.34803323
0.31838391
0.28128871
0.23329553
0.17595062
0.10935977
0.033706538
-0.050718314
-0.14353398
-0.24435621
-0.35269241
-0.46789103
-0.58922599
-0.71587227
-0.84681446
-0.98087085
-1.1167245
-1.2528553
-1.3875086
-1.5187423
-1.6444281
-1.762199
-1.8694651
-1.9634832
-2.0413893
-2.1002209
-2.1370358
-2.149121
-2.1342241
-2.0908503
-2.0187076
-1.9192348
-1.7963856
-1.6568962
-1.5104907
-1.370001
-1.2497447
-1.1633185
-1.1228203
-1.1364084
-1.2089745
-1.3445982
-1.5441235
-1.8309765
-2.2817916
-2.5676316
-2.7026653
-3.5427186
-3.9592457
-4.6546312
-5.5166623
-7.3092882
-10.010267
-12.250647
-14.756541
-16.938367
-21.109818
-22.972151
-22.695526
-20.223193
-16.16715
-11.925869
-5.8968315
-4.7433255
-3.8969171
-3.2172048
-2.7376554
-2.3330816
-1.9598348
-1.6110067
-1.2775066
-0.9544151
-0.63888478
-0.33086958
-0.030566475
0.26150436
0.5448175
0.81868684
1.0825446
1.3359047
1.5783401
1.8095328
2.0292595
2.2373861
2.4338114
2.6185017
2.7914338
2.9525941
3.101985
3.2395734
3.365402
3.4794136
3.581507
3.6715898
3.7495388
3.8151954
3.8682485
3.908887
3.940691
0.46085338
0.43561648
0.40381778
0.36489722
0.31454431
0.25446839
0.18459246
0.10511652
0.016300695
-0.081605034
-0.18825712
-0.30316577
-0.42577198
-0.5554266
-0.69130008
-0.83239453
-0.97757121
-1.1254825
-1.2745223
-1.4228604
-1.568441
-1.7089163
-1.8416293
-1.9636569
-2.0718173
-2.1626483
-2.2324555
-2.2774383
-2.2938546
-2.2782443
-2.2278186
-2.141061
-2.0181801
-1.8631774
-1.6836704
-1.4912918
-1.3031409
-1.1401836
-1.0194911
-0.95711271
-0.96337366
-1.0388449
-1.1863893
-1.3899799
-1.6351936
-1.9398642
-1.6044951
-2.6051494
-3.3228295
-3.7905067
-4.5766718
-5.7922256
-8.3879848
-11.229294
-14.673928
-18.246697
-21.738033
-25.447855
-27.119516
-26.566762
-23.46432
-18.734807
-13.653751
-7.27982
-4.6362755
-4.2988711
-3.5273724
-3.0004619
-2.5551064
-2.1467204
-1.7675158
-1.4053628
-1.0558535
-0.71614925
-0.38574165
-0.064872495
0.24596201
0.54614201
0.83508043
1.112288
1.3773995
1.6301654
1.870375
2.0979445
2.3128409
2.5151665
2.7049568
2.8823258
3.0473893
3.2001807
3.3408227
3.469339
3.5857058
3.689921
3.7818816
3.8614982
3.9286655
3.9829867
4.0246941
4.0575537
0.56361212
0.53280915
0.49890584
0.45849798
0.40572827
0.34272018
0.26938761
0.18589213
0.092355383
-0.011023944
-0.12392242
-0.2459608
-0.37668227
-0.51546446
-0.66152539
-0.81394903
-0.97161798
-1.1331506
-1.2969192
-1.4610469
-1.623335
-1.7812196
-1.9317919
-2.0717885
-2.1975327
-2.3049174
-2.3894536
-2.4463221
-2.4704612
-2.4568272
-2.4008565
-2.2993619
-2.1491751
-1.9549369
-1.7245428
-1.4712386
-1.216017
-0.99462585
-0.82779882
-0.73714243
-0.73318302
-0.81217522
-0.98162124
-1.1961956
-1.3976814
-1.5505132
-1.555369
-2.2512199
-3.1867858
-3.4135533
-4.2068723
-5.5368201
-8.4374705
-12.347185
-16.578539
-21.103158
-25.100748
-28.537312
-30.022714
-28.92722
-25.202601
-19.96533
-14.650072
-7.9095824
-5.1281756
-4.6980089
-3.8726821
-3.2975825
-2.8057158
-2.3581063
-1.9421387
-1.5466364
-1.1661689
-0.79822959
-0.44207466
-0.097798301
0.23410219
0.55299169
0.85846055
1.1501636
1.4278982
1.6916087
1.9412504
2.176963
2.3988651
2.6071856
2.8021534
2.9840156
3.1529697
3.3092126
3.4528909
3.5841334
3.702964
3.8093808
3.9033375
3.9847764
4.0535918
4.1093375
4.1522708
4.1864893
0.67410699
0.6380456
0.60369886
0.56261907
0.50726027
0.44124095
0.36436386
0.27664894
0.17815922
0.069055109
-0.05046756
-0.18015094
-0.31959038
-0.46824036
-0.62543869
-0.79034051
-0.96184832
-1.1386164
-1.3190409
-1.5011837
-1.6827139
-1.8609084
-2.0326326
-2.1942653
-2.3416405
-2.4700339
-2.5741298
-2.6479433
-2.6848439
-2.6777907
-2.6193998
-2.5017352
-2.3223427
-2.0828565
-1.7897318
-1.4519467
-1.1121206
-0.8094297
-0.57845875
-0.4502727
-0.43969313
-0.53971746
-0.74708544
-1.017127
-1.2065516
-1.1492996
-1.1788629
-2.0860864
-3.0767367
0.29445813
0.5254272
-4.7359992
-6.8765286
-13.00356
-16.540576
-22.314846
-26.261728
-29.430446
-30.43391
-28.915289
-24.912791
-19.672946
-14.463681
-8.1522955
-5.4429332
-5.2506168
-4.3024937
-3.6379039
-3.0877974
-2.5924663
-2.1336633
-1.6991698
-1.2829561
-0.88264109
-0.49728451
-0.12687019
0.22818303
0.56745201
0.89073493
1.1978697
1.4888762
1.7639491
2.0233062
2.2672512
2.4961653
2.7104621
2.9105065
3.0968111
3.2696031
3.4292322
3.5759116
3.7098499
3.8311545
3.9398462
4.035905
4.1192883
4.1899149
4.2472412
4.2915724
4.3274895
0.78835964
0.75541862
0.71919337
0.67819863
0.61969434
0.55061591
0.47010854
0.37809101
0.27456112
0.15953286
0.033068693
-0.10464444
-0.25330389
-0.41251596
-0.58173385
-0.76018508
-0.94686564
-1.1405234
-1.3395762
-1.5420426
-1.7455284
-1.9471991
-2.1436988
-2.3310786
-2.5047658
-2.6594973
-2.7891622
-2.8865758
-2.9433268
-2.949941
-2.8967925
-2.7660215
-2.5574557
-2.2674177
-1.9036623
-1.4367138
-0.98301293
-0.56878338
-0.24975505
-0.075311916
-0.071913749
-0.22535846
-0.50994282
-0.8996068
-1.176375
-1.1861162
-1.1317566
-1.9665722
-1.3927563
5.0906835
4.1849027
-2.855671
-6.0104426
-10.983762
-16.317021
-20.303021
-24.91523
-27.781797
-28.38616
-26.541392
-22.636911
-17.887798
-13.161848
-8.4158718
-7.0532996
-5.6219269
-4.7018239
-3.9908829
-3.3872296
-2.8417889
-2.3360367
-1.8580908
-1.4020853
-0.96567721
-0.54797666
-0.14893599
0.23116364
0.59220841
0.93425384
1.2574455
1.5621315
1.8487166
2.1177481
2.3698284
2.6055738
2.8256316
3.0305739
3.2210308
3.3974365
3.560274
3.7098504
3.8464324
3.9701811
4.0811784
4.1794318
4.2648947
4.3375041
4.396545
4.4424656
4.4804592
0.91308687
0.88435178
0.8450899
0.80650326
0.74323071
0.67131887
0.58727713
0.49103596
0.38243963
0.26136288
0.12778985
-0.018211048
-0.17651505
-0.3468788
-0.52887288
-0.72187124
-0.92502894
-1.1371955
-1.3568362
-1.5820076
-1.8103179
-2.0388362
-2.2640164
-2.4816779
-2.6869672
-2.8742204
-3.0367045
-3.1661659
-3.2521614
-3.2818257
-3.2408175
-3.1093359
-2.8751248
-2.5293038
-2.0776309
-1.4647441
-0.8509245
-0.28390094
0.14925661
0.38010877
0.3808946
0.12912739
-0.30498331
-0.83427883
-1.2101255
-1.5877109
-1.500521
-1.7225826
0.052994669
5.4837613
4.3579047
-0.57081616
-4.8811163
-8.2559218
-13.799368
-17.74085
-21.874199
-24.241013
-24.550722
-22.671747
-19.220375
-15.700662
-11.666911
-8.7680098
-7.1173989
-5.9392559
-5.0564708
-4.3348011
-3.6900597
-3.0972343
-2.5426174
-2.0177299
-1.5182826
-1.042511
-0.58981528
-0.16009376
0.24661043
0.63047174
0.9918771
1.3313712
1.6496797
1.9475942
2.2260039
2.4857926
2.7279372
2.9532949
3.162697
3.3569301
3.5366717
3.7024082
3.8546554
3.9937395
4.1198773
4.2331827
4.3336772
4.4213637
4.4961235
4.5570196
4.6047669
4.6452108
1.0522005
1.0249696
0.98739787
0.94136513
0.87733772
0.80401776
0.71663778
0.6163073
0.50270599
0.37561876
0.2349109
0.080466719
-0.087769395
-0.2697068
-0.46510518
-0.67355238
-0.89437735
-1.1265652
-1.368722
-1.6190255
-1.8751168
-2.1339955
-2.3919982
-2.6448112
-2.8874217
-3.113998
-3.3176357
-3.4896004
-3.6178021
-3.6850809
-3.6688614
-3.5560402
-3.3083409
-2.9049649
-2.3319089
-1.5935709
-0.73446993
0.063969156
0.66764756
1.0117836
1.0150653
0.57291599
-0.074871128
-0.78807914
-1.3853083
-1.8274094
-1.6657922
-1.3206446
-0.82677177
6.8592217
1.3530249
1.4567206
-2.874324
-5.2278058
-10.244397
-15.04222
-17.930351
-19.779994
-20.126439
-18.283708
-15.353682
-12.743051
-10.647435
-8.6354581
-7.2740794
-6.2588191
-5.4216003
-4.6827117
-3.9971017
-3.3546785
-2.7479055
-2.172288
-1.6257581
-1.1075912
-0.61756669
-0.15555114
0.27875222
0.68595751
1.0668125
1.4223979
1.7538791
2.0624923
2.3495624
2.6163484
2.8641206
3.0940943
3.3073127
3.5047593
3.6872962
3.8555511
4.0101607
4.151524
4.2799323
4.3955086
4.4982822
4.5883355
4.6654132
4.7283544
4.7782205
4.8215053
1.2044558
1.1773014
1.1392434
1.0899873
1.0257601
0.94923749
0.85889847
0.75474347
0.63637484
0.50345323
0.35569827
0.19282605
0.014571499
-0.17919067
-0.3884683
-0.61307865
-0.85256503
-1.106152
-1.3726886
-1.6505258
-1.9373775
-2.2302406
-2.5253908
-2.8184099
-3.1042048
-3.3770974
-3.6308326
-3.8577126
-4.0459494
-4.1754518
-4.2185796
-4.1443625
-3.9067147
-3.4619309
-2.7724344
-1.8523358
-0.62749604
0.68141471
1.5274228
1.9346288
1.8968803
1.2213591
0.22663643
-0.52751898
-0.97497502
-1.3564971
-0.94547993
-0.211604
0.4119786
5.7953353
1.041945
1.6870842
-0.81270837
-2.5630754
-6.4538711
-10.512061
-14.153229
-16.059583
-15.652568
-13.65686
-12.067166
-11.272594
-9.9767537
-8.603234
-7.5398419
-6.6382631
-5.8193389
-5.0471583
-4.3117861
-3.6119898
-2.9468273
-2.3154676
-1.7179349
-1.1544918
-0.62522483
-0.12980266
0.33248659
0.76287482
1.1626732
1.5335498
1.8771923
2.1954281
2.490027
2.7626743
3.0150302
3.2485861
3.4646697
3.6645317
3.8492256
4.0194858
4.1760428
4.3193944
4.4499139
4.5676893
4.6727841
4.7653423
4.8449261
4.9101165
4.9624358
5.0090067
1.3697002
1.3421073
1.3033577
1.2523936
1.1869092
1.1081601
1.0150006
0.90719932
0.7845238
0.64602757
0.4914844
0.32046262
0.13230067
-0.073347445
-0.29673496
-0.53794824
-0.79685828
-1.073046
-1.3656761
-1.6733404
-1.9939231
-2.3244898
-2.6612297
-2.9995183
-3.3341332
-3.6597974
-3.9719092
-4.2663213
-4.5356579
-4.7569952
-4.8928849
-4.9016581
-4.7197049
-4.2728932
-3.4580817
-2.244849
-0.7351751
1.6581315
3.4845387
3.7389985
3.3162829
2.2241645
1.6676221
0.53169984
-0.16009432
0.070140936
0.62908242
1.4371828
2.0819741
2.0840582
2.0865109
2.2479844
0.82652605
-0.3909779
-3.5584981
-6.9407645
-8.7055853
-10.29903
-13.258698
-13.337361
-12.569576
-11.218272
-9.9759531
-8.9354615
-7.992531
-7.1140435
-6.2644393
-5.435842
-4.634382
-3.8654325
-3.1332278
-2.4399125
-1.7871597
-1.1758047
-0.60590438
-0.076639393
0.41333016
0.86597884
1.2834488
1.6681041
2.0223259
2.3484859
2.6489698
2.9259034
3.1813836
3.4172
3.6350351
3.836275
4.022248
4.1938147
4.3517993
4.4967759
4.6291666
4.7490574
4.8565384
4.9517462
5.0340478
5.1017188
5.1568762
5.2072183
1.547853
1.519741
1.4805069
1.4284081
1.3618361
1.2812316
1.1857248
1.074854
0.94801336
0.80447569
0.6436352
0.46512473
0.26733728
0.050005797
-0.18739394
-0.44533305
-0.7241451
-1.0238528
-1.344027
-1.6836406
-2.0408931
-2.4129745
-2.7958926
-3.1845628
-3.5731918
-3.9565912
-4.3326507
-4.7038008
-5.077016
-5.4271851
-5.6996278
-5.8408916
-5.7973414
-5.4411991
-4.5491025
-3.0571104
-0.96416419
1.686237
3.6476213
4.6063944
4.7991653
8.1616739
5.5555406
3.3527044
2.8524973
1.2009789
1.4392763
2.2349039
3.1564828
3.3736274
3.3471638
2.861193
1.5236935
-0.44103216
-1.9246129
-6.8139034
-10.144646
-12.198088
-12.500053
-12.142763
-11.748586
-11.187449
-10.394823
-9.5305272
-8.6192789
-7.6928583
-6.7654385
-5.8503631
-4.9612703
-4.1082939
-3.2986046
-2.5363869
-1.8241811
-1.1627715
-0.55161515
0.010965586
0.5273629
1.0004662
1.4334554
1.8295611
2.1919708
2.5238011
2.8279268
3.1070928
3.3638355
3.60024
3.8183467
4.0198642
4.2059616
4.3779629
4.5367133
4.6828658
4.8168376
4.9387333
5.0486572
5.146706
5.2319668
5.3023882
5.3608557
5.4155336
1.7388659
1.710541
1.6710518
1.6183144
1.5509205
1.4690463
1.3717578
1.2584046
1.1281718
0.98015304
0.81320981
0.62887365
0.42170231
0.19322588
-0.057718687
-0.33211871
-0.63090649
-0.95462959
-1.3034232
-1.6768516
-2.0736162
-2.4911413
-2.9251889
-3.369794
-3.8174064
-4.2614208
-4.7023562
-5.1507534
-5.6505901
-6.1745978
-6.6434577
-7.001898
-7.2148817
-7.1274374
-6.353098
-4.7337396
-2.1677225
1.2273007
3.516023
4.3083358
3.4519623
3.5661979
3.3763891
2.2056977
2.2705642
1.8144777
0.68098954
1.8827952
3.7987813
4.4450568
4.8865091
3.7259043
2.4386427
-0.02106487
-3.2555752
-6.6864908
-9.8674629
-11.633524
-12.076121
-12.062743
-12.232853
-12.112676
-11.351543
-10.42296
-9.4148218
-8.3693956
-7.3182753
-6.2839436
-5.2833563
-4.3295727
-3.4311348
-2.5930857
-1.8177537
-1.1050963
-0.45319303
0.14097894
0.6812534
1.1718619
1.6171314
2.0214352
2.3888352
2.723293
3.0283034
3.3071478
3.5627878
3.7977577
4.0142966
4.2144418
4.3995897
4.5710578
4.7298246
4.8766036
5.0118251
5.1355974
5.2480244
5.3491554
5.4376589
5.5111497
5.5735191
5.6332057
1.942668
1.9146518
1.8752041
1.8222889
1.7546541
1.6721348
1.5737558
1.4587117
1.326039
1.1746855
1.0035226
0.81170153
0.59715201
0.35871239
0.095144979
-0.19488567
-0.51318315
-0.86086533
-1.2388299
-1.6475093
-2.086417
-2.553556
-3.0445937
-3.552208
-4.0647846
-4.5701155
-5.0739557
-5.5850069
-6.2419097
-6.9736803
-7.7005147
-8.3567392
-8.9906999
-9.4281488
-9.1322427
-7.8672941
-4.9580437
-0.87563553
1.7739381
2.3092684
2.1859172
1.944314
0.58011178
-1.7629406
-0.27767632
1.0496568
-0.70699768
1.6802096
4.5619765
5.9738629
6.1352657
5.054663
3.4048314
0.55726744
-3.0154706
-6.4022859
-9.2821533
-11.732979
-12.993666
-13.694978
-14.248368
-13.81783
-12.794317
-11.604504
-10.367731
-9.1303713
-7.908974
-6.7213804
-5.5847312
-4.5129545
-3.5148776
-2.5950596
-1.754337
-0.99077317
-0.3003596
0.3220155
0.88212416
1.3858577
1.8390519
2.2472299
2.6155539
2.9488155
3.2512421
3.526648
3.7784246
4.0094999
4.2223661
4.4194518
4.6021862
4.7719503
4.9298489
5.0766373
5.2127378
5.3382332
5.4532412
5.5577315
5.6498185
5.72677
5.7937728
5.8592414
2.1590529
2.1321325
2.0931001
2.040575
1.973335
1.8909154
1.7923106
1.6765452
1.5424865
1.388862
1.214293
1.01733
0.79612777
0.54897614
0.27409625
-0.029819447
-0.3666036
-0.73750649
-1.1444152
-1.5890442
-2.0722337
-2.5933993
-3.1489653
-3.730437
-4.3184358
-4.8796932
-5.3465262
-6.0090478
-6.8623611
-7.8329336
-8.8492316
-9.8545687
-11.121518
-12.528104
-13.471684
-12.881108
-10.080243
-5.9707733
-2.7291992
-2.9697128
-3.1091979
-3.3112925
-5.5362714
-8.8921561
-3.9244512
-2.200541
-1.4286472
2.6875828
5.9731307
8.0755687
7.874992
6.3504972
4.2539341
0.33698971
-4.6352808
-8.5399175
-11.546426
-14.296135
-16.425732
-18.023168
-18.638844
-16.788969
-14.674669
-12.988245
-11.422525
-9.946515
-8.5134329
-7.1393786
-5.8423243
-4.6362753
-3.5293401
-2.5239149
-1.6179388
-0.80627194
-0.081806725
0.56333617
1.1373936
1.6483036
2.1035912
2.510201
2.8743779
3.2018263
3.4975144
3.7657862
4.010518
4.2348682
4.4415869
4.6337368
4.8124243
4.979155
5.1351724
5.2812658
5.417794
5.5448251
5.6625399
5.7707212
5.8667957
5.9477305
6.0202935
6.0924399
2.3881402
2.3628256
2.3247601
2.2732596
2.2071357
2.1257185
2.0279127
1.9125623
1.7783546
1.6238071
1.447312
1.247052
1.0209474
0.76667789
0.48140881
0.16758077
-0.18656869
-0.57905186
-1.0134932
-1.493604
-2.0221685
-2.6018603
-3.2325326
-3.9068258
-4.6006601
-5.2385779
-5.7173103
-6.6184544
-7.7383878
-8.949357
-10.094454
-11.485748
-13.547767
-16.50344
-19.560447
-21.41001
-20.700413
-15.322836
-10.6043
-12.363587
-13.691367
-14.372411
-20.629534
-21.515628
-15.174499
-8.3890112
-1.5835405
3.6157742
7.2408511
8.6041505
8.74777
6.9117924
4.3518388
-1.1116691
-7.3372937
-11.083192
-12.719242
-15.824509
-20.474769
-24.134451
-23.96782
-19.482609
-16.403716
-14.415024
-12.633997
-10.792899
-9.1035744
-7.5067104
-6.025603
-4.6712101
-3.44914
-2.3577024
-1.3900977
-0.53641471
0.21461856
0.87451511
1.4544163
1.9647097
2.4148017
2.8131049
3.1670586
3.4832835
3.7674368
4.0243768
4.2583763
4.4728623
4.670447
4.8557594
5.0285619
5.1907783
5.3437741
5.4883542
5.6248094
5.7531948
5.8737593
5.9860058
6.0865554
6.1721643
6.2514703
6.3313609
2.6299504
2.606499
2.5700175
2.5202811
2.4561581
2.3767743
2.2809168
2.1672775
2.0343758
1.8805581
1.7039434
1.5024316
1.2736767
1.0151047
0.7238958
0.39752108
0.030850522
-0.37984942
-0.8385029
-1.3519737
-1.9245501
-2.5657038
-3.2858634
-4.0847254
-4.9577225
-5.8168007
-6.2567933
-7.4831499
-9.1801224
-10.508351
-11.532046
-13.181962
-16.078509
-20.942865
-27.49068
-33.010359
-34.145315
-28.133542
-21.529857
-24.235493
-26.191396
-29.12814
-43.993827
-40.420354
-23.280335
-10.18087
-1.3863484
3.2138145
6.302594
7.4436098
8.1642737
7.2989053
4.6199134
-1.0398441
-6.6897772
-1.3799252
-9.8330145
-10.997637
-24.734177
-33.817988
-34.756022
-24.181847
-18.111225
-15.941985
-13.765514
-11.648333
-9.635406
-7.7817755
-6.095635
-4.582473
-3.2437501
-2.0709877
-1.0502283
-0.16497447
0.60147333
1.2649947
1.8401891
2.3400338
2.7760247
3.1580554
3.494718
3.7934428
4.0605692
4.3015143
4.5208032
4.7223002
4.9094383
5.0838265
5.2483908
5.4044364
5.5531673
5.6953264
5.8311215
5.9606634
6.0842291
6.2009617
6.3065907
6.3977608
6.4853005
6.5742085
2.8842081
2.8627823
2.828606
2.7814759
2.7203479
2.6441328
2.5515292
2.4411029
2.3112085
2.1599693
1.9852788
1.7848063
1.5559577
1.2958146
1.0010184
0.6677755
0.29105485
-0.13475442
-0.61092535
-1.1542955
-1.7649012
-2.4647361
-3.2903441
-4.2597392
-5.4428424
-6.5067464
-4.0512888
-6.4295376
-9.8992646
-11.61134
-12.809552
-14.700413
-18.077572
-24.17997
-32.632002
-40.566945
-42.462456
-36.766967
-33.257959
-37.638145
-27.308349
-35.662291
-19.294075
-33.378483
-29.109747
-15.207421
-5.7493572
1.0599368
4.7626636
5.9264241
6.7348858
7.416997
4.4794573
-0.35691139
-6.1298263
-16.24354
-6.6050579
-10.878087
-30.306124
-35.559662
-62.577536
-38.190194
-21.755054
-17.640918
-14.914694
-12.384826
-10.045662
-7.9096749
-6.0034937
-4.3261783
-2.8771602
-1.6353095
-0.57631015
0.32471795
1.0910148
1.743559
2.3007145
2.7782357
3.1895731
3.5460834
3.8573907
4.1316698
4.3757314
4.5954102
4.7955109
4.9799903
5.1522029
5.3144401
5.4689219
5.6171352
5.7602771
5.8990079
6.0335098
6.163961
6.2906506
6.4123318
6.5237602
6.6216579
6.7193548
6.8188368
3.1503692
3.1312608
3.1000981
3.0564998
2.9994142
2.9276597
2.8398226
2.7343018
2.609277
2.4626701
2.2921983
2.0953461
1.8692823
1.6107557
1.3160627
0.98082919
0.59958954
0.16624754
-0.32665467
-0.89201076
-1.5272271
-2.2634554
-3.1646389
-4.2137192
-5.4288299
-5.4699944
1.346675
0.10727533
-9.2466464
-11.58639
-13.245788
-15.438178
-18.452657
-24.092391
-30.995225
-36.955798
-35.049794
-34.408692
-33.92703
-33.557901
122.01587
-36.301876
-55.815387
-48.041316
-30.71756
-17.685122
-3.753368
3.8241038
5.3052765
2.1270064
4.7725568
9.0676833
9.3060274
6.3300123
-5.1932809
-21.649333
-10.981175
-6.6361666
24.111369
42.900916
-45.094467
-45.337597
-24.92596
-19.482284
-16.209201
-13.091607
-10.28491
-7.8220667
-5.6873329
-3.8486071
-2.3082271
-1.0197121
0.054343617
0.94870931
1.6942244
2.3173916
2.840419
3.2816501
3.656293
3.9769429
4.2539906
4.4961803
4.7106923
4.9035132
5.0796559
5.2430471
5.3966162
5.5443567
5.6867026
5.8254
5.9615737
6.0958011
6.2282517
6.3591948
6.4890203
6.616081
6.734107
6.8403028
6.9507311
7.0629096
3.4278056
3.4112864
3.3838149
3.3447236
3.2928773
3.2270553
3.1456613
3.0469008
2.9287812
2.7890852
2.6253577
2.4349515
2.2148024
1.9614879
1.6710417
1.3387979
0.95909238
0.52504956
0.028070332
-0.54528262
-1.2115035
-1.9409405
-2.8853134
-3.9761439
-5.4941257
-5.8667856
2.3128869
0.041136848
-8.2395512
-10.842412
-12.778415
-14.658025
-17.249327
-20.535402
-24.057081
-27.065983
-27.928825
-23.038055
-21.8417
-14.558592
39.11598
-17.594386
-32.850945
-40.80428
-29.407057
-19.922801
-5.9811299
-0.50222019
202.12249
472.94279
468.27043
279.88819
31.301495
5.9880877
-16.485748
-15.432388
-0.23426168
49.376517
-3.4133713
74.275457
3.0558134
-28.562289
-23.928103
-20.829896
-17.847245
-13.820353
-10.279803
-7.4409959
-5.0805489
-3.08398
-1.4924657
-0.19279575
0.86326988
1.7210761
2.4196093
2.9910815
3.4612225
3.8504334
4.1751569
4.4487078
4.6819746
4.8839282
5.0619708
5.2221372
5.3694663
5.5079586
5.6405666
5.7701579
5.897907
6.0252276
6.1529777
6.2815361
6.4110099
6.5418119
6.6745435
6.807113
6.9323784
7.0489911
7.1759481
7.3036332
3.7169394
3.7018252
3.6787602
3.6452733
3.6000388
3.5417714
3.4686611
3.3786902
3.2697151
3.1394064
2.9851654
2.8041571
2.5932769
2.348965
2.0671927
1.743141
1.37122
0.94450531
0.45446356
-0.11048683
-0.76390483
-1.5198956
-2.4270832
-3.4261719
-4.3086359
-5.2643511
1.5216386
1.4445836
-7.7575667
-10.214908
-11.669584
-13.461119
-15.272141
-17.560539
-19.481751
-19.835826
-18.523807
-18.618984
-16.278315
-29.609338
-68.66504
30.030856
23.295604
-64.51514
-189.15137
208.75948
2385.7176
4165.4587
4581.9065
5174.7268
4957.2207
4538.6825
4629.392
3553.674
824.55627
-53.985596
-50.579667
-52.189597
-1.3665759
-27.950346
-13.32569
-15.065277
-19.968603
-20.082039
-17.523689
-14.212064
-9.8525924
-6.5638498
-4.067125
-1.9450388
-0.38911059
0.87366604
1.8682957
2.6516587
3.2714482
3.7654149
4.1617913
4.4819357
4.7426872
4.9574423
5.1370387
5.2904112
5.4248761
5.5463893
5.6599345
5.7695484
5.8785108
5.9867441
6.0976555
6.2118875
6.329841
6.4515469
6.5769213
6.7066061
6.8415526
6.9791087
7.1117477
7.2417709
7.391281
7.5372254
4.0158849
4.0005592
3.9836708
3.9569514
3.9198535
3.8709546
3.80819
3.7292786
3.6319022
3.5135973
3.3716582
3.2031454
3.004967
2.7735712
2.50488
2.1942183
1.8362017
1.4242491
0.95035707
0.4037404
-0.23048728
-0.97646218
-1.8670927
-2.8848105
-3.990496
-5.1668528
-5.9258397
-3.5454648
-6.5834792
-9.4100252
-10.529389
-12.660742
-14.152068
-16.886519
-18.408518
-16.555321
-11.28894
-6.8912082
-6.1990305
-17.641514