/*--------------------------------*- C++ -*----------------------------------*\
  =========                 |
  \\      /  F ield         | OpenFOAM: The Open Source CFD Toolbox
   \\    /   O peration     | Website:  https://openfoam.org
    \\  /    A nd           | Version:  9
     \\/     M anipulation  |
\*---------------------------------------------------------------------------*/
FoamFile
{
    format      ascii;
    class       surfaceScalarField;
    location    "0.8";
    object      phi;
}
// * * * * * * * * * * * * * * * * * * * * * * * * * * * * * * * * * * * * * //

dimensions      [0 3 -1 0 0 0 0];

internalField   nonuniform List<scalar> 
19800
(
-1.9310778e-05
9.6860853e-05
-2.9555885e-05
9.7320265e-05
-3.9895506e-05
9.8317646e-05
-5.0315056e-05
9.9215617e-05
-6.0932879e-05
0.00010040552
-7.1749759e-05
0.00010164076
-8.2807392e-05
0.00010294643
-9.4137918e-05
0.00010425432
-0.00010575
0.00010550891
-0.00011767027
0.0001066668
-0.00012990558
0.00010766793
-0.00014243684
0.00010846575
-0.00015527494
0.00010900701
-0.00016841041
0.00010921494
-0.00018183488
0.00010905853
-0.00019553569
0.00010848893
-0.00020950042
0.00010749696
-0.00022371319
0.00010606629
-0.00023815
0.00010419457
-0.00025277934
0.00010188711
-0.0002675735
9.9174754e-05
-0.00028249984
9.6137716e-05
-0.00029752376
9.2866897e-05
-0.00031263171
8.9457796e-05
-0.00032784041
8.6038838e-05
-0.00034320265
8.2758154e-05
-0.00035884036
7.9790141e-05
-0.00037499307
7.7299972e-05
-0.00039204435
7.5476483e-05
-0.00041052617
7.4526682e-05
-0.00043116488
7.4701586e-05
-0.00045511077
7.6255957e-05
-0.00048370824
7.961236e-05
-0.00051712628
8.5497072e-05
-0.00055592929
9.401455e-05
-0.00060102764
0.00010480102
-0.00065341798
0.00011726323
-0.00071398622
0.00013047735
-0.00078331731
0.00014309195
-0.00086143597
0.00015328723
-0.00094745605
0.00015857198
-0.0010391229
0.00015564907
-0.0011318846
0.00013998397
-0.0012173843
0.00010526316
-0.0012799186
4.0607648e-05
-0.0013005382
-5.7692712e-05
-0.0012468219
-0.00021593186
-0.0010736213
-0.00044603133
-0.00075933529
-0.00072209132
-0.0002931468
-0.0010226374
0.00034953819
-0.0013507323
0.0011986184
-0.0017111476
0.0021742708
-0.0019431031
0.0031109718
-0.0019200133
0.0038676534
-0.0016652405
0.0044201201
-0.0013477087
0.0047952971
-0.0010530613
0.0050270508
-0.00078673469
0.0051325812
-0.00052110924
0.0051166518
-0.00023583262
0.0049245405
0.0001079018
0.0045928034
0.00045350819
0.00419673
0.00068720366
0.0037907452
0.00082221758
0.0033932407
0.00090718413
0.0030132147
0.00096693931
0.0026582881
0.0010073114
0.0023317637
0.0010299232
0.002033979
0.0010348497
0.0017640138
0.0010227945
0.0015201482
0.0009954777
0.0013001386
0.00095487944
0.0011015036
0.00090325352
0.00092182464
0.00084340854
0.00075898528
0.00077860735
0.00061129056
0.00071206769
0.00047746645
0.00064640475
0.0003565755
0.00058337045
0.00024790292
0.00052389757
0.00015087338
0.00046845659
6.5033158e-05
0.00041715216
-9.9872495e-06
0.00036989594
-7.4471793e-05
0.00032654203
-0.00012852703
0.00028679538
-0.00017254045
0.00025018693
-0.00020721917
0.00021627356
-0.00023321794
0.00018467898
-0.00025118493
0.00015514227
-0.00026171862
0.00012748707
-0.00026534649
0.00010161029
-0.00026251163
7.7506983e-05
-0.00025344347
5.4898386e-05
-0.00023857011
3.3650403e-05
-0.00021893804
1.4106248e-05
-0.00019855577
-1.6835018e-06
-0.00017592857
-1.8898669e-05
-0.00014945834
-3.1669887e-05
-0.00011819884
-4.1238928e-05
-8.353673e-05
-4.793782e-05
-5.4189297e-05
-1.863641e-05
0.00010667307
-2.850222e-05
0.0001071994
-3.8528645e-05
0.00010833741
-4.875419e-05
0.00010944787
-5.9228966e-05
0.00011087392
-6.9969761e-05
0.0001123859
-8.1014465e-05
0.00011398621
-9.2391311e-05
0.00011563355
-0.00010412795
0.00011724729
-0.00011622995
0.00011876558
-0.00012870669
0.00012014827
-0.00014155787
0.00012131391
-0.00015476682
0.00012221425
-0.00016832586
0.00012277517
-0.00018222544
0.00012295178
-0.00019643724
0.00012269769
-0.00021092982
0.00012199148
-0.00022566683
0.00012080195
-0.00024060603
0.00011913565
-0.00025569921
0.00011698574
-0.00027091185
0.00011438703
-0.00028620036
0.00011142416
-0.00030151277
0.00010818151
-0.00031682212
0.00010476815
-0.00033212425
0.00010134065
-0.00034745043
9.808949e-05
-0.00036289497
9.5242212e-05
-0.00037864564
9.3053617e-05
-0.00039501236
9.1845079e-05
-0.00041248211
9.2002037e-05
-0.00043174157
9.3965606e-05
-0.00045370285
9.821648e-05
-0.00047940185
0.00010531074
-0.00050976874
0.00011586809
-0.00054594115
0.00013018993
-0.00058925324
0.00014811066
-0.00064110956
0.00016911866
-0.00070286379
0.00019223587
-0.00077571968
0.00021595113
-0.00086045499
0.00023802185
-0.00095727637
0.00025539212
-0.0010653543
0.00026372965
-0.0011822757
0.00025690982
-0.0013030064
0.00022599379
-0.0014194284
0.00015702809
-0.0015050889
2.7967579e-05
-0.0015147025
-0.00020631653
-0.0014200526
-0.00054068038
-0.0011957855
-0.00094636162
-0.00075646311
-0.0014619618
-1.06352e-05
-0.0020965583
0.0010660017
-0.0027877795
0.0023616167
-0.0032387163
0.0035809482
-0.0031393442
0.0045044555
-0.002588747
0.0051187048
-0.0019619537
0.0054771769
-0.00141153
0.0056442223
-0.00095377772
0.0056404265
-0.00051731346
0.0055228513
-0.00011825643
0.0052622671
0.00036848808
0.0048635098
0.00085226815
0.0043917476
0.0011589686
0.0039164905
0.0012974747
0.0034694311
0.0013542423
0.0030542212
0.0013821476
0.0026696664
0.0013918671
0.0023173493
0.0013822415
0.0019993452
0.0013528551
0.0017153043
0.0013068376
0.0014627506
0.0012480339
0.00123819
0.0011794437
0.0010378111
0.0011036333
0.00085805782
0.0010231602
0.00069603427
0.00094062991
0.0005496333
0.00085846709
0.00041743034
0.00077860428
0.00029846727
0.00070232982
0.00019203106
0.00063033094
9.7536688e-05
0.00056295052
1.448282e-05
0.00050020546
-5.7594716e-05
0.00044197319
-0.00011910263
0.00038804805
-0.00017045865
0.00033814907
-0.00021212327
0.00029184995
-0.00024464991
0.00024879962
-0.00026862951
0.0002086584
-0.00028464606
0.00017115922
-0.00029326913
0.00013610963
-0.00029500694
0.00010335061
-0.00029032808
7.2825405e-05
-0.00027977947
4.4346371e-05
-0.00026406862
1.7938286e-05
-0.00024482627
-5.1305991e-06
-0.00021980602
-2.6705538e-05
-0.00019237977
-4.6323466e-05
-0.00016147267
-6.2571013e-05
-0.00012696607
-7.5750841e-05
-8.9752398e-05
-8.5157279e-05
-9.4351658e-05
-1.7962151e-05
0.00011618639
-2.7635425e-05
0.00011686581
-3.7450027e-05
0.00011815599
-4.7498285e-05
0.00011948797
-5.774613e-05
0.00012112694
-6.8353191e-05
0.00012299066
-7.9336106e-05
0.00012497249
-9.0724777e-05
0.00012702556
-0.00010252117
0.00012904163
-0.00011474928
0.00013099823
-0.00012741613
0.00013281425
-0.00014051337
0.00013441047
-0.00015403521
0.00013573943
-0.00016796723
0.00013670361
-0.00018227379
0.00013725548
-0.00019693936
0.00013736489
-0.0002119021
0.00013695222
-0.00022711528
0.00013601457
-0.00024251039
0.00013453489
-0.00025802046
0.00013249622
-0.00027357433
0.00012993886
-0.00028908573
0.00012693736
-0.00030448324
0.00012358046
-0.00031969673
0.0001199807
-0.00033468058
0.00011632775
-0.0003494235
0.0001128392
-0.00036397744
0.00010979937
-0.00037846976
0.00010754714
-0.00039314932
0.00010652895
-0.00040843104
0.00010728785
-0.00042492927
0.00011046363
-0.00044351301
0.00011679944
-0.00046531111
0.00012711084
-0.0004916095
0.00014216832
-0.00052388925
0.00016246815
-0.0005639613
0.00018818002
-0.00061368892
0.00021884738
-0.00067511848
0.00025366852
-0.00075007107
0.00029090267
-0.0008403365
0.00032828424
-0.00094719985
0.00036225516
-0.0010718864
0.0003884183
-0.0012152689
0.00040029385
-0.0013762697
0.00038699292
-0.0015521849
0.0003329434
-0.0017306494
0.00020643475
-0.0018894018
-4.7563124e-05
-0.0019234397
-0.00050664341
-0.0016225577
-0.0012472458
-0.00085044073
-0.0022340782
0.00023040797
-0.0031774045
0.0016568117
-0.0042141797
0.0033006159
-0.0048825202
0.0047820888
-0.0046208166
0.0059416591
-0.0037483167
0.0068118276
-0.0028321196
0.007249536
-0.0018492377
0.0073900332
-0.0010942744
0.0071910787
-0.00031835862
0.006727314
0.00034551024
0.0059602103
0.0011355929
0.005147957
0.0016645226
0.0044967716
0.0018101545
0.0039933432
0.0018009034
0.0035390369
0.0018085461
0.0030980622
0.0018231221
0.0026822302
0.0018076997
0.0023025645
0.001761906
0.0019612754
0.001694144
0.0016577578
0.001610356
0.0013902221
0.0015155693
0.0011553035
0.0014143637
0.00094869671
0.0013102394
0.00076612951
0.0012057224
0.00060398778
0.0011027687
0.00045952286
0.0010029327
0.00033075307
0.00090737357
0.00021625464
0.00081682661
0.00011491416
0.00073166794
2.5836441e-05
0.00065202588
-5.1753302e-05
0.00057779471
-0.00011850403
0.00050872268
-0.00017499401
0.00044453793
-0.00022176639
0.00038492042
-0.00025928957
0.00032937181
-0.00028810935
0.00027762106
-0.00030873326
0.00022928411
-0.00032166229
0.00018408752
-0.00032738495
0.00014182863
-0.00032646069
0.00010242395
-0.00031941351
6.5781137e-05
-0.00030689429
3.1827849e-05
-0.00028911324
1.6534681e-07
-0.00026562672
-2.8618977e-05
-0.00023817749
-5.415313e-05
-0.000207582
-7.691955e-05
-0.00017380086
-9.6347855e-05
-0.00013665061
-0.00011289691
-9.6821337e-05
-0.00012498643
-0.00013703934
-1.7246674e-05
0.00012531644
-2.6548786e-05
0.00012617409
-3.6066856e-05
0.00012766554
-4.5837633e-05
0.00012926055
-5.5965538e-05
0.00013125074
-6.6458499e-05
0.00013348633
-7.7360044e-05
0.00013587895
-8.8704436e-05
0.00013836934
-0.00010055087
0.00014089281
-0.00011288489
0.00014333204
-0.0001257173
0.00014564487
-0.00013905158
0.00014774757
-0.00015287079
0.00014955639
-0.00016714981
0.00015098002
-0.00018186042
0.00015196831
-0.00019695325
0.0001524568
-0.00021237621
0.00015237346
-0.00022804834
0.00015168941
-0.00024388955
0.0001503767
-0.00025983198
0.00014843614
-0.00027577459
0.00014588246
-0.00029160945
0.00014277431
-0.00030720992
0.00013917999
-0.00032249543
0.00013526764
-0.00033735184
0.00013119022
-0.00035172235
0.00012721344
-0.00036557897
0.00012365589
-0.00037896868
0.0001209392
-0.00039203943
0.00011960417
-0.00040512339
0.00012037192
-0.00041877555
0.000124113
-0.00043383057
0.0001318553
-0.00045141143
0.00014469385
-0.00047296558
0.00016372014
-0.00050034346
0.00018984215
-0.00053571462
0.00022355069
-0.00058163839
0.00026477289
-0.00064073732
0.00031276701
-0.00071582674
0.00036598776
-0.00080965052
0.00042210515
-0.0009253661
0.00047797199
-0.0010668702
0.0005299234
-0.0012378661
0.00057128943
-0.0014441012
0.00059322718
-0.0017055624
0.00059440653
-0.0020597229
0.00056059848
-0.0024189012
0.00031161461
-0.0023471233
-0.00057842325
-0.0014164236
-0.0021779459
-3.7000169e-05
-0.0036134987
0.0011880596
-0.0044024625
0.0027779213
-0.0058040406
0.0043664715
-0.0064710711
0.0059923986
-0.0062467427
0.0075435024
-0.0052994199
0.0086457963
-0.0039344122
0.0094318002
-0.0026352417
0.0099251895
-0.0015876636
0.0099533385
-0.00034650673
0.0091969082
0.0011019434
0.0076101843
0.002722317
0.0058530987
0.0034216061
0.0045187771
0.0031444741
0.0038526587
0.0024670235
0.0034689249
0.0021922806
0.0030810797
0.0022109674
0.00265857
0.0022302085
0.0022534517
0.0021670202
0.0018915834
0.0020560099
0.0015740526
0.0019278877
0.0012967797
0.001792843
0.0010554601
0.0016556808
0.00084553594
0.0015201612
0.00066247464
0.0013887822
0.00050225262
0.0012629893
0.00036158255
0.0011436044
0.0002378785
0.0010310768
0.00012915888
0.00092554351
3.3844314e-05
0.00082697867
-4.9319416e-05
0.00073518886
-0.00012122593
0.0006497019
-0.00018259032
0.00057008737
-0.00023417332
0.00049611786
-0.00027657586
0.00042732098
-0.00031012483
0.0003629205
-0.00033542181
0.00030291655
-0.00035280979
0.00024667082
-0.00036277551
0.00019405122
-0.00036578139
0.0001448324
-0.00036221022
9.8853663e-05
-0.00035243439
5.6012633e-05
-0.00033686193
1.6253969e-05
-0.00031620237
-2.0494203e-05
-0.00029086617
-5.3954863e-05
-0.00026098908
-8.4036287e-05
-0.00022723203
-0.00011067723
-0.0001898972
-0.00013367727
-0.00014914014
-0.0001536512
-0.00010618854
-0.00016793756
-0.00018305977
-1.6343836e-05
0.00013400438
-2.5248366e-05
0.00013507104
-3.4415482e-05
0.00013683676
-4.3901977e-05
0.00013874209
-5.375799e-05
0.00014110717
-6.4068206e-05
0.00014380005
-7.4859821e-05
0.00014666976
-8.6196593e-05
0.00014971083
-9.8075559e-05
0.00015277257
-0.00011053182
0.00015578651
-0.00012355569
0.00015867148
-0.00013715543
0.00016134593
-0.00015130216
0.00016370011
-0.00016597347
0.00016565297
-0.0001811359
0.00016712995
-0.00019672725
0.0001680451
-0.00021268779
0.00016833497
-0.00022893945
0.00016794148
-0.00024537426
0.0001668086
-0.00026188697
0.00016494879
-0.0002783534
0.00016235118
-0.00029462765
0.00015904798
-0.00031058323
0.00015513542
-0.00032602988
0.00015071847
-0.00034083418
0.00014599789
-0.00035483579
0.00014121421
-0.00036787643
0.00013669639
-0.00037984174
0.00013290738
-0.00039074587
0.00013050924
-0.00040075342
0.00013037637
-0.0004102748
0.00013363217
-0.0004200562
0.00014163805
-0.00043130575
0.00015594313
-0.00044572391
0.00017813364
-0.00046555968
0.0002096749
-0.0004935629
0.00025155504
-0.0005328978
0.00030410767
-0.0005870644
0.00036693035
-0.0006597158
0.00043863558
-0.0007545741
0.00051696299
-0.00087608571
0.00059948543
-0.0010294772
0.0006833143
-0.0012210742
0.00076288556
-0.0014711405
0.00084329422
-0.001858111
0.00098137909
-0.0024406729
0.0011431619
-0.0028367042
0.0007076443
-0.0021314513
-0.0012836773
-0.00048254335
-0.0038268531
0.00062193129
-0.0047179703
0.0020374744
-0.0058180047
0.0036112591
-0.0073778259
0.0054841751
-0.0083439886
0.007329288
-0.0080918551
0.0089086195
-0.0068787506
0.010249978
-0.0052757693
0.011332681
-0.0037179439
0.012310618
-0.0025656005
0.01250623
-0.0005421172
0.011786451
0.0018217234
0.01044935
0.0040594156
0.0080696869
0.0058012661
0.005769454
0.0054447076
0.0041962937
0.0040401875
0.003409656
0.0029789192
0.0029713642
0.0026492551
0.0025669485
0.0026346202
0.0021542404
0.0025797276
0.0017742956
0.0024359564
0.0014459258
0.0022562581
0.0011652517
0.0020735152
0.00092448435
0.0018964457
0.00071745563
0.0017271898
0.00053897546
0.0015672645
0.00038453742
0.0014174278
0.00025040795
0.0012777341
0.00013357016
0.001147912
3.1724575e-05
0.0010273877
-5.695603e-05
0.00091565723
-0.00013382922
0.00081206059
-0.000199904
0.0007157733
-0.00025610387
0.00062628375
-0.00030281137
0.00054282281
-0.00034055722
0.00046506399
-0.00036999965
0.00039235862
-0.00039146658
0.00032437992
-0.00040533155
0.00026053489
-0.00041196888
0.00020069249
-0.00041179672
0.0001446596
-0.00040509643
9.2151182e-05
-0.00039226091
4.3171595e-05
-0.00037365568
-2.3459966e-06
-0.00034981358
-4.4344018e-05
-0.00032106338
-8.2702149e-05
-0.0002876919
-0.00011739895
-0.0002501641
-0.0001482065
-0.00020920862
-0.00017463616
-0.00016469096
-0.00019816587
-0.00011794266
-0.0002146863
-0.00023302775
-1.5271477e-05
0.0001421466
-2.3679064e-05
0.0001434812
-3.2412422e-05
0.00014556597
-4.1495999e-05
0.00014782625
-5.1097944e-05
0.00015071101
-6.1185385e-05
0.00015388439
-7.1854571e-05
0.00015734161
-8.310991e-05
0.00016096597
-9.5011933e-05
0.00016467184
-0.00010756855
0.00016834536
-0.00012078617
0.0001718885
-0.00013465277
0.00017520964
-0.00014915634
0.00017820502
-0.00016427468
0.00018077071
-0.00017995404
0.00018280517
-0.00019612049
0.00018421061
-0.00021271131
0.00018492542
-0.00022962207
0.00018484872
-0.00024674868
0.00018393398
-0.00026393897
0.00018214121
-0.00028105888
0.00017947084
-0.00029792808
0.00017591588
-0.00031435514
0.00017156495
-0.00033013354
0.00016649939
-0.00034500023
0.00016086257
-0.00035868197
0.00015489389
-0.00037091522
0.00014893134
-0.0003814425
0.00014343531
-0.00039003861
0.00013910183
-0.00039662579
0.0001369604
-0.0004013967
0.00013840311
-0.00040494175
0.00014518311
-0.00040839834
0.00015939678
-0.00041360822
0.00018333948
-0.00042317768
0.00021924337
-0.00044050454
0.0002688827
-0.00046962708
0.00033322803
-0.00051500703
0.00041230733
-0.00058121631
0.00050484493
-0.00067271403
0.00060846235
-0.00079379153
0.00072056369
-0.00094817717
0.00083769821
-0.0011448552
0.00095956297
-0.0014377648
0.0011362055
-0.0019431712
0.0014867861
-0.0025750522
0.0017750421
-0.0026123104
0.00074490071
-0.0011894926
-0.0027064947
0.00033383558
-0.0053501799
0.00128424
-0.0056683731
0.0024804824
-0.0070142474
0.0040266292
-0.0089239731
0.0058311477
-0.010148508
0.0076697572
-0.0099304636
0.0095587049
-0.0087676979
0.011324333
-0.0070413966
0.01278141
-0.0051750199
0.01347184
-0.0032560305
0.013613589
-0.00068386736
0.0131224
0.0023129115
0.012164878
0.0050169366
0.010519726
0.0074464174
0.0079987656
0.0079656697
0.0055541883
0.0064847662
0.0038272446
0.0047058623
0.0029262115
0.003550286
0.0024213844
0.0031394455
0.0019964561
0.003004656
0.0016047242
0.0028276874
0.0012695737
0.0025914075
0.00099075327
0.0023523341
0.00075685651
0.0021303399
0.00055881962
0.0019252259
0.00039011604
0.0017359691
0.00024556052
0.0015619812
0.00012106868
0.0014022239
1.3281532e-05
0.0012556984
-8.0118363e-05
0.0011207883
-0.00016094963
0.00099648782
-0.00023040499
0.00088151259
-0.00028976938
0.00077513462
-0.00033971753
0.00067622799
-0.00038100116
0.00058410243
-0.00041373811
0.0004977983
-0.00043864813
0.00041726746
-0.00045569873
0.0003414333
-0.00046553922
0.00027037412
-0.00046841749
0.00020357092
-0.00046446953
0.00014070677
-0.00045416298
8.1844865e-05
-0.00043779686
2.6801447e-05
-0.00041563481
-2.4504692e-05
-0.00038814456
-7.1826268e-05
-0.00035555919
-0.00011529405
-0.00031840016
-0.00015456042
-0.00027704166
-0.00018956137
-0.00023173087
-0.00021994736
-0.00018305652
-0.00024684032
-0.00013188548
-0.00026585706
-0.00028740458
-1.3991849e-05
0.00014962486
-2.1803709e-05
0.00015128661
-3.0035384e-05
0.00015379877
-3.8711832e-05
0.00015650421
-4.7929983e-05
0.00015992479
-5.7745001e-05
0.00016369993
-6.8223887e-05
0.00016781853
-7.9392641e-05
0.0001721307
-9.1292209e-05
0.00017657285
-0.0001039372
0.00018098992
-0.00011734009
0.00018528846
-0.0001314906
0.00018936115
-0.00014637645
0.00019309043
-0.00016195876
0.00019634845
-0.00017818808
0.00019903237
-0.00019499111
0.00020101283
-0.00021229297
0.00020222338
-0.00022996821
0.0002025215
-0.00024788972
0.00020185704
-0.00026590621
0.00020015773
-0.0002838227
0.00019738529
-0.00030144961
0.00019354376
-0.00031854988
0.00018866737
-0.00033484921
0.00018279654
-0.00035002892
0.00017603853
-0.00036371714
0.00016858253
-0.00037546337
0.00016067925
-0.00038476624
0.0001527352
-0.0003910983
0.00014542912
-0.0003940482
0.00013990985
-0.00039344332
0.00013779958
-0.00038956755
0.00014130502
-0.000383398
0.00015322313
-0.00037685106
0.00017679065
-0.00037293384
0.00021532632
-0.00037569286
0.00027164157
-0.00039022182
0.00034775504
-0.00042224486
0.00044432977
-0.00047756693
0.00056016962
-0.00056081757
0.0006917146
-0.0006734277
0.0008331729
-0.00081401255
0.000978281
-0.00099870452
0.0011442545
-0.0013048084
0.0014423105
-0.0017621798
0.0019441572
-0.0019872021
0.0020000627
-0.0011948546
-4.7447926e-05
0.00082465555
-0.0047260031
0.0012919834
-0.0058175056
0.0016718021
-0.0060481916
0.0024961506
-0.0078385977
0.0042002824
-0.010628106
0.0062551788
-0.012203403
0.0081924423
-0.011867726
0.009930368
-0.010505624
0.011206111
-0.008317141
0.012252563
-0.0062214714
0.01307229
-0.0040757578
0.013402604
-0.0010141834
0.013062623
0.0026528925
0.012143612
0.0059359491
0.011011283
0.0085787461
0.0089491602
0.010027791
0.0064960959
0.0089378299
0.0043219582
0.006880002
0.0029795082
0.0048927385
0.0022447794
0.0038741749
0.001765446
0.0034839875
0.0013698321
0.0032232988
0.0010397686
0.0029214686
0.00077168259
0.0026204179
0.00055223789
0.0023497823
0.00036972557
0.002107734
0.00021614275
0.0018895487
8.5626131e-05
0.0016924958
-2.613406e-05
0.0015139829
-0.00012221304
0.001351774
-0.00020507161
0.001203644
-0.00027638452
0.0010677993
-0.00033741272
0.00094254174
-0.00038927265
0.00082699305
-0.0004323804
0.00071933033
-0.00046739736
0.00061911766
-0.00049469183
0.0005250945
-0.00051440035
0.00043697691
-0.000526978
0.00035401021
-0.00053249913
0.00027589264
-0.00053118666
0.00020225761
-0.00052331947
0.00013284624
-0.00050917098
6.7696434e-05
-0.00048890758
6.5401512e-06
-0.00046288003
-5.0532294e-05
-0.0004313498
-0.00010335914
-0.00039475216
-0.00015189361
-0.0003532991
-0.00019601193
-0.00030745713
-0.00023540549
-0.00025753271
-0.00026987386
-0.00020437636
-0.00029999961
-0.00014808336
-0.00032215065
-0.00034664746
-1.2465143e-05
0.00015621356
-1.9550381e-05
0.00015837403
-2.7160003e-05
0.00016140968
-3.5349304e-05
0.00016468863
-4.4149178e-05
0.00016872449
-5.3649907e-05
0.00017319699
-6.389333e-05
0.00017805669
-7.493847e-05
0.00018317685
-8.6815451e-05
0.00018844983
-9.9539792e-05
0.0001937117
-0.00011312568
0.00019887537
-0.00012756943
0.0002038047
-0.00014285324
0.00020836951
-0.00015895004
0.0002124425
-0.00017579242
0.00021587397
-0.00019332056
0.00021853727
-0.00021141959
0.00022031918
-0.0002299755
0.0002210781
-0.00024883817
0.00022071956
-0.00026783074
0.00021914771
-0.00028675082
0.00021630533
-0.00030536483
0.0002121598
-0.00032340691
0.00020670795
-0.00034055066
0.00019993649
-0.00035641824
0.00019190582
-0.00037051663
0.00018268304
-0.00038222856
0.00017238995
-0.00039076493
0.00016126734
-0.00039522164
0.00014988423
-0.00039466474
0.00013935496
-0.00038840384
0.00013153873
-0.00037618248
0.00012907962
-0.00035855632
0.00013559406
-0.00033734171
0.00015557644
-0.00031592434
0.00019390885
-0.00029904839
0.00025476432
-0.00029327847
0.00034198467
-0.00030632317
0.00045737607
-0.00034593934
0.00059978848
-0.00041644319
0.00076221855
-0.00051408424
0.00093081168
-0.00063405164
0.0010982467
-0.00080174811
0.0013119509
-0.00106593
0.001706493
-0.0012746209
0.0021528474
-0.00085790976
0.0015833505
0.00081544719
-0.0017208043
0.0018500259
-0.0057605792
0.0017429206
-0.0057103982
0.0020026679
-0.0063079389
0.0028324735
-0.0086684046
0.0044659798
-0.012261613
0.006395477
-0.014132901
0.0079949354
-0.013467185
0.0092352623
-0.011745952
0.0098783302
-0.0089602103
0.010523528
-0.0068666698
0.011310251
-0.0048624783
0.011773534
-0.0014774666
0.011534909
0.0028915192
0.01057023
0.0069006279
0.009205499
0.0099434781
0.007624153
0.011609137
0.0057011802
0.010860803
0.0041271655
0.0084540189
0.0027921875
0.0062277162
0.0019545784
0.004711782
0.0014355414
0.0040030212
0.0010519714
0.0036068651
0.00074723299
0.0032262034
0.00050482521
0.002862821
0.0003103473
0.0025442551
0.00015119391
0.0022668835
1.8597315e-05
0.0020221447
-9.3662598e-05
0.0018047536
-0.00018913926
0.0016094575
-0.00027102122
0.0014336536
-0.00034153432
0.0012741583
-0.00040214313
0.0011284089
-0.00045411669
0.00099451578
-0.00049731164
0.00087018966
-0.00053321691
0.00075523705
-0.00056164205
0.00064754429
-0.00058304325
0.00054649289
-0.00059745747
0.00045139031
-0.00060511452
0.00036166481
-0.00060608121
0.00027686518
-0.00060048393
0.00019665698
-0.00058851334
0.00012087929
-0.00057021972
4.9408358e-05
-0.00054585818
-1.7835951e-05
-0.00051563936
-8.0744506e-05
-0.00047979045
-0.00013920186
-0.00043865366
-0.00019303984
-0.00039262177
-0.00024203947
-0.00034186759
-0.00028616002
-0.00028692126
-0.00032482043
-0.000228823
-0.00035809773
-0.00016674912
-0.00038422744
-0.00041121564
-1.0529188e-05
0.00016162924
-1.6788971e-05
0.00016463721
-2.373851e-05
0.00016835563
-3.1349392e-05
0.00017229999
-3.9666852e-05
0.00017703808
-4.8798094e-05
0.00018232262
-5.8775519e-05
0.00018803492
-6.9659505e-05
0.00019406119
-8.1481645e-05
0.00020027014
-9.4273461e-05
0.00020650506
-0.00010804174
0.000212644
-0.0001227952
0.00021855372
-0.00013851075
0.00022408221
-0.00015515419
0.00022908552
-0.00017268126
0.00023339788
-0.00019101147
0.00023686392
-0.00021002878
0.00023933639
-0.00022960156
0.00024065017
-0.00024956026
0.00024067467
-0.00026970978
0.00023929595
-0.00028984266
0.00023644033
-0.00030969976
0.00023201658
-0.00032897884
0.00022598366
-0.00034735748
0.00021831477
-0.00036439047
0.00020894181
-0.0003795029
0.0001977956
-0.00039191243
0.000184796
-0.00040053974
0.00016989339
-0.00040395931
0.0001533062
-0.0004005463
0.00013594313
-0.00038880645
0.00011979619
-0.00036760973
0.00010787952
-0.00033678787
0.00010477222
-0.00029778835
0.00011657849
-0.00025428275
0.00015040152
-0.00021124732
0.00021172597
-0.00017763712
0.00030837519
-0.00016455545
0.00044429723
-0.00018306656
0.00061830073
-0.00023830306
0.00081745303
-0.00032236648
0.0010148724
-0.00043710504
0.0012129851
-0.00062269393
0.0014975411
-0.00086000773
0.0019438067
-0.00082636081
0.0021191996
-4.5611201e-05
0.00080260143
0.0015658784
-0.0033322916
0.0020444351
-0.0062391348
0.0022451749
-0.0059111379
0.0025580531
-0.0066208175
0.0031039938
-0.0092143456
0.0044536108
-0.013611231
0.0059681427
-0.015647434
0.006790157
-0.014289202
0.0075755128
-0.01253131
0.0083053077
-0.0096900055
0.0091042355
-0.0076655965
0.009623147
-0.0053813861
0.0095761672
-0.0014304847
0.0090033895
0.0034642982
0.0079787454
0.0079252711
0.0067824978
0.011139729
0.0056528639
0.012738775
0.0042211998
0.012292467
0.0032119932
0.0094632225
0.0021937884
0.0072459185
0.0014563858
0.0054491825
0.0009729346
0.0044864707
0.00063872176
0.003941075
0.00038668569
0.0034782334
0.00018866546
0.0030608355
3.1885984e-05
0.0027010331
-9.5657331e-05
0.0023944255
-0.00020139915
0.0021278825
-0.0002897971
0.0018931477
-0.00036552422
0.0016851835
-0.00043134854
0.0014994805
-0.00048799553
0.0013308075
-0.00053680435
0.0011772187
-0.00057825717
0.0010359685
-0.00061330566
0.00090523944
-0.00064135841
0.00078328971
-0.00066298627
0.00066917312
-0.00067833887
0.00056184405
-0.00068738515
0.00046043717
-0.00069003193
0.00036430915
-0.00068641483
0.00027324541
-0.00067634846
0.00018658883
-0.00065996018
0.00010448467
-0.00063734538
2.6796373e-05
-0.0006087016
-4.648322e-05
-0.0005740372
-0.00011542027
-0.00053359211
-0.00017964657
-0.00048764252
-0.00023899043
-0.00043647206
-0.00029320931
-0.00038051887
-0.0003421138
-0.00032008996
-0.00038524858
-0.00025627321
-0.000421914
-0.0001879501
-0.00045255444
-0.00048188693
-7.9175327e-06
0.00016574724
-1.3383667e-05
0.00017010307
-1.9641259e-05
0.0001746168
-2.6581655e-05
0.00017923702
-3.4380552e-05
0.0001848325
-4.3089307e-05
0.00019103306
-5.276183e-05
0.00019770818
-6.3449226e-05
0.00020474746
-7.5192747e-05
0.00021201591
-8.8025352e-05
0.00021933851
-0.00010197551
0.00022659005
-0.00011703627
0.00023361178
-0.00013320475
0.00024025075
-0.00015045308
0.00024633142
-0.00016872717
0.00025166844
-0.00018794854
0.00025608456
-0.00020800304
0.00025938944
-0.00022873866
0.00026138094
-0.00024997591
0.00026190882
-0.00027149749
0.00026081889
-0.00029306303
0.00025800649
-0.00031442333
0.00025337441
-0.00033528071
0.00024684037
-0.00035528922
0.00023832623
-0.0003740399
0.00022769378
-0.00039094364
0.00021469652
-0.00040508237
0.00019893308
-0.00041508399
0.00017989783
-0.0004189659
0.00015719049
-0.00041410422
0.00013107918
-0.00039790852
0.0001035971
-0.00036772768
7.769838e-05
-0.00032208952
5.9135612e-05
-0.00026151983
5.6008551e-05
-0.00019089609
7.977449e-05
-0.00011383677
0.00013466406
-4.3395763e-05
0.00023793591
3.3898919e-06
0.00039751393
1.2070526e-05
0.00060961873
-2.6630275e-05
0.00085615096
-0.00010974052
0.0010979818
-0.00025994137
0.0013631875
-0.00052090251
0.0017585038
-0.00074704606
0.0021699495
-0.00047952293
0.0018516766
0.00059207058
-0.00026899007
0.0016206375
-0.0043608558
0.0026992729
-0.00731777
0.0027841385
-0.0059960048
0.0027356476
-0.0065723281
0.0029784495
-0.0094571484
0.0038922049
-0.014524988
0.004852228
-0.016607459
0.0053269679
-0.014763942
0.0060533369
-0.013257679
0.0067501249
-0.010386793
0.0073091242
-0.0082245924
0.0070470311
-0.0051192899
0.0063155157
-0.00069896827
0.0053744237
0.0044053919
0.0044603656
0.0088393315
0.0037052035
0.011894892
0.0028366798
0.013607298
0.0024268817
0.012702263
0.0018058642
0.010084237
0.0012180481
0.0078337345
0.00070907659
0.0059581554
0.00036442937
0.0048311163
0.00013080765
0.004174692
-4.3233755e-05
0.0036522706
-0.00017430427
0.0031919045
-0.0002782129
0.0028049402
-0.0003641156
0.0024803265
-0.00043645959
0.0022002229
-0.00049910839
0.0019557963
-0.00055376524
0.0017398406
-0.00060113784
0.0015468542
-0.0006426125
0.0013722832
-0.00067889508
0.0012135028
-0.00070969006
0.001066761
-0.0007352653
0.00093081141
-0.00075561337
0.00080363732
-0.00077065582
0.00068421774
-0.00077997624
0.0005711691
-0.00078362272
0.0004640769
-0.00078135954
0.00036204596
-0.00077287956
0.00026476377
-0.0007583513
0.00017205313
-0.0007376178
8.3758699e-05
-0.00071066865
-1.5824579e-07
-0.00067746371
-7.9685923e-05
-0.00063814512
-0.00015473441
-0.000592849
-0.0002249482
-0.00054175824
-0.00029008027
-0.00048518291
-0.00034978866
-0.000423468
-0.00040383183
-0.00035701418
-0.00045169921
-0.00028664622
-0.00049228211
-0.00021173482
-0.00052746731
-0.00055945989
-4.3737692e-06
0.00016910516
-9.2496627e-06
0.00017498562
-1.4810138e-05
0.00018017611
-2.1029515e-05
0.00018545354
-2.8217522e-05
0.00019202355
-3.6425063e-05
0.0001992421
-4.5731068e-05
0.00020701396
-5.6179213e-05
0.00021519863
-6.78079e-05
0.00022364584
-8.0669856e-05
0.00023219657
-9.4779277e-05
0.00024069686
-0.00011015783
0.00024899067
-0.00012680766
0.00025689869
-0.00014470068
0.00026422116
-0.0001637949
0.00027076175
-0.00018400584
0.00027629364
-0.00020521775
0.00028059542
-0.00022727656
0.00028343476
-0.00024997166
0.00028460385
-0.00027307496
0.00028392271
-0.00029631721
0.00028124658
-0.00031943
0.00027648622
-0.00034215452
0.00026956724
-0.00036423078
0.00026040346
-0.00038533245
0.00024879229
-0.0004049266
0.00023428813
-0.00042215769
0.0002161663
-0.00043544413
0.0001931873
-0.00044215346
0.0001638982
-0.0004386422
0.00012756366
-0.00042025633
8.5210499e-05
-0.0003811191
3.856339e-05
-0.00031992881
-2.0552873e-06
-0.00023646777
-2.7456332e-05
-0.0001320089
-2.468679e-05
-9.6986975e-06
1.2354541e-05
0.00011522304
0.00011301583
0.00021561542
0.00029712135
0.00026264372
0.00056258789
0.00023349785
0.0008852961
0.00011628994
0.0012151916
-0.00012307399
0.0016025522
-0.00048923333
0.0021246629
-0.00068990622
0.0023706214
-0.00029775124
0.0014595221
0.00057283304
-0.0011395735
0.0013773755
-0.0051653966
0.0025406045
-0.0084809991
0.0024321107