/*--------------------------------*- C++ -*----------------------------------*\
  =========                 |
  \\      /  F ield         | OpenFOAM: The Open Source CFD Toolbox
   \\    /   O peration     | Website:  https://openfoam.org
    \\  /    A nd           | Version:  9
     \\/     M anipulation  |
\*---------------------------------------------------------------------------*/
FoamFile
{
    format      ascii;
    class       volVectorField;
    location    "0.8";
    object      U;
}
// * * * * * * * * * * * * * * * * * * * * * * * * * * * * * * * * * * * * * //

dimensions      [0 1 -1 0 0 0 0];

internalField   nonuniform List<vector> 
10000
(
(-0.0010832451 0.0077246746 0)
(-0.0032978118 0.0077684485 0)
(-0.0029764993 0.007858658 0)
(-0.0046341099 0.007945304 0)
(-0.005529015 0.0080507279 0)
(-0.0066259417 0.0081636923 0)
(-0.0077259483 0.0082807959 0)
(-0.0088453084 0.0083987667 0)
(-0.009992949 0.008512788 0)
(-0.011171214 0.0086182038 0)
(-0.012382591 0.0087107323 0)
(-0.013626375 0.008787889 0)
(-0.014897799 0.0088430897 0)
(-0.016197987 0.0088698241 0)
(-0.017528939 0.0088656024 0)
(-0.018888351 0.0088266158 0)
(-0.0202748 0.0087507279 0)
(-0.021688487 0.0086370132 0)
(-0.023123114 0.0084859739 0)
(-0.024574001 0.0082974195 0)
(-0.026045014 0.008073549 0)
(-0.027533562 0.0078219306 0)
(-0.029031924 0.0075495142 0)
(-0.030538956 0.0072620588 0)
(-0.032055317 0.006968017 0)
(-0.033584309 0.0066761494 0)
(-0.035133936 0.0063950581 0)
(-0.036721404 0.0061295912 0)
(-0.038379605 0.0058857216 0)
(-0.040155526 0.0056740177 0)
(-0.042108062 0.0055130848 0)
(-0.044327058 0.005424537 0)
(-0.046952195 0.0054426088 0)
(-0.050075641 0.0056272545 0)
(-0.053718829 0.0059937121 0)
(-0.057938811 0.0065040523 0)
(-0.062835492 0.0070972152 0)
(-0.068511268 0.0076915598 0)
(-0.075047343 0.0081772257 0)
(-0.082474245 0.008418031 0)
(-0.090752153 0.0082368922 0)
(-0.099746741 0.0074083929 0)
(-0.10913761 0.0056547703 0)
(-0.11823795 0.0026102281 0)
(-0.12587509 -0.0023214242 0)
(-0.13041487 -0.010114235 0)
(-0.12914409 -0.021527294 0)
(-0.11788125 -0.036589017 0)
(-0.093401968 -0.054947153 0)
(-0.055378004 -0.075117658 0)
(-0.00046607617 -0.095442294 0)
(0.07532728 -0.11640948 0)
(0.16743246 -0.13034184 0)
(0.26427637 -0.13180478 0)
(0.35037352 -0.12108621 0)
(0.41643416 -0.1052062 0)
(0.4628899 -0.088872298 0)
(0.49353688 -0.072064669 0)
(0.51102406 -0.053127592 0)
(0.51689264 -0.031205576 0)
(0.50780907 -0.0072159032 0)
(0.48043453 0.015776253 0)
(0.4412983 0.034313356 0)
(0.3998045 0.047503483 0)
(0.35941234 0.057016923 0)
(0.32025809 0.064680149 0)
(0.28313643 0.07106975 0)
(0.24888375 0.075947072 0)
(0.21760836 0.079026428 0)
(0.18919915 0.08026525 0)
(0.16353038 0.079768433 0)
(0.14039214 0.077690973 0)
(0.11952543 0.074245557 0)
(0.10067122 0.069730944 0)
(0.083595735 0.064514473 0)
(0.068106669 0.058968609 0)
(0.054057568 0.053401581 0)
(0.041343141 0.048023768 0)
(0.02987869 0.042950486 0)
(0.019601908 0.03824057 0)
(0.010477943 0.03391282 0)
(0.0024564047 0.029961653 0)
(-0.0045002599 0.026372562 0)
(-0.010407091 0.023118925 0)
(-0.01529294 0.020164191 0)
(-0.019210306 0.017472964 0)
(-0.022224695 0.015014197 0)
(-0.024400145 0.012758954 0)
(-0.025801198 0.010684592 0)
(-0.02649898 0.0087777931 0)
(-0.026533077 0.0070375093 0)
(-0.025924234 0.0054462235 0)
(-0.024710815 0.0039612169 0)
(-0.022967893 0.0025540255 0)
(-0.020958792 0.001162717 0)
(-0.018878234 2.458624e-05 0)
(-0.016170235 -0.00085645922 0)
(-0.01375125 -0.0015115477 0)
(-0.010013915 -0.001960355 0)
(-0.0054297003 -0.0023724261 0)
(-0.0010394391 0.011251257 0)
(-0.0032031435 0.011298062 0)
(-0.0028479341 0.011406241 0)
(-0.0044939485 0.011503162 0)
(-0.005365055 0.011634432 0)
(-0.0064523184 0.011768887 0)
(-0.0075473581 0.011912049 0)
(-0.0086687794 0.012056 0)
(-0.0098257672 0.012194205 0)
(-0.011020167 0.012322968 0)
(-0.012252107 0.012436052 0)
(-0.013522231 0.012526196 0)
(-0.014828985 0.01259004 0)
(-0.016170457 0.012619282 0)
(-0.017546519 0.012610171 0)
(-0.018955061 0.012557424 0)
(-0.020393264 0.012460767 0)
(-0.021858307 0.012317599 0)
(-0.023343495 0.012127571 0)
(-0.024845234 0.011890982 0)
(-0.026362492 0.011611047 0)
(-0.027888622 0.011296315 0)
(-0.029417604 0.010956312 0)
(-0.030947699 0.010601333 0)
(-0.032477326 0.010244892 0)
(-0.034007469 0.0099024694 0)
(-0.035544529 0.0095926365 0)
(-0.03710176 0.0093358656 0)
(-0.03870469 0.0091583909 0)
(-0.040393197 0.0090927751 0)
(-0.042225279 0.0091757289 0)
(-0.044283594 0.0094418444 0)
(-0.046669145 0.0099361145 0)
(-0.049480781 0.010730979 0)
(-0.052820737 0.011852022 0)
(-0.056810201 0.013270979 0)
(-0.061584492 0.014928906 0)
(-0.067286781 0.016727007 0)
(-0.074048154 0.018516125 0)
(-0.081965854 0.020086822 0)
(-0.09109527 0.021146258 0)
(-0.10142076 0.021300854 0)
(-0.11278831 0.019982805 0)
(-0.12485382 0.016384158 0)
(-0.13703561 0.0092588563 0)
(-0.14760059 -0.0034603943 0)
(-0.15260815 -0.024099257 0)
(-0.14794638 -0.053548195 0)
(-0.13256349 -0.08805524 0)
(-0.1027639 -0.12460255 0)
(-0.047534468 -0.16756904 0)
(0.046690275 -0.21651801 0)
(0.17074465 -0.25039466 0)
(0.29908425 -0.24398657 0)
(0.40783047 -0.20464052 0)
(0.48545522 -0.16059966 0)
(0.53375733 -0.12215611 0)
(0.55967625 -0.08950471 0)
(0.56802921 -0.056306989 0)
(0.56249489 -0.021632883 0)
(0.54448628 0.024899353 0)
(0.51069018 0.06820414 0)
(0.4644994 0.094311861 0)
(0.41543193 0.10706369 0)
(0.36905297 0.11443715 0)
(0.32583635 0.11895709 0)
(0.28557804 0.1209854 0)
(0.24855857 0.12107405 0)
(0.21497235 0.11950375 0)
(0.18486813 0.11643184 0)
(0.15809892 0.11207115 0)
(0.1343373 0.10663821 0)
(0.11318928 0.10035117 0)
(0.094269049 0.09345946 0)
(0.077245838 0.08624117 0)
(0.061869823 0.078965737 0)
(0.047969285 0.071849669 0)
(0.035432873 0.06503588 0)
(0.02417826 0.058598451 0)
(0.01414417 0.052574124 0)
(0.005286627 0.046965999 0)
(-0.0024491726 0.041762126 0)
(-0.0091105918 0.03694744 0)
(-0.014736886 0.03249473 0)
(-0.019370845 0.028359845 0)
(-0.02306147 0.024504071 0)
(-0.025868329 0.020891716 0)
(-0.027851088 0.01749717 0)
(-0.029066379 0.014304459 0)
(-0.029571781 0.011303589 0)
(-0.029407844 0.0084962052 0)
(-0.028635651 0.0058584812 0)
(-0.027313479 0.0033563959 0)
(-0.025539728 0.00096573525 0)
(-0.023312492 -0.001256949 0)
(-0.020756391 -0.0031540438 0)
(-0.017604672 -0.0046528093 0)
(-0.014783481 -0.0058414797 0)
(-0.010799186 -0.0066892107 0)
(-0.0058516022 -0.0074835505 0)
(-0.0009838188 0.010937899 0)
(-0.0031225374 0.010993377 0)
(-0.0027490255 0.011111073 0)
(-0.0043752825 0.01122985 0)
(-0.0052220225 0.011379688 0)
(-0.0062972129 0.011542034 0)
(-0.0073812356 0.011714134 0)
(-0.0085012864 0.011893296 0)
(-0.0096606667 0.012070256 0)
(-0.010862267 0.012237583 0)
(-0.012111843 0.01239134 0)
(-0.013404572 0.012523172 0)
(-0.014739141 0.012627068 0)
(-0.016115336 0.012695429 0)
(-0.017532173 0.012723459 0)
(-0.018984264 0.012706961 0)
(-0.020467303 0.012642023 0)
(-0.021979819 0.012525772 0)
(-0.02351322 0.012359134 0)
(-0.025059836 0.012140874 0)
(-0.02661437 0.01187569 0)
(-0.028168422 0.011572131 0)
(-0.029713296 0.011238113 0)
(-0.031242567 0.010885729 0)
(-0.032750704 0.010533071 0)
(-0.034234753 0.010201873 0)
(-0.0356966 0.0099190943 0)
(-0.037144834 0.0097153039 0)
(-0.038599643 0.0096285956 0)
(-0.040094329 0.0097047204 0)
(-0.041678897 0.009997743 0)
(-0.043428702 0.010571898 0)
(-0.045444845 0.011499506 0)
(-0.047848683 0.012846792 0)
(-0.050782202 0.014647005 0)
(-0.054406024 0.016895267 0)
(-0.058902107 0.019540639 0)
(-0.064469809 0.022479614 0)
(-0.071305888 0.025550643 0)
(-0.079590065 0.028515544 0)
(-0.0894682 0.031044539 0)
(-0.10107866 0.032668357 0)
(-0.11452666 0.032714052 0)
(-0.12983454 0.030224965 0)
(-0.14697555 0.023600683 0)
(-0.16499938 0.0097744299 0)
(-0.18163927 -0.015529288 0)
(-0.19299999 -0.053064867 0)
(-0.18657845 -0.1012682 0)
(-0.13519333 -0.16812312 0)
(-0.038484596 -0.24651874 0)
(0.091861752 -0.33528593 0)
(0.24931387 -0.39426137 0)
(0.40558507 -0.37543186 0)
(0.53944666 -0.3011 0)
(0.64383309 -0.22231419 0)
(0.71054612 -0.14567067 0)
(0.74043994 -0.089025477 0)
(0.73845671 -0.0361489 0)
(0.7048777 0.0033558058 0)
(0.64000837 0.054771735 0)
(0.55483101 0.10721357 0)
(0.47800391 0.1441342 0)
(0.42246079 0.15819528 0)
(0.37697013 0.16053997 0)
(0.33185719 0.16094146 0)
(0.28819508 0.16053101 0)
(0.24826794 0.15813806 0)
(0.21220355 0.15349208 0)
(0.17994095 0.14708124 0)
(0.15144799 0.13944434 0)
(0.1264387 0.1309781 0)
(0.10448448 0.12198653 0)
(0.085133952 0.11272519 0)
(0.067982643 0.10342169 0)
(0.052712592 0.094272979 0)
(0.039093687 0.085432467 0)
(0.026962781 0.077002743 0)
(0.016195005 0.069039777 0)
(0.0066963253 0.061572216 0)
(-0.0016113489 0.054598864 0)
(-0.0088048359 0.048106378 0)
(-0.014946973 0.042073715 0)
(-0.020093621 0.036476558 0)
(-0.024292954 0.031272016 0)
(-0.027591798 0.026430636 0)
(-0.030047862 0.021916834 0)
(-0.031706734 0.017706985 0)
(-0.032620738 0.013781844 0)
(-0.032844414 0.010126246 0)
(-0.032429139 0.0067312097 0)
(-0.03143939 0.0035813819 0)
(-0.029912483 0.00069286402 0)
(-0.027831714 -0.0019583566 0)
(-0.025282171 -0.0043036706 0)
(-0.022428176 -0.006403261 0)
(-0.018988475 -0.0081557402 0)
(-0.015883069 -0.0096178112 0)
(-0.011674894 -0.010694813 0)
(-0.0063419249 -0.011736849 0)
(-0.00092896077 0.011920881 0)
(-0.0030326169 0.01199362 0)
(-0.0026163167 0.012134506 0)
(-0.0042311946 0.01228641 0)
(-0.0050545735 0.012468383 0)
(-0.0061133981 0.012674621 0)
(-0.0071868011 0.012892895 0)
(-0.00829869 0.013122168 0)
(-0.0094610696 0.013352572 0)
(-0.010672174 0.013573817 0)
(-0.01193357 0.013781432 0)
(-0.013245766 0.013971686 0)
(-0.014607965 0.014132293 0)
(-0.016017188 0.014256362 0)
(-0.017470519 0.014339409 0)
(-0.018964331 0.01437679 0)
(-0.020493802 0.014360843 0)
(-0.022051804 0.01428871 0)
(-0.023630757 0.014160486 0)
(-0.025222494 0.013974221 0)
(-0.026816867 0.01373303 0)
(-0.028404749 0.013443209 0)
(-0.029976135 0.01311235 0)
(-0.031519373 0.012753165 0)
(-0.033024257 0.01238383 0)
(-0.034482375 0.012027354 0)
(-0.035889661 0.011712096 0)
(-0.037246538 0.011474066 0)
(-0.038563002 0.01136257 0)
(-0.039864562 0.011439294 0)
(-0.041194677 0.01177765 0)
(-0.042622607 0.012462973 0)
(-0.044248052 0.013587551 0)
(-0.046201184 0.015242126 0)
(-0.048644055 0.017497061 0)
(-0.051778358 0.020385883 0)
(-0.055841284 0.023889502 0)
(-0.061089788 0.027927187 0)
(-0.067794867 0.032342371 0)
(-0.076230836 0.03689358 0)
(-0.086691926 0.041250209 0)
(-0.099524346 0.044948883 0)
(-0.11509297 0.047323308 0)
(-0.13380739 0.047330207 0)
(-0.1567482 0.043420008 0)
(-0.18722736 0.032895401 0)
(-0.22702267 0.0085641658 0)
(-0.25338193 -0.044377872 0)
(-0.20584587 -0.14365127 0)
(-0.073968769 -0.27982987 0)
(0.05763815 -0.37287733 0)
(0.19802369 -0.50107924 0)
(0.3576374 -0.56687225 0)
(0.52005354 -0.54058692 0)
(0.67848642 -0.44514905 0)
(0.81276447 -0.32772426 0)
(0.91031807 -0.21124899 0)
(0.97865104 -0.11562298 0)
(1.0099639 -0.017643318 0)
(0.98107935 0.079313415 0)
(0.85935096 0.19711349 0)
(0.66893001 0.24000398 0)
(0.49979357 0.21828454 0)
(0.4070482 0.1982432 0)
(0.36476417 0.19901913 0)
(0.3290401 0.20337037 0)
(0.28705727 0.20173491 0)
(0.2445396 0.19542832 0)
(0.20596852 0.18669306 0)
(0.17207793 0.17640027 0)
(0.14246025 0.16508113 0)
(0.11666173 0.15326064 0)
(0.094233346 0.14134071 0)
(0.074706451 0.12958372 0)
(0.057643445 0.11816449 0)
(0.042677468 0.1072053 0)
(0.029519608 0.0967901 0)
(0.017945522 0.086967038 0)
(0.007778962 0.077758134 0)
(-0.0011115445 0.069164354 0)
(-0.0088315014 0.061160063 0)
(-0.015473315 0.053713592 0)
(-0.021103539 0.046799834 0)
(-0.025786195 0.040382095 0)
(-0.029569425 0.034396268 0)
(-0.032492976 0.028828674 0)
(-0.034611152 0.02362744 0)
(-0.035961909 0.018771231 0)
(-0.03659375 0.014235043 0)
(-0.036550997 0.0099993722 0)
(-0.035871503 0.0060539314 0)
(-0.034590557 0.0024012966 0)
(-0.032770765 -0.00094348924 0)
(-0.030462817 -0.0039860928 0)
(-0.027695071 -0.006761083 0)
(-0.024544591 -0.0092410926 0)
(-0.020782427 -0.011377033 0)
(-0.017291131 -0.013186512 0)
(-0.012820426 -0.014501665 0)
(-0.0069966966 -0.015849533 0)
(-0.00085557586 0.012996608 0)
(-0.0029234511 0.013091001 0)
(-0.0024592999 0.013253221 0)
(-0.0040529369 0.013427958 0)
(-0.0048448153 0.013645039 0)
(-0.0058816014 0.013889436 0)
(-0.0069411726 0.014152606 0)
(-0.0080462749 0.014427203 0)
(-0.0092100393 0.014704669 0)
(-0.01043068 0.014976772 0)
(-0.011706296 0.015235034 0)
(-0.013040219 0.015472806 0)
(-0.014433673 0.01567977 0)
(-0.015879723 0.01584901 0)
(-0.017374944 0.01597282 0)
(-0.018917197 0.016043907 0)
(-0.020500135 0.016055935 0)
(-0.022114632 0.016004423 0)
(-0.023752103 0.015885862 0)
(-0.025402194 0.01569887 0)
(-0.02705229 0.015444293 0)
(-0.028690221 0.015126276 0)
(-0.030301216 0.014754062 0)
(-0.031869006 0.014341387 0)
(-0.033377669 0.013904472 0)
(-0.034811983 0.013467588 0)
(-0.036158084 0.01306441 0)
(-0.037401587 0.012740164 0)
(-0.038536756 0.012555841 0)
(-0.03957384 0.01259137 0)
(-0.040540463 0.012945752 0)
(-0.041494488 0.013737368 0)
(-0.042533607 0.015095777 0)
(-0.043803546 0.017152658 0)
(-0.045504461 0.020022502 0)
(-0.047885295 0.023776562 0)
(-0.051238875 0.02843206 0)
(-0.055897336 0.033930049 0)
(-0.062216553 0.040120851 0)
(-0.07055709 0.046773216 0)
(-0.081312586 0.053602684 0)
(-0.094996536 0.060273738 0)
(-0.11210853 0.066163869 0)
(-0.13300798 0.070558585 0)
(-0.16208068 0.075118339 0)
(-0.21434966 0.08050438 0)
(-0.28271609 0.056667382 0)
(-0.27833065 -0.068056307 0)
(-0.12668575 -0.28697449 0)
(0.011386117 -0.42380175 0)
(0.13091702 -0.52339258 0)
(0.27948565 -0.66224329 0)
(0.45301867 -0.73776755 0)
(0.63977504 -0.71309055 0)
(0.81240559 -0.60302 0)
(0.96221152 -0.45117236 0)
(1.0841558 -0.30898818 0)
(1.1885257 -0.20509993 0)
(1.2620442 -0.045367071 0)
(1.2440741 0.14554497 0)
(1.132988 0.34569916 0)
(0.94038006 0.47333034 0)
(0.68570947 0.42270061 0)
(0.47312915 0.29966482 0)
(0.36363237 0.23923498 0)
(0.31575913 0.23736629 0)
(0.27776485 0.24319681 0)
(0.23572952 0.23721799 0)
(0.19494849 0.22392019 0)
(0.15948432 0.20862206 0)
(0.12929582 0.19294157 0)
(0.10342954 0.1773414 0)
(0.081200612 0.16216114 0)
(0.062065838 0.14763723 0)
(0.045538097 0.13388902 0)
(0.031204141 0.12096324 0)
(0.018730259 0.10887077 0)
(0.0078533336 0.097590519 0)
(-0.0016281012 0.087097364 0)
(-0.0098672897 0.077349526 0)
(-0.016985654 0.068282693 0)
(-0.023065153 0.059847502 0)
(-0.028169738 0.051995833 0)
(-0.032390435 0.044685189 0)
(-0.035748162 0.037844815 0)
(-0.038276465 0.031458191 0)
(-0.040037359 0.025463171 0)
(-0.041047033 0.019845517 0)
(-0.041355769 0.01458489 0)
(-0.041000337 0.0096591997 0)
(-0.040009581 0.005067063 0)
(-0.038423853 0.00080402798 0)
(-0.036289849 -0.0031352459 0)
(-0.033642698 -0.0067271142 0)
(-0.030534811 -0.0099618006 0)
(-0.02703013 -0.012834253 0)
(-0.022941587 -0.015307202 0)
(-0.019008068 -0.017483402 0)
(-0.014241586 -0.019022986 0)
(-0.0078435433 -0.020695897 0)
(-0.00076703326 0.013835274 0)
(-0.0027922176 0.013953599 0)
(-0.0022714 0.014145817 0)
(-0.0038392748 0.014351312 0)
(-0.0045927252 0.01461149 0)
(-0.0056025277 0.014901149 0)
(-0.0066444595 0.015215903 0)
(-0.0077399012 0.015544831 0)
(-0.0089004575 0.015879689 0)
(-0.010126833 0.016211582 0)
(-0.011418682 0.016530769 0)
(-0.012776965 0.01682666 0)
(-0.014201185 0.017090979 0)
(-0.015686959 0.017315584 0)
(-0.017231301 0.017489007 0)
(-0.018829104 0.017604013 0)
(-0.020472563 0.01765379 0)
(-0.022152265 0.017630887 0)
(-0.023857691 0.01752996 0)
(-0.025576998 0.017348816 0)
(-0.027295392 0.017086791 0)
(-0.028995705 0.016746827 0)
(-0.030658488 0.016336202 0)
(-0.032264859 0.01586581 0)
(-0.033792818 0.015351345 0)
(-0.03521517 0.014817295 0)
(-0.036504947 0.014298436 0)
(-0.037633523 0.013842075 0)
(-0.038576138 0.013515642 0)
(-0.039321228 0.013413521 0)
(-0.039873922 0.013658329 0)
(-0.040273018 0.01440305 0)
(-0.040606264 0.015824753 0)
(-0.041020628 0.018113517 0)
(-0.041739098 0.021454639 0)
(-0.043061349 0.025987529 0)
(-0.04535778 0.031781676 0)
(-0.049055299 0.038820211 0)
(-0.054601992 0.04697423 0)
(-0.062430422 0.056012087 0)
(-0.072980459 0.065697037 0)
(-0.086776742 0.0757501 0)
(-0.10392542 0.085636103 0)
(-0.12465875 0.097256621 0)
(-0.16037304 0.12035422 0)
(-0.23499027 0.14724112 0)
(-0.30285221 0.084546445 0)
(-0.21421589 -0.18731048 0)
(-0.0038701691 -0.49540436 0)
(0.076191059 -0.53783791 0)
(0.18270073 -0.65046422 0)
(0.31367511 -0.81115681 0)
(0.48842774 -0.91688633 0)
(0.67634314 -0.89582541 0)
(0.86335113 -0.78394742 0)
(1.0445848 -0.62228535 0)
(1.2097144 -0.45114969 0)
(1.324665 -0.29499704 0)
(1.3708835 -0.062586971 0)
(1.3560003 0.20807938 0)
(1.2842565 0.45459503 0)
(1.1563259 0.66767541 0)
(0.94358559 0.6804482 0)
(0.66912498 0.52055521 0)
(0.43811984 0.36805544 0)
(0.31817319 0.29724574 0)
(0.26398811 0.28477349 0)
(0.22072856 0.27884474 0)
(0.17860982 0.26315507 0)
(0.14187188 0.24236465 0)
(0.11150682 0.22141961 0)
(0.086201149 0.20157286 0)
(0.064823397 0.18289478 0)
(0.046654266 0.16544529 0)
(0.031127406 0.14925119 0)
(0.017781836 0.13427003 0)
(0.0062510824 0.12044216 0)
(-0.0037409426 0.10765868 0)
(-0.012393738 0.095845443 0)
(-0.019874013 0.084906051 0)
(-0.026298945 0.074760235 0)
(-0.03174566 0.065327171 0)
(-0.036269429 0.056534759 0)
(-0.039956053 0.048317793 0)
(-0.042823467 0.040642609 0)
(-0.044908238 0.033438268 0)
(-0.046259894 0.026678547 0)
(-0.04687361 0.020332616 0)
(-0.046808207 0.014377576 0)
(-0.046088789 0.0088007476 0)
(-0.044739743 0.0035923762 0)
(-0.042801637 -0.0012469086 0)
(-0.040307715 -0.0057199758 0)
(-0.037293953 -0.0098173884 0)
(-0.033806175 -0.013515239 0)
(-0.029881178 -0.016808425 0)
(-0.02544536 -0.019648176 0)
(-0.021009172 -0.022171441 0)
(-0.015911623 -0.023945381 0)
(-0.008875395 -0.025942061 0)
(-0.00066022285 0.014594234 0)
(-0.002635847 0.014742169 0)
(-0.0020475962 0.014970442 0)
(-0.0035823677 0.015217143 0)
(-0.0042905077 0.01552969 0)
(-0.0052693379 0.015874349 0)
(-0.006288416 0.016249644 0)
(-0.0073698758 0.016644154 0)
(-0.0085255046 0.017048118 0)
(-0.0097566187 0.017450358 0)
(-0.011062735 0.017839571 0)
(-0.012445001 0.018206222 0)
(-0.013902285 0.018540258 0)
(-0.015431495 0.018830782 0)
(-0.017028033 0.019065454 0)
(-0.0186853 0.019235514 0)
(-0.02039681 0.019331782 0)
(-0.022151687 0.019345452 0)
(-0.023936791 0.019269368 0)
(-0.025738179 0.019099444 0)
(-0.027538042 0.018832361 0)
(-0.029316566 0.018468612 0)
(-0.031051773 0.018012529 0)
(-0.032719121 0.017471427 0)
(-0.034288384 0.016858886 0)
(-0.03572377 0.016196893 0)
(-0.036986226 0.015514576 0)
(-0.038026678 0.014855118 0)
(-0.038791908 0.014288802 0)
(-0.03923803 0.013923874 0)
(-0.039334445 0.013909435 0)
(-0.039085525 0.014439886 0)
(-0.038556758 0.015754887 0)
(-0.037890869 0.018125096 0)
(-0.037335814 0.021822969 0)
(-0.037248672 0.027074886 0)
(-0.038078858 0.034033353 0)
(-0.040363663 0.042742119 0)
(-0.044691355 0.053090496 0)
(-0.051580212 0.064805315 0)
(-0.061372038 0.077526754 0)
(-0.074177207 0.090740213 0)
(-0.089309409 0.1048292 0)
(-0.10788029 0.12780119 0)
(-0.14571823 0.17274965 0)
(-0.21430138 0.19673636 0)
(-0.22039631 0.048235257 0)
(0.017377561 -0.39040396 0)
(0.136468 -0.57550704 0)
(0.13376604 -0.59428744 0)
(0.19366454 -0.74306695 0)
(0.32091364 -0.97916206 0)
(0.51897936 -1.1211444 0)
(0.72698932 -1.0981583 0)
(0.91345499 -0.97961781 0)
(1.0604903 -0.79083171 0)
(1.1711164 -0.59134356 0)
(1.266563 -0.37938405 0)
(1.3368708 -0.088359844 0)
(1.3453724 0.24453373 0)
(1.2779802 0.54161465 0)
(1.1775072 0.79853921 0)
(1.0256661 0.90341192 0)
(0.77675726 0.77769101 0)
(0.51405266 0.57770351 0)
(0.33809235 0.41607199 0)
(0.24962521 0.34540651 0)
(0.19778461 0.32288858 0)
(0.15512126 0.30259889 0)
(0.11842458 0.27598019 0)
(0.088822132 0.24904631 0)
(0.064903725 0.22445622 0)
(0.04509694 0.2020961 0)
(0.028490332 0.18169433 0)
(0.014438002 0.16310191 0)
(0.0024555455 0.14614705 0)
(-0.0078463536 0.13067078 0)
(-0.016741607 0.11648254 0)
(-0.024404736 0.10344442 0)
(-0.030989817 0.091406235 0)
(-0.036609842 0.080285618 0)
(-0.041340293 0.069936065 0)
(-0.045228692 0.060300909 0)
(-0.048328485 0.051269703 0)
(-0.050665541 0.042825295 0)
(-0.052271353 0.034875236 0)
(-0.053163935 0.027408745 0)
(-0.053359253 0.02038286 0)
(-0.052893662 0.013771226 0)
(-0.051783363 0.0075655983 0)
(-0.050049062 0.0017504399 0)
(-0.047724534 -0.0036637457 0)
(-0.044845392 -0.008677346 0)
(-0.041423644 -0.013279146 0)
(-0.037509861 -0.017445751 0)
(-0.033136165 -0.021164811 0)
(-0.028303961 -0.024406104 0)
(-0.023294902 -0.027256342 0)
(-0.017845868 -0.029299577 0)
(-0.010096709 -0.031610158 0)
(-0.00053178654 0.015303978 0)
(-0.0024478757 0.015492824 0)
(-0.0017802325 0.015767635 0)
(-0.0032734761 0.016063775 0)
(-0.0039301294 0.016435057 0)
(-0.0048735853 0.016843774 0)
(-0.0058641536 0.017288433 0)
(-0.0069275623 0.017757536 0)
(-0.0080754217 0.018238361 0)
(-0.0093102737 0.018720261 0)
(-0.010630128 0.019189984 0)
(-0.012036085 0.019636831 0)
(-0.013528138 0.020048938 0)
(-0.015103635 0.020413836 0)
(-0.016757803 0.020718961 0)
(-0.018483234 0.020951896 0)
(-0.020271982 0.021101022 0)
(-0.02211224 0.021156616 0)
(-0.023989133 0.021108954 0)
(-0.025887539 0.020951258 0)
(-0.027788185 0.020677569 0)
(-0.02966735 0.020285847 0)
(-0.031499686 0.019777021 0)
(-0.03325684 0.019153566 0)
(-0.034901614 0.018422647 0)
(-0.036389969 0.017598021 0)
(-0.0376705 0.016699688 0)
(-0.038671009 0.015761168 0)
(-0.039301983 0.014846998 0)
(-0.03947401 0.014071234 0)
(-0.039105374 0.013605868 0)
(-0.038144932 0.013687004 0)
(-0.036610384 0.014627267 0)
(-0.034623307 0.016804031 0)
(-0.032448627 0.020615545 0)
(-0.030494981 0.02641832 0)
(-0.029314042 0.034515901 0)
(-0.029616244 0.045037857 0)
(-0.032213694 0.057874721 0)
(-0.037762575 0.072564178 0)
(-0.046334401 0.088192831 0)
(-0.057280455 0.10388548 0)
(-0.069752448 0.12249497 0)
(-0.086632857 0.15756753 0)
(-0.11787702 0.20940175 0)
(-0.14225121 0.19018566 0)
(-0.044389357 -0.060237623 0)
(0.19776749 -0.54373029 0)
(0.18248743 -0.57872404 0)
(0.17052283 -0.62076858 0)
(0.23132698 -0.83700072 0)
(0.35320817 -1.1556484 0)
(0.54466253 -1.3295986 0)
(0.72533018 -1.2865395 0)
(0.86535259 -1.1298652 0)
(0.96041931 -0.87677886 0)
(1.0176184 -0.65882201 0)
(1.0833274 -0.45155576 0)
(1.1549086 -0.13266906 0)
(1.1904754 0.2659837 0)
(1.1302427 0.63202813 0)
(1.0045786 0.92050104 0)
(0.8645667 1.0844341 0)
(0.67573227 0.99943476 0)
(0.47183244 0.77652086 0)
(0.3215359 0.5596141 0)
(0.22303433 0.42792833 0)
(0.16368887 0.37346923 0)
(0.12196481 0.34182103 0)
(0.087741231 0.30808803 0)
(0.06072036 0.27484509 0)
(0.039418694 0.24531183 0)
(0.022084592 0.21926789 0)
(0.0077220264 0.19604568 0)
(-0.0043453694 0.17525263 0)
(-0.014593692 0.15650126 0)
(-0.023388288 0.13954875 0)
(-0.030973235 0.12412607 0)
(-0.037490983 0.11001401 0)
(-0.04305609 0.097028796 0)
(-0.047793995 0.085015144 0)
(-0.051752839 0.073867511 0)
(-0.054954763 0.063459994 0)
(-0.057443885 0.053696731 0)
(-0.059225501 0.044529434 0)
(-0.060328055 0.035889596 0)
(-0.06074742 0.027741966 0)
(-0.060503342 0.02005127 0)
(-0.059618432 0.01279508 0)
(-0.058099163 0.0059585827 0)
(-0.055956158 -0.00046275844 0)
(-0.053214898 -0.0064608709 0)
(-0.049907187 -0.012026317 0)
(-0.046049071 -0.017142537 0)
(-0.041677386 -0.021798217 0)
(-0.036820247 -0.025963181 0)
(-0.031537121 -0.029626497 0)
(-0.025895737 -0.032787763 0)
(-0.020063327 -0.035196042 0)
(-0.011528641 -0.037787639 0)
(-0.00037111647 0.015909517 0)
(-0.0022125641 0.016165102 0)
(-0.0014580053 0.016500559 0)
(-0.0029059737 0.016857404 0)
(-0.0035028057 0.017293007 0)
(-0.0044041755 0.017777412 0)
(-0.005361275 0.018301887 0)
(-0.0064039858 0.018855125 0)
(-0.0075413457 0.019422605 0)
(-0.0087764108 0.01999407 0)
(-0.010109173 0.020556041 0)
(-0.011540524 0.021093889 0)
(-0.013070269 0.02159526 0)
(-0.014695509 0.022045877 0)
(-0.016412111 0.022431977 0)
(-0.018213119 0.02273871 0)
(-0.020089308 0.022951434 0)
(-0.022027683 0.023057969 0)
(-0.02401207 0.023045738 0)
(-0.026025768 0.022904183 0)
(-0.028046915 0.022626239 0)
(-0.030049187 0.022207569 0)
(-0.032006302 0.021644123 0)
(-0.033887821 0.020932628 0)
(-0.035652068 0.020073294 0)
(-0.037248436 0.019066602 0)
(-0.038614463 0.017915153 0)
(-0.039654793 0.016632854 0)
(-0.040236703 0.015263672 0)
(-0.040209257 0.013910953 0)
(-0.039417912 0.012761858 0)
(-0.037726087 0.01209237 0)
(-0.035065526 0.012306771 0)
(-0.031505612 0.01391982 0)
(-0.027316483 0.017527049 0)
(-0.022934975 0.023606615 0)
(-0.019031992 0.032711833 0)
(-0.016589101 0.045127076 0)
(-0.016810333 0.060800813 0)
(-0.020682322 0.078850219 0)
(-0.027937668 0.09723365 0)
(-0.037543488 0.11533281 0)
(-0.050473741 0.13974763 0)
(-0.070752019 0.18345778 0)
(-0.095093363 0.22076009 0)
(-0.084158953 0.13177111 0)
(0.080665659 -0.25182734 0)
(0.21300517 -0.58506787 0)
(0.21777402 -0.57869974 0)
(0.23394334 -0.65685971 0)
(0.27395926 -0.9070763 0)
(0.36848363 -1.3050945 0)
(0.52339672 -1.5039127 0)
(0.64260788 -1.4084291 0)
(0.71433658 -1.218158 0)
(0.79842947 -0.92949609 0)
(0.86852811 -0.72837836 0)
(0.92710787 -0.52934656 0)
(0.95765193 -0.17178589 0)
(0.95055185 0.29401151 0)
(0.87753959 0.72837755 0)
(0.74982133 1.0505636 0)
(0.63652897 1.2233551 0)
(0.50230669 1.1679887 0)
(0.35483675 0.91340065 0)
(0.25525643 0.6812929 0)
(0.16988865 0.51178736 0)
(0.11402233 0.42600858 0)
(0.077670164 0.37871909 0)
(0.049027009 0.33650716 0)
(0.026948243 0.2972603 0)
(0.0097968776 0.26313524 0)
(-0.004026345 0.23376863 0)
(-0.015402737 0.20807531 0)
(-0.02499397 0.18536734 0)
(-0.033169832 0.16512202 0)
(-0.040181658 0.14697953 0)
(-0.046266109 0.13052221 0)
(-0.051500636 0.11551605 0)
(-0.055989284 0.10172803 0)
(-0.05977749 0.088950082 0)
(-0.062903032 0.07708818 0)
(-0.065407083 0.065984489 0)
(-0.067263126 0.055555169 0)
(-0.068476332 0.045720938 0)
(-0.069059953 0.036423309 0)
(-0.068996944 0.027626925 0)
(-0.0683009 0.019283237 0)
(-0.066981162 0.01138693 0)
(-0.065034752 0.0039270532 0)
(-0.06245976 -0.0030995346 0)
(-0.059278532 -0.0096914754 0)
(-0.055514907 -0.015826014 0)
(-0.051184088 -0.02148415 0)
(-0.046316465 -0.026644082 0)
(-0.040947241 -0.031284619 0)
(-0.035123898 -0.035379981 0)
(-0.028859655 -0.038855911 0)
(-0.022591337 -0.041709757 0)
(-0.013144895 -0.044534174 0)
(-0.00015999198 0.016387953 0)
(-0.0019073943 0.016752099 0)
(-0.0010666271 0.017160797 0)
(-0.002470838 0.017586194 0)
(-0.0029995419 0.018096956 0)
(-0.0038499689 0.0186675 0)
(-0.0047702161 0.019282456 0)
(-0.0057880855 0.019930853 0)
(-0.0069119051 0.02059845 0)
(-0.0081444446 0.021271151 0)
(-0.0094889112 0.021936556 0)
(-0.010945554 0.022578584 0)
(-0.01251436 0.023183483 0)
(-0.014193396 0.023734206 0)
(-0.015978062 0.024214412 0)
(-0.017862537 0.024607605 0)
(-0.019837091 0.024896782 0)
(-0.021887438 0.02506551 0)
(-0.023996789 0.025098049 0)
(-0.026145427 0.024981781 0)
(-0.028308472 0.024707414 0)
(-0.030459333 0.024266173 0)
(-0.032571886 0.023650748 0)
(-0.03461414 0.022855215 0)
(-0.036545367 0.021869273 0)
(-0.038316596 0.02067546 0)
(-0.039858639 0.019251447 0)
(-0.041055943 0.017573287 0)
(-0.041731092 0.015640455 0)
(-0.041653428 0.013522512 0)
(-0.040566896 0.011390248 0)
(-0.038201 0.0095707329 0)
(-0.034339027 0.0086258835 0)
(-0.028924917 0.0091857855 0)
(-0.022271402 0.011981985 0)
(-0.014823429 0.017676654 0)
(-0.0073124233 0.027491877 0)
(-0.0010491164 0.042111065 0)
(0.0021216868 0.061402075 0)
(0.00029031356 0.083722442 0)
(-0.0061476339 0.10546929 0)
(-0.016956382 0.12785183 0)
(-0.037018972 0.16159858 0)
(-0.066331869 0.2083361 0)
(-0.079358506 0.20753122 0)
(-0.019347673 0.031640159 0)
(0.12559085 -0.39572388 0)
(0.21883438 -0.66155858 0)
(0.30105538 -0.59210486 0)
(0.27736308 -0.66515846 0)
(0.27324592 -0.9343527 0)
(0.34470892 -1.4218223 0)
(0.43259773 -1.6384399 0)
(0.50800091 -1.4679448 0)
(0.55326796 -1.298794 0)
(0.65326916 -1.0136822 0)
(0.70769088 -0.81863833 0)
(0.70648259 -0.56490111 0)
(0.6618934 -0.14263764 0)
(0.60071798 0.36730839 0)
(0.5150673 0.83040817 0)
(0.41705511 1.1560651 0)
(0.34121795 1.3212835 0)
(0.26392155 1.2693378 0)
(0.1983042 0.99333713 0)
(0.14520644 0.76508914 0)
(0.084941954 0.57847556 0)
(0.047641248 0.47006401 0)
(0.022284346 0.4084093 0)
(0.0027801926 0.35848546 0)
(-0.011844073 0.31412636 0)
(-0.023403444 0.27644054 0)
(-0.032722459 0.24462428 0)
(-0.040505642 0.21710595 0)
(-0.047158757 0.1930049 0)
(-0.052892479 0.17170193 0)
(-0.057947349 0.15268971 0)
(-0.06242237 0.1354662 0)
(-0.066276551 0.11979796 0)
(-0.069622421 0.10536202 0)
(-0.07244072 0.091998738 0)
(-0.074730152 0.079521737 0)
(-0.076499864 0.067827266 0)
(-0.077717135 0.056797369 0)
(-0.078364578 0.046362993 0)
(-0.078424467 0.036449702 0)
(-0.077884777 0.027029464 0)
(-0.076741108 0.018060917 0)
(-0.074970617 0.0095386592 0)
(-0.072579628 0.0014579641 0)
(-0.069565305 -0.0061826766 0)
(-0.065929183 -0.013381788 0)
(-0.061684123 -0.020101498 0)
(-0.056852109 -0.02632331 0)
(-0.05145866 -0.032017282 0)
(-0.045534432 -0.037160389 0)
(-0.039091706 -0.041706873 0)
(-0.032221462 -0.045557615 0)
(-0.025421382 -0.048853065 0)
(-0.01495 -0.051921406 0)
(0.00012772629 0.016764548 0)
(-0.0015026655 0.017271945 0)
(-0.00060089583 0.017753711 0)
(-0.0019597024 0.018245058 0)
(-0.0024090134 0.018847303 0)
(-0.0032023043 0.019513198 0)
(-0.0040800277 0.020230318 0)
(-0.005066532 0.02098584 0)
(-0.006173674 0.021765813 0)
(-0.0074026449 0.022552833 0)
(-0.0087563568 0.023335116 0)
(-0.010236985 0.024095784 0)
(-0.0118462 0.024818271 0)
(-0.013583161 0.025484234 0)
(-0.015442542 0.026074665 0)
(-0.017418508 0.026570123 0)
(-0.019502375 0.026950308 0)
(-0.021679819 0.027194577 0)
(-0.023931378 0.027284478 0)
(-0.026234336 0.02720484 0)
(-0.028563141 0.026942745 0)
(-0.030889819 0.026487239 0)
(-0.033185914 0.025830296 0)
(-0.035424386 0.024964185 0)
(-0.037574783 0.023868682 0)
(-0.039595967 0.022507508 0)
(-0.041426901 0.020826614 0)
(-0.042947843 0.018745414 0)
(-0.043936526 0.016179062 0)
(-0.044076289 0.013092717 0)
(-0.042953273 0.0096663792 0)
(-0.040033433 0.0062335001 0)