/*--------------------------------*- C++ -*----------------------------------*\
  =========                 |
  \\      /  F ield         | OpenFOAM: The Open Source CFD Toolbox
   \\    /   O peration     | Website:  https://openfoam.org
    \\  /    A nd           | Version:  9
     \\/     M anipulation  |
\*---------------------------------------------------------------------------*/
FoamFile
{
    format      ascii;
    class       volScalarField;
    location    "7";
    object      p;
}
// * * * * * * * * * * * * * * * * * * * * * * * * * * * * * * * * * * * * * //

dimensions      [0 2 -2 0 0 0 0];

internalField   nonuniform List<scalar> 
1000
(
1.6754238
1.5543459
1.4583655
1.3947094
1.3461998
1.3037278
1.2661926
1.2340208
1.2066204
1.1827829
1.1613886
1.1416247
1.1229476
1.105008
1.0875927
1.0705785
1.0538976
1.0375135
1.0214053
1.0055594
0.98996438
0.97460928
0.95948258
0.94457235
0.92986635
0.91535236
0.90101839
0.88685288
0.87284482
0.85898381
0.84526009
0.83166453
0.81818863
0.80482446
0.79156464
0.77840229
0.765331
0.75234482
0.73943817
0.72660588
0.71384311
0.70114536
0.68850842
0.67592838
0.66340156
0.65092457
0.63849422
0.62610755
0.61376179
0.6014544
0.58918297
0.57694532
0.56473939
0.55256328
0.54041523
0.5282936
0.51619685
0.50412355
0.49207234
0.48004193
0.46803111
0.45603871
0.44406359
0.43210467
0.42016089
0.40823122
0.39631465
0.38441017
0.37251684
0.36063369
0.34875983
0.33689437
0.32503649
0.31318537
0.30134028
0.28950048
0.27766532
0.26583416
0.25400644
0.24218165
0.23035935
0.21853915
0.20672073
0.1949038
0.1830881
0.17127341
0.15945951
0.14764622
0.13583339
0.1240209
0.11220869
0.10039672
0.088584963
0.076773388
0.064961955
0.053150618
0.041339332
0.029528071
0.017716815
0.0059055834
1.5582041
1.5032751
1.4423226
1.3907549
1.3474848
1.3085165
1.2729303
1.2411576
1.2131967
1.1884189
1.166017
1.1453156
1.125834
1.107246
1.0893324
1.0719476
1.0549958
1.0384144
1.0221617
1.0062082
0.99053119
0.97511166
0.95993281
0.94497915
0.93023611
0.91568989
0.90132748
0.88713661
0.87310577
0.85922418
0.8454818
0.83186929
0.81837793
0.80499964
0.7917269
0.7785527
0.76547054
0.75247436
0.7395585
0.72671772
0.7139471
0.70124208
0.68859841
0.67601212
0.6634795
0.65099711
0.63856172
0.62617034
0.61382018
0.60150865
0.58923335
0.57699203
0.56478263
0.55260325
0.54045209
0.5283275
0.51622795
0.50415198
0.49209823
0.48006541
0.46805231
0.45605776
0.44408061
0.4321198
0.42017426
0.40824295
0.39632487
0.38441902
0.37252443
0.36064017
0.34876531
0.33689896
0.3250403
0.31318851
0.30134283
0.28950254
0.27766697
0.26583547
0.25400747
0.24218245
0.23035997
0.21853961
0.20672107
0.19490404
0.18308827
0.17127353
0.15945959
0.14764628
0.13583343
0.12402094
0.11220872
0.10039674
0.088584966
0.076773379
0.06496194
0.053150603
0.041339319
0.02952806
0.0177168
0.0059055685
1.4973829
1.4712078
1.432811
1.3916781
1.3525928
1.316002
1.2817043
1.2499868
1.2211307
1.1950296
1.1712756
1.1493856
1.1289358
1.1095949
1.0911147
1.0733137
1.0560618
1.0392663
1.0228602
1.0067951
0.9910347
0.97555101
0.96032114
0.94532565
0.93054739
0.9159709
0.90158208
0.8873679
0.87331635
0.85941628
0.84565735
0.83202996
0.81852522
0.80513486
0.79185121
0.77866714
0.76557602
0.75257169
0.73964841
0.72680086
0.71402405
0.70131336
0.68866448
0.6760734
0.66353637
0.65104991
0.63861076
0.6262159
0.61386252
0.60154799
0.58926989
0.57702597
0.56481414
0.55263247
0.54047915
0.52835254
0.51625106
0.50417327
0.4921178
0.48008336
0.46806871
0.45607268
0.44409415
0.43213201
0.42018523
0.40825276
0.39633359
0.38442672
0.3725312
0.36064607
0.34877042
0.33690337
0.32504406
0.31319169
0.30134551
0.28950477
0.27766881
0.26583699
0.25400871
0.24218346
0.23036078
0.21854026
0.20672157
0.19490442
0.18308855
0.17127374
0.15945975
0.1476464
0.13583354
0.12402103
0.11220879
0.10039679
0.088584995
0.076773387
0.064961931
0.053150586
0.041339299
0.029528039
0.017716774
0.0059055485
1.4679744
1.4524763
1.4256064
1.3916825
1.3558815
1.3209302
1.2876282
1.2562752
1.2271445
1.200353
1.1757655
1.1530733
1.1319215
1.1119927
1.0930345
1.0748548
1.057309
1.040288
1.0237094
1.0075114
0.99164744
0.97608169
0.96078573
0.94573606
0.93091263
0.9162979
0.90187627
0.88763363
0.87355718
0.85963516
0.84585678
0.83221207
0.81869184
0.80528759
0.79199143
0.77879608
0.76569475
0.75268117
0.73974948
0.72689425
0.71411044
0.70139335
0.68873861
0.67614215
0.66360019
0.65110919
0.63866586
0.62626716
0.61391024
0.60159245
0.58931134
0.57706464
0.56485023
0.55266617
0.54051064
0.52838195
0.51627854
0.50419894
0.49214176
0.4801057
0.46808951
0.45609202
0.44411209
0.43214862
0.42020054
0.40826683
0.39634647
0.38443847
0.37254186
0.3606557
0.34877906
0.33691107
0.32505089
0.31319771
0.30135077
0.28950935
0.27767276
0.26584037
0.2540116
0.24218591
0.23036283
0.21854197
0.20672298
0.19490557
0.18308947
0.17127447
0.15946033
0.14764687
0.13583391
0.12402133
0.11220904
0.10039698
0.088585132
0.076773479
0.064961986
0.053150615
0.041339311
0.029528038
0.017716764
0.0059055412
1.4552428
1.4432895
1.4210551
1.3907675
1.3569064
1.3229108
1.2902132
1.2592076
1.2301103
1.2030984
1.1781714
1.1551218
1.1336403
1.1134226
1.094219
1.0758368
1.0581279
1.0409774
1.0242966
1.0080175
0.99208847
0.97646992
0.9611304
0.94604425
0.93118979
0.91654831
0.90210334
0.88784015
0.87374545
0.85980715
0.84601418
0.83235634
0.81882426
0.80540929
0.79210343
0.77889926
0.76578991
0.75276901
0.73983065
0.72696933
0.71417994
0.70145774
0.68879831
0.67619754
0.66365162
0.65115698
0.63871031
0.62630853
0.61394878
0.60162839
0.58934489
0.57709598
0.56487954
0.5526936
0.54053633
0.52840604
0.51630113
0.50422013
0.49216164
0.48012435
0.46810699
0.45610838
0.44412738
0.43216288
0.42021381
0.40827913
0.39635784
0.38444893
0.37255144
0.36066442
0.34878697
0.33691819
0.32505727
0.31320338
0.30135578
0.28951374
0.27767659
0.26584369
0.25401445
0.24218834
0.23036489
0.21854369
0.20672441
0.19490674
0.18309043
0.17127525
0.15946096
0.14764738
0.13583432
0.12402166
0.11220929
0.10039718
0.088585279
0.076773584
0.064962056
0.05315066
0.041339337
0.029528052
0.017716768
0.0059055436
1.4552428
1.4432895
1.4210551
1.3907675
1.3569064
1.3229108
1.2902132
1.2592076
1.2301103
1.2030984
1.1781714
1.1551218
1.1336403
1.1134226
1.094219
1.0758368
1.0581279
1.0409774
1.0242966
1.0080175
0.99208847
0.97646992
0.9611304
0.94604425
0.93118979
0.91654832
0.90210334
0.88784015
0.87374545
0.85980716
0.84601418
0.83235634
0.81882426
0.80540929
0.79210343
0.77889926
0.76578991
0.75276901
0.73983065
0.72696933
0.71417995
0.70145774
0.68879831
0.67619754
0.66365162
0.65115698
0.63871031
0.62630854
0.61394878
0.60162839
0.58934489
0.57709598
0.56487954
0.5526936
0.54053634
0.52840604
0.51630114
0.50422014
0.49216165
0.48012435
0.46810699
0.45610838
0.44412738
0.43216287
0.4202138
0.40827913
0.39635783
0.38444893
0.37255143
0.36066442
0.34878696
0.33691819
0.32505726
0.31320337
0.30135577
0.28951374
0.27767659
0.26584369
0.25401445
0.24218834
0.23036489
0.21854369
0.2067244
0.19490674
0.18309043
0.17127524
0.15946096
0.14764738
0.13583432
0.12402166
0.11220929
0.10039718
0.088585278
0.076773581
0.064962053
0.053150658
0.041339336
0.029528052
0.017716767
0.0059055423
1.4679744
1.4524763
1.4256064
1.3916825
1.3558815
1.3209302
1.2876282
1.2562752
1.2271445
1.200353
1.1757655
1.1530733
1.1319215
1.1119927
1.0930345
1.0748548
1.057309
1.040288
1.0237094
1.0075114
0.99164743
0.97608169
0.96078573
0.94573606
0.93091263
0.9162979
0.90187627
0.88763364
0.87355718
0.85963516
0.84585677
0.83221206
0.81869183
0.80528758
0.79199143
0.77879608
0.76569475
0.75268117
0.73974948
0.72689426
0.71411045
0.70139336
0.68873862
0.67614216
0.66360019
0.65110919
0.63866586
0.62626717
0.61391024
0.60159246
0.58931135
0.57706465
0.56485025
0.55266618
0.54051065
0.52838196
0.51627855
0.50419895
0.49214176
0.4801057
0.46808951
0.45609201
0.44411208
0.43214861
0.42020054
0.40826683
0.39634647
0.38443847
0.37254186
0.36065569
0.34877905
0.33691105
0.32505087
0.31319769
0.30135075
0.28950934
0.27767276
0.26584038
0.2540116
0.24218591
0.23036283
0.21854196
0.20672296
0.19490555
0.18308946
0.17127447
0.15946034
0.14764689
0.13583393
0.12402134
0.11220904
0.10039698
0.088585127
0.07677347
0.064961977
0.053150609
0.041339308
0.029528038
0.017716764
0.005905539
1.4973829
1.4712078
1.432811
1.3916781
1.3525928
1.316002
1.2817043
1.2499868
1.2211307
1.1950296
1.1712756
1.1493856
1.1289358
1.1095949
1.0911147
1.0733137
1.0560619
1.0392663
1.0228602
1.0067951
0.99103469
0.975551
0.96032114
0.94532565
0.93054739
0.91597091
0.90158208
0.88736791
0.87331636
0.85941628
0.84565735
0.83202996
0.81852521
0.80513485
0.7918512
0.77866713
0.76557602
0.75257169
0.73964842
0.72680087
0.71402406
0.70131337
0.68866449
0.6760734
0.66353637
0.65104991
0.63861076
0.62621591
0.61386253
0.601548
0.58926991
0.57702599
0.56481416
0.55263249
0.54047918
0.52835256
0.51625108
0.50417328
0.49211781
0.48008336
0.4680687
0.45607267
0.44409413
0.432132
0.42018522
0.40825275
0.39633358
0.38442672
0.3725312
0.36064606
0.3487704
0.33690334
0.32504402
0.31319166
0.30134548
0.28950476
0.27766881
0.265837
0.25400872
0.24218347
0.23036077
0.21854024
0.20672154
0.19490439
0.18308854
0.17127373
0.15945976
0.14764643
0.13583356
0.12402105
0.1122088
0.10039679
0.088584985
0.076773373
0.064961917
0.053150577
0.041339295
0.029528038
0.017716774
0.0059055473
1.5582041
1.5032751
1.4423226
1.3907549
1.3474848
1.3085165
1.2729303
1.2411576
1.2131967
1.1884189
1.166017
1.1453157
1.125834
1.107246
1.0893324
1.0719476
1.0549958
1.0384144
1.0221617
1.0062082
0.99053118
0.97511165
0.95993281
0.94497915
0.93023611
0.9156899
0.90132749
0.88713662
0.87310577
0.85922418
0.8454818
0.83186928
0.81837792
0.80499963
0.79172689
0.7785527
0.76547054
0.75247437
0.73955852
0.72671773
0.71394711
0.7012421
0.68859842
0.67601213
0.6634795
0.65099711
0.63856172
0.62617035
0.61382019
0.60150867
0.58923337
0.57699205
0.56478266
0.55260327
0.54045211
0.52832752
0.51622796
0.50415198
0.49209823
0.48006541
0.4680523
0.45605774
0.4440806
0.43211979
0.42017425
0.40824295
0.39632487
0.38441902
0.37252443
0.36064015
0.34876528
0.33689893
0.32504026
0.31318847
0.30134281
0.28950254
0.27766697
0.26583548
0.25400748
0.24218245
0.23035995
0.21853959
0.20672103
0.19490401
0.18308826
0.17127353
0.15945961
0.14764631
0.13583346
0.12402096
0.11220873
0.10039673
0.088584955
0.076773367
0.064961927
0.053150593
0.041339314
0.029528058
0.017716799
0.0059055673
1.6754238
1.5543459
1.4583655
1.3947094
1.3461998
1.3037278
1.2661926
1.2340208
1.2066204
1.1827829
1.1613886
1.1416247
1.1229476
1.105008
1.0875927
1.0705785
1.0538976
1.0375135
1.0214053
1.0055593
0.98996437
0.97460927
0.95948258
0.94457235
0.92986635
0.91535236
0.9010184
0.88685289
0.87284483
0.85898381
0.84526009
0.83166453
0.81818862
0.80482445
0.79156463
0.77840228
0.765331
0.75234482
0.73943818
0.7266059
0.71384313
0.70114538
0.68850843
0.67592838
0.66340157
0.65092457
0.63849422
0.62610755
0.6137618
0.60145441
0.58918299
0.57694534
0.56473941
0.5525633
0.54041525
0.52829362
0.51619687
0.50412356
0.49207234
0.48004192
0.4680311
0.45603869
0.44406357
0.43210466
0.42016088
0.40823122
0.39631464
0.38441017
0.37251682
0.36063367
0.3487598
0.33689434
0.32503645
0.31318535
0.30134026
0.28950048
0.27766533
0.26583417
0.25400645
0.24218164
0.23035933
0.21853912
0.2067207
0.19490378
0.1830881
0.17127342
0.15945953
0.14764624
0.1358334
0.12402091
0.11220869
0.10039672
0.088584963
0.076773386
0.064961949
0.053150608
0.041339322
0.029528061
0.017716808
0.0059055805
)
;

boundaryField
{
    top
    {
        type            zeroGradient;
    }
    inlet
    {
        type            zeroGradient;
    }
    outlet
    {
        type            fixedValue;
        value           uniform 0;
    }
    bottom
    {
        type            zeroGradient;
    }
    back
    {
        type            empty;
    }
    front
    {
        type            empty;
    }
}


// ************************************************************************* //
