/*--------------------------------*- C++ -*----------------------------------*\
  =========                 |
  \\      /  F ield         | OpenFOAM: The Open Source CFD Toolbox
   \\    /   O peration     | Website:  https://openfoam.org
    \\  /    A nd           | Version:  9
     \\/     M anipulation  |
\*---------------------------------------------------------------------------*/
FoamFile
{
    format      ascii;
    class       surfaceScalarField;
    location    "7";
    object      phi;
}
// * * * * * * * * * * * * * * * * * * * * * * * * * * * * * * * * * * * * * //

dimensions      [0 3 -1 0 0 0 0];

internalField   nonuniform List<scalar> 
1890
(
0.0093061957
0.00069380425
0.0082843931
0.0010218027
0.0073298986
0.00095449449
0.0064869553
0.00084294334
0.0057695845
0.0007173708
0.00518986
0.00057972444
0.004738168
0.00045169205
0.00439519
0.00034297801
0.0041390268
0.00025616318
0.0039491069
0.00018991983
0.003807888
0.00014121897
0.0037013782
0.0001065098
0.003619058
8.2320219e-05
0.0035534117
6.5646244e-05
0.0034992845
5.4127255e-05
0.0034532444
4.6040051e-05
0.0034130501
4.0194297e-05
0.0033772574
3.5792761e-05
0.0033449386
3.2318763e-05
0.0033154893
2.9449284e-05
0.0032885007
2.6988579e-05
0.0032636804
2.4820304e-05
0.0032408049
2.2875487e-05
0.0032196925
2.1112429e-05
0.0032001878
1.9504673e-05
0.0031821538
1.803404e-05
0.0031654671
1.6686753e-05
0.0031500157
1.5451392e-05
0.0031356978
1.4317891e-05
0.0031224207
1.3277102e-05
0.0031101
1.2320628e-05
0.0030986593
1.1440771e-05
0.0030880287
1.0630506e-05
0.0030781453
9.8834674e-06
0.0030689513
9.1939104e-06
0.0030603947
8.556675e-06
0.0030524275
7.9671361e-06
0.0030450064
7.421151e-06
0.0030380914
6.9150068e-06
0.0030316461
6.4453696e-06
0.0030256368
6.0092364e-06
0.0030200329
5.6038923e-06
0.0030148061
5.2268718e-06
0.0030099301
4.8759242e-06
0.0030053812
4.5489854e-06
0.003001137
4.2441517e-06
0.0029971774
3.9596622e-06
0.0029934836
3.6938769e-06
0.0029900384
3.445271e-06
0.002986826
3.2124179e-06
0.0029838321
2.9939929e-06
0.0029810435
2.7887583e-06
0.002978448
2.595577e-06
0.0029760347
2.4133985e-06
0.0029737936
2.2412793e-06
0.0029717153
2.0783665e-06
0.0029697915
1.9239226e-06
0.0029680143
1.7773036e-06
0.0029663765
1.637984e-06
0.0029648711
1.5055278e-06
0.0029634916
1.3796113e-06
0.0029622317
1.2599855e-06
0.0029610854
1.1464946e-06
0.0029600464
1.0390341e-06
0.0029591089
9.3756431e-07
0.0029582669
8.420667e-07
0.0029575144
7.5255441e-07
0.0029568453
6.6903293e-07
0.0029562538
5.9150794e-07
0.0029557339
5.199534e-07
0.0029552795
4.5431718e-07
0.002954885
3.9450222e-07
0.0029545445
3.4036893e-07
0.0029542527
2.9172954e-07
0.0029540043
2.4835026e-07
0.0029537943
2.0995862e-07
0.002953618
1.7624503e-07
0.0029534711
1.4687912e-07
0.0029533496
1.2150708e-07
0.0029532498
9.9775751e-08
0.0029531684
8.1318591e-08
0.0029531026
6.578555e-08
0.0029530497
5.282115e-08
0.0029530075
4.2098028e-08
0.0029529741
3.3295055e-08
0.002952948
2.6128813e-08
0.0029529277
2.0336033e-08
0.0029529121
1.5695804e-08
0.0029529001
1.2010806e-08
0.0029528911
9.1187927e-09
0.0029528842
6.8757772e-09
0.0029528789
5.1575238e-09
0.002952875
3.8585189e-09
0.0029528721
2.8805478e-09
0.0029528699
2.1635892e-09
0.0029528683
1.6393694e-09
0.002952867
1.303328e-09
0.0029528659
1.1287318e-09
0.0029528648
1.2274856e-09
1.3863159e-09
0.010339525
0.00035427932
0.010570754
0.00079057335
0.010606301
0.00091894821
0.010547572
0.00090167137
0.010422317
0.00084262624
0.010244356
0.00075768559
0.010039421
0.00065662744
0.0098287426
0.00055365586
0.009625135
0.00045977083
0.0094353013
0.00037975354
0.0092624277
0.00031409259
0.0091075332
0.00026140426
0.008970154
0.00021969949
0.0088489023
0.00018689787
0.0087419716
0.00016105803
0.0086474926
0.00014051896
0.008563694
0.00012399298
0.0084890107
0.00011047601
0.0084221096
9.9219879e-05
0.0083618775
8.9681411e-05
0.0083073954
8.1470676e-05
0.0082579078
7.4307859e-05
0.0082127928
6.7990517e-05
0.0081715352
6.237002e-05
0.0081337048
5.7335055e-05
0.0080989386
5.2800233e-05
0.0080669271
4.869832e-05
0.0080374035
4.497501e-05
0.0080101359
4.1585446e-05
0.0079849211
3.8491903e-05
0.0079615795
3.5662216e-05
0.0079399516
3.3068683e-05
0.0079198948
3.0687258e-05
0.0079012813
2.8496951e-05
0.0078839959
2.647935e-05
0.0078679343
2.4618239e-05
0.0078530022
2.2899283e-05
0.0078391136
2.1309764e-05
0.0078261902
1.9838354e-05
0.0078141607
1.8474929e-05
0.0078029595
1.7210396e-05
0.0077925269
1.6036557e-05
0.0077828077
1.4945987e-05
0.0077737517
1.3931926e-05
0.0077653125
1.2988192e-05
0.0077574475
1.2109105e-05
0.0077501178
1.1289424e-05
0.0077432874
1.0524301e-05
0.0077369234
9.8092295e-06
0.0077309959
9.1400311e-06
0.0077254771
8.5128188e-06
0.0077203419
7.9240006e-06
0.0077155672
7.3702575e-06
0.0077111321
6.8485638e-06
0.0077070172
6.3561689e-06
0.007703205
5.8906278e-06
0.0076996792
5.4497778e-06
0.0076964247
5.0317722e-06
0.0076934277
4.6350439e-06
0.0076906749
4.2583328e-06
0.0076881539
3.900633e-06
0.0076858527
3.561208e-06
0.0076837597
3.2395234e-06
0.0076818634
2.935248e-06
0.0076801528
2.6481778e-06
0.0076786166
2.378226e-06
0.0076772437
2.1253501e-06
0.0076760232
1.8895348e-06
0.0076749439
1.670732e-06
0.0076739949
1.4688418e-06
0.0076731655
1.2836752e-06
0.0076724449
1.114937e-06
0.007671823
9.6221452e-07
0.0076712896
8.2496651e-07
0.0076708353
7.0253636e-07
0.007670451
5.941501e-07
0.0076701282
4.9894986e-07
0.0076698591
4.159929e-07
0.0076696363
3.4430224e-07
0.0076694532
2.828559e-07
0.0076693038
2.3064729e-07
0.0076691828
1.8665856e-07
0.0076690856
1.4992602e-07
0.0076690081
1.1950414e-07
0.0076689468
9.4532157e-08
0.0076688987
7.4190515e-08
0.0076688613
5.7770455e-08
0.0076688325
4.4612368e-08
0.0076688104
3.4180359e-08
0.0076687936
2.5969961e-08
0.0076687809
1.9596796e-08
0.0076687713
1.4679879e-08
0.0076687641
1.0951876e-08
0.0076687588
8.1303444e-09
0.0076687549
6.0485069e-09
0.007668752
4.5165901e-09
0.0076687499
3.4672933e-09
0.0076687483
2.781754e-09
0.0076687472
2.4888726e-09
2.2918173e-09
0.010188704
0.00016557515
0.010530487
0.000448791
0.010851453
0.00059798177
0.011124174
0.00062895025
0.011350581
0.00061621887
0.011524486
0.00058378056
0.01164633
0.00053478421
0.011724155
0.0004758305
0.011767999
0.00041592666
0.011786639
0.000361114
0.011787114
0.00031361712
0.011775058
0.00027346026
0.011754861
0.00023989719
0.011729768
0.00021199032
0.011702054
0.00018877262
0.011673239
0.00016933389
0.011644339
0.00015289297
0.011616003
0.00013881184
0.011588629
0.00012659381
0.011562446
0.00011586447
0.011537571
0.00010634496
0.011514052
9.782703e-05
0.011491889
9.0153399e-05
0.011471056
8.3203411e-05
0.011451508
7.6882666e-05
0.011433193
7.111562e-05
0.011416051
6.5840357e-05
0.011400021
6.1004978e-05
0.011385041
5.6565144e-05
0.011371051
5.2482417e-05
0.01135799
4.8723114e-05
0.011345801
4.5257482e-05
0.011334429
4.2059093e-05
0.011323822
3.9104365e-05
0.011313929
3.6372188e-05
0.011304704
3.3843609e-05
0.011296101
3.150157e-05
0.01128808
2.9330676e-05
0.011280602
2.7317006e-05
0.011273629
2.544793e-05
0.011267127
2.3711965e-05
0.011261065
2.2098634e-05
0.011255413
2.0598347e-05
0.011250142
1.9202301e-05
0.011245228
1.7902383e-05
0.011240646
1.6691093e-05
0.011236374
1.5561476e-05
0.011232391
1.4507067e-05
0.011228679
1.352184e-05
0.011225219
1.2600181e-05
0.011221995
1.1736856e-05
0.011218992
1.0926998e-05
0.011216196
1.0166103e-05
0.011213595
9.4500198e-06
0.011211176
8.7749655e-06
0.011208929
8.1375209e-06
0.011206844
7.5346509e-06
0.011204912
6.9636919e-06
0.011203125
6.4223733e-06
0.011201475
5.9087862e-06
0.011199954
5.4213971e-06
0.011198556
4.9589937e-06
0.011197275
4.5206867e-06
0.011196104
4.1058331e-06
0.011195038
3.7140265e-06
0.011194072
3.3450081e-06
0.011193198
2.9986479e-06
0.011192413
2.6748547e-06
0.01119171
2.3735573e-06
0.011191084
2.0946259e-06
0.01119053
1.8378576e-06
0.011190042
1.6029214e-06
0.011189615
1.3893536e-06
0.011189243
1.1965316e-06
0.011188922
1.0236809e-06
0.011188646
8.6987664e-07
0.011188411
7.3406343e-07
0.011188211
6.1507645e-07
0.011188044
5.1166691e-07
0.011187904
4.2253347e-07
0.011187789
3.4634553e-07
0.011187693
2.8177547e-07
0.011187616
2.2751723e-07
0.011187553
1.8231291e-07
0.011187502
1.4497143e-07
0.011187462
1.1438333e-07
0.01118743
8.9541085e-08
0.011187405
6.9534698e-08
0.011187386
5.3569314e-08
0.011187371
4.0941955e-08
0.01118736
3.1056066e-08
0.011187351
2.3388247e-08
0.011187344
1.7507329e-08
0.011187339
1.3038165e-08
0.011187336
9.6875058e-09
0.011187333
7.1993516e-09
0.011187331
5.4277946e-09
0.01118733
4.1503759e-09
0.011187329
3.4605322e-09
2.7618438e-09
0.010097182
6.8393555e-05
0.010346961
0.00019901112
0.010662469
0.00028247387
0.010982753
0.00030866649
0.011290229
0.00030874342
0.011575251
0.00029875789
0.011829022
0.00028101346
0.012047865
0.00025698756
0.012233272
0.00023051982
0.01238924
0.0002051459
0.012520295
0.00018256236
0.012630755
0.00016299958
0.012724428
0.00014622492
0.012804515
0.00013190313
0.012873613
0.00011967427
0.012933772
0.00010917462
0.012986596
0.00010006908
0.013033332
9.2076381e-05
0.01307495
8.4975274e-05
0.013112216
7.8598641e-05
0.013145739
7.2822337e-05
0.013176012
6.7553977e-05
0.013203441
6.2723969e-05
0.013228366
5.8278945e-05
0.013251071
5.4177042e-05
0.013271802
5.0384493e-05
0.01329077
4.6873232e-05
0.013308155
4.3619256e-05
0.013324119
4.0601548e-05
0.0133388
3.780138e-05
0.013352321
3.5201864e-05
0.013364791
3.2787651e-05
0.013376305
3.0544719e-05
0.013386949
2.8460211e-05
0.013396799
2.6522321e-05
0.013405923
2.4720185e-05
0.013414381
2.3043799e-05
0.013422227
2.1483943e-05
0.013429512
2.0032108e-05
0.01343628
1.8680434e-05
0.01344257
1.7421649e-05
0.01344842
1.6249015e-05
0.013453862
1.5156279e-05
0.013458926
1.4137623e-05
0.013463641
1.3187627e-05
0.013468031
1.2301228e-05
0.013472119
1.1473686e-05
0.013475925
1.0700562e-05
0.013479469
9.977688e-06
0.013482768
9.3011534e-06
0.013485838
8.6672912e-06
0.013488692
8.0726747e-06
0.013491344
7.5140994e-06
0.013493806
6.9886094e-06
0.013496087
6.4934694e-06
0.013498199
6.026209e-06
0.013500149
5.584584e-06
0.013501946
5.1666328e-06
0.013503598
4.7706213e-06
0.013505111
4.3951056e-06
0.013506494
4.0388552e-06
0.013507752
3.700916e-06
0.013508892
3.3805128e-06
0.013509921
3.0771075e-06
0.013510845
2.7902866e-06
0.01351167
2.5198111e-06
0.013512403
2.2654983e-06
0.01351305
2.0272644e-06
0.013513619
1.8050129e-06
0.013514115
1.5986678e-06
0.013514545
1.4080836e-06
0.013514914
1.2330694e-06
0.01351523
1.0733317e-06
0.013515498
9.2848852e-07
0.013515724
7.9804541e-07
0.013515912
6.8140802e-07
0.013516069
5.7788817e-07
0.013516197
4.867074e-07
0.013516302
4.0702982e-07
0.013516386
3.3795389e-07
0.013516454
2.7856907e-07
0.013516508
2.2792564e-07
0.01351655
1.8511303e-07
0.013516583
1.4920724e-07
0.013516609
1.1936382e-07
0.013516628
9.4749868e-08
0.013516643
7.463835e-08
0.013516655
5.8327809e-08
0.013516663
4.5235358e-08
0.013516669
3.480055e-08
0.013516674
2.6583502e-08
0.013516677
2.0151735e-08
0.013516679
1.5191798e-08
0.013516681
1.1376424e-08
0.013516682
8.5069149e-09
0.013516683
6.3233082e-09
0.013516684
4.7722152e-09
0.013516684
3.5677134e-09
0.013516685
2.9195527e-09
2.1782663e-09
0.010068394
-7.2127742e-13
0.010267405
-4.0421989e-13
0.010549879
2.7868569e-14
0.010858545
5.6875188e-13
0.011167288
1.2328682e-12
0.011466046
1.9943151e-12
0.01174706
2.6768539e-12
0.012004047
3.2460358e-12
0.012234567
3.6644156e-12
0.012439713
3.9902518e-12
0.012622275
4.3582125e-12
0.012785275
4.8700714e-12
0.0129315
5.7206836e-12
0.013063403
7.0039374e-12
0.013183077
8.8707039e-12
0.013292252
1.1416143e-11
0.013392321
1.4628978e-11
0.013484397
1.8558213e-11
0.013569373
2.2946481e-11
0.013647971
2.7809588e-11
0.013720793
3.2787972e-11
0.013788347
3.7978479e-11
0.013851071
4.3214234e-11
0.01390935
4.8700778e-11
0.013963527
5.465236e-11
0.014013912
6.1405686e-11
0.014060785
6.938155e-11
0.014104404
7.8970079e-11
0.014145005
9.0168213e-11
0.014182807
1.0315052e-10
0.014218009
1.1709596e-10
0.014250796
1.3202247e-10
0.014281341
1.4661375e-10
0.014309801
1.6100839e-10
0.014336323
1.7405642e-10
0.014361043
1.8606185e-10
0.014384086
1.962634e-10
0.01440557
2.0499367e-10
0.014425602
2.1172825e-10
0.014444282
2.1660013e-10
0.014461704
2.1854558e-10
0.014477952
2.1704674e-10
0.014493108
2.1058575e-10
0.014507246
1.9817561e-10
0.014520433
1.7859149e-10
0.014532734
1.5049016e-10
0.014544208
1.1477252e-10
0.014554908
7.0016235e-11
0.014564886
2.021555e-11
0.014574187
-4.6448347e-11
0.014582855
-1.1189983e-10
0.014590927
-1.8396326e-10
0.014598442
-2.545183e-10
0.014605431
-3.2872477e-10
0.014611925
-3.9608879e-10
0.014617951
-4.6348018e-10
0.014623536
-5.1834246e-10
0.014628703
-5.701834e-10
0.014633475
-6.0494707e-10
0.01463787
-6.3381769e-10
0.01464191
-6.4266915e-10
0.014645611
-6.4514987e-10
0.014648993
-6.2798731e-10
0.01465207
-6.0483146e-10
0.014654861
-5.6387791e-10
0.014657382
-5.1855137e-10
0.014659648
-4.5891865e-10
0.014661675
-3.9580033e-10
0.014663481
-3.2255413e-10
0.01466508
-2.4853296e-10
0.014666488
-1.7199107e-10
0.014667721
-1.0012476e-10
0.014668794
-3.2960561e-11
0.014669723
2.9341102e-11
0.014670521
8.0629646e-11
0.014671202
1.2414745e-10
0.01467178
1.5877688e-10
0.014672267
1.9038742e-10
0.014672673
2.1462101e-10
0.014673011
2.3907738e-10
0.01467329
2.5407221e-10
0.014673517
2.6921307e-10
0.014673702
2.7110884e-10
0.014673851
2.7108036e-10
0.01467397
2.5739509e-10
0.014674065
2.4520804e-10
0.014674139
2.2469184e-10
0.014674197
2.1125268e-10
0.014674243
1.9353521e-10
0.014674277
1.858094e-10
0.014674304
1.7437689e-10
0.014674324
1.7174354e-10
0.014674339
1.6328522e-10
0.01467435
1.6325885e-10
0.014674358
1.5344916e-10
0.014674364
1.4842944e-10
0.014674369
1.3441837e-10
0.014674373
1.2016944e-10
0.014674376
1.1265311e-10
1.1660036e-10
0.010068394
-6.8393556e-05
0.010267405
-0.00019901112
0.010549879
-0.00028247387
0.010858545
-0.00030866649
0.011167288
-0.00030874342
0.011466046
-0.00029875788
0.01174706
-0.00028101345
0.012004047
-0.00025698755
0.012234567
-0.00023051981
0.012439713
-0.00020514589
0.012622275
-0.00018256235
0.012785275
-0.00016299957
0.0129315
-0.00014622491
0.013063403
-0.00013190312
0.013183077
-0.00011967425
0.013292252
-0.0001091746
0.013392321
-0.00010006905
0.013484397
-9.2076345e-05
0.013569373
-8.497523e-05
0.013647971
-7.8598588e-05
0.013720794
-7.2822275e-05
0.013788347
-6.7553906e-05
0.013851071
-6.2723887e-05
0.01390935
-5.8278854e-05
0.013963527
-5.417694e-05
0.014013912
-5.0384378e-05
0.014060785
-4.6873103e-05
0.014104404
-4.3619109e-05
0.014145006
-4.060138e-05
0.014182807
-3.7801188e-05
0.014218009
-3.5201646e-05
0.014250796
-3.2787406e-05
0.014281341
-3.0544447e-05
0.014309801
-2.8459914e-05
0.014336323
-2.6522001e-05
0.014361043
-2.4719844e-05
0.014384087
-2.3043441e-05
0.01440557
-2.148357e-05
0.014425602
-2.0031724e-05
0.014444283
-1.8680042e-05
0.014461704
-1.7421254e-05
0.014477953
-1.6248623e-05
0.014493109
-1.5155899e-05
0.014507246
-1.4137266e-05
0.014520434
-1.3187306e-05
0.014532735
-1.2300955e-05
0.014544208
-1.1473478e-05
0.014554909
-1.0700435e-05
0.014564887
-9.9776552e-06
0.014574188
-9.3012321e-06
0.014582855
-8.6674874e-06
0.014590928
-8.072996e-06
0.014598442
-7.5145468e-06
0.014605431
-6.9891849e-06
0.014611925
-6.4941654e-06
0.014617951
-6.0270207e-06
0.014623536
-5.5854954e-06
0.014628703
-5.1676332e-06
0.014633475
-4.7716868e-06
0.01463787
-4.3962204e-06
0.01464191
-4.0399913e-06
0.014645611
-3.7020565e-06
0.014648992
-3.3816292e-06
0.01465207
-3.0781844e-06
0.01465486
-2.791298e-06
0.014657381
-2.5207444e-06
0.014659647
-2.2663312e-06
0.014661674
-2.0279869e-06
0.01466348
-1.8056087e-06
0.014665079
-1.5991333e-06
0.014666487
-1.4084142e-06
0.01466772
-1.2332713e-06
0.014668793
-1.0734123e-06
0.014669722
-9.2846093e-07
0.01467052
-7.9792602e-07
0.014671201
-6.8121136e-07
0.014671779
-5.776267e-07
0.014672266
-4.8638802e-07
0.014672673
-4.066617e-07
0.014673011
-3.3754052e-07
0.014673289
-2.7812247e-07
0.014673517
-2.2745213e-07
0.014673702
-1.8463189e-07
0.014673851
-1.4872846e-07
0.01467397
-1.18906e-07
0.014674064
-9.4316503e-08
0.014674139
-7.4238071e-08
0.014674197
-5.795421e-08
0.014674242
-4.4888376e-08
0.014674277
-3.4470228e-08
0.014674304
-2.6269715e-08
0.014674323
-1.9847657e-08
0.014674338
-1.489912e-08
0.01467435
-1.1087905e-08
0.014674358
-8.2330824e-09
0.014674364
-6.0573236e-09
0.014674369
-4.5282686e-09
0.014674373
-3.3427457e-09
0.014674375
-2.7105066e-09
-1.9740162e-09
0.010097182
-0.00016557515
0.010346961
-0.000448791
0.010662469
-0.00059798177
0.010982753
-0.00062895025
0.011290229
-0.00061621886
0.011575251
-0.00058378055
0.011829022
-0.0005347842
0.012047865
-0.00047583049
0.012233272
-0.00041592665
0.01238924
-0.00036111399
0.012520295
-0.00031361711
0.012630755
-0.00027346025
0.012724428
-0.00023989718
0.012804515
-0.00021199031
0.012873613
-0.0001887726
0.012933772
-0.00016933387
0.012986596
-0.00015289295
0.013033332
-0.00013881181
0.01307495
-0.00012659377
0.013112216
-0.00011586442
0.013145739
-0.00010634491
0.013176012
-9.7826971e-05
0.013203441
-9.0153333e-05
0.013228366
-8.3203338e-05
0.013251071
-7.6882585e-05
0.013271803
-7.1115529e-05
0.01329077
-6.5840256e-05
0.013308155
-6.1004862e-05
0.013324119
-5.6565012e-05
0.0133388
-5.2482267e-05
0.013352322
-4.8722944e-05
0.013364791
-4.5257293e-05
0.013376306
-4.2058884e-05
0.01338695
-3.910414e-05
0.0133968
-3.6371948e-05
0.013405923
-3.3843358e-05
0.013414381
-3.1501309e-05
0.013422228
-2.9330409e-05
0.013429513
-2.7316734e-05
0.013436281
-2.5447657e-05
0.013442571
-2.3711694e-05
0.013448421
-2.209837e-05
0.013453863
-2.0598097e-05
0.013458928
-1.9202073e-05
0.013463643
-1.7902187e-05
0.013468033
-1.669094e-05
0.01347212
-1.5561378e-05
0.013475927
-1.4507031e-05
0.013479471
-1.3521882e-05
0.01348277
-1.2600301e-05
0.01348584
-1.1737067e-05
0.013488694
-1.0927294e-05
0.013491346
-1.0166494e-05
0.013493807
-9.4504912e-06
0.013496089
-8.7755261e-06
0.0134982
-8.1381483e-06
0.013500149
-7.5353523e-06
0.013501946
-6.964438e-06
0.013503598
-6.4231688e-06
0.013505111
-5.9095972e-06
0.013506493
-5.4222283e-06
0.013507751
-4.95981e-06
0.013508891
-4.5214928e-06
0.013509919
-4.1065957e-06
0.013510842
-3.7147518e-06
0.013511667
-3.345666e-06
0.0135124
-2.9992428e-06
0.013513048
-2.6753623e-06
0.013513616
-2.3739811e-06
0.013514112
-2.0949516e-06
0.013514542
-1.8380911e-06
0.013514911
-1.6030628e-06
0.013515227
-1.389413e-06
0.013515495
-1.1965194e-06
0.013515721
-1.023607e-06
0.013515909
-8.6975411e-07
0.013516066
-7.3389361e-07
0.013516194
-6.1487093e-07
0.013516299
-5.1141861e-07
0.013516384
-4.2225828e-07
0.013516452
-3.4603397e-07
0.013516506
-2.814535e-07
0.013516548
-2.2717906e-07
0.013516582
-1.8198943e-07
0.013516607
-1.446543e-07
0.013516627
-1.1409793e-07
0.013516642
-8.9269344e-08
0.013516654
-6.9294049e-08
0.013516662
-5.3331844e-08
0.013516669
-4.072623e-08
0.013516673
-3.0834606e-08
0.013516677
-2.3186629e-08
0.013516679
-1.7298966e-08
0.013516681
-1.284953e-08
0.013516682
-9.4944974e-09
0.013516683
-7.0212099e-09
0.013516684
-5.2517457e-09
0.013516684
-3.9887786e-09
0.013516685
-3.3051497e-09
-2.6185927e-09
0.010188704
-0.00035427932
0.010530487
-0.00079057335
0.010851453
-0.00091894821
0.011124174
-0.00090167137
0.011350581
-0.00084262623
0.011524486
-0.00075768559
0.01164633
-0.00065662744
0.011724155
-0.00055365586
0.011767999
-0.00045977083
0.011786639
-0.00037975354
0.011787114
-0.00031409258
0.011775058
-0.00026140425
0.011754861
-0.00021969948
0.011729768
-0.00018689786
0.011702054
-0.00016105802
0.011673239
-0.00014051894
0.011644339
-0.00012399296
0.011616003
-0.00011047599
0.011588629
-9.9219854e-05
0.011562446
-8.9681382e-05
0.011537572
-8.1470643e-05
0.011514052
-7.4307823e-05
0.01149189
-6.7990477e-05
0.011471056
-6.2369977e-05
0.011451509
-5.7335008e-05
0.011433193
-5.280018e-05
0.011416051
-4.869826e-05
0.011400021
-4.4974941e-05
0.011385042
-4.1585368e-05
0.011371051
-3.8491814e-05
0.01135799
-3.5662117e-05
0.011345802
-3.3068574e-05
0.01133443
-3.0687141e-05
0.011323823
-2.8496828e-05
0.01131393
-2.6479223e-05
0.011304705
-2.4618109e-05
0.011296102
-2.2899152e-05
0.011288082
-2.1309632e-05
0.011280603
-1.9838224e-05
0.01127363
-1.8474802e-05
0.011267129
-1.7210275e-05
0.011261067
-1.6036446e-05
0.011255415
-1.494589e-05
0.011250144
-1.3931848e-05
0.01124523
-1.2988138e-05
0.011240648
-1.2109082e-05
0.011236376
-1.1289438e-05
0.011232394
-1.0524354e-05
0.011228681
-9.8093286e-06
0.011225221
-9.1401758e-06
0.011221997
-8.5130125e-06
0.011218994
-7.9242399e-06
0.011216198
-7.3705443e-06
0.011213596
-6.8488905e-06
0.011211177
-6.3565362e-06
0.01120893
-5.8910255e-06
0.011206844
-5.4502053e-06
0.011204912
-5.0322154e-06
0.011203124
-4.635502e-06
0.011201474
-4.2587911e-06
0.011199952
-3.9010911e-06
0.011198554
-3.5616515e-06
0.011197273
-3.239953e-06
0.011196101
-2.9356512e-06
0.011195035
-2.6485551e-06
0.011194068
-2.3785659e-06
0.011193195
-2.1256518e-06
0.011192409
-1.8897885e-06
0.011191706
-1.6709371e-06
0.01119108
-1.4689949e-06
0.011190526
-1.28378e-06
0.011190037
-1.1149979e-06
0.01118961
-9.6223843e-07
0.011189239
-8.2496171e-07
0.011188917
-7.0250676e-07
0.011188642
-5.9409995e-07
0.011188407
-4.9887616e-07
0.011188208
-4.1589815e-07
0.011188041
-3.4418181e-07
0.011187901
-2.827167e-07
0.011187786
-2.304899e-07
0.011187691
-1.864984e-07
0.011187613
-1.497664e-07
0.011187551
-1.1935793e-07
0.0111875
-9.4396315e-08
0.01118746
-7.407046e-08
0.011187429
-5.7655339e-08
0.011187404
-4.4503472e-08
0.011187385
-3.4067076e-08
0.01118737
-2.5860834e-08
0.011187359
-1.9487063e-08
0.01118735
-1.458107e-08
0.011187344
-1.0860264e-08
0.011187339
-8.0511819e-09
0.011187335
-5.9707427e-09
0.011187333
-4.4328515e-09
0.011187331
-3.3866768e-09
0.01118733
-2.6961667e-09
0.011187329
-2.3867436e-09
-2.2040258e-09
0.010339525
-0.00069380425
0.010570754
-0.0010218027
0.010606301
-0.00095449449
0.010547572
-0.00084294334
0.010422317
-0.0007173708
0.010244356
-0.00057972444
0.010039421
-0.00045169205
0.0098287427
-0.00034297801
0.009625135
-0.00025616318
0.0094353013
-0.00018991983
0.0092624277
-0.00014121897
0.0091075332
-0.00010650979
0.008970154
-8.2320216e-05
0.0088489024
-6.564624e-05
0.0087419716
-5.4127251e-05
0.0086474927
-4.6040046e-05
0.008563694
-4.0194291e-05
0.0084890108
-3.5792753e-05
0.0084221097
-3.2318755e-05
0.0083618776
-2.9449275e-05
0.0083073955
-2.6988569e-05
0.008257908
-2.4820294e-05
0.0082127929
-2.2875476e-05
0.0081715354
-2.1112417e-05
0.008133705
-1.9504658e-05
0.0080989389
-1.8034022e-05
0.0080669274
-1.6686732e-05
0.0080374038
-1.5451368e-05
0.0080101363
-1.4317864e-05
0.0079849216
-1.3277074e-05
0.0079615801
-1.2320599e-05
0.0079399522
-1.1440742e-05
0.0079198955
-1.0630478e-05
0.0079012821
-9.8834394e-06
0.0078839967
-9.1938817e-06
0.0078679353
-8.5566452e-06
0.0078530032
-7.9671042e-06
0.0078391147
-7.4211174e-06
0.0078261915
-6.914972e-06
0.007814162
-6.4453353e-06
0.007802961
-6.0092042e-06
0.0077925283
-5.6038645e-06
0.0077828093
-5.2268494e-06
0.0077737533
-4.8759087e-06
0.0077653141
-4.5489757e-06
0.0077574491
-4.2441493e-06
0.0077501193
-3.9596636e-06
0.0077432887
-3.6938849e-06
0.0077369247
-3.445281e-06
0.0077309969
-3.2124357e-06
0.007725478
-2.9940128e-06
0.0077203425
-2.7887884e-06
0.0077155676
-2.5956095e-06
0.0077111322
-2.4134433e-06
0.007707017
-2.2413258e-06
0.0077032044
-2.0784253e-06
0.0076996782
-1.9239793e-06
0.0076964234
-1.7773701e-06
0.007693426
-1.6380453e-06
0.0076906729
-1.5055979e-06
0.0076881516
-1.3796748e-06
0.00768585
-1.2600578e-06
0.0076837567
-1.1465608e-06
0.0076818603
-1.0391085e-06
0.0076801494
-9.3763079e-07
0.0076786131
-8.4213564e-07
0.0076772401
-7.5261106e-07
0.0076760195
-6.690853e-07
0.0076749402
-5.9154746e-07
0.0076739912
-5.1998749e-07
0.0076731619
-4.5434581e-07
0.0076724414
-3.9453072e-07
0.0076718195
-3.4039998e-07
0.0076712863
-2.9175945e-07
0.0076708321
-2.4837827e-07
0.0076704481
-2.0997241e-07
0.0076701255
-1.7624681e-07
0.0076698566
-1.4685621e-07
0.007669634
-1.2147564e-07
0.0076694511
-9.9729199e-08
0.0076693019
-8.128551e-08
0.0076691812
-6.5755633e-08
0.0076690841
-5.2816262e-08
0.0076690068
-4.2093676e-08
0.0076689456
-3.3300592e-08
0.0076688977
-2.6112833e-08
0.0076688605
-2.0311328e-08
0.0076688318
-1.5642687e-08
0.0076688098
-1.1960315e-08
0.0076687931
-9.0613655e-09
0.0076687805
-6.846332e-09
0.007668771
-5.1372246e-09
0.0076687639
-3.8696562e-09
0.0076687587
-2.8840744e-09
0.0076687548
-2.1720644e-09
0.007668752
-1.6281534e-09
0.0076687499
-1.285238e-09
0.0076687484
-1.0825932e-09
0.0076687473
-1.1655666e-09
-1.3452381e-09
0.0093061958
0.0082843931
0.0073298986
0.0064869553
0.0057695845
0.00518986
0.004738168
0.00439519
0.0041390268
0.003949107
0.003807888
0.0037013782
0.003619058
0.0035534117
0.0034992845
0.0034532444
0.0034130502
0.0033772574
0.0033449386
0.0033154894
0.0032885008
0.0032636805
0.003240805
0.0032196926
0.003200188
0.0031821539
0.0031654672
0.0031500158
0.003135698
0.0031224209
0.0031101003
0.0030986595
0.0030880291
0.0030781456
0.0030689517
0.0030603951
0.003052428
0.0030450069
0.0030380919
0.0030316466
0.0030256374
0.0030200335
0.0030148066
0.0030099307
0.0030053817
0.0030011375
0.0029971778
0.002993484
0.0029900387
0.0029868263
0.0029838323
0.0029810436
0.002978448
0.0029760346
0.0029737933
0.002971715
0.002969791
0.0029680137
0.0029663758
0.0029648703
0.0029634907
0.0029622307
0.0029610842
0.0029600452
0.0029591076
0.0029582656
0.002957513
0.002956844
0.0029562525
0.0029557326
0.0029552783
0.0029548837
0.0029545433
0.0029542516
0.0029540032
0.0029537933
0.0029536171
0.0029534703
0.0029533489
0.0029532492
0.0029531679
0.0029531021
0.0029530492
0.0029530071
0.0029529738
0.0029529477
0.0029529275
0.0029529119
0.0029529
0.002952891
0.0029528841
0.0029528789
0.002952875
0.0029528721
0.0029528699
0.0029528683
0.002952867
0.002952866
0.0029528649
)
;

boundaryField
{
    top
    {
        type            calculated;
        value           uniform 0;
    }
    inlet
    {
        type            calculated;
        value           nonuniform List<scalar> 10(-0.01 -0.01 -0.01 -0.01 -0.01 -0.01 -0.01 -0.01 -0.01 -0.01);
    }
    outlet
    {
        type            calculated;
        value           nonuniform List<scalar> 10(0.0029528634 0.0076687463 0.011187329 0.013516686 0.014674378 0.014674378 0.013516686 0.011187329 0.0076687464 0.0029528635);
    }
    bottom
    {
        type            calculated;
        value           uniform 0;
    }
    back
    {
        type            empty;
        value           nonuniform List<scalar> 0();
    }
    front
    {
        type            empty;
        value           nonuniform List<scalar> 0();
    }
}


// ************************************************************************* //
