/*--------------------------------*- C++ -*----------------------------------*\
  =========                 |
  \\      /  F ield         | OpenFOAM: The Open Source CFD Toolbox
   \\    /   O peration     | Website:  https://openfoam.org
    \\  /    A nd           | Version:  9
     \\/     M anipulation  |
\*---------------------------------------------------------------------------*/
FoamFile
{
    format      ascii;
    class       volVectorField;
    location    "7";
    object      U;
}
// * * * * * * * * * * * * * * * * * * * * * * * * * * * * * * * * * * * * * //

dimensions      [0 1 -1 0 0 0 0];

internalField   nonuniform List<vector> 
1000
(
(0.91890839 0.035821913 0)
(0.86271384 0.062195638 0)
(0.7870597 0.06251009 0)
(0.69536033 0.054550395 0)
(0.61089745 0.044531651 0)
(0.54411592 0.034015971 0)
(0.49343012 0.024187539 0)
(0.45479413 0.01614423 0)
(0.42544582 0.010265786 0)
(0.40347313 0.0063041453 0)
(0.38715766 0.0037976295 0)
(0.3749622 0.0023103382 0)
(0.36566192 0.001493015 0)
(0.35836272 0.0010851183 0)
(0.35244267 0.00090607244 0)
(0.34748201 0.00084105193 0)
(0.34320348 0.00082372437 0)
(0.33942726 0.00081931062 0)
(0.33603793 0.00081185215 0)
(0.33296114 0.00079580136 0)
(0.33014778 0.00077081163 0)
(0.32756384 0.00073870976 0)
(0.32518419 0.00070188977 0)
(0.32298901 0.00066256635 0)
(0.32096171 0.00062250051 0)
(0.31908784 0.00058295863 0)
(0.31735448 0.00054477299 0)
(0.31574994 0.00050843582 0)
(0.31426359 0.00047419363 0)
(0.31288573 0.00044212723 0)
(0.31160753 0.00041221304 0)
(0.31042098 0.00038436664 0)
(0.30931879 0.00035847196 0)
(0.30829433 0.00033439991 0)
(0.30734159 0.00031201951 0)
(0.30645508 0.00029120421 0)
(0.30562981 0.00027183511 0)
(0.30486124 0.0002538021 0)
(0.30414521 0.00023700407 0)
(0.30347789 0.00022134834 0)
(0.30285581 0.00020675 0)
(0.30227574 0.00019313095 0)
(0.30173474 0.00018041918 0)
(0.3012301 0.00016854786 0)
(0.30075931 0.00015745479 0)
(0.30032007 0.00014708172 0)
(0.29991026 0.00013737411 0)
(0.29952793 0.00012828042 0)
(0.2991713 0.00011975233 0)
(0.29883872 0.0001117441 0)
(0.29852867 0.00010421316 0)
(0.29823979 9.7119353e-05 0)
(0.2979708 9.0425909e-05 0)
(0.29772057 8.409867e-05 0)
(0.29748804 7.8107274e-05 0)
(0.29727224 7.2424175e-05 0)
(0.29707231 6.7026037e-05 0)
(0.29688741 6.1892473e-05 0)
(0.29671681 5.7007436e-05 0)
(0.29655979 5.2357658e-05 0)
(0.29641569 4.7933951e-05 0)
(0.29628386 4.3729342e-05 0)
(0.29616369 3.9740154e-05 0)
(0.29605455 3.5964066e-05 0)
(0.29595587 3.2400973e-05 0)
(0.29586702 2.9051028e-05 0)
(0.29578743 2.5915354e-05 0)
(0.29571649 2.2994389e-05 0)
(0.29565359 2.0288415e-05 0)
(0.29559814 1.7796264e-05 0)
(0.29554955 1.5515701e-05 0)
(0.29550722 1.3442732e-05 0)
(0.29547058 1.1571769e-05 0)
(0.29543907 9.8954407e-06 0)
(0.29541216 8.404738e-06 0)
(0.29538932 7.0892991e-06 0)
(0.29537009 5.9375411e-06 0)
(0.29535401 4.9372153e-06 0)
(0.29534066 4.0754086e-06 0)
(0.29532965 3.3393745e-06 0)
(0.29532065 2.7160313e-06 0)
(0.29531333 2.1929864e-06 0)
(0.29530743 1.7577328e-06 0)
(0.29530271 1.3987898e-06 0)
(0.29529896 1.1049546e-06 0)
(0.29529601 8.662982e-07 0)
(0.29529371 6.7370657e-07 0)
(0.29529193 5.1957056e-07 0)
(0.29529056 3.9726973e-07 0)
(0.29528952 3.0137142e-07 0)
(0.29528873 2.2722371e-07 0)
(0.29528814 1.7065433e-07 0)
(0.29528768 1.2841534e-07 0)
(0.29528734 9.6974162e-08 0)
(0.29528709 7.4980848e-08 0)
(0.29528691 5.9766292e-08 0)
(0.29528676 5.2510255e-08 0)
(0.29528666 5.2367159e-08 0)
(0.29528651 6.6659762e-08 0)
(0.29528641 8.205654e-08 0)
(1.0016583 0.05381943 0)
(1.0359761 0.10128444 0)
(1.0597199 0.11073663 0)
(1.0628947 0.10592202 0)
(1.0515569 0.096228728 0)
(1.0340529 0.083934061 0)
(1.0142795 0.070327063 0)
(0.99360703 0.056981333 0)
(0.97292577 0.045107479 0)
(0.95310739 0.03523675 0)
(0.93479538 0.02740165 0)
(0.91829012 0.021387227 0)
(0.90362379 0.016884499 0)
(0.89068067 0.013569709 0)
(0.87928174 0.011147749 0)
(0.86923241 0.0093736596 0)
(0.86034423 0.0080569291 0)
(0.85244667 0.0070571284 0)
(0.84539241 0.0062752392 0)
(0.83905792 0.0056438292 0)
(0.83334126 0.0051180916 0)
(0.82815883 0.004668673 0)
(0.82344211 0.0042764184 0)
(0.81913466 0.0039287404 0)
(0.8151896 0.0036172058 0)
(0.81156764 0.0033359734 0)
(0.80823542 0.0030808075 0)
(0.80516438 0.0028484728 0)
(0.80232977 0.0026363734 0)
(0.79970997 0.0024423431 0)
(0.79728594 0.0022645242 0)
(0.79504083 0.0021012965 0)
(0.79295959 0.0019512337 0)
(0.79102877 0.0018130734 0)
(0.78923624 0.0016856957 0)
(0.78757107 0.0015681052 0)
(0.78602336 0.0014594165 0)
(0.78458411 0.0013588405 0)
(0.78324515 0.0012656723 0)
(0.781999 0.0011792806 0)
(0.78083882 0.0010990977 0)
(0.77975837 0.0010246114 0)
(0.77875192 0.00095535692 0)
(0.77781421 0.00089091074 0)
(0.7769404 0.00083088488 0)
(0.77612606 0.00077492219 0)
(0.77536713 0.00072269261 0)
(0.77465985 0.00067388994 0)
(0.7740008 0.00062822972 0)
(0.77338684 0.00058544735 0)
(0.77281508 0.00054529743 0)
(0.77228289 0.00050755282 0)
(0.77178787 0.00047200508 0)
(0.77132781 0.00043846424 0)
(0.77090071 0.00040675977 0)
(0.77050472 0.00037674044 0)
(0.77013817 0.00034827526 0)
(0.76979947 0.00032125293 0)
(0.76948721 0.00029558211 0)
(0.7692 0.00027119007 0)
(0.7689366 0.00024802193 0)
(0.76869576 0.00022603832 0)
(0.76847631 0.00020521364 0)
(0.76827711 0.00018553293 0)
(0.76809703 0.0001669895 0)
(0.76793494 0.00014958142 0)
(0.76778975 0.00013330908 0)
(0.76766033 0.00011817201 0)
(0.76754558 0.00010416683 0)
(0.76744441 9.1284716e-05 0)
(0.76735572 7.9510256e-05 0)
(0.76727845 6.8819913e-05 0)
(0.76721154 5.9181916e-05 0)
(0.76715398 5.0555834e-05 0)
(0.76710479 4.2893464e-05 0)
(0.76706304 3.613952e-05 0)
(0.76702785 3.0233316e-05 0)
(0.76699841 2.5109897e-05 0)
(0.76697395 2.0702177e-05 0)
(0.76695378 1.6941882e-05 0)
(0.76693726 1.376153e-05 0)
(0.76692385 1.1094759e-05 0)
(0.76691302 8.8781122e-06 0)
(0.76690436 7.0510341e-06 0)
(0.76689748 5.5577582e-06 0)
(0.76689206 4.3467163e-06 0)
(0.76688783 3.3728149e-06 0)
(0.76688456 2.5955166e-06 0)
(0.76688203 1.9814841e-06 0)
(0.76688012 1.5004065e-06 0)
(0.76687865 1.128763e-06 0)
(0.76687756 8.4364118e-07 0)
(0.76687672 6.28909e-07 0)
(0.76687613 4.6715532e-07 0)
(0.76687565 3.491244e-07 0)
(0.76687535 2.6319258e-07 0)
(0.76687506 2.069245e-07 0)
(0.76687494 1.7461531e-07 0)
(0.76687468 1.7069911e-07 0)
(0.76687471 1.8574443e-07 0)
(1.0014244 0.026824855 0)
(1.0291272 0.062791352 0)
(1.0654292 0.077736553 0)
(1.098962 0.0805972 0)
(1.1253149 0.078285171 0)
(1.145053 0.0731539 0)
(1.1594858 0.066111278 0)
(1.1694287 0.058162063 0)
(1.1755354 0.050296754 0)
(1.1785738 0.043150708 0)
(1.1793571 0.036972825 0)
(1.1785949 0.031771632 0)
(1.1768304 0.02745184 0)
(1.1744518 0.023886768 0)
(1.1717287 0.020947621 0)
(1.1688444 0.018515781 0)
(1.1659195 0.016488086 0)
(1.1630317 0.014779504 0)
(1.1602295 0.013322987 0)
(1.1575415 0.012067134 0)
(1.1549828 0.010973002 0)
(1.1525601 0.010011064 0)
(1.1502747 0.0091587496 0)
(1.1481246 0.0083986077 0)
(1.1461059 0.0077169549 0)
(1.1442134 0.0071028932 0)
(1.1424414 0.0065475976 0)
(1.1407838 0.0060438018 0)
(1.1392343 0.0055854332 0)
(1.1377869 0.0051673525 0)
(1.1364353 0.004785166 0)
(1.1351738 0.0044350866 0)
(1.1339967 0.0041138286 0)
(1.1328987 0.0038185257 0)
(1.1318746 0.0035466656 0)
(1.1309195 0.0032960369 0)
(1.1300289 0.0030646852 0)
(1.1291985 0.0028508772 0)
(1.1284242 0.0026530694 0)
(1.1277023 0.0024698821 0)
(1.1270292 0.0023000773 0)
(1.1264016 0.0021425389 0)
(1.1258164 0.0019962567 0)
(1.1252708 0.0018603121 0)
(1.124762 0.0017338658 0)
(1.1242876 0.0016161479 0)
(1.1238453 0.0015064486 0)
(1.123433 0.0014041121 0)
(1.1230485 0.0013085298 0)
(1.1226902 0.0012191371 0)
(1.1223563 0.0011354096 0)
(1.1220452 0.0010568617 0)
(1.1217555 0.00098304507 0)
(1.1214859 0.00091354936 0)
(1.1212351 0.00084800164 0)
(1.121002 0.00078606798 0)
(1.1207856 0.00072745322 0)
(1.120585 0.00067190222 0)
(1.1203992 0.00061919883 0)
(1.1202275 0.00056916579 0)
(1.1200691 0.00052166217 0)
(1.1199233 0.00047658128 0)
(1.1197895 0.00043384643 0)
(1.119667 0.00039340685 0)
(1.1195553 0.00035523219 0)
(1.1194538 0.00031930713 0)
(1.1193619 0.00028562546 0)
(1.1192791 0.00025418442 0)
(1.1192048 0.00022497955 0)
(1.1191384 0.00019799954 0)
(1.1190795 0.00017322285 0)
(1.1190275 0.00015061412 0)
(1.1189818 0.00013012289 0)
(1.118942 0.00011168195 0)
(1.1189074 9.5208377e-05 0)
(1.1188777 8.0603954e-05 0)
(1.1188522 6.7758114e-05 0)
(1.1188305 5.6549344e-05 0)
(1.1188123 4.6849528e-05 0)
(1.118797 3.8525265e-05 0)
(1.1187843 3.1442722e-05 0)
(1.1187738 2.5467962e-05 0)
(1.1187652 2.047185e-05 0)
(1.1187582 1.6329415e-05 0)
(1.1187526 1.2924815e-05 0)
(1.1187481 1.014945e-05 0)
(1.1187445 7.9071063e-06 0)
(1.1187417 6.1099302e-06 0)
(1.1187395 4.6837179e-06 0)
(1.1187378 3.5612322e-06 0)
(1.1187365 2.6879868e-06 0)
(1.1187355 2.0140638e-06 0)
(1.1187347 1.5006571e-06 0)
(1.1187342 1.1122428e-06 0)
(1.1187337 8.2285365e-07 0)
(1.1187335 6.0956942e-07 0)
(1.1187332 4.5883455e-07 0)
(1.1187331 3.5535454e-07 0)
(1.1187328 3.027671e-07 0)
(1.118733 2.6208328e-07 0)
(1.0007347 0.011814721 0)
(1.0178472 0.030860927 0)
(1.0462163 0.041434441 0)
(1.0799018 0.04519357 0)
(1.1132664 0.045502351 0)
(1.143782 0.044080308 0)
(1.1708941 0.041439982 0)
(1.1945687 0.037973678 0)
(1.2148582 0.034195729 0)
(1.2319652 0.030536887 0)
(1.2462683 0.027222045 0)
(1.2582339 0.024313921 0)
(1.2683135 0.021797889 0)
(1.2768875 0.01963366 0)
(1.2842554 0.017773827 0)
(1.2906479 0.016169653 0)
(1.296243 0.014775591 0)
(1.3011791 0.013552299 0)
(1.3055645 0.012467865 0)
(1.3094838 0.011497468 0)
(1.3130042 0.010622164 0)
(1.3161792 0.0098275165 0)
(1.3190526 0.009102415 0)
(1.3216607 0.0084381815 0)
(1.3240343 0.0078279094 0)
(1.3261995 0.0072659807 0)
(1.3281786 0.0067477158 0)
(1.3299913 0.0062691247 0)
(1.3316544 0.0058267364 0)
(1.3331828 0.0054174835 0)
(1.3345896 0.0050386239 0)
(1.3358861 0.0046876869 0)
(1.3370827 0.0043624341 0)
(1.3381882 0.0040608303 0)
(1.3392108 0.0037810199 0)
(1.3401575 0.003521308 0)
(1.3410349 0.0032801444 0)
(1.3418485 0.0030561097 0)
(1.3426037 0.0028479019 0)
(1.343305 0.0026543255 0)
(1.3439568 0.002474281 0)
(1.3445627 0.0023067552 0)
(1.3451263 0.0021508125 0)
(1.3456507 0.0020055868 0)
(1.3461389 0.0018702747 0)
(1.3465934 0.0017441289 0)
(1.3470166 0.0016264528 0)
(1.3474107 0.0015165953 0)
(1.3477776 0.0014139471 0)
(1.3481193 0.0013179378 0)
(1.3484372 0.0012280332 0)
(1.348733 0.0011437349 0)
(1.3490079 0.0010645778 0)
(1.3492632 0.00099013208 0)
(1.3495001 0.00092000208 0)
(1.3497194 0.00085382864 0)
(1.3499222 0.00079128824 0)
(1.3501093 0.00073209581 0)
(1.3502816 0.00067600297 0)
(1.3504396 0.00062280011 0)
(1.3505842 0.00057231313 0)
(1.3507161 0.00052440405 0)
(1.3508358 0.00047896592 0)
(1.3509441 0.00043592172 0)
(1.3510415 0.00039521761 0)
(1.3511288 0.00035682038 0)
(1.3512065 0.00032070989 0)
(1.3512754 0.00028687563 0)
(1.351336 0.00025530943 0)
(1.351389 0.00022600201 0)
(1.3514351 0.00019893706 0)
(1.3514749 0.00017408857 0)
(1.351509 0.00015141743 0)
(1.351538 0.00013086978 0)
(1.3515625 0.00011237625 0)
(1.3515831 9.5851825e-05 0)
(1.3516001 8.1197899e-05 0)
(1.3516142 6.8302913e-05 0)
(1.3516257 5.7046241e-05 0)
(1.3516351 4.7299037e-05 0)
(1.3516426 3.8929382e-05 0)
(1.3516486 3.1802165e-05 0)
(1.3516533 2.5785211e-05 0)
(1.351657 2.074771e-05 0)
(1.3516599 1.6567058e-05 0)
(1.3516621 1.3125804e-05 0)
(1.3516638 1.0318451e-05 0)
(1.3516651 8.0468109e-06 0)
(1.351666 6.2261549e-06 0)
(1.3516667 4.7790129e-06 0)
(1.3516672 3.6408494e-06 0)
(1.3516676 2.7529069e-06 0)
(1.3516678 2.068256e-06 0)
(1.3516681 1.5438463e-06 0)
(1.3516681 1.1484565e-06 0)
(1.3516683 8.5023215e-07 0)
(1.3516683 6.3644229e-07 0)
(1.3516685 4.7434271e-07 0)
(1.3516683 3.8563653e-07 0)
(1.3516687 2.9075497e-07 0)
(1.0005903 0.0034629158 0)
(1.0136865 0.0093660197 0)
(1.0370283 0.013046806 0)
(1.0674202 0.014563261 0)
(1.1000315 0.014854525 0)
(1.1316428 0.014564991 0)
(1.1610745 0.013888338 0)
(1.1880674 0.012919246 0)
(1.2125205 0.011806506 0)
(1.2343939 0.010696427 0)
(1.2538077 0.0096727425 0)
(1.2710339 0.0087628226 0)
(1.286401 0.0079659743 0)
(1.3002112 0.0072722154 0)
(1.3127102 0.0066688095 0)
(1.3240903 0.0061419264 0)
(1.3345036 0.0056780736 0)
(1.3440716 0.0052653227 0)
(1.3528927 0.0048939372 0)
(1.3610463 0.0045563985 0)
(1.3685975 0.004247073 0)
(1.3756004 0.0039617797 0)
(1.3821012 0.0036974021 0)
(1.3881402 0.0034515877 0)
(1.3937533 0.0032225243 0)
(1.3989728 0.0030087763 0)
(1.403828 0.0028091651 0)
(1.4083456 0.0026226873 0)
(1.4125503 0.0024484588 0)
(1.4164646 0.0022856812 0)
(1.4201094 0.0021336194 0)
(1.423504 0.0019915897 0)
(1.426666 0.0018589515 0)
(1.4296121 0.0017351025 0)
(1.4323573 0.0016194761 0)
(1.4349158 0.0015115386 0)
(1.4373007 0.0014107879 0)
(1.439524 0.0013167519 0)
(1.4415969 0.0012289867 0)
(1.4435299 0.0011470755 0)
(1.4453325 0.0010706265 0)
(1.4470137 0.00099927203 0)
(1.4485819 0.00093266617 0)
(1.4500446 0.00087048368 0)
(1.451409 0.00081241841 0)
(1.4526817 0.00075818172 0)
(1.4538689 0.00070750146 0)
(1.4549762 0.00066012041 0)
(1.4560088 0.00061579591 0)
(1.4569715 0.00057429868 0)
(1.4578688 0.00053541212 0)
(1.4587048 0.00049893234 0)
(1.4594832 0.00046466829 0)
(1.4602075 0.00043244151 0)
(1.4608808 0.00040208684 0)
(1.4615061 0.00037345261 0)
(1.462086 0.00034640129 0)
(1.462623 0.00032080987 0)
(1.4631194 0.00029657019 0)
(1.4635772 0.00027358906 0)
(1.4639985 0.00025178797 0)
(1.4643851 0.0002311028 0)
(1.4647388 0.00021148264 0)
(1.4650613 0.00019288898 0)
(1.4653543 0.0001752937 0)
(1.4656194 0.00015867781 0)
(1.4658583 0.00014302875 0)
(1.4660725 0.00012833898 0)
(1.4662638 0.000114603 0)
(1.4664336 0.00010181599 0)
(1.4665835 8.9971145e-05 0)
(1.4667152 7.9058724e-05 0)
(1.4668301 6.9064146e-05 0)
(1.4669298 5.9967436e-05 0)
(1.4670157 5.1742737e-05 0)
(1.4670893 4.4358096e-05 0)
(1.4671519 3.7775561e-05 0)
(1.4672048 3.1951873e-05 0)
(1.4672491 2.6839195e-05 0)
(1.4672861 2.238605e-05 0)
(1.4673166 1.8538582e-05 0)
(1.4673417 1.5241335e-05 0)
(1.4673621 1.2438999e-05 0)
(1.4673786 1.0076686e-05 0)
(1.4673918 8.1020383e-06 0)
(1.4674024 6.4649634e-06 0)
(1.4674107 5.1194487e-06 0)
(1.4674173 4.0228238e-06 0)
(1.4674223 3.1371526e-06 0)
(1.4674263 2.4279397e-06 0)
(1.4674292 1.8656132e-06 0)
(1.4674316 1.4232996e-06 0)
(1.4674332 1.079358e-06 0)
(1.4674346 8.1338377e-07 0)
(1.4674354 6.111881e-07 0)
(1.4674362 4.5619024e-07 0)
(1.4674366 3.442346e-07 0)
(1.4674372 2.5537397e-07 0)
(1.4674372 2.0595953e-07 0)
(1.4674378 1.494187e-07 0)
(1.0005903 -0.0034629159 0)
(1.0136865 -0.0093660197 0)
(1.0370283 -0.013046806 0)
(1.0674202 -0.014563261 0)
(1.1000315 -0.014854524 0)
(1.1316428 -0.014564991 0)
(1.1610745 -0.013888338 0)
(1.1880674 -0.012919245 0)
(1.2125205 -0.011806506 0)
(1.2343939 -0.010696426 0)
(1.2538077 -0.0096727417 0)
(1.2710339 -0.0087628216 0)
(1.286401 -0.0079659732 0)
(1.3002112 -0.007272214 0)
(1.3127102 -0.0066688078 0)
(1.3240903 -0.0061419242 0)
(1.3345036 -0.0056780707 0)
(1.3440716 -0.005265319 0)
(1.3528927 -0.0048939327 0)
(1.3610463 -0.0045563929 0)
(1.3685975 -0.0042470665 0)
(1.3756004 -0.0039617722 0)
(1.3821012 -0.0036973936 0)
(1.3881402 -0.003451578 0)
(1.3937533 -0.0032225135 0)
(1.3989728 -0.0030087642 0)
(1.403828 -0.0028091514 0)
(1.4083456 -0.0026226716 0)
(1.4125503 -0.0024484409 0)
(1.4164646 -0.0022856607 0)
(1.4201095 -0.0021335962 0)
(1.423504 -0.0019915635 0)
(1.4266661 -0.0018589224 0)
(1.4296121 -0.0017350705 0)
(1.4323573 -0.0016194415 0)
(1.4349158 -0.0015115016 0)
(1.4373007 -0.0014107488 0)
(1.439524 -0.001316711 0)
(1.4415969 -0.0012289443 0)
(1.4435299 -0.001147032 0)
(1.4453325 -0.0010705824 0)
(1.4470138 -0.00099922804 0)
(1.4485819 -0.00093262322 0)
(1.4500446 -0.00087044301 0)
(1.4514091 -0.00081238143 0)
(1.4526818 -0.00075815019 0)
(1.453869 -0.000707477 0)
(1.4549762 -0.00066010508 0)
(1.4560088 -0.00061579108 0)
(1.4569715 -0.00057430563 0)
(1.4578688 -0.00053543169 0)
(1.4587048 -0.00049896586 0)
(1.4594832 -0.00046471573 0)
(1.4602075 -0.00043250349 0)
(1.4608809 -0.00040216238 0)
(1.4615062 -0.00037354153 0)
(1.4620861 -0.00034650162 0)
(1.4626231 -0.00032092068 0)
(1.4631194 -0.00029668863 0)
(1.4635772 -0.00027371356 0)
(1.4639985 -0.00025191516 0)
(1.464385 -0.00023123088 0)
(1.4647387 -0.00021160819 0)
(1.4650612 -0.00019301028 0)
(1.4653542 -0.00017540763 0)
(1.4656193 -0.00015878293 0)
(1.4658582 -0.00014312245 0)
(1.4660724 -0.00012842011 0)
(1.4662637 -0.00011466973 0)
(1.4664335 -0.0001018678 0)
(1.4665834 -9.0007606e-05 0)
(1.466715 -7.9080365e-05 0)
(1.46683 -6.9072073e-05 0)
(1.4669296 -5.996334e-05 0)
(1.4670156 -5.1728523e-05 0)
(1.4670892 -4.4335112e-05 0)
(1.4671518 -3.7745408e-05 0)
(1.4672047 -3.1915192e-05 0)
(1.467249 -2.6797257e-05 0)
(1.467286 -2.233904e-05 0)
(1.4673165 -1.8488142e-05 0)
(1.4673416 -1.5187873e-05 0)
(1.467362 -1.2384887e-05 0)
(1.4673785 -1.0022701e-05 0)
(1.4673918 -8.0505152e-06 0)
(1.4674023 -6.4160235e-06 0)
(1.4674107 -5.074312e-06 0)
(1.4674172 -3.9805016e-06 0)
(1.4674223 -3.0979935e-06 0)
(1.4674262 -2.3905637e-06 0)
(1.4674292 -1.8303449e-06 0)
(1.4674315 -1.3890976e-06 0)
(1.4674332 -1.0466909e-06 0)
(1.4674345 -7.8120047e-07 0)
(1.4674354 -5.8048642e-07 0)
(1.4674362 -4.2640424e-07 0)
(1.4674366 -3.1680126e-07 0)
(1.4674372 -2.301922e-07 0)
(1.4674372 -1.8336495e-07 0)
(1.4674378 -1.2678678e-07 0)
(1.0007347 -0.011814722 0)
(1.0178472 -0.030860927 0)
(1.0462163 -0.041434441 0)
(1.0799018 -0.04519357 0)
(1.1132664 -0.045502351 0)
(1.143782 -0.044080307 0)
(1.1708941 -0.041439982 0)
(1.1945687 -0.037973677 0)
(1.2148582 -0.034195729 0)
(1.2319652 -0.030536886 0)
(1.2462683 -0.027222044 0)
(1.2582339 -0.02431392 0)
(1.2683135 -0.021797888 0)
(1.2768875 -0.019633659 0)
(1.2842554 -0.017773826 0)
(1.2906479 -0.016169651 0)
(1.296243 -0.014775589 0)
(1.3011791 -0.013552296 0)
(1.3055645 -0.012467861 0)
(1.3094838 -0.011497463 0)
(1.3130042 -0.010622159 0)
(1.3161792 -0.0098275099 0)
(1.3190526 -0.0091024075 0)
(1.3216607 -0.0084381731 0)
(1.3240343 -0.0078279 0)
(1.3261995 -0.0072659702 0)
(1.3281786 -0.0067477039 0)
(1.3299913 -0.0062691112 0)
(1.3316545 -0.0058267209 0)
(1.3331829 -0.0054174658 0)
(1.3345896 -0.0050386038 0)
(1.3358862 -0.0046876644 0)
(1.3370827 -0.0043624094 0)
(1.3381883 -0.0040608033 0)
(1.3392108 -0.0037809909 0)
(1.3401576 -0.0035212772 0)
(1.3410349 -0.0032801123 0)
(1.3418486 -0.0030560764 0)
(1.3426038 -0.0028478677 0)
(1.3433051 -0.0026542907 0)
(1.3439569 -0.0024742462 0)
(1.3445628 -0.0023067209 0)
(1.3451264 -0.0021507795 0)
(1.3456509 -0.0020055561 0)
(1.3461391 -0.0018702476 0)
(1.3465935 -0.0017441067 0)
(1.3470168 -0.0016264367 0)
(1.3474108 -0.0015165864 0)
(1.3477778 -0.0014139469 0)
(1.3481194 -0.0013179474 0)
(1.3484374 -0.0012280537 0)
(1.3487332 -0.0011437663 0)
(1.3490081 -0.0010646206 0)
(1.3492634 -0.0009901858 0)
(1.3495002 -0.00092006667 0)
(1.3497195 -0.00085390275 0)
(1.3499223 -0.00079137131 0)
(1.3501094 -0.00073218587 0)
(1.3502816 -0.00067609893 0)
(1.3504396 -0.00062289954 0)
(1.3505842 -0.00057241465 0)
(1.350716 -0.00052450515 0)
(1.3508357 -0.00047906522 0)
(1.3509439 -0.00043601686 0)
(1.3510413 -0.00039530738 0)
(1.3511286 -0.00035690279 0)
(1.3512063 -0.00032078385 0)
(1.3512751 -0.00028693952 0)
(1.3513357 -0.00025536245 0)
(1.3513887 -0.00022604336 0)
(1.3514348 -0.00019896675 0)
(1.3514746 -0.00017410711 0)
(1.3515087 -0.00015142564 0)
(1.3515377 -0.00013086882 0)
(1.3515622 -0.00011236724 0)
(1.3515828 -9.58362e-05 0)
(1.3515998 -8.1176326e-05 0)
(1.3516139 -6.8276337e-05 0)
(1.3516255 -5.7014778e-05 0)
(1.3516349 -4.7263702e-05 0)
(1.3516424 -3.8890386e-05 0)
(1.3516484 -3.1761178e-05 0)
(1.3516531 -2.5742979e-05 0)
(1.3516568 -2.0706309e-05 0)
(1.3516597 -1.6527069e-05 0)
(1.351662 -1.3088613e-05 0)
(1.3516636 -1.0283613e-05 0)
(1.351665 -8.0148125e-06 0)
(1.3516659 -6.1956947e-06 0)
(1.3516667 -4.7504756e-06 0)
(1.3516671 -3.6129629e-06 0)
(1.3516676 -2.7265422e-06 0)
(1.3516678 -2.0423573e-06 0)
(1.351668 -1.5190932e-06 0)
(1.3516681 -1.124399e-06 0)
(1.3516683 -8.2722032e-07 0)
(1.3516683 -6.1478673e-07 0)
(1.3516685 -4.543514e-07 0)
(1.3516683 -3.6661998e-07 0)
(1.3516687 -2.7265854e-07 0)
(1.0014244 -0.026824855 0)
(1.0291272 -0.062791352 0)
(1.0654292 -0.077736553 0)
(1.098962 -0.0805972 0)
(1.1253149 -0.078285171 0)
(1.145053 -0.073153899 0)
(1.1594858 -0.066111278 0)
(1.1694287 -0.058162063 0)
(1.1755354 -0.050296754 0)
(1.1785738 -0.043150708 0)
(1.1793571 -0.036972825 0)
(1.1785949 -0.031771632 0)
(1.1768304 -0.027451839 0)
(1.1744518 -0.023886767 0)
(1.1717287 -0.020947619 0)
(1.1688444 -0.01851578 0)
(1.1659195 -0.016488084 0)
(1.1630317 -0.014779501 0)
(1.1602295 -0.013322983 0)
(1.1575415 -0.01206713 0)
(1.1549828 -0.010972998 0)
(1.1525601 -0.010011059 0)
(1.1502747 -0.0091587442 0)
(1.1481246 -0.0083986018 0)
(1.1461059 -0.0077169483 0)
(1.1442135 -0.0071028859 0)
(1.1424415 -0.0065475893 0)
(1.1407838 -0.0060437923 0)
(1.1392344 -0.0055854224 0)
(1.1377869 -0.0051673403 0)
(1.1364354 -0.0047851522 0)
(1.1351739 -0.0044350713 0)
(1.1339968 -0.004113812 0)
(1.1328988 -0.003818508 0)
(1.1318747 -0.0035466469 0)
(1.1309196 -0.0032960174 0)
(1.130029 -0.0030646652 0)
(1.1291986 -0.0028508569 0)
(1.1284244 -0.002653049 0)
(1.1277025 -0.002469862 0)
(1.1270294 -0.0023000577 0)
(1.1264018 -0.0021425204 0)
(1.1258166 -0.0019962398 0)
(1.125271 -0.0018602975 0)
(1.1247622 -0.0017338543 0)
(1.1242878 -0.0016161403 0)
(1.1238455 -0.0015064459 0)
(1.1234332 -0.0014041148 0)
(1.1230488 -0.0013085389 0)
(1.1226904 -0.0012191528 0)
(1.1223565 -0.0011354325 0)
(1.1220454 -0.0010568913 0)
(1.1217557 -0.00098308182 0)
(1.1214861 -0.00091359224 0)
(1.1212352 -0.00084805087 0)
(1.1210021 -0.00078612202 0)
(1.1207857 -0.00072751212 0)
(1.120585 -0.000671964 0)
(1.1203992 -0.00061926337 0)
(1.1202274 -0.00056923088 0)
(1.1200689 -0.00052172773 0)
(1.1199231 -0.00047664513 0)
(1.1197892 -0.00043390856 0)
(1.1196667 -0.00039346529 0)
(1.119555 -0.00035528704 0)
(1.1194535 -0.0003193566 0)
(1.1193615 -0.00028566956 0)
(1.1192787 -0.00025422173 0)
(1.1192044 -0.00022501008 0)
(1.119138 -0.00019802267 0)
(1.1190791 -0.00017323899 0)
(1.1190271 -0.00015062363 0)
(1.1189814 -0.00013012647 0)
(1.1189416 -0.00011168059 0)
(1.118907 -9.5202775e-05 0)
(1.1188773 -8.0594984e-05 0)
(1.1188518 -6.7745709e-05 0)
(1.1188302 -5.6534128e-05 0)
(1.118812 -4.6831031e-05 0)
(1.1187967 -3.8504588e-05 0)
(1.118784 -3.1419546e-05 0)
(1.1187735 -2.5444229e-05 0)
(1.118765 -2.044755e-05 0)
(1.118758 -1.6306576e-05 0)
(1.1187524 -1.2902937e-05 0)
(1.1187479 -1.0129815e-05 0)
(1.1187443 -7.8884177e-06 0)
(1.1187416 -6.0929672e-06 0)
(1.1187394 -4.666766e-06 0)
(1.1187377 -3.545472e-06 0)
(1.1187364 -2.6720092e-06 0)
(1.1187354 -1.9995036e-06 0)
(1.1187347 -1.4862399e-06 0)
(1.1187341 -1.0991368e-06 0)
(1.1187337 -8.1004025e-07 0)
(1.1187334 -5.9707316e-07 0)
(1.1187331 -4.4661319e-07 0)
(1.1187331 -3.4362917e-07 0)
(1.1187328 -2.8995878e-07 0)
(1.118733 -2.5044465e-07 0)
(1.0016583 -0.05381943 0)
(1.0359761 -0.10128444 0)
(1.0597199 -0.11073663 0)
(1.0628947 -0.10592202 0)
(1.0515569 -0.096228728 0)
(1.0340529 -0.083934061 0)
(1.0142795 -0.070327063 0)
(0.99360703 -0.056981333 0)
(0.97292577 -0.045107479 0)
(0.9531074 -0.03523675 0)
(0.93479538 -0.02740165 0)
(0.91829012 -0.021387227 0)
(0.90362379 -0.016884498 0)
(0.89068067 -0.013569709 0)
(0.87928175 -0.011147748 0)
(0.86923242 -0.0093736587 0)
(0.86034424 -0.0080569279 0)
(0.85244667 -0.007057127 0)
(0.84539242 -0.0062752375 0)
(0.83905793 -0.0056438273 0)
(0.83334127 -0.0051180895 0)
(0.82815884 -0.0046686707 0)
(0.82344213 -0.0042764159 0)
(0.81913468 -0.0039287376 0)
(0.81518962 -0.0036172027 0)
(0.81156766 -0.0033359699 0)
(0.80823545 -0.0030808036 0)
(0.80516442 -0.0028484684 0)
(0.80232981 -0.0026363684 0)
(0.79971001 -0.0024423376 0)
(0.797286 -0.0022645182 0)
(0.79504089 -0.0021012902 0)
(0.79295966 -0.0019512271 0)
(0.79102884 -0.0018130666 0)
(0.78923632 -0.0016856887 0)
(0.78757116 -0.0015680982 0)
(0.78602346 -0.0014594095 0)
(0.78458422 -0.0013588337 0)
(0.78324527 -0.0012656657 0)
(0.78199913 -0.0011792743 0)
(0.78083896 -0.0010990921 0)
(0.77975852 -0.0010246066 0)
(0.77875207 -0.00095535312 0)
(0.77781436 -0.00089090829 0)
(0.77694055 -0.0008308839 0)
(0.77612622 -0.00077492303 0)
(0.77536728 -0.00072269524 0)
(0.77466 -0.00067389472 0)
(0.77400093 -0.00062823644 0)
(0.77338696 -0.00058545637 0)
(0.77281518 -0.00054530837 0)
(0.77228297 -0.00050756605 0)
(0.77178792 -0.00047202006 0)
(0.77132784 -0.00043848125 0)
(0.7709007 -0.00040677808 0)
(0.77050469 -0.0003767603 0)
(0.77013809 -0.00034829577 0)
(0.76979936 -0.00032127425 0)
(0.76948705 -0.00029560333 0)
(0.76919982 -0.00027121144 0)
(0.76893638 -0.00024804265 0)
(0.76869551 -0.00022605866 0)
(0.76847603 -0.00020523292 0)
(0.76827681 -0.00018555141 0)
(0.7680967 -0.0001670065 0)
(0.7679346 -0.00014959697 0)
(0.76778939 -0.00013332255 0)
(0.76765996 -0.00011818334 0)
(0.76754521 -0.00010417571 0)
(0.76744404 -9.1291265e-05 0)
(0.76735536 -7.9514742e-05 0)
(0.76727809 -6.8822668e-05 0)
(0.76721119 -5.9183479e-05 0)
(0.76715364 -5.0556302e-05 0)
(0.76710447 -4.289305e-05 0)
(0.76706273 -3.6137733e-05 0)
(0.76702757 -3.0230145e-05 0)
(0.76699815 -2.5104845e-05 0)
(0.76697372 -2.0695823e-05 0)
(0.76695356 -1.6934214e-05 0)
(0.76693707 -1.3753841e-05 0)
(0.76692367 -1.1087235e-05 0)
(0.76691286 -8.8718205e-06 0)
(0.76690421 -7.0453679e-06 0)
(0.76689735 -5.5528833e-06 0)
(0.76689195 -4.3414827e-06 0)
(0.76688774 -3.3673329e-06 0)
(0.76688447 -2.5890242e-06 0)
(0.76688197 -1.9749332e-06 0)
(0.76688006 -1.4937394e-06 0)
(0.76687862 -1.1233372e-06 0)
(0.76687753 -8.3897486e-07 0)
(0.7668767 -6.2580897e-07 0)
(0.76687611 -4.6427677e-07 0)
(0.76687564 -3.4647237e-07 0)
(0.76687534 -2.5933331e-07 0)
(0.76687506 -2.0303999e-07 0)
(0.76687495 -1.6946761e-07 0)
(0.76687468 -1.6333288e-07 0)
(0.76687472 -1.7972442e-07 0)
(0.91890839 -0.035821913 0)
(0.86271384 -0.062195638 0)
(0.7870597 -0.06251009 0)
(0.69536033 -0.054550395 0)
(0.61089745 -0.044531651 0)
(0.54411592 -0.034015971 0)
(0.49343012 -0.024187539 0)
(0.45479413 -0.01614423 0)
(0.42544582 -0.010265786 0)
(0.40347313 -0.0063041453 0)
(0.38715766 -0.0037976294 0)
(0.3749622 -0.0023103381 0)
(0.36566193 -0.0014930148 0)
(0.35836272 -0.0010851181 0)
(0.35244268 -0.00090607222 0)
(0.34748201 -0.00084105168 0)
(0.34320348 -0.00082372408 0)
(0.33942726 -0.00081931027 0)
(0.33603793 -0.00081185177 0)
(0.33296114 -0.00079580094 0)
(0.33014778 -0.00077081119 0)
(0.32756384 -0.00073870931 0)
(0.3251842 -0.0007018893 0)
(0.32298902 -0.00066256586 0)
(0.32096172 -0.00062249995 0)
(0.31908785 -0.00058295799 0)
(0.31735449 -0.00054477226 0)
(0.31574996 -0.00050843501 0)
(0.31426361 -0.00047419277 0)
(0.31288575 -0.00044212635 0)
(0.31160756 -0.0004122122 0)
(0.31042101 -0.00038436587 0)
(0.30931882 -0.0003584713 0)
(0.30829437 -0.00033439934 0)
(0.30734162 -0.00031201899 0)
(0.30645512 -0.00029120373 0)
(0.30562985 -0.00027183461 0)
(0.30486129 -0.00025380159 0)
(0.30414525 -0.00023700353 0)
(0.30347794 -0.00022134783 0)
(0.30285586 -0.00020674952 0)
(0.3022758 -0.00019313057 0)
(0.3017348 -0.00018041886 0)
(0.30123015 -0.00016854765 0)
(0.30075936 -0.00015745455 0)
(0.30032012 -0.00014708151 0)
(0.29991031 -0.00013737367 0)
(0.29952798 -0.0001282799 0)
(0.29917134 -0.0001197514 0)
(0.29883875 -0.00011174312 0)
(0.29852869 -0.00010421175 0)
(0.2982398 -9.7118038e-05 0)
(0.29797081 -9.042421e-05 0)
(0.29772056 -8.409723e-05 0)
(0.29748802 -7.810552e-05 0)
(0.29727221 -7.2422837e-05 0)
(0.29707226 -6.7024363e-05 0)
(0.29688736 -6.1891258e-05 0)
(0.29671675 -5.7005916e-05 0)
(0.29655972 -5.2356729e-05 0)
(0.2964156 -4.793282e-05 0)
(0.29628376 -4.3728909e-05 0)
(0.29616358 -3.9739684e-05 0)
(0.29605443 -3.5964374e-05 0)
(0.29595574 -3.2401272e-05 0)
(0.29586689 -2.905188e-05 0)
(0.2957873 -2.5916048e-05 0)
(0.29571635 -2.2995307e-05 0)
(0.29565346 -2.0289122e-05 0)
(0.29559801 -1.7797054e-05 0)
(0.29554942 -1.5516535e-05 0)
(0.29550709 -1.344379e-05 0)
(0.29547046 -1.1573169e-05 0)
(0.29543895 -9.8969903e-06 0)
(0.29541205 -8.406392e-06 0)
(0.29538922 -7.0904794e-06 0)
(0.29537 -5.9383207e-06 0)
(0.29535392 -4.9370211e-06 0)
(0.29534058 -4.0748775e-06 0)
(0.29532958 -3.3381804e-06 0)
(0.29532059 -2.7153778e-06 0)
(0.29531328 -2.1924689e-06 0)
(0.29530738 -1.7582651e-06 0)
(0.29530267 -1.3993444e-06 0)
(0.29529893 -1.1059069e-06 0)
(0.29529598 -8.6632797e-07 0)
(0.29529369 -6.7331454e-07 0)
(0.29529191 -5.1786178e-07 0)
(0.29529055 -3.9558655e-07 0)
(0.29528952 -2.9927811e-07 0)
(0.29528873 -2.2630704e-07 0)
(0.29528813 -1.7010558e-07 0)
(0.29528768 -1.2939302e-07 0)
(0.29528735 -9.774439e-08 0)
(0.29528709 -7.5886551e-08 0)
(0.29528691 -5.9828396e-08 0)
(0.29528676 -5.2311159e-08 0)
(0.29528666 -5.0374931e-08 0)
(0.29528652 -6.3591556e-08 0)
(0.29528642 -8.0170295e-08 0)
)
;

boundaryField
{
    top
    {
        type            fixedValue;
        value           uniform (0 0 0);
    }
    inlet
    {
        type            fixedValue;
        value           uniform (1 0 0);
    }
    outlet
    {
        type            zeroGradient;
    }
    bottom
    {
        type            fixedValue;
        value           uniform (0 0 0);
    }
    back
    {
        type            empty;
    }
    front
    {
        type            empty;
    }
}


// ************************************************************************* //
