/*--------------------------------*- C++ -*----------------------------------*\
  =========                 |
  \\      /  F ield         | OpenFOAM: The Open Source CFD Toolbox
   \\    /   O peration     | Website:  https://openfoam.org
    \\  /    A nd           | Version:  9
     \\/     M anipulation  |
\*---------------------------------------------------------------------------*/
FoamFile
{
    format      ascii;
    class       volScalarField;
    location    "17";
    object      p;
}
// * * * * * * * * * * * * * * * * * * * * * * * * * * * * * * * * * * * * * //

dimensions      [0 2 -2 0 0 0 0];

internalField   nonuniform List<scalar> 
1000
(
1.6755989
1.554521
1.4585405
1.3948844
1.3463749
1.3039029
1.2663676
1.2341959
1.2067955
1.1829579
1.1615636
1.1417998
1.1231227
1.1051831
1.0877678
1.0707536
1.0540727
1.0376885
1.0215803
1.0057344
0.99013941
0.97478432
0.95965763
0.9447474
0.93004139
0.91552739
0.90119341
0.88702789
0.87301983
0.85915883
0.84543512
0.83183958
0.81836369
0.80499953
0.79173969
0.77857732
0.765506
0.75251979
0.73961312
0.7267808
0.714018
0.70132019
0.68868316
0.67610294
0.66357586
0.65109846
0.63866752
0.62628002
0.61393317
0.60162431
0.58935099
0.57711089
0.56490187
0.55272189
0.54056906
0.52844161
0.5163379
0.50425637
0.49219559
0.48015422
0.46813097
0.45612468
0.44413424
0.4321586
0.42019679
0.40824791
0.39631111
0.38438561
0.37247066
0.36056558
0.34866972
0.33678249
0.32490332
0.31303168
0.30116706
0.289309
0.27745707
0.26561087
0.25377002
0.24193419
0.23010305
0.21827629
0.20645363
0.19463478
0.18281949
0.17100752
0.15919865
0.14739269
0.13558943
0.12378872
0.11199038
0.10019426
0.088400229
0.076608131
0.064817826
0.053029196
0.041242192
0.029456628
0.017672691
0.0058897192
1.5583792
1.5034501
1.4424976
1.3909299
1.3476599
1.3086916
1.2731053
1.2413327
1.2133718
1.1885939
1.1661921
1.1454907
1.1260091
1.107421
1.0895074
1.0721227
1.0551708
1.0385894
1.0223367
1.0063833
0.99070624
0.97528672
0.96010787
0.94515421
0.93041115
0.91586491
0.90150249
0.88731161
0.87328077
0.8593992
0.84565684
0.83204434
0.818553
0.80517471
0.79190195
0.77872773
0.76564554
0.75264933
0.73973345
0.72689265
0.71412202
0.70141697
0.68877323
0.6761868
0.66365395
0.6511712
0.6387353
0.62634321
0.61399207
0.60167924
0.58940222
0.57715868
0.56494645
0.55276348
0.54060786
0.52847782
0.51637168
0.50428791
0.49222503
0.4801817
0.46815663
0.45614864
0.44415661
0.43217948
0.42021629
0.40826611
0.3963281
0.38440147
0.37248547
0.36057941
0.34868265
0.33679457
0.32491461
0.31304222
0.30117689
0.28931818
0.27746563
0.26561886
0.25377749
0.24194118
0.23010958
0.2182824
0.20645933
0.19464011
0.18282446
0.17101216
0.15920298
0.14739672
0.1355932
0.12379225
0.11199367
0.10019735
0.088403114
0.07661082
0.064820321
0.05303148
0.041244333
0.029458511
0.017674389
0.0058905704
1.497558
1.4713829
1.432986
1.3918531
1.3527678
1.316177
1.2818793
1.2501618
1.2213057
1.1952047
1.1714507
1.1495607
1.1291109
1.10977
1.0912898
1.0734887
1.0562369
1.0394413
1.0230352
1.0069701
0.99120977
0.97572609
0.96049621
0.9455007
0.93072241
0.9161459
0.90175706
0.88754289
0.87349136
0.85959132
0.84583241
0.83220504
0.8187003
0.80530993
0.79202626
0.77884215
0.765751
0.75274665
0.73982337
0.72697581
0.71419899
0.70148827
0.68883932
0.6762481
0.66371084
0.65122404
0.63878439
0.62638885
0.61403453
0.60171876
0.58943901
0.57719294
0.56497836
0.55279319
0.54063554
0.5285036
0.51639571
0.50431031
0.49224593
0.4802012
0.46817484
0.45616563
0.44417246
0.43219427
0.42023007
0.40827896
0.39634008
0.38441265
0.37249591
0.36058917
0.34869178
0.33680311
0.32492258
0.31304965
0.30118382
0.28932463
0.27747164
0.26562447
0.25378274
0.24194609
0.23011419
0.21828671
0.20646336
0.19464387
0.18282796
0.17101541
0.159206
0.14739954
0.13559584
0.12379473
0.111996
0.10019952
0.088405129
0.076612703
0.064822024
0.053033018
0.041245669
0.029459703
0.017675113
0.0058910567
1.4681494
1.4526513
1.4257814
1.3918575
1.3560565
1.3211052
1.2878033
1.2564502
1.2273196
1.2005281
1.1759406
1.1532484
1.1320965
1.1121677
1.0932095
1.0750298
1.0574841
1.0404631
1.0238845
1.0076865
0.99182253
0.97625678
0.96096079
0.94591108
0.93108763
0.91647288
0.90205125
0.88780863
0.8737322
0.85981021
0.84603185
0.83238716
0.81886692
0.80546265
0.79216646
0.77897108
0.76586973
0.75285613
0.73992444
0.72706921
0.71428539
0.70156825
0.68891342
0.67631679
0.66377457
0.6512832
0.63883935
0.62643994
0.61408204
0.60176296
0.58948015
0.57723123
0.565014
0.55282637
0.54066644
0.52853239
0.51642255
0.50433533
0.49226927
0.48022298
0.46819516
0.45618458
0.44419013
0.43221074
0.42024542
0.40829328
0.39635345
0.38442513
0.37250758
0.36060008
0.34870196
0.33681261
0.32493144
0.31305791
0.30119151
0.2893318
0.27747834
0.26563074
0.25378861
0.24195159
0.23011933
0.21829152
0.20646784
0.19464803
0.18283183
0.17101902
0.15920936
0.1474027
0.13559879
0.12379751
0.1119986
0.10020196
0.088407329
0.076614731
0.064823866
0.053034829
0.041247185
0.029461122
0.017675941
0.0058920685
1.4554179
1.4434645
1.4212302
1.3909426
1.3570814
1.3230859
1.2903883
1.2593827
1.2302853
1.2032735
1.1783464
1.1552968
1.1338153
1.1135976
1.094394
1.0760118
1.058303
1.0411525
1.0244717
1.0081926
0.99226355
0.97664497
0.96130543
0.94621925
0.93136478
0.91672331
0.90227834
0.88801517
0.8739205
0.85998222
0.84618925
0.83253141
0.81899932
0.80558433
0.79227845
0.77907426
0.7659649
0.752944
0.74000563
0.72714429
0.71435487
0.70163259
0.68897304
0.67637208
0.66382589
0.65133086
0.63888365
0.62648111
0.61412034
0.60179858
0.58951328
0.57726205
0.56504268
0.55285307
0.54069131
0.52855557
0.51644417
0.50435551
0.49228809
0.48024053
0.46821151
0.45619981
0.44420432
0.43222396
0.42025776
0.4083048
0.39636421
0.3844352
0.37251699
0.36060887
0.34871016
0.33682024
0.32493854
0.31306451
0.30119768
0.28933757
0.27748375
0.26563582
0.25379337
0.24195604
0.23012348
0.21829537
0.2064714
0.19465135
0.18283492
0.17102192
0.15921208
0.14740526
0.1356012
0.12379977
0.11200071
0.10020392
0.088409042
0.076616279
0.064825332
0.053036413
0.041248522
0.029462319
0.017676669
0.0058930289
1.4554179
1.4434645
1.4212301
1.3909426
1.3570814
1.3230859
1.2903883
1.2593827
1.2302853
1.2032735
1.1783464
1.1552968
1.1338153
1.1135976
1.0943941
1.0760119
1.058303
1.0411525
1.0244717
1.0081925
0.99226353
0.97664495
0.96130541
0.94621925
0.93136479
0.91672333
0.90227837
0.88801519
0.87392051
0.85998221
0.84618923
0.83253138
0.8189993
0.80558432
0.79227845
0.77907427
0.76596493
0.75294403
0.74000565
0.7271443
0.71435485
0.70163257
0.68897302
0.67637207
0.66382589
0.65133087
0.63888366
0.62648114
0.61412035
0.60179858
0.58951327
0.57726203
0.56504265
0.55285305
0.5406913
0.52855558
0.51644419
0.50435553
0.49228812
0.48024054
0.4682115
0.4561998
0.44420429
0.43222394
0.42025774
0.4083048
0.39636423
0.38443522
0.37251701
0.36060888
0.34871016
0.33682023
0.32493851
0.31306448
0.30119765
0.28933756
0.27748377
0.26563585
0.25379341
0.24195607
0.23012348
0.21829535
0.20647138
0.19465132
0.1828349
0.17102191
0.15921209
0.14740529
0.13560122
0.12379979
0.11200071
0.1002039
0.088408987
0.076616249
0.064825376
0.053036485
0.041248543
0.029462282
0.017676633
0.0058930192
1.4681494
1.4526513
1.4257814
1.3918575
1.3560566
1.3211053
1.2878033
1.2564502
1.2273195
1.2005281
1.1759405
1.1532483
1.1320965
1.1121677
1.0932095
1.0750299
1.0574841
1.0404631
1.0238845
1.0076865
0.99182248
0.97625673
0.96096076
0.94591108
0.93108765
0.91647293
0.90205129
0.88780866
0.87373221
0.8598102
0.84603182
0.83238711
0.81886688
0.80546263
0.79216647
0.77897111
0.76586978
0.75285618
0.73992446
0.72706921
0.71428536
0.70156821
0.68891337
0.67631677
0.66377457
0.65128322
0.63883939
0.62643998
0.61408207
0.60176297
0.58948013
0.57723119
0.56501395
0.55282634
0.54066643
0.52853241
0.51642259
0.50433539
0.49226932
0.480223
0.46819514
0.45618454
0.44419008
0.43221069
0.4202454
0.40829328
0.39635348
0.38442518
0.37250762
0.3606001
0.34870195
0.33681257
0.32493138
0.31305784
0.30119148
0.28933181
0.27747839
0.26563081
0.25378868
0.24195164
0.23011934
0.21829149
0.20646779
0.19464798
0.18283179
0.17101901
0.15920938
0.14740274
0.13559884
0.12379754
0.1119986
0.1002019
0.088407227
0.07661469
0.06482397
0.053034974
0.041247203
0.029461035
0.017675878
0.0058920559
1.4975579
1.4713828
1.432986
1.3918531
1.3527679
1.3161771
1.2818794
1.2501618
1.2213057
1.1952047
1.1714507
1.1495607
1.1291109
1.10977
1.0912898
1.0734888
1.0562369
1.0394413
1.0230352
1.0069701
0.99120974
0.97572605
0.96049619
0.94550069
0.93072242
0.91614593
0.90175709
0.88754292
0.87349137
0.85959131
0.84583239
0.83220501
0.81870028
0.80530992
0.79202626
0.77884217
0.76575103
0.75274668
0.73982339
0.72697581
0.71419897
0.70148824
0.68883929
0.67624808
0.66371084
0.65122405
0.63878442
0.62638888
0.61403455
0.60171876
0.589439
0.57719292
0.56497833
0.55279317
0.54063553
0.52850361
0.51639574
0.50431034
0.49224596
0.48020121
0.46817483
0.45616561
0.44417243
0.43219423
0.42023005
0.40827896
0.3963401
0.38441268
0.37249594
0.36058919
0.34869177
0.33680307
0.32492253
0.3130496
0.30118379
0.28932463
0.27747167
0.26562452
0.25378279
0.24194613
0.23011421
0.21828671
0.20646334
0.19464384
0.18282793
0.17101539
0.159206
0.14739956
0.13559586
0.12379474
0.11199598
0.10019948
0.088405077
0.076612703
0.064822097
0.053033091
0.041245672
0.02945966
0.017675082
0.0058910485
1.5583792
1.5034501
1.4424976
1.39093
1.3476599
1.3086916
1.2731053
1.2413327
1.2133718
1.1885939
1.1661921
1.1454907
1.1260091
1.107421
1.0895074
1.0721227
1.0551708
1.0385894
1.0223368
1.0063833
0.99070624
0.97528671
0.96010786
0.9451542
0.93041114
0.91586491
0.9015025
0.88731163
0.87328078
0.85939921
0.84565684
0.83204434
0.81855299
0.8051747
0.79190194
0.77872773
0.76564555
0.75264934
0.73973347
0.72689266
0.71412202
0.70141696
0.68877322
0.67618679
0.66365394
0.6511712
0.63873531
0.62634322
0.61399208
0.60167925
0.58940222
0.57715868
0.56494644
0.55276347
0.54060785
0.52847782
0.51637169
0.50428792
0.49222505
0.48018171
0.46815664
0.45614864
0.4441566
0.43217947
0.42021627
0.4082661
0.3963281
0.38440147
0.37248548
0.36057942
0.34868265
0.33679456
0.32491459
0.31304219
0.30117687
0.28931817
0.27746564
0.26561888
0.25377752
0.24194121
0.23010962
0.21828242
0.20645934
0.1946401
0.18282444
0.17101214
0.15920296
0.14739671
0.1355932
0.12379224
0.11199367
0.10019734
0.088403114
0.076610838
0.064820343
0.053031486
0.04124433
0.029458511
0.017674389
0.005890569
1.6755989
1.554521
1.4585405
1.3948844
1.3463749
1.3039028
1.2663676
1.2341959
1.2067955
1.1829579
1.1615636
1.1417998
1.1231227
1.1051831
1.0877678
1.0707536
1.0540727
1.0376885
1.0215803
1.0057344
0.99013942
0.97478432
0.95965762
0.94474739
0.93004138
0.91552738
0.90119341
0.8870279
0.87301985
0.85915884
0.84543513
0.83183959
0.81836369
0.80499952
0.79173968
0.77857731
0.765506
0.75251979
0.73961312
0.72678081
0.71401801
0.7013202
0.68868316
0.67610294
0.66357585
0.65109845
0.63866751
0.62628003
0.61393317
0.60162432
0.589351
0.5771109
0.56490187
0.55272188
0.54056905
0.5284416
0.51633789
0.50425638
0.4921956
0.48015423
0.46813099
0.45612469
0.44413424
0.43215859
0.42019678
0.4082479
0.3963111
0.3843856
0.37247065
0.36056558
0.34866973
0.33678249
0.32490332
0.31303166
0.30116704
0.28930898
0.27745706
0.26561087
0.25377004
0.24193423
0.23010309
0.21827633
0.20645365
0.19463478
0.18281947
0.1710075
0.15919863
0.14739267
0.13558942
0.12378871
0.11199038
0.10019427
0.088400245
0.07660814
0.06481782
0.053029187
0.041242194
0.02945664
0.0176727
0.0058897217
)
;

boundaryField
{
    top
    {
        type            zeroGradient;
    }
    inlet
    {
        type            zeroGradient;
    }
    outlet
    {
        type            fixedValue;
        value           uniform 0;
    }
    bottom
    {
        type            zeroGradient;
    }
    back
    {
        type            empty;
    }
    front
    {
        type            empty;
    }
}


// ************************************************************************* //
