/*--------------------------------*- C++ -*----------------------------------*\
  =========                 |
  \\      /  F ield         | OpenFOAM: The Open Source CFD Toolbox
   \\    /   O peration     | Website:  https://openfoam.org
    \\  /    A nd           | Version:  9
     \\/     M anipulation  |
\*---------------------------------------------------------------------------*/
FoamFile
{
    format      ascii;
    class       volScalarField;
    location    "5.5";
    object      Ma;
}
// * * * * * * * * * * * * * * * * * * * * * * * * * * * * * * * * * * * * * //

dimensions      [0 0 0 0 0 0 0];

internalField   nonuniform List<scalar> 
5250
(
3
2.99997
2.99991
2.99975
2.99942
2.99843
2.99643
2.99036
2.97814
2.94205
2.86207
2.64939
2.17271
1.28509
0.531257
0.26747
0.323043
0.338161
0.30455
0.249325
0.198306
0.157493
0.117081
0.0726065
0.0397413
3
2.99997
2.99992
2.99975
2.99943
2.99844
2.99652
2.99045
2.97856
2.94296
2.86425
2.65486
2.18418
1.30239
0.540259
0.268381
0.325287
0.341228
0.307865
0.253472
0.203662
0.164165
0.12582
0.0862732
0.0623207
3
2.99997
2.99991
2.99979
2.9994
2.99863
2.99634
2.99146
2.97802
2.94692
2.86621
2.66905
2.20769
1.34172
0.561428
0.273029
0.332255
0.350106
0.317641
0.265324
0.218189
0.181749
0.147922
0.116166
0.0997071
3
2.99997
2.99993
2.99977
2.99949
2.99855
2.99682
2.99132
2.98014
2.94818
2.87534
2.68422
2.24712
1.40354
0.593968
0.28214
0.344187
0.3649
0.333857
0.284384
0.240479
0.207735
0.178745
0.153289
0.140779
3
2.99998
2.99992
2.99981
2.99946
2.99881
2.99666
2.99274
2.97996
2.95444
2.88072
2.71036
2.29517
1.48867
0.638282
0.298867
0.362388
0.386031
0.356548
0.310145
0.269331
0.240088
0.215464
0.194716
0.184703
3
2.99998
2.99993
2.99981
2.99955
2.99879
2.99727
2.99257
2.98334
2.9555
2.89539
2.73225
2.35746
1.5959
0.695401
0.328724
0.389855
0.414951
0.386853
0.34336
0.305216
0.279105
0.258394
0.241887
0.234458
3
2.99998
2.99994
2.99984
2.99956
2.999
2.99726
2.99396
2.98338
2.9626
2.90155
2.76291
2.41579
1.71077
0.760023
0.365925
0.422911
0.447564
0.421871
0.382543
0.347644
0.324908
0.308373
0.296695
0.293667
3
2.99998
2.99995
2.99984
2.99964
2.99898
2.99778
2.9939
2.98617
2.96371
2.91374
2.78065
2.46759
1.80004
0.827126
0.402197
0.449642
0.471354
0.453396
0.422324
0.393738
0.376386
0.36603
0.361706
0.368472
3
2.99999
2.99995
2.99987
2.99964
2.99917
2.9978
2.99485
2.98684
2.96812
2.92038
2.803
2.51328
1.89175
0.920959
0.461319
0.470427
0.485376
0.481374
0.460988
0.441558
0.432408
0.431099
0.440642
0.470043
3
2.99999
2.99996
2.99988
2.9997
2.99922
2.9981
2.99529
2.98827
2.97156
2.92831
2.824
2.56205
1.98943
1.03915
0.532318
0.485617
0.501233
0.50809
0.498376
0.490143
0.490879
0.505239
0.543928
0.643312
3
2.99999
2.99996
2.9999
2.99972
2.99935
2.99827
2.99592
2.98968
2.97477
2.93746
2.84465
2.61399
2.09504
1.18357
0.615729
0.502901
0.520132
0.534921
0.535197
0.537417
0.551034
0.587653
0.66811
0.831731
3
2.99999
2.99997
2.99991
2.99978
2.99938
2.99865
2.99621
2.99168
2.97747
2.94778
2.86521
2.67087
2.211
1.36104
0.713983
0.527277
0.54439
0.563667
0.5721
0.583366
0.610059
0.664836
0.767691
0.940323
3
3
2.99998
2.99993
2.99981
2.99951
2.9988
2.99705
2.9926
2.9823
2.95485
2.89112
2.72561
2.34062
1.57617
0.829426
0.569413
0.581715
0.599099
0.612207
0.629456
0.664754
0.728374
0.830648
0.97824
3
3
2.99998
2.99994
2.99985
2.99959
2.99908
2.99747
2.99446
2.98472
2.96591
2.91012
2.78529
2.47066
1.82548
0.961188
0.632338
0.631012
0.643181
0.658253
0.677356
0.714069
0.77666
0.870652
0.993858
3.00001
3
2.99999
2.99996
2.99987
2.9997
2.99917
2.99816
2.9949
2.98887
2.96967
2.93042
2.82012
2.56573
1.99844
1.1004
0.699105
0.67044
0.684253
0.701216
0.722233
0.758685
0.815609
0.898521
1.0056
3.00001
3
2.99999
2.99997
2.9999
2.99975
2.99936
2.99843
2.99614
2.99038
2.97682
2.94151
2.85752
2.64447
2.16504
1.31022
0.802731
0.701304
0.713871
0.733943
0.760271
0.797091
0.849539
0.921564
1.01474
3.00001
3
2.99999
2.99998
2.99992
2.99981
2.99947
2.99885
2.99676
2.99295
2.98081
2.95596
2.88611
2.72379
2.33051
1.57047
0.932487
0.741475
0.744417
0.763943
0.793328
0.830264
0.879078
0.942738
1.02319
3.00001
3
3
2.99998
2.99995
2.99984
2.99964
2.99901
2.99785
2.99403
2.98693
2.96492
2.91881
2.79299
2.50533
1.89034
1.09311
0.806788
0.787465
0.801616
0.828397
0.863383
0.907414
0.963481
1.03283
3.00001
3
3
2.99999
2.99996
2.9999
2.9997
2.99932
2.9982
2.9958
2.98938
2.97429
2.93652
2.84348
2.61522
2.10927
1.27248
0.880063
0.824429
0.836826
0.861056
0.894905
0.934756
0.984265
1.04435
3.00001
3.00001
3
2.99999
2.99997
2.99991
2.9998
2.99944
2.99876
2.99664
2.99236
2.98011
2.95307
2.88115
2.71013
2.30523
1.54068
1.00528
0.866554
0.86902
0.88933
0.921858
0.9598
1.00429
1.05712
3.00001
3.00001
3
3
2.99998
2.99995
2.99984
2.99964
2.99902
2.99775
2.9942
2.98625
2.96573
2.91664
2.7939
2.50354
1.89157
1.17232
0.930037
0.908162
0.921306
0.949312
0.985279
1.02503
1.07131
3.00001
3.00001
3
3
2.99999
2.99996
2.99989
2.99972
2.99932
2.99834
2.99584
2.99022
2.97486
2.94114
2.85057
2.64027
2.16063
1.37735
1.00988
0.945738
0.954287
0.977252
1.01001
1.04599
1.08687
3.00001
3.00001
3.00001
3
2.99999
2.99997
2.99993
2.9998
2.99954
2.99875
2.99725
2.99246
2.98344
2.9557
2.89728
2.73897
2.38352
1.67814
1.14259
0.994575
0.988251
1.00265
1.03104
1.06607
1.10349
3.00001
3.00001
3.00001
3
3
2.99999
2.99995
2.99987
2.99967
2.99918
2.99806
2.99501
2.98858
2.97019
2.93117
2.82508
2.58441
2.05037
1.33388
1.06807
1.02712
1.03384
1.05555
1.08687
1.12149
3.00001
3.00001
3.00001
3
3
2.99999
2.99997
2.99991
2.99979
2.99941
2.99872
2.99646
2.99233
2.97925
2.953
2.87906
2.71111
2.31245
1.59513
1.17317
1.06949
1.06524
1.07884
1.10616
1.13963
3.00001
3.00001
3.00001
3.00001
3
3
2.99998
2.99995
2.99985
2.99963
2.99911
2.99774
2.9948
2.98642
2.96918
2.92017
2.81231
2.54148
1.97786
1.34366
1.13033
1.10044
1.10703
1.12853
1.15799
3.00001
3.00001
3.00001
3.00001
3
3
2.99999
2.99996
2.99991
2.99974
2.99944
2.99846
2.99657
2.99104
2.97931
2.94765
2.87502
2.69168
2.28272
1.58113
1.22076
1.1399
1.13642
1.14969
1.17515
3.00001
3.00001
3.00001
3.00001
3.00001
3
3
2.99998
2.99994
2.99985
2.9996
2.99908
2.9976
2.9946
2.98572
2.96785
2.91694
2.80431
2.52474
1.95122
1.37987
1.19504
1.1688
1.17525
1.19513
3.00001
3.00001
3.00001
3.00001
3.00001
3
3
2.99999
2.99997
2.9999
2.99977
2.99936
2.99859
2.99625
2.99151
2.97827
2.94891
2.87297
2.69537
2.28553
1.61801
1.28623
1.20979
1.20428
1.21469
3.00001
3.00001
3.00001
3.00001
3.00001
3.00001
3
3
2.99998
2.99994
2.99985
2.99961
2.9991
2.99765
2.99475
2.98608
2.969
2.91938
2.81219
2.54295
1.99372
1.44614
1.26495
1.23589
1.23883
3.00001
3.00001
3.00001
3.00001
3.00001
3.00001
3
3
2.99999
2.99997
2.99991
2.99975
2.99945
2.99851
2.99678
2.9913
2.98076
2.94998
2.88376
2.71195
2.33264
1.69278
1.3606
1.27674
1.26697
3.00001
3.00001
3.00001
3.00001
3.00001
3.00001
3.00001
3
3
2.99998
2.99994
2.99987
2.99964
2.99917
2.99791
2.99503
2.98801
2.97068
2.93017
2.82918
2.59521
2.09277
1.53415
1.33468
1.29963
3.00001
3.00001
3.00001
3.00001
3.00001
3.00001
3.00001
3
3
2.99999
2.99997
2.99992
2.99978
2.99951
2.99868
2.99713
2.99222
2.98309
2.95541
2.89794
2.74528
2.40906
1.79931
1.43445
1.33759
3.00001
3.00001
3.00001
3.00001
3.00001
3.00001
3.00001
3.00001
3
3
2.99999
2.99995
2.99988
2.99969
2.99926
2.99823
2.99557
2.98987
2.97403
2.94084
2.85114
2.65261
2.20278
1.63129
1.40524
3.00001
3.00001
3.00001
3.00001
3.00001
3.00001
3.00001
3.00001
3.00001
3
2.99999
2.99997
2.99993
2.99981
2.99958
2.99888
2.99758
2.99342
2.98576
2.96247
2.91457
2.78659
2.50326
1.94519
1.52702
3.00001
3.00001
3.00001
3.00001
3.00001
3.00001
3.00001
3.00001
3.00001
3
3
2.99999
2.99996
2.9999
2.99974
2.99941
2.99842
2.9966
2.99088
2.97996
2.94827
2.88063
2.70787
2.32766
1.75699
3.00001
3.00001
3.00001
3.00001
3.00001
3.00001
3.00001
3.00001
3.00001
3.00001
3
3
2.99998
2.99994
2.99987
2.99963
2.9992
2.99786
2.99527
2.98788
2.97227
2.93113
2.8382
2.61256
2.14706
3.00001
3.00001
3.00001
3.00001
3.00001
3.00001
3.00001
3.00001
3.00001
3.00001
3
3
2.99999
2.99997
2.99992
2.99981
2.99951
2.99885
2.99718
2.99323
2.98396
2.96047
2.90741
2.77395
2.47415
3.00001
3.00001
3.00001
3.00001
3.00001
3.00001
3.00001
3.00001
3.00001
3.00001
3.00001
3
3
2.99999
2.99996
2.99989
2.99973
2.99935
2.99842
2.99631
2.99077
2.97902
2.94692
2.87794
2.70339
3.00001
3.00001
3.00001
3.00001
3.00001
3.00001
3.00001
3.00001
3.00001
3.00001
3.00001
3.00001
3
3
2.99998
2.99995
2.99985
2.99964
2.99914
2.9979
2.99515
2.98782
2.97253
2.93052
2.84104
3.00001
3.00001
3.00001
3.00001
3.00001
3.00001
3.00001
3.00001
3.00001
3.00001
3.00001
3.00001
3.00001
3
2.99999
2.99997
2.99993
2.99979
2.99953
2.99881
2.99723
2.99331
2.98397
2.96209
2.90777
3.00001
3.00001
3.00001
3.00001
3.00001
3.00001
3.00001
3.00001
3.00001
3.00001
3.00001
3.00001
3.00001
3
3
2.99999
2.99996
2.99989
2.99973
2.99932
2.99843
2.99603
2.99112
2.97713
2.94895
3.00001
3.00001
3.00001
3.00001
3.00001
3.00001
3.00001
3.00001
3.00001
3.00001
3.00001
3.00001
3.00001
3.00001
3
2.99999
2.99998
2.99993
2.99983
2.99955
2.99901
2.99733
2.99426
2.98461
2.96607
3.00001
3.00001
3.00001
3.00001
3.00001
3.00001
3.00001
3.00001
3.00001
3.00001
3.00001
3.00001
3.00001
3.00001
3
3
2.99998
2.99995
2.99986
2.99967
2.99915
2.99803
2.99482
2.98833
2.96912
3.00001
3.00001
3.00001
3.00001
3.00001
3.00001
3.00001
3.00001
3.00001
3.00001
3.00001
3.00001
3.00001
3.00001
3
3
2.99999
2.99996
2.99988
2.99971
2.99923
2.99822
2.99524
2.9893
2.97119
3.00001
3.00001
3.00001
3.00001
3.00001
3.00001
3.00001
3.00001
3.00001
3.00001
3.00001
3.00001
3.00001
3.00001
3
3
2.99999
2.99996
2.99988
2.99973
2.99924
2.99834
2.99533
2.98977
2.97203
3.00001
3.00001
3.00001
3.00001
3.00001
3.00001
3.00001
3.00001
3.00001
3.00001
3.00001
3.00001
3.00001
3.00001
3
3
2.99999
2.99996
2.99988
2.99973
2.99927
2.9983
2.99556
2.98938
2.97317
3.00001
3.00001
3.00001
3.00001
3.00001
3.00001
3.00001
3.00001
3.00001
3.00001
3.00001
3.00001
3.00001
3.00001
3
3
2.99999
2.99996
2.99989
2.99973
2.99927
2.99835
2.99545
2.98992
2.97235
3.00001
3.00001
3.00001
3.00001
3.00001
3.00001
3.00001
3.00001
3.00001
3.00001
3.00001
3.00001
3.00001
3.00001
3
3
2.99999
2.99996
2.99989
2.99974
2.99926
2.99839
2.99543
2.98997
2.97255
3.00001
3.00001
3.00001
3.00001
3.00001
3.00001
3.00001
3.00001
3.00001
3.00001
3.00001
3.00001
3.00001
3.00001
3
3
2.99999
2.99996
2.99989
2.99973
2.9993
2.99827
2.99575
2.98925
2.97408
1.07162
1.09225
0.673188
0.270726
0.218838
0.25347
0.382151
0.447761
0.473056
0.481592
0.490988
0.508155
0.529251
0.548596
0.565341
0.581486
0.598069
0.61521
0.63229
0.648801
0.665212
0.682193
0.696767
0.706053
0.711196
0.71327
0.707869
0.690131
0.658615
0.616294
0.566826
0.513745
0.459264
0.404896
0.352253
0.302251
0.255063
0.210562
0.16722
0.126373
0.0875573
0.0516135
0.0244313
0.0348167
0.0639374
0.0952695
0.125219
0.15397
0.180822
0.206309
0.232922
0.25965
0.285301
0.309478
0.333065
0.355544
0.377609
0.398674
0.419175
0.43885
0.457787
0.475977
0.493332
0.509873
0.525544
0.54029
0.554095
0.566912
0.578703
0.589462
0.599159
0.607978
0.6163
0.624204
0.631537
0.638236
0.644664
0.651286
0.658204
0.665196
0.67242
0.68002
0.688468
0.6976
0.707777
0.718142
0.729352
0.740636
0.752468
0.764278
0.776469
0.788481
0.800617
0.812402
0.824026
0.83485
0.844852
0.853245
0.859616
0.864428
1.07274
1.05716
0.86513
0.615085
0.437734
0.363778
0.269292
0.155725
0.0555921
0.10776
0.190723
0.261904
0.313137
0.345394
0.365976
0.383326
0.401315
0.420264
0.439791
0.458839
0.476858
0.495136
0.512272
0.52338
0.528512
0.529922
0.523242
0.501908
0.466616
0.420307
0.368451
0.3142
0.260466
0.207719
0.158994
0.11462
0.0769119
0.0539677
0.0571061
0.0807009
0.110976
0.141333
0.170758
0.198636
0.226787
0.254489
0.281712
0.307872
0.332814
0.35619
0.380075
0.404311
0.427834
0.449984
0.47141
0.492109
0.5122
0.531668
0.550445
0.568597
0.586067
0.602834
0.618904
0.634218
0.64875
0.662473
0.675337
0.687318
0.698399
0.708557
0.717756
0.726157
0.734136
0.741734
0.748835
0.755414
0.761753
0.768232
0.775035
0.781736
0.788752
0.796006
0.804126
0.812758
0.82223
0.832003
0.842356
0.852922
0.863919
0.874969
0.886262
0.897492
0.90881
0.91985
0.930641
0.940802
0.950165
0.958164
0.96415
0.968518
1.07727
1.10598
1.05212
0.931462
0.813476
0.734061
0.654009
0.55938
0.459086
0.365471
0.280633
0.202051
0.129197
0.0673629
0.0510372
0.0980075
0.144055
0.182407
0.214104
0.241431
0.2656
0.286647
0.304866
0.316886
0.320148
0.318287
0.308604
0.286936
0.248988
0.20523
0.160336
0.121601
0.0981414
0.0952023
0.111791
0.138471
0.168546
0.198713
0.227385
0.255996
0.284357
0.311686
0.337981
0.363138
0.387854
0.412029
0.435778
0.458799
0.48081
0.501471
0.522035
0.543251
0.564144
0.583941
0.602891
0.621276
0.63915
0.656476
0.673281
0.689501
0.705155
0.720206
0.734646
0.74842
0.761527
0.773894
0.785526
0.796365
0.806432
0.815679
0.824118
0.831794
0.839142
0.846136
0.852778
0.858973
0.86507
0.871168
0.877634
0.883855
0.890495
0.897316
0.905013
0.912955
0.921665
0.930592
0.94013
0.949781
0.959956
0.970116
0.980631
0.990973
1.00151
1.01174
1.02188
1.03129
1.04019
1.0477
1.05339
1.05732
1.09283
1.15087
1.1564
1.1127
1.04324
0.97876
0.915918
0.84391
0.767274
0.687986
0.612443
0.541071
0.472758
0.405825
0.340298
0.279283
0.222605
0.171229
0.125885
0.0872176
0.0578196
0.0441506
0.0511772
0.071422
0.0848634
0.0862542
0.0749656
0.0632987
0.0801811
0.114782
0.155359
0.194928
0.233463
0.267439
0.299056
0.328924
0.357211
0.383655
0.408687
0.43276
0.456373
0.479152
0.501225
0.522498
0.543297
0.563704
0.583701
0.603324
0.622111
0.639792
0.657078
0.67495
0.693118
0.710377
0.726933
0.742885
0.758466
0.773578
0.788318
0.802529
0.81633
0.829543
0.842299
0.854407
0.866
0.876871
0.887174
0.896737
0.905734
0.913958
0.921586
0.928439
0.935076
0.941322
0.947472
0.953154
0.958945
0.964587
0.970514
0.976229
0.982456
0.988835
0.995898
1.00311
1.01095
1.01901
1.02766
1.03647
1.04575
1.05512
1.0648
1.07444
1.08424
1.09383
1.10331
1.11241
1.12083
1.12812
1.13353
1.13736
1.10151
1.17383
1.20923
1.20825
1.17723
1.13678
1.09421
1.0447
0.989066
0.929908
0.87014
0.810823
0.750039
0.688739
0.62927
0.573204
0.519911
0.469045
0.420434
0.375063
0.33261
0.292972
0.256614
0.224057
0.199175
0.191052
0.196709
0.226837
0.271355
0.318801
0.365494
0.406878
0.441915
0.471886
0.497941
0.521517
0.543218
0.563623
0.582914
0.601646
0.61987
0.637772
0.655147
0.672123
0.688747
0.705102
0.721276
0.737199
0.752706
0.767244
0.781352
0.795731
0.810824
0.825517
0.839676
0.853163
0.866457
0.879273
0.891959
0.904116
0.916081
0.927428
0.938534
0.948936
0.959038
0.968347
0.977353
0.985576
0.993484
1.00062
1.00745
1.01354
1.0195
1.02507
1.03075
1.0361
1.04162
1.04686
1.0524
1.05788
1.06375
1.06962
1.07595
1.08241
1.08934
1.0965
1.10411
1.112
1.12026
1.12873
1.13743
1.14627
1.15521
1.16414
1.173
1.18144
1.18932
1.19619
1.20139
1.20483
1.10588
1.18096
1.23282
1.25551
1.25421
1.23699
1.21366
1.18375
1.14636
1.10467
1.0607
1.01503
0.967336
0.917738
0.866485
0.816183
0.767677
0.720394
0.675433
0.631682
0.589658
0.549722
0.512608
0.478669
0.452607
0.437233
0.433715
0.451995
0.488351
0.531991
0.574876
0.613172
0.643816
0.667224
0.685542
0.7011
0.715261
0.728821
0.741965
0.754877
0.767671
0.780367
0.793034
0.805589
0.818155
0.830597
0.843131
0.855535
0.867924
0.879572
0.890829
0.902039
0.914176
0.92642
0.938408
0.94973
0.960916
0.971629
0.982326
0.992536
1.00269
1.01226
1.02172
1.0305
1.0391
1.04699
1.05471
1.0617
1.06856
1.0747
1.08079
1.08621
1.09168
1.09669
1.102
1.107
1.11237
1.11744
1.12288
1.12812
1.13378
1.13929
1.14523
1.15112
1.15752
1.16394
1.17091
1.17794
1.18551
1.1931
1.20118
1.20921
1.21766
1.22592
1.23427
1.24214
1.2497
1.25625
1.26135
1.26456
1.10722
1.18169
1.24065
1.2786
1.29658
1.29869
1.29127
1.27712
1.25604
1.22876
1.19855
1.16569
1.12995
1.09231
1.05227
1.01082
0.969575
0.928269
0.887376
0.847462
0.807369
0.767539
0.728918
0.693408
0.662209
0.63525
0.62243
0.635587
0.670357
0.713624
0.756496
0.793893
0.82371
0.843588
0.85495
0.861962
0.867869
0.873934
0.880738
0.888023
0.895798
0.90381
0.91211
0.9206
0.929332
0.938253
0.94742
0.95672
0.966272
0.975487
0.984299
0.9929
1.00229
1.01224
1.02233
1.03192
1.0414
1.05044
1.05951
1.06812
1.07674
1.08482
1.09285
1.10023
1.10752
1.11414
1.12071
1.12662
1.13254
1.13786
1.1433
1.14821
1.15335
1.15806
1.16321
1.16805
1.17342
1.17842
1.18393
1.18906
1.19462
1.19987
1.20554
1.21099
1.21687
1.22264
1.22888
1.23512
1.24186
1.24864
1.2559
1.26323
1.27094
1.27854
1.28628
1.29367
1.30086
1.30716
1.31218
1.31524
1.10838
1.17965
1.24064
1.28784
1.31797
1.33472
1.33965
1.3377
1.32932
1.31475
1.2959
1.27418
1.24958
1.22183
1.19232
1.16031
1.12744
1.09416
1.05918
1.02342
0.985926
0.946958
0.908795
0.870029
0.829261
0.787258
0.766616
0.778155
0.812617
0.856818
0.902486
0.941286
0.972096
0.994029
1.00358
1.00449
1.00214
1.00029
1.00015
1.00181
1.00481
1.00874
1.01342
1.01858
1.02428
1.03024
1.03666
1.04327
1.05031
1.05733
1.06425
1.07079
1.07778
1.08536
1.09363
1.1016
1.10951
1.11697
1.12446
1.13155
1.13867
1.14529
1.15192
1.15792
1.16396
1.16938
1.17488
1.1798
1.18492
1.18952
1.19448
1.199
1.20398
1.20861
1.21382
1.21869
1.22414
1.2293
1.2349
1.24017
1.2458
1.25109
1.2567
1.26199
1.26765
1.27303
1.27887
1.28451
1.29069
1.29677
1.30341
1.31004
1.31713
1.32408
1.33133
1.33825
1.34513
1.3512
1.35619
1.3592
1.1111
1.17786
1.23771
1.28844
1.32683
1.35348
1.36902
1.37619
1.37706
1.37275
1.36362
1.35064
1.33538
1.3166
1.29583
1.27265
1.24719
1.22098
1.19277
1.16121
1.12736
1.09078
1.05274
1.0075
0.951743
0.896013
0.872953
0.88539
0.91982
0.96448
1.01303
1.05552
1.0872
1.11098
1.12493
1.12808
1.1225
1.11376
1.10635
1.10127
1.09875
1.09819
1.09925
1.10135
1.10423
1.10766
1.11156
1.11587
1.12061
1.12566
1.13087
1.13585
1.14092
1.14635
1.15271
1.1593
1.16593
1.17215
1.17834
1.18409
1.1899
1.19523
1.20059
1.20543
1.21035
1.21476
1.21935
1.2235
1.22797
1.23209
1.2367
1.24102
1.246
1.25073
1.25613
1.2612
1.26687
1.2722
1.27805
1.2835
1.28935
1.29474
1.30045
1.30569
1.31125
1.31639
1.32189
1.32712
1.33277
1.33832
1.34434
1.35036
1.35679
1.36319
1.36989
1.37637
1.3829
1.38871
1.39363
1.39655
1.11597
1.17679
1.23487
1.28578
1.32855
1.36095
1.38481
1.39941
1.40815
1.41073
1.40954
1.40422
1.39592
1.38498
1.37122
1.35551
1.33714
1.31637
1.29313
1.26504
1.23502
1.2008
1.16064
1.10547
1.03126
0.966155
0.947375
0.962776
0.995924
1.04202
1.09395
1.14048
1.17385
1.19654
1.213
1.2222
1.22234
1.21451
1.20266
1.19131
1.18231
1.17615
1.17274
1.17127
1.17138
1.17248
1.17427
1.17663
1.17952
1.1828
1.1865
1.19026
1.19409
1.19785
1.20226
1.20723
1.21268
1.21786
1.22301
1.22772
1.23238
1.23663
1.24087
1.24469
1.24867
1.25228
1.25618
1.25977
1.26383
1.26768
1.27217
1.27653
1.28172
1.28672
1.29241
1.29788
1.30396
1.30972
1.316
1.32183
1.32811
1.33379
1.33987
1.34525
1.35098
1.35608
1.36149
1.36644
1.37175
1.37679
1.38229
1.38766
1.39353
1.39929
1.40554
1.41151
1.41777
1.42334
1.42824
1.43124
1.12331
1.17824
1.23248
1.28283
1.32665
1.36315
1.39147
1.4126
1.42683
1.43577
1.44004
1.44067
1.43829
1.43302
1.42544
1.41529
1.40313
1.38704
1.36683
1.34183
1.31459
1.28007
1.23334
1.16141
1.06972
1.0067
0.996582
1.01529
1.04864
1.0973
1.1514
1.19835
1.23481
1.26
1.27686
1.28866
1.29479
1.29449
1.28706
1.2746
1.2609
1.24926
1.24019
1.23434
1.2307
1.22909
1.22859
1.22921
1.23039
1.23213
1.23427
1.2367
1.23941
1.24214
1.24501
1.24814
1.25194
1.25598
1.26002
1.26373
1.26734
1.27058
1.27388
1.27688
1.28007
1.28303
1.28635
1.28957
1.29334
1.29711
1.30164
1.30627
1.31163
1.31693
1.32293
1.32878
1.33527
1.34144
1.34816
1.3544
1.3611
1.36717
1.37359
1.37932
1.38531
1.39062
1.39614
1.40112
1.40631
1.41113
1.41629
1.42121
1.42658
1.43177
1.43747
1.44291
1.4487
1.45395
1.45861
1.46167
1.13301
1.1822
1.2323
1.28014
1.32408
1.36203
1.39365
1.41874
1.43764
1.45142
1.46019
1.46565
1.46739
1.46687
1.4638
1.45789
1.44992
1.43669
1.41914
1.39716
1.37028
1.3316
1.27228
1.17493
1.07397
1.02842
1.02874
1.04943
1.08664
1.1369
1.18971
1.23523
1.27239
1.30088
1.32141
1.33526
1.34419
1.34961
1.35026
1.34452
1.33315
1.31893
1.30546
1.29427
1.28576
1.28015
1.27659
1.27497
1.27417
1.27449
1.27528
1.27648
1.27804
1.27975
1.2818
1.2839
1.28619
1.28877
1.29175
1.29456
1.29733
1.29977
1.30228
1.30465
1.30728
1.30986
1.31288
1.31599
1.3198
1.32381
1.32867
1.33358
1.33931
1.34503
1.35156
1.35791
1.36498
1.37166
1.37895
1.38566
1.39287
1.39939
1.40629
1.41244
1.41883
1.42449
1.43031
1.43546
1.44078
1.44553
1.45058
1.45516
1.4602
1.46487
1.4701
1.47495
1.48027
1.48504
1.48945
1.49242
1.14474
1.18902
1.2345
1.27938
1.32172
1.36009
1.39327
1.421
1.44315
1.46046
1.4733
1.48212
1.48794
1.49059
1.49085
1.48838
1.48209
1.47015
1.45421
1.43355
1.40339
1.3548
1.2716
1.15232
1.06198
1.03878
1.04867
1.07234
1.11359
1.16499
1.21397
1.25667
1.29296
1.32313
1.34749
1.36624
1.3792
1.38757
1.39262
1.394
1.39055
1.38127
1.36811
1.35405
1.34113
1.33084
1.32307
1.31814
1.31485
1.31342
1.31264
1.31269
1.31317
1.31383
1.31466
1.31562
1.31674
1.31817
1.31987
1.32162
1.32347
1.3253
1.32725
1.32929
1.33153
1.33387
1.33672
1.33999
1.34407
1.34844
1.35354
1.35887
1.36499
1.37122
1.3782
1.38509
1.39262
1.39985
1.40759
1.41485
1.4225
1.42952
1.43684
1.44345
1.45028
1.45634
1.46257
1.46802
1.47364
1.47851
1.48365
1.48811
1.49293
1.49721
1.50198
1.50632
1.51108
1.5154
1.5194
1.52239
1.15839
1.19777
1.23914
1.28054
1.32074
1.3583
1.39202
1.42159
1.44602
1.46583
1.48148
1.4932
1.50168
1.50726
1.50978
1.50924
1.50293
1.49126
1.47604
1.45306
1.41485
1.34774
1.23014
1.10836
1.05162
1.04681
1.06097
1.09089
1.13476
1.18339
1.22769
1.26716
1.3021
1.33286
1.35944
1.38189
1.39999
1.41343
1.42203
1.42727
1.4301
1.42913
1.4229
1.4113
1.39743
1.38348
1.37128
1.36189
1.35493
1.35067
1.34795
1.34659
1.34592
1.3455
1.34544
1.34544
1.34557
1.3459
1.34646
1.34731
1.34842
1.34973
1.35129
1.35323
1.35549
1.35782
1.36069
1.36404
1.36836
1.37306
1.37863
1.38448
1.39113
1.39789
1.40535
1.41273
1.42068
1.42837
1.43652
1.44424
1.45232
1.45981
1.46758
1.47464
1.48192
1.4884
1.49507
1.5009
1.5069
1.51208
1.51744
1.52199
1.52677
1.53084
1.53529
1.53916
1.54343
1.54717
1.55074
1.55348
1.17315
1.20843
1.24555
1.28396
1.32155
1.35768
1.39118
1.42111
1.44742
1.46908
1.487
1.50103
1.51151
1.51891
1.52281
1.52198
1.51477
1.50321
1.48561
1.45516
1.40011
1.29911
1.16308
1.06959
1.04604
1.05261
1.07086
1.10571
1.15053
1.19393
1.23373
1.27029
1.30377
1.33446
1.36225
1.38717
1.40873
1.42685
1.44119
1.45099
1.45687
1.46079
1.46186
1.45878
1.45021
1.43753
1.42366
1.41046
1.39932
1.39091
1.38495
1.38099
1.37846
1.37679
1.3756
1.37473
1.37399
1.37339
1.37291
1.37292
1.37322
1.374
1.37533
1.37723
1.37964
1.3821
1.3852
1.38889
1.39358
1.39872
1.40475
1.41107
1.41817
1.42535
1.43317
1.44088
1.44911
1.45708
1.46544
1.47344
1.48176
1.48957
1.49764
1.50507
1.51273
1.51963
1.52673
1.53298
1.53944
1.54501
1.55073
1.55546
1.5604
1.56442
1.56875
1.57231
1.57623
1.57954
1.58268
1.58531
1.18876
1.22085
1.25437
1.28921
1.3246
1.3588
1.39128
1.42116
1.44796
1.47131
1.4906
1.50659
1.5186
1.52725
1.53107
1.52818
1.51959
1.50609
1.48223
1.43702
1.35353
1.21635
1.09679
1.04969
1.04665
1.05766
1.08224
1.11928
1.16036
1.19894
1.235
1.26887
1.30091
1.33119
1.35961
1.38599
1.41001
1.43157
1.45001
1.46525
1.47643
1.48403
1.48934
1.49203
1.49191
1.48679
1.47632
1.4629
1.44911
1.43681
1.42666
1.41912
1.41356
1.40977
1.40689
1.40491
1.40293
1.40167
1.40027
1.39964
1.39917
1.39969
1.40087
1.40281
1.40535
1.40795
1.41126
1.41528
1.42033
1.42584
1.43223
1.4389
1.44627
1.45371
1.46171
1.46961
1.47796
1.48611
1.49464
1.50286
1.51138
1.51946
1.52778
1.5355
1.54344
1.55063
1.55806
1.56465
1.57149
1.57743
1.5835
1.58851
1.59366
1.59779
1.60211
1.60551
1.60917
1.6121
1.61482
1.61726
1.20535
1.23524
1.26588
1.29743
1.32985
1.36218
1.39324
1.42242
1.44906
1.47317
1.49339
1.51066
1.52348
1.53263
1.53411
1.52853
1.518
1.49898
1.4624
1.39254
1.26494
1.12802
1.0575
1.04375
1.04959
1.06559
1.09453
1.13081
1.16655
1.20066
1.2335
1.26516
1.29601
1.32578
1.35446
1.38172
1.4074
1.43121
1.45281
1.47206
1.48844
1.50133
1.51077
1.51738
1.52207
1.52381
1.52212
1.51496
1.50305
1.48935
1.4755
1.46344
1.45346
1.44596
1.44049
1.43637
1.43339
1.43083
1.42902
1.42735
1.42667
1.42648
1.42755
1.42945
1.43204
1.43482
1.43838
1.44281
1.4482
1.45396
1.46048
1.4673
1.47477
1.48231
1.49034
1.49831
1.50669
1.51486
1.52339
1.53159
1.54014
1.54824
1.55667
1.56451
1.57265
1.58008
1.58779
1.59469
1.60189
1.60811
1.61446
1.61979
1.62521
1.62959
1.63408
1.63755
1.64115
1.6439
1.64632
1.64861
1.22245
1.24996
1.27857
1.30769
1.33722
1.36748
1.39684
1.42527
1.45124
1.47538
1.49617
1.51364
1.527
1.53399
1.53203
1.52341
1.50806
1.47792
1.41844
1.30693
1.16442
1.07024
1.04367
1.04514
1.05439
1.07559
1.10621
1.13877
1.17016
1.20092
1.23123
1.26128
1.29114
1.32048
1.3492
1.37701
1.40368
1.42912
1.45301
1.47529
1.49524
1.51284
1.52735
1.5383
1.54668
1.55247
1.55589
1.55647
1.55267
1.54322
1.52969
1.51455
1.50042
1.48805
1.47844
1.47098
1.46526
1.46149
1.45822
1.45615
1.45507
1.45437
1.45543
1.45741
1.45985
1.46264
1.46623
1.47087
1.47642
1.48237
1.48892
1.49575
1.50314
1.51064
1.51857
1.52644
1.53471
1.54278
1.55123
1.55937
1.56789
1.57599
1.58445
1.59237
1.60061
1.6082
1.61608
1.62326
1.63057
1.63703
1.64358
1.6492
1.65488
1.65954
1.66425
1.66787
1.67152
1.67418
1.6764
1.67848
1.2371
1.26611
1.29248
1.31988
1.3469
1.37447
1.40244
1.42901
1.45484
1.47786
1.4992
1.51581
1.52863
1.53065
1.52421
1.5119
1.48694
1.43601
1.34033
1.19902
1.08851
1.04729
1.04352
1.04984
1.06552
1.09017
1.11831
1.14643
1.17421
1.20219
1.23052
1.25924
1.2882
1.31701
1.34565
1.37372
1.40117
1.4278
1.45328
1.47748
1.50001
1.52074
1.53899
1.55484
1.56709
1.57664
1.58312
1.58772
1.58972
1.5884
1.5815
1.56898
1.55336
1.53723
1.52284
1.51049
1.50094
1.49411
1.48892
1.48581
1.48397
1.48301
1.48396
1.48588
1.48809
1.49081
1.49454
1.49922
1.50474
1.51067
1.51718
1.52389
1.53112
1.53843
1.54617
1.55388
1.56195
1.5699
1.57815
1.5862
1.59452
1.60256
1.61087
1.61882
1.62702
1.63478
1.64275
1.65003
1.65743
1.66405
1.67078
1.6766
1.68252
1.6874
1.69235
1.69614
1.69989
1.70257
1.70467
1.70658
1.25589
1.28085
1.30682
1.33166
1.3582
1.38296
1.40968
1.43464
1.4593
1.48174
1.5014
1.51746
1.52521
1.52218
1.51129
1.49029
1.44704
1.36457
1.22949
1.10985
1.05677
1.04745
1.0511
1.06197
1.08148
1.10577
1.13009
1.15461
1.17962
1.20561
1.23244
1.26006
1.28822
1.31658
1.34504
1.3732
1.40108
1.42824
1.45471
1.47999
1.50427
1.52677
1.54785
1.5665
1.58302
1.59628
1.60651
1.61329
1.61819
1.62073
1.62071
1.61609
1.60543
1.58999
1.57323
1.55692
1.54266
1.5315
1.52293
1.51748
1.51413
1.51263
1.51325
1.51502
1.51711
1.5197
1.52347
1.52804
1.53338
1.5391
1.54547
1.55202
1.55902
1.56611
1.57359
1.58111
1.58891
1.5967
1.60469
1.61262
1.62074
1.6287
1.63685
1.64478
1.65291
1.6606
1.66842
1.67567
1.68306
1.68976
1.69658
1.70257
1.70865
1.71374
1.71886
1.72283
1.72669
1.72937
1.7314
1.73309
1.27466
1.29444
1.32095
1.34496
1.36949
1.39344
1.41734
1.44177
1.46429
1.48597
1.50356
1.51563
1.51592
1.50658
1.48876
1.45195
1.38011
1.25392
1.1309
1.06918
1.05515
1.05713
1.06458
1.07995
1.10042
1.12116
1.14218
1.16403
1.18713
1.21173
1.23747
1.26431
1.2918
1.31967
1.3478
1.37583
1.4037
1.43112
1.45788
1.48385
1.50881
1.53259
1.55496
1.5757
1.59435
1.6108
1.62432
1.63472
1.64125
1.64556
1.64848
1.64907
1.64581
1.63718
1.62399
1.60769
1.59119
1.57603
1.56348
1.55431
1.54813
1.54494
1.54418
1.54547
1.54737
1.54978
1.55327
1.55766
1.56272
1.56821
1.57421
1.5805
1.58719
1.594
1.60116
1.60834
1.61586
1.62334
1.63113
1.63879
1.64673
1.6545
1.66254
1.67027
1.67815
1.68565
1.69329
1.70047
1.70777
1.71448
1.72129
1.72734
1.73348
1.73866
1.74389
1.74794
1.75186
1.75451
1.75643
1.75792
1.29888
1.31181
1.33444
1.3587
1.38223
1.40476
1.42724
1.44931
1.47078
1.48919
1.50419
1.50688
1.49913
1.48324
1.45062
1.3857
1.27064
1.14937
1.08349
1.06618
1.0674
1.07276
1.08484
1.10195
1.11961
1.1374
1.15605
1.17621
1.198
1.22154
1.24629
1.27235
1.29892
1.32623
1.35368
1.38127
1.40876
1.4359
1.46252
1.48859
1.5136
1.53791
1.56072
1.58239
1.60221
1.62035
1.63606
1.64936
1.65965
1.66628
1.67034
1.6734
1.67426
1.67235
1.66616
1.65555
1.64152
1.62614
1.61145
1.5987
1.58888
1.58225
1.57864
1.57818
1.57953
1.58127
1.58397
1.58772
1.59255
1.59779
1.60355
1.60951
1.61583
1.62227
1.629
1.63585
1.64293
1.65011
1.6575
1.66499
1.67268
1.68033
1.68801
1.69552
1.70309
1.71044
1.71785
1.72492
1.73206
1.73867
1.74536
1.75132
1.75736
1.76244
1.76755
1.77146
1.77517
1.77759
1.7791
1.78031
1.32435
1.33045
1.3482
1.37173
1.39436
1.41631
1.43726
1.45773
1.47626
1.4913
1.49692
1.49065
1.47492
1.44443
1.38423
1.27666
1.16179
1.09689
1.07845
1.07931
1.0843
1.09543
1.11036
1.12494
1.13936
1.15465
1.17167
1.19058
1.21141
1.23397
1.25793
1.28306
1.30892
1.33532
1.36208
1.38883
1.41579
1.4422
1.46854
1.494
1.51896
1.54293
1.56596
1.58778
1.60823
1.62708
1.64399
1.65903
1.6716
1.68163
1.68874
1.69316
1.69674
1.69807
1.69773
1.6943
1.68645
1.67547
1.66264
1.64935
1.63698
1.62666
1.61937
1.61504
1.61417
1.61503
1.6166
1.61896
1.62279
1.62768
1.63314
1.63878
1.64475
1.65082
1.6572
1.66367
1.67046
1.67731
1.68451
1.69172
1.69911
1.70635
1.71373
1.72091
1.72822
1.73526
1.74244
1.74926
1.7562
1.76261
1.76908
1.77485
1.78061
1.78547
1.7902
1.7938
1.797
1.79894
1.79984
1.80077
1.3601
1.35568
1.36454
1.38326
1.40663
1.42795
1.44793
1.46555
1.48036
1.48632
1.4807
1.46468
1.43473
1.37623
1.27338
1.16515
1.10483
1.08846
1.09069
1.09699
1.10909
1.12361
1.13605
1.14736
1.15912
1.17272
1.18846
1.20647
1.22643
1.24817
1.27116
1.29543
1.3202
1.34587
1.37149
1.39766
1.42347
1.4494
1.47473
1.49981
1.52406
1.54772
1.57032
1.5919
1.61223
1.63125
1.64865
1.66463
1.67847
1.6908
1.70062
1.70852
1.7142
1.71825
1.72167
1.72292
1.72203
1.71787
1.71047
1.7009
1.68911
1.67766
1.6671
1.65917
1.65384
1.65189
1.65193
1.653
1.65495
1.65827
1.66305
1.66825
1.67393
1.67975
1.68584
1.69205
1.69851
1.7052
1.71208
1.71899
1.726
1.73297
1.73999
1.74691
1.75386
1.76064
1.76741
1.77392
1.78041
1.78649
1.79253
1.79794
1.80323
1.80766
1.81179
1.81482
1.81719
1.81819
1.81812
1.81896
1.40168
1.38111
1.38328
1.39682
1.41697
1.43855
1.45686
1.4713
1.47712
1.47104
1.45401
1.4229
1.36319
1.26241
1.16035
1.10683
1.09392
1.09818
1.10851
1.12437
1.13974
1.15132
1.1603
1.16918
1.17926
1.19171
1.20658
1.2238