/*--------------------------------*- C++ -*----------------------------------*\
  =========                 |
  \\      /  F ield         | OpenFOAM: The Open Source CFD Toolbox
   \\    /   O peration     | Website:  https://openfoam.org
    \\  /    A nd           | Version:  9
     \\/     M anipulation  |
\*---------------------------------------------------------------------------*/
FoamFile
{
    format      ascii;
    class       volScalarField;
    location    "5.5";
    object      p;
}
// * * * * * * * * * * * * * * * * * * * * * * * * * * * * * * * * * * * * * //

dimensions      [1 -1 -2 0 0 0 0];

internalField   nonuniform List<scalar> 
5250
(
1
1.00003
1.00008
1.00022
1.0005
1.00138
1.00309
1.00837
1.01905
1.05053
1.12102
1.31947
1.85495
3.44359
8.067
11.6835
11.2881
11.0502
11.1349
11.3652
11.5932
11.7317
11.8369
11.9194
11.9818
1
1.00003
1.00008
1.00022
1.0005
1.00135
1.00306
1.00819
1.0189
1.04938
1.11956
1.31352
1.8403
3.39905
7.95252
11.697
11.2878
11.0406
11.1261
11.3575
11.5854
11.7242
11.831
11.9148
11.9788
1
1.00003
1.00008
1.0002
1.0005
1.00127
1.00302
1.00781
1.0183
1.04777
1.11529
1.30212
1.80865
3.30373
7.69566
11.7242
11.2835
11.0109
11.095
11.3243
11.5503
11.6874
11.7937
11.8771
11.9414
1
1.00003
1.00007
1.0002
1.00046
1.00121
1.0029
1.00722
1.01796
1.04397
1.1111
1.28335
1.76255
3.16014
7.29953
11.7648
11.2782
10.962
11.0417
11.2647
11.4877
11.6212
11.7248
11.8065
11.8721
1
1.00002
1.00007
1.00017
1.00046
1.00107
1.00281
1.00656
1.01688
1.0407
1.10341
1.26131
1.70275
2.97726
6.77606
11.8041
11.2718
10.8967
10.9686
11.1804
11.3999
11.5281
11.6268
11.7058
11.774
1
1.00002
1.00006
1.00017
1.00039
1.00106
1.00238
1.00641
1.01466
1.03849
1.09211
1.23996
1.62981
2.76979
6.14776
11.7952
11.2551
10.8164
10.8762
11.0691
11.2819
11.4013
11.4909
11.5633
11.6336
1
1.00002
1.00006
1.00014
1.00039
1.00088
1.00236
1.00537
1.0142
1.03312
1.08573
1.21198
1.56516
2.56274
5.52378
11.6606
11.1885
10.7156
10.762
10.9275
11.1272
11.232
11.3049
11.3623
11.4292
1
1.00002
1.00005
1.00014
1.00033
1.00086
1.00202
1.00509
1.01254
1.03066
1.07708
1.19339
1.50825
2.40615
5.07203
11.2371
11.0033
10.6007
10.6276
10.7507
10.9273
11.0091
11.0529
11.0768
11.1208
1
1.00002
1.00005
1.00012
1.0003
1.00077
1.00182
1.00472
1.01093
1.02878
1.06797
1.17685
1.45512
2.25976
4.62756
10.5396
10.7128
10.5257
10.4838
10.5467
10.6787
10.7236
10.7163
10.6701
10.6239
1
1.00001
1.00004
1.00011
1.00028
1.00065
1.00173
1.00393
1.01055
1.02403
1.06399
1.15346
1.40884
2.1085
4.18532
9.66521
10.5521
10.4258
10.3057
10.3295
10.3883
10.3745
10.2912
10.081
9.75213
1
1.00001
1.00004
1.0001
1.00024
1.00061
1.00143
1.00373
1.00858
1.02276
1.05319
1.13896
1.35121
1.96324
3.73339
8.63314
10.4408
10.3279
10.1194
10.0922
10.0729
9.98664
9.74045
9.15866
7.6442
1
1.00001
1.00003
1.00009
1.0002
1.00053
1.00122
1.00317
1.00756
1.01894
1.04674
1.11693
1.29951
1.80684
3.2745
7.44083
10.3582
10.2316
9.95244
9.84723
9.76477
9.58095
9.18235
8.38141
6.79615
1
1.00001
1.00003
1.00007
1.00018
1.00041
1.00109
1.00247
1.00664
1.01501
1.04016
1.09431
1.24819
1.64841
2.81343
6.14036
10.2572
10.1302
9.81107
9.60838
9.4624
9.1979
8.70182
7.87655
6.60562
1
1.00001
1.00002
1.00006
1.00013
1.00036
1.00082
1.00217
1.00495
1.01303
1.03037
1.07815
1.19223
1.50661
2.37456
4.83484
9.96362
9.93976
9.69996
9.38886
9.17251
8.86216
8.35096
7.59187
6.58297
1
1.00001
1.00002
1.00004
1.00012
1.00027
1.00072
1.00164
1.00432
1.01002
1.02584
1.06197
1.15841
1.40502
2.10516
4.10316
9.0991
9.66353
9.50873
9.18438
8.91244
8.58105
8.09111
7.41396
6.57512
1
1
1.00001
1.00004
1.00009
1.00023
1.00054
1.00143
1.00324
1.00865
1.01965
1.05223
1.12387
1.32695
1.86808
3.43753
7.62695
9.38556
9.29208
9.02942
8.69615
8.34707
7.88686
7.28215
6.55924
1
1
1.00001
1.00003
1.00008
1.00017
1.00046
1.00105
1.00272
1.00644
1.01609
1.03968
1.09839
1.25017
1.6623
2.82834
6.07086
9.20418
9.15266
8.92558
8.52805
8.1545
7.71863
7.17463
6.5388
1
1
1.00001
1.00002
1.00005
1.00014
1.00032
1.00085
1.00194
1.00507
1.01178
1.03
1.0725
1.18387
1.47155
2.26787
4.42745
8.81359
9.01838
8.83442
8.42509
8.00433
7.57909
7.084
6.51756
1
1
1.00001
1.00002
1.00004
1.0001
1.00026
1.00063
1.0015
1.00385
1.00887
1.0233
1.0542
1.14091
1.35253
1.953
3.61554
7.78283
8.77111
8.64977
8.3262
7.88006
7.46071
7.0053
6.49597
1
1
1
1.00001
1.00003
1.00008
1.00019
1.00048
1.00115
1.0028
1.00702
1.01663
1.04247
1.1027
1.26413
1.69406
2.90371
6.14211
8.49387
8.45067
8.23679
7.79573
7.36608
6.93699
6.4744
1
1
1
1.00001
1.00002
1.00006
1.00014
1.00034
1.00083
1.00207
1.00485
1.01252
1.02907
1.07513
1.18202
1.47614
2.25976
4.35218
8.0516
8.31
8.15342
7.77318
7.30625
6.88383
6.45592
1
1
1
1.00001
1.00002
1.00004
1.0001
1.00024
1.00062
1.00141
1.00374
1.00837
1.02236
1.0511
1.13374
1.32969
1.88364
3.36986
7.00036
8.09372
8.00222
7.73044
7.27431
6.84814
6.44179
1
1
1
1
1.00001
1.00003
1.00007
1.00018
1.00041
1.00109
1.00246
1.00644
1.01486
1.03818
1.0915
1.2347
1.60594
2.63357
5.32491
7.77607
7.7948
7.64834
7.28537
6.84333
6.43974
1
1
1
1
1.00001
1.00002
1.00005
1.00012
1.00028
1.00075
1.00167
1.00444
1.00991
1.02636
1.06029
1.15718
1.3883
2.02367
3.65248
7.106
7.67297
7.56942
7.28393
6.85316
6.44463
1
1
1
1
1.00001
1.00001
1.00003
1.00009
1.00019
1.00051
1.00116
1.00301
1.00697
1.01768
1.04229
1.10585
1.26394
1.69003
2.82874
5.69697
7.42733
7.41111
7.26006
6.89681
6.46277
1
1
1
1
1
1.00001
1.00002
1.00006
1.00013
1.00034
1.00076
1.00203
1.00451
1.01201
1.02694
1.07098
1.16728
1.43714
2.12211
3.87315
6.90945
7.30459
7.20449
6.93721
6.50468
1
1
1
1
1
1.00001
1.00001
1.00004
1.00009
1.00023
1.00052
1.0013
1.00316
1.00754
1.01892
1.04474
1.11332
1.27956
1.72848
2.89948
5.73516
7.084
7.06989
6.92583
6.59152
1
1
1
1
1
1
1.00001
1.00002
1.00006
1.00014
1.00036
1.0008
1.00213
1.00475
1.01252
1.02838
1.0736
1.17529
1.45445
2.1644
3.95746
6.59494
6.95816
6.87423
6.64136
1
1
1
1
1
1
1.00001
1.00002
1.00004
1.0001
1.00022
1.00055
1.00131
1.00314
1.00786
1.01828
1.04676
1.11055
1.28276
1.7166
2.84946
5.49812
6.7345
6.73646
6.6271
1
1
1
1
1
1
1
1.00001
1.00002
1.00006
1.00014
1.00036
1.00079
1.00208
1.00464
1.01218
1.02759
1.07119
1.16902
1.43496
2.10011
3.74937
6.22877
6.62919
6.57384
1
1
1
1
1
1
1
1.00001
1.00001
1.00004
1.00008
1.00022
1.0005
1.00129
1.00293
1.00746
1.01748
1.04324
1.1051
1.26218
1.66459
2.69128
5.10063
6.3936
6.45696
1
1
1
1
1
1
1
1
1.00001
1.00002
1.00005
1.00013
1.00031
1.00077
1.00177
1.00455
1.01024
1.02667
1.06071
1.15596
1.37825
1.95794
3.32982
5.84507
6.34502
1
1
1
1
1
1
1
1
1.00001
1.00001
1.00003
1.00008
1.0002
1.00044
1.00116
1.00259
1.00669
1.01538
1.03858
1.09237
1.23072
1.57884
2.46822
4.59933
6.05808
1
1
1
1
1
1
1
1
1
1.00001
1.00002
1.00005
1.00012
1.00027
1.00069
1.00153
1.00399
1.00885
1.02316
1.05223
1.13462
1.32174
1.81213
2.96557
5.3778
1
1
1
1
1
1
1
1
1
1.00001
1.00001
1.00003
1.00007
1.00017
1.00038
1.00098
1.00221
1.00565
1.01304
1.03234
1.07769
1.19162
1.47739
2.19752
3.92571
1
1
1
1
1
1
1
1
1
1
1.00001
1.00002
1.00004
1.00009
1.00024
1.00053
1.00137
1.0031
1.00785
1.01827
1.04502
1.10826
1.26781
1.66342
2.62486
1
1
1
1
1
1
1
1
1
1
1
1.00001
1.00002
1.00006
1.00013
1.00032
1.00075
1.00183
1.00438
1.01034
1.02555
1.05984
1.14869
1.36025
1.88619
1
1
1
1
1
1
1
1
1
1
1
1.00001
1.00001
1.00003
1.00008
1.00018
1.00043
1.00107
1.00241
1.0062
1.01384
1.03592
1.08142
1.20863
1.50171
1
1
1
1
1
1
1
1
1
1
1
1
1.00001
1.00002
1.00004
1.0001
1.00025
1.00056
1.00145
1.00321
1.00832
1.01841
1.04782
1.10877
1.27549
1
1
1
1
1
1
1
1
1
1
1
1
1
1.00001
1.00002
1.00006
1.00013
1.00033
1.00075
1.00192
1.00424
1.01098
1.02423
1.06279
1.1429
1
1
1
1
1
1
1
1
1
1
1
1
1
1.00001
1.00001
1.00003
1.00008
1.00018
1.00044
1.00102
1.00256
1.00574
1.01473
1.03292
1.08456
1
1
1
1
1
1
1
1
1
1
1
1
1
1
1.00001
1.00002
1.00004
1.00011
1.00024
1.00063
1.00138
1.00358
1.00789
1.02042
1.04574
1
1
1
1
1
1
1
1
1
1
1
1
1
1
1
1.00001
1.00003
1.00007
1.00016
1.00041
1.00091
1.00233
1.00527
1.01336
1.03113
1
1
1
1
1
1
1
1
1
1
1
1
1
1
1
1.00001
1.00002
1.00005
1.00013
1.00029
1.00078
1.00172
1.00461
1.0103
1.02736
1
1
1
1
1
1
1
1
1
1
1
1
1
1
1
1.00001
1.00002
1.00004
1.00012
1.00026
1.0007
1.00155
1.0042
1.00943
1.02526
1
1
1
1
1
1
1
1
1
1
1
1
1
1
1
1.00001
1.00002
1.00004
1.00011
1.00025
1.00066
1.0015
1.00397
1.0093
1.02389
1
1
1
1
1
1
1
1
1
1
1
1
1
1
1
1.00001
1.00002
1.00004
1.0001
1.00025
1.00062
1.00157
1.00371
1.00969
1.02274
1
1
1
1
1
1
1
1
1
1
1
1
1
1
1
1.00001
1.00002
1.00004
1.00011
1.00024
1.00065
1.00146
1.00393
1.009
1.02385
1
1
1
1
1
1
1
1
1
1
1
1
1
1
1
1.00001
1.00002
1.00004
1.00011
1.00024
1.00064
1.00146
1.00387
1.00912
1.02336
1
1
1
1
1
1
1
1
1
1
1
1
1
1
1
1.00001
1.00002
1.00004
1.0001
1.00026
1.00059
1.00158
1.00359
1.00969
1.02215
3.27661
2.14088
2.38312
3.38988
3.48587
3.28652
3.15637
3.09542
3.06958
3.05567
3.02482
2.98287
2.94212
2.90897
2.87973
2.84901
2.81711
2.78494
2.75394
2.72433
2.69368
2.66074
2.63984
2.63096
2.62857
2.63428
2.66613
2.73128
2.83159
2.95908
3.10234
3.25248
3.40255
3.54761
3.68222
3.80364
3.9117
4.0071
4.09271
4.16718
4.22982
4.28254
4.32593
4.36456
4.39392
4.41359
4.42603
4.43245
4.43284
4.4302
4.4222
4.40746
4.38934
4.36918
4.34631
4.32167
4.29502
4.26733
4.23869
4.20971
4.18077
4.15231
4.1248
4.09869
4.07443
4.0525
4.03329
4.01723
4.00462
3.99574
3.99078
3.98977
3.9901
3.99123
3.99388
3.99924
4.00488
4.00919
4.00898
4.00809
4.00551
3.99962
3.98759
3.97039
3.94729
3.91961
3.88822
3.85377
3.81679
3.7778
3.7372
3.69546
3.65303
3.61045
3.56837
3.52763
3.48938
3.45519
3.4271
3.40888
4.05923
3.04452
3.11407
3.46098
3.42417
3.26619
3.133
3.09765
3.10632
3.09807
3.04539
2.98389
2.93367
2.89888
2.87406
2.8469
2.81682
2.78488
2.7532
2.72297
2.69369
2.66422
2.63992
2.62851
2.62514
2.62889
2.65642
2.71813
2.81713
2.94504
3.08861
3.23907
3.38869
3.53372
3.66855
3.78989
3.8977
3.99183
4.08008
4.15586
4.21875
4.27221
4.31686
4.3555
4.38476
4.40532
4.41817
4.42496
4.42556
4.42359
4.41679
4.4023
4.3834
4.36316
4.34089
4.31659
4.29039
4.2629
4.23456
4.20582
4.17713
4.14891
4.12162
4.09573
4.07167
4.04993
4.0309
4.01499
4.00249
3.99366
3.98868
3.98784
3.98823
3.98943
3.99208
3.99723
4.00262
4.00661
4.00627
4.00526
4.00266
3.99682
3.98476
3.96721
3.94438
3.91709
3.88602
3.85175
3.81487
3.77589
3.73526
3.69346
3.65096
3.60825
3.56598
3.52496
3.48631
3.4518
3.42332
3.40492
4.90024
3.85694
3.44241
3.45075
3.41546
3.30584
3.15852
3.10634
3.09
3.06332
3.02504
2.97821
2.93651
2.90809
2.88686
2.85286
2.81893
2.78486
2.75124
2.71877
2.68854
2.66151
2.63822
2.62421
2.61924
2.62128
2.64386
2.69892
2.79416
2.92232
3.06571
3.216
3.36382
3.51154
3.64905
3.77174
3.88098
3.97786
4.06578
4.14162
4.20543
4.25964
4.30496
4.34295
4.37246
4.39373
4.40728
4.41441
4.41532
4.41382
4.40829
4.39553
4.37574
4.35508
4.3332
4.30944
4.28381
4.2568
4.22891
4.20061
4.17236
4.14459
4.11776
4.09232
4.06871
4.0474
4.02877
4.01319
4.00093
3.99217
3.98707
3.98613
3.98651
3.98763
3.99004
3.99432
3.99866
4.0015
4.00104
3.99963
3.99648
3.98996
3.97714
3.95946
3.9372
3.91071
3.88037
3.84666
3.81017
3.77141
3.73091
3.68916
3.64662
3.60379
3.56134
3.51999
3.48121
3.44626
3.41704
3.39805
5.32615
4.33225
3.73327
3.50585
3.43243
3.33236
3.21018
3.13223
3.09759
3.06866
3.02861
2.9803
2.93619
2.90348
2.87616
2.84607
2.81543
2.78322
2.75029
2.71821
2.68843
2.66193
2.63853
2.62064
2.61041
2.60854
2.62813
2.67919
2.77045
2.89866
3.03913
3.19009
3.34009
3.48681
3.62349
3.74665
3.85653
3.95443
4.0419
4.11839
4.18355
4.23873
4.28487
4.323
4.353
4.37501
4.38944
4.39719
4.3987
4.39762
4.39343
4.38318
4.36371
4.34268
4.32092
4.29782
4.27306
4.24693
4.21986
4.19237
4.16492
4.13799
4.11199
4.08741
4.06464
4.04417
4.02638
4.01152
3.99965
3.99104
3.98573
3.98419
3.98439
3.9851
3.9867
3.98938
3.99182
3.99252
3.99187
3.98975
3.98501
3.97616
3.9629
3.94559
3.92422
3.89882
3.86961
3.83692
3.80125
3.76313
3.7231
3.68165
3.63925
3.59641
3.55385
3.51258
3.47345
3.43794
3.40772
3.38779
5.5655
4.66887
4.02905
3.6517
3.48989
3.38657
3.27721
3.185
3.12282
3.08211
3.03859
2.98993
2.94542
2.90972
2.87859
2.84698
2.81461
2.78162
2.74894
2.71747
2.68795
2.66096
2.63815
2.62218
2.61354
2.61541
2.63377
2.68358
2.77147
2.88917
3.02308
3.16343
3.30944
3.45282
3.5878
3.711
3.82191
3.92115
4.0096
4.08727
4.15405
4.21061
4.25787
4.29666
4.32736
4.35023
4.36568
4.3744
4.37681
4.37608
4.37303
4.36516
4.34876
4.32756
4.30572
4.28324
4.25958
4.23469
4.20887
4.18263
4.15643
4.13076
4.10607
4.0828
4.06132
4.04222
4.02562
4.01161
4.00038
3.99203
3.98646
3.98373
3.98321
3.98327
3.9834
3.98335
3.98303
3.98195
3.97942
3.97431
3.96671
3.95641
3.94273
3.92568
3.90508
3.88082
3.85295
3.82168
3.78738
3.75047
3.71146
3.67077
3.62885
3.58643
3.54425
3.50302
3.46367
3.42759
3.39636
3.37532
5.72066
4.92783
4.29866
3.86904
3.61295
3.46573
3.34804
3.24599
3.16695
3.10941
3.05934
3.00982
2.9629
2.92214
2.88612
2.85276
2.81976
2.78669
2.75428
2.72331
2.69483
2.6701
2.6513
2.64052
2.64015
2.64706
2.67251
2.72877
2.80959
2.90747
3.0211
3.1437
3.27004
3.4036
3.53573
3.66028
3.77409
3.87598
3.96628
4.04548
4.11396
4.17227
4.22114
4.2613
4.29325
4.31744
4.3343
4.34445
4.34835
4.34797
4.34602
4.34053
4.32846
4.30854
4.28709
4.26529
4.24282
4.21947
4.19536
4.17087
4.14645
4.1226
4.09976
4.07834
4.05884
4.04149
4.02633
4.01357
4.0032
3.99515
3.98921
3.98522
3.98283
3.98116
3.97914
3.97637
3.97247
3.96745
3.96113
3.95313
3.94295
3.9307
3.91607
3.89881
3.87865
3.8554
3.82902
3.79952
3.7671
3.73203
3.6947
3.65529
3.61461
3.57319
3.53171
3.49082
3.45145
3.41491
3.38273
3.36053
5.82498
5.12574
4.52892
4.07544
3.76477
3.56393
3.42124
3.3079
3.21657
3.1451
3.08679
3.03424
2.98521
2.94107
2.90172
2.86561
2.83139
2.79805
2.76601
2.73643
2.71108
2.69253
2.68276
2.68365
2.69165
2.7167
2.77205
2.84041
2.90339
2.97085
3.04904
3.13753
3.22975
3.33303
3.45452
3.58206
3.70421
3.81413
3.91006
3.99277
4.06364
4.12401
4.17482
4.21683
4.2506
4.27666
4.29547
4.30763
4.31371
4.31406
4.31315
4.30989
4.30202
4.28594
4.26578
4.24494
4.2238
4.20223
4.18022
4.15801
4.13597
4.11454
4.09414
4.07512
4.05813
4.0429
4.02964
4.01838
4.00894
4.00112
3.99461
3.98912
3.98428
3.9797
3.97436
3.96783
3.95989
3.95053
3.93987
3.92798
3.91473
3.89998
3.88362
3.86546
3.84526
3.82275
3.79778
3.77021
3.74006
3.70737
3.67229
3.63512
3.59635
3.55652
3.51624
3.47613
3.43708
3.40039
3.3675
3.34421
5.89605
5.27609
4.71835
4.26299
3.91963
3.67665
3.50437
3.373
3.27083
3.18825
3.12094
3.06346
3.01193
2.96521
2.92323
2.88479
2.84896
2.8151
2.78361
2.75673
2.73766
2.72962
2.73152
2.74193
2.77256
2.84214
2.94433
3.01713
3.0574
3.08887
3.12189
3.15755
3.21337
3.26763
3.34762
3.46675
3.59734
3.72211
3.83172
3.92413
4.00119
4.06545
4.11891
4.16311
4.19899
4.22731
4.24859
4.26334
4.27205
4.2751
4.2748
4.27317
4.26862
4.25857
4.2414
4.22225
4.20274
4.1832
4.16365
4.14419
4.12508
4.10667
4.08931
4.07351
4.05916
4.04645
4.03532
4.02559
4.017
4.00922
4.00185
3.99449
3.98686
3.97846
3.96877
3.95769
3.94515
3.9312
3.91601
3.8998
3.88274
3.86483
3.84609
3.82636
3.80552
3.78327
3.75941
3.73364
3.70582
3.67578
3.64348
3.60904
3.57288
3.5353
3.49686
3.45811
3.4199
3.3835
3.3503
3.32621
5.94445
5.39023
4.87397
4.42943
4.07129
3.79913
3.59799
3.44708
3.33006
3.23715
3.16118
3.09776
3.04268
2.9933
2.94882
2.90829
2.87101
2.83692
2.80696
2.78468
2.7764
2.77863
2.78969
2.82173
2.89575
3.04707
3.1895
3.25629
3.26766
3.26368
3.24989
3.22175
3.22404
3.24116
3.28121
3.3489
3.4573
3.58845
3.71503
3.82535
3.91709
3.99174
4.05171
4.10002
4.13875
4.16962
4.19365
4.21139
4.22331
4.22989
4.23176
4.23134
4.22945
4.22443
4.21367
4.1976
4.18033
4.16313
4.14636
4.1301
4.11444
4.09961
4.08579
4.07346
4.06229
4.05229
4.04328
4.03497
4.02699
4.01892
4.01031
4.00071
3.98992
3.97691
3.96243
3.94644
3.92901
3.91026
3.89042
3.86973
3.84853
3.82699
3.80528
3.78337
3.76121
3.73856
3.71521
3.69078
3.66501
3.63754
3.6082
3.57691
3.54381
3.50906
3.4731
3.43638
3.39968
3.36421
3.33125
3.30681
5.97988
5.47754
5.00055
4.57354
4.21336
3.92397
3.70008
3.52859
3.39595
3.29173
3.20666
3.13649
3.07688
3.02444
2.97748
2.93507
2.89672
2.86304
2.83592
2.82335
2.82511
2.83481
2.86406
2.93444
3.0848
3.33836
3.50363
3.53848
3.52847
3.49345
3.41443
3.31743
3.25792
3.25227
3.2629
3.29301
3.35053
3.44011
3.5622
3.68448
3.79586
3.88962
3.96463
4.02322
4.06849
4.10377
4.13136
4.1524
4.16782
4.17814
4.1839
4.18604
4.18578
4.18424
4.17989
4.17053
4.15708
4.14271
4.12904
4.11627
4.10443
4.0936
4.08393
4.07522
4.0673
4.05992
4.05281
4.04559
4.03786
4.02905
4.01874
4.0066
3.99135
3.97418
3.95505
3.93417
3.91181
3.88817
3.86362
3.83843
3.81302
3.78765
3.76264
3.73804
3.71395
3.69017
3.66656
3.64273
3.61838
3.59304
3.56639
3.5382
3.50836
3.47684
3.44391
3.40988
3.37541
3.34162
3.30958
3.2854
6.006
5.54745
5.1046
4.69831
4.3431
4.04558
3.80566
3.61647
3.46805
3.35102
3.25698
3.17919
3.11431
3.0582
3.00867
2.96447
2.92565
2.8933
2.87234
2.8729
2.8798
2.90336
2.96339
3.09688
3.37383
3.70726
3.85927
3.85557
3.8257
3.74682
3.58832
3.44531
3.34431
3.28802
3.27643
3.28333
3.3064
3.35061
3.4188
3.52105
3.63689
3.74751
3.8432
3.92055
3.98053
4.02606
4.06067
4.08653
4.1062
4.12049
4.13038
4.13657
4.14012
4.14059
4.14002
4.13774
4.13226
4.12227
4.11265
4.10356
4.09565
4.089
4.08347
4.0784
4.07355
4.0685
4.06299
4.05643
4.04847
4.03844
4.02588
4.00967
3.99095
3.96977
3.94632
3.92081
3.8937
3.86532
3.83619
3.80665
3.77719
3.74807
3.71969
3.69216
3.66568
3.64013
3.61547
3.59136
3.56755
3.54355
3.51897
3.49344
3.4667
3.43851
3.40896
3.37818
3.34662
3.31528
3.2849
3.26172
6.0262
5.60409
5.19176
4.80624
4.46028
4.16132
3.91126
3.70808
3.54522
3.41536
3.311
3.22556
3.15482
3.09386
3.04207
2.99611
2.95787
2.92841
2.92193
2.92644
2.94426
2.99227
3.10262
3.3349
3.79682
4.13858
4.21468
4.19456
4.1269
3.97638
3.77089
3.59759
3.46725
3.37699
3.32277
3.30051
3.30334
3.31745
3.34712
3.39663
3.47617
3.57887
3.68424
3.78049
3.8616
3.9258
3.97461
4.01069
4.03762
4.0571
4.07181
4.08258
4.09028
4.09555
4.09936
4.10126
4.10111
4.10001
4.09721
4.09239
4.08868
4.08611
4.08438
4.08253
4.08029
4.07715
4.07282
4.06645
4.05752
4.04519
4.02904
4.00996
3.988
3.96309
3.93555
3.90573
3.87427
3.84157
3.80831
3.77481
3.74166
3.70907
3.67748
3.647
3.6179
3.59013
3.56374
3.53851
3.51427
3.49059
3.46712
3.44343
3.41922
3.39408
3.36793
3.34067
3.31252
3.2843
3.25626
3.23487
6.04374
5.6505
5.2656
4.90032
4.56588
4.26946
4.01476
3.80119
3.62591
3.48383
3.36884
3.27494
3.19751
3.13227
3.07702
3.03037
2.99344
2.97516
2.97761
2.99029
3.02783
3.11867
3.31768
3.73154
4.29983
4.56265
4.55821
4.51577
4.40278
4.1748
3.95057
3.764
3.61567
3.50112
3.41636
3.35868
3.32343
3.31751
3.32298
3.33867
3.37274
3.42853
3.51512
3.61137
3.70684
3.79196
3.86193
3.91595
3.95635
3.98594
4.00791
4.02422
4.03691
4.04729
4.05611
4.06365
4.07011
4.07548
4.07911
4.08128
4.08304
4.08474
4.08661
4.08668
4.08621
4.08466
4.08116
4.07405
4.06266
4.0475
4.02913
4.00719
3.98181
3.95319
3.92185
3.88825
3.85308
3.81679
3.78005
3.74324
3.70689
3.67125
3.63672
3.60343
3.57166
3.54142
3.51285
3.48581
3.46027
3.4359
3.41245
3.3896
3.36706
3.34435
3.32123
3.29743
3.27286
3.24818
3.223
3.20414
6.06192
5.6917
5.33044
4.98433
4.66191
4.37045
4.11373
3.89346
3.70836
3.55527
3.42988
3.32716
3.24267
3.1726
3.11449
3.06818
3.0351
3.03523
3.04276
3.07029
3.1418
3.30332
3.64167
4.31668
4.80496
4.91199
4.88585
4.79971
4.61081
4.35577
4.12858
3.93766
3.77874
3.64723
3.53971
3.45414
3.38913
3.34528
3.32119
3.32228
3.32753
3.34484
3.38254
3.44753
3.53415
3.6269
3.71486
3.79098
3.85235
3.89914
3.9339
3.95971
3.97963
3.99636
4.0109
4.02459
4.03755
4.04954
4.06035
4.06951
4.07719
4.08345
4.08836
4.09032
4.08989
4.08836
4.08464
4.07697
4.06388
4.04677
4.02544
4.00015
3.97127
3.9392
3.90457
3.86787
3.82978
3.79072
3.75132
3.7119
3.67299
3.63479
3.59771
3.56185
3.52754
3.49479
3.46383
3.43458
3.40713
3.38125
3.35689
3.33387
3.31199
3.29079
3.26995
3.24907
3.2278
3.20671
3.18461
3.16884
6.08552
5.73266
5.39056
5.0612
4.75067
4.46481
4.2085
3.98393
3.79125
3.62869
3.49354
3.38203
3.29037
3.21528
3.15559
3.11024
3.09518
3.10028
3.12137
3.17925
3.31456
3.60631
4.2077
4.92499
5.21861
5.21095
5.15893
5.0266
4.7703
4.52088
4.3018
4.11213
3.9475
3.80421
3.67986
3.57333
3.48419
3.41222
3.35832
3.32263
3.31087
3.311
3.31691
3.33773
3.38283
3.45673
3.54363
3.63349
3.71607
3.78564
3.84068
3.88276
3.91514
3.94131
3.96378
3.98436
4.00397
4.02268
4.0404
4.05596
4.06967
4.08018
4.08833
4.09136
4.0908
4.08905
4.08474
4.07589
4.06057
4.04051
4.01604
3.98753
3.95557
3.92065
3.88347
3.84446
3.80427
3.76324
3.72195
3.68064
3.63979
3.59957
3.56039
3.52233
3.48573
3.45061
3.41726
3.38565
3.35593
3.32792
3.30208
3.27811
3.25597
3.23525
3.21566
3.19679
3.17809
3.16018
3.14097
3.1286
6.12235
5.77667
5.44806
5.13214
4.8321
4.55295
4.29856
4.07177
3.87336
3.70318
3.55933
3.4396
3.34101
3.26166
3.20131
3.16556
3.16759
3.18211
3.22722
3.33817
3.58349
4.09689
4.93255
5.42143
5.49784
5.46751
5.37334
5.17232
4.9142
4.67844
4.46991
4.28391
4.11626
3.96459
3.82779
3.70547
3.59754
3.50434
3.42663
3.36475
3.31992
3.29814
3.28675
3.28774
3.29734
3.32449
3.38078
3.46151
3.55059
3.63841
3.71683
3.78232
3.83508
3.8773
3.91197
3.94185
3.96903
3.99446
4.01835
4.04006
4.05903
4.07321
4.08427
4.08794
4.08717
4.08477
4.07914
4.06777
4.04993
4.0271
3.99991
3.96884
3.93456
3.89761
3.85864
3.81807
3.77649
3.73419
3.69164
3.64906
3.60686
3.56517
3.52438
3.48454
3.44602
3.40882
3.37329
3.3394
3.30736
3.27731
3.24964
3.22421
3.20104
3.17985
3.16039
3.1424
3.12522
3.10967
3.09278
3.08373
6.17826
5.82476
5.50349
5.19828
4.90771
4.635
4.38356
4.15612
3.95407
3.77805
3.62698
3.50007
3.3954
3.314
3.2548
3.24492
3.25399
3.2884
3.37865
3.58336
4.01357
4.87668
5.54931
5.7451
5.72952
5.66678
5.52069
5.28051
5.04442
4.82874
4.6318
4.44984
4.28052
4.12291
3.97698
3.84289
3.72098
3.61162
3.51539
3.43283
3.36481
3.31324
3.27997
3.26398
3.25608
3.25989
3.27628
3.3135
3.38207
3.46851
3.56026
3.64884
3.72763
3.79381
3.84789
3.89246
3.93036
3.96369
3.99369
4.02032
4.04357
4.06118
4.07383
4.07732
4.0763
4.07333
4.06637
4.05236
4.03191
4.00658
3.97718
3.94426
3.90844
3.87021
3.83018
3.78873
3.74637
3.70336
3.66013
3.61681
3.57379
3.53114
3.48923
3.44808
3.40806
3.36917
3.33179
3.29584
3.26185
3.23001
3.20059
3.17349
3.14881
3.12639
3.10613
3.08794
3.07114
3.05692
3.04153
3.03528
6.23987
5.87785
5.55754
5.26009
4.97799
4.71194
4.46421
4.23745
4.03336
3.85298
3.69648
3.56377
3.45579
3.37378
3.33445
3.33967
3.36563
3.43986
3.61515
3.99213
4.76436
5.59316
5.94405
5.94546
5.91173
5.81439
5.61265
5.38295
5.16983
4.97227
4.78571
4.60761
4.43759
4.27596
4.12348
3.98076
3.84839
3.72692
3.61662
3.51838
3.4326
3.36031
3.30307
3.26154
3.24025
3.22542
3.22619
3.23531
3.26018
3.31144
3.39087
3.48661
3.5856
3.67779
3.758
3.82518
3.88045
3.92591
3.96391
3.99564
4.02185
4.04207
4.05546
4.05818
4.05704
4.05338
4.04523
4.02879
4.00624
3.97905
3.94813
3.91404
3.87736
3.83854
3.79809
3.75636
3.71379
3.67058
3.62714
3.58355
3.54015
3.49699
3.4544
3.41238
3.37129
3.33114
3.29231
3.255
3.21972
3.18646
3.15546
3.12668
3.10028
3.07623
3.05455
3.03537
3.01804
3.00418
2.98942
2.9852
6.35234
5.95386
5.6175
5.32139
5.0457
4.78542
4.54192
4.31646
4.11168
3.92815
3.76824
3.63194
3.52534
3.44787
3.4477
3.46363
3.52146
3.66864
3.99539
4.67535
5.59417
6.07781
6.14951
6.1248
6.04953
5.88987
5.68361
5.48275
5.29261
5.10962
4.931
4.75627
4.58632
4.42218
4.26512
4.11611
3.97598
3.84536
3.72478
3.61465
3.51545
3.42786
3.35278
3.29143
3.24473
3.21601
3.20107
3.19814
3.20362
3.22085
3.25846
3.32684
3.42287
3.52708
3.63012
3.72407
3.80425
3.86956
3.92141
3.96163
3.99216
4.01417
4.02801
4.02939
4.02804
4.02382
4.01461
3.99627
3.9725
3.94442
3.91286
3.87836
3.8415
3.80268
3.76239
3.72091
3.67862
3.6357
3.59246
3.54901
3.50561
3.46232
3.4194
3.37691
3.33516
3.2943
3.25487
3.21696
3.18085
3.1465
3.11418
3.08387
3.05583
3.0301
3.00682
2.9863
2.96794
2.95376
2.93901
2.93597
6.39491
6.03216
5.68547
5.38475
5.11248
4.85668
4.61719
4.39381
4.18916
4.00501
3.8433
3.70865
3.60632
3.5686
3.58
3.62662
3.75144
4.03544
4.63207
5.5859
6.17654
6.31859
6.30393
6.25009
6.12801
5.94233
5.75894
5.58371
5.41158
5.23958
5.06713
4.89532
4.72581
4.56026
4.4003
4.247
4.10144
3.96421
3.83589
3.71687
3.6077
3.50875
3.42076
3.3445
3.28093
3.23168
3.19765
3.18225
3.17872
3.18287
3.19638
3.22674
3.28227
3.36947
3.47432
3.58361
3.68681
3.7768
3.85025
3.90649
3.94696
3.97395
3.9898
3.99056
3.98897
3.98423
3.974
3.9547
3.93068
3.90278
3.87153
3.83742
3.80102
3.76277
3.72313
3.68235
3.64075
3.5985
3.55584
3.51286
3.46977
3.42664
3.38371
3.34113
3.29941
3.25873
3.21934
3.18122
3.14463
3.10953
3.07622
3.04474
3.01538
2.98826
2.96359
2.94183
2.92241
2.90769
2.89271
2.89025
6.37445
6.15281
5.77966
5.45852
5.1811
4.92734
4.69069
4.47009
4.26667
4.08363
3.9247
3.79804
3.72243
3.7277
3.76218
3.86672
4.11492
4.64189
5.59367
6.25834
6.46672
6.45941
6.42163
6.3291
6.1663
6.00059
5.84207
5.6855
5.52586
5.3618
5.19414
5.02497
4.85638
4.69042
4.52878
4.37272
4.22334
4.08134
3.94736
3.82187
3.70531
3.59812
3.50077
3.41387
3.33813
3.27454
3.22433
3.18846
3.17036
3.17076
3.17466
3.18581
3.21028
3.25921
3.3322
3.42958
3.5358
3.64052
3.73499
3.81275
3.87117
3.91072
3.93425
3.94003
3.93855
3.93394
3.9239
3.90522
3.88162
3.85439
3.82406
3.79102
3.75578
3.71872
3.68025
3.6406
3.60008
3.5588
3.51701
3.47474
3.43219
3.38949
3.34711
3.30529
3.2643
3.22416
3.18507
3.14703
3.11027
3.07482
3.04098
3.00881
2.97866
2.95069
2.92514
2.90258
2.88249
2.86746
2.85251
2.8505
6.31446
6.17894
5.88629
5.5454
5.25516
4.99919
4.7642
4.54615
4.34605
4.16717
4.02
3.91071
3.90538
3.93005
4.0187
4.2405
4.7162
5.64157
6.34476
6.60646
6.60311
6.57507
6.50189
6.35862
6.21114
6.07021
5.93083
5.78678
5.63525
5.47657
5.31251
5.14568
4.97829
4.81259
4.65023
4.49258
4.34076
4.19554
4.05762
3.92756
3.80574
3.69271
3.58877
3.49449
3.41032
3.33698
3.27529
3.22616
3.19122
3.17062
3.17086
3.17467
3.18544
3.20751
3.24574
3.30604
3.38843
3.48334
3.58154
3.67306
3.75033
3.80926
3.84888
3.87026
3.87161
3.86945
3.86304
3.84925
3.82691
3.80031
3.77087
3.73913
3.70553
3.67025
3.6335
3.59544
3.55634
3.51634
3.47562
3.43424
3.39261
3.35107
3.30993
3.26926
3.22922
3.18983
3.15128
3.11362
3.0771
3.04176
3.00792
2.97568
2.94537
2.91722
2.8915
2.86887
2.84887
2.8342
2.82007
2.81894
6.21595
6.15216
5.9782
5.64126
5.33668
5.07413
4.83885
4.62398
4.42988
4.26425
4.13723
4.10377
4.12526
4.20707
4.41694
4.86979
5.75869
6.4611
6.7447
6.74239
6.71716
6.65177
6.519
6.38872
6.26813
6.14872
6.02286
5.88673
5.74009
5.58475
5.42323
5.25829
5.09222
4.92719
4.76481
4.60646
4.45329
4.30606
4.16565
4.03252
3.90726
3.7903
3.68204
3.58291
3.49332
3.41376
3.34462
3.28654
3.24017
3.20637
3.18566
3.18126
3.18325
3.19093
3.20753
3.23529
3.27883
3.34368
3.42176
3.50544
3.58802
3.66225
3.72176
3.76308
3.78536
3.78785
3.78585
3.7794
3.76524
3.74134
3.71309
3.6827
3.65081
3.61746
3.58269
3.54657
3.50926
3.47079
3.4314
3.3915
3.35153
3.31162
3.27194
3.23254
3.19361
3.15519
3.11749
3.08059
3.04473
3.01
2.97673
2.94502
2.91526
2.8877
2.86268
2.84092
2.82212
2.80882
2.79707
2.79728
6.06302
6.06107
5.97474
5.76374
5.43894
5.15842
4.91837
4.70735
4.52703
4.38577
4.33338
4.35239
4.43132
4.63964
5.09154
5.96546
6.64287
6.90896
6.90452
6.87085
6.78854
6.65076
6.53135
6.4313
6.33568
6.23216
6.11501
5.98355
5.83969
5.68644
5.52675
5.36347
5.19876
5.03474
4.87283
4.71454
4.56084
4.41274
4.27095
4.13619
4.00896
3.88979
3.77907
3.67717
3.58443
3.50109
3.42733
3.3636
3.3097
3.2662
3.23263
3.21093
3.19674
3.1954
3.19738
3.20318
3.21678
3.24502
3.28951
3.34516
3.41278
3.48552
3.55504
3.61433
3.65839
3.68411
3.69224
3.69098
3.68589
3.67406
3.65037
3.62307
3.59287
3.561
3.52789
3.49371
3.45835
3.42177
3.38446
3.34668
3.30864
3.27049
3.2324
3.19447
3.15689
3.11976
3.08329
3.04757
3.01287
2.97929
2.94717
2.91669
2.88824
2.86218
2.8389
2.81917
2.80304
2.79245
2.78567
2.78623
5.66425
5.96175
5.93133
5.80924
5.54863
5.25388
5.00731
4.80613
4.65107
4.58758
4.60653
4.68898
4.90844
5.38485
6.26088
6.90481
7.12532
7.11162
7.05333
6.92471
6.7682
6.65173
6.56512
6.4901
6.41005
6.31541
6.20319
6.07469
5.93296
5.78154
5.62362
5.46192
5.29872
5.13582
4.97487
4.81707
4.66367
4.5155
4.3735
4.23826
4.11048
3.99058
3.87906
3.77612
3.68211
3.59702
3.52097
3.45349
3.39456
3.34368
3.3005
3.26515
3.23672
3.21588
3.19942
3.19259
3.1881
3.18996
3.19801
3.21749
3.25751
3.30985
3.37007
3.43351
3.49208
3.5394
3.57066
3.58732
3.58718
3.58449
3.57628
3.55869
3.53201
3.50178
3.46996
3.43735
3.40383
3.36967
3.33487
3.29947
3.26361
3.22744
3.19118
3.15499
3.11907
3.08356
3.04868
3.01457
2.9815
2.94962
2.9193
2.8908
2.86456
2.84104
2.82075
2.80456
2.79276
2.78646
2.7859
2.78706
4.75876
5.73668
5.84052
5.78952
5.6488
5.36618
5.11892
4.93509
4.86257
4.88404
4.97686
5.22149
5.74959
6.64454
7.24717
7.40401
7.3766
7.28321
7.08886
6.90304
6.77118
6.68373
6.61893
6.5566
6.48322
6.39254
6.28335
6.1576
6.01845
5.86946
5.71369
5.55395
5.39242
5.23102
5.07132
4.91463
4.76218
4.61485
4.47363
4.33911
4.21205
4.09282
3.98193
3.87945
3.78561
3.70012
3.62277
3.55292
3.48999
3.43316
3.38182
3.3354
3.2937
3.25632
3.2238
3.1947
3.17603
3.15588
3.14146
3.14261
3.14877
3.16493
3.19876
3.24787
3.30336
3.36032
3.41067
3.44896
3.4724
3.48057
3.47946
3.47446
3.4626
3.43857
3.40983
3.37889
3.34702
3.31478
3.2822
3.24921
3.21576
3.18195
3.14793
3.11388
3.08001
3.04654
3.01368
2.98167
2.95076
2.92123
2.89347
2.86783
2.8449
2.82521
2.80948
2.79877
2.79262
2.79235
2.79364
2.79819
3.09874
5.19485
5.71914
5.72467
5.66576
5.51542
5.27836
5.16452
5.18821
5.29544
5.57859
6.18519
7.11374
7.67277
7.74834
7.70196
7.56562
7.29372
7.07044
6.91259
6.80912
6.74063
6.68405
6.62343
6.55014
6.46033
6.3534
6.23087
6.09528
5.94968
5.79693
5.63976
5.48046
5.32099
5.16309
5.0081
4.85731
4.71169
4.57221
4.43954
4.31439
4.19708
4.08802
3.98715
3.89445
3.80936
3.73135
3.65935
3.59258
3.52997
3.47084
3.41442
3.36063
3.30928
3.26092
3.21585
3.1751
3.14262
3.10994
3.08375
3.06972
3.07071
3.07654
3.09203
3.12453
3.17219
3.22523
3.27703
3.32101
3.35159
3.36986
3.37094
3.36882
3.36168
3.346
3.31895
3.28917
3.25833
3.22728
3.1962
3.16508
3.13384
3.10244
3.07101
3.03969
3.00876
2.97845
2.94911
2.92103
2.89463
2.87036
2.84873
2.83055
2.81621
2.80749
2.80243
2.80293
2.80574
2.81318
2.83004
2.24872
3.97467
5.38375
5.65552
5.64966