/*--------------------------------*- C++ -*----------------------------------*\
  =========                 |
  \\      /  F ield         | OpenFOAM: The Open Source CFD Toolbox
   \\    /   O peration     | Website:  https://openfoam.org
    \\  /    A nd           | Version:  9
     \\/     M anipulation  |
\*---------------------------------------------------------------------------*/
FoamFile
{
    format      ascii;
    class       volScalarField;
    location    "5.5";
    object      rho;
}
// * * * * * * * * * * * * * * * * * * * * * * * * * * * * * * * * * * * * * //

dimensions      [1 -3 0 0 0 0 0];

internalField   nonuniform List<scalar> 
5250
(
1.40001
1.40002
1.40006
1.40016
1.40036
1.40096
1.40224
1.40575
1.41368
1.43398
1.47966
1.58487
1.80405
2.29019
4.25902
5.92342
5.76025
5.65003
5.66926
5.7519
5.84053
5.89356
5.93277
5.96418
5.991
1.40001
1.40002
1.40006
1.40016
1.40036
1.40093
1.40226
1.40554
1.41373
1.43299
1.47909
1.58154
1.79905
2.27573
4.20626
5.93082
5.76171
5.64738
5.66707
5.75033
5.83908
5.89233
5.93233
5.9645
5.99222
1.40001
1.40002
1.40005
1.40016
1.40033
1.40096
1.402
1.40583
1.41218
1.43393
1.47365
1.57908
1.78514
2.24758
4.08797
5.94755
5.76469
5.63894
5.65794
5.74055
5.8286
5.88073
5.9209
5.95277
5.98034
1.40001
1.40002
1.40006
1.40013
1.40036
1.4008
1.40221
1.40477
1.41326
1.42905
1.47469
1.56556
1.77219
2.20207
3.90541
5.97401
5.77102
5.62543
5.64238
5.72181
5.8085
5.85973
5.89741
5.92939
5.95815
1.40001
1.40002
1.40005
1.40013
1.40032
1.40081
1.40186
1.40496
1.41116
1.4293
1.46653
1.55832
1.7471
2.1497
3.66193
6.00539
5.78227
5.60925
5.62221
5.69638
5.78096
5.82876
5.86582
5.89495
5.92485
1.40001
1.40002
1.40005
1.40012
1.40028
1.40074
1.40174
1.40437
1.41068
1.42587
1.46241
1.54459
1.72173
2.08986
3.36972
6.02279
5.79668
5.59274
5.59939
5.66328
5.74409
5.78786
5.82029
5.84757
5.87879
1.40001
1.40002
1.40005
1.40011
1.40027
1.40065
1.4016
1.404
1.40952
1.42387
1.45612
1.53224
1.69488
2.03222
3.08002
5.98446
5.7925
5.57073
5.57076
5.62249
5.69577
5.73337
5.75752
5.77844
5.81116
1.40001
1.40002
1.40004
1.4001
1.40025
1.40057
1.40154
1.40338
1.40933
1.42036
1.45342
1.51874
1.67339
1.9817
2.88308
5.79826
5.72199
5.53397
5.53033
5.56536
5.63116
5.6583
5.67243
5.68124
5.70929
1.40001
1.40002
1.40003
1.4001
1.4002
1.40059
1.40121
1.40353
1.40732
1.42075
1.44477
1.5132
1.64631
1.93883
2.70597
5.49219
5.59145
5.50893
5.48291
5.49551
5.54533
5.56055
5.55485
5.5398
5.54443
1.40001
1.40001
1.40004
1.40007
1.40021
1.40044
1.40128
1.40269
1.40763
1.41641
1.44407
1.49698
1.62887
1.88882
2.54467
5.10454
5.52294
5.47286
5.41706
5.41981
5.44152
5.43511
5.40594
5.33594
5.27936
1.40001
1.40001
1.40003
1.40008
1.40016
1.40046
1.40096
1.40278
1.40579
1.41643
1.43541
1.49111
1.59879
1.84356
2.38937
4.64227
5.48243
5.44154
5.34705
5.33309
5.32516
5.29409
5.20417
4.98565
4.34664
1.40001
1.40001
1.40003
1.40006
1.40015
1.40035
1.40094
1.40209
1.4057
1.41255
1.43338
1.47471
1.57771
1.78554
2.24487
4.09784
5.46511
5.41725
5.29065
5.24351
5.21239
5.14507
4.99371
4.68206
3.99516
1.40001
1.40001
1.40002
1.40005
1.40014
1.40028
1.40081
1.40171
1.40479
1.41041
1.42796
1.46229
1.55086
1.72759
2.1058
3.49106
5.45882
5.40555
5.25575
5.16304
5.10358
5.00172
4.81356
4.47597
3.92836
1.40001
1.40001
1.40002
1.40005
1.4001
1.40026
1.40061
1.40148
1.40371
1.40872
1.42208
1.45133
1.5221
1.67176
1.97948
2.86314
5.37817
5.36323
5.24874
5.09803
5.0075
4.87813
4.67544
4.3748
3.93267
1.40001
1.40001
1.40002
1.40004
1.40009
1.4002
1.4005
1.40124
1.40289
1.40751
1.41719
1.44366
1.49945
1.62871
1.89187
2.54946
4.99216
5.26358
5.19829
5.04026
4.91763
4.78534
4.57475
4.30508
3.95185
1.40001
1.40001
1.40001
1.40003
1.40007
1.40018
1.40037
1.40105
1.40223
1.40625
1.41352
1.43627
1.48
1.59109
1.80975
2.30905
4.30308
5.15213
5.11624
5.00071
4.84499
4.70573
4.50775
4.25313
3.95459
1.40001
1.40001
1.40001
1.40002
1.40006
1.40013
1.40031
1.4008
1.40179
1.40489
1.41064
1.42871
1.46345
1.55352
1.73282
2.11282
3.5615
5.10535
5.08054
4.98345
4.7935
4.63904
4.45359
4.21864
3.9504
1.40001
1.40001
1.40001
1.40002
1.40004
1.4001
1.40024
1.40058
1.40147
1.40339
1.40881
1.42004
1.45063
1.51447
1.66051
1.94338
2.7425
4.97819
5.06562
4.98518
4.78479
4.5959
4.4117
4.19487
3.9488
1.40001
1.40001
1.40001
1.40002
1.40003
1.40008
1.40017
1.40048
1.40101
1.40288
1.406
1.4169
1.4362
1.49287
1.60124
1.84554
2.39266
4.49225
4.97871
4.92967
4.7764
4.56741
4.37908
4.17766
3.95135
1.40001
1.40001
1.40001
1.40001
1.40003
1.40006
1.40015
1.40032
1.40088
1.40186
1.40529
1.41107
1.43056
1.4663
1.56115
1.74634
2.14197
3.68961
4.88202
4.86112
4.76694
4.55698
4.35811
4.16447
3.95687
1.40001
1.40001
1.40001
1.40001
1.40002
1.40005
1.4001
1.40026
1.40056
1.40156
1.40328
1.40922
1.41964
1.45218
1.51353
1.66358
1.93814
2.77297
4.71897
4.8373
4.76564
4.58415
4.35874
4.16118
3.96506
1.40001
1.40001
1.40001
1.40001
1.40002
1.40003
1.40008
1.40017
1.40046
1.40098
1.4027
1.40591
1.41571
1.43525
1.48737
1.59268
1.82016
2.32459
4.21136
4.76765
4.72675
4.5998
4.37666
4.16965
3.97822
1.40001
1.40001
1.40001
1.40001
1.40001
1.40003
1.40005
1.40013
1.4003
1.40075
1.40184
1.40435
1.41104
1.42553
1.46283
1.54244
1.71651
2.05759
3.35599
4.65362
4.65496
4.58917
4.41348
4.19616
4.00032
1.40001
1.40001
1.40001
1.40001
1.40001
1.40002
1.40004
1.4001
1.4002
1.40055
1.40119
1.40316
1.40712
1.4183
1.44178
1.50115
1.62241
1.86195
2.47569
4.36118
4.64235
4.58999
4.44926
4.23253
4.02916
1.40001
1.40001
1.40001
1.40001
1.40001
1.40002
1.40003
1.40007
1.40015
1.40035
1.40088
1.40202
1.40528
1.41184
1.43056
1.46875
1.56203
1.74738
2.13501
3.63002
4.55989
4.54281
4.47119
4.28826
4.06709
1.40001
1.40001
1.40001
1.40001
1.40001
1.40001
1.40002
1.40005
1.40009
1.40026
1.40054
1.40146
1.40324
1.40843
1.41924
1.44798
1.50796
1.6456
1.8923
2.63389
4.33382
4.53263
4.48092
4.34829
4.12017
1.40001
1.40001
1.40001
1.40001
1.40001
1.40001
1.40002
1.40003
1.40007
1.40016
1.4004
1.40088
1.4024
1.40508
1.41402
1.4299
1.47724
1.56615
1.76585
2.17318
3.71984
4.45855
4.44374
4.3738
4.20296
1.40001
1.40001
1.40001
1.40001
1.40001
1.40001
1.40001
1.40002
1.40005
1.4001
1.40027
1.40058
1.40151
1.40348
1.40869
1.42043
1.44954
1.5129
1.65321
1.90717
2.73022
4.23536
4.42503
4.38194
4.26423
1.40001
1.40001
1.40001
1.40001
1.40001
1.40001
1.40001
1.40002
1.40003
1.40007
1.40017
1.40037
1.40101
1.40211
1.40594
1.41227
1.43382
1.4716
1.57377
1.75404
2.17118
3.65551
4.34884
4.34076
4.28681
1.40001
1.40001
1.40001
1.40001
1.40001
1.40001
1.40001
1.40001
1.40002
1.40005
1.4001
1.40026
1.40057
1.40147
1.40341
1.40841
1.42007
1.44773
1.5102
1.64396
1.88609
2.65668
4.1072
4.32251
4.29111
1.40001
1.40001
1.40001
1.40001
1.40001
1.40001
1.40001
1.40001
1.40002
1.40003
1.40007
1.40016
1.40038
1.40089
1.40222
1.40506
1.41303
1.42905
1.47226
1.55826
1.73933
2.11529
3.49206
4.23495
4.26035
1.40001
1.40001
1.40001
1.40001
1.40001
1.40001
1.40001
1.40001
1.40001
1.40002
1.40004
1.4001
1.40022
1.40059
1.40123
1.40337
1.40712
1.41924
1.44131
1.50286
1.61748
1.83692
2.44673
3.95993
4.23966
1.40001
1.40001
1.40001
1.40001
1.40001
1.40001
1.40001
1.40001
1.40001
1.40001
1.40003
1.40006
1.40015
1.40033
1.4008
1.40196
1.40455
1.41154
1.42593
1.46438
1.54163
1.70713
2.03181
3.24369
4.10854
1.40001
1.40001
1.40001
1.40001
1.40001
1.40001
1.40001
1.40001
1.40001
1.40001
1.40002
1.40004
1.40009
1.40019
1.40051
1.40109
1.40288
1.40639
1.41626
1.43673
1.48862
1.59193
1.78472
2.27142
3.74788
1.40001
1.40001
1.40001
1.40001
1.40001
1.40001
1.40001
1.40001
1.40001
1.40001
1.40001
1.40003
1.40005
1.40013
1.40029
1.40068
1.40168
1.40383
1.40987
1.42176
1.45501
1.52
1.66578
1.92932
2.87617
1.40001
1.40001
1.40001
1.40001
1.40001
1.40001
1.40001
1.40001
1.40001
1.40001
1.40001
1.40002
1.40003
1.40007
1.40017
1.40041
1.40095
1.40236
1.40535
1.41366
1.43041
1.47448
1.56248
1.73362
2.12198
1.40001
1.40001
1.40001
1.40001
1.40001
1.40001
1.40001
1.40001
1.40001
1.40001
1.40001
1.40001
1.40002
1.40004
1.4001
1.40023
1.40058
1.40125
1.40334
1.40705
1.41895
1.44021
1.50006
1.60766
1.81377
1.40001
1.40001
1.40001
1.40001
1.40001
1.40001
1.40001
1.40001
1.40001
1.40001
1.40001
1.40001
1.40001
1.40003
1.40006
1.40014
1.4003
1.40081
1.40168
1.40458
1.40973
1.42564
1.45531
1.53351
1.67077
1.40001
1.40001
1.40001
1.40001
1.40001
1.40001
1.40001
1.40001
1.40001
1.40001
1.40001
1.40001
1.40001
1.40002
1.40004
1.40007
1.40019
1.4004
1.40107
1.4023
1.40599
1.41324
1.43336
1.47351
1.56898
1.40001
1.40001
1.40001
1.40001
1.40001
1.40001
1.40001
1.40001
1.40001
1.40001
1.40001
1.40001
1.40001
1.40001
1.40002
1.40005
1.4001
1.40025
1.40053
1.40141
1.40306
1.40787
1.41744
1.44341
1.49498
1.40001
1.40001
1.40001
1.40001
1.40001
1.40001
1.40001
1.40001
1.40001
1.40001
1.40001
1.40001
1.40001
1.40001
1.40002
1.40003
1.40006
1.40013
1.40034
1.40071
1.40193
1.40402
1.41084
1.42291
1.4589
1.40001
1.40001
1.40001
1.40001
1.40001
1.40001
1.40001
1.40001
1.40001
1.40001
1.40001
1.40001
1.40001
1.40001
1.40001
1.40002
1.40003
1.40009
1.40018
1.40046
1.401
1.40257
1.4058
1.41434
1.43286
1.40001
1.40001
1.40001
1.40001
1.40001
1.40001
1.40001
1.40001
1.40001
1.40001
1.40001
1.40001
1.40001
1.40001
1.40001
1.40001
1.40002
1.40006
1.40012
1.40029
1.40069
1.40161
1.40403
1.40912
1.42313
1.40001
1.40001
1.40001
1.40001
1.40001
1.40001
1.40001
1.40001
1.40001
1.40001
1.40001
1.40001
1.40001
1.40001
1.40001
1.40001
1.40002
1.40004
1.4001
1.40021
1.40057
1.40125
1.40327
1.40753
1.41895
1.40001
1.40001
1.40001
1.40001
1.40001
1.40001
1.40001
1.40001
1.40001
1.40001
1.40001
1.40001
1.40001
1.40001
1.40001
1.40001
1.40002
1.40003
1.40009
1.40019
1.4005
1.40113
1.40294
1.40691
1.41731
1.40001
1.40001
1.40001
1.40001
1.40001
1.40001
1.40001
1.40001
1.40001
1.40001
1.40001
1.40001
1.40001
1.40001
1.40001
1.40001
1.40002
1.40003
1.40008
1.40019
1.40045
1.40115
1.40266
1.40703
1.41596
1.40001
1.40001
1.40001
1.40001
1.40001
1.40001
1.40001
1.40001
1.40001
1.40001
1.40001
1.40001
1.40001
1.40001
1.40001
1.40001
1.40002
1.40004
1.40007
1.4002
1.40042
1.40119
1.40251
1.40716
1.4154
1.40001
1.40001
1.40001
1.40001
1.40001
1.40001
1.40001
1.40001
1.40001
1.40001
1.40001
1.40001
1.40001
1.40001
1.40001
1.40001
1.40002
1.40003
1.40008
1.40018
1.40046
1.40108
1.40268
1.4067
1.41606
1.40001
1.40001
1.40001
1.40001
1.40001
1.40001
1.40001
1.40001
1.40001
1.40001
1.40001
1.40001
1.40001
1.40001
1.40001
1.40001
1.40002
1.40003
1.40008
1.40018
1.40044
1.40112
1.40258
1.40689
1.41556
1.40001
1.40001
1.40001
1.40001
1.40001
1.40001
1.40001
1.40001
1.40001
1.40001
1.40001
1.40001
1.40001
1.40001
1.40001
1.40001
1.40002
1.40004
1.40007
1.4002
1.40041
1.40116
1.40249
1.40699
1.41534
2.01572
1.32175
1.29703
1.74489
1.73293
1.61664
1.56732
1.561
1.55663
1.55347
1.54291
1.52631
1.51299
1.50184
1.49222
1.48202
1.47047
1.45926
1.44853
1.43807
1.42722
1.41537
1.40864
1.40689
1.40699
1.41054
1.42468
1.45307
1.49427
1.54643
1.60362
1.66361
1.72304
1.7807
1.83436
1.88333
1.9268
1.96643
2.00184
2.03345
2.06161
2.08609
2.10702
2.12573
2.14163
2.15277
2.16256
2.16805
2.17321
2.17487
2.17733
2.17374
2.17236
2.16625
2.16284
2.15467
2.14911
2.14035
2.13262
2.12388
2.11506
2.10651
2.09786
2.08973
2.08216
2.07523
2.06928
2.06441
2.06067
2.05828
2.05726
2.05769
2.05862
2.05978
2.06147
2.06409
2.06696
2.06939
2.06994
2.07021
2.07012
2.06839
2.06498
2.05857
2.05161
2.04069
2.03038
2.01716
2.00428
1.98927
1.97482
1.95867
1.943
1.92633
1.91067
1.89448
1.87971
1.86557
1.85409
1.84669
2.49565
1.85962
1.77802
1.84186
1.74725
1.63636
1.54816
1.50919
1.49999
1.50801
1.49255
1.46796
1.45591
1.44659
1.43799
1.42997
1.4203
1.40754
1.39561
1.38514
1.37334
1.36291
1.35485
1.35114
1.35041
1.35245
1.36371
1.38963
1.43054
1.484
1.54486
1.6084
1.67319
1.73676
1.79739
1.8527
1.90363
1.94865
1.9933
2.03328
2.07097
2.10048
2.12937
2.15224
2.17459
2.18984
2.20506
2.21456
2.22393
2.22943
2.23536
2.23572
2.23586
2.23355
2.23115
2.22708
2.22202
2.21635
2.20969
2.20284
2.19563
2.18823
2.18106
2.17411
2.16763
2.1619
2.15701
2.15317
2.15054
2.14922
2.14929
2.15094
2.15309
2.15543
2.15828
2.16206
2.16599
2.16923
2.17101
2.17183
2.17286
2.17159
2.16886
2.16281
2.15565
2.14558
2.13469
2.12172
2.10835
2.09328
2.07797
2.06153
2.04526
2.02822
2.0115
1.99475
1.97916
1.96456
1.95238
1.94446
3.0164
2.3942
2.09501
2.0116
1.90276
1.79431
1.6714
1.61122
1.55345
1.51916
1.49001
1.45712
1.43534
1.42415
1.41848
1.4047
1.38841
1.37051
1.3533
1.33998
1.33175
1.32161
1.31193
1.30697
1.30492
1.30498
1.31389
1.3378
1.37939
1.43656
1.50161
1.57266
1.64395
1.71604
1.78556
1.84817
1.90748
1.95988
2.01
2.0533
2.09206
2.12557
2.15621
2.18271
2.20653
2.22561
2.24232
2.25493
2.26534
2.27362
2.28055
2.28418
2.28419
2.28358
2.28186
2.27908
2.27516
2.27011
2.26447
2.25813
2.25154
2.24477
2.23812
2.23166
2.22579
2.22048
2.21611
2.21271
2.21058
2.20961
2.21016
2.21217
2.21493
2.21769
2.22114
2.22503
2.2294
2.23246
2.23507
2.23602
2.23751
2.23627
2.23367
2.22757
2.22074
2.21089
2.20028
2.18703
2.17357
2.15799
2.14248
2.12523
2.10841
2.09047
2.07327
2.05533
2.03915
2.02354
2.01054
2.00166
3.29409
2.73496
2.35661
2.17791
2.07439
1.96163
1.84413
1.75516
1.69736
1.63409
1.57199
1.51544
1.47687
1.45284
1.43593
1.41684
1.39613
1.37387
1.35383
1.33596
1.31979
1.30574
1.29403
1.28611
1.28191
1.28094
1.28816
1.31131
1.3556
1.42041
1.49407
1.57313
1.65483
1.73393
1.80955
1.87798
1.94107
1.99728
2.04967
2.09585
2.13804
2.17485
2.20824
2.23744
2.26315
2.28512
2.30329
2.31837
2.3299
2.33972
2.34801
2.3533
2.35432
2.35362
2.35257
2.3501
2.3468
2.34208
2.33686
2.33061
2.32437
2.31751
2.31111
2.30452
2.29885
2.29342
2.28934
2.28586
2.28394
2.28276
2.28335
2.28485
2.28776
2.28996
2.29338
2.29621
2.29993
2.30185
2.30424
2.30469
2.30534
2.30296
2.29977
2.29365
2.28671
2.27701
2.26646
2.2534
2.23966
2.22402
2.20804
2.19069
2.17326
2.15494
2.13691
2.11913
2.10215
2.08629
2.07218
2.06317
3.44853
2.97404
2.59399
2.34896
2.21663
2.11489
2.0112
1.91529
1.84048
1.77968
1.71517
1.65032
1.58805
1.53578
1.49614
1.46651
1.44151
1.41782
1.39335
1.37299
1.35421
1.33513
1.31526
1.3013
1.29352
1.29343
1.30314
1.33164
1.38069
1.44909
1.52553
1.60821
1.69226
1.77609
1.85472
1.92792
1.99447
2.0558
2.11125
2.16206
2.20695
2.24737
2.2825
2.31342
2.34001
2.36241
2.38119
2.39611
2.40793
2.41705
2.42521
2.43041
2.432
2.43002
2.42802
2.42443
2.42088
2.41544
2.41021
2.40342
2.39727
2.38996
2.38379
2.37679
2.3714
2.36563
2.3619
2.35796
2.35621
2.3545
2.35498
2.35561
2.35819
2.35999
2.3628
2.36439
2.36691
2.36787
2.36919
2.36824
2.36698
2.3635
2.35918
2.35254
2.34479
2.33476
2.32335
2.31008
2.29555
2.27955
2.26254
2.24456
2.22596
2.20692
2.18802
2.16911
2.15099
2.13386
2.11858
2.10798
3.55504
3.14411
2.796
2.53336
2.36326
2.24924
2.15214
2.06044
1.97867
1.912
1.85012
1.78799
1.72688
1.67018
1.61611
1.5699
1.53023
1.49328
1.4628
1.43392
1.40839
1.38738
1.37206
1.3607
1.35511
1.35596
1.36747
1.4005
1.45107
1.51483
1.58882
1.66843
1.74886
1.83216
1.91309
1.98945
2.05962
2.12375
2.18156
2.23336
2.27943
2.31997
2.35575
2.38665
2.41352
2.43561
2.45432
2.46867
2.48022
2.4882
2.49579
2.50061
2.50324
2.50056
2.49762
2.49299
2.4887
2.48251
2.47674
2.46934
2.46283
2.45512
2.4488
2.44166
2.43639
2.43069
2.42709
2.42311
2.42147
2.4194
2.41964
2.41925
2.42098
2.42156
2.42338
2.42332
2.42417
2.42299
2.42251
2.41989
2.41745
2.41273
2.40798
2.40079
2.39323
2.38305
2.37235
2.35905
2.34527
2.32914
2.31277
2.29438
2.27615
2.25661
2.23762
2.21792
2.19937
2.18118
2.16498
2.15304
3.62344
3.27246
2.95553
2.69468
2.50418
2.36976
2.26664
2.17884
2.09986
2.02871
1.96746
1.90894
1.85038
1.796
1.74322
1.69277
1.64723
1.60376
1.5637
1.52934
1.49791
1.47202
1.45357
1.44213
1.4372
1.44271
1.4709
1.51255
1.56026
1.61617
1.67948
1.74805
1.81657
1.88763
1.96483
2.04258
2.11694
2.18391
2.24377
2.29606
2.34235
2.38257
2.41777
2.44801
2.47392
2.49556
2.51353
2.52766
2.53889
2.54613
2.55291
2.55763
2.56101
2.55933
2.55606
2.55123
2.54689
2.54101
2.53568
2.52879
2.52287
2.51569
2.51
2.5034
2.49889
2.49363
2.49049
2.48679
2.48524
2.48294
2.48263
2.48124
2.48165
2.48055
2.4807
2.47853
2.47743
2.47369
2.47111
2.46609
2.46189
2.45538
2.44937
2.44104
2.43277
2.42213
2.41123
2.39799
2.3843
2.36847
2.35218
2.33408
2.31587
2.29632
2.27706
2.25705
2.23797
2.21904
2.20196
2.18886
3.66859
3.36661
3.07843
2.83196
2.63024
2.482
2.36642
2.27533
2.19887
2.12895
2.06689
2.01113
1.95765
1.90453
1.85554
1.80651
1.76091
1.71888
1.67663
1.63941
1.60725
1.58119
1.56386
1.55065
1.55113
1.57029
1.62105
1.66752
1.70862
1.75143
1.79726
1.84259
1.89544
1.94372
1.99844
2.07122
2.1477
2.22107
2.2863
2.34267
2.39099
2.43229
2.4681
2.49861
2.52505
2.54682
2.56523
2.57938
2.59075
2.59813
2.60401
2.60822
2.61173
2.61171
2.60868
2.60332
2.59833
2.59201
2.58648
2.57974
2.57405
2.56725
2.56207
2.55599
2.55191
2.54706
2.54439
2.54072
2.5392
2.53635
2.53545
2.53277
2.53175
2.52849
2.52646
2.52176
2.51812
2.51205
2.50687
2.49959
2.49321
2.48498
2.47755
2.4682
2.45947
2.44857
2.43806
2.42517
2.41243
2.39725
2.38206
2.36465
2.34731
2.3282
2.30939
2.28942
2.2703
2.25099
2.23337
2.2194
3.70087
3.43873
3.17634
2.94246
2.74308
2.58554
2.4611
2.36222
2.28151
2.21339
2.1522
2.09659
2.04705
1.99729
1.95099
1.90561
1.86059
1.82015
1.78188
1.74651
1.72096
1.69833
1.68339
1.67418
1.68835
1.74409
1.81572
1.86183
1.89078
1.91777
1.94327
1.95634
1.98119
2.01002
2.04557
2.09108
2.15473
2.2294
2.30216
2.36591
2.42045
2.46569
2.5036
2.53504
2.56131
2.58319
2.60129
2.61577
2.62711
2.63529
2.64084
2.64457
2.64782
2.64913
2.64825
2.64371
2.63894
2.63301
2.62791
2.62179
2.61689
2.61104
2.60671
2.60177
2.59859
2.59449
2.59228
2.58895
2.58731
2.58403
2.58221
2.57812
2.57537
2.56949
2.5649
2.55746
2.55106
2.54214
2.53432
2.52434
2.51559
2.50498
2.49571
2.4847
2.47491
2.46332
2.45258
2.43997
2.42772
2.41359
2.39933
2.38326
2.36691
2.34894
2.33089
2.31156
2.29278
2.27344
2.25562
2.24091
3.72911
3.49147
3.25732
3.03481
2.84198
2.67799
2.5489
2.44186
2.35769
2.28544
2.22481
2.17045
2.12153
2.07592
2.03144
1.98974
1.94826
1.90857
1.87395
1.84482
1.8265
1.80862
1.802
1.80836
1.85329
1.96075
2.04758
2.0791
2.09785
2.11113
2.10305
2.07863
2.06751
2.08193
2.10196
2.12943
2.16698
2.21849
2.28684
2.35502
2.41793
2.47159
2.5159
2.55095
2.57941
2.60244
2.62121
2.63632
2.6486
2.65787
2.66491
2.66935
2.67266
2.67468
2.67598
2.67418
2.67069
2.66574
2.66177
2.6571
2.65346
2.6493
2.64643
2.64286
2.64082
2.63777
2.63627
2.63325
2.6316
2.62782
2.62505
2.61958
2.61449
2.60656
2.5994
2.5896
2.5807
2.56932
2.55914
2.54668
2.53589
2.52302
2.51217
2.49937
2.48853
2.47587
2.46474
2.45189
2.43993
2.42624
2.41289
2.39771
2.38268
2.36572
2.34911
2.33065
2.31305
2.29433
2.277
2.26243
3.75567
3.5378
3.32132
3.11561
2.92745
2.76504
2.6285
2.5179
2.42655
2.35188
2.28834
2.23331
2.18526
2.14068
2.09934
2.05948
2.02305
1.98648
1.95664
1.93662
1.92166
1.91114
1.91753
1.95076
2.05737
2.21152
2.29631
2.30911
2.31839
2.31067
2.25767
2.20649
2.17221
2.15704
2.16375
2.17875
2.19908
2.22818
2.26681
2.3237
2.38719
2.44918
2.50237
2.54722
2.58189
2.60973
2.63082
2.64801
2.66144
2.672
2.68006
2.68595
2.69045
2.69273
2.69476
2.6956
2.69511
2.69164
2.68864
2.68511
2.6827
2.6802
2.67908
2.67719
2.67623
2.67409
2.67285
2.67005
2.66788
2.66339
2.65917
2.65165
2.64436
2.63423
2.6245
2.61203
2.60036
2.58622
2.57343
2.55844
2.54532
2.53028
2.51744
2.503
2.49071
2.47711
2.46525
2.45221
2.44034
2.42715
2.41466
2.40051
2.38681
2.37115
2.35595
2.33884
2.32239
2.30479
2.28804
2.2741
3.78248
3.57916
3.37794
3.18333
3.00447
2.84339
2.7048
2.58872
2.49236
2.41358
2.34632
2.29037
2.24025
2.19624
2.15663
2.11808
2.08506
2.05262
2.03442
2.01871
2.00997
2.01114
2.0385
2.11238
2.31934
2.48916
2.53562
2.54231
2.53516
2.4878
2.40667
2.33633
2.28487
2.25013
2.23204
2.22942
2.23911
2.25397
2.27528
2.30376
2.34738
2.40295
2.46047
2.51355
2.55829
2.59497
2.62277
2.64486
2.66056
2.67344
2.68336
2.69105
2.69722
2.70182
2.70627
2.70891
2.71047
2.71175
2.71223
2.71041
2.70981
2.70912
2.70951
2.70912
2.70932
2.70834
2.70771
2.70514
2.70258
2.69713
2.69111
2.68217
2.67334
2.66133
2.64972
2.635
2.62127
2.60477
2.5899
2.57267
2.55758
2.54059
2.52599
2.50992
2.49618
2.48133
2.46853
2.45473
2.4426
2.42928
2.41728
2.40368
2.39116
2.37663
2.36304
2.34732
2.33249
2.3161
2.30046
2.28725
3.80964
3.61926
3.42917
3.24532
3.07284
2.91608
2.77686
2.65687
2.55525
2.47126
2.4012
2.34148
2.29111
2.24582
2.20608
2.17026
2.13819
2.11457
2.10287
2.09433
2.095
2.11643
2.17911
2.34443
2.61426
2.75399
2.76119
2.75929
2.73076
2.63934
2.54489
2.46481
2.40127
2.3529
2.31842
2.29657
2.28468
2.28879
2.2972
2.30926
2.32956
2.35917
2.40618
2.45815
2.50991
2.55722
2.5957
2.62698
2.64956
2.66793
2.68071
2.69103
2.69939
2.70624
2.71213
2.7172
2.7217
2.72588
2.72904
2.73082
2.73265
2.73437
2.73641
2.73711
2.73794
2.73788
2.73757
2.73503
2.73126
2.72459
2.71728
2.70705
2.69628
2.6825
2.66871
2.65217
2.63632
2.61814
2.60127
2.58248
2.5655
2.54697
2.53059
2.51296
2.49768
2.48135
2.4674
2.45245
2.43971
2.42579
2.41381
2.40037
2.38859
2.37505
2.36278
2.34865
2.33539
2.32084
2.30646
2.29494
3.83995
3.65696
3.47821
3.30281
3.13667
2.98333
2.84452
2.72358
2.61789
2.52832
2.4535
2.39014
2.3367
2.291
2.2508
2.21675
2.18709
2.17643
2.16834
2.16754
2.18414
2.23567
2.35446
2.66853
2.91031
2.97298
2.97234
2.95228
2.88183
2.77334
2.67316
2.58848
2.51798
2.4602
2.41325
2.3766
2.34931
2.33183
2.32334
2.32942
2.33597
2.34721
2.36776
2.40121
2.44768
2.49716
2.54446
2.58663
2.62028
2.64761
2.66756
2.6832
2.69543
2.70521
2.71423
2.72246
2.73029
2.73766
2.7443
2.75016
2.75537
2.75971
2.76341
2.76551
2.76655
2.76654
2.76611
2.76315
2.75852
2.75096
2.74232
2.7306
2.71821
2.70286
2.68743
2.66942
2.65198
2.63242
2.61406
2.594
2.57564
2.55582
2.53804
2.51899
2.50226
2.48445
2.46911
2.45282
2.43897
2.42414
2.41157
2.39796
2.3864
2.37351
2.36228
2.34942
2.33774
2.32467
2.31176
2.30167
3.87619
3.69846
3.52539
3.35923
3.1979
3.04737
2.90993
2.78652
2.67943
2.5852
2.50596
2.43863
2.38144
2.33354
2.2931
2.25925
2.24147
2.23429
2.23325
2.24626
2.29057
2.39396
2.65381
3.00125
3.15607
3.15904
3.14835
3.10702
2.9982
2.88864
2.79056
2.70576
2.63176
2.56751
2.51144
2.4638
2.42348
2.39126
2.36753
2.35206
2.34929
2.35326
2.35802
2.3697
2.39313
2.43242
2.47932
2.5282
2.57342
2.61226
2.64308
2.66692
2.68556
2.70078
2.71389
2.72615
2.73778
2.74873
2.7587
2.76811
2.77635
2.78301
2.78882
2.79165
2.79306
2.79327
2.79301
2.79002
2.78442
2.7755
2.76535
2.75207
2.73812
2.72132
2.70447
2.68522
2.66642
2.6457
2.62593
2.60469
2.58489
2.56383
2.54463
2.52428
2.50611
2.48692
2.47019
2.45251
2.43743
2.42135
2.40805
2.39377
2.38213
2.36933
2.35879
2.34684
2.33653
2.3251
2.31367
2.30576
3.92195
3.74475
3.57532
3.41223
3.25731
3.10935
2.9726
2.84845
2.7381
2.64191
2.55762
2.48707
2.4262
2.37646
2.33495
2.30585
2.29885
2.2962
2.30591
2.34057
2.43103
2.63349
3.03561
3.28071
3.32529
3.32001
3.29188
3.21193
3.09907
2.99368
2.90033
2.8165
2.74065
2.67176
2.60929
2.55322
2.50328
2.46042
2.42399
2.39511
2.37418
2.36582
2.36291
2.36571
2.37234
2.38654
2.41597
2.45962
2.50822
2.55721
2.60087
2.63822
2.66801
2.69254
2.71214
2.72992
2.74467
2.76017
2.77321
2.78668
2.79731
2.80689
2.81488
2.81847
2.82012
2.8201
2.81917
2.81491
2.80807
2.79776
2.78624
2.7717
2.75643
2.73847
2.72039
2.70013
2.68028
2.65877
2.63813
2.61621
2.59553
2.57368
2.5534
2.53195
2.51243
2.49179
2.47354
2.45428
2.43769
2.42031
2.40587
2.3907
2.37838
2.36519
2.35456
2.34286
2.33316
2.32278
2.31239
2.30646
3.98198
3.79673
3.62907
3.46799
3.31497
3.17045
3.03454
2.90961
2.79668
2.69811
2.60986
2.53595
2.47134
2.42081
2.37765
2.36466
2.36024
2.36601
2.39419
2.46786
2.62807
3.03351
3.36569
3.46986
3.46787
3.44973
3.39623
3.29241
3.18753
3.09107
3.00312
2.92083
2.84429
2.77216
2.70516
2.64293
2.58602
2.53458
2.48883
2.44977
2.41754
2.39319
2.37843
2.37302
2.37182
2.37576
2.38591
2.40555
2.44286
2.49095
2.54134
2.59124
2.63526
2.67287
2.70395
2.72936
2.75167
2.77059
2.78861
2.80339
2.81796
2.82838
2.83766
2.84121
2.84308
2.84338
2.84204
2.83681
2.82871
2.81697
2.80387
2.78814
2.7717
2.75294
2.73393
2.71304
2.69246
2.67028
2.64886
2.62606
2.60449
2.58163
2.56039
2.53784
2.51726
2.49542
2.47591
2.45529
2.43741
2.41885
2.4032
2.38702
2.3737
2.35981
2.34864
2.3368
2.3272
2.31752
2.30777
2.3037
4.04934
3.85173
3.68277
3.52447
3.37219
3.23032
3.09524
2.97139
2.85608
2.75486
2.66403
2.58572
2.52027
2.46583
2.43442
2.42846
2.43111
2.45356
2.5157
2.6568
3.00253
3.40497
3.58716
3.59057
3.5829
3.55193
3.46706
3.3655
3.27048
3.18315
3.09993
3.01968
2.94286
2.86882
2.79855
2.73204
2.66966
2.6123
2.55987
2.51369
2.47255
2.43844
2.41127
2.39162
2.38428
2.37855
2.38243
2.38918
2.40351
2.43115
2.475
2.52808
2.58421
2.63576
2.68186
2.72019
2.75124
2.77873
2.79986
2.81875
2.8354
2.84686
2.8571
2.86078
2.86243
2.86251
2.86034
2.85377
2.84442
2.83178
2.81744
2.80079
2.78339
2.76402
2.74434
2.72293
2.70178
2.67911
2.65723
2.63392
2.61184
2.58837
2.56644
2.54313
2.52161
2.49888
2.47817
2.4567
2.43765
2.41813
2.40122
2.38393
2.36939
2.35444
2.34228
2.32971
2.31962
2.30996
2.30033
2.29742
4.14369
3.92827
3.74109
3.58382
3.43235
3.28946
3.15732
3.03087
2.91737
2.81118
2.72071
2.63799
2.574
2.51715
2.50959
2.50713
2.52178
2.57017
2.69482
2.98315
3.42729
3.66931
3.71094
3.70485
3.68075
3.61635
3.52598
3.43765
3.35346
3.2724
3.19258
3.11415
3.03742
2.96212
2.88982
2.82032
2.75478
2.69358
2.63659
2.58447
2.53703
2.49531
2.4589
2.43005
2.40724
2.3956
2.39035
2.39284
2.39823
2.40952
2.42991
2.46731
2.52128
2.57917
2.63795
2.69081
2.73658
2.77497
2.8043
2.82865
2.84744
2.86041
2.87109
2.87396
2.87512
2.87494
2.8726
2.86476
2.85448
2.84116
2.82633
2.80905
2.79106
2.7712
2.75113
2.72954
2.70808
2.68535
2.66304
2.63957
2.6168
2.59296
2.57014
2.54638
2.52396
2.5008
2.47949
2.45761
2.43782
2.41751
2.39957
2.38115
2.3654
2.3492
2.33588
2.32232
2.3114
2.30142
2.29156
2.28937
4.20093
4.00162
3.80958
3.6407
3.49636
3.34963
3.22057
3.09325
2.97867
2.87244
2.77703
2.69717
2.62927
2.59766
2.59248
2.60231
2.64167
2.74857
2.98869
3.44748
3.73851
3.81505
3.81174
3.79494
3.74825
3.66855
3.58814
3.51195
3.43597
3.36007
3.28303
3.20585
3.12928
3.05355
2.98023
2.90899
2.84144
2.77685
2.71653
2.65959
2.60784
2.55967
2.51781
2.48044
2.45046
2.42667
2.41166
2.40627
2.40851
2.4132
2.42293
2.44052
2.47039
2.51795
2.57724
2.63893
2.6974
2.74971
2.79164
2.82545
2.8498
2.86665
2.87864
2.88102
2.88216
2.8815
2.87873
2.86996
2.8592
2.84569
2.83092
2.81364
2.7955
2.77557
2.75537
2.73392
2.71235
2.68977
2.66722
2.64384
2.62069
2.59675
2.57334
2.54927
2.52639
2.50304
2.48126
2.45898
2.43854
2.41758
2.39875
2.37947
2.36266
2.34551
2.33115
2.31674
2.30502
2.29457
2.28439
2.28242
4.21817
4.10246
3.89512
3.71013
3.55738
3.41457
3.28025
3.1578
3.03949
2.93531
2.83952
2.76019
2.70418
2.69605
2.69984
2.73141
2.82201
3.02448
3.47826
3.80321
3.91327
3.91218
3.90048
3.86706
3.79702
3.72379
3.6549
3.58693
3.51699
3.44535
3.3709
3.29573
3.21985
3.14421
3.07031
2.99804
2.92868
2.86218
2.79877
2.73902
2.68304
2.63126
2.58407
2.54193
2.50484
2.47418
2.44965
2.43277
2.42479
2.42893
2.43392
2.44201
2.45666
2.4837
2.52427
2.57886
2.63931
2.69922
2.7538
2.79999
2.8348
2.85983
2.87584
2.88168
2.88282
2.88232
2.87935
2.87093
2.85987
2.84645
2.83151
2.81461
2.7967
2.77713
2.75709
2.73569
2.71429
2.69172
2.66936
2.64584
2.62263
2.59841
2.57497
2.55093
2.52799
2.50461
2.48253
2.46006
2.4391
2.41773
2.39824
2.37835
2.36082
2.343
2.328
2.31303
2.30088
2.29019
2.27995
2.27829
4.2179
4.14687
3.98892
3.79115
3.6271
3.48083
3.34663
3.221
3.10618
2.99884
2.91117
2.83199
2.8182
2.8159
2.83946
2.91417
3.09761
3.53366
3.87636
4.01181
4.01152
4.0024
3.9761
3.91479
3.85049
3.78937
3.72935
3.66742
3.60128
3.53225
3.45912
3.38537
3.30916
3.23416
3.15938
3.08645
3.01575
2.9474
2.88179
2.81982
2.76045
2.70603
2.65461
2.60855
2.56656
2.53058
2.49972
2.47571
2.45891
2.44909
2.45257
2.45795
2.46599
2.48049
2.50242
2.53646
2.58333
2.63763
2.69479
2.74829
2.79418
2.83002
2.85497
2.8705
2.8733
2.87383
2.87272
2.86704
2.8565
2.84296
2.8282
2.81168
2.79426
2.77534
2.75566
2.73477
2.71335
2.69108
2.66847
2.64522
2.62195
2.59836
2.57505
2.55152
2.52858
2.50547
2.48325
2.46082
2.43961
2.41807
2.39821
2.378
2.36006
2.34184
2.32645
2.31118
2.29879
2.28822
2.27808
2.27701
4.19294
4.1596
4.07075
3.87751
3.70048
3.54998
3.41304
3.2883
3.17313
3.07258
2.98657
2.95389
2.94795
2.96781
3.03735
3.20802
3.6268
3.96992
4.1136
4.11347
4.1061
4.08295
4.024
3.96602
3.9133
3.86179
3.80841
3.74985
3.68614
3.61816
3.54676
3.47351
3.39859
3.32327
3.24861
3.17446
3.10325
3.03277
2.96631
2.9014
2.84064
2.78298
2.72956
2.68034
2.63571
2.59593
2.56092
2.53209
2.50885
2.49238
2.48321
2.48311
2.48806
2.49394
2.50614
2.52357
2.54781
2.58574
2.63128
2.67999
2.72849
2.77252
2.80905
2.83496
2.85117
2.85421
2.85494
2.85308
2.84737
2.8353
2.8208
2.80461
2.78783
2.76965
2.75086
2.73068
2.71012
2.68827
2.66623
2.64331
2.6207
2.59747
2.57473
2.55146
2.52883
2.50581
2.48375
2.46137
2.44027
2.41882
2.39899
2.37889
2.36086
2.34285
2.32739
2.31254
2.30043
2.29064
2.28175
2.28185
4.14914
4.13964
4.09495
3.97975
3.79096
3.62561
3.48529
3.35836
3.24924
3.15357
3.10783
3.0986
3.11555
3.18248
3.35192
3.76415
4.09586
4.23121
4.23094
4.21891
4.18657
4.12382
4.06896
4.02493
3.9836
3.94013
3.89012
3.83364
3.77074
3.70353
3.63212
3.55961
3.48403
3.40976
3.33369
3.26045
3.18698
3.11681
3.04786
2.98266
2.91975
2.86108
2.8057
2.75458
2.70771
2.66561
2.62799
2.59626
2.56854
2.54768
2.53092
2.52161
2.51568
2.51812
2.52313
2.5278
2.53737
2.55513
2.58137
2.61451
2.65338
2.69718
2.7384
2.77522
2.80262
2.82061
2.82706
2.82758
2.8265
2.82149
2.80945
2.7948
2.77869
2.76116
2.74308
2.72404
2.70435
2.68369
2.6626
2.6409
2.61901
2.59669
2.5744
2.5518
2.52947
2.50694
2.48493
2.46287
2.4417
2.42057
2.4008
2.38115
2.3634
2.34609
2.3312
2.31752
2.30657
2.29815
2.29206
2.29273
3.94121
4.11312
4.09558
4.03312
3.88322
3.70908
3.56094
3.43783
3.33348
3.27889
3.26707
3.28263
3.35115
3.53158
3.94566
4.26381
4.3756
4.37283
4.3508
4.29572
4.22255
4.16873
4.12821
4.09566
4.06078
4.02078
3.97258
3.91708
3.85497
3.78759
3.71701
3.64315
3.56889
3.49263
3.41793
3.34265
3.27007
3.1981
3.12954
3.06282
2.99995
2.93996
2.8843
2.83195
2.78468
2.74097
2.70259
2.66795
2.63847
2.61285
2.59164
2.57472
2.56132
2.5526
2.54585
2.54444
2.54495
2.54822
2.55424
2.56515