/*--------------------------------*- C++ -*----------------------------------*\
  =========                 |
  \\      /  F ield         | OpenFOAM: The Open Source CFD Toolbox
   \\    /   O peration     | Website:  https://openfoam.org
    \\  /    A nd           | Version:  9
     \\/     M anipulation  |
\*---------------------------------------------------------------------------*/
FoamFile
{
    format      ascii;
    class       volScalarField;
    location    "5.5";
    object      T;
}
// * * * * * * * * * * * * * * * * * * * * * * * * * * * * * * * * * * * * * //

dimensions      [0 0 0 1 0 0 0];

internalField   nonuniform List<scalar> 
5250
(
1
1.00002
1.00004
1.00011
1.00025
1.00069
1.00149
1.00425
1.00919
1.02564
1.06067
1.16556
1.4395
2.10508
2.65175
2.76141
2.74353
2.73811
2.74971
2.76628
2.77895
2.78684
2.79325
2.7979
2.79997
1
1.00002
1.00004
1.00011
1.00024
1.00069
1.00145
1.00422
1.00901
1.02523
1.05969
1.16274
1.43211
2.09105
2.64691
2.76115
2.74275
2.73699
2.74862
2.76514
2.77777
2.78565
2.79207
2.79669
2.79868
1
1.00001
1.00004
1.00009
1.00027
1.00058
1.00159
1.00363
1.00952
1.02299
1.05955
1.15446
1.41844
2.05788
2.63553
2.75979
2.7403
2.73372
2.74536
2.76177
2.77433
2.78238
2.78865
2.79333
2.79549
1
1.00002
1.00003
1.00011
1.00021
1.00064
1.00133
1.0038
1.00841
1.02275
1.05482
1.14764
1.39239
2.00911
2.61672
2.75707
2.736
2.72811
2.7397
2.75622
2.76884
2.77654
2.78339
2.78766
2.78962
1
1.00001
1.00004
1.00008
1.00024
1.00049
1.00148
1.00301
1.00885
1.01937
1.05335
1.13317
1.36447
1.93896
2.59058
2.75182
2.72914
2.7197
2.73134
2.74782
2.76076
2.76893
2.77499
2.78003
2.78211
1
1.00001
1.00003
1.00009
1.00019
1.00054
1.00114
1.00328
1.00698
1.01966
1.04551
1.12389
1.32526
1.85549
2.55418
2.7418
2.71832
2.70761
2.71936
2.73637
2.74974
2.75783
2.764
2.76846
2.77048
1
1.00001
1.00003
1.00007
1.0002
1.00042
1.00121
1.00251
1.00735
1.01581
1.04389
1.10738
1.29285
1.76548
2.51081
2.72788
2.70419
2.69298
2.70464
2.72096
2.73504
2.74268
2.74891
2.75285
2.75349
1
1.00001
1.00002
1.00007
1.00015
1.00045
1.00093
1.00268
1.00584
1.01589
1.0375
1.1001
1.26185
1.69987
2.46295
2.71323
2.69219
2.68181
2.69037
2.70441
2.71671
2.72393
2.72795
2.72962
2.72699
1
1.00001
1.00003
1.00006
1.00016
1.00035
1.00096
1.0022
1.00567
1.01376
1.03488
1.08881
1.23742
1.63174
2.39419
2.68662
2.68231
2.67494
2.67693
2.68681
2.69601
2.69992
2.70086
2.69653
2.68261
1
1.00001
1.00002
1.00006
1.00013
1.00034
1.00082
1.00201
1.00508
1.01217
1.03152
1.07874
1.21089
1.56284
2.30264
2.65084
2.67484
2.66702
2.66345
2.66825
2.67272
2.67233
2.66517
2.64498
2.58611
1
1.00001
1.00002
1.00004
1.00013
1.00028
1.00075
1.00175
1.00444
1.0109
1.02721
1.06938
1.18321
1.49089
2.18751
2.60356
2.66618
2.65717
2.64953
2.64933
2.64819
2.64094
2.62034
2.57181
2.46212
1
1.00001
1.00001
1.00005
1.00009
1.00028
1.00056
1.00168
1.00347
1.00989
1.02237
1.06035
1.15314
1.4167
2.04213
2.54212
2.65347
2.6442
2.6336
2.62919
2.62274
2.60704
2.57431
2.50617
2.38154
1
1.00001
1.00001
1.00004
1.00008
1.00021
1.00052
1.00126
1.00321
1.00752
1.0198
1.04769
1.12677
1.33584
1.87046
2.46244
2.63063
2.62366
2.61343
2.6054
2.59571
2.57454
2.53089
2.46365
2.35414
1
1
1.00001
1.00003
1.00007
1.00018
1.00039
1.00112
1.0023
1.00676
1.01438
1.04002
1.09659
1.2617
1.67943
2.36411
2.59365
2.59465
2.58729
2.57834
2.56446
2.54341
2.5006
2.42952
2.34349
1
1
1.00001
1.00002
1.00006
1.00013
1.00037
1.00076
1.00226
1.00463
1.0134
1.02986
1.08158
1.20772
1.55784
2.2532
2.55176
2.5703
2.56089
2.5511
2.53729
2.51048
2.47611
2.41101
2.32934
1
1
1.00001
1.00002
1.00005
1.00011
1.00028
1.00068
1.00165
1.00417
1.00989
1.02566
1.06313
1.16759
1.44513
2.08422
2.48142
2.55037
2.54268
2.52789
2.51283
2.48334
2.44948
2.39707
2.3221
1
1
1.00001
1.00001
1.00004
1.00008
1.00024
1.00048
1.00144
1.00294
1.00843
1.01879
1.05077
1.12663
1.34304
1.87413
2.38642
2.524
2.52213
2.50747
2.49073
2.46093
2.42639
2.38098
2.31732
1
1
1
1.00001
1.00003
1.00007
1.00015
1.00044
1.00089
1.00264
1.00546
1.01547
1.03507
1.09439
1.24069
1.63377
2.26014
2.47863
2.49245
2.481
2.46514
2.43828
2.40515
2.36423
2.31073
1
1
1
1.00001
1.00002
1.00005
1.00013
1.00029
1.00078
1.00179
1.00457
1.0111
1.02763
1.06993
1.18255
1.48152
2.11554
2.42551
2.46642
2.4565
2.44048
2.4154
2.38521
2.34759
2.30159
1
1
1
1.00001
1.00001
1.00004
1.00009
1.00025
1.00052
1.00147
1.00323
1.00865
1.0202
1.05285
1.13364
1.35809
1.89788
2.3306
2.43577
2.4338
2.41907
2.39502
2.36629
2.33207
2.29075
1
1
1
1
1.00001
1.00003
1.00007
1.00016
1.00043
1.00096
1.00251
1.0059
1.01483
1.0365
1.09336
1.24226
1.63232
2.19731
2.38872
2.40507
2.39524
2.37394
2.34673
2.31603
2.27949
1
1
1
1
1.00001
1.00002
1.00005
1.00012
1.0003
1.00071
1.00181
1.00413
1.01102
1.02529
1.06715
1.16883
1.44883
2.02953
2.32717
2.3767
2.37016
2.35285
2.3269
2.29934
2.26698
1
1
1
1
1.00001
1.00001
1.00003
1.00009
1.0002
1.00055
1.00114
1.00333
1.00692
1.01959
1.04462
1.12068
1.30983
1.79191
2.22137
2.33937
2.34433
2.33326
2.311
2.28321
2.25374
1
1
1
1
1
1.00001
1.00002
1.00006
1.00014
1.00036
1.00082
1.00218
1.0048
1.01312
1.02957
1.07921
1.19799
1.5216
2.06548
2.28113
2.31396
2.30877
2.29196
2.26684
2.2393
1
1
1
1
1
1.00001
1.00002
1.00004
1.00009
1.00026
1.00053
1.00157
1.00319
1.00915
1.02003
1.05409
1.13283
1.35405
1.85491
2.19717
2.28038
2.28396
2.27325
2.25163
2.22466
1
1
1
1
1
1
1.00001
1.00003
1.00007
1.00016
1.00038
1.00099
1.00219
1.00596
1.01303
1.03549
1.08372
1.22265
1.57003
2.05871
2.23204
2.25619
2.25095
2.23355
2.21024
1
1
1
1
1
1
1.00001
1.00002
1.00004
1.00012
1.00024
1.00068
1.00144
1.0039
1.00883
1.02289
1.05511
1.14382
1.37038
1.8679
2.15849
2.22441
2.22738
2.21688
2.19563
1
1
1
1
1
1
1
1.00001
1.00003
1.00007
1.00018
1.00039
1.00106
1.00226
1.00629
1.0136
1.03691
1.08759
1.23169
1.58883
2.02931
2.17997
2.20144
2.19628
2.18045
1
1
1
1
1
1
1
1.00001
1.00002
1.00005
1.0001
1.00029
1.00059
1.00164
1.0036
1.00943
1.02207
1.05652
1.14113
1.37012
1.83737
2.1057
2.16801
2.17268
2.16431
1
1
1
1
1
1
1
1
1.00001
1.00003
1.00007
1.00017
1.00038
1.00103
1.0022
1.00614
1.01307
1.03588
1.08372
1.22202
1.55887
1.97583
2.12318
2.14711
2.14476
1
1
1
1
1
1
1
1
1.00001
1.00002
1.00004
1.00011
1.00023
1.00066
1.00134
1.00384
1.0081
1.02204
1.05086
1.134
1.33984
1.78123
2.0449
2.11362
2.12184
1
1
1
1
1
1
1
1
1
1.00001
1.00003
1.00006
1.00016
1.00036
1.0009
1.00214
1.00513
1.01275
1.03031
1.07685
1.19294
1.49223
1.9053
2.06648
2.09523
1
1
1
1
1
1
1
1
1
1.00001
1.00002
1.00004
1.0001
1.00021
1.00059
1.00119
1.00344
1.00708
1.0197
1.04435
1.11766
1.2948
1.70071
1.98511
2.06432
1
1
1
1
1
1
1
1
1
1
1.00001
1.00002
1.00005
1.00013
1.00032
1.00075
1.00193
1.00427
1.01141
1.02533
1.06708
1.16239
1.42151
1.82784
2.00886
1
1
1
1
1
1
1
1
1
1
1.00001
1.00001
1.00003
1.00008
1.00018
1.0005
1.00101
1.00291
1.00596
1.01655
1.03695
1.09755
1.24168
1.59463
1.91088
1
1
1
1
1
1
1
1
1
1
1
1.00001
1.00002
1.00004
1.00012
1.00025
1.0007
1.00141
1.00402
1.00844
1.02281
1.05229
1.13597
1.34331
1.73178
1
1
1
1
1
1
1
1
1
1
1
1
1.00001
1.00003
1.00006
1.00017
1.00034
1.00094
1.00199
1.00528
1.01186
1.03025
1.07207
1.18456
1.4559
1
1
1
1
1
1
1
1
1
1
1
1
1.00001
1.00001
1.00004
1.00008
1.00022
1.0005
1.00121
1.00292
1.00684
1.01729
1.04032
1.10341
1.25835
1
1
1
1
1
1
1
1
1
1
1
1
1
1.00001
1.00002
1.00005
1.00012
1.00028
1.00069
1.00157
1.00403
1.00887
1.02343
1.05346
1.13812
1
1
1
1
1
1
1
1
1
1
1
1
1
1
1.00001
1.00003
1.00007
1.00016
1.00037
1.00091
1.00205
1.00533
1.01163
1.03083
1.07029
1
1
1
1
1
1
1
1
1
1
1
1
1
1
1.00001
1.00002
1.00003
1.00009
1.0002
1.00052
1.00119
1.00287
1.00694
1.01629
1.04078
1
1
1
1
1
1
1
1
1
1
1
1
1
1
1
1.00001
1.00002
1.00005
1.00012
1.0003
1.00067
1.00174
1.00373
1.01007
1.02175
1
1
1
1
1
1
1
1
1
1
1
1
1
1
1
1.00001
1.00001
1.00003
1.00007
1.0002
1.00042
1.00118
1.00239
1.0068
1.01437
1
1
1
1
1
1
1
1
1
1
1
1
1
1
1
1
1.00001
1.00002
1.00006
1.00014
1.00038
1.00083
1.00228
1.0049
1.01364
1
1
1
1
1
1
1
1
1
1
1
1
1
1
1
1
1.00001
1.00002
1.00005
1.00013
1.00034
1.00075
1.0021
1.00448
1.01275
1
1
1
1
1
1
1
1
1
1
1
1
1
1
1
1
1.00001
1.00002
1.00005
1.00012
1.00034
1.00069
1.00207
1.00427
1.01235
1
1
1
1
1
1
1
1
1
1
1
1
1
1
1
1
1.00001
1.00002
1.00005
1.00012
1.00032
1.00072
1.00192
1.00455
1.01161
1
1
1
1
1
1
1
1
1
1
1
1
1
1
1
1
1.00001
1.00002
1.00005
1.00012
1.00032
1.00069
1.00201
1.0042
1.01225
1
1
1
1
1
1
1
1
1
1
1
1
1
1
1
1
1.00001
1.00002
1.00005
1.00011
1.00033
1.00067
1.00203
1.00418
1.01211
1
1
1
1
1
1
1
1
1
1
1
1
1
1
1
1
1.00001
1.00002
1.00005
1.00012
1.0003
1.00075
1.00181
1.00467
1.01108
2.27575
2.26764
2.57232
2.71986
2.81617
2.84612
2.81943
2.77616
2.76072
2.75381
2.74466
2.73603
2.72242
2.71173
2.70177
2.69135
2.68211
2.67186
2.66168
2.65223
2.64232
2.63185
2.62365
2.61809
2.61552
2.6146
2.61995
2.63154
2.65295
2.67889
2.70844
2.73711
2.76463
2.78917
2.81031
2.8275
2.84223
2.85287
2.86228
2.86906
2.8724
2.87408
2.87436
2.8745
2.87235
2.87027
2.86534
2.86222
2.85568
2.8518
2.84344
2.83865
2.82877
2.82371
2.81337
2.80802
2.79793
2.79126
2.78258
2.77494
2.76735
2.75966
2.75268
2.7459
2.73957
2.73393
2.72879
2.72434
2.72071
2.71783
2.7158
2.71455
2.71355
2.71279
2.71236
2.71256
2.71261
2.71234
2.71147
2.71052
2.7089
2.70717
2.70349
2.7002
2.6936
2.68903
2.68104
2.6747
2.66606
2.65873
2.6494
2.64142
2.63214
2.62397
2.61465
2.60689
2.59889
2.59293
2.58776
2.58433
2.27714
2.29205
2.452
2.6307
2.74366
2.79443
2.83317
2.87355
2.89927
2.87619
2.85655
2.84575
2.82103
2.80553
2.79815
2.78725
2.77657
2.76998
2.76187
2.75219
2.746
2.73673
2.72791
2.72356
2.72156
2.72134
2.72712
2.73842
2.75701
2.77835
2.799
2.81939
2.83542
2.84853
2.85746
2.86386
2.86652
2.86793
2.86566
2.86149
2.85194
2.8475
2.83822
2.8332
2.82292
2.8164
2.80512
2.79738
2.78597
2.77786
2.76624
2.75672
2.74471
2.73486
2.72382
2.71353
2.7032
2.69275
2.68292
2.673
2.66347
2.65443
2.64564
2.63742
2.62977
2.62266
2.61626
2.61058
2.60563
2.60148
2.59815
2.59561
2.59326
2.59123
2.58953
2.58834
2.58713
2.58583
2.5835
2.58188
2.57897
2.57671
2.57218
2.56801
2.56171
2.55592
2.54859
2.54156
2.53319
2.52535
2.51659
2.50827
2.49913
2.49064
2.48192
2.47397
2.46613
2.45985
2.45478
2.45154
2.27435
2.25534
2.30041
2.40161
2.51302
2.57937
2.64566
2.69913
2.78478
2.82306
2.84231
2.86147
2.86422
2.85878
2.84926
2.84333
2.84247
2.8448
2.84618
2.84056
2.82634
2.81939
2.81534
2.81101
2.81009
2.81215
2.81714
2.82441
2.83593
2.84795
2.85828
2.86294
2.86466
2.86484
2.86112
2.85713
2.84846
2.84151
2.8319
2.82389
2.81427
2.80561
2.79517
2.7856
2.77425
2.76385
2.75171
2.74075
2.72871
2.71785
2.70621
2.69408
2.68194
2.66999
2.65858
2.64722
2.63602
2.62523
2.61452
2.60431
2.59437
2.58488
2.57576
2.56726
2.55919
2.55188
2.54513
2.53919
2.53387
2.52944
2.52557
2.52268
2.51977
2.51735
2.51496
2.51326
2.51106
2.50939
2.50618
2.50423
2.50059
2.49789
2.49276
2.48848
2.4821
2.47638
2.46902
2.46241
2.45414
2.44671
2.43796
2.43024
2.42139
2.41349
2.40484
2.39767
2.39007
2.38432
2.37939
2.37667
2.26364
2.21764
2.21784
2.25363
2.31654
2.37829
2.43706
2.49843
2.55494
2.62907
2.69726
2.75327
2.78337
2.79789
2.80421
2.81225
2.82325
2.83617
2.84409
2.84852
2.85182
2.8541
2.85462
2.85271
2.8509
2.85101
2.85631
2.86041
2.86121
2.85703
2.84778
2.83902
2.82575
2.81531
2.80341
2.79306
2.78154
2.77187
2.76077
2.75105
2.73942
2.72858
2.71657
2.70498
2.6928
2.68039
2.66803
2.65535
2.64312
2.63138
2.61959
2.6076
2.5949
2.58316
2.57136
2.5603
2.54914
2.53865
2.5281
2.51837
2.50859
2.49975
2.49092
2.48311
2.47538
2.46875
2.46226
2.45691
2.4517
2.44769
2.4438
2.44125
2.43826
2.43635
2.43371
2.43234
2.42989
2.42828
2.42537
2.42361
2.42005
2.41717
2.41245
2.40832
2.40255
2.39717
2.39028
2.38382
2.37616
2.36887
2.36063
2.35283
2.34439
2.33649
2.32832
2.32058
2.31328
2.30703
2.30232
2.29885
2.25944
2.19783
2.17453
2.17646
2.20419
2.24182
2.28129
2.32811
2.37545
2.42457
2.48025
2.53643
2.59664
2.65248
2.69363
2.71786
2.73357
2.74667
2.76208
2.77093
2.77885
2.79025
2.80813
2.82106
2.82869
2.83091
2.82954
2.82136
2.81025
2.7913
2.77433
2.75387
2.73789
2.72169
2.70819
2.69482
2.68277
2.67032
2.65883
2.64664
2.63517
2.62301
2.61163
2.6002
2.58901
2.57802
2.56677
2.55589
2.54474
2.53472
2.52442
2.51449
2.50341
2.49324
2.48269
2.47339
2.46333
2.45446
2.44479
2.43641
2.42735
2.41975
2.4115
2.4049
2.39768
2.39223
2.38617
2.38184
2.37693
2.37369
2.3699
2.36765
2.36475
2.36297
2.36025
2.35862
2.35592
2.35433
2.35152
2.34944
2.3462
2.34355
2.33973
2.33618
2.3316
2.32707
2.32171
2.3161
2.30984
2.30339
2.29657
2.28959
2.28234
2.27512
2.26779
2.26095
2.25439
2.24881
2.24438
2.2417
2.25285
2.19426
2.15241
2.13814
2.14032
2.15719
2.17796
2.20555
2.24078
2.27678
2.31504
2.35671
2.40207
2.44944
2.50019
2.54404
2.57979
2.61262
2.63605
2.6589
2.67879
2.69439
2.7053
2.71679
2.72762
2.73305
2.73609
2.72781
2.71072
2.68707
2.66206
2.63792
2.61774
2.60078
2.58746
2.5758
2.56541
2.55509
2.54534
2.53595
2.52675
2.51779
2.50859
2.49966
2.49037
2.4817
2.47239
2.46378
2.4545
2.44643
2.43788
2.43011
2.42081
2.41225
2.40307
2.39528
2.38678
2.37956
2.37147
2.36469
2.35706
2.35087
2.34387
2.33845
2.3323
2.32778
2.32249
2.31893
2.3145
2.31183
2.30816
2.30622
2.30319
2.30168
2.29878
2.29724
2.29417
2.29239
2.2892
2.28704
2.28346
2.28082
2.27681
2.27356
2.26895
2.26498
2.25964
2.25486
2.24876
2.24326
2.23653
2.23042
2.22326
2.21682
2.20967
2.20349
2.19701
2.19189
2.18748
2.18517
2.25063
2.19286
2.1453
2.11737
2.10476
2.10549
2.11315
2.12548
2.14453
2.17042
2.1965
2.22529
2.25862
2.2926
2.33042
2.37
2.40644
2.44257
2.47645
2.50502
2.53387
2.5608
2.5839
2.60526
2.62198
2.63629
2.63844
2.62905
2.60517
2.5735
2.54166
2.51284
2.48912
2.47201
2.46145
2.45518
2.44972
2.44506
2.43969
2.43456
2.42881
2.42328
2.41742
2.41158
2.40544
2.3992
2.39253
2.38588
2.37868
2.37211
2.36531
2.35917
2.35174
2.3445
2.33645
2.32943
2.32179
2.31528
2.30799
2.30199
2.29516
2.28977
2.2836
2.27898
2.27357
2.26982
2.26523
2.26225
2.25835
2.25604
2.25265
2.25081
2.24771
2.24612
2.24297
2.24124
2.23775
2.23583
2.23213
2.22992
2.22619
2.22368
2.21979
2.21695
2.21286
2.20957
2.20506
2.20115
2.19607
2.19143
2.18573
2.18038
2.17409
2.16832
2.16188
2.15617
2.15013
2.14532
2.14105
2.13898
2.25005
2.19406
2.14581
2.10745
2.08631
2.07386
2.07323
2.0754
2.08251
2.0966
2.11397
2.13256
2.15397
2.1797
2.20557
2.23565
2.26505
2.29286
2.32435
2.35416
2.38466
2.41685
2.44533
2.47556
2.50243
2.53394
2.54284
2.5331
2.50516
2.46908
2.43185
2.39912
2.37345
2.35358
2.34517
2.34328
2.34498
2.34615
2.34633
2.34511
2.34283
2.34004
2.33641
2.33264
2.32811
2.32378
2.31871
2.314
2.30856
2.30364
2.29828
2.29369
2.28817
2.2828
2.27624
2.27063
2.26448
2.25944
2.25369
2.24902
2.24359
2.2395
2.23454
2.2312
2.2269
2.22416
2.22037
2.21821
2.2148
2.21299
2.20971
2.20798
2.20465
2.20284
2.19924
2.19719
2.19339
2.19092
2.18697
2.18425
2.18026
2.17739
2.17333
2.17038
2.16622
2.16314
2.15876
2.15536
2.15059
2.14667
2.14138
2.13675
2.13097
2.12587
2.11987
2.11467
2.10891
2.10438
2.10016
2.09818
2.24873
2.19451
2.14826
2.1075
2.07789
2.05714
2.04673
2.04297
2.04343
2.04754
2.05634
2.06854
2.08093
2.09816
2.11604
2.13665
2.1603
2.18207
2.20539
2.2322
2.25861
2.29054
2.32007
2.35963
2.4012
2.44593
2.45925
2.44857
2.4195
2.38255
2.34135
2.30556
2.27827
2.25751
2.24568
2.24214
2.24633
2.25345
2.25921
2.26361
2.26567
2.26648
2.26571
2.26428
2.26223
2.2598
2.25701
2.25401
2.25063
2.24714
2.24341
2.24003
2.23627
2.23251
2.22757
2.22288
2.21774
2.21359
2.20895
2.20542
2.20118
2.19816
2.19439
2.19191
2.18858
2.18665
2.18364
2.18196
2.17902
2.17742
2.17428
2.17252
2.16897
2.16685
2.16282
2.16036
2.15622
2.15345
2.14914
2.14617
2.14183
2.13886
2.13463
2.13174
2.12764
2.12478
2.12075
2.11769
2.11352
2.10996
2.10538
2.10119
2.09613
2.09146
2.08605
2.08126
2.07589
2.07172
2.06762
2.06593
2.245
2.19637
2.14925
2.10985
2.07557
2.05138
2.0323
2.02306
2.01652
2.01643
2.01785
2.02313
2.03045
2.03969
2.05198
2.06515
2.08156
2.10014
2.11868
2.14259
2.16544
2.19435
2.22514
2.27181
2.3303
2.38364
2.39556
2.38271
2.35474
2.3167
2.27299
2.23436
2.20608
2.187
2.17324
2.165
2.16465
2.17093
2.18078
2.19034
2.19784
2.20323
2.20617
2.20801
2.20822
2.20766
2.20659
2.20511
2.20304
2.20079
2.198
2.19547
2.19261
2.19015
2.18682
2.18338
2.17918
2.17569
2.17174
2.16883
2.16556
2.16324
2.16047
2.15877
2.15624
2.15481
2.15226
2.15089
2.14813
2.14653
2.14329
2.14128
2.13728
2.13457
2.13014
2.12691
2.12212
2.11863
2.11363
2.11013
2.10508
2.10174
2.09688
2.09384
2.0894
2.08664
2.08265
2.07996
2.07618
2.07328
2.06929
2.06593
2.06143
2.05755
2.05248
2.04829
2.04301
2.03907
2.03488
2.03302
2.23887
2.19528
2.1517
2.1112
2.07702
2.04837
2.02699
2.01084
2.0009
1.99476
1.99262
1.99295
1.99521
2.00006
2.00642
2.0152
2.02463
2.0391
2.0552
2.07686
2.09804
2.12686
2.1636
2.22254
2.29583
2.34688
2.35291
2.33762
2.31022
2.27015
2.22516
2.18602
2.15543
2.13405
2.11994
2.10978
2.10496
2.10525
2.11149
2.12139
2.13291
2.14216
2.15016
2.15481
2.1584
2.1598
2.16091
2.16055
2.16
2.15895
2.15762
2.15612
2.15435
2.15278
2.15086
2.14901
2.14654
2.14412
2.1415
2.13958
2.13737
2.13589
2.1339
2.13275
2.13098
2.13004
2.12814
2.12694
2.12449
2.1228
2.11955
2.11701
2.11293
2.1098
2.10511
2.10149
2.09632
2.09242
2.08698
2.08304
2.07758
2.07381
2.06861
2.06514
2.06045
2.05732
2.05321
2.05036
2.04667
2.04395
2.04027
2.03742
2.03343
2.03021
2.02575
2.02214
2.01744
2.01381
2.00997
2.00801
2.23047
2.19206
2.15176
2.11375
2.07837
2.04892
2.02447
2.00536
1.99142
1.98109
1.97561
1.97165
1.97155
1.97219
1.9748
1.98036
1.98605
1.99734
2.01075
2.02953
2.05077
2.08299
2.13082
2.21024
2.29184
2.3277
2.32707
2.30987
2.27902
2.2377
2.1936
2.15579
2.12448
2.10112
2.08414
2.07261
2.06542
2.06056
2.05952
2.06415
2.07323
2.08512
2.09633
2.10567
2.11323
2.118
2.1216
2.12298
2.12462
2.12459
2.12441
2.12394
2.12308
2.1222
2.12068
2.11959
2.1183
2.11673
2.11491
2.11384
2.11239
2.1116
2.1104
2.10975
2.10844
2.10758
2.10583
2.10453
2.1019
2.09975
2.09604
2.09307
2.08848
2.0848
2.07939
2.07516
2.06922
2.06476
2.05863
2.05419
2.04816
2.0439
2.03821
2.03426
2.02913
2.02561
2.02115
2.01812
2.01424
2.01164
2.00803
2.0056
2.00192
1.99935
1.99536
1.99247
1.98824
1.98524
1.98168
1.98004
2.22102
2.18573
2.14975
2.11396
2.08024
2.04977
2.02411
2.00299
1.98661
1.97364
1.96418
1.95814
1.95387
1.95261
1.95271
1.95485
1.95999
1.96978
1.98237
1.99893
2.02338
2.06298
2.13149
2.22833
2.30267
2.31945
2.31115
2.29121
2.25722
2.21447
2.1733
2.13794
2.10803
2.08321
2.06301
2.04747
2.03653
2.02925
2.02516
2.02409
2.02693
2.0346
2.04523
2.05681
2.06764
2.07599
2.08295
2.08694
2.0905
2.09163
2.09314
2.09359
2.09369
2.09376
2.09377
2.09375
2.09361
2.09315
2.0926
2.09235
2.09184
2.0914
2.0908
2.0903
2.08942
2.08868
2.08712
2.08542
2.08246
2.07977
2.0759
2.0724
2.0675
2.06319
2.05741
2.0525
2.04615
2.04096
2.03443
2.02927
2.02287
2.01799
2.01196
2.00752
2.002
1.9981
1.9932
1.98991
1.98565
1.98297
1.97922
1.97697
1.97351
1.97137
1.96791
1.96556
1.96199
1.95941
1.95634
1.95465
2.21011
2.17897
2.14554
2.11278
2.08077
2.05095
2.02468
2.00136
1.98317
1.96866
1.95715
1.94886
1.9428
1.93874
1.93723
1.93773
1.94283
1.95243
1.96459
1.98309
2.01386
2.06858
2.1654
2.26469
2.31142
2.3131
2.30129
2.27607
2.23995
2.19883
2.16225
2.12972
2.10099
2.0755
2.0535
2.03477
2.01966
2.00847
2.00129
1.99672
1.99427
1.99504
2.00002
2.01006
2.02144
2.03338
2.04398
2.05185
2.0583
2.06179
2.06462
2.06605
2.06702
2.06821
2.06883
2.06962
2.07033
2.07088
2.07139
2.07163
2.07163
2.07154
2.07126
2.07067
2.06967
2.06891
2.06735
2.06567
2.0625
2.05946
2.05506
2.05091
2.04539
2.0404
2.03407
2.02854
2.02178
2.01602
2.00909
2.00334
1.99648
1.99103
1.98453
1.97961
1.97365
1.96934
1.96402
1.96037
1.95574
1.95276
1.9488
1.94642
1.94301
1.94106
1.93793
1.9361
1.93303
1.9312
1.9286
1.92746
2.19797
2.17003
2.1407
2.10932
2.07979
2.0512
2.02476
2.00161
1.98094
1.9651
1.95174
1.9416
1.93435
1.92901
1.92658
1.92734
1.93322
1.94264
1.95676
1.9815
2.02587
2.10899
2.21975
2.29738
2.31493
2.30936
2.29407
2.26496
2.22748
2.19108
2.15818
2.12768
2.09993
2.07435
2.05134
2.03048
2.01276
1.99774
1.98589
1.97771
1.97303
1.96979
1.96932
1.97191
1.97899
1.98956
2.00099
2.01206
2.02163
2.02887
2.03436
2.03826
2.041
2.04306
2.04478
2.04615
2.0475
2.04886
2.05046
2.05135
2.05218
2.05255
2.05236
2.0518
2.05048
2.04946
2.04748
2.04524
2.04165
2.03809
2.03319
2.0285
2.02249
2.01701
2.01032
2.0044
1.99743
1.99137
1.98434
1.97832
1.97135
1.96558
1.95886
1.95354
1.94725
1.94251
1.93677
1.93269
1.92757
1.92418
1.91978
1.91722
1.91357
1.91167
1.90858
1.90704
1.90425
1.90283
1.9006
1.89962
2.18547
2.15966
2.13333
2.10567
2.07686
2.05
2.02449
2.00126
1.98047
1.96239
1.94833
1.9362
1.92789
1.92148
1.91947
1.92198
1.92907
1.94015
1.95937
1.99671
2.06369
2.17797
2.27486
2.31353
2.31469
2.30558
2.28523
2.25449
2.21999
2.18789
2.15765
2.12941
2.1027
2.07745
2.05378
2.03182
2.01199
1.99401
1.97909
1.96679
1.95769
1.95171
1.94737
1.94566
1.94588
1.95023
1.95909
1.97028
1.98182
1.99194
2.0007
2.00714
2.01241
2.01603
2.01936
2.02153
2.02453
2.02605
2.02859
2.02969
2.03147
2.03161
2.03134
2.03058
2.02901
2.02783
2.02571
2.02312
2.01915
2.01517
2.00984
2.00469
1.99839
1.9926
1.98579
1.97965
1.97259
1.96628
1.95908
1.95271
1.94551
1.93934
1.93238
1.92673
1.92023
1.91524
1.90926
1.90491
1.89947
1.89573
1.891
1.88811
1.88426
1.88222
1.87915
1.87778
1.87528
1.87428
1.87248
1.8718
2.17219
2.14782
2.12311
2.09851
2.07266
2.04672
2.02238
1.99978
1.97939
1.96037
1.94562
1.93226
1.92348
1.91656
1.91649
1.92117
1.93014
1.9458
1.97567
2.03282
2.13808
2.25065
2.30831
2.31801
2.31305
2.29976
2.27576
2.24539
2.21558
2.18703
2.15927
2.13288
2.10694
2.08217
2.05821
2.03564
2.01444
1.99493
1.97746
1.96181
1.94857
1.93823
1.93067
1.92564
1.92195
1.92101
1.92246
1.92842
1.93827
1.94943
1.96132
1.97141
1.98034
1.98714
1.9923
1.99661
1.9997
2.00289
2.00501
2.00773
2.00891
2.01022
2.00989
2.0091
2.00727
2.0056
2.00311
1.9999
1.9955
1.99123
1.98585
1.98053
1.97418
1.96819
1.96137
1.95509
1.94801
1.94164
1.93449
1.92819
1.92103
1.91492
1.90789
1.90214
1.89543
1.89021
1.88396
1.87929
1.87355
1.8695
1.86453
1.86128
1.85716
1.85479
1.85154
1.85002
1.84755
1.84667
1.84513
1.8446
2.15735
2.13645
2.1127
2.08944
2.06667
2.04213
2.0192
1.99653
1.97709
1.95806
1.94258
1.92956
1.91969
1.9155
1.91759
1.92532
1.93817
1.96279
2.01186
2.10366
2.2215
2.29971
2.31986
2.3182
2.30998
2.29176
2.2664
2.23924
2.21306
2.18689
2.16135
2.13621
2.11109
2.0867
2.06281
2.0399
2.01814
1.99736
1.97795
1.95957
1.9436
1.92929
1.9178
1.90924
1.90262
1.89847
1.89583
1.89582
1.899
1.90693
1.91808
1.93083
1.94251
1.95349
1.96178
1.96872
1.97462
1.97799
1.98206
1.98454
1.98583
1.98777
1.98721
1.98598
1.98428
1.98244
1.97995
1.97645
1.97184
1.96721
1.96185
1.95647
1.95026
1.94426
1.93757
1.93135
1.9244
1.91811
1.91102
1.90476
1.8976
1.89146
1.88439
1.87853
1.87175
1.86628
1.85994
1.85494
1.84917
1.84484
1.83976
1.8362
1.83187
1.8292
1.82574
1.82406
1.82154
1.82075
1.8194
1.81912
2.14623
2.12191
2.1022
2.07878
2.05807
2.03669
2.01396
1.99384
1.97314
1.95627
1.93904
1.92751
1.91744
1.91766
1.92334
1.93412
1.95499
1.99836
2.07567
2.19416
2.28515
2.31896
2.31999
2.31447
2.30099
2.28016
2.2567
2.23289
2.20956
2.18601
2.16233
2.13824
2.11392
2.09008
2.06629
2.04323
2.02063
1.99865
1.97782
1.95805
1.93992
1.92322
1.90895
1.89627
1.88708
1.87946
1.87483
1.87117
1.87017
1.87141
1.87738
1.88772
1.90064
1.91454
1.92657
1.9376
1.94622
1.95224
1.95771
1.96076
1.96283
1.9647
1.96415
1.96286
1.96141
1.95947
1.95658
1.95297
1.94834
1.94365
1.93821
1.93294
1.92691
1.92111
1.91462
1.90849
1.90174
1.89547
1.88862
1.88237
1.87553
1.8694
1.86261
1.85663
1.84997
1.84422
1.83781
1.83258
1.82672
1.82217
1.81694
1.81317
1.80865
1.80579
1.80213
1.80028
1.79766
1.79684
1.79556
1.79542
2.13117
2.11041
2.08938
2.07067
2.04713
2.02989
2.00713
1.98864
1.96895
1.95201
1.93755
1.92503
1.92026
1.92329
1.93329
1.95107
1.98815
2.05548
2.16982
2.26841
2.313
2.31873
2.31536
2.30574
2.28886
2.26773
2.247
2.22589
2.20498
2.18312
2.16081
2.1378
2.11428
2.09081
2.0671
2.04395
2.02082
1.99864
1.97688
1.95656
1.93677
1.9191
1.90208
1.88769
1.87447
1.86443
1.85629
1.85148
1.84771
1.84653
1.84692
1.85102
1.86011
1.87346
1.88732
1.90118
1.91353
1.92294
1.9309
1.93566
1.939
1.94079
1.94041
1.93918
1.93764
1.93578
1.93267
1.92915
1.92466
1.92006
1.91463
1.90941
1.90358
1.89795
1.89172
1.88568
1.87921
1.87299
1.86644
1.86018
1.85359
1.84743
1.84088
1.83488
1.82838
1.82268
1.81645
1.81121
1.80538
1.80071
1.7954
1.79143
1.78678
1.78365
1.77983
1.77775
1.77499
1.77409
1.77282
1.77284
2.11567
2.09971
2.07736
2.05975
2.03902
2.02026
2.00198
1.98181
1.96525
1.9477
1.93505
1.92642
1.92718
1.93572
1.95089
1.98191
2.04142
2.14869
2.25146
2.30377
2.31352
2.31155
2.30493
2.29135
2.27358
2.25599
2.2378
2.21909
2.19967
2.17875
2.15724
2.13457
2.11158
2.08848
2.06504
2.04194
2.01889
1.99635
1.97455
1.95349
1.93342
1.91444
1.89666
1.88024
1.86575
1.85288
1.84274
1.83489
1.83048
1.82759
1.82609
1.82643
1.82947
1.83714
1.8481
1.86184
1.87554
1.88823
1.89883
1.90639
1.91183
1.91446
1.91525
1.91418
1.9127
1.9108
1.90789
1.90437
1.90019
1.89576
1.89076
1.88568
1.88011
1.87468
1.86877
1.8631
1.85688
1.85099
1.84457
1.8386
1.83217
1.82624
1.81981
1.81401
1.80778
1.80222
1.7962
1.79096
1.78525
1.7805
1.77521
1.77113
1.76639
1.76311
1.75911
1.75684
1.7539
1.75289
1.75159
1.75162
2.09589
2.08604
2.06593
2.04782
2.02841
2.0107
1.99302
1.97598
1.95883
1.94544
1.93325
1.93328
1.94009
1.95394
1.98144
2.03719
2.13155
2.23514
2.29151
2.30546
2.30446
2.2999
2.28935
2.27397
2.25832
2.24268
2.22645
2.20905
2.19072
2.17064
2.15012
2.12797
2.10616
2.08328
2.06064
2.03782
2.01511
1.99287
1.97124
1.94998
1.93014
1.91048
1.89266
1.87549
1.86026
1.84613
1.83438
1.82438
1.81695
1.81246
1.81003
1.80824
1.80845
1.81034
1.81587
1.82478
1.83632
1.8489
1.86069
1.87109
1.87908
1.88444
1.88739
1.88761
1.88642
1.88502
1.88263
1.87963
1.87562
1.87145
1.86664
1.86181
1.85658
1.85144
1.84599
1.8406
1.83496
1.82934
1.82347
1.8176
1.8115
1.80557
1.79954
1.79383
1.78793
1.78241
1.77663
1.7714
1.76584
1.76111
1.75593
1.75187
1.74722
1.74398
1.74004
1.73782
1.73501
1.73405
1.73309
1.73321
2.07548
2.07065
2.05601
2.03682
2.01903
2.00108
1.98486
1.96868
1.95449
1.94298
1.9394
1.94499
1.95912
1.9846
2.0359
2.12521
2.22295
2.27853
2.29546
2.29475
2.29026
2.28083
2.26805
2.25522
2.24246
2.22908
2.21406
2.19781
2.1801
2.16096
2.1407
2.11937
2.09767
2.0757
2.05342
2.03155
2.00907
1.98779
1.96606
1.9458
1.92569
1.90675
1.88854
1.87144
1.85554
1.84107
1.82844
1.81714
1.8081
1.80106
1.79604
1.79363
1.79118
1.79127
1.79182
1.79485
1.80169
1.81038
1.82059
1.83121
1.84104
1.84928
1.85489
1.85834
1.85872
1.85796
1.8565
1.85455
1.85131
1.84739
1.84286
1.83833
1.83338
1.82856
1.82335
1.8183
1.81283
1.80753
1.80179
1.79628
1.79042
1.78492
1.77911
1.77372
1.76803
1.76282
1.75723
1.75221
1.74679
1.74218
1.73716
1.73318
1.72877
1.72559
1.72201
1.71988
1.7175
1.71671
1.71618
1.71624
2.04579
2.04982
2.04268
2.02758
2.0086
1.99189
1.97566
1.96236
1.95057
1.94703
1.95209
1.96649
1.99126
2.04102
2.1266
2.21874
2.2706
2.28601
2.28468
2.28003
2.27011
2.25788
2.24724
2.23702
2.22662
2.21441
2.20071
2.18513
2.16817
2.14958
2.13029
2.10947
2.08904
2.0672
2.04638
2.02438
2.00353
1.98211
1.96182
1.94145
1.92227
1.90338
1.8857
1.86891
1.85331
1.83881
1.82584
1.81379
1.80398
1.79485
1.78817
1.78272
1.77902
1.77656
1.77413
1.77407
1.77488
1.77801
1.78407
1.79125
1.80069
1.8092
1.81751
1.82331
1.82749
1.8286
1.82846
1.82749
1.82567
1.82304
1.81905
1.81491
1.81022
1.80555
1.80055
1.79557
1.79034
1.78504
1.77956
1.77415
1.76865
1.76328
1.75784
1.75259
1.74727
1.74224
1.73712
1.73238
1.7275
1.72315
1.71862
1.71488
1.7109
1.70798
1.7049
1.70305
1.70134
1.70113
1.70151
1.70135
2.01207
2.02923
2.02753
2.01655
2.00043
1.9831
1.96865
1.95723
1.95337
1.95878
1.97399
1.9998
2.05059
2.13469
2.22149
2.26717
2.2798
2.27686
2.26963
2.25681
2.24403
2.23388
2.22644
2.21848
2.20995
2.19898
2.18611
2.17116
2.15467
2.13703
2.11813
2.09893
2.07858
2.05867
2.03773
2.01754
1.99665
1.97671
1.95649
1.93729
1.91826
1.90031
1.88285
1.86676
1.85119
1.83725
1.82394
1.81222
1.80119
1.79159
1.78293
1.77543
1.76917
1.76379
1.75941
1.75663
1.75381
1.75258
1.75286
1.75604
1.76129
1.76814
1.77611
1.7836
1.79046
1.79486
1.79773
1.79797
1.79747
1.79646
1.79428
1.79115
1.78699
1.78271
1.7782
1.77373
1.76897
1.76419
1.75926
1.75435
1.74929
1.74428
1.73913
1.73411
1.72896
1.7241
1.71903
1.7145
1.70963
1.70559
1.7012
1.69778
1.69428
1.69163
1.68943
1.68789
1.68738
1.68756
1.68876
1.68846
1.94186
1.99703
2.00681
2.0032
1.99126
1.97636
1.96376
1.95928
1.96545
1.9813
2.01004
2.06231
2.14838
2.23103
2.26954
2.27834
2.27368
2.26237
2.24566
2.23159
2.22121
2.2139
2.2078
2.20124
2.19304
2.18241
2.1701
2.15571
2.14049
2.12337
2.10585
2.08697
2.06806
2.04838
2.02871
2.00897
1.98928
1.9701
1.95091
1.93252
1.91428
1.89711
1.88045
1.86503
1.85009
1.8366
1.82335
1.81153
1.80004
1.78975
1.77996
1.77077
1.76258
1.75451
1.74794
1.74147
1.73666
1.73162
1.72888
1.72719
1.72759
1.73039
1.73541
1.74239
1.74982
1.75688
1.76265
1.7664
1.76842
1.76841
1.76794
1.76673
1.76402
1.76031
1.75612
1.75164
1.7471
1.74247
1.73782
1.73316
1.7284
1.72372
1.71892
1.71427
1.70961
1.7051
1.70074
1.69649
1.69248
1.68864
1.6851
1.682
1.67924
1.67737
1.67585
1.67564
1.67587
1.67674
1.67853
1.67858
1.80982
1.95328
1.98213
1.98641
1.98182
1.97187
1.96494
1.9709
1.98797
2.02163
2.07884
2.16539
2.24375
2.27597
2.28016
2.2736
2.25788
2.23673
2.22084
2.20904
2.20181
2.19573
2.19038
2.18356
2.17548
2.16549
2.15386
2.14045
2.12567
2.10949
2.09242
2.07463
2.05625
2.03777
2.01885
2.0002
1.98138
1.96292
1.9446
1.92697
1.90966
1.89346
1.87755
1.86287
1.84855
1.83537
1.82263
1.81093
1.79929
1.78859
1.77762
1.76764
1.75714
1.74781
1.7383
1.7297
1.72223
1.71513
1.7091
1.70401
1.70197
1.70057
1.7014
1.70439
1.70962
1.71694
1.72412
1.73107
1.73597
1.73951
1.74062
1.74053
1.73997
1.73837
1.73546
1.73111
1.72709
1.72251
1.71843
1.71393
1.7098
1.70531
1.70106
1.69651
1.69229
1.6878
1.68388
1.67969
1.67626
1.67266
1.66995
1.6673
1.66574
1.66459
1.66464
1.66512
1.66629
1.66856
1.67112
1.67266
1.60238
1.87024
1.95327
1.96935
1.97264
1.97177
1.97665
1.9955
2.03201
2.09709
2.1869
2.25849
2.28575
2.28494
2.27595
2.25603
2.23221
2.21305
2.19985
2.19075
2.18453
2.17871
2.1728
2.16591
2.15786