/*--------------------------------*- C++ -*----------------------------------*\
  =========                 |
  \\      /  F ield         | OpenFOAM: The Open Source CFD Toolbox
   \\    /   O peration     | Website:  https://openfoam.org
    \\  /    A nd           | Version:  9
     \\/     M anipulation  |
\*---------------------------------------------------------------------------*/
FoamFile
{
    format      ascii;
    class       volVectorField;
    location    "5.5";
    object      U;
}
// * * * * * * * * * * * * * * * * * * * * * * * * * * * * * * * * * * * * * //

dimensions      [0 1 -1 0 0 0 0];

internalField   nonuniform List<vector> 
5250
(
(3 1.08284e-08 0)
(2.99999 8.28542e-08 0)
(2.99996 2.38815e-07 0)
(2.99991 8.18618e-07 0)
(2.99978 1.68618e-06 0)
(2.99946 5.3999e-06 0)
(2.99866 1.0197e-05 0)
(2.99669 3.46978e-05 0)
(2.99179 6.49048e-05 0)
(2.97952 0.000207405 0)
(2.94761 0.000451064 0)
(2.86031 0.00126907 0)
(2.60679 0.00339034 0)
(1.86449 0.00977634 0)
(0.864702 0.026465 0)
(0.443798 0.0243564 0)
(0.534517 0.0244147 0)
(0.558946 0.0262411 0)
(0.504229 0.0280818 0)
(0.413597 0.0299443 0)
(0.329013 0.0321475 0)
(0.260614 0.0347126 0)
(0.192075 0.0373743 0)
(0.114527 0.0404126 0)
(0.0494019 0.0445154 0)
(3 4.33192e-08 0)
(2.99999 2.20872e-07 0)
(2.99997 8.09742e-07 0)
(2.99991 2.1964e-06 0)
(2.99978 5.96236e-06 0)
(2.99947 1.41273e-05 0)
(2.99868 4.08847e-05 0)
(2.99674 8.41524e-05 0)
(2.99193 0.000263437 0)
(2.97984 0.000523614 0)
(2.94849 0.00155899 0)
(2.86275 0.00373431 0)
(2.6138 0.0106393 0)
(1.88307 0.0302636 0)
(0.875253 0.0806631 0)
(0.440381 0.0703149 0)
(0.534501 0.0672434 0)
(0.56014 0.0701896 0)
(0.505131 0.0731964 0)
(0.41452 0.0763395 0)
(0.32991 0.0798488 0)
(0.260911 0.0836575 0)
(0.191335 0.087126 0)
(0.11246 0.0903802 0)
(0.0467095 0.0932089 0)
(3 5.03887e-08 0)
(2.99999 4.03477e-07 0)
(2.99997 1.18831e-06 0)
(2.99992 4.02492e-06 0)
(2.99979 9.05952e-06 0)
(2.99949 2.70317e-05 0)
(2.99872 5.81924e-05 0)
(2.99688 0.000168898 0)
(2.99215 0.000365691 0)
(2.98059 0.00102232 0)
(2.95031 0.00238274 0)
(2.86777 0.00653524 0)
(2.62925 0.0177087 0)
(1.92405 0.0514099 0)
(0.900863 0.13843 0)
(0.437564 0.119434 0)
(0.53828 0.112973 0)
(0.566693 0.118074 0)
(0.511542 0.123773 0)
(0.421225 0.130337 0)
(0.3366 0.137023 0)
(0.26679 0.143984 0)
(0.195819 0.150575 0)
(0.115029 0.156406 0)
(0.0469206 0.159968 0)
(3 6.91544e-08 0)
(2.99999 5.64172e-07 0)
(2.99997 1.62056e-06 0)
(2.99992 5.51678e-06 0)
(2.9998 1.24663e-05 0)
(2.99951 3.60526e-05 0)
(2.9988 8.03563e-05 0)
(2.997 0.000222879 0)
(2.99264 0.000507769 0)
(2.98152 0.00136242 0)
(2.9531 0.00329042 0)
(2.87553 0.00883635 0)
(2.65147 0.0241707 0)
(1.98818 0.0700902 0)
(0.941308 0.192636 0)
(0.437314 0.168008 0)
(0.546888 0.158212 0)
(0.579592 0.165299 0)
(0.524543 0.173843 0)
(0.43462 0.18442 0)
(0.349565 0.194746 0)
(0.278614 0.205407 0)
(0.205718 0.21589 0)
(0.12179 0.225101 0)
(0.0493732 0.229889 0)
(3 1.04106e-07 0)
(2.99999 5.92266e-07 0)
(2.99997 2.22822e-06 0)
(2.99993 5.78784e-06 0)
(2.99982 1.68427e-05 0)
(2.99955 3.87225e-05 0)
(2.99887 0.000108195 0)
(2.99724 0.00024211 0)
(2.9931 0.000667327 0)
(2.98291 0.00154525 0)
(2.95656 0.00411005 0)
(2.88516 0.0104718 0)
(2.68083 0.0292128 0)
(2.0712 0.0844675 0)
(0.999143 0.238993 0)
(0.445344 0.217862 0)
(0.562225 0.205685 0)
(0.59979 0.213397 0)
(0.545065 0.223891 0)
(0.455531 0.238334 0)
(0.369405 0.252593 0)
(0.296752 0.267479 0)
(0.221235 0.282634 0)
(0.132693 0.296302 0)
(0.053928 0.303321 0)
(3 1.01399e-07 0)
(2.99999 6.60968e-07 0)
(2.99997 2.26108e-06 0)
(2.99993 6.59268e-06 0)
(2.99983 1.69316e-05 0)
(2.99958 4.4653e-05 0)
(2.99897 0.000107861 0)
(2.99746 0.000278992 0)
(2.99373 0.000671049 0)
(2.98439 0.00173254 0)
(2.96054 0.00428107 0)
(2.89653 0.0112837 0)
(2.71373 0.0309265 0)
(2.17203 0.0896603 0)
(1.08013 0.261667 0)
(0.476346 0.263382 0)
(0.589606 0.255951 0)
(0.629744 0.263873 0)
(0.575371 0.275521 0)
(0.486247 0.293547 0)
(0.398257 0.312326 0)
(0.323036 0.332386 0)
(0.243987 0.353574 0)
(0.149242 0.373774 0)
(0.0614334 0.385382 0)
(3 9.60067e-08 0)
(2.99999 6.5697e-07 0)
(2.99998 2.13869e-06 0)
(2.99994 6.53279e-06 0)
(2.99985 1.59146e-05 0)
(2.99962 4.34018e-05 0)
(2.99907 0.000100711 0)
(2.99771 0.000268453 0)
(2.99432 0.000622877 0)
(2.98592 0.00163634 0)
(2.96453 0.00393812 0)
(2.90744 0.0104088 0)
(2.74669 0.0278833 0)
(2.27171 0.0800121 0)
(1.18079 0.236786 0)
(0.526815 0.296193 0)
(0.623541 0.307975 0)
(0.663131 0.315744 0)
(0.611207 0.328299 0)
(0.524841 0.350318 0)
(0.43604 0.374721 0)
(0.358488 0.40127 0)
(0.275876 0.430461 0)
(0.173913 0.460523 0)
(0.0737509 0.481685 0)
(3 1.03684e-07 0)
(2.99999 5.52793e-07 0)
(2.99998 2.19718e-06 0)
(2.99994 5.44392e-06 0)
(2.99986 1.61538e-05 0)
(2.99965 3.65377e-05 0)
(2.99916 0.00010058 0)
(2.9979 0.00022698 0)
(2.99487 0.000604857 0)
(2.98716 0.00140024 0)
(2.96785 0.00365509 0)
(2.91648 0.00902121 0)
(2.77177 0.0244799 0)
(2.34587 0.0682217 0)
(1.28231 0.201634 0)
(0.570988 0.335959 0)
(0.638694 0.36928 0)
(0.678588 0.36789 0)
(0.63904 0.380368 0)
(0.562974 0.406707 0)
(0.478282 0.438651 0)
(0.401712 0.47383 0)
(0.318247 0.514006 0)
(0.210653 0.559234 0)
(0.0946253 0.601075 0)
(3 8.76869e-08 0)
(2.99999 6.02256e-07 0)
(2.99998 1.924e-06 0)
(2.99995 5.8803e-06 0)
(2.99987 1.43254e-05 0)
(2.99969 3.83846e-05 0)
(2.99923 9.14236e-05 0)
(2.99813 0.000231759 0)
(2.99529 0.000566085 0)
(2.98846 0.00140167 0)
(2.97087 0.0034797 0)
(2.9248 0.00886947 0)
(2.79565 0.0234349 0)
(2.41561 0.0657446 0)
(1.41181 0.193512 0)
(0.650215 0.385968 0)
(0.646674 0.418818 0)
(0.676839 0.414817 0)
(0.659331 0.430791 0)
(0.599349 0.460167 0)
(0.523856 0.50122 0)
(0.452635 0.547668 0)
(0.373656 0.601934 0)
(0.267788 0.672205 0)
(0.132542 0.758372 0)
(3 8.93356e-08 0)
(2.99999 5.88869e-07 0)
(2.99998 1.98831e-06 0)
(2.99995 5.77101e-06 0)
(2.99989 1.48615e-05 0)
(2.99972 3.82343e-05 0)
(2.99932 9.33312e-05 0)
(2.99829 0.000235548 0)
(2.99584 0.000569724 0)
(2.98958 0.00143412 0)
(2.97408 0.00352785 0)
(2.93305 0.00897905 0)
(2.81918 0.0237367 0)
(2.48617 0.0661646 0)
(1.56489 0.193783 0)
(0.750127 0.434113 0)
(0.653706 0.451063 0)
(0.681635 0.453229 0)
(0.679043 0.475901 0)
(0.635111 0.509282 0)
(0.574169 0.558946 0)
(0.512705 0.617301 0)
(0.44819 0.692423 0)
(0.362367 0.806983 0)
(0.204174 1.01419 0)
(3 9.88337e-08 0)
(2.99999 5.70516e-07 0)
(2.99998 2.13921e-06 0)
(2.99996 5.61355e-06 0)
(2.9999 1.58871e-05 0)
(2.99976 3.77234e-05 0)
(2.99939 9.99071e-05 0)
(2.99852 0.00023539 0)
(2.99629 0.000605093 0)
(2.99093 0.00145724 0)
(2.97715 0.0036939 0)
(2.94165 0.00923609 0)
(2.84326 0.0244528 0)
(2.55718 0.0678735 0)
(1.73938 0.197254 0)
(0.868505 0.482455 0)
(0.662534 0.485127 0)
(0.693535 0.487716 0)
(0.703869 0.512545 0)
(0.673994 0.5519 0)
(0.629292 0.607314 0)
(0.586317 0.676846 0)
(0.555813 0.771988 0)
(0.55368 0.917288 0)
(0.592499 1.16283 0)
(3 8.57187e-08 0)
(2.99999 6.38591e-07 0)
(2.99999 1.96831e-06 0)
(2.99997 6.27183e-06 0)
(2.99991 1.48038e-05 0)
(2.99979 4.16226e-05 0)
(2.99948 9.37526e-05 0)
(2.99871 0.000258485 0)
(2.99686 0.000579141 0)
(2.99216 0.00157836 0)
(2.98056 0.00365465 0)
(2.95038 0.00971807 0)
(2.86799 0.0247805 0)
(2.63073 0.0693818 0)
(1.93462 0.20042 0)
(1.00965 0.525829 0)
(0.681481 0.52278 0)
(0.714008 0.523282 0)
(0.73571 0.543579 0)
(0.718458 0.586808 0)
(0.689745 0.645606 0)
(0.669237 0.722761 0)
(0.674259 0.826577 0)
(0.733269 0.969183 0)
(0.878168 1.15524 0)
(3 9.48863e-08 0)
(3 5.81715e-07 0)
(2.99999 2.06442e-06 0)
(2.99997 5.74319e-06 0)
(2.99993 1.54781e-05 0)
(2.99982 3.83852e-05 0)
(2.99957 9.83192e-05 0)
(2.99893 0.000238654 0)
(2.99739 0.000608271 0)
(2.99349 0.00147432 0)
(2.98394 0.00376518 0)
(2.95924 0.00937408 0)
(2.89311 0.0246023 0)
(2.7044 0.067568 0)
(2.14671 0.195897 0)
(1.18089 0.547294 0)
(0.730265 0.565367 0)
(0.751166 0.568834 0)
(0.77794 0.576902 0)
(0.771825 0.617072 0)
(0.75569 0.676304 0)
(0.754848 0.75358 0)
(0.785005 0.852333 0)
(0.869281 0.971698 0)
(1.03337 1.08855 0)
(3 8.52455e-08 0)
(3 5.10256e-07 0)
(2.99999 1.83972e-06 0)
(2.99998 5.03572e-06 0)
(2.99994 1.37137e-05 0)
(2.99986 3.3496e-05 0)
(2.99965 8.69499e-05 0)
(2.99914 0.000206058 0)
(2.99789 0.000534562 0)
(2.99479 0.00126221 0)
(2.98714 0.00327212 0)
(2.96776 0.00792296 0)
(2.91663 0.0207906 0)
(2.77461 0.055603 0)
(2.36029 0.159584 0)
(1.40088 0.470824 0)
(0.830946 0.588726 0)
(0.811303 0.612299 0)
(0.829477 0.618286 0)
(0.834466 0.648729 0)
(0.826785 0.702157 0)
(0.837001 0.7722 0)
(0.880055 0.856654 0)
(0.969617 0.949469 0)
(1.12431 1.02504 0)
(3 6.95428e-08 0)
(3 4.31781e-07 0)
(2.99999 1.49633e-06 0)
(2.99998 4.24327e-06 0)
(2.99995 1.11055e-05 0)
(2.99988 2.78375e-05 0)
(2.99971 7.01461e-05 0)
(2.9993 0.000169277 0)
(2.99827 0.000428801 0)
(2.99577 0.0010187 0)
(2.98949 0.00259837 0)
(2.97383 0.006252 0)
(2.93285 0.0160974 0)
(2.81933 0.0419677 0)
(2.49158 0.116774 0)
(1.61474 0.347774 0)
(0.927199 0.622465 0)
(0.852348 0.654846 0)
(0.869202 0.665955 0)
(0.887656 0.682968 0)
(0.892876 0.725445 0)
(0.911114 0.784159 0)
(0.959416 0.852448 0)
(1.0463 0.922904 0)
(1.18448 0.975952 0)
(3 5.96251e-08 0)
(3 3.71723e-07 0)
(2.99999 1.30606e-06 0)
(2.99998 3.64595e-06 0)
(2.99996 9.71566e-06 0)
(2.99991 2.41705e-05 0)
(2.99977 6.09485e-05 0)
(2.99944 0.000149153 0)
(2.9986 0.000369642 0)
(2.9966 0.000904831 0)
(2.9915 0.00224297 0)
(2.97899 0.00552478 0)
(2.94629 0.0139637 0)
(2.85724 0.0363066 0)
(2.60073 0.100147 0)
(1.86883 0.292172 0)
(1.07524 0.665444 0)
(0.881634 0.690693 0)
(0.895574 0.702651 0)
(0.925404 0.710863 0)
(0.94825 0.743815 0)
(0.974881 0.792087 0)
(1.02524 0.846586 0)
(1.10711 0.900049 0)
(1.2284 0.93919 0)
(3 4.98406e-08 0)
(3 3.32973e-07 0)
(3 1.1196e-06 0)
(2.99999 3.27479e-06 0)
(2.99997 8.38995e-06 0)
(2.99993 2.18731e-05 0)
(2.99982 5.28311e-05 0)
(2.99956 0.000135684 0)
(2.9989 0.000322728 0)
(2.99733 0.000829702 0)
(2.99334 0.00197748 0)
(2.9836 0.00509746 0)
(2.95844 0.0124791 0)
(2.89092 0.0329829 0)
(2.69932 0.0897528 0)
(2.13409 0.260614 0)
(1.26792 0.6837 0)
(0.929846 0.723214 0)
(0.929018 0.731146 0)
(0.961257 0.734411 0)
(0.997498 0.756689 0)
(1.03084 0.796103 0)
(1.08107 0.840443 0)
(1.15692 0.881839 0)
(1.26309 0.911395 0)
(3 4.37362e-08 0)
(3 2.67972e-07 0)
(3 9.53747e-07 0)
(2.99999 2.63781e-06 0)
(2.99998 7.10118e-06 0)
(2.99994 1.76016e-05 0)
(2.99986 4.45776e-05 0)
(2.99966 0.000108921 0)
(2.99918 0.000270721 0)
(2.99798 0.000666729 0)
(2.99506 0.00164225 0)
(2.98775 0.00409119 0)
(2.96952 0.0102131 0)
(2.92171 0.0261363 0)
(2.78969 0.0706089 0)
(2.4078 0.20136 0)
(1.53664 0.582512 0)
(1.03929 0.730217 0)
(0.988643 0.753756 0)
(1.00678 0.761998 0)
(1.04647 0.772379 0)
(1.0844 0.801019 0)
(1.13201 0.836021 0)
(1.20038 0.868199 0)
(1.29297 0.8906 0)
(3 3.31873e-08 0)
(3 2.15998e-07 0)
(3 7.28471e-07 0)
(2.99999 2.11798e-06 0)
(2.99998 5.40053e-06 0)
(2.99996 1.39463e-05 0)
(2.99989 3.39432e-05 0)
(2.99975 8.49381e-05 0)
(2.99937 0.000205402 0)
(2.99848 0.000509679 0)
(2.9962 0.00123528 0)
(2.99074 0.00305989 0)
(2.9768 0.0075007 0)
(2.94116 0.0189394 0)
(2.84348 0.049193 0)
(2.56375 0.135863 0)
(1.80619 0.403938 0)
(1.15668 0.735299 0)
(1.03723 0.774936 0)
(1.04552 0.791899 0)
(1.0854 0.794549 0)
(1.13021 0.810549 0)
(1.17721 0.83564 0)
(1.23901 0.859737 0)
(1.32005 0.876186 0)
(3 2.65783e-08 0)
(3 1.71183e-07 0)
(3 5.87386e-07 0)
(2.99999 1.68191e-06 0)
(2.99999 4.3709e-06 0)
(2.99997 1.1165e-05 0)
(2.99992 2.73858e-05 0)
(2.99981 6.86257e-05 0)
(2.99953 0.000165864 0)
(2.99883 0.000415658 0)
(2.99718 0.00100243 0)
(2.99297 0.00251512 0)
(2.98274 0.00615034 0)
(2.95625 0.0155076 0)
(2.88526 0.0400581 0)
(2.68423 0.109255 0)
(2.09841 0.318809 0)
(1.33601 0.755206 0)
(1.08535 0.80689 0)
(1.07977 0.819801 0)
(1.11499 0.818566 0)
(1.16643 0.82145 0)
(1.21599 0.837393 0)
(1.27325 0.854933 0)
(1.34489 0.866696 0)
(3 2.09388e-08 0)
(3 1.36119e-07 0)
(3 4.59561e-07 0)
(3 1.33756e-06 0)
(2.99999 3.43252e-06 0)
(2.99998 8.81007e-06 0)
(2.99994 2.16671e-05 0)
(2.99986 5.37131e-05 0)
(2.99966 0.000132639 0)
(2.99917 0.000322713 0)
(2.99795 0.000806646 0)
(2.99503 0.0019487 0)
(2.98763 0.00491039 0)
(2.96936 0.0120919 0)
(2.92123 0.031131 0)
(2.7891 0.0835574 0)
(2.40485 0.239202 0)
(1.60765 0.659775 0)
(1.18676 0.811022 0)
(1.13406 0.83516 0)
(1.15136 0.841106 0)
(1.20004 0.836221 0)
(1.25247 0.842287 0)
(1.30587 0.853278 0)
(1.36924 0.861023 0)
(3 1.59395e-08 0)
(3 1.00629e-07 0)
(3 3.5221e-07 0)
(3 9.84379e-07 0)
(2.99999 2.60747e-06 0)
(2.99998 6.52624e-06 0)
(2.99996 1.61682e-05 0)
(2.9999 4.00824e-05 0)
(2.99976 9.67532e-05 0)
(2.9994 0.000241755 0)
(2.99854 0.000576511 0)
(2.99639 0.00145508 0)
(2.99119 0.00346668 0)
(2.97807 0.00879602 0)
(2.94463 0.0216493 0)
(2.85388 0.0570218 0)
(2.59596 0.156788 0)
(1.90694 0.462349 0)
(1.31666 0.799877 0)
(1.18761 0.845776 0)
(1.18845 0.863711 0)
(1.2287 0.858668 0)
(1.28318 0.852727 0)
(1.33566 0.855392 0)
(1.39304 0.858707 0)
(3 1.25941e-08 0)
(3 7.43858e-08 0)
(3 2.7043e-07 0)
(3 7.30194e-07 0)
(3 1.99924e-06 0)
(2.99999 4.81802e-06 0)
(2.99997 1.25173e-05 0)
(2.99993 2.94159e-05 0)
(2.99982 7.54843e-05 0)
(2.99957 0.000177196 0)
(2.99896 0.000451363 0)
(2.99744 0.00106984 0)
(2.99374 0.00270788 0)
(2.9845 0.00652888 0)
(2.96116 0.0165512 0)
(2.89922 0.0420553 0)
(2.72547 0.114356 0)
(2.2217 0.332117 0)
(1.51417 0.779287 0)
(1.25144 0.864832 0)
(1.22917 0.882434 0)
(1.25288 0.880874 0)
(1.30496 0.868199 0)
(1.36056 0.862412 0)
(1.41551 0.860625 0)
(3 8.64148e-09 0)
(3 5.6751e-08 0)
(3 1.91082e-07 0)
(3 5.55766e-07 0)
(3 1.42235e-06 0)
(2.99999 3.65946e-06 0)
(2.99998 8.92653e-06 0)
(2.99995 2.22934e-05 0)
(2.99988 5.40112e-05 0)
(2.99971 0.000133532 0)
(2.99928 0.000325155 0)
(2.99827 0.000798574 0)
(2.99574 0.0019602 0)
(2.9896 0.00482343 0)
(2.97417 0.0119673 0)
(2.93467 0.0303443 0)
(2.82756 0.0803953 0)
(2.5189 0.227936 0)
(1.81011 0.631229 0)
(1.36757 0.855566 0)
(1.28602 0.887302 0)
(1.28932 0.897392 0)
(1.32977 0.88621 0)
(1.38407 0.872991 0)
(1.43727 0.866428 0)
(3 6.22434e-09 0)
(3 4.03731e-08 0)
(3 1.37294e-07 0)
(3 3.95241e-07 0)
(3 1.01774e-06 0)
(2.99999 2.60205e-06 0)
(2.99999 6.3458e-06 0)
(2.99997 1.58155e-05 0)
(2.99992 3.81507e-05 0)
(2.9998 9.43666e-05 0)
(2.99951 0.00022793 0)
(2.9988 0.000561184 0)
(2.99709 0.00136049 0)
(2.99283 0.00335243 0)
(2.98241 0.00821548 0)
(2.95581 0.0204998 0)
(2.88507 0.0527011 0)
(2.68705 0.142905 0)
(2.13196 0.417686 0)
(1.52597 0.833925 0)
(1.34133 0.899513 0)
(1.32608 0.91281 0)
(1.35118 0.905607 0)
(1.4028 0.887255 0)
(1.45722 0.875098 0)
(3 4.43739e-09 0)
(3 2.8477e-08 0)
(3 9.71611e-08 0)
(3 2.78846e-07 0)
(3 7.1826e-07 0)
(3 1.83295e-06 0)
(2.99999 4.47507e-06 0)
(2.99998 1.11387e-05 0)
(2.99994 2.69572e-05 0)
(2.99987 6.63877e-05 0)
(2.99967 0.000161323 0)
(2.99921 0.000394429 0)
(2.99806 0.000964222 0)
(2.99531 0.00235622 0)
(2.98845 0.00580313 0)
(2.9715 0.0143638 0)
(2.92744 0.036347 0)
(2.80854 0.0966586 0)
(2.46279 0.276601 0)
(1.79313 0.708184 0)
(1.43807 0.885267 0)
(1.37694 0.914436 0)
(1.38236 0.920679 0)
(1.42322 0.905014 0)
(1.47651 0.885282 0)
(3 2.9406e-09 0)
(3 1.98262e-08 0)
(3 6.5633e-08 0)
(3 1.93513e-07 0)
(3 4.86295e-07 0)
(3 1.26972e-06 0)
(2.99999 3.01687e-06 0)
(2.99998 7.70907e-06 0)
(2.99996 1.80716e-05 0)
(2.99991 4.57914e-05 0)
(2.99978 0.00010769 0)
(2.99947 0.000270342 0)
(2.99873 0.00064158 0)
(2.99686 0.00159769 0)
(2.99242 0.00384454 0)
(2.98117 0.00956125 0)
(2.95307 0.0236323 0)
(2.87808 0.0612039 0)
(2.66699 0.167073 0)
(2.10743 0.477952 0)
(1.57782 0.852738 0)
(1.43135 0.917364 0)
(1.41724 0.931636 0)
(1.44118 0.923688 0)
(1.49046 0.900368 0)
(3 2.09443e-09 0)
(3 1.33977e-08 0)
(3 4.57534e-08 0)
(3 1.31074e-07 0)
(3 3.38177e-07 0)
(3 8.56944e-07 0)
(3 2.10332e-06 0)
(2.99999 5.1681e-06 0)
(2.99998 1.26282e-05 0)
(2.99994 3.06419e-05 0)
(2.99986 7.50901e-05 0)
(2.99966 0.000181104 0)
(2.99917 0.000445764 0)
(2.99798 0.00107272 0)
(2.99508 0.00264856 0)
(2.98794 0.00643486 0)
(2.97024 0.0159879 0)
(2.92426 0.0403652 0)
(2.79994 0.107069 0)
(2.44025 0.306968 0)
(1.82091 0.74037 0)
(1.51536 0.903829 0)
(1.4618 0.932996 0)
(1.46706 0.938748 0)
(1.5054 0.92096 0)
(3 1.46253e-09 0)
(3 8.76605e-09 0)
(3 3.15018e-08 0)
(3 8.57699e-08 0)
(3 2.32021e-07 0)
(3 5.62427e-07 0)
(3 1.43959e-06 0)
(2.99999 3.39524e-06 0)
(2.99998 8.5779e-06 0)
(2.99996 2.01857e-05 0)
(2.99991 5.06089e-05 0)
(2.99978 0.000119778 0)
(2.99947 0.000297609 0)
(2.99869 0.000711355 0)
(2.99688 0.00175465 0)
(2.99228 0.00424867 0)
(2.98125 0.0104883 0)
(2.95292 0.0259973 0)
(2.8785 0.067264 0)
(2.66891 0.184191 0)
(2.13152 0.516451 0)
(1.65216 0.868327 0)
(1.5166 0.934349 0)
(1.50029 0.948741 0)
(1.51938 0.940643 0)
(3 9.19497e-10 0)
(3 5.9571e-09 0)
(3 2.01698e-08 0)
(3 5.81207e-08 0)
(3 1.49366e-07 0)
(3 3.78888e-07 0)
(3 9.28503e-07 0)
(3 2.27821e-06 0)
(2.99999 5.55178e-06 0)
(2.99998 1.34337e-05 0)
(2.99994 3.29132e-05 0)
(2.99986 7.8849e-05 0)
(2.99966 0.000194883 0)
(2.99919 0.000462743 0)
(2.99803 0.001153 0)
(2.99522 0.00273598 0)
(2.98833 0.00684451 0)
(2.97124 0.0166095 0)
(2.92723 0.0422485 0)
(2.80889 0.111245 0)
(2.46885 0.317962 0)
(1.89186 0.743606 0)
(1.6004 0.914324 0)
(1.54408 0.946234 0)
(1.54412 0.952509 0)
(3 5.87182e-10 0)
(3 3.90156e-09 0)
(3 1.30208e-08 0)
(3 3.7994e-08 0)
(3 9.61735e-08 0)
(3 2.47656e-07 0)
(3 5.94635e-07 0)
(3 1.49102e-06 0)
(2.99999 3.5408e-06 0)
(2.99999 8.79453e-06 0)
(2.99996 2.09221e-05 0)
(2.99991 5.15639e-05 0)
(2.99979 0.000123588 0)
(2.99949 0.000301867 0)
(2.99878 0.000730509 0)
(2.99702 0.00177281 0)
(2.9928 0.00434066 0)
(2.98228 0.010564 0)
(2.95607 0.0263632 0)
(2.88715 0.0673011 0)
(2.69377 0.184198 0)
(2.20138 0.507975 0)
(1.73949 0.871627 0)
(1.59819 0.943991 0)
(1.57673 0.959124 0)
(3 3.74989e-10 0)
(3 2.50798e-09 0)
(3 8.31579e-09 0)
(3 2.44422e-08 0)
(3 6.13866e-08 0)
(3 1.59157e-07 0)
(3 3.78498e-07 0)
(3 9.54218e-07 0)
(3 2.25096e-06 0)
(2.99999 5.61072e-06 0)
(2.99998 1.32804e-05 0)
(2.99995 3.27623e-05 0)
(2.99987 7.83474e-05 0)
(2.9997 0.000191097 0)
(2.99926 0.000461546 0)
(2.99823 0.00111619 0)
(2.99565 0.0027313 0)
(2.98954 0.00658188 0)
(2.97419 0.0163559 0)
(2.93559 0.0406421 0)
(2.83249 0.107189 0)
(2.53848 0.302659 0)
(1.9927 0.716572 0)
(1.68867 0.910798 0)
(1.62325 0.950783 0)
(3 2.45711e-10 0)
(3 1.5171e-09 0)
(3 5.36773e-09 0)
(3 1.47882e-08 0)
(3 3.93367e-08 0)
(3 9.68795e-08 0)
(3 2.40585e-07 0)
(3 5.8417e-07 0)
(3 1.4134e-06 0)
(2.99999 3.45175e-06 0)
(2.99999 8.22582e-06 0)
(2.99997 2.03029e-05 0)
(2.99992 4.7781e-05 0)
(2.99981 0.000118824 0)
(2.99955 0.000278719 0)
(2.99891 0.000693125 0)
(2.99735 0.00163037 0)
(2.99362 0.00405571 0)
(2.98435 0.00967457 0)
(2.9614 0.0241983 0)
(2.90165 0.0607202 0)
(2.73633 0.164012 0)
(2.30277 0.450866 0)
(1.83785 0.840805 0)
(1.67776 0.937273 0)
(3 1.55645e-10 0)
(3 9.40891e-10 0)
(3 3.35134e-09 0)
(3 9.182e-09 0)
(3 2.454e-08 0)
(3 5.97602e-08 0)
(3 1.51114e-07 0)
(3 3.57232e-07 0)
(3 8.93047e-07 0)
(3 2.09642e-06 0)
(2.99999 5.21523e-06 0)
(2.99998 1.22885e-05 0)
(2.99995 3.03195e-05 0)
(2.99989 7.20439e-05 0)
(2.99973 0.000176 0)
(2.99935 0.000422832 0)
(2.99845 0.00102277 0)
(2.99624 0.00249049 0)
(2.99094 0.00599585 0)
(2.9778 0.0148491 0)
(2.94497 0.036625 0)
(2.85828 0.0955837 0)
(2.61286 0.265392 0)
(2.10484 0.658583 0)
(1.77809 0.897372 0)
(3 9.09367e-11 0)
(3 5.92949e-10 0)
(3 1.99129e-09 0)
(3 5.76231e-09 0)
(3 1.46732e-08 0)
(3 3.72434e-08 0)
(3 9.04057e-08 0)
(3 2.21205e-07 0)
(3 5.34631e-07 0)
(3 1.28778e-06 0)
(3 3.1325e-06 0)
(2.99999 7.45414e-06 0)
(2.99997 1.82761e-05 0)
(2.99993 4.32447e-05 0)
(2.99984 0.000106137 0)
(2.99962 0.000251219 0)
(2.99908 0.000615353 0)
(2.99776 0.00146311 0)
(2.99463 0.0035787 0)
(2.98686 0.00859344 0)
(2.96784 0.02125 0)
(2.91886 0.0529349 0)
(2.78585 0.140536 0)
(2.42539 0.388764 0)
(1.95724 0.790524 0)
(3 5.51452e-11 0)
(3 3.581e-10 0)
(3 1.21523e-09 0)
(3 3.47759e-09 0)
(3 8.92205e-09 0)
(3 2.25635e-08 0)
(3 5.46361e-08 0)
(3 1.34855e-07 0)
(3 3.21432e-07 0)
(3 7.88611e-07 0)
(3 1.87376e-06 0)
(2.99999 4.58673e-06 0)
(2.99998 1.09098e-05 0)
(2.99996 2.66099e-05 0)
(2.99991 6.36189e-05 0)
(2.99978 0.000154294 0)
(2.99946 0.0003709 0)
(2.99871 0.000895816 0)
(2.99688 0.00217121 0)
(2.9925 0.00524186 0)
(2.98167 0.0128444 0)
(2.9548 0.0316977 0)
(2.88495 0.0810527 0)
(2.68864 0.221867 0)
(2.23976 0.573977 0)
(3 3.40838e-11 0)
(3 2.11255e-10 0)
(3 7.38409e-10 0)
(3 2.05636e-09 0)
(3 5.39853e-09 0)
(3 1.33199e-08 0)
(3 3.30946e-08 0)
(3 7.92063e-08 0)
(3 1.94576e-07 0)
(3 4.61266e-07 0)
(3 1.13112e-06 0)
(3 2.67984e-06 0)
(2.99999 6.55106e-06 0)
(2.99998 1.55341e-05 0)
(2.99995 3.78885e-05 0)
(2.99987 9.02235e-05 0)
(2.9997 0.000218882 0)
(2.99926 0.000523483 0)
(2.99825 0.00126608 0)
(2.99574 0.00305406 0)
(2.98983 0.00738449 0)
(2.97506 0.0180486 0)
(2.93835 0.0449445 0)
(2.84103 0.116865 0)
(2.57017 0.325106 0)
(3 1.94269e-11 0)
(3 1.2672e-10 0)
(3 4.28399e-10 0)
(3 1.22966e-09 0)
(3 3.13887e-09 0)
(3 7.95951e-09 0)
(3 1.91491e-08 0)
(3 4.72687e-08 0)
(3 1.1197e-07 0)
(3 2.74838e-07 0)
(3 6.4923e-07 0)
(3 1.58642e-06 0)
(2.99999 3.75613e-06 0)
(2.99999 9.13121e-06 0)
(2.99997 2.17297e-05 0)
(2.99993 5.24249e-05 0)
(2.99982 0.000125725 0)
(2.99958 0.000300838 0)
(2.99899 0.00072717 0)
(2.99759 0.00172849 0)
(2.99414 0.00421449 0)
(2.98593 0.0100775 0)
(2.96534 0.0248308 0)
(2.91318 0.0619567 0)
(2.77049 0.164906 0)
(3 1.1729e-11 0)
(3 7.26179e-11 0)
(3 2.54772e-10 0)
(3 7.05079e-10 0)
(3 1.86043e-09 0)
(3 4.56619e-09 0)
(3 1.13302e-08 0)
(3 2.71172e-08 0)
(3 6.60898e-08 0)
(3 1.57831e-07 0)
(3 3.81189e-07 0)
(3 9.14181e-07 0)
(3 2.19127e-06 0)
(2.99999 5.29025e-06 0)
(2.99998 1.25915e-05 0)
(2.99996 3.05709e-05 0)
(2.9999 7.23946e-05 0)
(2.99976 0.000176537 0)
(2.99944 0.000417246 0)
(2.99865 0.00101839 0)
(2.99678 0.00241696 0)
(2.9922 0.00591181 0)
(2.98121 0.0142292 0)
(2.95364 0.0353042 0)
(2.88264 0.0898062 0)
(3 6.62331e-12 0)
(3 4.23786e-11 0)
(3 1.44027e-10 0)
(3 4.11091e-10 0)
(3 1.05263e-09 0)
(3 2.64361e-09 0)
(3 6.41507e-09 0)
(3 1.55873e-08 0)
(3 3.75597e-08 0)
(3 8.98577e-08 0)
(3 2.17199e-07 0)
(3 5.15368e-07 0)
(3 1.25262e-06 0)
(3 2.95263e-06 0)
(2.99999 7.1984e-06 0)
(2.99998 1.6954e-05 0)
(2.99995 4.12822e-05 0)
(2.99987 9.73734e-05 0)
(2.99969 0.000236331 0)
(2.99926 0.000560235 0)
(2.99822 0.00135417 0)
(2.99576 0.00323094 0)
(2.98975 0.0078308 0)
(2.97527 0.0189614 0)
(2.93881 0.0470387 0)
(3 3.79697e-12 0)
(3 2.35753e-11 0)
(3 8.25342e-11 0)
(3 2.2849e-10 0)
(3 6.01194e-10 0)
(3 1.47499e-09 0)
(3 3.63768e-09 0)
(3 8.70728e-09 0)
(3 2.10552e-08 0)
(3 5.03465e-08 0)
(3 1.20505e-07 0)
(3 2.89007e-07 0)
(3 6.87336e-07 0)
(3 1.65713e-06 0)
(2.99999 3.91604e-06 0)
(2.99999 9.4701e-06 0)
(2.99997 2.23363e-05 0)
(2.99993 5.4035e-05 0)
(2.99983 0.000127328 0)
(2.99958 0.000307636 0)
(2.99901 0.000726825 0)
(2.99759 0.0017534 0)
(2.99429 0.00416126 0)
(2.9861 0.0100942 0)
(2.96636 0.0243829 0)
(3 2.00477e-12 0)
(3 1.32877e-11 0)
(3 4.41981e-11 0)
(3 1.28455e-10 0)
(3 3.22527e-10 0)
(3 8.22276e-10 0)
(3 1.95264e-09 0)
(3 4.81015e-09 0)
(3 1.13169e-08 0)
(3 2.74687e-08 0)
(3 6.48875e-08 0)
(3 1.55648e-07 0)
(3 3.71078e-07 0)
(3 8.79405e-07 0)
(3 2.11623e-06 0)
(2.99999 4.96505e-06 0)
(2.99998 1.20517e-05 0)
(2.99996 2.80362e-05 0)
(2.9999 6.83842e-05 0)
(2.99976 0.000158677 0)
(2.99942 0.00038697 0)
(2.99862 0.000900038 0)
(2.99669 0.00219121 0)
(2.99208 0.00514581 0)
(2.98082 0.0125621 0)
(3 1.10739e-12 0)
(3 6.69088e-12 0)
(3 2.37934e-11 0)
(3 6.45583e-11 0)
(3 1.7199e-10 0)
(3 4.13532e-10 0)
(3 1.02615e-09 0)
(3 2.41649e-09 0)
(3 5.83164e-09 0)
(3 1.3794e-08 0)
(3 3.26357e-08 0)
(3 7.80325e-08 0)
(3 1.81554e-07 0)
(3 4.39571e-07 0)
(3 1.00647e-06 0)
(3 2.4607e-06 0)
(2.99999 5.57901e-06 0)
(2.99997 1.36744e-05 0)
(2.99993 3.08918e-05 0)
(2.99984 7.54274e-05 0)
(2.99962 0.000170789 0)
(2.99909 0.000413038 0)
(2.99783 0.000941916 0)
(2.99473 0.0022526 0)
(2.98729 0.00521271 0)
(3 5.37348e-13 0)
(3 3.33395e-12 0)
(3 1.18375e-11 0)
(3 3.19286e-11 0)
(3 8.48493e-11 0)
(3 2.03203e-10 0)
(3 4.97924e-10 0)
(3 1.17449e-09 0)
(3 2.76949e-09 0)
(3 6.61016e-09 0)
(3 1.51397e-08 0)
(3 3.67172e-08 0)
(3 8.20358e-08 0)
(3 2.0215e-07 0)
(3 4.43184e-07 0)
(3 1.09618e-06 0)
(2.99999 2.39166e-06 0)
(2.99998 5.87531e-06 0)
(2.99995 1.28124e-05 0)
(2.99988 3.09861e-05 0)
(2.9997 6.82979e-05 0)
(2.99927 0.000160695 0)
(2.99822 0.000358614 0)
(2.99563 0.00081765 0)
(2.98929 0.00185892 0)
(3 2.45295e-13 0)
(3 1.60483e-12 0)
(3 5.29375e-12 0)
(3 1.53687e-11 0)
(3 3.79871e-11 0)
(3 9.5929e-11 0)
(3 2.2356e-10 0)
(3 5.4249e-10 0)
(3 1.24351e-09 0)
(3 2.96507e-09 0)
(3 6.76019e-09 0)
(3 1.5965e-08 0)
(3 3.65837e-08 0)
(3 8.45631e-08 0)
(3 1.96333e-07 0)
(3 4.44971e-07 0)
(2.99999 1.046e-06 0)
(2.99998 2.31016e-06 0)
(2.99996 5.50869e-06 0)
(2.99989 1.1897e-05 0)
(2.99973 2.87975e-05 0)
(2.99934 6.02545e-05 0)
(2.99838 0.000148361 0)
(2.99598 0.000304318 0)
(2.99005 0.00074935 0)
(3 1.12192e-13 0)
(3 7.19818e-13 0)
(3 2.20489e-12 0)
(3 7.12764e-12 0)
(3 1.55021e-11 0)
(3 4.34051e-11 0)
(3 9.06302e-11 0)
(3 2.37984e-10 0)
(3 5.05167e-10 0)
(3 1.24454e-09 0)
(3 2.75786e-09 0)
(3 6.35365e-09 0)
(3 1.51067e-08 0)
(3 3.15108e-08 0)
(3 8.17713e-08 0)
(3 1.57188e-07 0)
(2.99999 4.37701e-07 0)
(2.99998 7.62987e-07 0)
(2.99996 2.32072e-06 0)
(2.9999 3.71637e-06 0)
(2.99974 1.21328e-05 0)
(2.99937 1.77779e-05 0)
(2.99843 6.12705e-05 0)
(2.99613 8.8476e-05 0)
(2.99032 0.000294971 0)
(3 4.44898e-14 0)
(3 2.82202e-13 0)
(3 1.05332e-12 0)
(3 2.65079e-12 0)
(3 7.04091e-12 0)
(3 1.63096e-11 0)
(3 3.96867e-11 0)
(3 8.95554e-11 0)
(3 2.16639e-10 0)
(3 4.76824e-10 0)
(3 1.14402e-09 0)
(3 2.53065e-09 0)
(3 5.98778e-09 0)
(3 1.34427e-08 0)
(3 3.0286e-08 0)
(3 7.20852e-08 0)
(2.99999 1.52348e-07 0)
(2.99998 3.81624e-07 0)
(2.99996 7.44455e-07 0)
(2.9999 2.03125e-06 0)
(2.99974 3.52002e-06 0)
(2.99938 1.02833e-05 0)
(2.99843 1.69874e-05 0)
(2.99617 5.00297e-05 0)
(2.99037 8.28062e-05 0)
(3 8.54131e-15 0)
(3 1.04395e-13 0)
(3 4.63572e-13 0)
(3 7.96945e-13 0)
(3 3.53434e-12 0)
(3 5.60349e-12 0)
(3 1.9997e-11 0)
(3 3.60933e-11 0)
(3 9.88942e-11 0)
(3 2.32026e-10 0)
(3 4.77416e-10 0)
(3 1.43752e-09 0)
(3 2.14615e-09 0)
(3 8.64964e-09 0)
(3 9.92051e-09 0)
(3 4.79083e-08 0)
(2.99999 4.58177e-08 0)
(2.99998 2.66762e-07 0)
(2.99996 2.04167e-07 0)
(2.9999 1.423e-06 0)
(2.99975 1.05208e-06 0)
(2.99938 7.53947e-06 0)
(2.99846 6.86459e-06 0)
(2.99619 3.83127e-05 0)
(2.99048 5.11606e-05 0)
(3 -9.44186e-16 0)
(3 1.02338e-13 0)
(3 1.49838e-17 0)
(3 7.81948e-13 0)
(3 1.58609e-13 0)
(3 4.05479e-12 0)
(3 2.46815e-12 0)
(3 1.73287e-11 0)
(3 2.42776e-11 0)
(3 5.81529e-11 0)
(3 2.29936e-10 0)
(3 2.71163e-11 0)
(3 1.76888e-09 0)
(3 -1.18286e-09 0)
(3 1.27902e-08 0)
(3 -1.45888e-08 0)
(2.99999 8.10344e-08 0)
(2.99998 -9.91364e-08 0)
(2.99996 4.83833e-07 0)
(2.9999 -5.82418e-07 0)
(2.99975 2.58712e-06 0)
(2.99938 -2.1677e-06 0)
(2.99846 1.25829e-05 0)
(2.99621 -3.61617e-06 0)
(2.99049 5.49158e-05 0)
(3 7.48871e-15 0)
(3 6.65657e-14 0)
(3 -2.58879e-14 0)
(3 4.13441e-13 0)
(3 -3.67654e-13 0)
(3 1.68802e-12 0)
(3 -1.36376e-12 0)
(3 3.81473e-12 0)
(3 6.08624e-12 0)
(3 -1.56129e-11 0)
(3 1.19108e-10 0)
(3 -3.20251e-10 0)
(3 1.18539e-09 0)
(3 -2.70337e-09 0)
(3 8.84676e-09 0)
(3 -1.90356e-08 0)
(2.99999 5.70249e-08 0)
(2.99998 -1.07928e-07 0)
(2.99996 3.29059e-07 0)
(2.9999 -5.21493e-07 0)
(2.99975 1.55004e-06 0)
(2.99939 -1.90834e-06 0)
(2.99846 6.56398e-06 0)
(2.99622 -3.95055e-06 0)
(2.9905 2.03458e-05 0)
(1.22409 1.05595 0)
(1.42601 0.819626 0)
(0.965214 0.483824 0)
(0.213043 0.392373 0)
(-0.352468 0.10311 0)
(-0.427612 -0.00161671 0)
(-0.641352 -0.0203373 0)
(-0.745124 -0.0371453 0)
(-0.785036 -0.0389333 0)
(-0.79889 -0.0215453 0)
(-0.813418 0.000543588 0)
(-0.840432 0.0130619 0)
(-0.873109 0.0155675 0)
(-0.903301 0.0126849 0)
(-0.929215 0.0083038 0)
(-0.953931 0.00537251 0)
(-0.979456 0.00403841 0)
(-1.0056 0.0036268 0)
(-1.03155 0.00343062 0)
(-1.05661 0.00303937 0)
(-1.08131 0.00247793 0)
(-1.10671 0.00253013 0)
(-1.12859 0.00397649 0)
(-1.14242 0.0041435 0)
(-1.15018 0.00334628 0)
(-1.15333 0.0021908 0)
(-1.14577 0.000337803 0)
(-1.11952 -0.00312001 0)
(-1.07271 -0.00787651 0)
(-1.00862 -0.0129812 0)
(-0.932679 -0.0174713 0)
(-0.849684 -0.0211969 0)
(-0.763247 -0.0240101 0)
(-0.675697 -0.0262668 0)
(-0.589865 -0.0276901 0)
(-0.507439 -0.0285219 0)
(-0.429008 -0.0293052 0)
(-0.354346 -0.0303986 0)
(-0.280996 -0.0328216 0)
(-0.21141 -0.0335409 0)
(-0.144501 -0.0337631 0)
(-0.0801387 -0.0351309 0)
(-0.0176338 -0.0374795 0)
(0.0491447 -0.0326996 0)
(0.104302 -0.0293786 0)
(0.158957 -0.0279995 0)
(0.21027 -0.0267253 0)
(0.259237 -0.0254899 0)
(0.304615 -0.024095 0)
(0.347637 -0.0230406 0)
(0.392104 -0.0227701 0)
(0.436884 -0.0225318 0)
(0.479358 -0.021616 0)
(0.519639 -0.0205044 0)
(0.558309 -0.0195802 0)
(0.595495 -0.0187116 0)
(0.63137 -0.0179565 0)
(0.665843 -0.0171965 0)
(0.699031 -0.0164936 0)
(0.730869 -0.0158148 0)
(0.761391 -0.0151758 0)
(0.790567 -0.0145761 0)
(0.818375 -0.0140115 0)
(0.844789 -0.0134896 0)
(0.869763 -0.0130086 0)
(0.893256 -0.01257 0)
(0.915229 -0.0121753 0)
(0.935643 -0.0118231 0)
(0.954475 -0.0115088 0)
(0.971711 -0.0112211 0)
(0.987333 -0.010946 0)
(1.00164 -0.010709 0)
(1.01516 -0.0104943 0)
(1.02804 -0.0103098 0)
(1.04004 -0.0101446 0)
(1.05112 -0.00997228 0)
(1.06171 -0.0097318 0)
(1.07257 -0.00945822 0)
(1.08379 -0.00911647 0)
(1.09512 -0.00877448 0)
(1.10668 -0.00842982 0)
(1.11884 -0.00807819 0)
(1.13197 -0.0076466 0)
(1.14629 -0.00717834 0)
(1.1616 -0.00674123 0)
(1.17761 -0.00632749 0)
(1.19421 -0.00594599 0)
(1.21126 -0.0055831 0)
(1.22862 -0.00522667 0)
(1.24619 -0.0048624 0)
(1.26385 -0.00448621 0)
(1.28146 -0.00409199 0)
(1.2989 -0.00367609 0)
(1.31598 -0.00322671 0)
(1.33243 -0.00273091 0)
(1.34793 -0.00216604 0)
(1.36199 -0.00150549 0)
(1.37394 -0.000763542 0)
(1.38282 7.96609e-05 0)
(1.38964 0.000972508 0)
(1.29987 0.964779 0)
(1.45085 0.675723 0)
(1.28927 0.4159 0)
(0.917836 0.390954 0)
(0.641679 0.337582 0)
(0.547608 0.264428 0)
(0.404699 0.204143 0)
(0.217233 0.149979 0)
(0.0371525 0.0870619 0)
(-0.18051 0.0285419 0)
(-0.321469 0.0237709 0)
(-0.441144 0.0243059 0)
(-0.525488 0.0218342 0)
(-0.578241 0.0181131 0)
(-0.611951 0.0171626 0)