/*--------------------------------*- C++ -*----------------------------------*\
  =========                 |
  \\      /  F ield         | OpenFOAM: The Open Source CFD Toolbox
   \\    /   O peration     | Website:  https://openfoam.org
    \\  /    A nd           | Version:  9
     \\/     M anipulation  |
\*---------------------------------------------------------------------------*/
FoamFile
{
    format      ascii;
    class       surfaceScalarField;
    location    "26";
    object      phi;
}
// * * * * * * * * * * * * * * * * * * * * * * * * * * * * * * * * * * * * * //

dimensions      [0 3 -1 0 0 0 0];

internalField   nonuniform List<scalar> 
760
(
1.2701177e-05
-1.2705077e-05
-2.872404e-05
4.1425219e-05
-0.00012229235
9.3568305e-05
-0.00025039682
0.00012810448
-0.00039607616
0.00014567935
-0.00054539298
0.00014931683
-0.0006862742
0.00014088122
-0.0008068954
0.0001206212
-0.00089495614
8.8060753e-05
-0.00093839434
4.3438189e-05
-0.00092727796
-1.1116408e-05
-0.00085686474
-7.0413269e-05
-0.00073043119
-0.00012643356
-0.00056134278
-0.00016908834
-0.00037276073
-0.00018858193
-0.00019447407
-0.00017828654
-5.6521914e-05
-0.0001379521
1.9614431e-05
-7.6136323e-05
3.0411289e-05
-1.0796861e-05
3.0411289e-05
-4.3183622e-05
3.0478546e-05
-0.00020456711
0.0002028087
-0.00046832569
0.00035732689
-0.0008007092
0.00046048798
-0.0011673523
0.00051232245
-0.0015364516
0.00051841619
-0.0018782301
0.0004826597
-0.0021636848
0.00040607592
-0.0023645469
0.00028892286
-0.0024553537
0.000134245
-0.0024181465
-4.8323586e-05
-0.0022453617
-0.00024319807
-0.0019475591
-0.00042423607
-0.0015544709
-0.00056217652
-0.0011143221
-0.00062873056
-0.000687475
-0.0006051336
-0.00033452562
-0.00049090149
-0.00010089673
-0.00030976526
-1.5519473e-06
-0.00011014166
2.8859348e-05
-0.0001100277
0.00014050625
-0.00040303321
0.00049581422
-0.00083139133
0.00078568503
-0.0013456222
0.00097471887
-0.0018986053
0.0010653055
-0.0024465889
0.0010663998
-0.0029480416
0.00098411242
-0.0033626284
0.0008206628
-0.0036519004
0.00057819487
-0.0037823268
0.0002646715
-0.0037298315
-0.00010081881
-0.0034858183
-0.00048721133
-0.0030632782
-0.00084677628
-0.0024999954
-0.0011254594
-0.0018582352
-0.0012704909
-0.0012181444
-0.0012452245
-0.00066373664
-0.0010453092
-0.00026308961
-0.00071041231
-4.7956334e-05
-0.00032527495
-1.9097009e-05
-0.00017344036
0.00031394661
-0.00059329494
0.00091566881
-0.0011777004
0.0013700905
-0.0018583781
0.0016553966
-0.0025769196
0.0017838471
-0.0032813211
0.0017708013
-0.0039228079
0.0016255993
-0.0044541507
0.0013520057
-0.0048302733
0.0009543176
-0.0050112458
0.000445644
-0.0049672627
-0.0001448019
-0.0046844381
-0.00077003593
-0.0041723521
-0.0013588624
-0.003469128
-0.0018286837
-0.0026440097
-0.0020956093
-0.0017932008
-0.0020960335
-0.0010258504
-0.0018126596
-0.00044021483
-0.0012960478
-9.6723832e-05
-0.00066876595
-0.00011582088
-0.00022979647
0.00054374309
-0.00076507784
0.0014509502
-0.0014914915
0.0020965042
-0.0023225568
0.0024864619
-0.0031901529
0.0026514431
-0.0040368373
0.0026174857
-0.0048100533
0.0023988152
-0.0054589821
0.0020009344
-0.0059341988
0.0014295344
-0.006189829
0.00070127427
-0.0061884088
-0.00014622214
-0.0059055785
-0.0010528662
-0.0053404146
-0.0019240263
-0.0045231139
-0.0026459844
-0.0035229748
-0.0030957484
-0.0024498036
-0.0031692046
-0.0014425387
-0.0028199245
-0.00064123087
-0.0020973555
-0.00014883681
-0.00116116
-0.00026465771
-0.00027729885
0.00082104196
-0.00091155037
0.0020852017
-0.0017607366
0.0029456904
-0.0027228181
0.0034485434
-0.0037222234
0.0036508485
-0.0046987091
0.0035939713
-0.0055989071
0.0032990132
-0.0063712078
0.002773235
-0.0069637453
0.0020220718
-0.0073248525
0.0010623816
-0.0074074741
-6.3600453e-05
-0.0071717049
-0.0012886353
-0.0065988937
-0.0024968373
-0.0057016816
-0.0035431963
-0.0045400189
-0.0042574109
-0.0032318415
-0.004477382
-0.0019490199
-0.004102746
-0.00088728713
-0.0031590882
-0.00021159407
-0.0018368531
-0.00047625178
-0.00031411634
0.0011351583
-0.0010263402
0.0027974256
-0.00197351
0.0038928603
-0.0030417574
0.0045167907
-0.0041507207
0.0047598119
-0.0052399485
0.0046831991
-0.0062580783
0.004317143
-0.0071555309
0.0036706875
-0.0078803726
0.0027469134
-0.0083768471
0.0015588562
-0.0085853934
0.00014494602
-0.0084513227
-0.0014227059
-0.0079295011
-0.0030186588
-0.0070049643
-0.0044677332
-0.0057150433
-0.0055473319
-0.0041735802
-0.0060188451
-0.0025818436
-0.0056944826
-0.001204104
-0.0045368277
-0.00029450385
-0.0027464533
-0.00077075561
-0.00033824834
0.0014734067
-0.0011031686
0.0035623459
-0.0021176329
0.0049073247
-0.0032598877
0.0056590455
-0.0044474042
0.0059473284
-0.005621958
0.005857753
-0.006736944
0.005432129
-0.0077479611
0.0046817045
-0.008606368
0.0036053201
-0.0092552438
0.0022077319
-0.0096270073
0.00051670949
-0.0096491987
-0.0014005145
-0.0092489739
-0.0034188837
-0.0083739375
-0.0053427697
-0.007022068
-0.0068992015
-0.0052818104
-0.0077591027
-0.0033676647
-0.0076086283
-0.0016173623
-0.0062871301
-0.00040826865
-0.0039555469
-0.0011790242
-0.00034815588
0.0018215626
-0.0011372141
0.0043514041
-0.0021827867
0.0059528974
-0.0033586172
0.006834876
-0.0045822388
0.00717095
-0.0057998176
0.0070753317
-0.0069721893
0.0066045008
-0.008063662
0.0057731772
-0.0090334353
0.0045750933
-0.0098289873
0.0030032836
-0.010381268
0.0010689902
-0.01060452
-0.001177263
-0.010400772
-0.0036226313
-0.0096748903
-0.0060686513
-0.0083686707
-0.0082054212
-0.0065156823
-0.0096120911
-0.0043098826
-0.0098144279
-0.0021483223
-0.0084486903
-0.00056492501
-0.0055389442
-0.0017439492
-0.0003439346
0.0021654972
-0.001127859
0.0051353285
-0.0021647087
0.0069897471
-0.0033259005
0.0079960678
-0.0045308004
0.00837585
-0.0057319417
0.0082764731
-0.0069002185
0.0077727775
-0.0080123782
0.006885337
-0.0090408226
0.0056035378
-0.0099449633
0.0039074243
-0.010663391
0.001787418
-0.011106742
-0.00073391214
-0.011163417
-0.0035659566
-0.010697124
-0.0065349434
-0.009582596
-0.0093199495
-0.0077667744
-0.011427913
-0.0053714992
-0.012209703
-0.0028071776
-0.011013012
-0.00077836862
-0.0075677532
-0.0025223178
-0.00032890786
0.0024944051
-0.0010824212
0.0058888419
-0.0020707769
0.0079781026
-0.0031636126
0.0090889034
-0.0042839015
0.009496139
-0.0053928528
0.0093854246
-0.0064741399
0.0088540646
-0.0075205477
0.0079317448
-0.0085229177
0.006605908
-0.0094603445
0.0048448513
-0.010291332
0.0026184055
-0.010933227
-9.2017304e-05
-0.011283212
-0.0032159717
-0.011173632
-0.0066445225
-0.010415713
-0.010077869
-0.0088467348
-0.012996891
-0.0064557526
-0.014600685
-0.003581526
-0.013887239
-0.0010642225
-0.010085057
-0.0035865404
-0.00031178429
0.0028061894
-0.0010206793
0.006597737
-0.0019261008
0.0088835239
-0.0028949504
0.010057753
-0.0038568846
0.010458073
-0.0047855655
0.010314106
-0.0056807688
0.0097492679
-0.0065544586
0.0088054345
-0.0074198926
0.007471342
-0.0082818284
0.0057067872
-0.0091251589
0.0034617361
-0.009908643
0.00069146683
-0.010527259
-0.0025973553
-0.010827016
-0.006344766
-0.010573629
-0.010331256
-0.0094932089
-0.014077311
-0.0073911385
-0.016702756
-0.004418914
-0.016859463
-0.0014372113
-0.013066759
-0.0050237516
-0.00031004309
0.0031162326
-0.0009803655
0.0072680596
-0.0017790502
0.0096822087
-0.0025693683
0.010848071
-0.003294599
0.011183304
-0.0039479006
0.010967407
-0.0045499746
0.010351342
-0.0051347905
0.0093902502
-0.0057399255
0.0080764768
-0.00639853
0.0063653917
-0.0071301327
0.0041933387
-0.0079302644
0.0014915986
-0.0087388106
-0.0017888091
-0.0094303629
-0.0056532137
-0.0097685842
-0.0099930346
-0.0094003456
-0.01444555
-0.0079305803
-0.018172521
-0.0052061613
-0.019583882
-0.0019026119
-0.016370309
-0.0069263635
-0.00035604053
0.0034722731
-0.0010239983
0.0079360174
-0.0017042322
0.010362443
-0.0022608012
0.01140464
-0.0026657255
0.011588228
-0.0029440143
0.011245696
-0.003144254
0.010551582
-0.0033248721
0.0095708686
-0.0035471979
0.0082988026
-0.003871051
0.0066892447
-0.0043491762
0.0046714638
-0.0050183855
0.0021608079
-0.005876618
-0.00093057653
-0.00685784
-0.0046719917
-0.0077762923
-0.0090745823
-0.0082658384
-0.013956004
-0.0077687419
-0.018669617
-0.0057511001
-0.021601524
-0.0024366712
-0.019684738
-0.0093630346
-0.00050826136
0.0039805346
-0.0012456328
0.0086733885
-0.0017958863
0.010912696
-0.0020480023
0.011656756
-0.0020325102
0.011572735
-0.0018254314
0.011038617
-0.0015121985
0.010238349
-0.0011778666
0.009236537
-0.00090472032
0.0080256565
-0.00077372783
0.0065582522
-0.00086349805
0.004761234
-0.0012473656
0.0025446754
-0.0019828394
-0.00019510268
-0.0030818749
-0.0035729562
-0.0044600373
-0.0076964199
-0.0058274913
-0.01258855
-0.0065661665
-0.017930942
-0.0057684482
-0.022399242
-0.0029512252
-0.022501961
-0.01231426
-0.00086855358
0.0048490885
-0.0017629843
0.0095678188
-0.0021213572
0.011271069
-0.0019368467
0.011472247
-0.0013509226
0.010986812
-0.00051619313
0.010203887
0.00043704076
0.009285115
0.0013996134
0.0082739643
0.0022723769
0.0071528931
0.0029609155
0.0058697138
0.0033691504
0.0043529992
0.0033967986
0.0025170272
0.0029385441
0.0002631518
0.0019096088
-0.0025440209
0.00026968242
-0.0060564935
-0.0018541658
-0.010464701
-0.0039515978
-0.01583351
-0.0048608354
-0.021490004
-0.0032547038
-0.024108093
-0.015568964
-0.0015910844
0.006440173
-0.002610853
0.010587588
-0.0025131372
0.011173352
-0.0015899068
0.010549016
-0.00017217001
0.0095690755
0.001492802
0.0085389156
0.0032328989
0.0075450182
0.0049232384
0.0065836247
0.0064629972
0.0056131343
0.0077575015
0.0045752096
0.0087075068
0.0034029938
0.0092014946
0.0020230395
0.0091033391
0.00036130723
0.0082750879
-0.0017157697
0.0065654576
-0.0043468633
0.0039042324
-0.0078034762
0.00055895219
-0.01248823
-0.0024680556
-0.018462997
-0.0030273172
-0.023548831
-0.018596281
-0.0027183604
0.0091585328
-0.0031498653
0.011019095
-0.0018029984
0.0098264845
0.00046670138
0.0082793151
0.0030894236
0.0069463527
0.0057738113
0.0058545278
0.0083628984
0.0049559312
0.010760396
0.0041861274
0.012893491
0.0034800392
0.014690659
0.0027780416
0.016068344
0.0020253092
0.016923282
0.001168101
0.01711971
0.00016487903
0.016490827
-0.0010868859
0.014816837
-0.002672874
0.011846655
-0.0048332937
0.0074354906
-0.0080770657
0.0022629283
-0.013290434
-0.0012724669
-0.020013436
-0.019868748
-0.0024132803
0.011571812
2.8056657e-05
0.0085777595
0.0042551384
0.0055994044
0.0084161219
0.0041183319
0.012231483
0.0031309911
0.015656262
0.0024297494
0.018686545
0.0019256485
0.021329187
0.0015434846
0.023583487
0.0012257392
0.025429222
0.00093230689
0.026820165
0.00063436596
0.027677177
0.00031108949
0.027900201
-5.8145227e-05
0.027347222
-0.00053390709
0.02577163
-0.0010972819
0.022843046
-0.0019047093
0.018054769
-0.0032887893
0.011113586
-0.0063492511
0.0033886752
-0.012288525
-0.016480072
0.011571811
0.02014957
0.025748974
0.029867306
0.032998297
0.035428046
0.037353695
0.038897179
0.040122919
0.041055226
0.041689591
0.042000681
0.041942536
0.041408629
0.040311347
0.038406637
0.035117848
0.028768597
0.016480072
)
;

boundaryField
{
    movingWall
    {
        type            calculated;
        value           uniform 0;
    }
    fixedWalls
    {
        type            calculated;
        value           uniform 0;
    }
    frontAndBack
    {
        type            empty;
        value           nonuniform List<scalar> 0();
    }
}


// ************************************************************************* //
