/*--------------------------------*- C++ -*----------------------------------*\
  =========                 |
  \\      /  F ield         | OpenFOAM: The Open Source CFD Toolbox
   \\    /   O peration     | Website:  https://openfoam.org
    \\  /    A nd           | Version:  9
     \\/     M anipulation  |
\*---------------------------------------------------------------------------*/
FoamFile
{
    format      ascii;
    class       volScalarField;
    location    "0.29";
    object      p;
}
// * * * * * * * * * * * * * * * * * * * * * * * * * * * * * * * * * * * * * //

dimensions      [1 -1 -2 0 0 0 0];

internalField   nonuniform List<scalar> 
10000
(
0
-0.022809255
-0.027515452
-0.02537606
-0.016923837
-0.0022261121
0.018231033
0.04415257
0.075517445
0.1122935
0.15450434
0.2022602
0.25566337
0.31483103
0.37993539
0.45117259
0.52875276
0.612928
0.7039936
0.80226412
0.90806347
1.0217335
1.1436677
1.2744602
1.4142858
1.5631381
1.7209564
1.8872851
2.0606268
2.2376375
2.4194151
2.6082489
2.8026048
3.0010825
3.2022066
3.4043636
3.6058425
3.8048381
3.9994161
4.1875555
4.3672096
4.5363322
4.6929395
4.8351747
4.9613374
5.0699355
5.159706
5.2295945
5.2788227
5.3068981
5.3135567
5.2988899
5.2633577
5.2076711
5.132915
5.0403867
4.9315532
4.8082147
4.6721662
4.5254372
4.3701585
4.2083665
4.0421452
3.8735144
3.704381
3.5364083
3.3711224
3.2099879
3.0542879
2.9052375
2.7642055
2.6304728
2.496536
2.3693443
2.250495
2.140287
2.0385027
1.944883
1.8589167
1.7797365
1.7067774
1.6395545
1.5776439
1.520684
1.4683419
1.4202947
1.3763115
1.3362104
1.2998414
1.2671106
1.2378841
1.2121695
1.1900014
1.1713034
1.1560739
1.1443957
1.136355
1.1314604
1.1284882
1.1352306
-0.019507491
-0.031026054
-0.031716784
-0.028175175
-0.019028331
-0.0040403392
0.016476341
0.042399762
0.073649875
0.11021163
0.15216174
0.19957364
0.25252611
0.31115671
0.37563611
0.44614538
0.52290643
0.60619643
0.69632626
0.79362656
0.89845254
1.0111802
1.1321912
1.2618443
1.4002885
1.5474141
1.7029136
1.866327
2.0372672
2.2159959
2.4001161
2.5904654
2.7862111
2.986189
3.1889975
3.3930646
3.5966445
3.7978539
3.9947001
4.1851082
4.3669663
4.5381794
4.6967297
4.8407208
4.9684096
5.0782704
5.1690336
5.2396279
5.2892283
5.3173631
5.3238348
5.308723
5.272471
5.2157646
5.139669
5.0455341
4.9348162
4.809341
4.6709829
4.5217867
4.3639354
4.1995879
4.0309044
3.8599289
3.6886094
3.518717
3.3518586
3.1894424
3.0325953
2.882169
2.7384257
2.600135
2.4711742
2.3489178
2.2338385
2.1263543
2.0266454
1.9346427
1.849962
1.7720382
1.7003346
1.6343314
1.5735518
1.5176091
1.4661877
1.4189591
1.3756647
1.336123
1.3001954
1.2678341
1.2389184
1.2134092
1.1913614
1.1727433
1.1575632
1.1459251
1.1379148
1.1330143
1.1300003
1.136705
-0.041368333
-0.048952595
-0.04694804
-0.041796414
-0.031783265
-0.016366314
0.0044105077
0.03041869
0.061613943
0.098052635
0.1397857
0.18685822
0.2393696
0.29746259
0.3612932
0.43105295
0.50698878
0.58939051
0.67857213
0.77488182
0.87870205
0.99042336
1.1104175
1.2389991
1.3763664
1.5225543
1.6774546
1.840867
2.0127817
2.1925092
2.3788155
2.5715418
2.7700061
2.9731056
3.1794576
3.3874458
3.5952502
3.8008968
4.0022922
4.1972612
4.3835995
4.5591212
4.7217164
4.8694169
5.0004148
5.1130965
5.2061206
5.2783881
5.3290306
5.3575327
5.3637108
5.3476538
5.3098031
5.2508925
5.1719982
5.0744798
4.9599173
4.8301594
4.6871565
4.5331365
4.370371
4.2011309
4.027685
3.8522017
3.676739
3.5031481
3.3330923
3.1679915
3.0089584
2.8567877
2.7118213
2.5739651
2.4439883
2.3225767
2.2090696
2.1034505
2.00562
1.9153481
1.8322299
1.7557571
1.6854137
1.6206899
1.5610966
1.5062118
1.4557004
1.4092543
1.3666275
1.3276336
1.292136
1.2600722
1.2313731
1.2060294
1.1840629
1.1654758
1.1503065
1.138658
1.1306404
1.1257322
1.12268
1.1294913
-0.063751001
-0.069902117
-0.066185234
-0.059804198
-0.049003114
-0.033026544
-0.011917317
0.014225986
0.045441792
0.081780438
0.12326077
0.16993996
0.22192648
0.27934946
0.34236579
0.4111832
0.48606032
0.56729224
0.65521506
0.7502101
0.85269109
0.96307924
1.0817752
1.2091398
1.3454465
1.4908557
1.6454041
1.8089887
1.9810886
2.1616338
2.3501023
2.5458229
2.747932
2.9553
3.1665105
3.3798843
3.5935138
3.8053112
4.0130539
4.2144347
4.4071178
4.5887872
4.7572031
4.9102757
5.0460885
5.1629132
5.2592833
5.3340164
5.386211
5.4152975
5.4210626
5.4036247
5.3634242
5.3012279
5.2182151
5.1157394
4.9955244
4.8595958
4.7100123
4.5491488
4.3794503
4.2034049
4.023411
3.8417472
3.6606145
3.4820097
3.3076779
3.1390788
2.9773369
2.8232278
2.6772195
2.5396515
2.4110547
2.2903844
2.1783007
2.0745365
1.9787601
1.8905702
1.8094927
1.7349803
1.6664705
1.6034394
1.5453875
1.4918754
1.4425328
1.3970512
1.3552186
1.316841
1.2818119
1.2500668
1.2215539
1.1963126
1.1743678
1.1557386
1.1404958
1.1287429
1.1206225
1.1156625
1.1124723
1.1192812
-0.090377877
-0.09585394
-0.091187214
-0.084023188
-0.072550703
-0.056088396
-0.034700524
-0.0084196274
0.022797902
0.058969049
0.10011699
0.14630945
0.19763928
0.25422378
0.31622877
0.38387265
0.45741679
0.53716894
0.62349514
0.7168151
0.81758284
0.9262665
1.0433294
1.1692039
1.3042543
1.4487471
1.6028299
1.7665076
1.9396963
2.1222711
2.3136507
2.5132094
2.7200691
2.9330601
3.1507079
3.3712443
3.5926281
3.8126015
4.0287677
4.2386395
4.439692
4.629431
4.8054532
4.9655077
5.1075312
5.2296755
5.3303605
5.4082857
5.4624804
5.4923406
5.4975756
5.4783129
5.4350516
5.36856
5.2801469
5.1712628
5.0437437
4.8997602
4.741606
4.5718472
4.393088
4.2080371
4.0193458
3.8295406
3.6409752
3.4558004
3.2758895
3.1027446
2.9375014
2.7809484
2.633555
2.495551
2.3669361
2.247969
2.1379104
2.0364688
1.9432037
1.8575944
1.779069
1.7070125
1.6408062
1.5798876
1.523731
1.4718827
1.4239596
1.3796544
1.3387893
1.301156
1.2666628
1.2352677
1.206956
1.181804
1.1598569
1.14116
1.1257923
1.1138738
1.1055948
1.1005241
1.0972624
1.1040672
-0.12162643
-0.12681402
-0.12160727
-0.11384773
-0.10184188
-0.084983867
-0.063322124
-0.036899622
-0.0057099586
0.030260346
0.071042293
0.11668605
0.16726156
0.22288085
0.28370973
0.34996217
0.42190368
0.49986639
0.58425384
0.67552787
0.77419285
0.88078272
0.99584329
1.1199051
1.2534529
1.3968991
1.55056
1.7146355
1.889178
2.0740461
2.2688743
2.4730748
2.685768
2.9057549
3.1314886
3.3610829
3.5923195
3.8227237
4.049662
4.2703977
4.4821542
4.6822002
4.8679143
5.0368472
5.1867461
5.315594
5.4216925
5.5036236
5.5603008
5.5910885
5.5956737
5.5741591
5.5270822
5.4552525
5.3600546
5.2430659
5.1063419
4.9521779
4.7831042
4.6019335
4.4115906
4.2150865
4.0153106
3.8151152
3.6171352
3.4237053
3.236835
3.058107
2.8886759
2.7292986
2.5803815
2.4420447
2.3141848
2.1966293
2.0887604
1.9899993
1.8997139
1.8172244
1.7418138
1.6727527
1.60935
1.5509961
1.4971194
1.4472401
1.4009769
1.3580291
1.3182372
1.2813938
1.2474346
1.2163586
1.1882064
1.1630777
1.1410342
1.1221803
1.1065761
1.0944001
1.085918
1.0806693
1.0772893
1.0841171
-0.15799263
-0.16307876
-0.15744433
-0.14924701
-0.13683473
-0.11961766
-0.09769406
-0.071160231
-0.040021433
-0.0042616776
0.036127934
0.081163914
0.13089539
0.18542012
0.24488642
0.30949934
0.37953787
0.45536544
0.53742322
0.62621669
0.72230893
0.82631433
0.93888264
1.0606731
1.1923258
1.3344306
1.4874897
1.6518826
1.8278478
2.015366
2.2142178
2.4238993
2.6435709
2.8720134
3.1076008
3.3482987
3.5916698
3.8349634
4.0752368
4.3094301
4.5344514
4.74727
4.9449799
5.1248909
5.2845434
5.4217091
5.5345213
5.6214463
5.6812587
5.7132333
5.7170452
5.6927864
5.6409853
5.56256
5.4590185
5.3320342
5.1838879
5.0170905
4.8345152
4.6392251
4.4344631
4.2236801
4.0101737
3.797153
3.5876006
3.3841101
3.1888431
3.0034599
2.8291173
2.6665182
2.515966
2.3774408
2.250636
2.1350614
2.029952
1.9345097
1.847884
1.7691948
1.6975613
1.632123
1.5720918
1.5167982
1.4656299
1.4180698
1.3737188
1.3322904
1.2936581
1.2576564
1.2242319
1.1934203
1.1653413
1.1401402
1.1178896
1.0987434
1.0828103
1.0703049
1.0615329
1.0560719
1.0524267
1.0592633
-0.1997653
-0.20474322
-0.19878054
-0.19025156
-0.17746731
-0.15990398
-0.13774208
-0.11110295
-0.079995276
-0.044431262
-0.0044454648
0.039942575
0.088751524
0.14204553
0.19994692
0.26265762
0.3304745
0.40378669
0.48306567
0.56886212
0.66180883
0.76261858
0.87207008
0.99098399
1.12019
1.2604852
1.4125869
1.5770859
1.754401
1.944782
2.1481484
2.3641102
2.5919172
2.8303584
3.0777183
3.3317705
3.5898023
3.848713
4.1051647
4.3556804
4.5967646
4.8250241
5.0372193
5.2303659
5.4017786
5.5490138
5.6699809
5.7629802
5.8266484
5.8601314
5.8630366
5.8354892
5.7780186
5.6916363
5.5779996
5.438979
5.2770723
5.0949921
4.8959741
4.683516
4.4612825
4.2331374
4.0029172
3.7743065
3.5507278
3.3351457
3.1299286
2.9368238
2.7569722
2.5909614
2.4389057
2.3005503
2.1753201
2.0624234
1.9608529
1.8695634
1.7874474
1.713383
1.6463079
1.5852292
1.5292389
1.4775624
1.429533
1.3846304
1.3424564
1.3027252
1.2653028
1.2301338
1.1972289
1.1666472
1.1385235
1.113067
1.0904771
1.0708965
1.0544813
1.0414955
1.0322881
1.0265116
1.0225694
1.0292982
-0.24706987
-0.25197631
-0.24573372
-0.23687483
-0.22371776
-0.2058177
-0.18340184
-0.15660656
-0.1254735
-0.090066914
-0.050470329
-0.0067496739
0.041063341
0.092988743
0.14912502
0.20967098
0.27492937
0.34529946
0.42127588
0.50345913
0.59256677
0.68943284
0.79499269
0.91025744
1.0362753
1.1740799
1.3246377
1.4888
1.667247
1.8605086
2.068721
2.2916997
2.5288187
2.7788909
3.0401123
3.3100337
3.5855949
3.8632417
4.13912
4.4092112
4.6695016
4.9161624
5.1455903
5.3544686
5.5398378
5.6990294
5.8297126
5.9299548
5.9982244
6.0335507
6.0354356
6.004024
5.9398851
5.8441555
5.7185716
5.5652412
5.3869286
5.186701
4.9680856
4.7349857
4.491669
4.2425528
3.9921688
3.7448493
3.5045405
3.274662
3.0578606
2.8559578
2.6700289
2.5004922
2.3472201
2.2096572
2.086888
1.9775953
1.8806175
1.7945721
1.7180524
1.6496595
1.5881022
1.5322303
1.4810207
1.4335921
1.3891913
1.3472819
1.307502
1.2696453
1.2335471
1.1991962
1.1666711
1.1361521
1.1078622
1.0819865
1.0587931
1.0385516
1.0214974
1.0078733
0.99813194
0.99187164
0.98762679
0.99422468
-0.3000958
-0.30493101
-0.29836517
-0.28915455
-0.275614
-0.25733637
-0.23458473
-0.2075369
-0.17629038
-0.1409686
-0.10171508
-0.058661516
-0.011903059
0.03853579
0.092727533
0.15085024
0.21318704
0.28012999
0.35219462
0.43004058
0.51448645
0.60650853
0.70722351
0.81785736
0.93970239
1.0740658
1.2222158
1.3853348
1.564463
1.760398
1.9736219
2.2042385
2.451807
2.715216
2.9925991
3.2812563
3.5776726
3.8776758
4.1767114
4.4700767
4.7531323
5.0215266
5.2712487
5.4986391
5.7004264
5.8736679
6.0157834
6.1245843
6.198314
6.2358656
6.2366507
6.2007928
6.1288673
6.0222003
5.8826511
5.7126018
5.5149609
5.2932234
5.051365
4.7937329
4.5252542
4.2510473
3.9764322
3.7066342
3.4463879
3.1996871
2.9695158
2.7577708
2.5653959
2.3925354
2.2386863
2.1028196
1.9835794
1.8792594
1.7882752
1.7088662
1.639285
1.5778339
1.5229667
1.4733302
1.4277404
1.3852222
1.3449864
1.3064997
1.2693799
1.2334649
1.1986531
1.1650608
1.1328423
1.1021792
1.0734189
1.0469038
1.0229263
1.0017964
0.98386456
0.96940912
0.95897911
0.95213315
0.94739663
0.95384905
-0.35900636
-0.3636962
-0.35676482
-0.34717503
-0.33318462
-0.31441744
-0.29119866
-0.26376502
-0.23227531
-0.19692395
-0.15793406
-0.11551524
-0.069827264
-0.020946346
0.031151767
0.086592874
0.14561343
0.2085854
0.27604604
0.34872288
0.42754698
0.51364968
0.60834483
0.71309679
0.82947945
0.95912917
1.103686
1.26473
1.4436959
1.6418629
1.8600695
2.0987694
2.3578313
2.636351
2.9324692
3.2431817
3.5643451
3.8909318
4.2174598
4.5383592
4.8482344
5.1421155
5.4155305
5.6644825
5.8854054
6.0750465
6.2305333
6.3493999
6.4296247
6.4698851
6.4694948
6.4285608
6.3476564
6.2282732
6.0724226
5.88289
5.6628128
5.4159737
5.1467684
4.8600614
4.5614725
4.2571531
3.9535073
3.6568653
3.3730061
3.1066819
2.861287
2.6387667
2.4398117
2.2641251
2.1106716
1.9778388
1.863695
1.7660867
1.682878
1.6118612
1.5508847
1.497902
1.451078
1.4088488
1.3698701
1.3330481
1.2975232
1.2627928
1.2285665
1.1947278
1.1611998
1.1281513
1.0959504
1.0649276
1.035465
1.0079699
0.98289985
0.96063148
0.94151875
0.92598119
0.91456009
0.90702117
0.90166037
0.90780644
-0.4239282
-0.42841385
-0.42107567
-0.41101926
-0.39644594
-0.37703095
-0.35317326
-0.32517227
-0.29325922
-0.25771805
-0.21886337
-0.17698457
-0.13231194
-0.084999016
-0.035110174
0.017393033
0.072679833
0.13109222
0.19318496
0.25975126
0.33183356
0.41072208
0.49794319
0.59523495
0.70450877
0.82779949
0.96719786
1.1247562
1.302378
1.5019387
1.7247067
1.9716559
2.2431293
2.5386238
2.8563691
3.1930019
3.5435222
3.9017224
4.2608601
4.6142389
4.9555453
5.2791128
5.5799808
5.8538285
6.0968507
6.3055178
6.4766196
6.6073223
6.695276
6.7388566
6.7372196
6.6904365
6.599178
6.4651538
6.2905878
6.0785265
5.8324568
5.5564304
5.2551952
4.9342881
4.6000351
4.259703
3.9211523
3.5922685
3.2803057
2.9911039
2.7285547
2.4945354
2.2892427
2.1116896
1.9600976
1.8321547
1.7252845
1.6365604
1.5633568
1.5029036
1.4525669
1.4099158
1.3727743
1.3392983
1.3079865
1.2777099
1.2475867
1.2170379
1.1858174
1.1539306
1.1215598
1.0889504
1.0564936
1.0246996
0.99415019
0.96529762
0.93870797
0.91490523
0.89428222
0.8774182
0.86479966
0.85631656
0.8502715
0.85600602
-0.49505458
-0.49927786
-0.49144025
-0.48077132
-0.46544035
-0.4451814
-0.42046214
-0.39165524
-0.35908349
-0.32312931
-0.28419924
-0.24267052
-0.19887086
-0.15307078
-0.10546521
-0.056134874
-0.0049968784
0.0482447
0.10414181
0.16353207
0.22755584
0.29766601
0.37562825
0.46350524
0.5636153
0.67846766
0.81068047
0.96286703
1.137519
1.337087
1.5635277
1.8184809
2.1030833
2.417434
2.7600375
3.1271639
3.5126482
3.9085678
4.3064143
4.6980299
5.0760097
5.4339288
5.7663647
6.0687514
6.3371353
6.567774
6.7570899
6.901732
6.9988736
7.0465003
7.0435873
6.9901239
6.8869389
6.7359654
6.5399197
6.3020899
6.026276
5.7167638
5.3784057
5.017266
4.6406067
4.2570425
3.8763161
3.5085299
3.1630432
2.8472336
2.5655877
2.3196601
2.1087862
1.9309679
1.7834179
1.6628854
1.5659175
1.4889234
1.4285435
1.3813456
1.3441154
1.3139813
1.2884441
1.2653669
1.2430074
1.2201337
1.1959389
1.169926
1.1419388
1.112001
1.0804902
1.0479315
1.0148294
0.98180609
0.94960834
0.91892118
0.89040494
0.86464481
0.84214056
0.8235534
0.80952703
0.79983873
0.79285789
0.79809799
-0.57262191
-0.57647985
-0.5680117
-0.55655841
-0.54025791
-0.51890493
-0.49304398
-0.46313391
-0.42959624
-0.39291073
-0.35358075
-0.31209774
-0.26893133
-0.22451225
-0.17919798
-0.13321744
-0.086606397
-0.039151735
0.0096545951
0.060657478
0.11507706
0.17453843
0.24108378
0.31715893
0.40556371
0.50936629
0.63179981
0.7761477
0.94559066
1.1431344
1.3717498
1.6340169
1.9320665
2.2669513
2.6379606
3.0411384
3.4685936
3.9097558
4.3536258
4.7902053
5.2108223
5.6082411
5.9766659
6.3114985
6.6088407
6.8648129
7.075395
7.2365343
7.3446875
7.3972451
7.3929479
7.331717
7.2147698
7.0443284
6.8237211
6.5566152
6.2469762
5.8991684
5.5181031
5.1100324
4.6830999
4.2475396
3.8155289
3.4003381
3.0145362
2.6677928
2.3652406
2.1075906
1.892692
1.7170711
1.5765563
1.4667527
1.3831583
1.321388
1.2772517
1.2465721
1.2254783
1.2105265
1.1988017
1.1879013
1.1759171
1.1615121
1.1438812
1.1226373
1.0978234
1.0696844
1.0387201
1.0056663
0.97131227
0.93654667
0.90214244
0.86899346
0.83794115
0.80970692
0.78490933
0.7641648
0.74830474
0.7372098
0.72910138
0.73364527
-0.65687016
-0.66023899
-0.65099222
-0.63855553
-0.62102577
-0.59827214
-0.57093142
-0.53954842
-0.50463651
-0.46677707
-0.4265937
-0.3847309
-0.34184328
-0.29856056
-0.25543482
-0.21288079
-0.17110671
-0.13004614
-0.089295354
-0.048047265
-0.0050219934
0.041587094
0.094133726
0.15550287
0.22905474
0.31852303
0.42787947
0.56119302
0.72244985
0.91545317
1.144049
1.4120336
1.7229474
2.0796395
2.4830439
2.9292654
3.4076759
3.9034574
4.4020934
4.8914423
5.3614537
5.804025
6.2131289
6.5844911
6.9146699
7.1998611
7.4354462
7.6162856
7.7377206
7.7963058
7.7904972
7.7201334
7.5870174
7.3940143
7.1452191
6.845002
6.4975133
6.1066315
5.6768906
5.2144281
4.7280002
4.2296
3.7346024
3.2608857
2.8260368
2.4432999
2.1184563
1.8502923
1.6341133
1.4642112
1.3347048
1.2398268
1.1739988
1.1318431
1.1082025
1.0980291
1.0967049
1.100137
1.1048921
1.1082395
1.1081209
1.1031876
1.0927019
1.076449
1.0546472
1.0279048
0.99702386
0.96288676
0.92650923
0.88914878
0.85180688
0.81554955
0.78126932
0.74991423
0.72226552
0.6990156
0.68093545
0.66810833
0.65872362
0.66241435
-0.74807977
-0.75083192
-0.74063355
-0.72697021
-0.7079077
-0.68340068
-0.6541743
-0.62085004
-0.58403194
-0.54442089
-0.50279558
-0.45999088
-0.41687836
-0.37432155
-0.33311438
-0.29391877
-0.25719241
-0.22310024
-0.19141839
-0.1614323
-0.13183541
-0.10065067
-0.065195037
-0.022086895
0.032699157
0.10371328
0.19584809
0.31412294
0.46347887
0.64853383
0.87405039
1.1450359
1.4669895
1.8456846
2.2855925
2.783761
3.3251574
3.8875697
4.4514699
5.0025636
5.5295479
6.0233846
6.4780057
6.8900692
7.2572724
7.5762315
7.8414937
8.0462055
8.1839333
8.2499318
8.2422549
8.1608356
8.0082994
7.7887956
7.5077267
7.1703703
6.7809938
6.3425005
5.8580774
5.3331044
4.7765332
4.2019219
3.6285744
3.0812109
2.585595
2.1609361
1.8135059
1.5379276
1.3249776
1.1657029
1.0523044
0.97764183
0.93499531
0.91787431
0.92000454
0.93528509
0.95815019
0.98373782
1.0080367
1.0279793
1.0413922
1.046977
1.0441463
1.032952
1.0138984
0.98792823
0.95625739
0.92013384
0.88090545
0.84001827
0.79876224
0.75852338
0.72031029
0.68520108
0.65402701
0.62767063
0.60697801
0.59203979
0.58108367
0.58378475
-0.84659091
-0.84857618
-0.83722442
-0.82205993
-0.8011262
-0.77446034
-0.74285776
-0.70701083
-0.6676274
-0.62555206
-0.58174681
-0.53726367
-0.49322019
-0.45075572
-0.41097334
-0.37487059
-0.34325231
-0.31661442
-0.2950069
-0.27789106
-0.2640041
-0.25124717
-0.23661022
-0.21614387
-0.18500488
-0.13760838
-0.067888947
0.030363934
0.16317277
0.3359061
0.55420732
0.82423159
1.1534367
1.5517542
2.0319023
2.594005
3.2155329
3.8597729
4.5008261
5.1237897
5.7165139
6.2684111
6.7735062
7.2303372
7.6390048
7.9973271
8.298518
8.5327715
8.6908374
8.7660801
8.7558493
8.6604339
8.4839208
8.2324989
7.9139874
7.5352947
7.1003912
6.6102187
6.0653801
5.4694632
4.8307981
4.1636574
3.4914533
2.8489356
2.2761042
1.8029032
1.4352496
1.1585757
0.95564778
0.81368534
0.72286636
0.67492226
0.66209313
0.67673601
0.71117516
0.75797582
0.8104031
0.86267547
0.91014137
0.94937153
0.97811582
0.99520485
1.0003751
0.99401624
0.97709966
0.951062
0.91755274
0.87823081
0.83493381
0.78940921
0.74321585
0.69790045
0.65476728
0.61505831
0.57972328
0.5496582
0.52589097
0.50854393
0.49576546
0.49722888
-0.95278713
-0.95383251
-0.94111307
-0.92415601
-0.90097428
-0.87167629
-0.83711643
-0.79805938
-0.75533084
-0.70993522
-0.66303207
-0.61590988
-0.56996733
-0.52667915
-0.48754187
-0.45399469
-0.42730497
-0.40842073
-0.39779759
-0.39521283
-0.39957905
-0.40876678
-0.41945362
-0.42703527
-0.42565502
-0.40840414
-0.36769427
-0.29578058
-0.18534888
-0.030024167
0.17603311
0.43943099
0.76896497
1.1803216
1.7022284
2.3410286
3.0684665
3.8156037
4.5475797
5.2538007
5.9230241
6.5410182
7.1015118
7.6066894
8.0615178
8.4664273
8.8123005
9.0841429
9.2680842
9.3548955
9.3408584
9.2267477
9.0194075
8.7282996
8.3653007
7.9405775
7.4576962
6.913243
6.3029914
5.6275679
4.8940407
4.1151155
3.3164126
2.5472558
1.873394
1.3438619
0.96354974
0.69775284
0.51493409
0.39854333
0.3381229
0.32483717
0.35012994
0.40498866
0.47997027
0.56587872
0.65448158
0.73887865
0.81371908
0.87524719
0.9212255
0.95069991
0.96391588
0.9618786
0.9461455
0.91874883
0.88194956
0.83799717
0.78915367
0.73747796
0.68500788
0.63344941
0.58439965
0.53915802
0.49888089
0.46452107
0.43712895
0.41694456
0.4020715
0.40208891
-1.0671017
-1.0670335
-1.0527305
-1.0336725
-1.0078195
-0.97535071
-0.93717398
-0.89412636
-0.84715243
-0.79741593
-0.74627825
-0.69528497
-0.64615982
-0.60078447
-0.56114317
-0.52923175
-0.5069181
-0.49576607
-0.49683282
-0.51042846
-0.53584396
-0.57106352
-0.61249842
-0.65481583
-0.69093316
-0.71224405
-0.70910858
-0.67164297
-0.59069937
-0.45889135
-0.27101359
-0.0218898
0.29397732
0.69384619
1.2503048
1.9823253
2.8700885
3.74154
4.57731
5.3838298
6.1458691
6.8410402
7.462591
8.0184489
8.5235545
8.9848717
9.388772
9.7103352
9.9279408
10.028975
10.0088
9.869012
9.6203942
9.277679
8.8606188
8.3849705
7.8528676
7.2529662
6.5725634
5.8084683
4.9668564
4.0523202
3.0843904
2.1344101
1.3219917
0.73272897
0.36709064
0.13745687
-0.010923619
-0.091820621
-0.11274859
-0.081708881
-0.0077818967
0.0981679
0.22425783
0.35892345
0.49196633
0.61511265
0.72223622
0.80932995
0.87436908
0.91694056
0.93791132
0.939144
0.92312318
0.89267679
0.85069579
0.80012702
0.74388722
0.68440698
0.62410591
0.5649123
0.50871576
0.45694597
0.41082604
0.37147178
0.33994183
0.3165368
0.29927244
0.29763825
-1.1900481
-1.1887018
-1.1725976
-1.1511014
-1.1221224
-1.0859005
-1.0433876
-0.99548175
-0.94323176
-0.88794681
-0.83118941
-0.7747834
-0.72082446
-0.67167197
-0.6298945
-0.59816927
-0.57913682
-0.57520645
-0.58831461
-0.61960663
-0.66903959
-0.73494556
-0.81361635
-0.89899746
-0.9825802
-1.0535768
-1.099502
-1.1073183
-1.0649843
-0.96387187
-0.80052373
-0.57238761
-0.29178058
0.029356352
0.60096027
1.4602711
2.5700523
3.6164835
4.5591178
5.4935731
6.3786052
7.1690672
7.8580793
8.4640818
9.0240318
9.556917
10.039631
10.427565
10.688273
10.80595
10.77555
10.599701
10.293891
9.880561
9.394301
8.8628298
8.2843467
7.6306638
6.8742775
6.0097074
5.0469727
3.9742318
2.7749248
1.5291469
0.52504474
-0.11373617
-0.39952647
-0.54218737
-0.63921166
-0.67451207
-0.64544762
-0.55775842
-0.42122438
-0.2496348
-0.058460922
0.13745002
0.32533156
0.49526258
0.64036338
0.75658591
0.84235111
0.89819492
0.92608604
0.92898907
0.91048199
0.87450064
0.82492984
0.76542087
0.69948425
0.63012545
0.56014652
0.49180108
0.42710015
0.36772525
0.31491614
0.26980398
0.23352607
0.20646206
0.18653109
0.18303099
-1.32223
-1.3194437
-1.3013171
-1.2770393
-1.2444662
-1.2038889
-1.1562757
-1.1025599
-1.0438669
-0.98162944
-0.91760386
-0.85390517
-0.79303693
-0.73789417
-0.69172417
-0.65803032
-0.64044179
-0.64251385
-0.66742562
-0.71755926
-0.79395786
-0.89570908
-1.0193257
-1.1581993
-1.302244
-1.4379017
-1.5487225
-1.6170082
-1.6262108
-1.565648
-1.4356324
-1.2409913
-1.0585429
-1.0066002
-0.50054929
0.34287822
1.9127353
3.2003406
4.3344264
5.4945336
6.5837713
7.5185508
8.2860342
8.9287322
9.5433606
10.172144
10.772267
11.252942
11.570846
11.709155
11.66241
11.437314
11.048965
10.533908
9.9531901
9.3613492
8.7422539
8.0389399
7.1898002
6.1854249
5.060773
3.794118
2.2381456
0.51413702
-0.73533254
-1.4614529
-1.4577267
-1.3789995
-1.3987272
-1.3776601
-1.2845923
-1.1229265
-0.90382242
-0.64627453
-0.37105526
-0.097522525
0.15834932
0.38480708
0.57435957
0.72332844
0.83119009
0.8998546
0.93286947
0.93483055
0.91086163
0.86617753
0.8057854
0.73434507
0.6560229
0.57443523
0.4926824
0.41343279
0.33877922
0.27055555
0.21011771
0.1585325
0.11691916
0.085730129
0.062856146
0.057319827
-1.4643233
-1.4599459
-1.4395917
-1.4122067
-1.3755811
-1.3300422
-1.276535
-1.2159864
-1.1495604
-1.0787802
-1.0055746
-0.93234196
-0.86200478
-0.79803203
-0.74443616
-0.70571404
-0.6867425
-0.69257971
-0.72809995
-0.7974647
-0.90343595
-1.0465442
-1.2241629
-1.4295473
-1.6510379
-1.8717054
-2.0697994
-2.2209482
-2.3011987
-2.2960328
-2.2107848
-2.0598973
-2.0508086
-2.3701084
-2.3368728
-0.76169244
2.9608422
3.3673224
3.9489874
5.3159572
6.6903461
7.8718223
8.749842
9.3991586
10.046237
10.82071
11.615791
12.220498
12.606966
12.769564
12.6985
12.405024
11.89691
11.226376
10.500593
9.8597581
9.2211569
8.4694138
7.4612524
6.2223548
4.8734273
3.4108501
1.6314785
-0.50660419
-3.0620449
-3.4858053
-2.9345515
-2.4614123
-2.3489754
-2.2510514
-2.0697232
-1.8060458
-1.474673
-1.1020256
-0.71666769
-0.34382475
-0.0032893452
0.29140778
0.53266975
0.71787063
0.84832943
0.92820887
0.96340794
0.96064548
0.92699104
0.86940988
0.79423393
0.70722706
0.61329189
0.51670774
0.42089155
0.32878731
0.2426682
0.1643575
0.095265737
0.036470893
-0.011000246
-0.046680902
-0.072759496
-0.080483266
-1.6170679
-1.6109846
-1.588238
-1.5574537
-1.5163507
-1.4652638
-1.4050652
-1.3366228
-1.2610856
-1.1800176
-1.095473
-1.0100932
-0.92719253
-0.8508252
-0.78584123
-0.73790004
-0.71340751
-0.71932421
-0.76277481
-0.85044396
-0.98774837
-1.1777312
-1.4196933
-1.7076052
-2.0286398
-2.3621048
-2.6795201
-2.9470896
-3.1285614
-3.1998726
-3.1595368
-3.022962
-3.0771592
-3.3761089
-2.8999524
0.07613906
5.6538945
6.6324227
4.0518514
5.1797486
6.7885687
8.2535807
9.2320594
9.7208693
10.409848
11.745663
12.596996
13.359636
13.823357
14.020585
13.913909
13.542465
12.861157
11.947097
10.962761
10.30439
9.6802723
8.882941
7.6451352
6.1009124
4.5270539
3.5153973
1.2996274
-3.0691482
-5.4258064
-5.689929
-4.7074485
-3.8484972
-3.5715921
-3.3684762
-3.0617012
-2.6492286
-2.1595811
-1.6295346
-1.0979415
-0.59707743
-0.15084454
0.22596226
0.52660022
0.75082983
0.9031074
0.99095336
1.0235403
1.0105797
0.96166829
0.8857836
0.79086582
0.68391678
0.57066765
0.45593749
0.34354015
0.23652094
0.13731299
0.047720945
-0.030940063
-0.097656257
-0.15150547
-0.19202403
-0.22148478
-0.231539
-1.7812843
-1.7734281
-1.7481809
-1.7137586
-1.6678132
-1.6106511
-1.5430068
-1.465625
-1.37957
-1.2863688
-1.1881195
-1.0876198
-0.98850131
-0.89537291
-0.81396255
-0.75122714
-0.71536438
-0.71567204
-0.76220035
-0.86514058
-1.0338693
-1.2755085
-1.5929771
-1.9825767
-2.4315148
-2.9155685
-3.3983347
-3.8324549
-4.1628031
-4.3454445
-4.351145
-4.1887604
-4.1557166
-4.2211132
-3.4432841
-0.79254441
4.3174123
6.106353
3.7883533
4.9405889
6.9310624
8.720577
9.7637966
9.8575063
10.66361
12.11963
13.687755
14.655497
15.248987
15.502072
15.328465
14.926793
14.007049
12.805524
11.925961
10.704076
10.08604
9.2257209
7.7188017
5.8193684
4.1894091
3.7540795
-0.75823677
-4.4069318
-6.9748274
-7.3819349
-6.4874307
-5.5409395
-5.151331
-4.8151813
-4.3449117
-3.7032471
-2.9888906
-2.2421742
-1.515062
-0.8486992
-0.27081736
0.20384711
0.57137189
0.83592241
1.0069431
1.0969935
1.119829
1.0890255
1.0173992
0.91637271
0.79572717
0.66368405
0.52687791
0.39054913
0.25884339
0.13486636
0.020996806
-0.081041342
-0.17007846
-0.24530485
-0.30595376
-0.35163119
-0.38459856
-0.39703143
-1.9578776
-1.9482262
-1.9204364
-1.8822188
-1.8311682
-1.7675146
-1.6917801
-1.6045075
-1.5065843
-1.3993909
-1.2849379
-1.1660383
-1.0465094
-0.93141882
-0.82734076
-0.74258537
-0.68734284
-0.67368699
-0.71537741
-0.82733161
-1.0246031
-1.3206123
-1.7245307
-2.23785
-2.8502761
-3.5355463
-4.2486102
-4.9234551
-5.4777301
-5.8352396
-5.9215942
-5.7247814
-5.5146374
-5.3046541
-4.1357213
-1.8448305
1.691267
5.8439131
3.252631
4.917232
7.2814757
9.5588184
11.091655
10.297711
13.131072
18.11733
15.68872
15.507924
16.684367
17.163782
17.009913
16.515141
15.405464
13.620841
11.889433
10.92216
10.554416
9.5062858
7.7402612
5.5658607
3.885287
3.2945237
-1.8938985
-5.2802817
-7.913988
-8.485175
-8.1778495
-7.5948752
-7.2032663
-6.6924232
-5.9205377
-5.016869
-3.9962958
-2.9525039
-1.9637329
-1.0837766
-0.34305349
0.24658801
0.68715584
0.99038247
1.1735677
1.2564945
1.25912
1.2001147
1.0961679
0.96151777
0.80796917
0.64493699
0.4798551
0.31831301
0.16452547
0.021571772
-0.10839935
-0.22390746
-0.32401497
-0.4081867
-0.47590438
-0.52690264
-0.56353489
-0.57844198
-2.1478347
-2.1363946
-2.1060904
-2.0640357
-2.0077723
-1.937388
-1.853113
-1.7551965
-1.6442282
-1.5212921
-1.3881274
-1.2473584
-1.1027827
-0.95973412
-0.82547627
-0.70959237
-0.62434613
-0.58495945
-0.60970433
-0.71962804
-0.93762732
-1.2865087
-1.7857149
-2.4466208
-3.2660004
-4.2192558
-5.2532507
-6.2794062
-7.1768415
-7.814163
-8.0789901
-7.8922395
-7.4555425
-6.9015677
-5.5372895
-3.0298076
-0.32892614
6.0553774
4.1099022
5.758735
8.2123612
10.961562
14.114324
14.791747
28.639734
29.901908
29.958443
17.256319
17.768575
18.64904
18.516326
17.939913
16.507554
13.337346
11.744716
11.815529
12.101754
10.129471
7.9118454
5.3428012
3.5137951
2.4705333
-2.1886265
-5.6533117
-8.5225854
-9.9220919
-10.406584
-10.303947
-9.973657
-9.2269174
-8.0856348
-6.7140403
-5.2343018
-3.772925
-2.4324414
-1.2777196
-0.33780912
0.38374649
0.90023772
1.2356802
1.4190973
1.4805366
1.4482378
1.3472513
1.1988149
1.0202803
0.82546462
0.62489552
0.42651236
0.23606032
0.05755247
-0.106219
-0.25348083
-0.38316958
-0.49476264
-0.58809089
-0.66302643
-0.71940492
-0.75972182
-0.77736349
-2.3522636
-2.3389792
-2.3062672
-2.2604814
-2.1991098
-2.1220153
-2.0290483
-1.9200606
-1.7951948
-1.655045
-1.5008426
-1.3347513
-1.1602477
-0.9826029
-0.80943313
-0.65130802
-0.52243317
-0.4413461
-0.43149086
-0.52148363
-0.74467804
-1.137416
-1.7352753
-2.5667832
-3.6439376
-4.9510535
-6.430855
-7.9688159
-9.3931584
-10.493123
-11.074255
-11.024238
-10.31702
-9.1970365
-7.4384977
-4.5564333
-1.06138
3.6544969
6.0283866
6.6748575
9.4281565
12.767013
18.238494
21.715899
28.054063
25.006761
25.269063
20.325148
17.08882
19.073979
19.255509
18.265625
16.016589
14.491796
26.448623
15.098355
13.654733
10.993248
8.3721101
5.3255787
3.8814455
2.6731553
-2.124908
-5.9106707
-9.5812723
-12.148303
-13.533407
-14.07295
-13.856327
-12.719728
-10.951788
-8.8844046
-6.7410912
-4.7021965
-2.8946579
-1.3912978
-0.2121713
0.65552584
1.2444131
1.597733
1.7617065
1.7804634
1.6930512
1.5322162
1.3242999
1.0898339
0.84437503
0.59924404
0.36246583
0.13954485
-0.065980474
-0.25197122
-0.41728238
-0.56148343
-0.68461543
-0.78697414
-0.86890878
-0.93059363
-0.9745733
-0.99521472
-2.5721172
-2.5569392
-2.5220547
-2.4728444
-2.4067457
-2.3233116
-2.2219219
-2.1019121
-1.9628047
-1.8044731
-1.627359
-1.4328212
-1.2235982
-1.0043958
-0.78261109
-0.56922257
-0.3798913
-0.23622725
-0.16710124
-0.20990369
-0.41130427
-0.82643411
-1.5150786
-2.5339437
-3.9240627
-5.6929611
-7.7896943
-10.070565
-12.279955
-14.074348
-15.184397
-15.441135
-14.532883
-12.802736
-10.421094
-6.8250001
-2.1884977
1.8890699
7.938683
7.6224079
10.219121
12.674199
15.499995
12.367017
27.710467
23.668546
23.395658
15.906486
16.455709
19.495635
20.178007
19.283818
16.872653
16.205494
36.34357
31.700691
17.32191
11.586451
9.2475817
6.1856549
5.6598424
3.4475176
-1.7982241
-6.6174288
-11.497301
-15.340857
-17.942136
-19.306109
-19.323705
-17.422533
-14.631421
-11.58555
-8.543719
-5.7311803
-3.3102078
-1.3671117
0.093942283
1.1153436