/*--------------------------------*- C++ -*----------------------------------*\
  =========                 |
  \\      /  F ield         | OpenFOAM: The Open Source CFD Toolbox
   \\    /   O peration     | Website:  https://openfoam.org
    \\  /    A nd           | Version:  9
     \\/     M anipulation  |
\*---------------------------------------------------------------------------*/
FoamFile
{
    format      ascii;
    class       surfaceScalarField;
    location    "0.29";
    object      phi;
}
// * * * * * * * * * * * * * * * * * * * * * * * * * * * * * * * * * * * * * //

dimensions      [0 3 -1 0 0 0 0];

internalField   nonuniform List<scalar> 
19800
(
0.00017678984
-0.00016344145
0.00024804254
-0.00016353926
0.00031923087
-0.00016358023
0.00039013275
-0.00016324881
0.0004605774
-0.00016263432
0.0005305036
-0.0001618607
0.00059979229
-0.00016087752
0.0006683011
-0.00015963704
0.00073588822
-0.00015810497
0.00080237966
-0.00015625088
0.0008675811
-0.00015404019
0.00093128009
-0.00015142935
0.00099323539
-0.00014837967
0.0010531781
-0.00014485438
0.0011108209
-0.00014081716
0.0011658484
-0.00013623609
0.0012179098
-0.00013108496
0.0012666381
-0.00012533594
0.0013116698
-0.00011897197
0.0013526278
-0.00011198594
0.0013890848
-0.00010438481
0.0014205404
-9.6183408e-05
0.0014463008
-8.7376401e-05
0.0014657485
-7.7749408e-05
0.0014789529
-6.6847994e-05
0.0014857039
-5.4479692e-05
0.0014858428
-4.0610426e-05
0.0014797776
-2.5289443e-05
0.0014691839
-9.0902281e-06
0.0014563001
7.6891162e-06
0.0014367201
2.6159046e-05
0.0014095449
4.3602776e-05
0.0013752741
6.1048653e-05
0.0013340912
7.8738238e-05
0.0012861144
9.695206e-05
0.0012315252
0.00011571952
0.0011705868
0.00013492615
0.0011036292
0.00015455307
0.0010310547
0.00017460284
0.00095334119
0.00019487316
0.00087100323
0.00021512244
0.00078462888
0.00023517115
0.00069485294
0.00025465671
0.00060225238
0.00027310111
0.00050736005
0.00029008065
0.00041065108
0.00030517845
0.0003124784
0.00031795469
0.00021307415
0.00032803383
0.00011258006
0.00033515495
1.1129357e-05
0.00033917186
-9.0694752e-05
0.00034008397
-0.00019222086
0.00033791756
-0.00029319933
0.00033260605
-0.0003934518
0.00032426649
-0.00049273983
0.00031310257
-0.00059073537
0.00029942737
-0.00068697991
0.00028365863
-0.00078089912
0.00026627971
-0.0008718779
0.00024775468
-0.00095928722
0.00022841679
-0.0010425203
0.00020858447
-0.0011209919
0.00018859714
-0.0011941432
0.00016870301
-0.0012614822
0.0001490723
-0.0013225667
0.00012970698
-0.0013770338
0.00011057245
-0.0014246137
9.1816882e-05
-0.0014650588
7.3514227e-05
-0.0014980914
5.5403521e-05
-0.0015233386
3.7225673e-05
-0.0015396116
1.8732498e-05
-0.001552021
-1.2463202e-06
-0.0015611159
-1.8197754e-05
-0.0015637269
-3.5343423e-05
-0.0015590283
-5.1034963e-05
-0.0015470348
-6.5070654e-05
-0.0015279258
-7.745385e-05
-0.0015017395
-8.8411403e-05
-0.0014692254
-9.8446497e-05
-0.0014311283
-0.00010774933
-0.0013880125
-0.00011633683
-0.0013403802
-0.00012419127
-0.0012886839
-0.00013129369
-0.0012333377
-0.00013764916
-0.001174752
-0.00014328813
-0.0011133317
-0.00014825018
-0.0010494516
-0.00015257549
-0.00098344956
-0.00015630036
-0.00091562638
-0.00015947751
-0.00084625143
-0.00016216469
-0.00077557446
-0.00016441019
-0.00070380784
-0.00016625549
-0.00063112936
-0.00016774909
-0.00055769698
-0.00016893476
-0.00048364639
-0.00016984882
-0.00040908481
-0.00017055831
-0.00033407703
-0.00017113987
-0.00025870806
-0.00017151043
-0.00018310485
-0.0001715947
-0.00017202764
0.0001760823
-0.00023592469
0.00024786579
-0.00023534331
0.00031935861
-0.00023505878
0.00039047821
-0.00023438029
0.0004611707
-0.00023332671
0.0005313603
-0.00023204052
0.00060093176
-0.00023045231
0.00066976605
-0.00022847114
0.00073771753
-0.00022605361
0.00080461188
-0.00022315064
0.00087025978
-0.00021969513
0.0009344486
-0.00021562134
0.00099693266
-0.00021086687
0.0010574408
-0.00020536564
0.0011156783
-0.00019905394
0.0011713256
-0.00019188007
0.0012240337
-0.00018379093
0.0012734391
-0.000174741
0.0013191594
-0.00016469258
0.0013607911
-0.00015361881
0.0013979054
-0.00014150168
0.0014300573
-0.00012833796
0.0014567693
-0.00011408954
0.0014776629
-9.8642328e-05
0.0014926306
-8.1814675e-05
0.0015016824
-6.3530966e-05
0.0015049049
-4.3832738e-05
0.0015024297
-2.2814338e-05
0.0014939321
-5.9294092e-07
0.001479009
2.261192e-05
0.0014586744
4.6493966e-05
0.001431794
7.0484563e-05
0.0013982262
9.4618338e-05
0.0013579129
0.0001190527
0.0013109548
0.00014390928
0.0012574552
0.00016921627
0.0011975214
0.00019485591
0.0011313634
0.00022070719
0.0010592867
0.00024667701
0.00098164144
0.00027251853
0.00089885
0.00029791683
0.000811474
0.0003225519
0.00072009
0.00034604567
0.00062522635
0.00036796896
0.00052743168
0.00038787768
0.00042725519
0.00040535479
0.00032519143
0.00042001744
0.0002216896
0.00043153575
0.00011718654
0.0004396604
1.2154508e-05
0.00044420745
-9.3192267e-05
0.00044543216
-0.0001986375
0.00044336486
-0.00030372179
0.00043769237
-0.00040797839
0.00042851824
-0.00051092401
0.00041604432
-0.00061205641
0.0004005576
-0.00071082693
0.0003824248
-0.00080663463
0.00036208812
-0.00089887484
0.00033999481
-0.00098696223
0.00031650329
-0.00107036
0.00029198118
-0.0011485742
0.00026680901
-0.0012211643
0.00024129422
-0.0012877433
0.00021565115
-0.0013479677
0.00018992735
-0.0014016042
0.00016420538
-0.0014484612
0.00013867211
-0.0014882862
0.00011333937
-0.0015209213
8.8040301e-05
-0.0015464281
6.2734375e-05
-0.0015649167
3.7222424e-05
-0.001577732
1.1568554e-05
-0.0015830726
-1.2858867e-05
-0.0015820801
-3.6336863e-05
-0.001574642
-5.8472794e-05
-0.0015605968
-7.9116345e-05
-0.0015398888
-9.8163452e-05
-0.0015126382
-0.00011566373
-0.0014792971
-0.00013179072
-0.001440408
-0.00014664425
-0.0013964824
-0.00016026678
-0.001348019
-0.00017265265
-0.0012954921
-0.00018381785
-0.0012393528
-0.00019379263
-0.0011800248
-0.00020262212
-0.0011179066
-0.00021036924
-0.0010533687
-0.00021710878
-0.00098675363
-0.00022291665
-0.00091837369
-0.0002278683
-0.00084849664
-0.0002320448
-0.00077736951
-0.00023553338
-0.00070520927
-0.00023841779
-0.00063219266
-0.00024077183
-0.00055847104
-0.00024266336
-0.00048417274
-0.00024415218
-0.00040939983
-0.00024533185
-0.00033422183
-0.00024631615
-0.00025872137
-0.00024701198
-0.00018300095
-0.00024731196
-0.00024801789
0.00017658688
-0.00030837317
0.00024859577
-0.00030733749
0.00032030951
-0.00030678408
0.00039167463
-0.00030574716
0.00046265534
-0.00030429858
0.00053316824
-0.00030255669
0.00060311511
-0.0003004006
0.00067237638
-0.00029772955
0.000740806
-0.00029448674
0.00080824198
-0.00029059272
0.00087449829
-0.00028595409
0.00093935725
-0.00028048251
0.001002573
-0.00027408573
0.0010638808
-0.00026667412
0.0011230017
-0.0002581727
0.0011795833
-0.00024845971
0.0012332625
-0.00023746954
0.0012836553
-0.00022513343
0.0013303914
-0.00021142856
0.0013730638
-0.00019629221
0.0014112381
-0.00017967802
0.0014445072
-0.00016160879
0.001472433
-0.00014201602
0.0014946998
-0.00012090954
0.0015110979
-9.8213277e-05
0.0015215267
-7.3960208e-05
0.0015259108
-4.8216549e-05
0.0015241907
-2.1093296e-05
0.0015156007
7.9983512e-06
0.0015013522
3.686195e-05
0.0014811338
6.6714244e-05
0.0014546269
9.6993278e-05
0.0014214969
0.0001277492
0.0013816756
0.00015887306
0.0013352029
0.00019037946
0.0012821178
0.00022229788
0.0012225803
0.00025439032
0.001156796
0.00028648993
0.0010850034
0.00031846999
0.0010074857
0.00035003833
0.00092456079
0.0003808453
0.00083663705
0.00041047948
0.00074422032
0.00043846488
0.00064779993
0.00046438992
0.00054786234
0.00048781461
0.00044492637
0.0005082896
0.00033951503
0.00052542786
0.0002321495
0.00053890118
0.00012335475
0.00054845724
1.3635602e-05
0.00055393058
-9.6451248e-05
0.00055552027
-0.00020635524
0.00055326834
-0.00031552361
0.00054686144
-0.00042337886
0.00053637195
-0.00052936324
0.00052202792
-0.00063293216
0.00050412633
-0.0007335406
0.00048303325
-0.00083063262
0.00045918264
-0.00092365277
0.00043301427
-0.0010121266
0.00040497614
-0.0010956109
0.00037546586
-0.0011737334
0.0003449308
-0.0012461774
0.00031373588
-0.0013125477
0.00028201962
-0.0013725867
0.00024996762
-0.0014260628
0.00021768295
-0.0014727051
0.00018531246
-0.0015123551
0.00015298596
-0.0015448537
0.00012053647
-0.0015702378
8.8118016e-05
-0.0015889021
5.5889244e-05
-0.0016013026
2.3973816e-05
-0.0016063276
-7.8300343e-06
-0.0016043016
-3.8360319e-05
-0.001595441
-6.7329716e-05
-0.001579827
-9.4725145e-05
-0.001557577
-0.00012040987
-0.0015289498
-0.00014429017
-0.0014943123
-0.0001664286
-0.0014541547
-0.00018680388
-0.0014090092
-0.00020541733
-0.0013593358
-0.00022233099
-0.0013056427
-0.00023751256
-0.001248376
-0.00025105905
-0.0011879534
-0.00026304471
-0.0011248064
-0.00027351734
-0.0010593179
-0.00028259578
-0.00099185311
-0.00029037932
-0.0009227111
-0.00029701169
-0.00085215828
-0.00030260099
-0.00078043699
-0.00030725978
-0.00070775781
-0.00031110256
-0.00063429587
-0.00031423744
-0.00056020085
-0.00031676284
-0.00048559042
-0.00031876761
-0.00041056392
-0.00032036018
-0.00033520374
-0.0003216793
-0.00025956431
-0.00032265221
-0.00018373497
-0.00032314809
-0.00032414418
0.00017706607
-0.00038081765
0.000249273
-0.00037955541
0.00032126195
-0.00037877442
0.00039293885
-0.00037741574
0.00046427566
-0.00037563885
0.00053521053
-0.00037349479
0.0006056486
-0.00037083685
0.00067547221
-0.00036755589
0.00074454974
-0.00036356993
0.00081272776
-0.0003587731
0.00087981942
-0.0003530468
0.00094560897
-0.00034627443
0.001009857
-0.00033833508
0.0010722892
-0.00032910517
0.0011325825
-0.00031846454
0.0011904053
-0.00030628217
0.0012454091
-0.00029247299
0.0012972197
-0.00027694305
0.0013454127
-0.00025962129
0.0013895496
-0.00024042999
0.0014292201
-0.00021934997
0.0014639748
-0.00019636484
0.001493431
-0.00017147354
0.0015172258
-0.00014470588
0.0015351095
-0.00011609835
0.0015468781
-8.5728919e-05
0.001552373
-5.3710039e-05
0.0015514578
-2.0175706e-05
0.0015449116
1.4547296e-05
0.0015316436
5.0132555e-05
0.0015119652
8.639468e-05
0.0014855758
0.00012338365
0.0014525591
0.00016076503
0.0014129311
0.00019849864
0.0013665877
0.00023671977
0.0013135544
0.00027532873
0.0012539234
0.0003140203
0.001187775
0.00035263917
0.0011152726
0.00039097462
0.0010366809
0.00042863269
0.00095236108
0.0004651675
0.00086274766
0.00050009432
0.0007682933
0.00053291922
0.00066951288
0.00056316884
0.00056694645
0.00059037881
0.00046108665
0.00061414814
0.00035245245
0.00063406263
0.00024158394
0.00064977031
0.00012901501
0.00066102703
1.5285825e-05
0.00066766202
-9.8885774e-05
0.00066969249
-0.00021269888
0.00066708126
-0.00032553693
0.00065969921
-0.00043683283
0.00064766703
-0.00054598736
0.00063118615
-0.0006524262
0.00061056676
-0.00075557978
0.00058618731
-0.00085487734
0.0005584824
-0.00094980767
0.00052794339
-0.0010398911
0.00049505687
-0.0011247086
0.00046027933
-0.0012038633
0.00042408608
-0.0012770082
0.00038688389
-0.0013439164
0.00034892832
-0.0014043542
0.00031040295
-0.0014581066
0.00027143107
-0.0015050105
0.0002322116
-0.0015448635
0.00019283523
-0.0015775633
0.0001532348
-0.0016030433
0.00011359885
-0.0016211783
7.4026174e-05
-0.001631936
3.4732905e-05
-0.0016359294
-3.8373137e-06
-0.0016328253
-4.1467433e-05
-0.0016225494
-7.76097e-05
-0.001605291
-0.0001119886
-0.0015813325
-0.00014437625
-0.0015509496
-0.00017468382
-0.0015145776
-0.00020281007
-0.0014726874
-0.00022869896
-0.0014257801
-0.00025232671
-0.0013743975
-0.00027371492
-0.0013190201
-0.00029288931
-0.0012601497
-0.00030992436
-0.001198257
-0.00032493075
-0.0011337472
-0.00033802612
-0.0010670004
-0.00034934491
-0.00099836289
-0.00035902102
-0.00092815958
-0.00036721517
-0.0008566674
-0.00037409097
-0.00078413112
-0.00037980007
-0.00071074953
-0.00038449021
-0.00063668882
-0.00038830345
-0.00056209226
-0.00039136347
-0.00048706361
-0.00039379326
-0.00041170052
-0.0003957215
-0.0003360732
-0.00039730847
-0.0002602242
-0.0003984987
-0.00018422001
-0.00039915725
-0.00040031397
0.00017783032
-0.00045342808
0.00025027591
-0.00045199981
0.00032255767
-0.00045104683
0.00039460119
-0.00044946257
0.00046638257
-0.00044742416
0.00053783595
-0.00044494727
0.00060887161
-0.00044187522
0.00067939656
-0.00043808647
0.00074928621
-0.00043346187
0.00081839113
-0.00042787809
0.00088652663
-0.00042118357
0.00095348403
-0.00041323305
0.0010190214
-0.00040387189
0.0010828594
-0.00039294217
0.0011446846
-0.00038028976
0.0012041668
-0.00036576451
0.0012609254
-0.00034923064
0.0013145509
-0.00033056728
0.0013645973
-0.00030966743
0.0014106362
-0.00028646944
0.0014522155
-0.00026093025
0.0014889073
-0.00023305788
0.0015202706
-0.00020283878
0.0015459405
-0.00017037768
0.0015656173
-0.00013577611
0.0015790843
-9.9195161e-05
0.0015861955
-6.081904e-05
0.0015869238
-2.0901157e-05
0.0015808292
2.064475e-05
0.0015682299
6.2734187e-05
0.0015490122
0.00010561382
0.0015232445
0.00014915132
0.0014907585
0.00019324942
0.0014515084
0.00023774644
0.0014054694
0.00028275672
0.0013525861
0.00032821124
0.0012928216
0.00037378542
0.0012262165
0.00041924597
0.0011528888
0.00046430435
0.0010730341
0.00050848904
0.00098695222
0.00055125001
0.00089503089
0.00059201509
0.00079779539
0.0006301533
0.0006957911
0.00066517172
0.00058959917
0.00069656913
0.00047983917
0.00072390679
0.00036711307
0.00074678936
0.00025199941
0.00076488451
0.00013514013
0.00077788589
1.7241935e-05
0.00078556005
-0.00010109401
0.00078802656
-0.00021925999
0.00078524818
-0.00033651473
0.00077695577
-0.00045214885
0.0007632995
-0.00056546105
0.00074450207
-0.00067576548
0.00072087263
-0.00078240587
0.00069282817
-0.00088476238
0.00066083811
-0.00098226362
0.00062544032
-0.0010744239
0.00058721541
-0.0011608195
0.00054667249
-0.0012411483
0.0005044147
-0.0013151752
0.00046091014
-0.001382715
0.00041646712
-0.001443599
0.00037128621
-0.0014976787
0.00032550724
-0.0015448103
0.00027933865
-0.0015847757
0.00023279801
-0.0016174946
0.0001859524
-0.0016428402
0.00013894249
-0.0016606763
9.1858574e-05
-0.0016712225
4.5274072e-05
-0.0016738902
-1.1749627e-06
-0.0016691157
-4.6246238e-05
-0.001657037
-8.9690162e-05
-0.0016378293
-0.00013119494
-0.001611724
-0.00017047875
-0.0015791221
-0.00020728528
-0.0015404839
-0.00024145201
-0.0014963187
-0.00027286968
-0.001447165
-0.00030148466
-0.0013935719
-0.00032731067
-0.0013360637
-0.00035040224
-0.001275147
-0.00037084557
-0.0012113078
-0.00038877167
-0.001144994
-0.00040434168
-0.001076602
-0.00041773415
-0.0010064882
-0.00042913461
-0.00093496711
-0.00043873766
-0.00086231379
-0.00044674512
-0.00078876224
-0.00045335345
-0.00071450336
-0.00045874608
-0.00063970322
-0.00046310478
-0.00056448653
-0.00046658819
-0.00048894978
-0.00046933588
-0.00041317842
-0.00047149742
-0.00033722075
-0.00047326717
-0.00026112769
-0.00047459608
-0.00018492309
-0.00047536048
-0.00047662536
0.00017875201
-0.00052624147
0.00025147396
-0.00052471104
0.00032407161
-0.00052364736
0.00039652949
-0.00052192351
0.0004688076
-0.00051970128
0.00054085558
-0.00051699797
0.00061260414
-0.00051362947
0.00068396349
-0.0005094482
0.00075482404
-0.00050432194
0.00082503189
-0.00049808628
0.00089442612
-0.00049057859
0.00096280149
-0.00048160789
0.0010299151
-0.00047098461
0.0010954873
-0.00045851464
0.001159201
-0.00044400412
0.0012207044
-0.00042726745
0.001279597
-0.00040812192
0.0013354656
-0.00038643496
0.0013878383
-0.00036203996
0.0014362491
-0.00033488039
0.0014802112
-0.00030489262
0.0015192273
-0.0002720749
0.00155286
-0.00023647287
0.001580691
-0.00019820976
0.001602371
-0.00015745625
0.0016176133
-0.0001144366
0.0016262348
-6.9439128e-05
0.001628063
-2.2727688e-05
0.001623104
2.5605446e-05
0.0016113047
7.4535138e-05
0.0015927498
0.00012416992
0.0015674215
0.00017447971
0.001535406
0.00022526412
0.0014965677
0.00027658351
0.0014508984
0.00032842512
0.0013982553
0.00038085433
0.0013384975
0.00043354391
0.0012715176
0.00048622701
0.00119731
0.00053851297
0.0011160242
0.00058977541
0.0010279214
0.00063935295
0.00093343085
0.00068650505
0.0008330396
0.00073054296
0.00072734837
0.00077086172
0.00061701859
0.00080689799
0.00050270946
0.00083821418
0.0003851157
0.00086438197
0.00026494026
0.00088505842
0.00014288734
0.00089993769
1.9712392e-05
0.00090873559
-0.00010398014
0.00091171564
-0.00022750566
0.00090877343
-0.00035006539
0.00089951909
-0.00047085218
0.00088408567
-0.00058904301
0.00086269478
-0.00070385069
0.00083567709
-0.00081451298
0.00080349036
-0.00092035543
0.00076668199
-0.0010207344
0.00072581679
-0.0011151614
0.00068163856
-0.0012033119
0.00063481755
-0.0012849215
0.00058602629
-0.0013598412
0.00053583318
-0.0014280121
0.00048463816
-0.0014893921
0.00043266597
-0.0015438955
0.00038000871
-0.001591415
0.00032685499
-0.0016317627
0.00027314455
-0.0016646949
0.00021888683
-0.0016900054
0.00016425877
-0.0017075651
0.00010942557
-0.0017172587
5.497307e-05
-0.0017189479
5.1612134e-07
-0.0017127015
-5.249239e-05
-0.0016987172
-0.00010367416
-0.0016772469
-0.00015266574
-0.0016486558
-0.0001990711
-0.0016134002
-0.00024254062
-0.0015719965
-0.00028285237
-0.0015250079
-0.0003198561
-0.0014730501
-0.00035344448
-0.001416696
-0.00038366714
-0.0013565222
-0.00041057906
-0.0012930799
-0.00043429129
-0.0012268715
-0.00045498433
-0.001158366
-0.00047285329
-0.0010879696
-0.00048812732
-0.0010160505
-0.00050104934
-0.00094292691
-0.00051186178
-0.00086886839
-0.00052080716
-0.00079410299
-0.00052812537
-0.00071880571
-0.00053404511
-0.00064312932
-0.00053878097
-0.0005671836
-0.00054253059
-0.0004910627
-0.00054546096
-0.00041482189
-0.00054774564
-0.00033850308
-0.00054958978
-0.00026213176
-0.00055097474
-0.0001857089
-0.00055177883
-0.00055309038
0.00017975408
-0.00059930081
0.00025277375
-0.00059773339
0.00032573638
-0.00059661111
0.00039864892
-0.00059483394
0.00047147832
-0.00059253309
0.00054418988
-0.00058971501
0.00061673639
-0.00058617832
0.00068903951
-0.00058175064
0.00076100223
-0.00057628453
0.00083249749
-0.00056958199
0.00090335911
-0.00056143955
0.00097339154
-0.00055163923
0.00104236
-0.00053995308
0.0011099826
-0.00052613805
0.0011759369
-0.0005099583
0.0012398544
-0.00049118402
0.0013013276
-0.00046959427
0.0013598847
-0.00044499185
0.0014150553
-0.00041721036
0.0014663121
-0.00038613658
0.001513123
-0.00035170275
0.0015549437
-0.00031389529
0.0015912634
-0.00027279253
0.0016216032
-0.00022854979
0.0016455636
-0.00018141689
0.0016628004
-0.00013167405
0.0016730908
-7.9730296e-05
0.0016763504
-2.5987445e-05
0.0016723176
2.9639089e-05
0.0016613389
8.5515637e-05
0.0016433538
0.00014215682
0.0016184889
0.0001993456
0.0015869288
0.00025682432
0.0015485755
0.00031493628
0.0015033368
0.00037366335
0.0014509894
0.00043320158
0.0013912179
0.00049331565
0.0013237641
0.00055368161
0.001248518
0.00061375996
0.0011655035
0.00067279038
0.0010749736
0.00072988297
0.0009773827
0.00078409588
0.00087329158
0.00083463253
0.00076338923
0.00088076173
0.00064837851
0.00092190641
0.00052898968
0.00095760055
0.00040596848
0.00098740183
0.00028006659
0.0010109574
0.00015203692
0.0010279648
2.265916e-05
0.0010381168
-0.00010729673
0.0010416709
-0.00023704635
0.0010385215
-0.00036569911
0.0010281721
-0.00049234642
0.0010107323
-0.00061607306
0.00098642657
-0.00073599884
0.00095559988
-0.00085125365
0.00091874221
-0.00096105728
0.00087648468
-0.0010647729
0.00082953541
-0.0011618696
0.00077874055
-0.0012520288
0.00072497351
-0.00133511
0.00066910193
-0.0014110894
0.00061180993
-0.0014800667
0.00055361497
-0.0015421098
0.0004947124
-0.0015972263
0.00043513113
-0.0016453477
0.00037498303
-0.0016862462
0.00031404894
-0.0017196179
0.00025226051
-0.0017451868
0.00018982374
-0.0017625924
0.00012682354
-0.0017714777
6.385169e-05
-0.0017719814
1.0165863e-06
-0.0017640353
-6.0438304e-05
-0.0017478625
-0.00011984468
-0.0017237801
-0.00017674681
-0.0016922644
-0.00023058843
-0.0016538221
-0.00028098544
-0.0016090908
-0.00032758176
-0.0015587116
-0.00037023199
-0.0015033379
-0.00040882117
-0.0014436482
-0.00044336279
-0.0013802715
-0.00047395767
-0.0013137852
-0.00050077184
-0.0012447414
-0.00052402441
-0.0011736293
-0.00054397292
-0.001100867
-0.0005608941
-0.0010268275
-0.00057508854
-0.0009518331
-0.00058685707
-0.00087614295
-0.00059649893
-0.0007999733
-0.00060429922
-0.00072349222
-0.00061052907
-0.00064682845
-0.00061544601
-0.00057007722
-0.00061928217
-0.00049330436
-0.00062222984
-0.00041655176
-0.00062449699
-0.00033984287
-0.0006263034
-0.00026317449
-0.00062764252
-0.0001865269
-0.00062842771
-0.00062971731
0.00018078719
-0.00067262578
0.0002541228
-0.00067106818
0.00032746638
-0.00066995129
0.0004008523
-0.00066822193
0.00047426551
-0.00066595127
0.00054769671
-0.00066314817
0.00062111615
-0.00065959701
0.00069446816
-0.00065510249
0.00076766596
-0.00064948281
0.00084060213
-0.00064251757
0.00091312989
-0.00063396602
0.00098506143
-0.00062357032
0.0010561614
-0.00061105331
0.001126158
-0.00059613445
0.0011947228
-0.00057852224
0.0012614709
-0.00055793171
0.001325965
-0.0005340888
0.0013877212
-0.00050674837
0.0014462084
-0.00047569678
0.0015008489
-0.00044077511
0.0015510521
-0.00040190363
0.001596186
-0.00035902719
0.0016356697
-0.0003122752
0.001668941
-0.00026182143
0.0016955047
-0.00020798257
0.0017149794
-0.00015115178
0.0017270818
-9.1835272e-05
0.001731643
-3.0549458e-05
0.001728772
3.2511322e-05
0.0017184251
9.5864984e-05
0.0017008026
0.00015978165
0.0016764276
0.00022372204
0.0016453306
0.0002879216
0.0016075709
0.00035269568
0.0015629829
0.00041825113
0.0015112163
0.00048496837
0.001451666
0.0005528664
0.001383851
0.00062149742
0.0013074565
0.00069015549
0.0012224287
0.00075781866
0.00112901
0.00082330115
0.0010276832
0.00088542172
0.00091916837
0.00094314535
0.00080427074
0.00099565659
0.00068380914
0.0010423643
0.00055860874
0.001082797
0.00042945155
0.0011165594
0.00029712495
0.0011432843
0.00016242745
0.0011626593
2.6185177e-05
0.0011743618
-0.0001107631
0.0011786207
-0.00024752149
0.0011752824
-0.00038310518
0.0011637547
-0.00051650124
0.0011441229
-0.00064665797
0.0011165861
-0.00077255698
0.0010815023
-0.00089320572
0.001039397
-0.001007705
0.00099098387
-0.0011153029
0.00093712781
-0.0012154382
0.00087887288
-0.001307822
0.00081735935
-0.0013924141
0.00075369618
-0.0014694092
0.00068880544
-0.0015390972
0.00062329984
-0.0016017722
0.00055738085
-0.001657628
0.00049098143
-0.0017065831
0.00042393592
-0.0017483488
0.00035581463
-0.0017824495
0.00028636195
-0.001808474
0.00021584834
-0.0018259237
0.00014427218
-0.0018343135
7.224092e-05
-0.0018334895
1.9226543e-07
-0.001823624
-7.0305489e-05
-0.0018049315
-0.00013854009
-0.0017778094
-0.00020387049
-0.0017428055
-0.00026559217
-0.0017005823
-0.00032321143
-0.0016518512
-0.00037631798
-0.0015973951
-0.00042469102
-0.0015379612
-0.00046825571
-0.0014743106
-0.00050701369
-0.001407133
-0.00054113921
-0.0013370701
-0.00057083436
-0.001264703
-0.00059638741
-0.0011905485
-0.00061812772
-0.0011150485
-0.00063640072
-0.0010385784
-0.00065156661
-0.00096144702
-0.00066399132
-0.00088390846
-0.00067403164
-0.00080616432
-0.00068203812
-0.00072836582
-0.00068832691
-0.00065061527
-0.00069319324
-0.00057299138
-0.00069690707
-0.0004955301
-0.00069968962
-0.00041824795
-0.00070177649
-0.0003411367
-0.00070341594
-0.00026418144
-0.00070460062
-0.00018732594
-0.00070528966
-0.00070649927
0.00018181504
-0.00074619475
0.00025545115
-0.00074470028
0.00032916302
-0.00074366547
0.00040302617
-0.00074208946
0.0004770399
-0.00073996629
0.00055122778
-0.00073733518
0.00062557458
-0.00073394385
0.0007000505
-0.00072957923
0.00077459716
-0.00072402927
0.00084912376
-0.00071704303
0.00092350176
-0.00070834326
0.00099756061
-0.0006976288
0.0010710783
-0.00068457006
0.0011437796
-0.00066883444
0.0012153385
-0.00065008078
0.0012853493
-0.00062794345
0.0013533618
-0.0006021027
0.0014188501
-0.00057223671
0.0014812278
-0.00053807249
0.0015398635
-0.00049940745
0.0015940458
-0.00045608228
0.0016430959
-0.00040807466
0.0016862992
-0.00035547783
0.0017229909
-0.0002985151
0.001752574
-0.00023756943
0.0017745663
-0.00017314816
0.0017886313
-0.00010590278
0.0017946148
-3.653287e-05
0.0017926098
3.4518253e-05
0.0017827087
0.00010576856
0.0017654071
0.0001770852
0.0017412418
0.00024788841
0.0017105284
0.00031863561
0.0016734825
0.00038974204
0.0016298517
0.00046188269
0.0015791272
0.00053569375
0.0015203306
0.00061166344
0.0014525652
0.00068926265
0.0013751494
0.00076757131
0.0012878777
0.00084509007
0.001191032
0.00092014588
0.0010852893
0.00099116276
0.00097154533
0.0010568866
0.00085078702
0.0011164129
0.00072400167
0.0011691476
0.00059211332
0.0012146806
0.00045598497
0.0012526874
0.00031643399
0.001282839
0.00017427805
0.0013048162
3.0374002e-05
0.0013182685
-0.00011440296
0.0013233945
-0.00025909297
0.0013199735
-0.00040260573
0.0013072703
-0.00054379421
0.0012853126
-0.00068144835
0.0012542395
-0.0008143737
0.0012144226
-0.00094137146
0.0011663945
-0.0010613456
0.0011109645
-0.001173386
0.001049177
-0.0012768612
0.00098234475
-0.0013714827
0.00091197445
-0.0014573914
0.00083959538
-0.0015350688
0.00076647519
-0.0016051827
0.00069341504
-0.0016683369
0.00062054037
-0.001725019
0.00054766962
-0.00177514
0.00047406346
-0.0018182417
0.00039892227
-0.0018536644
0.00032179007
-0.0018806424
0.00024283061
-0.0018982161
0.00016184733
-0.0019061025
8.0126975e-05
-0.0019040684
-1.8409648e-06
-0.0018920778
-8.2293806e-05
-0.0018704499
-0.00016016754
-0.0018397287
-0.0002345924
-0.0018005813
-0.00030473604
-0.0017538336
-0.00036995357
-0.0017003632
-0.00042978807
-0.0016410698
-0.00048399051
-0.0015768476
-0.00053248138
-0.0015085206
-0.00057533329
-0.0014368912
-0.00061276471
-0.0013626674
-0.00064506408
-0.001286473
-0.00067259357
-0.0012088355
-0.00069576434
-0.0011302161
-0.00071500906
-0.0010509919
-0.00073077946
-0.00097146812
-0.00074351152
-0.0008918859
-0.00075362102
-0.00081242111
-0.00076150763
-0.00073319185
-0.00076755109
-0.00065428575
-0.00077209682
-0.00057574454
-0.00077544999
-0.00049757581
-0.00077786061
-0.00041977643
-0.00077958395
-0.00034228182
-0.00078090419
-0.00026507548
-0.00078181049
-0.00018805325
-0.00078231309
-0.00078338307
0.00018278631
-0.00081996438
0.00025667209
-0.00081858917
0.00033072645
-0.00081772373
0.00040503837
-0.00081640185
0.00047964937
-0.00081457629
0.00055459475
-0.00081228088
0.00062990266
-0.000809253
0.00070556656
-0.0008052435
0.00078155507
-0.00080001724
0.0008578041
-0.00079329153
0.00093420999
-0.00078474851
0.0010106137
-0.00077403087
0.0010868203
-0.00076077457
0.0011625637
-0.00074457672
0.0012375033
-0.00072502136
0.0013112442
-0.00070168643
0.0013832996
-0.00067415927
0.0014531059
-0.00064204197
0.0015200167
-0.00060498017
0.0015833123
-0.000562699
0.0016422015
-0.00051496805
0.0016958676
-0.00046173921
0.001743465
-0.00040307615
0.0017841774
-0.00033923068
0.001817266
-0.00027066194
0.0018421262
-0.00019801105
0.0018583408
-0.00012211801
0.0018657465
-4.3937517e-05
0.0018642578
3.6008748e-05
0.0018544649
0.0001155629
0.0018371387
0.00019441251
0.001812815
0.00027221338
0.0017823082
0.00034914429
0.0017461414
0.00042591067
0.001704045
0.00050398018
0.0016551227
0.00058461592
0.0015979267
0.00066885826
0.0015307851
0.00075640239
0.0014525683
0.00084578668
0.0013628874
0.00093477045
0.0012620794
0.0010209538
0.0011510684
0.0011021736
0.0010310933
0.0011768588
0.00090346438
0.0012440392
0.0007693957
0.0013032163
0.00062993498
0.001354139
0.00048597959
0.0013966423
0.00033835797
0.0014304625
0.00018787825
0.0014552971
3.5395027e-05
0.0014707582
-0.00011820114
0.0014769891
-0.00027189547
0.0014736642
-0.00042448459
0.0014598514
-0.0005746721
0.0014355012
-0.00072105475
0.0014006278
-0.00086218778
0.0013555619
-0.00099662389
0.001300827
-0.0011229784
0.0012373078
-0.0012400707
0.0011662686
-0.0013471051
0.0010893785
-0.0014438197
0.0010086971
-0.0015305601
0.00092634927
-0.0016082638
0.00084418597
-0.0016782009
0.00076335352
-0.001741604
0.0006839413
-0.0017992074
0.00060527146
-0.0018509051
0.00052576436
-0.0018960127
0.00044403613
-0.0019334916
0.0003592743
-0.0019618882
0.00027123016
-0.0019803861
0.00018034525
-0.0019881045
8.7843437e-05
-0.0019846593
-5.2873923e-06
-0.0019702012
-9.6750721e-05
-0.001945121
-0.00018524767
-0.0019100924
-0.00026962515
-0.0018659977
-0.0003488343
-0.0018138473
-0.00042210127
-0.0017547182
-0.00048891053
-0.0016896953
-0.00054901292
-0.001619822
-0.00060236289
-0.0015460532
-0.00064910499
-0.0014692732
-0.0006895418
-0.0013902581
-0.00072407136
-0.0013096835
-0.00075316916
-0.0012281077
-0.00077734424
-0.0011459968
-0.00079712827
-0.0010637233
-0.00081305477
-0.00098156358
-0.00082565592
-0.00089975362
-0.00083542648
-0.00081843712
-0.00084283421
-0.00073769888
-0.00084829472
-0.00065759124
-0.00085220638
-0.00057811649
-0.00085491767
-0.00049925772
-0.00085671206
-0.00042097196
-0.00085787845
-0.00034316396
-0.00085870639
-0.00026576062
-0.00085920454
-0.00018865292
-0.00085942073
-0.00086028404
0.00018364242
-0.00089386145
0.00025770699
-0.00089265713
0.00033204956
-0.00089206591
0.00040675447
-0.00089110567
0.00048191565
-0.000889738
0.00055760561
-0.00088797226
0.00063387852
-0.0008855267
0.00071076102
-0.0008821262
0.00078825654
-0.00087751299
0.00086633167
-0.00087136641
0.00094490852
-0.00086332364
0.0010238709
-0.00085299052
0.0011030355
-0.00083993725
0.001182148
-0.00082368972
0.0012608866
-0.00080376198
0.0013388431
-0.00077964474
0.0014155103
-0.0007508264
0.0014902816
-0.00071681122
0.0015624448
-0.00067714013
0.0016311875
-0.00063143879
0.0016956055
-0.00057938447
0.0017547227
-0.00052085679
0.0018075245
-0.00045587986
0.0018530008
-0.00038470937
0.0018902095
-0.00030787216
0.0019183589
-0.00022616054
0.0019368869
-0.00014064528
0.0019455584
-5.2608326e-05
0.0019444899
3.7077711e-05
0.0019342549
0.00012579844
0.0019158399
0.00021282916
0.001890721
0.00029733499
0.0018601352
0.000379733
0.0018250054
0.00046104224
0.0017852038
0.00054378095
0.0017394143
0.00063040267
0.0016852149
0.0007230544
0.0016198823
0.00082173265
0.0015414234
0.0009242452
0.0014491014
0.0010270929
0.0013434843
0.0011265715
0.0012260139
0.001219645
0.0010985094
0.001304361
0.00096277094
0.001379774
0.00082031842
0.0014456687
0.00067231923
0.0015021378
0.00051966423