# Field minima and maxima
# Time         	field          	min            	location(min)  	processor      	max            	location(max)  	processor      
0.00119048     	p              	-9.81000000e+00	(5.30000000e-01 1.00000000e+00 7.00000000e-02)	2	1.98091950e+03	(1.00000000e-02 0.00000000e+00 7.10000000e-01)	0
0.00119048     	p_rgh          	0.00000000e+00	(5.30000000e-01 1.00000000e+00 1.00000000e-02)	2	6.82741747e+03	(0.00000000e+00 6.90000000e-01 6.10000000e-01)	3
0.00119048     	U              	(4.90477835e-07 1.53570526e-07 -1.97314951e-06)	(1.00000000e-02 1.00000000e-02 3.00000000e-02)	0	(7.17096354e-01 1.51629061e-01 1.14517142e-01)	(3.00000000e-02 6.30000000e-01 6.30000000e-01)	3
0.00119048     	alpha.water    	0.00000000e+00	(1.00000000e-02 2.10000000e-01 1.00000000e-02)	0	1.00000000e+00	(1.00000000e-02 1.00000000e-02 1.00000000e-02)	0
0.00258503     	p              	-1.81434531e+01	(1.00000000e-02 7.10000000e-01 5.90000000e-01)	3	1.96012431e+03	(9.50000000e-01 0.00000000e+00 8.30000000e-01)	1
0.00258503     	p_rgh          	-6.16610295e+00	(0.00000000e+00 7.30000000e-01 5.90000000e-01)	3	6.76186478e+03	(0.00000000e+00 6.90000000e-01 6.70000000e-01)	3
0.00258503     	U              	(-7.41068520e-02 -2.44756198e-01 -4.26936229e-01)	(3.00000000e-02 5.10000000e-01 4.90000000e-01)	0	(7.91198446e-01 1.66141609e-01 3.71192974e-02)	(3.00000000e-02 6.30000000e-01 6.10000000e-01)	3
0.00258503     	alpha.water    	-2.87107136e-09	(0.00000000e+00 7.50000000e-01 6.50000000e-01)	3	1.00000016e+00	(5.50000000e-01 1.10000000e-01 1.70000000e-01)	0
0.00422003     	p              	-1.42079801e+01	(1.00000000e-02 7.10000000e-01 6.10000000e-01)	3	1.96007955e+03	(3.30000000e-01 0.00000000e+00 6.90000000e-01)	0
0.00422003     	p_rgh          	-2.44016399e+00	(0.00000000e+00 7.30000000e-01 6.10000000e-01)	3	6.76850606e+03	(0.00000000e+00 6.90000000e-01 5.10000000e-01)	3
0.00422003     	U              	(-9.45907931e-02 -2.65952232e-01 -3.07971453e-01)	(3.00000000e-02 4.90000000e-01 4.90000000e-01)	0	(8.45930111e-01 1.07859305e-01 9.65303320e-02)	(3.00000000e-02 6.30000000e-01 6.30000000e-01)	3
0.00422003     	alpha.water    	-2.44923493e-12	(0.00000000e+00 4.70000000e-01 6.10000000e-01)	0	1.00000016e+00	(5.50000000e-01 1.10000000e-01 1.70000000e-01)	0
0.00612753     	p              	-1.39214169e+01	(1.00000000e-02 7.10000000e-01 6.10000000e-01)	3	1.96009439e+03	(3.10000000e-01 0.00000000e+00 6.70000000e-01)	0
0.00612753     	p_rgh          	-2.29442612e+00	(0.00000000e+00 7.30000000e-01 5.90000000e-01)	3	6.76731669e+03	(0.00000000e+00 6.90000000e-01 5.10000000e-01)	3
0.00612753     	U              	(-1.28538999e-01 -2.83287751e-01 -3.26803168e-01)	(3.00000000e-02 4.90000000e-01 4.90000000e-01)	0	(8.93500644e-01 1.14460497e-01 6.05128210e-02)	(3.00000000e-02 6.50000000e-01 6.30000000e-01)	3
0.00612753     	alpha.water    	1.29736716e-123	(9.90000000e-01 9.90000000e-01 1.00000000e-02)	2	1.00000016e+00	(5.50000000e-01 1.10000000e-01 1.70000000e-01)	0
0.00832115     	p              	-1.35691567e+01	(0.00000000e+00 7.10000000e-01 5.90000000e-01)	3	1.96011141e+03	(2.30000000e-01 0.00000000e+00 6.70000000e-01)	0
0.00832115     	p_rgh          	-2.59060567e+00	(0.00000000e+00 7.30000000e-01 5.90000000e-01)	3	6.77072550e+03	(0.00000000e+00 6.90000000e-01 5.30000000e-01)	3
0.00832115     	U              	(-1.42938175e-01 -2.96280522e-01 -3.34089640e-01)	(3.00000000e-02 4.90000000e-01 4.90000000e-01)	0	(1.06902431e+00 2.43021964e-01 7.20620226e-02)	(3.00000000e-02 6.90000000e-01 6.50000000e-01)	3
0.00832115     	alpha.water    	1.16240408e-120	(9.90000000e-01 9.90000000e-01 1.00000000e-02)	2	1.00000016e+00	(5.50000000e-01 1.10000000e-01 1.70000000e-01)	0
0.0109261      	p              	-1.39725355e+01	(0.00000000e+00 7.10000000e-01 6.10000000e-01)	3	1.96012482e+03	(1.50000000e-01 0.00000000e+00 6.70000000e-01)	0
0.0109261      	p_rgh          	-3.05938967e+00	(0.00000000e+00 7.30000000e-01 5.90000000e-01)	3	6.78223739e+03	(0.00000000e+00 6.90000000e-01 5.30000000e-01)	3
0.0109261      	U              	(-2.43357999e-01 -4.26031203e-01 -5.30293199e-01)	(1.00000000e-02 7.10000000e-01 7.10000000e-01)	3	(1.33250005e+00 8.59808994e-02 1.61253231e-01)	(3.00000000e-02 6.90000000e-01 6.90000000e-01)	3
0.0109261      	alpha.water    	2.15183227e-117	(9.90000000e-01 9.90000000e-01 1.00000000e-02)	2	1.00000016e+00	(5.50000000e-01 1.10000000e-01 1.70000000e-01)	0
0.0139318      	p              	-1.58159101e+01	(1.00000000e-02 5.10000000e-01 5.50000000e-01)	0	1.96013810e+03	(7.00000000e-02 0.00000000e+00 6.70000000e-01)	0
0.0139318      	p_rgh          	-5.04996905e+00	(0.00000000e+00 7.10000000e-01 5.90000000e-01)	3	6.81155807e+03	(0.00000000e+00 6.90000000e-01 5.30000000e-01)	3
0.0139318      	U              	(-2.98509421e-01 -5.55006373e-01 -6.52465420e-01)	(1.00000000e-02 7.10000000e-01 7.10000000e-01)	3	(1.07021140e+00 3.50773423e-01 1.08701415e-01)	(5.00000000e-02 6.90000000e-01 6.50000000e-01)	3
0.0139318      	alpha.water    	1.86597186e-114	(9.90000000e-01 9.90000000e-01 1.00000000e-02)	2	1.00000016e+00	(5.50000000e-01 1.10000000e-01 1.70000000e-01)	0
0.0175386      	p              	-2.79827291e+01	(1.00000000e-02 5.10000000e-01 5.70000000e-01)	0	1.96015579e+03	(1.00000000e-02 0.00000000e+00 6.50000000e-01)	0
0.0175386      	p_rgh          	-3.07504186e+00	(0.00000000e+00 7.10000000e-01 6.10000000e-01)	3	6.83378712e+03	(0.00000000e+00 6.90000000e-01 6.70000000e-01)	3
0.0175386      	U              	(-3.20163456e-01 -7.17871831e-01 -7.18236201e-01)	(1.00000000e-02 7.10000000e-01 7.10000000e-01)	3	(1.09759689e+00 1.30368123e-01 2.02715825e-01)	(5.00000000e-02 6.90000000e-01 6.90000000e-01)	3
0.0175386      	alpha.water    	4.28765818e-111	(9.90000000e-01 9.90000000e-01 1.00000000e-02)	2	1.00000016e+00	(5.50000000e-01 1.10000000e-01 1.70000000e-01)	0
0.0215963      	p              	-3.67916395e+01	(1.00000000e-02 5.10000000e-01 5.70000000e-01)	0	1.96017408e+03	(1.00000000e-02 0.00000000e+00 6.50000000e-01)	0
0.0215963      	p_rgh          	-2.49048574e+00	(0.00000000e+00 7.10000000e-01 6.10000000e-01)	3	6.84372918e+03	(0.00000000e+00 6.90000000e-01 5.30000000e-01)	3
0.0215963      	U              	(-3.05101292e-01 -9.31066614e-01 -7.70404115e-01)	(1.00000000e-02 7.10000000e-01 7.10000000e-01)	3	(8.94380466e-01 1.16217138e-01 9.30893625e-02)	(7.00000000e-02 6.50000000e-01 6.30000000e-01)	3
0.0215963      	alpha.water    	2.01091212e-108	(9.90000000e-01 9.90000000e-01 1.00000000e-02)	2	1.00000016e+00	(5.50000000e-01 1.10000000e-01 1.70000000e-01)	0
0.0263302      	p              	-4.52280117e+01	(1.00000000e-02 5.10000000e-01 5.90000000e-01)	0	1.96019824e+03	(1.00000000e-02 0.00000000e+00 6.50000000e-01)	0
0.0263302      	p_rgh          	-2.04780192e+00	(3.00000000e-02 7.30000000e-01 5.90000000e-01)	3	6.85002446e+03	(0.00000000e+00 6.90000000e-01 6.70000000e-01)	3
0.0263302      	U              	(-2.82399921e-01 -1.18205543e+00 -8.03505376e-01)	(1.00000000e-02 7.10000000e-01 7.10000000e-01)	3	(9.87799553e-01 2.02476437e-01 4.16869835e-02)	(7.00000000e-02 6.90000000e-01 6.30000000e-01)	3
0.0263302      	alpha.water    	-1.58735380e-12	(0.00000000e+00 4.70000000e-01 6.90000000e-01)	0	1.00000016e+00	(5.50000000e-01 1.10000000e-01 1.70000000e-01)	0
0.0310642      	p              	-5.04421113e+01	(0.00000000e+00 5.10000000e-01 6.10000000e-01)	0	1.96019314e+03	(1.00000000e-02 0.00000000e+00 6.30000000e-01)	0
0.0310642      	p_rgh          	-3.59453998e+00	(3.00000000e-02 7.10000000e-01 5.90000000e-01)	3	6.85377687e+03	(0.00000000e+00 6.90000000e-01 6.70000000e-01)	3
0.0310642      	U              	(-2.53315578e-01 -8.36474489e-02 -3.51377121e-01)	(5.00000000e-02 4.90000000e-01 4.70000000e-01)	0	(8.09367316e-01 1.36582973e-01 9.79251742e-02)	(9.00000000e-02 6.50000000e-01 6.30000000e-01)	3
0.0310642      	alpha.water    	-2.42888911e-11	(0.00000000e+00 4.70000000e-01 6.90000000e-01)	0	1.00000016e+00	(5.50000000e-01 1.10000000e-01 1.70000000e-01)	0
0.0357981      	p              	-5.55741004e+01	(1.00000000e-02 5.10000000e-01 5.90000000e-01)	0	1.96018372e+03	(1.00000000e-02 0.00000000e+00 6.50000000e-01)	0
0.0357981      	p_rgh          	-2.14800684e+00	(3.00000000e-02 7.10000000e-01 7.10000000e-01)	3	6.85531498e+03	(0.00000000e+00 6.90000000e-01 6.70000000e-01)	3
0.0357981      	U              	(-1.30655272e-01 -1.23871866e-01 -4.09006058e-01)	(7.00000000e-02 4.90000000e-01 4.70000000e-01)	0	(7.91468008e-01 1.63885060e-01 7.06459701e-02)	(9.00000000e-02 6.70000000e-01 6.30000000e-01)	3
0.0357981      	alpha.water    	-1.73047698e-10	(0.00000000e+00 4.70000000e-01 6.90000000e-01)	0	1.00000046e+00	(1.00000000e-02 5.10000000e-01 6.10000000e-01)	0
0.0405321      	p              	-6.05458724e+01	(0.00000000e+00 5.10000000e-01 6.10000000e-01)	0	1.96018116e+03	(1.00000000e-02 0.00000000e+00 6.50000000e-01)	0
0.0405321      	p_rgh          	-2.37682891e+00	(3.00000000e-02 4.90000000e-01 4.90000000e-01)	0	6.85643474e+03	(0.00000000e+00 6.90000000e-01 5.30000000e-01)	3
0.0405321      	U              	(-2.04812034e-01 -1.71176810e+00 -7.15901969e-01)	(1.00000000e-02 7.10000000e-01 7.10000000e-01)	3	(8.29512384e-01 5.97376414e-02 5.08241995e-02)	(9.00000000e-02 6.70000000e-01 6.30000000e-01)	3
0.0405321      	alpha.water    	-7.53182260e-12	(0.00000000e+00 4.70000000e-01 6.90000000e-01)	0	1.00000132e+00	(1.00000000e-02 5.10000000e-01 6.10000000e-01)	0
0.045266       	p              	-6.52707670e+01	(0.00000000e+00 5.10000000e-01 6.10000000e-01)	0	1.96019294e+03	(1.00000000e-02 0.00000000e+00 6.50000000e-01)	0
0.045266       	p_rgh          	-2.10233427e+00	(3.00000000e-02 4.90000000e-01 4.90000000e-01)	0	6.85705966e+03	(0.00000000e+00 6.90000000e-01 5.30000000e-01)	3
0.045266       	U              	(-2.32775795e-01 -1.29478090e+00 -5.54407914e-01)	(3.00000000e-02 7.10000000e-01 7.10000000e-01)	3	(3.05811455e-01 4.14102978e-01 3.18440995e-01)	(1.10000000e-01 6.90000000e-01 6.90000000e-01)	3
0.045266       	alpha.water    	-6.38619194e-10	(0.00000000e+00 4.70000000e-01 6.90000000e-01)	0	1.00000125e+00	(1.00000000e-02 5.10000000e-01 5.90000000e-01)	0
0.05           	p              	-6.92297940e+01	(0.00000000e+00 5.10000000e-01 6.10000000e-01)	0	1.96020437e+03	(1.00000000e-02 0.00000000e+00 6.30000000e-01)	0
0.05           	p_rgh          	-2.25367973e+00	(5.00000000e-02 7.10000000e-01 6.10000000e-01)	3	6.85717378e+03	(0.00000000e+00 6.90000000e-01 5.30000000e-01)	3
0.05           	U              	(-2.63874643e-01 -1.50452607e-01 -4.16684735e-01)	(7.00000000e-02 4.90000000e-01 4.70000000e-01)	0	(5.60109424e-01 2.68774874e-01 1.77968469e-01)	(1.30000000e-01 6.50000000e-01 6.50000000e-01)	3
0.05           	alpha.water    	-1.62614758e-09	(0.00000000e+00 4.70000000e-01 5.10000000e-01)	0	1.00000091e+00	(1.00000000e-02 5.10000000e-01 5.90000000e-01)	0
0.0555556      	p              	-7.31189319e+01	(0.00000000e+00 5.10000000e-01 6.10000000e-01)	0	1.96023991e+03	(1.00000000e-02 0.00000000e+00 6.50000000e-01)	0
0.0555556      	p_rgh          	-2.34755679e+00	(3.00000000e-02 4.70000000e-01 6.10000000e-01)	0	6.85720363e+03	(0.00000000e+00 6.90000000e-01 5.30000000e-01)	3
0.0555556      	U              	(-1.30789353e-01 -1.45033934e-01 -4.86920359e-01)	(9.00000000e-02 4.90000000e-01 4.70000000e-01)	0	(6.10433519e-01 2.55345798e-01 1.74052127e-01)	(1.30000000e-01 6.50000000e-01 6.50000000e-01)	3
0.0555556      	alpha.water    	-1.73907187e-10	(0.00000000e+00 4.70000000e-01 6.90000000e-01)	0	1.00000088e+00	(1.00000000e-02 5.30000000e-01 5.90000000e-01)	0
0.0619048      	p              	-7.49521170e+01	(1.00000000e-02 5.10000000e-01 6.10000000e-01)	0	1.96024341e+03	(1.00000000e-02 0.00000000e+00 6.30000000e-01)	0
0.0619048      	p_rgh          	-2.61582791e+00	(0.00000000e+00 4.70000000e-01 6.70000000e-01)	0	6.85765029e+03	(0.00000000e+00 6.90000000e-01 5.30000000e-01)	3
0.0619048      	U              	(-2.54501242e-01 -1.50610706e+00 -5.57206737e-01)	(3.00000000e-02 7.10000000e-01 7.10000000e-01)	3	(5.42080716e-01 2.39603283e-01 1.79831775e-01)	(1.50000000e-01 6.30000000e-01 6.50000000e-01)	3
0.0619048      	alpha.water    	-4.00609646e-10	(0.00000000e+00 6.90000000e-01 7.30000000e-01)	3	1.00000123e+00	(1.00000000e-02 5.10000000e-01 5.90000000e-01)	0
0.068254       	p              	-7.33301926e+01	(0.00000000e+00 5.10000000e-01 6.10000000e-01)	0	1.96023091e+03	(1.00000000e-02 0.00000000e+00 6.30000000e-01)	0
0.068254       	p_rgh          	-2.46885512e+00	(0.00000000e+00 4.70000000e-01 6.70000000e-01)	0	6.85801115e+03	(0.00000000e+00 6.90000000e-01 5.30000000e-01)	3
0.068254       	U              	(-2.55679509e-01 -1.48778835e+00 -5.47970479e-01)	(3.00000000e-02 7.10000000e-01 7.10000000e-01)	3	(1.40723387e-01 1.66210481e-01 2.29471775e-01)	(3.00000000e-02 4.70000000e-01 4.90000000e-01)	0
0.068254       	alpha.water    	-2.57495138e-09	(0.00000000e+00 6.90000000e-01 7.70000000e-01)	3	1.00000134e+00	(3.00000000e-02 5.30000000e-01 6.10000000e-01)	0
0.0746032      	p              	-7.12948919e+01	(1.00000000e-02 5.10000000e-01 5.90000000e-01)	0	1.96024490e+03	(1.00000000e-02 0.00000000e+00 6.50000000e-01)	0
0.0746032      	p_rgh          	-2.08363443e+00	(0.00000000e+00 4.70000000e-01 6.70000000e-01)	0	6.85820400e+03	(0.00000000e+00 6.90000000e-01 5.30000000e-01)	3
0.0746032      	U              	(-3.87904745e-01 -1.04155551e+00 -4.74792756e-01)	(5.00000000e-02 7.10000000e-01 7.10000000e-01)	3	(7.52957538e-02 6.16101758e-01 2.95343233e-01)	(1.00000000e-02 4.70000000e-01 5.30000000e-01)	0
0.0746032      	alpha.water    	-1.43463213e-10	(0.00000000e+00 6.90000000e-01 7.30000000e-01)	3	1.00000215e+00	(1.00000000e-02 5.10000000e-01 6.10000000e-01)	0
0.0809524      	p              	-7.08662791e+01	(1.00000000e-02 5.10000000e-01 5.90000000e-01)	0	1.96023766e+03	(1.00000000e-02 0.00000000e+00 6.30000000e-01)	0
0.0809524      	p_rgh          	-1.68795614e+00	(0.00000000e+00 4.70000000e-01 6.70000000e-01)	0	6.85841604e+03	(0.00000000e+00 6.90000000e-01 6.70000000e-01)	3
0.0809524      	U              	(-3.98208125e-01 -9.73678783e-01 -4.63952878e-01)	(5.00000000e-02 7.10000000e-01 7.10000000e-01)	3	(1.03537942e-01 5.65940650e-01 2.85731569e-01)	(1.00000000e-02 4.70000000e-01 5.30000000e-01)	0
0.0809524      	alpha.water    	-9.57501930e-11	(0.00000000e+00 4.30000000e-01 6.90000000e-01)	0	1.00000097e+00	(1.00000000e-02 5.70000000e-01 5.70000000e-01)	3
0.0873016      	p              	-7.17465474e+01	(1.00000000e-02 5.10000000e-01 6.10000000e-01)	0	1.96025153e+03	(1.00000000e-02 0.00000000e+00 6.30000000e-01)	0
0.0873016      	p_rgh          	-2.23796910e+00	(3.00000000e-02 4.70000000e-01 6.30000000e-01)	0	6.85857373e+03	(0.00000000e+00 6.90000000e-01 6.70000000e-01)	3
0.0873016      	U              	(-2.58153538e-01 -1.41573458e+00 -5.19548998e-01)	(3.00000000e-02 7.10000000e-01 7.10000000e-01)	3	(6.72450680e-02 4.96814735e-01 3.07425848e-01)	(1.00000000e-02 4.50000000e-01 5.10000000e-01)	0
0.0873016      	alpha.water    	-6.08384929e-09	(0.00000000e+00 6.90000000e-01 7.30000000e-01)	3	1.00000108e+00	(1.00000000e-02 5.10000000e-01 5.70000000e-01)	0
0.0936508      	p              	-7.31011215e+01	(1.00000000e-02 5.10000000e-01 6.10000000e-01)	0	1.96026736e+03	(7.00000000e-02 0.00000000e+00 6.30000000e-01)	0
0.0936508      	p_rgh          	-2.33191538e+00	(5.00000000e-02 4.50000000e-01 5.90000000e-01)	0	6.85869252e+03	(0.00000000e+00 6.90000000e-01 6.70000000e-01)	3
0.0936508      	U              	(-2.73251844e-01 -1.43753352e-01 -4.29971016e-01)	(1.10000000e-01 4.50000000e-01 4.70000000e-01)	0	(7.21373965e-02 4.66316279e-01 3.35088954e-01)	(1.00000000e-02 4.50000000e-01 5.10000000e-01)	0
0.0936508      	alpha.water    	-1.18299605e-08	(0.00000000e+00 6.90000000e-01 7.30000000e-01)	3	1.00000100e+00	(1.00000000e-02 5.10000000e-01 6.30000000e-01)	0
0.1            	p              	-7.43313630e+01	(1.00000000e-02 5.10000000e-01 5.90000000e-01)	0	1.96026774e+03	(1.10000000e-01 0.00000000e+00 6.30000000e-01)	0
0.1            	p_rgh          	-2.52747089e+00	(5.00000000e-02 4.50000000e-01 5.90000000e-01)	0	6.85880176e+03	(0.00000000e+00 6.90000000e-01 6.70000000e-01)	3
0.1            	U              	(-4.03283742e-01 -8.17130349e-01 -4.06386158e-01)	(5.00000000e-02 7.10000000e-01 7.10000000e-01)	3	(6.73921993e-02 4.38063318e-01 3.55518694e-01)	(1.00000000e-02 4.50000000e-01 5.10000000e-01)	0
0.1            	alpha.water    	-6.74755422e-09	(0.00000000e+00 6.90000000e-01 7.30000000e-01)	3	1.00000086e+00	(1.00000000e-02 5.10000000e-01 6.10000000e-01)	0
0.107143       	p              	-7.54160534e+01	(1.00000000e-02 5.10000000e-01 6.10000000e-01)	0	1.96031665e+03	(1.10000000e-01 0.00000000e+00 6.30000000e-01)	0
0.107143       	p_rgh          	-2.49528007e+00	(5.00000000e-02 4.50000000e-01 5.90000000e-01)	0	6.85876670e+03	(0.00000000e+00 6.90000000e-01 6.70000000e-01)	3
0.107143       	U              	(-2.41397614e-01 -2.78266936e-01 -4.14658374e-01)	(9.00000000e-02 3.90000000e-01 4.90000000e-01)	0	(9.14409049e-02 1.02379926e+00 3.86602094e-01)	(1.00000000e-02 4.50000000e-01 5.30000000e-01)	0
0.107143       	alpha.water    	-4.01189073e-06	(0.00000000e+00 4.70000000e-01 5.10000000e-01)	0	1.00000096e+00	(5.00000000e-02 5.10000000e-01 5.70000000e-01)	0
0.114286       	p              	-7.60336516e+01	(1.00000000e-02 5.10000000e-01 6.10000000e-01)	0	1.96031996e+03	(1.50000000e-01 0.00000000e+00 6.10000000e-01)	0
0.114286       	p_rgh          	-2.33873857e+00	(7.00000000e-02 4.30000000e-01 5.90000000e-01)	0	6.85879957e+03	(0.00000000e+00 6.90000000e-01 6.70000000e-01)	3
0.114286       	U              	(-2.49139631e-01 -1.72184621e-01 -4.47433588e-01)	(1.30000000e-01 4.30000000e-01 4.70000000e-01)	0	(2.53521331e-01 4.95962520e-01 4.25397651e-01)	(3.00000000e-02 4.50000000e-01 5.50000000e-01)	0
0.114286       	alpha.water    	-2.53603066e-05	(3.00000000e-02 4.50000000e-01 6.90000000e-01)	0	1.00000207e+00	(3.00000000e-02 5.10000000e-01 6.10000000e-01)	0
0.121429       	p              	-7.63243045e+01	(1.00000000e-02 5.10000000e-01 6.10000000e-01)	0	1.96032545e+03	(1.50000000e-01 0.00000000e+00 6.10000000e-01)	0
0.121429       	p_rgh          	-1.95503727e+00	(7.00000000e-02 4.30000000e-01 5.90000000e-01)	0	6.85882052e+03	(0.00000000e+00 6.90000000e-01 6.70000000e-01)	3
0.121429       	U              	(-4.14592312e-01 -6.96164100e-01 -3.59303766e-01)	(5.00000000e-02 7.10000000e-01 7.10000000e-01)	3	(1.76842461e-01 4.67840874e-01 4.05589793e-01)	(3.00000000e-02 4.30000000e-01 5.30000000e-01)	0
0.121429       	alpha.water    	-2.79021844e-05	(3.00000000e-02 4.50000000e-01 6.90000000e-01)	0	1.00000425e+00	(3.00000000e-02 5.10000000e-01 6.10000000e-01)	0
0.128571       	p              	-7.65203594e+01	(1.00000000e-02 5.10000000e-01 6.10000000e-01)	0	1.96034248e+03	(1.70000000e-01 0.00000000e+00 6.10000000e-01)	0
0.128571       	p_rgh          	-1.35071678e+00	(0.00000000e+00 4.70000000e-01 6.70000000e-01)	0	6.85885018e+03	(0.00000000e+00 6.90000000e-01 6.70000000e-01)	3
0.128571       	U              	(-2.37720836e-01 -1.49534988e-01 -4.76748736e-01)	(1.10000000e-01 3.50000000e-01 4.90000000e-01)	0	(1.92987005e-01 4.39978817e-01 4.29934617e-01)	(3.00000000e-02 4.30000000e-01 5.30000000e-01)	0
0.128571       	alpha.water    	-2.28336786e-05	(3.00000000e-02 4.50000000e-01 5.10000000e-01)	0	1.00000404e+00	(3.00000000e-02 5.10000000e-01 6.10000000e-01)	0
0.135714       	p              	-7.65983639e+01	(1.00000000e-02 5.10000000e-01 6.10000000e-01)	0	1.96038520e+03	(1.90000000e-01 0.00000000e+00 6.10000000e-01)	0
0.135714       	p_rgh          	-1.52616812e+00	(7.00000000e-02 4.10000000e-01 5.90000000e-01)	0	6.85886388e+03	(0.00000000e+00 6.90000000e-01 6.70000000e-01)	3
0.135714       	U              	(-2.46664484e-01 -2.43712684e-01 -4.34663401e-01)	(1.50000000e-01 4.10000000e-01 4.70000000e-01)	0	(1.88663651e-01 4.07122347e-01 4.42361666e-01)	(3.00000000e-02 4.30000000e-01 5.30000000e-01)	0
0.135714       	alpha.water    	-8.00613411e-06	(3.00000000e-02 4.70000000e-01 6.90000000e-01)	0	1.00000404e+00	(3.00000000e-02 5.10000000e-01 6.10000000e-01)	0
0.142857       	p              	-7.65539133e+01	(1.00000000e-02 5.10000000e-01 6.10000000e-01)	0	1.96039651e+03	(1.90000000e-01 0.00000000e+00 6.10000000e-01)	0
0.142857       	p_rgh          	-1.24942825e+00	(0.00000000e+00 4.70000000e-01 6.70000000e-01)	0	6.85888882e+03	(0.00000000e+00 6.90000000e-01 6.70000000e-01)	3
0.142857       	U              	(-2.03622793e-01 -1.93489509e-01 -5.70592812e-01)	(1.30000000e-01 3.30000000e-01 4.90000000e-01)	0	(1.67839009e-01 3.77187818e-01 4.41944562e-01)	(3.00000000e-02 4.30000000e-01 5.30000000e-01)	0
0.142857       	alpha.water    	-6.84616034e-06	(3.00000000e-02 4.70000000e-01 6.90000000e-01)	0	1.00000420e+00	(5.00000000e-02 5.10000000e-01 6.10000000e-01)	0
0.146429       	p              	-7.44421901e+01	(1.00000000e-02 5.10000000e-01 5.90000000e-01)	0	1.96012971e+03	(1.90000000e-01 0.00000000e+00 6.10000000e-01)	0
0.146429       	p_rgh          	-8.06402170e-01	(1.50000000e-01 4.10000000e-01 4.70000000e-01)	0	6.85916964e+03	(0.00000000e+00 6.90000000e-01 6.70000000e-01)	3
0.146429       	U              	(-2.23492854e-01 -2.18408977e-01 -5.68236080e-01)	(1.30000000e-01 3.30000000e-01 4.90000000e-01)	0	(1.50934570e-01 3.53040711e-01 4.35697105e-01)	(3.00000000e-02 4.30000000e-01 5.30000000e-01)	0
0.146429       	alpha.water    	-3.96301103e-08	(0.00000000e+00 4.70000000e-01 6.90000000e-01)	0	1.00000314e+00	(5.00000000e-02 5.10000000e-01 6.10000000e-01)	0
0.15           	p              	-7.52307674e+01	(1.00000000e-02 5.10000000e-01 6.10000000e-01)	0	1.96024190e+03	(1.70000000e-01 0.00000000e+00 6.10000000e-01)	0
0.15           	p_rgh          	-1.70034460e+00	(1.30000000e-01 4.10000000e-01 4.90000000e-01)	0	6.85916987e+03	(0.00000000e+00 6.90000000e-01 6.70000000e-01)	3
0.15           	U              	(-2.42842952e-01 -2.43580121e-01 -5.55282349e-01)	(1.30000000e-01 3.30000000e-01 4.90000000e-01)	0	(1.34925859e-01 3.39154401e-01 4.35731296e-01)	(3.00000000e-02 4.30000000e-01 5.30000000e-01)	0
0.15           	alpha.water    	-4.81388284e-08	(0.00000000e+00 4.70000000e-01 5.10000000e-01)	0	1.00000214e+00	(5.00000000e-02 5.10000000e-01 6.10000000e-01)	0
0.154167       	p              	-7.62934996e+01	(1.00000000e-02 5.10000000e-01 6.10000000e-01)	0	1.96041461e+03	(1.90000000e-01 0.00000000e+00 6.10000000e-01)	0
0.154167       	p_rgh          	-1.21533025e+00	(1.70000000e-01 6.10000000e-01 7.10000000e-01)	3	6.85917580e+03	(0.00000000e+00 6.90000000e-01 6.70000000e-01)	3
0.154167       	U              	(-2.27442213e-01 -2.72489976e-01 -5.13352430e-01)	(1.70000000e-01 3.90000000e-01 4.70000000e-01)	0	(1.18647420e-01 3.30568638e-01 4.35382370e-01)	(3.00000000e-02 4.30000000e-01 5.30000000e-01)	0
0.154167       	alpha.water    	-8.59484393e-07	(0.00000000e+00 4.70000000e-01 6.90000000e-01)	0	1.00000177e+00	(5.00000000e-02 5.10000000e-01 6.10000000e-01)	0
0.15875        	p              	-7.67093815e+01	(1.00000000e-02 5.10000000e-01 6.10000000e-01)	0	1.96046596e+03	(2.10000000e-01 0.00000000e+00 6.10000000e-01)	0
0.15875        	p_rgh          	-1.27759969e+00	(1.70000000e-01 6.10000000e-01 7.10000000e-01)	3	6.85922894e+03	(0.00000000e+00 6.90000000e-01 6.70000000e-01)	3
0.15875        	U              	(-3.71176668e-01 -1.55797894e-01 -4.12633956e-01)	(1.10000000e-01 2.90000000e-01 5.10000000e-01)	0	(1.02370056e-01 3.23539819e-01 4.32666084e-01)	(3.00000000e-02 4.30000000e-01 5.30000000e-01)	0
0.15875        	alpha.water    	-2.20294895e-06	(0.00000000e+00 4.70000000e-01 6.90000000e-01)	0	1.00000131e+00	(3.00000000e-02 5.10000000e-01 5.90000000e-01)	0
0.163906       	p              	-7.69719204e+01	(1.00000000e-02 5.10000000e-01 5.90000000e-01)	0	1.96049428e+03	(2.10000000e-01 0.00000000e+00 6.10000000e-01)	0
0.163906       	p_rgh          	-1.28421128e+00	(0.00000000e+00 4.70000000e-01 6.70000000e-01)	0	6.85925595e+03	(0.00000000e+00 6.90000000e-01 6.70000000e-01)	3
0.163906       	U              	(-4.34512425e-01 -1.10498789e-01 -4.33736719e-01)	(1.10000000e-01 2.90000000e-01 5.10000000e-01)	0	(8.75775992e-02 3.18798698e-01 4.28629548e-01)	(3.00000000e-02 4.30000000e-01 5.30000000e-01)	0
0.163906       	alpha.water    	-8.41266694e-06	(3.00000000e-02 4.50000000e-01 5.10000000e-01)	0	1.00000148e+00	(3.00000000e-02 5.10000000e-01 6.10000000e-01)	0
0.169063       	p              	-7.68045023e+01	(1.00000000e-02 5.10000000e-01 6.10000000e-01)	0	1.96048323e+03	(2.10000000e-01 0.00000000e+00 6.10000000e-01)	0
0.169063       	p_rgh          	-1.44163447e+00	(1.50000000e-01 3.90000000e-01 4.90000000e-01)	0	6.85928460e+03	(0.00000000e+00 6.90000000e-01 5.30000000e-01)	3
0.169063       	U              	(-1.81170575e-01 -1.36535799e-01 -6.48853513e-01)	(1.50000000e-01 2.90000000e-01 4.90000000e-01)	0	(7.23582500e-02 4.55457260e-01 3.29008345e-01)	(3.00000000e-02 4.50000000e-01 5.50000000e-01)	0
0.169063       	alpha.water    	-9.29018466e-06	(3.00000000e-02 4.50000000e-01 5.10000000e-01)	0	1.00000110e+00	(5.00000000e-02 5.10000000e-01 5.90000000e-01)	0
0.174219       	p              	-7.66956354e+01	(1.00000000e-02 5.10000000e-01 5.90000000e-01)	0	1.96054586e+03	(2.10000000e-01 0.00000000e+00 6.10000000e-01)	0
0.174219       	p_rgh          	-1.22729476e+00	(1.90000000e-01 5.90000000e-01 7.10000000e-01)	3	6.85927533e+03	(0.00000000e+00 6.90000000e-01 6.70000000e-01)	3
0.174219       	U              	(-4.15994471e-01 -1.87532531e-01 -5.28538603e-01)	(1.30000000e-01 2.70000000e-01 5.10000000e-01)	0	(6.42777954e-02 4.61029844e-01 3.21374512e-01)	(3.00000000e-02 4.50000000e-01 5.50000000e-01)	0
0.174219       	alpha.water    	-8.48150250e-06	(3.00000000e-02 4.50000000e-01 5.10000000e-01)	0	1.00000163e+00	(5.00000000e-02 5.10000000e-01 6.30000000e-01)	0
0.179375       	p              	-7.66169517e+01	(1.00000000e-02 5.10000000e-01 5.90000000e-01)	0	1.96060855e+03	(2.30000000e-01 0.00000000e+00 6.10000000e-01)	0
0.179375       	p_rgh          	-1.16658358e+00	(2.10000000e-01 5.90000000e-01 5.30000000e-01)	3	6.85925834e+03	(0.00000000e+00 6.90000000e-01 6.70000000e-01)	3
0.179375       	U              	(-4.78009659e-01 -1.50776903e-01 -5.32458452e-01)	(1.30000000e-01 2.70000000e-01 5.10000000e-01)	0	(4.30424216e-02 3.30432369e-01 3.17974615e-01)	(3.00000000e-02 4.50000000e-01 4.90000000e-01)	0
0.179375       	alpha.water    	-9.12110020e-06	(3.00000000e-02 4.50000000e-01 5.10000000e-01)	0	1.00000099e+00	(7.00000000e-02 5.10000000e-01 5.90000000e-01)	0
0.184531       	p              	-7.66217826e+01	(1.00000000e-02 5.10000000e-01 5.90000000e-01)	0	1.96062240e+03	(2.30000000e-01 0.00000000e+00 6.10000000e-01)	0
0.184531       	p_rgh          	-1.16471068e+00	(2.10000000e-01 5.70000000e-01 4.90000000e-01)	3	6.85924620e+03	(0.00000000e+00 6.90000000e-01 6.70000000e-01)	3
0.184531       	U              	(-3.90517740e-01 -2.49422281e-01 -6.45470901e-01)	(1.50000000e-01 2.50000000e-01 5.10000000e-01)	0	(3.79272251e-02 3.36351582e-01 3.14938673e-01)	(3.00000000e-02 4.50000000e-01 4.90000000e-01)	0
0.184531       	alpha.water    	-1.15927760e-05	(3.00000000e-02 4.50000000e-01 5.10000000e-01)	0	1.00000094e+00	(1.00000000e-02 5.10000000e-01 6.30000000e-01)	0
0.189688       	p              	-7.66169764e+01	(1.00000000e-02 5.10000000e-01 6.10000000e-01)	0	1.96067237e+03	(2.30000000e-01 0.00000000e+00 6.10000000e-01)	0
0.189688       	p_rgh          	-1.25425846e+00	(1.70000000e-01 3.30000000e-01 7.10000000e-01)	0	6.85923513e+03	(0.00000000e+00 6.90000000e-01 6.70000000e-01)	3
0.189688       	U              	(-2.08178976e-01 -9.28956509e-02 -7.90966897e-01)	(1.70000000e-01 2.50000000e-01 4.90000000e-01)	0	(3.28017334e-02 3.41408132e-01 3.12208642e-01)	(3.00000000e-02 4.50000000e-01 4.90000000e-01)	0
0.189688       	alpha.water    	-9.34591599e-06	(3.00000000e-02 4.50000000e-01 5.10000000e-01)	0	1.00000132e+00	(5.00000000e-02 5.10000000e-01 6.10000000e-01)	0
0.194844       	p              	-7.66061372e+01	(1.00000000e-02 5.10000000e-01 6.10000000e-01)	0	1.96082874e+03	(2.30000000e-01 0.00000000e+00 6.10000000e-01)	0
0.194844       	p_rgh          	-1.64402532e+00	(1.70000000e-01 3.30000000e-01 4.90000000e-01)	0	6.85921940e+03	(0.00000000e+00 6.90000000e-01 6.70000000e-01)	3
0.194844       	U              	(-5.53902310e-01 -9.05896288e-02 -7.20995889e-01)	(1.50000000e-01 2.30000000e-01 5.10000000e-01)	0	(2.31342778e-01 3.65325591e-01 3.10600993e-01)	(2.70000000e-01 4.90000000e-01 7.10000000e-01)	0
0.194844       	alpha.water    	-8.49534319e-06	(3.00000000e-02 4.50000000e-01 5.10000000e-01)	0	1.00000195e+00	(5.00000000e-02 5.10000000e-01 6.10000000e-01)	0
0.2            	p              	-7.66279811e+01	(1.00000000e-02 5.10000000e-01 5.90000000e-01)	0	1.96107773e+03	(2.30000000e-01 0.00000000e+00 6.10000000e-01)	0
0.2            	p_rgh          	-1.43327408e+00	(1.70000000e-01 3.10000000e-01 4.90000000e-01)	0	6.85920049e+03	(0.00000000e+00 6.90000000e-01 6.70000000e-01)	3
0.2            	U              	(-6.71020015e-01 -4.70769288e-02 -7.63636541e-01)	(1.50000000e-01 2.30000000e-01 5.10000000e-01)	0	(2.29611308e-02 3.48442939e-01 3.07932912e-01)	(3.00000000e-02 4.50000000e-01 4.90000000e-01)	0
0.2            	alpha.water    	-7.06291232e-06	(3.00000000e-02 4.50000000e-01 5.10000000e-01)	0	1.00000198e+00	(7.00000000e-02 5.10000000e-01 6.10000000e-01)	0
0.205556       	p              	-7.69150500e+01	(1.00000000e-02 5.10000000e-01 6.10000000e-01)	0	1.96187671e+03	(2.10000000e-01 0.00000000e+00 6.10000000e-01)	0
0.205556       	p_rgh          	-1.62975532e+00	(1.50000000e-01 2.90000000e-01 5.50000000e-01)	0	6.85916376e+03	(0.00000000e+00 6.90000000e-01 5.30000000e-01)	3
0.205556       	U              	(-4.07971264e-01 -7.01962394e-01 -6.61521697e-01)	(1.70000000e-01 2.30000000e-01 5.10000000e-01)	0	(3.67546489e-01 3.60902052e-01 3.27138133e-01)	(2.90000000e-01 4.50000000e-01 6.90000000e-01)	0
0.205556       	alpha.water    	-8.87901150e-06	(3.00000000e-02 4.70000000e-01 5.10000000e-01)	0	1.00000172e+00	(5.00000000e-02 5.10000000e-01 6.10000000e-01)	0