/*--------------------------------*- C++ -*----------------------------------*\
  =========                 |
  \\      /  F ield         | OpenFOAM: The Open Source CFD Toolbox
   \\    /   O peration     | Website:  https://openfoam.org
    \\  /    A nd           | Version:  9
     \\/     M anipulation  |
\*---------------------------------------------------------------------------*/
FoamFile
{
    format      ascii;
    class       volScalarField;
    location    "0.1";
    object      alpha.phase1;
}
// * * * * * * * * * * * * * * * * * * * * * * * * * * * * * * * * * * * * * //

dimensions      [0 0 0 0 0 0 0];

internalField   nonuniform List<scalar> 
10000
(
1.8082838e-114
1.9651094e-114
1.3500634e-111
4.5669096e-109
1.1940882e-106
2.5399248e-104
4.5467043e-102
7.0178215e-100
9.511555e-98
1.1481671e-95
1.2485021e-93
1.234384e-91
1.118344e-89
9.3466225e-88
7.247819e-86
5.2417149e-84
3.5519851e-82
2.2649287e-80
1.3644592e-78
7.7954885e-77
4.2393416e-75
2.2023917e-73
1.096988e-71
5.2579163e-70
2.4342619e-68
1.0928682e-66
4.7767844e-65
2.04041e-63
8.564901e-62
3.58333e-60
1.5236372e-58
6.3903536e-57
2.5092857e-55
9.0399022e-54
2.9715241e-52
8.8435001e-51
2.3592003e-49
5.5789535e-48
1.158506e-46
2.0917885e-45
3.2158219e-44
4.1214685e-43
4.4896522e-42
4.3206611e-41
3.5697742e-40
2.4251438e-39
1.2928671e-38
5.0990196e-38
1.4055687e-37
2.9881218e-37
2.9698342e-37
1.3888115e-37
4.9124833e-38
1.1941242e-38
1.9483397e-39
2.1247841e-40
1.4020415e-41
3.1879769e-43
6.5426043e-45
1.6265274e-46
3.2708724e-48
5.8046375e-50
9.6754654e-52
1.5675673e-53
2.5094109e-55
3.9962913e-57
6.3423812e-59
1.0202912e-60
3.3838938e-62
1.7347284e-62
3.3083783e-63
1.4359826e-64
3.3113918e-66
7.9178135e-68
1.9436653e-69
4.6205614e-71
1.0524431e-72
2.2942173e-74
4.7781284e-76
9.4852961e-78
1.7901608e-79
3.2031728e-81
5.4178155e-83
8.6341092e-85
1.2918992e-86
1.8078945e-88
2.3559849e-90
2.8451591e-92
3.1663572e-94
3.2264761e-96
2.9874234e-98
2.4904861e-100
1.8485068e-102
1.2044819e-104
6.7664859e-107
3.1990671e-109
1.2305954e-111
3.6598718e-114
5.5100477e-117
4.9414432e-117
1.8082838e-114
1.831168e-112
1.2123646e-109
5.5056613e-107
1.6930806e-104
4.0009087e-102
7.7196767e-100
1.2615153e-97
1.789703e-95
2.2441234e-93
2.5215483e-91
2.5663381e-89
2.3871213e-87
2.0443519e-85
1.6222948e-83
1.1995423e-81
8.3055939e-80
5.4091355e-78
3.3273224e-76
1.9406769e-74
1.0772482e-72
5.7111619e-71
2.9022017e-69
1.4185641e-67
6.6933649e-66
3.0599786e-64
1.3604077e-62
5.9024979e-61
2.5119792e-59
1.0608169e-57
4.5186953e-56
1.911072e-54
7.5849651e-53
2.7583417e-51
9.1328285e-50
2.73153e-48
7.3122973e-47
1.7333736e-45
3.5932604e-44
6.4205651e-43
9.7263676e-42
1.2271236e-40
1.2671384e-39
1.0525093e-38
6.7975297e-38
3.1110786e-37
8.8317564e-37
1.6285861e-36
3.0241964e-36
4.8164745e-36
4.8147606e-36
3.0218144e-36
1.630051e-36
8.5278752e-37
2.882263e-37
4.9030331e-38
3.4497154e-39
8.8368046e-41
4.2026752e-43
6.5401162e-45
1.6259053e-46
3.2696476e-48
5.8025558e-50
9.6722993e-52
1.5671453e-53
2.5089778e-55
3.9963831e-57
6.3423812e-59
1.0202912e-60
1.1913229e-60
7.7958092e-61
7.7310854e-62
1.8149359e-63
2.8775759e-65
6.2486864e-67
1.4520476e-68
3.2258216e-70
6.8389113e-72
1.3875514e-73
2.6877237e-75
4.9548866e-77
8.6671019e-79
1.433819e-80
2.2355384e-82
3.2724801e-84
4.4789607e-86
5.7046335e-88
6.7252749e-90
7.2935407e-92
7.2240112e-94
6.4773559e-96
5.2022182e-98
3.6915921e-100
2.273689e-102
1.1859627e-104
5.050976e-107
1.6531701e-109
3.7014369e-112
6.0979548e-115
4.9414432e-117
1.121784e-112
2.9966145e-110
1.9388781e-107
7.8343952e-105
2.5103046e-102
6.4807157e-100
1.320475e-97
2.240994e-95
3.2703704e-93
4.1934614e-91
4.799467e-89
4.961834e-87
4.6788773e-85
4.0561143e-83
3.2541399e-81
2.4302838e-79
1.6982297e-77
1.1153798e-75
6.9144381e-74
4.061768e-72
2.2693572e-70
1.2101688e-68
6.181149e-67
3.0344525e-65
1.4368075e-63
6.585218e-62
2.9318622e-60
1.2724808e-58
5.4090369e-57
2.2730647e-55
9.5895893e-54
4.0623209e-52
1.6194985e-50
5.9008396e-49
1.9532676e-47
5.8268735e-46
1.5521543e-44
3.6528877e-43
7.5020341e-42
1.3255048e-40
1.9825803e-39
2.4674249e-38
2.5136199e-37
2.0634409e-36
1.3237316e-35
6.0945516e-35
1.7817561e-34
3.4295307e-34
6.3598537e-34
1.0727659e-33
1.0719825e-33
6.3514597e-34
3.4271476e-34
1.7234203e-34
5.6710544e-35
9.7880684e-36
7.4764546e-37
2.2989496e-38
1.8293236e-40
1.7766135e-42
4.6240117e-44
9.7121135e-46
1.7883936e-47
3.0706869e-49
5.0925371e-51
8.3033397e-53
1.3419709e-54
2.1555869e-56
3.4437671e-58
1.5296765e-57
2.9130158e-58
1.3652722e-59
3.1563212e-61
6.2648325e-63
1.4304574e-64
3.3281915e-66
7.4004205e-68
1.5700585e-69
3.1826858e-71
6.1504516e-73
1.1298091e-74
1.9671352e-76
3.2361522e-78
5.0126717e-80
7.2827759e-82
9.8831167e-84
1.2466704e-85
1.4535854e-87
1.5565563e-89
1.5190984e-91
1.3382908e-93
1.0517892e-95
7.2599908e-98
4.3075686e-100
2.1284771e-102
8.2968727e-105
2.8349733e-107
7.2569322e-110
1.1623023e-112
3.8945363e-115
2.3794898e-110
3.9249359e-108
2.7624498e-105
1.1393688e-102
3.3831191e-100
7.9930731e-98
1.7091091e-95
3.070178e-93
4.6612103e-91
6.1579719e-89
7.2169349e-87
7.6091352e-85
7.2960338e-83
6.4175594e-81
5.2156213e-79
3.9404864e-77
2.7823402e-75
1.8447033e-73
1.1533458e-71
6.8270082e-70
3.8401276e-68
2.0598819e-66
1.057329e-64
5.2110071e-63
2.4743252e-61
1.1358452e-59
5.0584433e-58
2.1929576e-56
9.2937096e-55
3.8801073e-53
1.619392e-51
6.8210791e-50
2.7186561e-48
9.8982038e-47
3.265834e-45
9.6881707e-44
2.5605161e-42
5.9656583e-41
1.2103733e-39
2.1086472e-38
3.1047826e-37
3.799141e-36
3.8034681e-35
3.0716521e-34
1.9464723e-33
8.9337293e-33
2.6380684e-32
5.1349503e-32
9.3463268e-32
1.6160873e-31
1.6148903e-31
9.3340569e-32
5.1300499e-32
2.5565133e-32
8.349632e-33
1.4692963e-33
1.2066836e-34
4.284466e-36
4.4445334e-38
3.6114077e-40
9.8149606e-42
2.1579601e-43
4.1460444e-45
7.3870232e-47
1.2642709e-48
2.1170388e-50
3.4997051e-52
5.7316906e-54
9.2954456e-56
5.1412319e-55
7.9154894e-56
2.5538628e-57
5.4614853e-59
1.1739346e-60
2.7356617e-62
6.3492586e-64
1.4078958e-65
2.978539e-67
6.0150698e-69
1.1568955e-70
2.1132591e-72
3.6554852e-74
5.9689097e-76
9.1680381e-78
1.3194483e-79
1.7715033e-81
2.2076865e-83
2.5388003e-85
2.6754172e-87
2.5617742e-89
2.2051691e-91
1.6828988e-93
1.117011e-95
6.2627396e-98
2.9353637e-100
1.3802394e-102
4.8179557e-105
1.1971419e-107
1.8017832e-110
9.1529059e-113
4.066163e-108
4.2677754e-106
3.3261763e-103
1.4184416e-100
4.3019103e-98
1.0219485e-95
1.9865143e-93
3.3376821e-91
5.3834448e-89
7.4147535e-87
8.9673868e-85
9.6950497e-83
9.4913421e-81
8.4974501e-79
7.0125445e-77
5.369752e-75
3.836851e-73
2.5707694e-71
1.6223074e-69
9.681304e-68
5.4835583e-66
2.9584397e-64
1.5254613e-62
7.542548e-61
3.5879683e-59
1.6475743e-57
7.3276727e-56
3.1669274e-54
1.3351117e-52
5.5266638e-51
2.2777196e-49
9.4777668e-48
3.7599552e-46
1.3641734e-44
4.4748002e-43
1.3167427e-41
3.4442015e-40
7.9245177e-39
1.5844629e-37
2.7149666e-36
3.9248543e-35
4.7087228e-34
4.6182608e-33
3.6564036e-32
2.2802969e-31
1.0385193e-30
3.074474e-30
5.9977508e-30
1.0703052e-29
1.8786265e-29
1.8772197e-29
1.0689089e-29
5.9908565e-30
2.9840278e-30
9.741842e-31
1.7504296e-31
1.5289253e-32
6.2682368e-34
7.5587992e-36
5.7089566e-38
1.6238807e-39
3.749693e-41
7.5501708e-43
1.4032824e-44
2.4927165e-46
4.3117321e-48
7.3306729e-50
1.2300215e-51
2.0386981e-53
1.2238459e-52
1.8102509e-53
4.3858061e-55
8.1297857e-57
1.8753969e-58
4.4814927e-60
1.036843e-61
2.2913694e-63
4.8343675e-65
9.7267708e-67
1.8617549e-68
3.3806924e-70
5.8065936e-72
9.4034211e-74
1.4306517e-75
2.0366132e-77
2.7003187e-79
3.3168703e-81
3.7504681e-83
3.873721e-85
3.6194082e-87
3.0205899e-89
2.2119867e-91
1.3821762e-93
8.257507e-96
4.7578363e-98
2.0826642e-100
6.9999183e-103
1.6983645e-105
2.379039e-108
1.7521937e-110
5.8364203e-106
3.8814812e-104
3.460185e-101
1.5356035e-98
4.7477619e-96
1.1428042e-93
2.2672518e-91
3.7486001e-89
5.2238458e-87
7.4210375e-85
9.3846479e-83
1.0491575e-80
1.0548919e-78
9.6548538e-77
8.1180008e-75
6.3170715e-73
4.577161e-71
3.1042545e-69
1.9796748e-67
1.1920315e-65
6.8024116e-64
3.6918436e-62
1.9119734e-60
9.4795282e-59
4.5138615e-57
2.0709265e-55
9.1841841e-54
3.9494728e-52
1.6525111e-50
6.7667807e-49
2.7468979e-47
1.1215154e-45
4.4119499e-44
1.5917213e-42
5.1788548e-41
1.5081463e-39
3.895361e-38
8.8310368e-37
1.736163e-35
2.9192743e-34
4.1336986e-33
4.8497861e-32
4.6463649e-31
3.5948206e-30
2.1992005e-29
9.903125e-29
2.924026e-28
5.6819989e-28
9.9296583e-28
1.758366e-27
1.7570377e-27
9.9168204e-28
5.6746079e-28
2.8417204e-28
9.318676e-29
1.7116866e-29
1.5793792e-30
7.4561145e-32
1.0533544e-33
7.3269169e-36
2.1850247e-37
5.311115e-39
1.1244706e-40
2.1889945e-42
4.0539817e-44
7.2773462e-46
1.2785128e-47
2.2080358e-49
3.7536146e-51
2.2322081e-50
3.0746648e-51
6.6111096e-53
1.1539813e-54
2.7243267e-56
6.5687159e-58
1.5144672e-59
3.3328577e-61
7.0010294e-63
1.4010261e-64
2.6640868e-66
4.8001142e-68
8.1704076e-70
1.3094353e-71
1.9685709e-73
2.7643411e-75
3.6079298e-77
4.3511409e-79
4.8141629e-81
4.8427759e-83
4.3767482e-85
3.4940189e-87
2.4480513e-89
1.7811307e-91
1.2185424e-93
6.4276279e-96
2.7149552e-98
9.001467e-101
2.1182914e-103
2.7133866e-106
2.8504424e-108
7.211224e-104
2.9092206e-102
3.1299966e-99
1.4579399e-96
4.6178475e-94
1.1274301e-91
2.2570085e-89
3.848245e-87
5.5907298e-85
6.8430759e-83
8.2745151e-81
9.7111938e-79
1.0120939e-76
9.5306203e-75
8.203534e-73
6.5105557e-71
4.7970528e-69
3.3002929e-67
2.1303688e-65
1.2957958e-63
7.4554929e-62
4.0719231e-60
2.1180738e-58
1.0526312e-56
5.0135845e-55
2.2956255e-53
1.0136405e-51
4.3291102e-50
1.7937812e-48
7.2485586e-47
2.8889276e-45
1.1517336e-43
4.4797717e-42
1.6038496e-40
5.1650842e-39
1.4854847e-37
3.781056e-36
8.4289302e-35
1.6260435e-33
2.6774429e-32
3.7055111e-31
4.2413454e-30
3.9583214e-29
2.9834495e-28
1.7850675e-27
7.9250453e-27
2.3252332e-26
4.4804154e-26
7.6585986e-26
1.3624301e-25
1.3614003e-25
7.6487861e-26
4.4741053e-26
2.2623863e-26
7.4776602e-27
1.4054588e-27
1.3635893e-28
7.4740637e-30
1.3654163e-31
7.8538164e-34
2.4587639e-35
6.3017901e-37
1.4063521e-38
2.8766422e-40
5.5747722e-42
1.0426831e-43
1.9002879e-45
3.3906933e-47
4.7465696e-48
3.7572221e-48
2.9336648e-49
7.0228575e-51
1.4542528e-52
3.5163501e-54
8.5216679e-56
1.9679115e-57
4.3286005e-59
9.0712765e-61
1.8075542e-62
3.4159886e-64
6.1059189e-66
1.0291511e-67
1.6300353e-69
2.4165748e-71
3.3382093e-73
4.2733769e-75
5.0357419e-77
5.4163038e-79
5.2571009e-81
4.5256934e-83
3.7380975e-85
3.0960698e-87
2.3873617e-89
1.4918804e-91
7.5986172e-94
3.173133e-96
1.03113e-98
2.3361676e-101
2.6673812e-104
4.0695151e-106
7.7799764e-102
1.7228587e-100
2.4752642e-97
1.2210159e-94
3.9791075e-92
9.8985617e-90
2.0067331e-87
3.4494498e-85
5.1687592e-83
6.720655e-81
7.3912518e-79
7.7929176e-77
8.3799374e-75
8.2055514e-73
7.2819702e-71
5.9248973e-69
4.4567603e-67
3.1196613e-65
2.043044e-63
1.257489e-61
7.3035167e-60
4.0171394e-58
2.0993498e-56
1.0456678e-54
4.979016e-53
2.2731313e-51
9.9799699e-50
4.2256234e-48
1.7303028e-46
6.8834213e-45
2.684936e-43
1.0406434e-41
3.9902424e-40
1.4146831e-38
4.5009355e-37
1.2760592e-35
3.1948192e-34
6.9906165e-33
1.3208965e-31
2.1259249e-30
2.8699991e-29
3.1977425e-28
2.8993207e-27
2.1222297e-26
1.2382555e-25
5.4071375e-25
1.5723889e-24
2.9934186e-24
4.9987739e-24
8.9045585e-24
8.8978773e-24
4.9924579e-24
2.9889522e-24
1.5314888e-24
5.1142922e-25
9.8438473e-26
1.002271e-26
6.2344212e-28
1.3641101e-29
1.1659178e-31
2.3583526e-33
6.3810801e-35
1.5039069e-36
3.2404293e-38
6.5909149e-40
1.2885471e-41
2.4445669e-43
4.5213157e-45
5.5845328e-45
7.7780264e-46
2.8417037e-47
7.1234804e-49
1.678404e-50
4.1489824e-52
1.0078334e-53
2.3297937e-55
5.1199506e-57
1.0697091e-58
2.1204963e-60
3.9779964e-62
7.0428215e-64
1.173058e-65
1.831455e-67
2.6689443e-69
3.6118326e-71
4.5103978e-73
5.1554014e-75
5.3333476e-77
4.9210344e-79
4.7152291e-81
4.3942147e-83
3.7635448e-85
2.7174294e-87
1.6176153e-89
8.1070341e-92
3.3311963e-94
1.0558686e-96
2.2887591e-99
2.2402564e-102
5.1509056e-104
7.3866717e-100
7.124454e-99
1.728161e-95
9.1314573e-93
3.0748852e-90
7.8195485e-88
1.6119455e-85
2.8052768e-83
4.2380825e-81
5.6761579e-79
6.6754232e-77
6.7005798e-75
6.3991907e-73
6.1702488e-71
5.7166277e-69
4.8060568e-67
3.7115953e-65
2.6544836e-63
1.7691819e-61
1.1044699e-59
6.4861403e-58
3.5966874e-56
1.8895259e-54
9.4336817e-53
4.4891785e-51
2.042013e-49
8.9041895e-48
3.7321952e-46
1.5077822e-44
5.893938e-43
2.2448208e-41
8.4344517e-40
3.155325e-38
1.1024627e-36
3.4602036e-35
9.6547895e-34
2.3738429e-32
5.0901035e-31
9.4050281e-30
1.4770459e-28
1.9415475e-27
2.1013744e-26
1.8459576e-25
1.3079047e-24
7.4194754e-24
3.1802693e-23
9.1505918e-23
1.7158385e-22
2.795082e-22
4.9724667e-22
4.9687771e-22
2.7916138e-22
1.7131601e-22
8.9212335e-23
3.0146663e-23
5.946354e-24
6.3490426e-25
4.4213638e-26
1.1163475e-27
1.3070137e-29
1.9540857e-31
5.5865044e-33
1.3925597e-34
3.1672997e-36
6.7775569e-38
1.388645e-39
2.7500063e-41
5.2864038e-43
1.0310012e-42
1.2256314e-43
3.0072283e-45
7.168409e-47
1.7870508e-48
4.4770489e-50
1.0888355e-51
2.5179231e-53
5.5249794e-55
1.1498722e-56
2.265091e-58
4.2120567e-60
7.372432e-62
1.2104753e-63
1.8569471e-65
2.6486747e-67
3.4914381e-69
4.2195178e-71
4.6192517e-73
4.8076708e-75
5.0860618e-77
5.176034e-79
4.8753855e-81
3.9926999e-83
2.7146493e-85
1.5808201e-87
7.8058165e-90
3.141402e-92
9.6717729e-95
1.9898255e-97
1.551152e-100
5.8265249e-102
6.27468e-98
1.805217e-97
1.0443392e-93
5.9986366e-91
2.0978923e-88
5.470359e-86
1.1502166e-83
2.0348326e-81
3.1132121e-79
4.2062073e-77
5.1020786e-75
5.5073145e-73
5.1509473e-71
4.4929909e-69
3.8889513e-67
3.4181903e-65
2.7355726e-63
2.0122482e-61
1.3717111e-59
8.7188474e-58
5.1922173e-56
2.9090175e-54
1.5387412e-52
7.7086953e-51
3.6683088e-49
1.662804e-47
7.199494e-46
2.9854018e-44
1.1886915e-42
4.5596457e-41
1.6945225e-39
6.1711899e-38
2.22964e-36
7.641198e-35
2.3628779e-33
6.4793137e-32
1.5622772e-30
3.2781019e-29
5.9142944e-28
9.0495316e-27
1.1563261e-25
1.2132829e-24
1.02973e-23
7.0365047e-23
3.8682184e-22
1.6246455e-21
4.6214579e-21
8.5085028e-21
1.3493548e-20
2.3917847e-20
2.3900312e-20
1.3477159e-20
8.4947468e-21
4.5097926e-21
1.5431822e-21
3.1213073e-22
3.4970954e-23
2.7163179e-24
7.8680498e-26
1.1118874e-27
1.4120127e-29
4.26857e-31
1.1269379e-32
2.7105082e-34
6.1143629e-36
1.3155854e-37
2.7249623e-39
5.4582234e-41
1.2312002e-40
1.1635649e-41
2.7520955e-43
6.8253421e-45
1.7415946e-46
4.4069311e-48
1.0754061e-49
2.4888966e-51
5.4509585e-53
1.1289866e-54
2.2065366e-56
4.0582532e-58
7.0015685e-60
1.1287537e-61
1.6926612e-63
2.3469785e-65
2.9848314e-67
3.4358487e-69
4.0080831e-71
4.6658108e-73
5.1445198e-75
5.2807847e-77
4.8016607e-79
3.6586564e-81
2.4198683e-83
1.3887744e-85
6.7251494e-88
2.6413626e-90
7.8657573e-93
1.5217839e-95
8.2303289e-99
5.9083221e-100
4.6856587e-96
8.7592899e-96
5.3903429e-92
3.4290193e-89
1.2523079e-86
3.3614754e-84
7.2313902e-82
1.3043403e-79
2.029708e-77
2.7800416e-75
3.4062981e-73
3.7846948e-71
3.787997e-69
3.337012e-67
2.7187136e-65
2.1747562e-63
1.7597442e-61
1.3467082e-59
9.4615459e-58
6.1578929e-56
3.7350529e-54
2.1213282e-52
1.132578e-50
5.7034157e-49
2.7171736e-47
1.2281046e-45
5.2803782e-44
2.1654127e-42
8.4909305e-41
3.1926518e-39
1.1567461e-37
4.0737945e-36
1.4114682e-34
4.7311339e-33
1.4399432e-31
3.8758527e-30
9.1536219e-29
1.8771962e-27
3.3027309e-26
4.9168065e-25
6.0979387e-24
6.1911233e-23
5.0614035e-22
3.3216621e-21
1.7626243e-20
7.2401124e-20
2.0360747e-19
3.6665505e-19
5.6407965e-19
9.9676314e-19
9.9604193e-19
5.6340843e-19
3.6604583e-19
1.9886798e-19
6.8901793e-20
1.4301931e-20
1.6872658e-21
1.4532838e-22
4.7284452e-24
7.6004224e-26
8.9619753e-28
2.8666717e-29
8.025893e-31
2.0448776e-32
4.8720381e-34
1.1029216e-35
2.3936016e-37
1.1382374e-37
1.5711054e-38
7.2035544e-40
2.1532851e-41
5.7714207e-43
1.5334734e-44
3.9528545e-46
9.6854518e-48
2.2428385e-49
4.9019344e-51
1.009505e-52
1.9541314e-54
3.5449323e-56
6.0047223e-58
9.4546643e-60
1.3756577e-61
1.8333901e-63
2.2812685e-65
2.9012859e-67
3.6434446e-69
4.3260958e-71
4.8086546e-73
4.7884155e-75
4.0303988e-77
2.9754498e-79
1.9380699e-81
1.0906584e-83
5.1594598e-86
1.9708457e-88
5.6523186e-91
1.0185045e-93
2.7317422e-97
5.3277875e-98
3.04858e-94
4.889659e-94
2.3642267e-90
1.6981542e-87
6.5050145e-85
1.8030127e-82
3.9791703e-80
7.3367206e-78
1.1640794e-75
1.6224174e-73
2.0169898e-71
2.2659772e-69
2.3273081e-67
2.1806215e-65
1.8263859e-63
1.3988734e-61
1.0419225e-59
7.8145334e-58
5.7365809e-56
3.8556023e-54
2.3967854e-52
1.3864299e-50
7.4981747e-49
3.8058283e-47
1.8188587e-45
8.2088024e-44
3.5082106e-42
1.4234891e-40
5.496984e-39
2.0255225e-37
7.1515043e-36
2.4354809e-34
8.0878579e-33
2.6316267e-31
7.8552548e-30
2.0736088e-28
4.7918432e-27
9.5940949e-26
1.644167e-24
2.3784584e-23
2.8592825e-22
2.8040068e-21
2.2007495e-20
1.3798184e-19
7.0314317e-19
2.8209246e-18
7.8693435e-18
1.3886436e-17
2.0712984e-17
3.6729987e-17
3.6703622e-17
2.0688695e-17
1.386244e-17
7.6931583e-18
2.6894297e-18
5.729659e-19
7.1569622e-20
6.8143839e-21
2.4466011e-22
4.3133522e-24
5.0247152e-26
1.7013603e-27
5.0564648e-29
1.3668382e-30
3.4454072e-32
8.2202643e-34
1.8718464e-35
2.0824577e-35
2.1782187e-36
6.030664e-38
1.7007979e-39
4.751621e-41
1.285179e-42
3.3334603e-44
8.1730718e-46
1.8867935e-47
4.0965928e-49
8.3475172e-51
1.591698e-52
2.8300397e-54
4.6704528e-56
7.111285e-58
9.8893411e-60
1.3334791e-61
1.823658e-63
2.4396166e-65
3.0987549e-67
3.7078115e-69
4.0002085e-71
3.6759729e-73
2.9879346e-75
2.1696671e-77
1.3844771e-79
7.6076611e-82
3.5046115e-84
1.2972891e-86
3.5660721e-89
5.9090542e-92
9.655046e-96
4.2439211e-96
1.7060571e-92
2.4749817e-92
9.0374184e-89
7.3996428e-86
2.9782896e-83
8.5430453e-81
1.9390788e-78
3.6639793e-76
5.9412277e-74
8.4430217e-72
1.0681903e-69
1.2181002e-67
1.266014e-65
1.2117057e-63
1.0661687e-61
8.4527966e-60
6.133689e-58
4.3144598e-56
3.0442609e-54
2.1408537e-52
1.3769651e-50
8.1668508e-49
4.495755e-47
2.3080781e-45
1.1093522e-43
5.0081467e-42
2.1298438e-40
8.5557033e-39
3.2545782e-37
1.1753157e-35
4.0433893e-34
1.332445e-32
4.2458049e-31
1.3205345e-29
3.8414638e-28
9.9439292e-27
2.2464839e-25
4.3871578e-24
7.3154785e-23
1.0271174e-21
1.1954576e-20
1.1305059e-19
8.4844844e-19
5.0517936e-18
2.4653207e-17
9.7308805e-17
2.7522104e-16
4.8800063e-16
7.3054211e-16
1.246212e-15
1.245372e-15
7.2972949e-16
4.8712376e-16
2.6942502e-16
9.2954867e-17
2.0157896e-17
2.6736875e-18
2.8257621e-19
1.1050815e-20
2.2410421e-22
2.5028329e-24
8.965083e-26
2.8282624e-27
8.1179613e-29
2.167773e-30
5.4586499e-32
6.0016341e-33
2.0887458e-33
1.3154939e-34
4.3706395e-36
1.2895906e-37
3.6424252e-39
9.9540003e-41
2.5962719e-42
6.3684492e-44
1.4638233e-45
3.1494418e-47
6.3264702e-49
1.1822191e-50
2.0455408e-52
3.2561422e-54
4.7131599e-56
6.7947593e-58
9.9116579e-60
1.4048506e-61
1.8989285e-63
2.4338652e-65
2.8360093e-67
2.8241362e-69
2.5001652e-71
1.9964546e-73
1.4188457e-75
8.83212e-78
4.7240184e-80
2.1123819e-82
7.5530175e-85
1.9834904e-87
2.9993818e-90
5.0817809e-94
2.963033e-94
8.273422e-91
1.1054709e-90
2.9674558e-87
2.7768458e-84
1.1756916e-81
3.4982349e-79
8.1893636e-77
1.5900905e-74
2.6424589e-72
3.8385843e-70
4.9535563e-68
5.7502686e-66
6.0689332e-64
5.8790743e-62
5.2806748e-60
4.41134e-58
3.3556014e-56
2.3172994e-54
1.556821e-52
1.0446156e-50
6.9588074e-49
4.2786892e-47
2.4152199e-45
1.2608244e-43
6.1177688e-42
2.7701032e-40
1.1744397e-38
4.6760636e-37
1.753056e-35
6.2041309e-34
2.0790988e-32
6.627863e-31
2.0226913e-29
5.9668333e-28
1.6876406e-26
4.2796687e-25
9.4446825e-24
1.7975579e-22
2.9135632e-21
3.9655212e-20
4.4633544e-19
4.0651012e-18
2.9102331e-17
1.6489782e-16
7.8094619e-16
3.0411575e-15
8.6764624e-15
1.5273019e-14
2.3419994e-14
3.3053111e-14
3.3036731e-14
2.3397806e-14
1.5250582e-14
8.5153786e-15
2.9142105e-15
6.4572249e-16
8.9731605e-17
1.0513515e-17
4.4607214e-19
9.716401e-21
1.1148967e-22
4.2147439e-24
1.4083045e-25
4.2868399e-27
1.2124584e-28
3.2227236e-30
2.1211904e-30
2.0543461e-31
7.7117652e-33
2.6694113e-34
8.444512e-36
2.4679317e-37
6.8508774e-39
1.7987952e-40
4.4190304e-42
1.0119516e-43
2.1556946e-45
4.2571838e-47
7.7558353e-49
1.2942117e-50
1.9655591e-52
3.0084516e-54
4.6566496e-56
6.98563e-58
1.0033927e-59
1.3746378e-61
1.7116185e-63
1.8312545e-65
1.7516128e-67
1.5224085e-69
1.1885313e-71
8.2292384e-74
4.980512e-76
2.584945e-78
1.1183951e-80
3.8523939e-83
9.6506896e-86
1.334402e-88
2.7251317e-92
1.8081594e-92
3.3874967e-89
4.2284538e-89
8.490828e-86
8.8538257e-83
3.9274818e-80
1.2142744e-77
2.9395504e-75
5.8834641e-73
1.0052031e-70
1.4965862e-68
1.9737894e-66
2.3359778e-64
2.5084957e-62
2.4678877e-60
2.2441546e-58
1.9053162e-56
1.5185642e-54
1.1159211e-52
7.4618792e-51
4.8081731e-49
3.0794245e-47
1.9482826e-45
1.1424699e-43
6.1172595e-42
3.0157805e-40
1.3763642e-38
5.8398438e-37
2.3116243e-35
8.5625647e-34
2.9759801e-32
9.733175e-31
3.0076013e-29
8.8248161e-28
2.4785779e-26
6.6980076e-25
1.6520951e-23
3.5628515e-22
6.6037931e-21
1.0392915e-19
1.3689082e-18
1.4889228e-17
1.3114257e-16
9.020053e-16
4.8886148e-15
2.1956598e-14
7.3101606e-14
1.5661708e-13
2.1184067e-13
2.7362493e-13
3.7444876e-13
3.7431296e-13
2.7337706e-13
2.1165643e-13
1.5349892e-13
7.0281572e-14
1.8713742e-14
2.8115756e-15
3.6140511e-16
1.6524937e-17
3.8455274e-19
4.4801001e-21
1.7819323e-22
6.277753e-24
2.0178207e-25
6.0247075e-27
4.8671748e-28
1.8656279e-28
1.251949e-29
4.7532242e-31
1.6422235e-32
5.2769797e-34
1.580038e-35
4.4485616e-37
1.1713265e-38
2.865934e-40
6.4958121e-42
1.3592014e-43
2.6118318e-45
4.5715787e-47
7.3105373e-49
1.1710424e-50
1.8953769e-52
2.9889365e-54
4.5433179e-56
6.6306869e-58
8.8408739e-60
1.0125843e-61
1.0385358e-63
9.7360286e-66
8.2598718e-68
6.2708263e-70
4.212907e-72
2.4683469e-74
1.23767e-76
5.1601787e-79
1.7057829e-81
4.0719896e-84
5.1149364e-87
1.2997601e-90
9.4598736e-91
1.1355758e-87
1.3455749e-87
2.2163427e-84
2.4037325e-81
1.1099419e-78
3.5641057e-76
8.9541372e-74
1.8546415e-71
3.267815e-69
5.0037516e-67
6.7609272e-65
8.1692239e-63
8.9276685e-61
8.9168755e-59
8.2232675e-57
7.0667011e-55
5.7147993e-53
4.3697625e-51
3.1100448e-49
2.0283665e-47
1.2625498e-45
7.7790886e-44
4.6933301e-42
2.6139524e-40
1.3210745e-38
6.1159544e-37
2.609181e-35
1.0304501e-33
3.7812846e-32
1.2931771e-30
4.1338155e-29
1.2398203e-27
3.504836e-26
9.3902033e-25
2.3973043e-23
5.7288956e-22
1.2059109e-20
2.1748548e-19
3.3186002e-18
4.226515e-17
4.4683985e-16
3.8652959e-15
2.4770912e-14
1.0795632e-13
3.6281008e-13
8.9432218e-13
1.1529454e-12
9.9006876e-13
9.1305169e-13
1.6466825e-12
1.6459943e-12
9.1199008e-13
9.8897838e-13
1.1211279e-12
8.56511e-13
2.9552543e-13
6.2387958e-14
1.1245164e-14
5.9056012e-16
1.4645446e-17
1.7270777e-19
6.8757182e-21
2.5432227e-22
8.5834019e-24
2.6888449e-25
1.2739231e-25
1.4282746e-26
7.2055579e-28
2.8569865e-29
9.9570996e-31
3.1964257e-32
9.6502146e-34
2.7361559e-35
7.1949678e-37
1.7435357e-38
3.8809558e-40
7.8924495e-42
1.4527568e-43
2.4256058e-45
4.0199454e-47
6.740263e-49
1.1084744e-50
1.7721077e-52
2.7438586e-54
3.9589997e-56
4.8591675e-58
5.3071021e-60
5.3260455e-62
4.8670979e-64
4.0034205e-66
2.9368801e-68
1.9012923e-70
1.0713808e-72
5.1518397e-75
2.0535628e-77
6.4737122e-80
1.4619599e-82
1.7144537e-85
5.3875436e-89
4.1995822e-89
3.0724569e-86
3.504049e-86
5.3740661e-83
5.5747306e-80
2.6500185e-77
8.8451381e-75
2.3125287e-72
4.9806596e-70
9.1008761e-68
1.4393725e-65
2.0002653e-63
2.4723384e-61
2.7495977e-59
2.7829132e-57
2.593421e-55
2.2516136e-53
1.8412397e-51
1.432631e-49
1.0629076e-47
7.3667758e-46
4.685297e-44
2.8399685e-42
1.6950809e-40
9.7683673e-39
5.1366125e-37
2.4345214e-35
1.0510344e-33
4.1604619e-32
1.5174713e-30
5.1192654e-29
1.602691e-27
4.6733768e-26
1.274337e-24
3.2622087e-23
7.8770322e-22
1.7924872e-20
3.6553717e-19
6.4107383e-18
9.4923533e-17
1.1793243e-15
1.2178034e-14
9.6621475e-14
4.7822941e-13
1.2488339e-12
2.5437841e-12
6.8109672e-12
1.6483249e-11
1.9081241e-11
1.6168728e-11
3.0270058e-11
3.0258347e-11
1.6153235e-11
1.9052874e-11
1.6114827e-11
6.4098384e-12
1.6642525e-12
6.0798841e-13
2.3446828e-13
1.913081e-14
5.5469307e-16
7.6978457e-18
2.4609687e-19
9.5713923e-21
3.3891155e-22
3.4755101e-23
1.0296577e-23
7.4736593e-25
3.4559482e-26
1.4252327e-27
5.2815041e-29
1.7468896e-30
5.3385549e-32
1.5205393e-33
3.9856171e-35
9.5356304e-37
2.0706683e-38
4.0405242e-40
7.0575902e-42
1.2090432e-43
2.0975634e-45
3.5910018e-47
6.0289653e-49
9.8951843e-51
1.5522172e-52
2.0351653e-54
2.3480104e-56
2.5020414e-58
2.4418476e-60
2.1570267e-62
1.7129616e-64
1.2119998e-66
7.5502402e-69
4.082873e-71
1.880735e-73
7.1781475e-76
2.1675341e-78
4.7121152e-81
5.4021221e-84
1.9132875e-87
1.5704086e-87
6.6257372e-85
7.3021204e-85
1.134311e-81
1.0576049e-78
5.1331412e-76
1.7842342e-73
4.8822238e-71
1.1010175e-68
2.1013393e-66
3.4564767e-64
4.9656732e-62
6.2989534e-60
7.1333549e-58
7.2891737e-56
6.813213e-54
5.918061e-52
4.8567973e-50
3.8202621e-48
2.905322e-46
2.1295556e-44
1.4654594e-42
9.2306741e-41
5.4647962e-39
3.1479592e-37
1.7208426e-35
8.4844122e-34
3.7443043e-32
1.4963854e-30
5.4544462e-29
1.822892e-27
5.6078969e-26
1.5941661e-24
4.2042877e-23
1.0323462e-21
2.3658911e-20
5.0560615e-19
9.9239586e-18
1.6909153e-16
2.4549314e-15
2.9711416e-14
2.6532907e-13
1.5178159e-12
6.0250816e-12
1.6608234e-11
3.1582839e-11
1.3726406e-10
3.5391157e-10
4.0435914e-10
3.3686836e-10
5.8824899e-10
5.8805911e-10
3.3658998e-10
4.0379704e-10
3.4731773e-10
1.2952469e-10
2.021286e-11
8.9008492e-12
3.0526725e-12
3.4146821e-13
1.8066908e-14
3.1805832e-16
8.2321663e-18
3.3841004e-19
1.9424928e-20
7.4114537e-21
7.1511005e-22
4.2174099e-23
1.9186466e-24
7.637806e-26
2.8147175e-27
9.4686694e-29
2.9227477e-30
8.2751692e-32
2.1306676e-33
4.9478641e-35
1.0247377e-36
1.8696277e-38
3.2742236e-40
5.7754056e-42
1.0115554e-43
1.7559668e-45
3.0233462e-47
5.1190992e-49
7.1883585e-51
8.8113396e-53
9.9906312e-55
1.041186e-56
9.8524372e-59
8.3986948e-61
6.4039087e-63
4.3282988e-65
2.5665134e-67
1.3177176e-69
5.7525e-72
2.080019e-74
5.9596954e-77
1.2385507e-79
1.4155313e-82
5.6235802e-86
4.840701e-86
1.0799884e-83
1.160756e-83
1.9162767e-80
1.5998813e-77
7.9147038e-75
2.8808847e-72
8.3252412e-70
1.9858833e-67
4.0034943e-65
6.923862e-63
1.0388384e-60
1.3634284e-58
1.5775114e-56
1.6238032e-54
1.5051627e-52
1.2806237e-50
1.0271277e-48
8.0020745e-47
6.1869457e-45
4.7548166e-43
3.5484648e-41
2.451353e-39
1.5288952e-37
8.9107676e-36
4.9654253e-34
2.5678083e-32
1.1782493e-30
4.8054878e-29
1.7640972e-27
5.8742207e-26
1.7837469e-24
4.9618686e-23
1.2700863e-21
3.0026433e-20
6.5632666e-19
1.3215572e-17
2.4383296e-16
4.0339546e-15
5.6205851e-14
5.5890636e-13
3.5524304e-12
2.2182466e-11
1.3238852e-10
3.707864e-10
5.4993064e-10
2.6128563e-09
6.7412924e-09
7.6260109e-09
6.2422547e-09
1.0098769e-08
1.0095942e-08
6.2379994e-09
7.616837e-09
6.6393115e-09
2.4930791e-09
4.1391065e-10
2.6093261e-10
8.4221359e-11
7.7579766e-12
3.1614615e-13
1.0326139e-14
3.9008773e-16
2.1076506e-17
4.282493e-18
4.6475319e-19
3.3105912e-20
1.9359811e-21
9.309741e-23
3.8898268e-24
1.4408251e-25
4.8404913e-27
1.4926818e-28
4.1767722e-30
1.046377e-31
2.3176505e-33
4.4344918e-35
7.9005161e-37
1.3942191e-38
2.432054e-40
4.2604751e-42
7.7282507e-44
1.4291333e-45
2.1835265e-47
2.8339251e-49
3.3896213e-51
3.749717e-53
3.7794155e-55
3.4387825e-57
2.8046204e-59
2.0347802e-61
1.3025391e-63
7.2804817e-66
3.5111947e-68
1.4380373e-70
4.879052e-73
1.317126e-75
2.615859e-78
3.0481814e-81
1.3125761e-84
1.1771174e-84
1.2842404e-82
1.3563428e-82
2.4496885e-79
1.8853346e-76
9.5779738e-74
3.6878478e-71
1.1400479e-68
2.920803e-66
6.3223149e-64
1.1702997e-61
1.8677189e-59
2.5821052e-57
3.1015379e-55
3.2472186e-53
2.9758232e-51
2.4155872e-49
1.789357e-47
1.280927e-45
9.5578096e-44
7.6841388e-42
6.4030691e-40
5.0764901e-38
3.5216823e-36
2.1557988e-34
1.2433474e-32
6.6977048e-31
3.2567163e-29
1.3779166e-27
5.1457189e-26
1.7184286e-24
5.1728545e-23
1.412016e-21
3.5132441e-20
7.9958804e-19
1.6667376e-17
3.1869756e-16
5.5763096e-15
8.4752329e-14
9.0945108e-13
5.7004371e-12
3.3391229e-11
4.3348298e-10
3.1205377e-09
8.2101017e-09
1.0206867e-08
4.4892204e-08
1.1349968e-07
1.2753557e-07
1.0191514e-07
1.5409821e-07
1.5405659e-07
1.0186399e-07
1.2736273e-07
1.1215925e-07
4.3398531e-08
8.4631107e-09
6.5811062e-09
2.3461714e-09
2.0783047e-10
2.3326492e-12
1.476592e-13
1.5530068e-14
2.5518636e-15
3.0514868e-16
2.3489791e-17
1.6406899e-18
9.0543453e-20
4.2133107e-21
1.788083e-22
6.7615425e-24
2.2856666e-25
6.9764484e-27
1.9018867e-28
4.5478119e-30
9.2633914e-32
1.689315e-33
2.951763e-35
5.027699e-37
8.658561e-39
1.6321741e-40
3.3105867e-42
5.5954888e-44
7.7107713e-46
9.6851297e-48
1.1346254e-49
1.2160378e-51
1.1766438e-53
1.0195535e-55
7.8585818e-58
5.350816e-60
3.1962915e-62
1.6616653e-64
7.4369325e-67
2.8242839e-69
8.9059258e-72
2.2518293e-74
4.2811743e-77
5.1967198e-80
2.3333247e-83
2.1678832e-83
1.1432066e-81
1.1893654e-81
2.1811822e-78
1.6105426e-75
8.5291926e-73
3.5274726e-70
1.1860814e-67
3.3260798e-65
7.8889596e-63
1.5988638e-60
2.7802382e-58
4.1564362e-56
5.3325252e-54
5.8410813e-52
5.4102511e-50
4.1711373e-48
2.6327071e-46
1.5570261e-44
1.0739447e-42
8.4258418e-41
7.1739479e-39
6.9883361e-37
5.9739977e-35
4.2035209e-33
2.6285036e-31
1.4960386e-29
7.7097022e-28
3.4817892e-26
1.3458045e-24
4.5565908e-23
1.3694744e-21
3.6840712e-20
8.9278548e-19
1.960882e-17
3.9416987e-16
7.2983431e-15
1.1644257e-13
1.2098864e-12
6.1748308e-12
2.3748124e-11
5.4727509e-10
1.0160443e-08
6.6005117e-08
1.5770468e-07
1.7566314e-07
7.0647406e-07
1.6927618e-06
1.8766537e-06
1.4591333e-06
2.0730523e-06
2.0726245e-06
1.4586814e-06
1.8746816e-06
1.678156e-06
6.9218681e-07
1.5853667e-07
1.3995079e-07
5.6432238e-08
6.1236341e-09
5.5794839e-11
3.6502038e-12
2.1041584e-13
1.2507493e-13
1.5336887e-14
1.1087055e-15
7.4969756e-17
3.9948855e-18
1.8731434e-19
8.001471e-21
3.0233204e-22
1.0144901e-23
3.0215187e-25
7.8417059e-27
1.7135099e-28
3.1940592e-30
5.4947777e-32
9.3802296e-34
1.4409312e-35
2.4277231e-37
5.4979516e-39
1.0703338e-40
1.5745618e-42
2.0832728e-44
2.6245288e-46
3.0454364e-48
3.1789911e-50
2.9528717e-52
2.4230827e-54
1.7480133e-56
1.1037837e-58
6.0725081e-61
2.8917531e-63
1.1831643e-65
4.1058906e-68
1.1886381e-70
2.7885539e-73
5.0609492e-76
6.4012221e-79
3.0108176e-82
2.8634238e-82
6.9711211e-81
1.5974047e-80
1.2718945e-77