/*--------------------------------*- C++ -*----------------------------------*\
  =========                 |
  \\      /  F ield         | OpenFOAM: The Open Source CFD Toolbox
   \\    /   O peration     | Website:  https://openfoam.org
    \\  /    A nd           | Version:  9
     \\/     M anipulation  |
\*---------------------------------------------------------------------------*/
FoamFile
{
    format      ascii;
    class       volScalarField;
    location    "0.1";
    object      p_rgh;
}
// * * * * * * * * * * * * * * * * * * * * * * * * * * * * * * * * * * * * * //

dimensions      [1 -1 -2 0 0 0 0];

internalField   nonuniform List<scalar> 
10000
(
0
0.0001513232
-0.0052945131
-0.011793397
-0.020653398
-0.031987403
-0.046051689
-0.063152447
-0.083655207
-0.10798001
-0.13660376
-0.17006404
-0.2089451
-0.25386209
-0.30545563
-0.36439158
-0.43135479
-0.50704588
-0.59218199
-0.68749097
-0.79369459
-0.91148837
-1.0415196
-1.184365
-1.3405079
-1.5103204
-1.694045
-1.8917741
-2.1034093
-2.3286303
-2.5669289
-2.8164271
-3.077208
-3.3481932
-3.6277406
-3.9137304
-4.203736
-4.4950248
-4.7845552
-5.068997
-5.3447675
-5.6080791
-5.8550315
-6.0817133
-6.2843204
-6.4592909
-6.6034226
-6.713972
-6.7887968
-6.8264592
-6.8262258
-6.7880478
-6.712684
-6.6016163
-6.4569403
-6.2814362
-6.0783159
-5.8511352
-5.603721
-5.3399314
-5.0636549
-4.778684
-4.4885916
-4.1967192
-3.906123
-3.6195875
-3.3394981
-3.0680182
-2.8067363
-2.556742
-2.3180061
-2.092314
-1.8801723
-1.6819531
-1.4977968
-1.3274657
-1.1708187
-1.0274571
-0.89696648
-0.77875666
-0.67207944
-0.57631693
-0.49077749
-0.41467619
-0.34736203
-0.28813008
-0.23622303
-0.19099754
-0.15182861
-0.11807035
-0.089147275
-0.064549702
-0.043766753
-0.026332346
-0.011881071
-0.00010938981
0.0092764039
0.016461826
0.022855069
0.024090858
-0.00088673468
-0.0014262255
-0.0070900163
-0.013556631
-0.022281976
-0.033408208
-0.047199809
-0.063967582
-0.084077003
-0.10795114
-0.13607752
-0.168991
-0.20727788
-0.2515497
-0.30244861
-0.36064403
-0.42682971
-0.5017096
-0.58601519
-0.68048907
-0.78586666
-0.90285097
-1.032109
-1.1742348
-1.3297319
-1.4989967
-1.6823005
-1.8797642
-2.0913131
-2.316654
-2.5552125
-2.8058164
-3.0680027
-3.3405898
-3.6219553
-3.9100882
-4.2026054
-4.4967714
-4.7895136
-5.0774452
-5.3569064
-5.6240188
-5.8747841
-6.1051842
-6.311296
-6.4894311
-6.6362808
-6.7490067
-6.8253446
-6.8637775
-6.8635633
-6.824623
-6.7477275
-6.6344873
-6.4870937
-6.3084122
-6.1017909
-5.87089
-5.6196563
-5.3520658
-5.0720933
-4.7836264
-4.4903258
-4.1956044
-3.9025136
-3.6138349
-3.3319296
-3.0588284
-2.796128
-2.545017
-2.3059981
-2.0802239
-1.8682138
-1.6702174
-1.4864596
-1.3166908
-1.1606919
-1.0180644
-0.88833449
-0.77092177
-0.66508816
-0.57013426
-0.4854037
-0.41012157
-0.34357087
-0.28508787
-0.23391532
-0.18933486
-0.15073279
-0.11753103
-0.089129162
-0.064977532
-0.044575741
-0.027482039
-0.013328922
-0.0018003118
0.0074024796
0.014442036
0.020779217
0.02192474
0.0032451472
0.0025336883
-0.0031116322
-0.0093363384
-0.01766891
-0.028254084
-0.041377981
-0.057364154
-0.076583081
-0.099463792
-0.12649411
-0.15821786
-0.19521465
-0.23811105
-0.28756669
-0.34426672
-0.40891994
-0.48226754
-0.56506247
-0.65806765
-0.7620414
-0.87772603
-1.0058157
-1.1469467
-1.3016745
-1.4704537
-1.6536119
-1.8513142
-2.0635378
-2.2900544
-2.530386
-2.783768
-3.049369
-3.3259435
-3.6119689
-3.9054915
-4.2041503
-4.50519
-4.8054716
-5.1014975
-5.3894517
-5.6652686
-5.9247223
-6.1635444
-6.3775426
-6.5627493
-6.7156024
-6.8330564
-6.9126532
-6.9527098
-6.9524794
-6.9119286
-6.8318143
-6.7138519
-6.5604544
-6.374703
-6.1601798
-5.9208207
-5.6608629
-5.3845542
-5.0960918
-4.7995632
-4.4987565
-4.1971851
-3.8980037
-3.6039202
-3.3173311
-3.0402156
-2.7740655
-2.5201807
-2.2793768
-2.0524144
-1.8397747
-1.6415689
-1.4579023
-1.2886345
-1.1334122
-0.99176083
-0.86319654
-0.74704887
-0.64262471
-0.54915807
-0.46592359
-0.39220281
-0.32721242
-0.2701857
-0.22041944
-0.17722425
-0.13991957
-0.10789721
-0.080595993
-0.05744876
-0.037948592
-0.021667879
-0.008223007
0.0027324374
0.011482919
0.018157533
0.024244758
0.025264744
0.0071834923
0.0065082518
0.0010562814
-0.0047603365
-0.012492482
-0.022293651
-0.034459305
-0.049316785
-0.0672457
-0.08868281
-0.11411754
-0.14409073
-0.17919284
-0.22006377
-0.26738082
-0.32185219
-0.38421986
-0.4552536
-0.53573797
-0.62646887
-0.72824424
-0.84184891
-0.96803408
-1.1075006
-1.2608775
-1.4286954
-1.6113573
-1.8091086
-2.0220121
-2.2499321
-2.4925018
-2.7491207
-3.018936
-3.3008661
-3.5933703
-3.8945275
-4.201995
-4.5129919
-4.8242964
-5.1322631
-5.4328641
-5.7217532
-5.9943602
-6.2460283
-6.4721555
-6.6683376
-6.830567
-6.9554203
-7.0401536
-7.0828448
-7.0825994
-7.0394289
-6.9542316
-6.8288909
-6.6661153
-6.469388
-6.2427139
-5.9904573
-5.717298
-5.427926
-5.1268296
-4.8183739
-4.5065999
-4.1950823
-3.8871028
-3.5854001
-3.2923317
-3.0098404
-2.7394429
-2.4822877
-2.2392287
-2.0108304
-1.79746
-1.5992712
-1.4161335
-1.2478096
-1.0939259
-0.95392522
-0.82725531
-0.71316374
-0.61092931
-0.51977897
-0.43887562
-0.36745945
-0.30474423
-0.24993071
-0.20228565
-0.16111082
-0.12571066
-0.095442351
-0.069741777
-0.048063359
-0.029882518
-0.014741962
-0.0022636146
0.0078670083
0.015940809
0.022114921
0.027868037
0.028722862
0.011710864
0.011198981
0.0061130219
0.00090783068
-0.0059886226
-0.014724552
-0.025597081
-0.038941747
-0.055147354
-0.074652029
-0.09794596
-0.12557597
-0.15814436
-0.19630501
-0.24075713
-0.29223896
-0.35152498
-0.41942138
-0.496756
-0.58437263
-0.68312521
-0.79386417
-0.91741751
-1.0545717
-1.2060477
-1.3724729
-1.5543521
-1.7520385
-1.9657156
-2.1953823
-2.4408256
-2.7015851
-2.9769265
-3.2658327
-3.5668643
-3.8781577
-4.1973923
-4.5217591
-4.8479403
-5.1721087
-5.4899605
-5.7967773
-6.0875216
-6.3569833
-6.5999525
-6.8113973
-6.9866881
-7.1218421
-7.2136926
-7.2600397
-7.2598228
-7.2130269
-7.1207225
-6.9850979
-6.809258
-6.597244
-6.3537196
-6.0836904
-5.7923688
-5.4850591
-5.1667419
-4.84207
-4.5154084
-4.1905527
-3.8708229
-3.5589895
-3.2573953
-2.9679104
-2.691977
-2.4306181
-2.1846059
-1.9544708
-1.7402957
-1.5421423
-1.3598161
-1.1929239
-1.0409614
-0.90327739
-0.77920835
-0.66797218
-0.56876288
-0.48075548
-0.40302129
-0.33472251
-0.2750712
-0.22324934
-0.17846563
-0.13996529
-0.10707972
-0.079180996
-0.055649768
-0.035902622
-0.019443878
-0.0058376111
0.0053149739
0.014342104
0.021531309
0.027013158
0.032329741
0.032966574
0.016906358
0.016639591
0.012070572
0.007667161
0.0018417048
-0.0055416975
-0.014784901
-0.026230587
-0.040270603
-0.05734422
-0.077947707
-0.10263779
-0.13202845
-0.16678816
-0.20763804
-0.25534706
-0.31072643
-0.37462795
-0.44793627
-0.53155999
-0.62642762
-0.73347299
-0.85361625
-0.9877448
-1.136688
-1.3011888
-1.4818792
-1.6792578
-1.8936687
-2.1252805
-2.3740591
-2.639722
-2.9217157
-3.2191381
-3.530672
-3.854552
-4.1885153
-4.5297483
-4.8748395
-5.2197571
-5.5598666
-5.8899789
-6.2044431
-6.4973023
-6.7625041
-6.9941419
-7.1867536
-7.3356161
-7.4369514
-7.4881513
-7.4879732
-7.4363592
-7.3345546
-7.1852148
-6.992066
-6.7598729
-6.4941135
-6.2007403
-5.8857415
-5.5551031
-5.2144972
-4.869091
-4.5235142
-4.1817918
-3.8473291
-3.5229183
-3.2108263
-2.9127767
-2.6301566
-2.3638906
-2.1144933
-1.8823891
-1.6674853
-1.4696075
-1.2884452
-1.1234837
-0.97405977
-0.83942376
-0.71875709
-0.61124062
-0.5159159
-0.43185445
-0.35813868
-0.29384982
-0.23810834
-0.19003948
-0.14884537
-0.11374885
-0.084060495
-0.059130914
-0.03830871
-0.020992376
-0.0066872791
0.0050313861
0.014542405
0.02218713
0.028275535
0.03289615
0.037656286
0.038023548
0.022506901
0.022554544
0.018630337
0.015206651
0.01068125
0.0049289322
-0.002355531
-0.011514875
-0.022941947
-0.037082883
-0.054443789
-0.075590795
-0.10114706
-0.1317949
-0.16827594
-0.21138993
-0.26199185
-0.32098998
-0.38933991
-0.46803199
-0.55808238
-0.66052106
-0.77637365
-0.90664303
-1.0522854
-1.2141849
-1.393133
-1.5898114
-1.8047661
-2.0383763
-2.2908203
-2.5620294
-2.8516534
-3.1589925
-3.4829016
-3.8217741
-4.1734602
-4.5351823
-4.9034569
-5.2740461
-5.6419403
-6.0013774
-6.3459199
-6.6686331
-6.9623538
-7.2199979
-7.4349636
-7.6015512
-7.7151817
-7.7726482
-7.7724571
-7.7145849
-7.6005173
-7.433451
-7.2179433
-6.959812
-6.6655807
-6.3423452
-5.9972774
-5.637348
-5.2689568
-4.8978664
-4.5290958
-4.1668914
-3.8146934
-3.4752502
-3.150756
-2.8428079
-2.5525843
-2.2807989
-2.0277036
-1.7934939
-1.5779971
-1.3808069
-1.201359
-1.038978
-0.89285821
-0.76213584
-0.64575067
-0.54280637
-0.45230595
-0.3731659
-0.30440568
-0.24501834
-0.19404073
-0.15054672
-0.11371782
-0.082751526
-0.0569196
-0.035552611
-0.017981765
-0.0035959228
0.0081040826
0.017543706
0.025096822
0.031078963
0.035850245
0.039482833
0.043557016
0.043600456
0.028219574
0.028633413
0.025479938
0.023203291
0.020194078
0.016339817
0.011340496
0.0048566614
-0.0035090246
-0.014213196
-0.02777203
-0.044758683
-0.065801864
-0.091594929
-0.12290035
-0.16055233
-0.20545892
-0.25859661
-0.32100083
-0.39375327
-0.47796788
-0.57478087
-0.68533732
-0.81077336
-0.95219528
-1.1106595
-1.2871539
-1.4825762
-1.6977074
-1.9331734
-2.189404
-2.4665882
-2.7646333
-3.083103
-3.4211155
-3.7773069
-4.1497111
-4.5356522
-4.9316361
-5.3332478
-5.7350782
-6.1306959
-6.512688
-6.8728559
-7.2025823
-7.4932333
-7.7366514
-7.9257844
-8.0550416
-8.1204919
-8.1202744
-8.0544006
-7.9247344
-7.7351615
-7.4912044
-7.2000551
-6.8698559
-6.5092174
-6.1267243
-5.7306058
-5.3282884
-4.9261967
-4.5297217
-4.1432785
-3.7703645
-3.413624
-3.0750027
-2.7559127
-2.4572537
-2.1795021
-1.9226853
-1.6866139
-1.4708626
-1.2748344
-1.0977617
-0.93879013
-0.79686901
-0.6709745
-0.55992085
-0.46261911
-0.37798014
-0.3047673
-0.24189395
-0.18832124
-0.1430285
-0.10499828
-0.073339668
-0.047253323
-0.025974899
-0.0087955983
0.0049667419
0.015923106
0.02457037
0.031331579
0.036609593
0.040703409
0.043917362
0.046405262
0.049707351
0.049369034
0.033705709
0.03453997
0.032267779
0.031293127
0.03000341
0.028307928
0.025916824
0.022492272
0.017630401
0.010865861
0.001677015
-0.010512532
-0.026336184
-0.0464962
-0.071778781
-0.10306053
-0.14131057
-0.18758003
-0.242987
-0.30870743
-0.38596066
-0.47600123
-0.58011151
-0.6995836
-0.83570073
-0.98972183
-1.1628644
-1.3562779
-1.5710062
-1.8079515
-2.0678348
-2.3511551
-2.658141
-2.9887095
-3.3423604
-3.7180482
-4.1140929
-4.5280391
-4.9564941
-5.3949441
-5.8375909
-6.2772554
-6.7053626
-7.1121107
-7.4869464
-7.8191629
-8.09853
-8.3161424
-8.4650677
-8.5405607
-8.5403707
-8.4644549
-8.3150562
-8.0969964
-7.8171659
-7.4844393
-7.1090778
-6.7018555
-6.2733448
-5.8332556
-5.3901497
-4.9512118
-4.5222543
-4.1077923
-3.7112519
-3.3350774
-2.9808444
-2.6496466
-2.3420522
-2.0581548
-1.7976503
-1.5600402
-1.3446371
-1.150586
-0.97679469
-0.82218968
-0.68554626
-0.56557188
-0.46098417
-0.37049062
-0.29283393
-0.22667467
-0.17075523
-0.12397355
-0.085289436
-0.05365122
-0.028037207
-0.0076013185
0.0084311502
0.020778726
0.030135762
0.037137238
0.042304765
0.046056701
0.048730351
0.050687633
0.052154816
0.053307633
0.05575317
0.054989009
0.038573269
0.039879199
0.03858687
0.039055657
0.039681604
0.040400729
0.040931815
0.040938356
0.040013364
0.037689112
0.033444919
0.026707086
0.016838868
0.0031237983
-0.015254521
-0.039221405
-0.069808515
-0.10814013
-0.15541614
-0.21290624
-0.28194516
-0.36392359
-0.46028068
-0.57248865
-0.70203583
-0.85041248
-1.0190927
-1.2095034
-1.4229822
-1.6607388
-1.9238247
-2.2131141
-2.5292538
-2.8726118
-3.243132
-3.6402245
-4.0626521
-4.5083532
-4.9742125
-5.4557711
-5.9469259
-6.4397208
-6.9242449
-7.3887072
-7.8199627
-8.2044256
-8.5290605
-8.7825317
-8.9561495
-9.0441748
-9.0440003
-8.9555722
-8.7814746
-8.5275084
-8.2024096
-7.8174424
-7.3856994
-6.9207693
-6.4358388
-5.9426452
-5.4511035
-4.969168
-4.5028997
-4.0566958
-3.6337056
-3.2360496
-2.8649717
-2.5210119
-2.2042261
-1.9143243
-1.6505932
-1.4121316
-1.1979018
-1.0067905
-0.8374331
-0.68841844
-0.55834305
-0.44562647
-0.34877249
-0.26631026
-0.196802
-0.13887661
-0.091123436
-0.052305305
-0.021245932
0.0031062449
0.02180335
0.035754475
0.04578628
0.052661243
0.057085962
0.059672159
0.060924844
0.061295634
0.061055639
0.060591794
0.060151652
0.059814916
0.061256433
0.060033148
0.042379626
0.044195677
0.043977628
0.046026637
0.048758474
0.05213675
0.055888178
0.059681459
0.063114604
0.06572701
0.067007172
0.066388775
0.063231936
0.056798406
0.046233542
0.030562946
0.0086996026
-0.020546742
-0.058455886
-0.10639563
-0.16582897
-0.23830226
-0.325432
-0.42889321
-0.55040533
-0.69171592
-0.85457725
-1.0407135
-1.2517831
-1.4893485
-1.7548586
-2.0496113
-2.3747268
-2.7311121
-3.1193103
-3.5393167
-3.9905451
-4.4715634
-4.9797878
-5.5110812
-6.0592723
-6.6157294
-7.1690644
-7.7050293
-8.2070143
-8.6573592
-9.0390533
-9.3375263
-9.5419644
-9.6455542
-9.6453788
-9.5413985
-9.3365407
-9.037577
-8.6553902
-8.2045135
-7.7020535
-7.1656819
-6.6119943
-6.0552129
-5.5066871
-4.9750243
-4.4664073
-3.9849344
-3.5332034
-3.1125908
-2.7237391
-2.3667168
-2.0409271
-1.7455039
-1.4792866
-1.2409807
-1.0291571
-0.84229976
-0.67876448
-0.53676661
-0.41459941
-0.31053498
-0.22288886
-0.14997597
-0.090084104
-0.041717346
-0.0033329606
0.026357543
0.048657957
0.064716013
0.075601113
0.08228626
0.08563223
0.086409861
0.085329515
0.082994598
0.079900904
0.076502397
0.073077951
0.069925217
0.06737199
0.065447592
0.065756148
0.064012407
0.044628245
0.046988481
0.047934736
0.051699804
0.05671932
0.062984201
0.070234004
0.07814972
0.086345474
0.09438134
0.10176521
0.10793968
0.11225666
0.11395198
0.11213375
0.1057843
0.093772638
0.074853401
0.047663702
0.010723783
-0.037569194
-0.098932547
-0.1751796
-0.26821031
-0.3799987
-0.5125718
-0.66798188
-0.84827403
-1.0554554
-1.2914777
-1.5582277
-1.8574877
-2.1909201
-2.5600628
-2.9661624
-3.4100241
-3.8919398
-4.4113962
-4.9667081
-5.5545065
-6.1690354
-6.8013387
-7.4385341
-8.063346
-8.6544855
-9.1884605
-9.6424303
-9.9972899
-10.239752
-10.362301
-10.362168
-10.239269
-9.9964092
-9.6410529
-9.186579
-8.6521374
-8.0605691
-7.4353899
-6.7978631
-6.1652759
-5.5504812
-4.9623442
-4.406634
-3.8867211
-3.4042867
-2.9598237
-2.5530238
-2.1831473
-1.8489752
-1.5490033
-1.2815311
-1.044738
-0.83675615
-0.6556615
-0.49950412
-0.36625096
-0.25379327
-0.1601153
-0.083301201
-0.021463196
0.027310133
0.064657906
0.09227686
0.11159297
0.12398815
0.13072775
0.13287843
0.13145268
0.12735865
0.12138651
0.11424158
0.10650786
0.098676847
0.091137272
0.084232386
0.078177435
0.073290121
0.069649334
0.068775008
0.066452628
0.04478131
0.047715321
0.04991738
0.05552402
0.062998368
0.072358014
0.083360389
0.095710034
0.10905249
0.12298262
0.1370368
0.15066771
0.16321413
0.1738871
0.18177131
0.18582126
0.18486888
0.17761854
0.16261901
0.13826378
0.10279883
0.054325147
-0.0091853154
-0.089879761
-0.1900105
-0.31190624
-0.45793627
-0.63048051
-0.83192096
-1.0646394
-1.3309997
-1.6333289
-1.9738781
-2.3548337
-2.7783438
-3.2462697
-3.7599365
-4.3201297
-4.9265974
-5.5774385
-6.2681344
-6.9901625
-7.729488
-8.465306
-9.1699501
-9.8112658
-10.357448
-10.782767
-11.071292
-11.216127
-11.215998
-11.070823
-10.78195
-10.356231
-9.8095966
-9.1678661
-8.4628443
-7.7266979
-6.9870625
-6.2647756
-5.5738533
-4.9227198
-4.3158438
-3.7551835
-3.2409518
-2.7723466
-2.3480874
-1.9663584
-1.6250485
-1.3219527
-1.0547951
-0.82125949
-0.61898935
-0.44563235
-0.29881162
-0.17617293
-0.075309687
0.0060848637
0.070189746
0.11915721
0.15510193
0.17988546
0.19527995
0.20290616
0.20419798
0.2005104
0.19295461
0.18256871
0.1702928
0.15693625
0.14318149
0.12957294
0.11660094
0.10458789
0.093888945
0.084744354
0.077372624
0.071848844
0.069720178
0.066813795
0.042272036
0.045804142
0.04934424
0.056904736
0.0669809
0.079617859
0.094597819
0.11166434
0.13051229
0.15078375
0.17204729
0.19376763
0.2152786
0.23577869
0.2543449
0.26992671
0.28132522
0.28718335
0.28595865
0.27591279
0.25513038
0.22151992
0.17281872
0.10660639
0.020329605
-0.088655018
-0.22304668
-0.38558934
-0.57906954
-0.80631285
-1.0701823
-1.373565
-1.719346
-2.1105019
-2.5501571
-3.0412735
-3.5865394
-4.1884727
-4.8489162
-5.5684111
-6.3449593
-7.1719449
-8.0353838
-8.9109569
-9.7623532
-10.543896
-11.208987
-11.721598
-12.063767
-12.232992
-12.232854
-12.063285
-11.720798
-11.207872
-10.542454
-9.7605478
-8.9087927
-8.0329384
-7.1692657
-6.3420818
-5.5653326
-4.8455741
-4.1847507
-3.582302
-3.0364043
-2.5445733
-2.1041188
-1.7121241
-1.3655315
-1.0613582
-0.79663378
-0.56849802
-0.37413008
-0.21073733
-0.075541103
0.034233549
0.12129848
0.18825507
0.23757236
0.27172314
0.29298058
0.30350151
0.3051066
0.29959718
0.28851288
0.27325891
0.25502028
0.23484616
0.2136681
0.19229259
0.17137159
0.15141342
0.13289635
0.11613543
0.10139663
0.088966623
0.079011897
0.07150116
0.067997198
0.064492447
0.036510681
0.04065885
0.045601734
0.055208923
0.06800582
0.084068028
0.10321653
0.12525042
0.14992802
0.17694914
0.20591772
0.2363165
0.26749421
0.29866612
0.32892067
0.35721191
0.38232012
0.40281925
0.4170684
0.42320431
0.41914326
0.40258243
0.37100015
0.32167808
0.25174384
0.15822004
0.038053881
-0.11187981
-0.29478765
-0.51395132
-0.77272083
-1.0745473
-1.4230453
-1.8220091
-2.2754308
-2.7875501
-3.3628093
-4.0056725
-4.7208023
-5.5123951
-6.382894
-7.3303353
-8.3437789
-9.3968815
-10.441988
-11.411462
-12.232506
-12.851567
-13.250984
-13.442194
-13.442089
-13.25057
-12.850839
-12.231422
-11.410094
-10.440328
-9.3949371
-8.341571
-7.3279425
-6.3803946
-5.5097975
-4.7180118
-4.0025464
-3.3591733
-2.7832283
-2.2703308
-1.8160476
-1.4161801
-1.0667736
-0.76408526
-0.50445699
-0.284367
-0.10051213
0.050338445
0.17135296
0.26570548
0.3364649
0.38657565
0.41880104
0.43596844
0.4405234
0.43488983
0.42102778
0.40085356
0.3760645
0.3480978
0.31817568
0.28735437
0.25654819
0.22654033
0.19794584
0.17123528
0.14683082
0.1250653
0.10611344
0.090213953
0.077549128
0.068012347
0.063070033
0.058925058
0.026891324
0.031662947
0.03805755
0.049768627
0.065366243
0.084961916
0.10843022
0.13564225
0.16642815
0.20054982
0.23765648
0.27726807
0.31877661
0.36144744
0.40440646
0.44661769
0.48684149
0.52359189
0.5551341
0.5794846
0.59438336
0.59728994
0.58539663
0.5556644
0.50488079
0.42970713
0.32670038
0.19232921
0.022976603
-0.18506555
-0.43561421
-0.73268636
-1.0805972
-1.483965
-1.9477741
-2.4776208
-3.0794047
-3.7599076
-4.5271471
-5.3902334
-6.3586553
-7.4396794
-8.631771
-9.9119523
-11.219523
-12.450377
-13.481912
-14.227123
-14.674704
-14.873198
-14.873127
-14.674379
-14.226538
-13.480942
-12.449058
-11.217837
-9.9099565
-8.6295839
-7.4374317
-6.35644
-5.3880137
-4.5248599
-3.7574282
-3.0764707
-2.4740016
-1.9432926
-1.4785198
-1.0741755
-0.72528849
-0.42724085
-0.17575787
0.033231325
0.20357054
0.33892211
0.4428536
0.51890745
0.57054579
0.60111402
0.61371242
0.6114654
0.59712205
0.57328085
0.54214692
0.50572719
0.46583212
0.42394983
0.38132429
0.33900349
0.29787122
0.2586641
0.22195068
0.18815539
0.15760331
0.13058663
0.10727293
0.087789391
0.072303128
0.060692039
0.054318215
0.049537789
0.012803388
0.018190505
0.026056948
0.039892345
0.058322448
0.081514725
0.10940753
0.14195386
0.17906221
0.2205589
0.26615757
0.31544746
0.36790168
0.42286736
0.4795288
0.53687143
0.59364711
0.64833011
0.69910855
0.74387536
0.78018234
0.80522645
0.81588744
0.80877923
0.78030925
0.7267253
0.64414952
0.52862375
0.37615244
0.18267734
-0.056032494
-0.34453653
-0.68784349
-1.0914563
-1.5613816
-2.1042126
-2.7271499
-3.4391517
-4.2513814
-5.1789262
-6.2410319
-7.4605505
-8.8575505
-10.427714
-12.102387
-13.716996
-15.047422
-15.934324
-16.38707
-16.547719
-16.547647
-16.386842
-15.933916
-15.04662
-13.715688
-12.100549
-10.425423
-8.8550925
-7.4582277
-6.2389821
-5.177081
-4.2496256
-3.4373838
-2.7250749
-2.1015123
-1.5577487
-1.0867229
-0.68200406
-0.33762701
-0.04802602
0.19180106
0.38634036
0.53982375
0.65634805
0.73992959
0.79448232
0.82386284
0.83181832
0.82191567
0.7975396
0.76186322
0.71762371
0.66726807
0.61294828
0.55652384
0.49951633
0.44317556
0.38853271
0.33643232
0.28753448
0.24232578
0.20116896
0.16429606
0.131872
0.10407407
0.08096028
0.062635014
0.048902834
0.0410899
0.035714755
-0.0063574065
-0.00038561563
0.008932498
0.024868481
0.046117864
0.072915907
0.10527832
0.14324199
0.18679623
0.23584615
0.29019851
0.34954967
0.4134927
0.48148755
0.55279988
0.62645789
0.7012297
0.77558793
0.84766495
0.91522285
0.97560939
1.0257441
1.0621681
1.0811023
1.0784999
1.0501077
0.9915585
0.89847548
0.76654233
0.59143444
0.36860542
0.093034776
-0.2409891
-0.63993325
-1.1108302
-1.661046
-2.2986836
-3.0328956
-3.8775455
-4.8538218
-5.9914623
-7.3344349
-8.9453505
-10.877855
-13.084686
-15.304023
-17.092463
-18.120081
-18.447124
-18.440431
-18.440401
-18.447196
-18.119971
-17.091769
-15.302561
-13.082459
-10.875026
-8.9422762
-7.3316607
-5.9893807
-4.8524463
-3.8766178
-3.0321269
-2.2977595
-1.6595503
-1.1083176
-0.63613721
-0.23585862
0.099461427
0.37632196
0.60041378
0.77671458
0.90971428
1.0038147
1.0634163
1.0928428
1.0964199
1.0783495
1.0427274
0.99327954
0.93357049
0.86657428
0.79493922
0.72095765
0.64654229
0.57323716
0.50226034
0.43458182
0.37096671
0.31197605
0.25797631
0.20923857
0.1659316
0.12807581
0.095759455
0.069012576
0.047874436
0.032042859
0.022784386
0.016842186
-0.03118517
-0.024690527
-0.013985161
0.0039814793
0.027984789
0.058335719
0.095134488
0.13850253
0.1885164
0.24518336
0.30843718
0.3781277
0.45400316
0.53566097
0.62248029
0.71357948
0.80778515
0.90360326
0.99913904
1.0920294
1.1794117
1.2579201
1.323721
1.3725596
1.3998148
1.400617
1.3700405
1.3032921
1.1957922
1.0430752
0.8404873
0.5827453
0.2634784
-0.12504105
-0.59160608
-1.1444219
-1.7897294
-2.5346328
-3.3940582
-4.3940398
-5.5703712
-6.9816008
-8.76156
-11.11332
-14.111154
-17.359423
-19.918165
-21.037626
-20.895782
-20.386515
-20.38669
-20.896477
-21.038078
-19.917707
-17.357789
-14.108152
-11.109285
-8.7573799
-6.97803
-5.5679824
-4.3932163
-3.3944155
-2.5354479
-1.7903903
-1.1444009
-0.5903972
-0.1222934
0.26783455
0.58864454
0.84791302
1.051939
1.2059681
1.31461
1.3824151
1.4140581
1.4143413
1.3881284
1.3402217
1.2752309
1.1974485
1.1107518
1.0184252
0.92336522
0.82795871
0.73412166
0.64338073
0.55689888
0.47555393
0.39997853
0.33061146
0.26767326
0.21127048
0.16147798
0.11824468
0.081494268
0.051192206
0.027286538
0.0094246718
-0.0012133618
-0.0076790382
-0.062273648
-0.055350952
-0.043354155
-0.023471977
0.0031607055
0.036937158
0.078040472
0.12668154
0.18303858
0.24725066
0.3194177
0.39958587
0.48769258
0.58350416
0.68655752
0.7961221
0.91115492
1.0302317
1.1514595
1.2723824
1.3899484
1.5004989
1.5997647
1.6828902
1.7445219
1.7790229
1.7807861
1.7445278
1.6654283
1.539073
1.3611141
1.1264965
0.8283719
0.45721937
0.00111583
-0.55067722
-1.2013924
-1.947755
-2.7987858
-3.7903783
-4.9588446
-6.3198861
-8.0815763
-10.792316
-14.960933
-20.11413
-24.172502
-25.271814
-23.817406
-22.032591
-22.032877
-23.818651
-25.272973
-24.172727
-20.112788
-14.956831
-10.785808
-8.0751351
-6.3149591
-4.9559895
-3.7904116
-2.8009916
-1.95088
-1.2042982
-0.5525111
0.00088341289
0.45888737
0.83192793
1.1318486
1.3682063
1.5478091
1.6756254
1.7559842
1.7933813
1.7927046
1.7593142
1.6987521
1.6166407
1.5182011
1.4084011
1.2915201
1.1711679
1.0504366
0.93178522
0.81712452
0.70791167
0.6051858
0.5096847
0.42185613
0.34196441
0.27008433
0.20612382
0.14995357
0.10145724
0.060424064
0.026720381
0.00016955165
-0.019629159
-0.031543299
-0.03843512
-0.1002436
-0.092992329
-0.079814709
-0.058168644
-0.029092845
0.007890844
0.053049562
0.10669022
0.16911852
0.24064448
0.32157338
0.41217672
0.51261457
0.62287393
0.7427133
0.87162255
1.0087667
1.1528571
1.3020504
1.4538616
1.6050977
1.751798
1.8891748
2.01162
2.112856
2.1862534
2.2252601
2.2238457
2.1768943
2.0803865
1.9310422
1.7250599
1.4558581
1.1115991
0.67408053
0.12323838
-0.54350634
-1.2946162
-2.1028628
-3.0423332
-4.2122873
-5.3516223
-6.5518444
-9.1399985
-14.992687
-23.976003
-31.373387
-32.223542
-27.544072
-22.204478
-22.205002
-27.546054
-32.225631
-31.374857
-23.975841
-14.986902
-9.1289248
-6.5413838
-5.3441285
-4.2081628
-3.0441058
-2.1080513
-1.3012885
-0.54951951
0.11908774
0.67225012
1.1121097
1.4585983
1.7299357
1.9379278
2.0890857
2.1871754
2.2355248
2.2381802
2.2002991
2.1279973
2.027838
1.9064137
1.7699325
1.6240217
1.4734377
1.3221817
1.1734947
1.0298496
0.89308896
0.7645132
0.64497836
0.53502284
0.43487072
0.34451667
0.26382485
0.19253554
0.1302918
0.076803602
0.03173709
-0.0051654392
-0.034162078
-0.055747955
-0.068847543
-0.076054976
-0.14573707
-0.1382095
-0.12396176
-0.10074204
-0.069480075
-0.029613555
0.019213031
0.077420231
0.14547426
0.22389453
0.31322408
0.4139849
0.52660459
0.6513498
0.78828661
0.9372097
1.097565
1.2683014
1.4477202
1.6334089
1.8221095
2.0095577
2.1903648
2.3580242
2.5050984
2.6235887
2.7054853
2.7434861
2.7319037
2.667459
2.5492064
2.37678
2.1463574
1.8444606
1.4411571
0.89032105
0.16897305
-0.63690768
-1.3615787
-2.0815034
-3.5448016
-4.5022275
-3.8330893
-4.5371429
-12.384647
-29.420607
-44.225188
-44.190081
-32.226652
-17.387514
-17.389087
-32.231197
-44.194639
-44.229428
-29.422937
-12.374398
-4.5167117
-3.8159989
-4.4902512
-3.5367452
-2.0876493
-1.3723846
-0.64896427
0.1587799
0.88325494
1.4374675
1.8438401
2.1484764
2.3813998
2.5560901
2.6762948
2.7423966
2.7554448
2.7187535
2.6380637
2.5206607
2.3746731
2.2079879
2.028108
1.8414692
1.6534111
1.4682574
1.2893182
1.1190262
0.95907279
0.81048026
0.67384262
0.54939005
0.43706774
0.33657885
0.24746455
0.16922817
0.10133604
0.04328022
-0.0054102707
-0.045179744
-0.076353985
-0.099505993
-0.11369298
-0.12117142
-0.19928528
-0.19150865
-0.17630832
-0.15174962
-0.11865147
-0.076348103
-0.024394324
0.037772035
0.11081229
0.19548281
0.29258934
0.40293858
0.52727848
0.66622418
0.82024228
0.98953482
1.1739211
1.3727135
1.5845265
1.8071589
2.0373945
2.2707164
2.5011107
2.7210535
2.921641
3.0929167
3.2245479
3.3069878
3.3332013
3.3006333
3.2122863
3.0752468
2.8946471
2.6611637
2.3309577
1.8007703
0.94475433
-0.12542699
-0.79926324
-0.7857768
-3.2244051
-5.8270812
-0.20848807
6.3990573
-1.7194829
-36.130611
-67.788814
-65.288244
-37.13302
-1.3450008
-1.3505089
-37.14219
-65.29517
-67.796302
-36.135545
-1.7023149
6.4347341
-0.18032289
-5.8068052
-3.2095447
-0.78077981
-0.81857557
-0.14583488
0.92904309
1.7905115
2.3255172
2.6597107
2.8965048
3.0799491
3.2194008
3.3097508
3.3440126
3.3192864
3.2382113
3.1078452
2.9377184
2.7381692
2.5191478
2.2896802
2.0571594
1.8275673
1.6054499
1.3940812
1.1957214
1.0117514
0.84279975
0.68909177
0.55044072
0.42638707
0.31631433
0.21944133
0.13494011
0.062042329
3.554192e-06
-0.051793701
-0.093965012
-0.12696196
-0.15143453
-0.16657494
-0.17430075
-0.26126683
-0.25327373
-0.23726133
-0.21165304
-0.17716867
-0.13301623
-0.078637304
-0.013307988
0.063855882
0.15386829
0.25782035
0.3768434
0.51205294
0.66450391
0.83514898
1.0247146
1.2335377
1.4614491
1.7075987
1.970197
2.2462333
2.5310938
2.8182475
3.0990945
3.3629019
3.5969654
3.7873562
3.9205698
3.9863168
3.9815027
3.9141988
3.8047754
3.6801383
3.5544289
3.3866741
2.9899657
1.9330334
-0.049989193
-1.4569509
1.453193
-1.5057749
-15.580704
2.2083887
28.065739
31.502285
-41.161927
-109.82986
-109.93379
-46.926851
54.481109
54.471556
-46.943535
-109.93985
-109.83283
-41.171874
31.511326
28.103241
2.2554549
-15.574707
-1.5056739
1.400794
-1.5070777
-0.084892385
1.9105726
2.9768599
3.3802097
3.5527892
3.6822479
3.8099172
3.9217695
3.9910778
3.9976217
3.9333371
3.8015006
3.6123813
3.3795262
3.1167189
2.8367774
2.5504947
2.2663993
1.9910159
1.7289321
1.4832043
1.2556974
1.0472691
0.85804716
0.68770582
0.53555151
0.40065058
0.28191511
0.17820367
0.088361322
0.011336605
-0.05387294
-0.10810649
-0.15209251
-0.18644664
-0.21196525
-0.22791825
-0.23586006
-0.3318754
-0.32379384
-0.30707925
-0.28079882
-0.24548636
-0.20021109
-0.14428476
-0.076788338
0.0033896887
0.097533133
0.20704426
0.33340633
0.47816529
0.64290775
0.82916712
1.0383089
1.2713782
1.5289484
1.810937
2.1162497
2.4423751
2.7849174
3.137125
3.4894219
3.8289506
4.1394008
4.4015924
4.5953014
4.7030254
4.7168408
4.6480194
4.535734
4.4492858
4.4705858
4.6316621
4.7346074
3.8394705
0.017486486
-6.377094
1.3796658
17.952654
-13.428745
-2.0109501
68.804401
118.85044
-30.079245
-162.48778
-35.716845
18.234682
242.47172
242.4626
18.260061
-35.734944
-162.50544
-30.122831
118.91022
68.920202
-1.9676769
-13.472735
17.913178
1.2877861
-6.454164
-0.028675719
3.812542
4.7204685
4.625556
4.4697967
4.4523531
4.5417505
4.6563795
4.7271318
4.7149718
4.6087035
4.4162753
4.1553671
3.8461203
3.5075949
3.1562168
2.8048179
2.4629943
2.1375057
1.8327059
1.5511314
1.2939412
1.0612264
0.85242435
0.66646719
0.50199376
0.35753421
0.23147967
0.12224021
0.028294116
-0.051748302
-0.11912678
-0.17493077
-0.22003677
-0.25518507
-0.28135975
-0.29802295
-0.3060699
-0.41129714
-0.40308914
-0.38581202
-0.35937563
-0.32392342
-0.27838922
-0.22196058
-0.15351073
-0.071696836
0.025029044
0.13840015
0.27028716
0.42272559
0.59789341
0.79804694
1.0253098
1.2816235
1.5685915
1.8871757
2.2373361
2.6175391
3.0241588
3.4507681
3.8872384
4.3186495
4.7244701
5.0784449
5.3497864
5.5070065
5.5274989
5.4156227
5.2263338
5.0899706
5.2281067
5.910108
7.2338794
8.191445
3.9125044
-19.81771
-37.813821
34.053902
98.879805
157.93098
136.42472
454.96807
-42.17448
2671.6872
8433.8788
5991.1472
-559.49193
-558.68608
5992.3035
8433.6367
2671.7065
-42.278536
455.16137
136.52998
157.98215
98.97117
33.947551
-38.036065
-19.98746
3.8628372
8.1648893
7.2218232
5.9063829
5.2295538
5.0948794
5.233736
5.4250371
5.5386794
5.5196834
5.3638887
5.0938302
4.7411141
4.3363901
3.9060042
3.4704729
3.0446342
2.6386718
2.2590575
1.9094001
1.5912262
1.3046124
1.0486224
0.82167178
0.62181011
0.4469191
0.29478412
0.1632062
0.050122624
-0.046374554
-0.12805784
-0.19640957
-0.25273482
-0.29812357
-0.33341032
-0.3597097
-0.37692277
-0.38512138
-0.49963215
-0.49081438
-0.47333066
-0.4473911
-0.41261128
-0.36782898
-0.3121127
-0.24414148
-0.16236231
-0.064985986
0.050107153
0.18519277
0.34281486
0.52574103
0.73718571
0.98014854
1.257654
1.5725929
1.9273418
2.3233854
2.7608265
3.2376366
3.7486391
4.2841091
4.8278899
5.3554388