/*--------------------------------*- C++ -*----------------------------------*\
  =========                 |
  \\      /  F ield         | OpenFOAM: The Open Source CFD Toolbox
   \\    /   O peration     | Website:  https://openfoam.org
    \\  /    A nd           | Version:  9
     \\/     M anipulation  |
\*---------------------------------------------------------------------------*/
FoamFile
{
    format      ascii;
    class       surfaceScalarField;
    location    "0.1";
    object      phi;
}
// * * * * * * * * * * * * * * * * * * * * * * * * * * * * * * * * * * * * * //

dimensions      [0 3 -1 0 0 0 0];

internalField   nonuniform List<scalar> 
19800
(
-0.00012719062
0.00012944194
-0.0001770932
0.00012929555
-0.00022710828
0.00012978224
-0.00027717225
0.00013012374
-0.00032730899
0.00013058038
-0.00037753403
0.00013108576
-0.00042784681
0.00013160883
-0.00047822017
0.00013211489
-0.00052860958
0.00013256266
-0.00057897109
0.00013290387
-0.00062924667
0.0001330927
-0.00067934805
0.00013306717
-0.00072919115
0.00013277078
-0.00077865538
0.00013215223
-0.0008275905
0.00013114374
-0.00087583692
0.00012965156
-0.0009232234
0.00012762988
-0.00096952743
0.00012499616
-0.0010145171
0.00012167194
-0.0010579525
0.00011758133
-0.0010995618
0.00011265108
-0.0011390332
0.00010680463
-0.0011760486
9.9973414e-05
-0.0012102683
9.2094852e-05
-0.0012413216
8.3118211e-05
-0.0012687978
7.3001922e-05
-0.0012922575
6.1708426e-05
-0.0013112326
4.9213381e-05
-0.0013251983
3.5497028e-05
-0.0013335566
2.0499065e-05
-0.0013356653
3.8108068e-06
-0.0013326078
-1.3528658e-05
-0.0013231986
-3.282944e-05
-0.0013066327
-5.2910514e-05
-0.0012823488
-7.3634903e-05
-0.0012499911
-9.4975888e-05
-0.0012093092
-0.00011682905
-0.0011601431
-0.00013901621
-0.0011024298
-0.0001613058
-0.0010361982
-0.0001834119
-0.00096159486
-0.00020500793
-0.00087887862
-0.00022574966
-0.00078843465
-0.00024528545
-0.00069079419
-0.00026326273
-0.0005866432
-0.00027934553
-0.00047679927
-0.00029323021
-0.00036216643
-0.00030464277
-0.00024374234
-0.00031334509
-0.00012259814
-0.00031922292
1.4161725e-07
-0.00032226285
0.00012287424
-0.00032226034
0.00024400863
-0.00031921697
0.00036242455
-0.00031333781
0.00047704259
-0.00030463196
0.00058687441
-0.00029321616
0.00069101775
-0.00027932695
0.00078864757
-0.0002632428
0.00087908243
-0.00024526445
0.00096178811
-0.00022573011
0.0010363739
-0.00020498794
0.001102594
-0.00018339075
0.0011602887
-0.00016128655
0.0012094328
-0.00013899795
0.001250095
-0.00011680879
0.0012824304
-9.4954562e-05
0.0013066927
-7.3609804e-05
0.0013232349
-5.288309e-05
0.0013326124
-3.2800558e-05
0.0013356418
-1.3496695e-05
0.0013335233
3.8481643e-06
0.001325153
2.0536047e-05
0.0013111678
3.5533784e-05
0.0012921646
4.9244647e-05
0.0012686663
6.1729672e-05
0.0012411504
7.3020534e-05
0.0012100808
8.313891e-05
0.0011758519
9.2113213e-05
0.0011388247
9.998356e-05
0.001099334
0.0001068045
0.0010577029
0.00011264608
0.0010142568
0.00011757929
0.00096927043
0.00012167017
0.00092297794
0.0001249889
0.00087560448
0.00012761192
0.0008273667
0.00012962112
0.00077843716
0.0001311041
0.00072897928
0.0001321138
0.00067915046
0.00013272703
0.00062906373
0.00013301121
0.00057880476
0.00013302798
0.00052847156
0.00013283209
0.00047811667
0.00013248034
0.00042778835
0.00013201696
0.00037753451
0.00013149178
0.00032737165
0.00013094334
0.0002773018
0.00013040629
0.00022731416
0.00012991529
0.00017736651
0.00012952795
0.00012753832
0.0001290623
0.00012905288
-0.00012711974
0.00017899216
-0.00017682009
0.00017900449
-0.0002266027
0.00017957257
-0.00027650588
0.0001800312
-0.00032655964
0.00018063582
-0.00037674805
0.00018127393
-0.0004270571
0.00018191805
-0.00047747307
0.00018253394
-0.0005279765
0.0001830731
-0.0005785326
0.00018347058
-0.00062904987
0.00018362217
-0.00067948878
0.00018351671
-0.00072974009
0.00018302863
-0.00077968204
0.00018209576
-0.00082918119
0.00018064024
-0.00087810594
0.00017857133
-0.00092623989
0.00017575877
-0.00097339232
0.00017214501
-0.0010193465
0.0001676244
-0.0010638544
0.00016208876
-0.0011066055
0.00015540232
-0.0011473253
0.00014752466
-0.0011856775
0.00013832578
-0.0012213026
0.0001277203
-0.0012538063
0.0001156223
-0.0012827648
0.00010196093
-0.0013077558
8.669915e-05
-0.0013282998
6.975571e-05
-0.0013438814
5.1075308e-05
-0.0013540322
3.0645531e-05
-0.0013585075
8.2819466e-06
-0.0013562792
-1.5759851e-05
-0.0013475966
-4.1513347e-05
-0.0013317271
-6.8779968e-05
-0.0013080745
-9.7286825e-05
-0.0012761926
-0.00012685736
-0.0012357558
-0.00015726619
-0.0011865398
-0.00018823365
-0.0011284246
-0.00021942347
-0.0010614158
-0.00025042417
-0.00098561646
-0.00028081119
-0.00090129407
-0.0003100752
-0.00080885837
-0.00033772314
-0.00070888725
-0.00036323492
-0.00060207086
-0.00038616082
-0.00048924481
-0.00040605224
-0.0003714234
-0.0004224624
-0.00024972467
-0.00043504811
-0.00012538895
-0.00044356212
1.5533572e-07
-0.00044780949
0.00012569111
-0.00044780815
0.00025001638
-0.00044355401
0.00037171013
-0.00043503111
0.00048951852
-0.00042244076
0.00060232977
-0.00040602654
0.00070913737
-0.00038612945
0.00080909266
-0.00036319754
0.00090151237
-0.0003376843
0.00098582375
-0.00031003675
0.001061603
-0.00028077491
0.0011285947
-0.00025038586
0.001186692
-0.00021938303
0.00123589
-0.00018819437
0.0012763075
-0.00015722304
0.0013081651
-0.00012681075
0.0013317891
-9.7237842e-05
0.0013476346
-6.8730424e-05
0.0013562959
-4.1463536e-05
0.001358502
-1.5707676e-05
0.0013540056
8.3440017e-06
0.0013438314
3.0712885e-05
0.0013282188
5.1142296e-05
0.0013076472
6.9813242e-05
0.0012826366
8.6742851e-05
0.0012536512
0.00010199963
0.0012211261
0.00011566732
0.0011854763
0.00012776483
0.0011471004
0.00013835661
0.0011063644
0.00014754024
0.0010636063
0.00015540693
0.0010190934
0.00016209131
0.00097313577
0.00016762713
0.00092598219
0.00017213947
0.00087784953
0.00017574464
0.00082893029
0.00017854672
0.00077944013
0.0001805977
0.00072950432
0.00018204336
0.00067926407
0.00018296767
0.00062884168
0.00018344211
0.00057834242
0.00018353149
0.0005278097
0.00018336756
0.00047734066
0.00018295328
0.00042695862
0.00018240036
0.00037668371
0.00018176797
0.00032654002
0.00018109294
0.00027652595
0.00018042836
0.00022664266
0.00017980359
0.00017688902
0.00017928282
0.0001272229
0.0001787368
0.00017861284
-0.00012695508
0.00022841128
-0.00017651698
0.00022857407
-0.00022617304
0.00022923328
-0.00027599269
0.00022985379
-0.00032596748
0.00023061208
-0.00037611969
0.00023142748
-0.00042645534
0.00023225656
-0.00047696377
0.00023304736
-0.00052760895
0.00023372533
-0.00057835296
0.00023422264
-0.00062916045
0.00023443678
-0.00067993939
0.00023430024
-0.00073061851
0.00023370943
-0.00078108813
0.00023256473
-0.00083121059
0.00023076089
-0.00088081192
0.00022817096
-0.00092975053
0.00022469651
-0.00097780581
0.00022020012
-0.0010247477
0.00021456624
-0.0010703174
0.000207658
-0.0011142607
0.00019934483
-0.0011562401
0.00018950315
-0.0011959273
0.00017801234
-0.0012329598
0.00016475272
-0.0012669455
0.00014960816
-0.0012974556
0.00013247103
-0.0013240265
0.00011326929
-0.001346162
9.1889327e-05
-0.0013633991
6.8309619e-05
-0.001375178
4.2421328e-05
-0.0013812071
1.4308492e-05
-0.0013812209
-1.5747781e-05
-0.0013738441
-4.8891344e-05
-0.0013591112
-8.3513525e-05
-0.0013364601
-0.00011993842
-0.0013053952
-0.0001579227
-0.0012655238
-0.00019713805
-0.0012165538
-0.00023720454
-0.0011583125
-0.00027766649
-0.001090742
-0.00031799744
-0.0010139398
-0.00035761702
-0.0009281474
-0.00039587075
-0.00083374668
-0.00043212507
-0.00073129549
-0.00046568608
-0.00062155389
-0.00049590215
-0.00050543987
-0.00052216392
-0.00038398955
-0.0005439096
-0.00025837623
-0.00056066478
-0.0001298825
-0.00057206353
1.6514723e-07
-0.00057785956
0.00013020909
-0.0005778556
0.00025869699
-0.00057205078
0.0003843034
-0.0005606398
0.00050574164
-0.00054387633
0.00062184269
-0.00052212545
0.00073157032
-0.0004958557
0.00083400587
-0.00046563203
0.00092838832
-0.00043206942
0.0010141632
-0.00039581237
0.0010909478
-0.00035755812
0.0011585008
-0.00031793865
0.0012167176
-0.00027760415
0.0012656683
-0.00023713872
0.0013055176
-0.00019707104
0.0013365601
-0.00015785396
0.001359188
-0.00011986461
0.0013738961
-8.3438049e-05
0.0013812423
-4.8810711e-05
0.0013811945
-1.5662938e-05
0.0013751435
1.43939e-05
0.0013633533
4.2506782e-05
0.0013460979
6.8395964e-05
0.0013239301
9.197393e-05
0.0012973224
0.00011334972
0.0012667745
0.00013254194
0.0012327662
0.0001496714
0.0011957226
0.00016480799
0.0011560256
0.00017805449
0.001114025
0.00018953428
0.0010700654
0.00019936877
0.0010244827
0.00020767467
0.00097753608
0.00021457612
0.00092948093
0.00022019872
0.00088053974
0.00022468008
0.00083093964
0.00022814297
0.00078082664
0.00023071448
0.00073036698
0.00023250433
0.00067969845
0.00023363244
0.00062893256
0.00023420623
0.00057814323
0.0002343257
0.00052742296
0.00023408947
0.00047679694
0.00023357516
0.00042632097
0.00023287927
0.00037602175
0.00023207631
0.00032590047
0.00023121681
0.00027596029
0.00023036715
0.00022618253
0.00022958333
0.00017654363
0.00022892565
0.00012701758
0.00022826385
0.00022801699
-0.00012662195
0.00027761737
-0.00017599149
0.00027794759
-0.00022549565
0.00027874011
-0.00027519009
0.0002795503
-0.00032509911
0.0002805237
-0.00037523162
0.0002815641
-0.00042559717
0.00028262762
-0.00047620222
0.00028365865
-0.00052702879
0.00028455779
-0.00057803327
0.00028523131
-0.0006291879
0.00028559319
-0.00068041883
0.00028553106
-0.00073164265
0.00028493246
-0.00078275466
0.00028367649
-0.00083362698
0.00028163421
-0.00088412829
0.00027867437
-0.0009340652
0.00027463567
-0.00098325153
0.00026938773
-0.0010314529
0.00026276741
-0.0010784117
0.00025461537
-0.0011238599
0.00024479116
-0.001167485
0.00023312681
-0.0012089435
0.00021946999
-0.0012478618
0.00020367059
-0.0012838369
0.00018558283
-0.0013164402
0.00016507351
-0.0013451946
0.0001420223
-0.0013696183
0.0001163111
-0.0013891815
8.7870917e-05
-0.0014033764
5.6614494e-05
-0.0014116744
2.26049e-05
-0.0014132529
-1.4171079e-05
-0.0014080573
-5.4089075e-05
-0.001395149
-9.6423865e-05
-0.0013739907
-0.00014109814
-0.0013440947
-0.00018781947
-0.001305012
-0.000236221
-0.001256386
-0.0002858311
-0.0011979706
-0.00033608336
-0.0011296567
-0.00038631367
-0.0010514927
-0.00043578405
-0.0009636632
-0.00048370277
-0.00086658907
-0.00052919974
-0.00076084705
-0.00057142684
-0.00064721129
-0.0006095377
-0.00052664694
-0.00064272929
-0.00040028451
-0.0006702715
-0.00026940654
-0.0006915438
-0.00013541975
-0.00070605666
1.7766138e-07
-0.00071346171
0.00013577609
-0.00071345358
0.00026976092
-0.00070603617
0.00040062903
-0.00069151154
0.00052697742
-0.00067022648
0.00064753169
-0.00064267565
0.00076115235
-0.000609477
0.00086687476
-0.00057135669
0.00096393188
-0.00052912344
0.001051739
-0.00048362342
0.0011298809
-0.0004357015
0.0011981784
-0.00038622828
0.0012565696
-0.00033599833
0.0013051748
-0.000285742
0.001344233
-0.00023612642
0.0013741019
-0.00018772116
0.0013952367
-0.00014100059
0.0014081148
-9.6319428e-05
0.0014132872
-5.3980785e-05
0.0014116864
-1.4057989e-05
0.0014033594
2.2719502e-05
0.0013891325
5.67341e-05
0.0013695392
8.7991549e-05
0.0013450841
0.0001164263
0.0013163022
0.0001421273
0.0012836764
0.00016516683
0.0012476805
0.0001856678
0.001208735
0.00020375023
0.001167254
0.00021954053
0.0011236038
0.00023318043
0.001078142
0.00024483056
0.0010311769
0.00025464098
0.00098296875
0.00026278081
0.00093378286
0.00026938704
0.00088384189
0.00027461692
0.000833343
0.00027863748
0.00078246959
0.00028158583
0.00073136326
0.00028361061
0.00068015158
0.00028484739
0.0006289345
0.00028542343
0.00057779975
0.0002854613
0.00052681568
0.00028507804
0.00047601596
0.00028438012
0.00042544541
0.00028345441
0.00037509624
0.00028242841
0.00032499487
0.00028132225
0.00027512929
0.00028023911
0.00022545939
0.00027925688
0.00017598085
0.00027841065
0.00012664466
0.00027760369
0.00027720319
-0.00012615243
0.00032657281
-0.00017529357
0.00032708896
-0.00022460805
0.00032805485
-0.00027414868
0.00032909279
-0.0003239405
0.00033032007
-0.00037403946
0.00033166975
-0.00042446859
0.00033306402
-0.00047520538
0.00033440147
-0.0005262552
0.0003356107
-0.00057757377
0.00033654957
-0.00062914672
0.00033716365
-0.00068091163
0.00033729348
-0.00073279171
0.00033681197
-0.00078469033
0.00033557727
-0.00083649271
0.00033344087
-0.00088805033
0.00033023664
-0.00093919714
0.00032578559
-0.00098974027
0.00031993151
-0.0010394654
0.00031249112
-0.0010880982
0.000303246
-0.0011353767
0.00029206764
-0.0011809835
0.0002787324
-0.0012245746
0.0002630602
-0.0012657719
0.0002448669
-0.0013041637
0.00022397324
-0.001339301
0.00020020905
-0.0013706946
0.00017341428
-0.0013978402
0.00014345558
-0.0014201734
0.00011020345
-0.0014371753
7.3615518e-05
-0.0014482095
3.363741e-05
-0.0014527039
-9.6795093e-06
-0.0014499263
-5.6870195e-05
-0.0014392737
-0.00010707957
-0.0014201123
-0.00016026142
-0.0013918309
-0.00021610153
-0.0013538936
-0.00027415827
-0.0013058515
-0.00033387339
-0.001247377
-0.00039455873
-0.0011782778
-0.00045541397
-0.0010985269
-0.00051553589
-0.0010083114
-0.00057391927
-0.00090800106
-0.00062951069
-0.00079819339
-0.00068123452
-0.00067971009
-0.00072802196
-0.00055358742
-0.000768855
-0.00042105659
-0.00080280492
-0.00028352686
-0.00082907374
-0.00014255299
-0.0008470303
2.0139102e-07
-0.00085621792
0.00014295163
-0.00085620628
0.00028391925
-0.00084700091
0.00042143828
-0.00082902963
0.00055394969
-0.00080274562
0.00068005762
-0.00076878264
0.00079852587
-0.00072794131
0.00090831076
-0.00068114652
0.0010086026
-0.00062941297
0.0010987958
-0.00057381564
0.0011785223
-0.0005154305
0.0012475991
-0.00045530453
0.0013060507
-0.0003944465
0.001354071
-0.00033375852
0.001391982
-0.00027403933
0.001420236
-0.00021597644
0.0014393706
-0.0001601315
0.0014499976
-0.00010694523
0.0014527449
-5.6728208e-05
0.0014482215
-9.5319193e-06
0.0014371551
3.3786447e-05
0.0014201241
7.3762378e-05
0.0013977632
0.00011034911
0.0013705892
0.00014360012
0.0013391613
0.00017354961
0.0013039914
0.00020033319
0.0012655753
0.0002240875
0.0012243515
0.00024496953
0.0011807363
0.00026315253
0.0011351085
0.00027880777
0.0010878144
0.00029212575
0.0010391748
0.00030328412
0.00098943897
0.0003125096
0.00093888965
0.0003199342
0.00088773504
0.00032576915
0.00083617297
0.00033019873
0.00078437376
0.00033338609
0.00073248138
0.00033550319
0.00068061371
0.00033671569
0.00062886628
0.00033717364
0.00057731683
0.00033701851
0.00052601704
0.00033638122
0.0004749955
0.00033540001
0.00042428104
0.00033417156
0.00037389988
0.00033281474
0.00032383258
0.00033139184
0.00027403699
0.00033003367
0.00022453442
0.00032876101
0.00017524939
0.00032769952
0.00012613908
0.00032671938
0.00032613489
-0.00012549358
0.00037523325
-0.0001743818
0.00037597322
-0.00022348349
0.00037715503
-0.00027286205
0.00037847381
-0.00032256457
0.00038002885
-0.00037262209
0.00038173554
-0.00042306083
0.00038351035
-0.00047391089
0.00038525579
-0.00052515895
0.00038685858
-0.00057685867
0.00038824583
-0.00062891544
0.00038921642
-0.00068129017
0.0003896664
-0.00073392043
0.000389444
-0.0007867239
0.00038838562
-0.0008395856
0.00038630844
-0.00089237175
0.00038302718
-0.00094493176
0.0003783471
-0.00099705662
0.00037205528
-0.0010485249
0.00036395714
-0.0010991301
0.00035384928
-0.0011485511
0.0003414874
-0.0011964827
0.0003266632
-0.0012425801
0.00030915634
-0.0012864625
0.00028874728
-0.00132771
0.00026521845
-0.001365863
0.00023836006
-0.0014004203
0.00020797066
-0.0014308442
0.00017387952
-0.0014565585
0.00013591762
-0.0014769426
9.3998382e-05
-0.0014913284
4.8020257e-05
-0.0014990992
-1.9129132e-06
-0.0014995587
-5.6415046e-05
-0.0014918429
-0.00011479862
-0.0014752657
-0.00017684025
-0.0014491242
-0.00024224332
-0.0014127629
-0.00031051896
-0.001365635
-0.0003810004
-0.0013072726
-0.00045292026
-0.0012373925
-0.00052529314
-0.001155895
-0.00059703271
-0.0010628955
-0.00066691921
-0.00095874698
-0.0007336612
-0.00084405797
-0.00079592656
-0.00071969791
-0.00085238533
-0.00058678929
-0.0009017658
-0.00044669005
-0.00094290462
-0.00030097163
-0.00097479254
-0.00015137447
-0.00099662503
2.3092197e-07
-0.0010078186
0.00015182648
-0.001007806
0.00030140919
-0.00099658711
0.00044711414
-0.00097472934
0.000587189
-0.0009428235
0.00072007311
-0.00090167082
0.00084441293
-0.00085227807
0.00095907911
-0.00079581201
0.0010632053
-0.00073354031
0.001156178
-0.00066679226
0.0012376531
-0.00059690206
0.0013075068
-0.00052516079
0.0013658488
-0.00045278631
0.0014129552
-0.00038086097
0.0014492886
-0.00031036859
0.0014754022
-0.00024208843
0.0014919488
-0.0001766802
0.0014996338
-0.00011463484
0.0014991479
-5.6246695e-05
0.001491348
-1.7346281e-06
0.0014769306
4.8203256e-05
0.0014565148
9.4177336e-05
0.0014307632
0.00013609318
0.0014003065
0.00017405754
0.0013657152
0.00020814315
0.0013275267
0.000238518
0.001286249
0.00026536254
0.0012423442
0.00028887564
0.0011962215
0.00030926915
0.0011482685
0.00032675798
0.0010988263
0.00034156326
0.0010482081
0.00035390668
0.0009967297
0.00036398705
0.00094459535
0.00037206176
0.00089202937
0.00037833407
0.00083924178
0.00038299101
0.00078638063
0.00038624738
0.00073358333
0.00038830097
0.00068096644
0.00038933573
0.00062861139
0.0003895262
0.00057657907
0.00038904798
0.00052492177
0.00038803897
0.00047368731
0.00038663623
0.00042286079
0.00038499932
0.00037244891
0.00038322606
0.00032241318
0.00038142447
0.00027274668
0.00037969968
0.0002234004
0.0003781131
0.00017433159
0.00037676647
0.00012548391
0.00037556936
0.00037477434
-0.0001246787
0.00042354876
-0.00017323038
0.00042451813
-0.00022206918
0.00042599187
-0.00027123037
0.00042763816
-0.00032077776
0.00042958343
-0.00037076302
0.00043172919
-0.00042122704
0.00043398049
-0.000472223
0.00043625343
-0.00052374526
0.00043837845
-0.00057578269
0.00044027933
-0.00062834559
0.00044177691
-0.00068140607
0.00044272796
-0.00073487238
0.0004429148
-0.0007886911
0.00044221021
-0.00084275648
0.00044037839
-0.00089694225
0.00043721452
-0.00095109259
0.00043249621
-0.0010050269
0.00042598713
-0.0010585302
0.00041745854
-0.0011113491
0.0004066674
-0.0011632112
0.0003933491
-0.0012138073
0.00037725835
-0.0012627919
0.00035813894
-0.0013097752
0.00033572787
-0.0013543292
0.00030977014
-0.0013959852
0.00028001498
-0.0014342332
0.00024621875
-0.0014684962
0.00020814274
-0.0014982069
0.00016562747
-0.0015226372
0.00011842601
-0.0015411035
6.6482272e-05
-0.0015528635
9.8422835e-06
-0.0015572591
-5.2023328e-05
-0.0015531827
-0.0001188775
-0.0015398775
-0.00019014623
-0.0015165149
-0.00026560528
-0.0014823054
-0.00034472673
-0.0014364922
-0.00042681109
-0.0013785193
-0.00051089045
-0.0013079512
-0.00059585915
-0.0012245768
-0.0006804066
-0.0011284321
-0.00076306608
-0.0010198332
-0.00084226393
-0.00089939433
-0.00091636899
-0.00076804192
-0.00098374153
-0.00062700311
-0.0010428063
-0.00047778551
-0.0010921181
-0.00032215926
-0.0011304165
-0.00016210219
-0.0011566845
2.5877791e-07
-0.001170175
0.00016261161
-0.0011701569
0.00032265247
-0.0011566336
0.00047825724
-0.0011303336
0.00062744631
-0.0010920096
0.00076845729
-0.0010426794
0.00089977874
-0.00098360331
0.0010201884
-0.00091622362
0.0011287628
-0.00084211328
0.001224879
-0.00076291249
0.0013082295
-0.00068024936
0.0013787677
-0.00059570097
0.0014367179
-0.00051072983
0.0014825039
-0.0004266442
0.0015166904
-0.00034455703
0.0015400259
-0.00026542562
0.0015532992
-0.00018995623
0.0015573437
-0.00011868064
0.0015529199
-5.182185e-05
0.0015411305
1.0051772e-05
0.0015226278
6.6701953e-05
0.0014981634
0.00011864729
0.0014684133
0.00016584217
0.0014341111
0.00020835503
0.0013958269
0.00024642815
0.0013541374
0.00028021117
0.001309547
0.00030994808
0.0012625377
0.0003358881
0.001213525
0.00035828009
0.0011629077
0.00037737859
0.0011110217
0.00039344461
0.0010581806
0.00040674291
0.0010046705
0.00041750799
0.00095073084
0.00042600464
0.0008965741
0.00043248429
0.0008423881
0.00043717665
0.00078832553
0.00044031155
0.00073451141
0.0004421135
0.00068105167
0.00044279573
0.0006280123
0.00044256923
0.00057547422
0.00044158895
0.00052345411
0.0004400584
0.00047196194
0.00043812765
0.00042100447
0.00043595903
0.00037056941
0.00043366623
0.0003206122
0.00043138664
0.00027109469
0.00042921671
0.00022197202
0.00042724421
0.00017316897
0.00042557153
0.00012466044
0.00042407649
0.00042305637
-0.00012365446
0.00047143311
-0.00017183763
0.00047269408
-0.00022032086
0.00047447362
-0.00026919582
0.00047651691
-0.00031854398
0.00047893853
-0.00036842073
0.00048161251
-0.00041888573
0.00048444878
-0.00046997463
0.00048734178
-0.00052174382
0.00049014509
-0.00057418795
0.00049272173
-0.00062730176
0.00049489195
-0.00068105583
0.00049648638
-0.00073546691
0.0004973315
-0.00079041039
0.00049715787
-0.00084580961
0.00049577854
-0.00090154681
0.00049294965
-0.00095747759
0.00048842376
-0.0010134313
0.00048193843
-0.0010691863
0.00047321279
-0.0011245114
0.00046199253
-0.0011791389
0.00044797629
-0.0012327476
0.00043086534
-0.0012850005
0.00041038939
-0.0013355075
0.00038623258
-0.0013838383
0.00035809992
-0.0014295134
0.00032569029
-0.0014720031
0.0002887087
-0.0015107308
0.00024686957
-0.0015450141
0.0001999081
-0.0015742219
0.00014762969
-0.0015974727
8.9728658e-05
-0.0016140808
2.6446652e-05
-0.0016232944
-4.2812028e-05
-0.0016236485
-0.00011852428
-0.0016144392
-0.00019935508
-0.0015946361
-0.00028540652
-0.0015632331
-0.00037612677
-0.0015193432
-0.00047069737
-0.0014621681
-0.00056806274
-0.0013911086
-0.00066691738
-0.0013058039
-0.00076571216
-0.0012061851
-0.00086268889
-0.0010925123
-0.00095594178
-0.00096540021
-0.0010434828
-0.00082583655
-0.0011233056
-0.00067517451
-0.0011934712
-0.00051510234
-0.0012521877
-0.00034762275
-0.0012978892
-0.00017500696
-0.0013293021
2.8612347e-07
-0.0013454701
0.0001755763
-0.0013454442
0.00034817878
-0.0013292326
0.00051563344
-0.0012977878
0.0006756728
-0.0012520538
0.00082630555
-0.0011933071
0.00096583044
-0.0011231264
0.0010929056
-0.0010432999
0.001206546
-0.00095575761
0.0013061353
-0.00086250487
0.0013914145
-0.00076552451
0.0014624442
-0.00066673002
0.0015195938
-0.00056787445
0.0015634582
-0.00047050527
0.0015948303
-0.00037592963
0.0016146063
-0.00028520269
0.001623784
-0.00019913856
0.0016233937
-0.00011829629
0.0016141559
-4.2581805e-05
0.0015975063
2.6705254e-05
0.0015742139
8.9988895e-05
0.001544967
0.00014789383
0.001510645
0.00020016721
0.001471878
0.00024712013
0.0014293473
0.00028895341
0.0013836363
0.00032592527
0.0013352657
0.00035831709
0.0012847259
0.00038643025
0.0012324428
0.00041056239
0.0011788102
0.00043101437
0.0011241634
0.00044810056
0.0010688128
0.00046208418
0.0010130425
0.00047327694
0.00095708459
0.00048197194
0.00090115327
0.0004884183
0.0008454152
0.00049290804
0.00079002038
0.00049570257
0.00073508783
0.00049704592
0.00068069641
0.00049718244
0.00062694808
0.00049631532
0.00057385313
0.00049468397
0.0005214321
0.00049247795
0.00046969609
0.00048986678
0.00041863577
0.00048702818
0.00036820319
0.00048410292
0.00031835862
0.00048123607
0.0002690476
0.00047852961
0.00022020085
0.00047609093
0.0001717564
0.00047401802
0.00012362177
0.00047221016
0.00047090464
-0.0001223851
0.00051880312
-0.00017009555
0.00052039875
-0.00021815635
0.0005225343
-0.00026666973
0.00052503423
-0.0003157664
0.00052804025
-0.0003654634
0.0005313127
-0.00041588184
0.00053486745
-0.00046706659
0.00053852501
-0.00051906657
0.00054214429
-0.00057190854
0.0005455657
-0.00062560584
0.00054859421
-0.00068015896
0.00055104553
-0.00073552565
0.00055270242
-0.00079167738
0.00055331007
-0.00084852603
0.00055262415
-0.00090596204
0.00055038123
-0.00096384605
0.00054630435
-0.0010220132
0.00054010425
-0.0010802756
0.0005314752
-0.0011383735
0.00052009022
-0.0011960601
0.00050566159
-0.0012530408
0.000487844
-0.0013089492
0.00046629601
-0.0013634054
0.00044068834
-0.0014159796
0.00041067476
-0.0014661912
0.00037590239
-0.0015135035
0.00033602007
-0.0015573174
0.00029068069
-0.0015969643
0.00023955094
-0.0016316851
0.00018234648
-0.0016606951
0.00011873571
-0.0016829567
4.8706722e-05
-0.0016976134
-2.8155554e-05
-0.0017035603
-0.00011257669
-0.0016994807
-0.00020343297
-0.0016841936
-0.00030069093
-0.0016565147
-0.00040380235
-0.0016152884
-0.0005119206
-0.0015594824
-0.00062386748
-0.0014882664
-0.00073813438
-0.0014010785
-0.00085290186
-0.0012977049
-0.00096606572
-0.0011783293
-0.0010753231
-0.0010435601
-0.0011782545
-0.0008944463
-0.0012724158
-0.00073248663
-0.0013554311
-0.00055958595
-0.0014250908
-0.00037802628
-0.0014794437
-0.00019042929
-0.0015168937
3.2925691e-07
-0.0015362279
0.00019107657
-0.0015361971
0.00037865353
-0.0015168083
0.00056019016
-0.0014793143
0.00073305685
-0.0014249211
0.00089497651
-0.0013552288
0.0010440429
-0.0012721962
0.0011787713
-0.0011780244
0.0012981073
-0.0010750912
0.0014014469
-0.0009658415
0.0014886051
-0.00085268376
0.0015597937
-0.00073791905
0.0016155719
-0.00062365249
0.0016567702
-0.00051170365
0.0016844187
-0.0004035783
0.0016996731
-0.00030045601
0.0017037202
-0.00020318482
0.0016977338
-0.00011231472
0.0016830265
-2.7877766e-05
0.001660742
4.8994748e-05
0.001631693
0.00011903668
0.0015969264
0.0001826529
0.0015572311
0.00023985609
0.0015133731
0.00029097953
0.0014660181
0.00033630945
0.0014157668
0.00037617846
0.0013631502
0.00041093093
0.0013086511
0.00044092447
0.0012527103
0.00046650823
0.0011956948
0.00048803004
0.0011379939
0.00050581428
0.0010798783
0.00052020162
0.0010215912
0.00053155055
0.00096341473
0.00054013957
0.00090553259
0.00054630304
0.00084809949
0.00055034073
0.0007912562
0.00055254391
0.00073511708
0.00055318769
0.00067975502
0.00055253872
0.00062522005
0.00055084748
0.00057154894
0.00054836147
0.00051872808
0.00054530242
0.00046675924
0.00054183504
0.00041560832
0.00053818077
0.0003652264
0.00053448577
0.00031555814
0.00053090227
0.00026651061
0.0005275817
0.00021802741
0.00052456824
0.00017000163
0.00052203958
0.00012233888
0.00051987698
0.00051824026
-0.0001208359
0.00056556851
-0.00016797548
0.00056753568
-0.0002155362
0.00057009644
-0.00026363482
0.0005731358
-0.00031234381
0.00057675103
-0.00036182934
0.00058079764
-0.00041213469
0.0005851708
-0.00046334729
0.00058973658
-0.00051554062
0.00059433972
-0.00056875689
0.00059878748
-0.00062304657
0.0006028908
-0.0006784
0.00060640408
-0.00073481497
0.00060911831
-0.0007922531
0.00061074494
-0.00085065824
0.00061102406
-0.00090992935
0.00060964791
-0.00096993647
0.00060630924
-0.0010305302
0.00060069745
-0.0010915253
0.00059246976
-0.0011526765
0.00058123999
-0.001213741
0.0005667241
-0.0012744083
0.00054851004
-0.0013343475
0.00052623551
-0.0013931785
0.00049952082
-0.0014504751
0.00046797269
-0.0015057609
0.00043118763
-0.0015584981
0.00038875454
-0.0016080757
0.00034025418
-0.0016537953
0.00028526688
-0.0016948358
0.0002233847
-0.0017303357
0.00015423493
-0.0017592274
7.7598821e-05
-0.00178085
-6.5317919e-06
-0.0017934171
-0.00010000775
-0.0017955868
-0.00020126093
-0.001786002
-0.00031027321
-0.0017631608
-0.00042664127
-0.0017255979
-0.00054948175
-0.0016719588
-0.00067750674
-0.0016011083
-0.00080898788
-0.0015122191
-0.00094179438
-0.0014048824
-0.0010734042
-0.0012791767
-0.0012010332
-0.0011356946
-0.0013217417
-0.00097555541
-0.001432552
-0.00080040493
-0.0015305754
-0.00061240558
-0.0016130897
-0.00041418466
-0.0016776661
-0.00020879175
-0.0017222853
3.8493996e-07
-0.0017453952
0.00020954495
-0.0017453572
0.00041490848
-0.0017221786
0.00061309389
-0.0016774975
0.00080104811
-0.0016128689
0.0009761501
-0.0015303243
0.0011362303
-0.0014322765
0.0012796634
-0.0013214592
0.0014053216
-0.0012007527
0.0015126183
-0.0010731332
0.0016014749
-0.00094153881
0.0016723022
-0.00080874017
0.001725916
-0.00067726109
0.0017634508
-0.00054923828
0.0017862614
-0.00042639353
0.001795811
-0.00031001078
0.0017936083
-0.00020097825
0.0017810024
-9.9704207e-05
0.001759336
-6.2156071e-06
0.0017303983
7.7928756e-05
0.0016948509
0.00015458412
0.0016537645
0.00022374163
0.0016079933
0.00028562172
0.0015583647
0.00034060321
0.0015055783
0.00038909556
0.0014502471
0.00043151641
0.0013929093
0.00046828054
0.0013340309
0.00049979956
0.0012740557
0.00052648248
0.0012133537
0.000548721
0.0011522612
0.00056690022
0.0010910914
0.00058137893
0.0010300789
0.00059256793
0.00096947114
0.00060074853
0.00090946006
0.0006063159
0.0008501927
0.00060960929
0.00079179441
0.00061094129
0.00073437028
0.00061061936
0.00067797034
0.00060894155
0.00062263218
0.00060618015
0.00056836274
0.00060262638
0.00051517612
0.00059848929
0.00046301403
0.00059400116
0.0004118357
0.00058936146
0.00036157163
0.00058475555
0.00031212679
0.00058034522
0.00026344953
0.00057626495
0.00021539422
0.00057262472
0.00016786904
0.00056956006
0.00012077754
0.00056697337
0.0005649715
-0.00011896631
0.00061160836
-0.00016543331
0.00061400362
-0.00021236584
0.00061703115
-0.00025990837
0.00062067927
-0.00030818712
0.00062502811
-0.00035734006
0.00062994709
-0.00040745902
0.00063528699
-0.00045864706
0.0006409252
-0.00051098798
0.0006466854
-0.0005645515
0.00065235818
-0.00061940734
0.00065775276
-0.00067558052
0.00066257935
-0.0007330783
0.0006666136
-0.00079187755
0.0006695391
-0.00085192255
0.00067106432
-0.00091315487
0.00067087755
-0.00097544608
0.00066859949
-0.0010386429
0.00066389339
-0.00110257
0.00065639503
-0.0011670562
0.00064572368
-0.0012317915
0.00063145791
-0.0012965006
0.00061321977
-0.0013608532
0.00059059048
-0.0014244819
0.00056315179
-0.0014869735
0.0005304645
-0.0015478579
0.00049206983
-0.0016065974
0.00044749036
-0.001662599
0.0003962524
-0.0017151491
0.00033781495
-0.0017635062
0.00027174154
-0.0018066104
0.00019733981
-0.0018434466
0.0001144363
-0.0018726946
2.2717852e-05
-0.0018933981
-7.9302263e-05
-0.0019033191
-0.00019133764
-0.0019009078
-0.00031268273
-0.0018843375
-0.00044321087
-0.0018517466
-0.00058207239
-0.0018013648
-0.00072788924
-0.0017316484
-0.00087870841
-0.0016414263
-0.0010320226
-0.0015300217
-0.0011848112
-0.0013973545
-0.0013337005
-0.0012440098
-0.0014750892
-0.0010711907
-0.0016053711
-0.00088072098
-0.00172104
-0.00067502647
-0.001818778
-0.00045713398
-0.0018955569
-0.00023062909
-0.0019487963