/*--------------------------------*- C++ -*----------------------------------*\
  =========                 |
  \\      /  F ield         | OpenFOAM: The Open Source CFD Toolbox
   \\    /   O peration     | Website:  https://openfoam.org
    \\  /    A nd           | Version:  9
     \\/     M anipulation  |
\*---------------------------------------------------------------------------*/
FoamFile
{
    format      ascii;
    class       surfaceScalarField;
    location    "0.26";
    object      alphaPhi0.phase1;
}
// * * * * * * * * * * * * * * * * * * * * * * * * * * * * * * * * * * * * * //

dimensions      [0 3 -1 0 0 0 0];

internalField   nonuniform List<scalar> 
19800
(
1.7394473e-102
-5.5404642e-101
2.7518728e-101
-8.4927889e-101
5.4258916e-99
-3.3415401e-99
8.9211039e-97
-4.409691e-97
1.2465116e-94
-5.1269354e-95
1.5438958e-92
-5.416345e-93
1.7539958e-90
-5.3437967e-91
1.8559707e-88
-4.9609001e-89
1.8455365e-86
-4.3680232e-87
1.819359e-84
-3.8885544e-85
2.0215958e-82
-4.0167248e-83
1.4399222e-80
-2.487178e-81
4.2776853e-79
-4.663236e-80
5.2832095e-78
-4.6391832e-79
2.533733e-77
-2.1722217e-78
7.1585127e-77
-6.170966e-78
1.6002177e-76
-1.2813554e-77
3.5986388e-76
-3.7939754e-77
2.3392812e-76
-2.9520033e-77
1.6813882e-76
-1.4141062e-76
1.6485666e-76
-1.7236694e-76
1.5810227e-76
-1.6843038e-76
6.6162264e-76
-2.9899222e-77
1.0256649e-73
-3.4062506e-75
1.0602554e-71
-3.1845539e-73
9.6246853e-70
-1.3506914e-71
1.0729356e-67
-1.3918816e-69
1.4676831e-65
-1.7926725e-67
2.8915175e-63
-2.7894353e-65
1.6336238e-60
-1.5931799e-62
4.1886037e-59
-2.251974e-61
1.0863414e-58
1.6896903e-61
1.9405627e-57
1.7705263e-59
7.3649535e-57
1.2546027e-58
1.2221973e-55
2.8139354e-57
3.7751199e-54
1.1814729e-55
1.077749e-52
4.4412295e-54
2.7605882e-51
1.4558079e-52
6.275391e-50
4.1629065e-51
1.2446913e-48
1.027943e-49
2.1019704e-47
2.1516493e-48
2.9621916e-46
3.7603104e-47
3.4702225e-45
5.486998e-46
3.3510184e-44
6.6762335e-45
2.5347137e-43
6.5079778e-44
1.4203996e-42
4.8559531e-43
5.8859862e-42
2.8145779e-42
1.7483045e-41
1.2892149e-41
3.117731e-41
4.4147225e-41
1.2946367e-41
1.0775743e-40
-1.6131257e-41
1.0934243e-40
-1.2815035e-41
4.5900835e-41
-4.6626003e-42
1.3248595e-41
-1.082143e-42
2.7860365e-42
-1.6422881e-43
4.3543033e-43
-1.4385807e-44
4.7706984e-44
-6.2240134e-46
3.1449024e-45
-1.1887807e-47
1.0581913e-46
-9.2854727e-50
1.6106064e-48
-4.6326696e-52
1.0174261e-50
-4.6451141e-55
4.1221782e-53
-3.3040753e-58
3.3498753e-56
-6.4884738e-61
1.922943e-59
-2.1747002e-60
5.9942124e-62
-9.4461391e-60
1.4642594e-61
-6.0165964e-59
1.3347161e-60
-9.5079634e-59
2.8145841e-60
-8.2443423e-59
2.2749399e-60
-1.2239661e-59
6.5397342e-61
-5.8686902e-61
-1.4050417e-62
-1.1797905e-63
-3.8707893e-63
-1.4617672e-65
-1.3996849e-65
-1.6063275e-67
-1.413388e-67
-1.2369908e-69
-1.9661642e-69
-9.2217304e-72
-1.7005301e-71
-9.5689172e-74
-1.4243628e-73
-5.7907697e-76
-3.0718758e-75
-3.7617861e-76
-3.4316521e-77
-4.0491054e-76
-7.1466039e-76
-4.1715699e-76
-7.3258181e-76
-6.1066062e-76
-6.0068565e-76
-7.2818652e-76
-7.0159407e-77
-3.408995e-76
-7.720814e-77
-1.5382587e-76
-2.7750183e-77
-5.3792924e-77
-1.3444479e-77
-1.1657093e-77
-4.7225327e-78
-1.0914442e-78
-1.0607242e-78
-4.4546543e-80
-1.2191945e-79
-7.9132388e-82
-7.7554496e-81
-7.4282881e-84
-1.6078782e-82
-7.3179292e-86
-1.6269608e-84
-6.8327048e-88
-1.7790169e-86
-5.8515189e-90
-1.8653085e-88
-4.4847526e-92
-1.8144771e-90
-3.0283207e-94
-1.598693e-92
-1.7755048e-96
-1.2619736e-94
-8.5727233e-99
-8.881688e-97
-3.3122063e-101
-5.341716e-99
-1.7366257e-102
-8.8101014e-101
-5.1933992e-101
3.0446961e-101
-1.2126687e-100
1.316984e-98
-1.4790038e-98
2.7169087e-96
-2.3467362e-96
4.3954674e-94
-3.0838162e-94
6.0598969e-92
-5.4307859e-92
7.4019278e-90
-7.0347212e-90
8.2948881e-88
-7.9927259e-88
8.6194936e-86
-8.3335748e-86
8.4088735e-84
-8.1337185e-84
8.3239678e-82
-8.075236e-82
9.6261019e-80
-9.4563192e-80
5.9427354e-78
-5.8216834e-78
6.054341e-77
-5.4033728e-77
2.3931612e-76
-1.7194359e-76
5.9787395e-76
-3.4170868e-76
1.1319355e-75
-4.9587332e-76
2.6387921e-75
-1.422139e-75
6.8629478e-75
-4.0693431e-75
1.1709064e-74
-3.5192082e-75
1.0425722e-74
-3.1870682e-75
3.2455422e-75
-1.5066581e-75
1.2929313e-75
-3.0136463e-76
5.3264427e-75
-7.0760092e-76
3.1506776e-73
-2.6849767e-74
1.9755658e-71
-1.3322376e-72
4.1389186e-69
-4.0487823e-69
1.4535428e-66
-1.4362196e-66
4.332031e-64
-4.2615189e-64
2.0003905e-62
-1.7974636e-62
2.7977654e-60
-5.5122872e-62
4.7243174e-59
-2.1989761e-61
1.8421252e-58
1.2524764e-60
2.6579908e-55
7.3507702e-57
1.8254393e-54
8.8619054e-56
3.8398372e-53
2.5852182e-54
1.1336733e-51
1.0267562e-52
3.0581834e-50
3.5997089e-51
7.3832884e-49
1.1000131e-49
1.5750801e-47
2.9225361e-48
2.9226553e-46
6.6902169e-47
4.621858e-45
1.3002188e-45
6.1033154e-44
2.1123467e-44
6.624859e-43
2.8381874e-43
5.7885416e-42
3.1144218e-42
3.8124099e-41
2.6568688e-41
1.6570215e-40
1.584112e-40
4.2001329e-40
5.9485924e-40
6.558214e-40
1.4512556e-39
7.3960863e-40
3.0552722e-39
2.4861491e-40
5.3564254e-39
-3.8084687e-40
5.4245301e-39
-4.8314991e-40
3.1603665e-39
-3.4026631e-40
1.5028028e-39
-1.3517882e-40
6.0440546e-40
-2.6741051e-41
1.5250198e-40
-2.5700159e-42
2.1024278e-41
-1.2340154e-43
1.5124817e-42
-2.7322023e-45
5.6823145e-44
-2.8598303e-47
1.0101932e-45
-1.2580191e-49
8.6155638e-48
-1.5201233e-52
3.1013546e-50
-6.4895882e-56
3.0677143e-53
-2.4713894e-58
1.0680629e-56
-1.092399e-57
6.5208351e-59
-1.4448665e-56
9.050179e-58
-3.2832783e-56
3.3293088e-57
-2.8682197e-56
3.7511553e-57
-7.9992855e-59
1.5560052e-57
-1.4100377e-59
8.531083e-61
-8.2122363e-61
2.4075528e-62
-1.2493303e-62
-7.7926434e-63
-8.6400087e-65
-4.4637582e-64
-9.9927009e-67
-7.4438346e-65
-1.1037912e-68
-9.586295e-67
-4.052813e-71
-1.0920406e-68
-3.0886871e-73
-3.777444e-71
-5.9541218e-75
-2.6099313e-74
-5.3958376e-75
-1.1814191e-75
-1.4592263e-74
-1.3476092e-75
-3.0968353e-74
-5.4591576e-75
-3.0280704e-74
-8.8627475e-75
-1.790457e-74
-8.9997274e-75
-7.2712305e-75
-1.0167002e-74
-3.2764358e-75
-3.4746178e-75
-1.6894171e-75
-1.5037245e-75
-6.3620113e-76
-1.0194384e-75
-1.5780931e-76
-4.6522782e-76
-1.7799918e-77
-1.3878307e-76
-3.7810918e-79
-1.73671e-77
-3.4408646e-81
-3.7259807e-79
-3.3948656e-83
-3.3511463e-81
-3.2012574e-85
-3.293318e-83
-2.7765873e-87
-3.1018476e-85
-2.1525242e-89
-2.6799316e-87
-1.4668437e-91
-2.0467418e-89
-8.6913833e-94
-1.3043127e-91
-4.248761e-96
-6.1127844e-94
-1.572726e-98
-3.6830006e-96
-2.8222443e-101
-1.7730195e-98
-1.1231326e-100
1.0697164e-98
-4.3512145e-98
4.6483946e-96
-6.6392321e-96
9.6521538e-94
-1.0545653e-93
1.5751241e-91
-1.3966453e-91
2.1851446e-89
-1.6282089e-89
2.6759015e-87
-1.7177722e-87
3.0123346e-85
-2.2899141e-85
3.1557153e-83
-2.7672772e-83
3.109233e-81
-2.8817668e-81
3.1142695e-79
-2.968757e-79
3.6519651e-77
-3.5667092e-77
2.2907248e-75
-2.2254978e-75
2.3660716e-74
-2.0317985e-74
9.4875368e-74
-3.5362733e-74
2.4231787e-73
-9.3114946e-74
4.6402118e-73
-1.6888808e-73
1.110061e-72
-3.5790482e-73
2.9291495e-72
-8.8933581e-73
4.7292944e-72
-1.7669961e-72
4.0813999e-72
-1.5627857e-72
1.2915543e-72
-7.3689093e-73
5.2785159e-73
-1.5517076e-73
2.8481753e-72
-4.6913846e-73
1.3209094e-70
-1.6807865e-71
6.4747862e-69
-7.1879254e-70
3.183607e-66
-3.1659555e-66
1.3076554e-63
-1.2956386e-63
6.0380118e-61
-4.5272153e-62
4.2346712e-59
-2.3280028e-60
1.2052456e-57
-3.7873117e-59
5.8972134e-57
-4.385082e-59
9.5481436e-56
1.3469702e-57
2.9404818e-52
1.1990421e-53
9.4723281e-52
6.6908549e-53
8.7327276e-51
7.8945639e-52
2.3544212e-49
2.7467804e-50
6.1458624e-48
9.2574344e-49
1.4323595e-46
2.7187365e-47
2.9439641e-45
6.9293094e-46
5.2553647e-44
1.5196536e-44
7.9917406e-43
2.8286285e-43
1.0156504e-41
4.4053625e-42
1.0625813e-40
5.6826394e-41
8.9767654e-40
6.0054818e-40
5.7724505e-39
4.9805507e-39
2.4971986e-38
2.9402823e-38
6.4208666e-38
1.1167864e-37
1.0133091e-37
2.7725701e-37
1.1390734e-37
5.8214683e-37
3.9254561e-38
1.0562466e-36
-5.8568096e-38
1.0706044e-36
-7.44613e-38
6.0200176e-37
-5.1915484e-38
2.8675855e-37
-2.0349386e-38
1.1345282e-37
-4.0665135e-39
2.832976e-38
-4.0952219e-40
3.9678159e-39
-2.1502351e-41
3.0050833e-40
-5.4906554e-43
1.2392207e-41
-6.904012e-45
2.5491402e-43
-3.7601642e-47
2.6199412e-45
-6.8177079e-50
1.1725173e-47
-5.4294811e-53
1.7481968e-50
-4.3167012e-55
1.1466694e-53
-1.7972424e-54
1.4602537e-55
-1.6785516e-53
1.55821e-54
-3.2366059e-53
4.6295625e-54
-2.6930039e-53
4.8244153e-54
-6.1195725e-57
1.8710826e-54
-1.853338e-57
1.9383396e-58
-2.196741e-58
1.4269384e-59
-1.2938848e-59
-3.7373015e-60
-1.4695616e-61
-5.0473999e-61
-9.908203e-64
-9.0393956e-63
-8.9020636e-66
-9.7913708e-65
-2.8111151e-68
-8.8414992e-66
-1.3634911e-70
-2.7900784e-68
-3.2873516e-72
-1.6771814e-71
-2.2011265e-72
-7.2662318e-73
-5.8019431e-72
-6.7376632e-73
-1.2257196e-71
-2.6603265e-72
-1.2356606e-71
-4.3953437e-72
-7.4766163e-72
-4.5727988e-72
-2.9919932e-72
-2.2730514e-72
-1.3130352e-72
-9.7255278e-73
-6.6604692e-73
-4.7727131e-73
-2.4424409e-73
-2.5295878e-73
-5.9930541e-74
-1.0620354e-73
-6.670588e-75
-5.1499829e-74
-1.3955014e-76
-6.4729818e-75
-1.2530484e-78
-1.3711819e-76
-1.2224914e-80
-1.2102573e-78
-1.1420149e-82
-1.1594566e-80
-9.8312336e-85
-1.0397066e-82
-7.5922823e-87
-7.8687391e-85
-5.166719e-89
-4.8838718e-87
-3.0427713e-91
-3.8580988e-89
-1.4733774e-93
-2.704968e-91
-5.4163994e-96
-1.6080549e-93
-9.6840205e-99
-7.7663723e-96
-3.9579923e-98
2.7419232e-96
-1.3493013e-95
1.2379234e-93
-2.1366373e-93
2.5788979e-91
-3.4012988e-91
4.2449928e-89
-4.545126e-89
5.9488848e-87
-5.3497592e-87
7.3666532e-85
-5.7018509e-85
8.3852808e-83
-5.6881407e-83
8.8509875e-81
-5.3353975e-81
8.7933441e-79
-6.0601892e-79
8.9133449e-77
-7.7158714e-77
1.060434e-74
-1.0200751e-74
6.7676451e-73
-6.5290429e-73
7.124745e-72
-5.1620206e-72
2.9133721e-71
-1.2986245e-71
7.4825684e-71
-3.4347824e-71
1.4570819e-70
-6.2977402e-71
3.6464092e-70
-1.3828551e-70
9.6805441e-70
-3.5319554e-70
1.4628363e-69
-6.5588659e-70
1.2375884e-69
-5.702048e-70
4.0302847e-70
-2.699604e-70
1.7639067e-70
-6.1646752e-71
1.2655712e-69
-2.3532926e-70
6.078175e-68
-9.0294516e-69
3.2123263e-66
-4.1330911e-67
1.9886728e-63
-1.955302e-63
1.1949871e-60
-1.2707491e-61
4.7053355e-58
-4.8565285e-59
2.9632068e-56
-3.0658191e-57
7.0067724e-55
-2.301158e-56
4.1497727e-54
-3.3158213e-56
1.0461475e-52
1.7810153e-54
2.6794902e-49
1.4786675e-50
5.1002574e-49
5.032251e-50
1.7332301e-48
2.1181704e-49
3.8327289e-47
5.3868131e-48
9.6411372e-46
1.7370769e-46
2.1619911e-44
4.9038828e-45
4.2668674e-43
1.1989722e-43
7.3065368e-42
2.5192914e-42
1.0653173e-40
4.4896286e-41
1.2977608e-39
6.6913616e-40
1.3028151e-38
8.2690948e-39
1.060093e-37
8.4014289e-38
6.6289022e-37
6.7577797e-37
2.8348558e-36
3.9295888e-36
7.3163851e-36
1.4939754e-35
1.1556942e-35
3.7186852e-35
1.2871968e-35
7.6971878e-35
4.534796e-36
1.4170449e-34
-6.5612565e-36
1.4371876e-34
-8.4429455e-36
7.9554412e-35
-5.8900901e-36
3.8407383e-35
-2.3023731e-36
1.5166929e-35
-4.6783178e-37
3.7854967e-36
-4.9537612e-38
5.410004e-37
-2.8492343e-39
4.3185932e-38
-8.3976244e-41
1.9538185e-39
-1.2601442e-42
4.6437645e-41
-8.0865257e-45
5.6997917e-43
-2.3899236e-47
3.0101613e-45
-3.6302792e-50
7.327241e-48
-7.7814018e-52
9.2947243e-51
-2.84274e-51
3.1546218e-52
-1.6598663e-50
2.2206351e-51
-2.4571141e-50
4.86074e-51
-1.7263601e-50
4.4041918e-51
-6.530414e-54
1.3261411e-51
-1.4259031e-54
2.4063241e-55
-1.3466806e-55
1.321505e-56
-8.3291026e-57
-2.7522214e-57
-1.0265206e-58
-3.6049399e-58
-9.6518073e-61
-6.7635996e-60
-6.4962159e-63
-8.7317747e-62
-1.5839556e-65
-7.9730977e-64
-6.3673908e-68
-1.568725e-65
-1.4727667e-69
-9.0662072e-69
-7.1873049e-70
-3.451779e-70
-1.7537021e-69
-2.5501524e-70
-3.7352211e-69
-9.6623328e-70
-3.8620264e-69
-1.6190448e-69
-2.4515566e-69
-1.7151307e-69
-9.5653132e-70
-8.932989e-70
-4.0457454e-70
-3.6860946e-70
-2.0130313e-70
-1.7510953e-70
-7.3130657e-71
-9.1405448e-71
-1.7524594e-71
-3.2423472e-71
-1.9142489e-72
-1.391966e-71
-3.9384397e-74
-1.8518269e-72
-3.4871409e-76
-3.855529e-74
-3.3635994e-78
-3.2567513e-76
-3.1146845e-80
-2.7456572e-78
-2.6671862e-82
-1.8839383e-80
-2.0403106e-84
-1.8147164e-82
-1.3730788e-86
-1.5835291e-84
-7.9997463e-89
-1.238348e-86
-3.8330479e-91
-8.5477122e-89
-1.4091579e-93
-5.0786502e-91
-2.4155947e-96
-2.4381062e-93
-1.1928865e-95
5.6175639e-94
-3.2375038e-93
2.6235825e-91
-5.2984958e-91
5.5107531e-89
-8.544547e-89
9.1402013e-87
-1.1416729e-86
1.2937739e-84
-1.3612121e-84
1.6193007e-82
-1.4658168e-82
1.8651905e-80
-1.4788993e-80
1.9961091e-78
-1.404932e-78
2.0127293e-76
-1.2708003e-76
2.0633343e-74
-1.2516025e-74
2.4915441e-72
-2.2989729e-72
1.6185784e-70
-1.5335246e-70
1.7345841e-69
-8.7487607e-70
7.135516e-69
-3.6967445e-69
1.848342e-68
-9.8488584e-69
3.6586496e-68
-1.8284764e-68
9.4589558e-68
-4.1354757e-68
2.5402271e-67
-1.0805409e-67
3.6766756e-67
-1.9246048e-67
3.0701517e-67
-1.6507645e-67
1.0314388e-67
-7.8759752e-68
4.84136e-68
-1.9617521e-68
4.328664e-67
-9.0320429e-68
2.1649011e-65
-3.6793427e-66
1.263035e-63
-1.915063e-64
1.2546768e-60
-2.1722358e-61
6.3220681e-58
-1.2867953e-58
2.2624913e-55
-4.4882528e-56
1.2704705e-53
-2.3684866e-54
3.026166e-52
-2.2620122e-53
2.2701746e-51
-2.4966717e-53
8.8315937e-50
1.5826884e-51
1.3596817e-46
8.2445439e-48
2.4212058e-46
2.9568086e-47
4.0684953e-46
6.7995164e-47
5.1541593e-45
8.4767916e-46
1.2290018e-43
2.5292645e-44
2.6429184e-42
6.8511229e-43
4.9923254e-41
1.6041569e-41
8.1732672e-40
3.2229197e-40
1.1389341e-38
5.4880967e-39
1.3260728e-37
7.8152677e-38
1.2735456e-36
9.233942e-37
9.9465054e-36
8.9964827e-36
6.0282443e-35
7.0026028e-35
2.5395928e-34
4.0011414e-34
6.5459437e-34
1.5168174e-33
1.0295486e-33
3.7678942e-33
1.1321847e-33
7.6705348e-33
4.0731783e-34
1.4216173e-32
-5.6916118e-34
1.442586e-32
-7.4605711e-34
7.9228621e-33
-5.2382028e-34
3.8847723e-33
-2.0520633e-34
1.537604e-33
-4.2502702e-35
3.848181e-34
-4.7341688e-36
5.6176379e-35
-2.9879826e-37
4.7240664e-36
-1.0125442e-38
2.3468144e-37
-1.7891324e-40
6.4118574e-39
-1.4549718e-42
9.2641274e-41
-5.8898231e-45
6.2015245e-43
-1.9251953e-47
2.0682086e-45
-1.0830075e-48
5.82681e-48
-3.5702383e-48
5.0227085e-49
-1.4139088e-47
2.4729193e-48
-1.508432e-47
4.0503193e-48
-6.7042372e-48
3.0729297e-48
-5.6355352e-51
5.1658241e-49
-8.5816436e-52
2.2250388e-52
-5.9162529e-53
7.6783959e-54
-3.7375795e-54
-2.334951e-54
-4.5804608e-56
-1.7571181e-55
-4.4805186e-58
-3.3909265e-57
-3.631456e-60
-4.3822981e-59
-9.2415924e-63
-5.0898593e-61
-2.3361344e-65
-2.0221523e-63
-5.1874543e-67
-3.8292634e-66
-1.9170439e-67
-1.2909808e-67
-4.382336e-67
-7.5800386e-68
-9.3249432e-67
-2.8198121e-67
-9.7942327e-67
-4.7350942e-67
-6.4282517e-67
-5.0751373e-67
-2.4493597e-67
-2.7294106e-67
-1.0003359e-67
-1.088654e-67
-4.8757166e-68
-5.0091817e-68
-1.7510307e-68
-2.5703104e-68
-4.1403001e-69
-9.0314642e-69
-4.4431643e-70
-2.6502755e-69
-8.9877536e-72
-4.2651592e-70
-7.8453479e-74
-8.7123445e-72
-7.4874039e-76
-6.5106577e-74
-6.8595998e-78
-4.7504789e-76
-5.7916572e-80
-4.8484121e-78
-4.3753929e-82
-4.6090452e-80
-2.9106681e-84
-3.9700117e-82
-1.6753113e-86
-3.0540127e-84
-8.0296616e-89
-2.0969949e-86
-2.9106447e-91
-1.247631e-88
-4.8114426e-94
-5.8901664e-91
-2.7811437e-93
9.5700141e-92
-6.3098926e-91
4.6044672e-89
-1.0633092e-88
9.8255496e-87
-1.7412174e-86
1.6344992e-84
-2.3441671e-84
2.3363598e-82
-2.799364e-82
2.9562988e-80
-3.0580443e-80
3.4456233e-78
-3.1232111e-78
3.7363152e-76
-3.0057515e-76
3.8277069e-74
-2.7595411e-74
3.9986107e-72
-2.6030123e-72
4.9074456e-70
-4.2095478e-70
3.2463955e-68
-2.9830813e-68
3.5330808e-67
-2.0308081e-67
1.4504184e-66
-8.5575303e-67
3.8013835e-66
-2.2994222e-66
7.6529059e-66
-4.3313756e-66
2.0387144e-65
-1.0074289e-65
5.5209438e-65
-2.691862e-65
7.7615435e-65
-4.6319428e-65
6.4419475e-65
-3.9569986e-65
2.2352214e-65
-1.907493e-65
1.1250792e-65
-5.1855759e-66
1.1985702e-64
-2.7838257e-65
6.2398741e-63
-1.2010253e-63
4.1335142e-61
-7.4288331e-62
5.2684996e-58
-1.5663465e-58
2.298386e-55
-8.2105664e-56
5.192262e-53
-1.5369113e-53
1.6861484e-51
-6.2325266e-53
1.1566596e-49
-3.1612307e-50
9.8505416e-49
-1.5265594e-50
5.8152777e-47
9.6292733e-49
3.1720134e-44
1.7025172e-45
1.0709989e-43
1.4264194e-44
1.4656613e-43
2.8977928e-44
6.3248108e-43
1.2708573e-43
1.3126287e-41
2.9908958e-42
2.6958912e-40
7.7267507e-41
4.853938e-39
1.7280638e-39
7.5700836e-38
3.3115251e-38
1.0045795e-36
5.3741247e-37
1.1137245e-35
7.2888856e-36
1.0190874e-34
8.2053352e-35
7.6106748e-34
7.6400707e-34
4.4547304e-33
5.7346227e-33
1.8429688e-32
3.2099458e-32
4.7316768e-32
1.210348e-31
7.395515e-32
2.993327e-31
8.0218158e-32
5.9857885e-31
2.9428749e-32
1.1115821e-30
-3.9694114e-32
1.1285971e-30
-5.311086e-32
6.1785208e-31
-3.761007e-32
3.0801323e-31
-1.4797986e-32
1.2247021e-31
-3.1282651e-33
3.0790262e-32
-3.6685991e-34
4.5961627e-33
-2.5450002e-35
4.0747921e-34
-9.9034571e-37
2.2258146e-35
-2.0359431e-38
6.9764793e-37
-2.0863299e-40
1.1714044e-38
-1.1133625e-42
9.8735918e-41
-5.4148703e-45
4.3393915e-43
-9.5972767e-46
2.0140306e-45
-3.2283291e-45
4.9187991e-46
-8.7263422e-45
2.0554864e-45
-8.6658002e-45
2.682155e-45
-1.9335414e-45
1.6764786e-45
-3.869994e-48
1.5014671e-46
-4.0829318e-49
1.5426749e-49
-1.6714181e-50
2.6182774e-51
-1.2740148e-51
-5.6373572e-52
-1.5371567e-53
-6.7113907e-53
-1.4815559e-55
-1.2307348e-54
-1.2866621e-57
-1.6684342e-56
-3.3720644e-60
-3.6724116e-58
-7.0641153e-63
-1.0234171e-60
-1.5076668e-64
-1.310247e-63
-4.1915341e-65
-3.9926332e-65
-9.3651e-65
-1.8950357e-65
-1.96945e-64
-6.8404929e-65
-2.0871296e-64
-1.1450545e-64
-1.4017362e-64
-1.2359774e-64
-5.2209943e-65
-6.7897053e-65
-2.0612655e-65
-2.6229347e-65
-9.834221e-66
-1.1692764e-65
-3.4839581e-66
-5.8897345e-66
-8.1931099e-67
-2.0475178e-66
-8.6447628e-68
-4.7599079e-67
-1.7191962e-69
-8.176606e-68
-1.4780995e-71
-1.6329593e-69
-1.3904864e-73
-9.6884864e-72
-1.253769e-75
-1.00838e-73
-1.0435354e-77
-1.0135219e-75
-7.7776574e-80
-9.4758032e-78
-5.1057209e-82
-8.0341711e-80
-2.9338332e-84
-6.1274923e-82
-1.3960296e-86
-4.2276448e-84
-4.9713765e-89
-2.4793587e-86
-7.9593923e-92
-1.1504242e-88
-5.2634617e-91
1.393067e-89
-1.0326989e-88
6.8841262e-87
-1.7866335e-86
1.4897719e-84
-2.9659669e-84
2.5120699e-82
-4.0547415e-82
3.5976594e-80
-4.8540934e-80
4.6035463e-78
-5.3294237e-78
5.4302838e-76
-5.5124147e-76
5.9703746e-74
-5.3909113e-74
6.2129731e-72
-5.032488e-72
6.616564e-70
-4.8370756e-70
8.3019915e-68
-6.5090895e-68
5.5954772e-66
-4.9370052e-66
6.1472972e-65
-3.9636808e-65
2.51962e-64
-1.6656665e-64
6.6836388e-64
-4.511734e-64
1.3708253e-63
-8.6467498e-64
3.7565975e-63
-2.0658396e-63
1.027066e-62
-5.6450746e-63
1.409093e-62
-9.429084e-63
1.1712718e-62
-8.0598723e-63
4.1940154e-63
-3.925225e-63
2.2617515e-63
-1.1676661e-63
2.784808e-62
-7.140892e-63
1.5087122e-60
-3.243603e-61
1.1009072e-58
-2.1744016e-59
1.1660412e-55
-2.6066071e-56
2.6230195e-53
-2.3000354e-54
2.8342281e-51
-1.59246e-52
4.096358e-50
-5.188009e-51
1.443084e-47
-3.811852e-49
3.372985e-46
-7.3674729e-48
3.1754043e-44
4.0496892e-46
1.6263777e-42
7.7796005e-44
4.4752257e-41
6.2415454e-42
5.446344e-41
1.227462e-41
8.5401014e-41
2.3654236e-41
1.2012947e-39
3.0000693e-40
2.3415243e-38
7.2335337e-39
4.000975e-37
1.5399546e-37
5.9159331e-36
2.8048337e-36
7.4434241e-35
4.3226789e-35
7.826308e-34
5.565929e-34
6.7919968e-33
5.9459031e-33
4.8266541e-32
5.2666005e-32
2.7163077e-31
3.7955633e-31
1.0999583e-30
2.0743184e-30
2.8072155e-30
7.7619689e-30
4.3550254e-30
1.908447e-29
4.6555552e-30
3.7456131e-29
1.7414707e-30
6.9438295e-29
-2.2602259e-30
7.0546561e-29
-3.0951442e-30
3.8637441e-29
-2.2139953e-30
1.9597225e-29
-8.7598304e-31
7.8363634e-30
-1.8922513e-31
1.9809578e-30
-2.3410381e-32
3.0268251e-31
-1.7886163e-33
2.8344174e-32
-7.9478857e-35
1.7050299e-33
-1.8729041e-36
6.0927199e-35
-2.3302585e-38
1.1703754e-36
-1.6722214e-40
1.1959897e-38
-1.1136935e-42
7.0698395e-41
-6.9250273e-43
6.1013551e-43
-2.1714262e-42
3.8169538e-43
-4.4020634e-42
1.2958433e-42
-3.9733021e-42
1.4360006e-42
-5.0908374e-43
7.0257766e-43
-2.0904021e-45
3.9540605e-44
-1.5494551e-46
7.900502e-47
-1.4226718e-48
2.7959495e-49
-3.5470898e-49
-3.2938429e-50
-4.1919302e-51
-6.9844764e-50
-4.0294695e-53
-3.9327083e-52
-3.0439915e-55
-9.4605616e-54
-5.1410728e-58
-1.1184717e-55
-1.7954214e-60
-5.996029e-59
-3.7025371e-62
-3.7641942e-61
-8.1099669e-63
-1.0521414e-62
-1.7352378e-62
-4.1498885e-63
-3.5981814e-62
-1.4130007e-62
-3.8274293e-62
-2.3538536e-62
-2.6117548e-62
-2.5500868e-62
-9.5141622e-63
-1.4212936e-62
-3.634144e-63
-5.3198123e-63
-1.6961023e-63
-2.2985142e-63
-5.9208337e-64
-1.1351718e-63
-1.3868976e-64
-3.9012915e-64
-1.4446797e-65
-9.0413663e-65
-2.8254202e-67
-1.3401969e-65
-2.3905754e-69
-2.6089544e-67
-2.2037318e-71
-1.7608177e-69
-1.9543193e-73
-1.7963724e-71
-1.6011587e-75
-1.769708e-73
-1.1783159e-77
-1.6307024e-75
-7.7027092e-80
-1.3692635e-77
-4.4159441e-82
-1.0466647e-79
-2.0616118e-84
-7.1482964e-82
-7.2244432e-87
-4.1147977e-84
-1.1238811e-89
-1.8793746e-86
-8.357808e-89
1.7681696e-87
-1.4538519e-86
8.9534973e-85
-2.5763812e-84
1.9623885e-82
-4.3304608e-82
3.3615652e-80
-6.0121812e-80
4.8600778e-78
-7.2996154e-78
6.2407304e-76
-8.0138644e-76
7.441079e-74
-8.3633414e-74
8.2990543e-72
-8.2757934e-72
8.7832913e-70
-7.8610742e-70
9.5388061e-68
-7.7146235e-68
1.2292955e-65
-9.0737511e-66
8.4375486e-64
-7.2197621e-64
9.3278032e-63
-6.6603505e-63
3.8178794e-62
-2.791612e-62
1.0248663e-61
-7.6245303e-62
2.1443126e-61
-1.4873234e-61
6.0395195e-61
-3.6514944e-61
1.6659555e-60
-1.0180359e-60
2.2418645e-60
-1.660824e-60
1.8682453e-60
-1.4216423e-60
6.9032205e-61
-6.9899927e-61
3.9970536e-61
-2.2956423e-61
5.5776914e-60
-1.5648696e-60
3.1209609e-58
-7.4065632e-59
2.2188544e-56
-4.448299e-57
7.3772547e-54
-7.8534626e-55
5.5099433e-52
-5.3748912e-53
3.1498375e-50
-3.7719652e-51
9.02413e-48
-3.8976594e-48
1.483034e-46
-8.0083759e-48
9.4548179e-44
-3.0185377e-45
1.6516568e-41
1.0531077e-43
9.070128e-41
4.3006868e-42
1.6891111e-38
2.0910838e-39
1.9536604e-38
5.1662961e-39
1.8294045e-38
6.7640732e-39
9.7741443e-38
2.8509978e-38
1.7541347e-36
5.7324369e-37
2.8352275e-35
1.1563314e-35
3.9558452e-34
1.9945507e-34
4.6960217e-33
2.9073125e-33
4.6575483e-32
3.5372362e-32
3.8134404e-31
3.5684326e-31
2.5643898e-30
2.9910927e-30
1.3801122e-29
2.0587513e-29
5.4504002e-29
1.0943199e-28
1.3801903e-28
4.0558599e-28
2.1228254e-28
9.9031209e-28
2.2338374e-28
1.9055597e-27
8.5207494e-29
3.5133459e-27
-1.0597621e-28
3.5720088e-27
-1.490287e-28
1.9642209e-27
-1.0782452e-28
1.0145067e-27
-4.2941864e-29
4.0820043e-28
-9.4977644e-30
1.0381514e-28
-1.2433226e-30
1.6267228e-29
-1.0444183e-31
1.6134765e-30
-5.23614e-33
1.0664352e-31
-1.4021155e-34
4.2895195e-33
-2.115746e-36
9.3419063e-35
-2.1102739e-38
1.1559785e-36
-2.9416821e-40
9.5432177e-39
-3.2486667e-40
2.1320629e-40
-1.2058833e-39
2.6206715e-40
-1.833164e-39
6.5621089e-40
-1.3121806e-39
6.1612569e-40
-1.1470711e-40
2.0366362e-40
-8.8125696e-43
8.6308399e-42
-4.8807893e-44
2.9166841e-44
-4.3481947e-47
-2.798943e-46
-6.6324764e-47
-3.5700519e-48
-1.0677001e-48
-3.9251883e-47
-9.4854889e-51
-3.2371049e-49
-2.0204011e-53
-4.0720303e-51
-3.2214756e-56
-1.8284925e-54
-3.9314183e-58
-5.859843e-57
-7.8744876e-60
-9.1100853e-59
-1.4019217e-60
-2.4051205e-60
-2.8304255e-60
-7.9704903e-61
-5.7780907e-60
-2.5341806e-60
-6.1442326e-60
-4.1944368e-60
-4.2413862e-60
-4.5477337e-60
-1.5110416e-60
-2.5571119e-60
-5.5872756e-61
-9.2905461e-61
-2.5500826e-61
-3.889937e-61
-8.7678349e-62
-1.8830043e-61
-2.0449096e-62
-6.3942958e-62
-2.1118167e-63
-1.4771227e-62
-4.062984e-65
-1.8976061e-63
-3.3675869e-67
-3.589459e-65
-3.0386314e-69
-2.7504727e-67
-2.6463773e-71
-2.7358663e-69
-2.1428312e-73
-2.656531e-71
-1.5665723e-75
-2.4218625e-73
-1.0220099e-77
-2.0270182e-75
-5.7576557e-80
-1.5411287e-77
-2.6420906e-82
-1.0333781e-79
-9.1216678e-85
-5.8485106e-82
-1.382215e-87
-2.6322715e-84
-1.1405177e-86
1.9873547e-85
-1.7928853e-84
1.029321e-82
-3.2485753e-82
2.2825338e-80
-5.5231461e-80
3.9662951e-78
-7.7763948e-78
5.8325829e-76
-9.6000729e-76
7.5387543e-74
-1.0675648e-73
9.0562012e-72
-1.1167618e-71
1.0199979e-69
-1.115749e-69
1.0964303e-67
-1.0746122e-67
1.2153259e-65
-1.0749403e-65
1.6128719e-63
-1.3011239e-63
1.129194e-61
-9.1694472e-62
1.2532947e-60
-9.8074421e-61
5.123997e-60
-4.1006361e-60
1.3923125e-59
-1.1301892e-59
2.9699017e-59
-2.242194e-59
8.6045989e-59
-5.6644654e-59
2.3897284e-58
-1.6061702e-58
3.1680592e-58
-2.5722537e-58
2.6471514e-58
-2.2044346e-58
1.0112864e-58
-1.0969336e-58
6.295256e-59
-3.9627079e-59
9.8464402e-58
-3.0087626e-58
5.6401591e-56
-1.4640145e-56
3.5966388e-54
-8.0607331e-55
3.0148652e-52
-5.730678e-53
3.3346021e-50
-5.5451359e-51
5.6405697e-48
-8.2973101e-49
1.1352159e-45
-1.0234381e-46
2.813845e-44
-2.7853799e-45
2.2438215e-41
-9.775663e-43
5.7340626e-39
-1.0354915e-40
2.5778041e-38
1.0294559e-39
3.9081572e-36
3.6752549e-37
7.4797953e-36
1.93842e-36
5.9571378e-36
2.2145305e-36
8.5565974e-36
3.591074e-36
1.1440085e-34
3.9600417e-35
1.7450359e-33
7.4167288e-34
2.2859736e-32
1.2066075e-32
2.5476869e-31
1.6567772e-31
2.3711912e-30
1.8957973e-30
1.8203254e-29
1.7956626e-29
1.1499262e-28
1.4143058e-28
5.8766009e-28
9.2301024e-28
2.2514483e-27
4.7451662e-27
5.6406788e-27
1.736708e-26
8.5765036e-27
4.2001319e-26
8.8556817e-27
7.8956316e-26
3.445632e-27
1.4431774e-25
-4.0899127e-27
1.4685145e-25
-5.935815e-27
8.1308054e-26
-4.3570746e-27
4.2900559e-26
-1.7499578e-27
1.7405849e-26
-3.9751247e-28
4.4604265e-27
-5.5341149e-29
7.1900313e-28
-5.116993e-30
7.5913941e-29
-2.8752295e-31
5.5168482e-30
-8.7285226e-33
2.4801081e-31
-1.6183098e-34
6.1081132e-33
-2.3258489e-36
9.2741339e-35
-9.9691607e-38
1.1277171e-36
-1.6555654e-37
7.4902115e-38
-5.7361134e-37
1.6184164e-37
-5.825551e-37
2.6229684e-37
-2.0044909e-37
1.9305955e-37
-1.3026414e-38
2.4930975e-38
-3.0469387e-40
9.0410918e-40
-1.2496108e-41
7.7934547e-42
-9.3403993e-45
-2.0501267e-43
-6.1053434e-45
-6.97441e-46
-2.5964005e-46
-4.1418051e-46
-7.4025209e-49
-1.4783873e-46
-4.7358737e-52
-6.5113857e-50
-5.3902191e-54
-8.377523e-53
-7.5403211e-56
-1.1913865e-54
-1.4800697e-57
-1.9606809e-56
-2.1607698e-58
-4.9164059e-58
-4.1097829e-58
-1.3521922e-58
-8.2531816e-58
-4.0019748e-58
-8.7428717e-58
-6.573754e-58
-6.0791725e-58
-7.1164703e-58
-2.1219197e-58
-4.0183346e-58
-7.5948109e-59
-1.4209325e-58
-3.3910076e-59
-5.7628905e-59
-1.1482343e-59
-2.7353491e-59
-2.6659959e-60
-9.173357e-60
-2.7367519e-61
-2.1122307e-60
-5.1830093e-63
-2.3989754e-61
-4.1925594e-65
-4.2634296e-63
-3.697686e-67
-3.7473169e-65
-3.1817645e-69
-3.6568277e-67
-2.5520824e-71
-3.5071518e-69
-1.8564039e-73
-3.1688741e-71
-1.1953099e-75
-2.644344e-73
-6.6136037e-78
-1.9770793e-75
-2.9869768e-80
-1.3023523e-77
-1.0168646e-82
-7.2559649e-80
-1.5036346e-85
-3.2206704e-82
-1.362037e-84
2.0021504e-83
-1.9643499e-82
1.0591628e-80
-3.6341514e-80
2.3744183e-78
-6.2449903e-78
4.1804629e-76
-8.9070011e-76
6.2439295e-74
-1.1165115e-73
8.2139479e-72
-1.2636316e-71
9.9316082e-70
-1.3361888e-69
1.1293776e-67
-1.3432684e-67
1.2295457e-65
-1.3104228e-65
1.3882541e-63
-1.3351813e-63
1.8930776e-61
-1.6599997e-61
1.3561351e-59
-1.1328181e-59
1.5087751e-58
-1.2829508e-58
6.1629863e-58
-5.3517862e-58
1.6953362e-57
-1.4888289e-57
3.6845084e-57
-3.0026793e-57
1.0994056e-56
-7.8154056e-57
3.0673e-56
-2.2473884e-56
4.0180493e-56
-3.5463635e-56
3.3665783e-56
-3.0438172e-56
1.3332213e-56
-1.5331108e-56
8.8502983e-57
-6.0535467e-57
1.5687832e-55
-5.339712e-56
9.1499991e-54
-2.6682235e-54
5.713402e-52
-1.4775739e-52
4.9301732e-50
-1.1305104e-50
5.8337895e-48
-1.2991839e-48
9.0936266e-46
-2.239566e-46
2.7667843e-43
-2.7397621e-43
7.3174525e-42
-9.8497562e-43
4.3635493e-39
-2.3587803e-40
8.0973517e-37
-1.6939977e-38
6.3500307e-36
1.6006453e-37
5.5645915e-34
4.0412486e-35
2.2517399e-33
5.4845856e-34
1.9391334e-33
7.5224631e-34
1.3698229e-33
6.8214825e-34
6.6622227e-33
2.6299245e-33
9.3988076e-32
4.117206e-32
1.1523591e-30
6.2846837e-31
1.1982557e-29
8.0860056e-30
1.0401054e-28
8.6534717e-29
7.4358897e-28
7.6467304e-28
4.3733555e-27
5.6101772e-27
2.1002304e-26
3.4347301e-26
7.7438504e-26
1.6929652e-25
1.9113085e-25
6.0917757e-25
2.8596004e-25
1.4539134e-24
2.8855173e-25
2.6561742e-24
1.151004e-25
4.8242558e-24
-1.2923612e-25
4.9150277e-24
-1.9466448e-25
2.7314861e-24
-1.4563095e-25
1.4791568e-24
-5.9160448e-26
6.069778e-25
-1.3881414e-26
1.5712044e-25
-2.0741913e-27
2.6215885e-26
-2.1187626e-28
2.9739462e-27
-1.330083e-29
2.3837955e-28
-4.5986385e-31
1.1934092e-29
-1.0864002e-32
3.3397985e-31
-2.4505518e-34
6.4657495e-33
-3.618699e-35
1.3397903e-34
-8.4769174e-35
2.7693469e-35
-1.9937474e-34
7.4237565e-35
-1.8251053e-34
9.0420481e-35
-2.3258693e-36
4.5610452e-35
-5.1851224e-37
2.6822623e-37
-9.8642277e-38
3.593967e-38
-2.5698284e-39
1.5477022e-39
-2.1441945e-42
-7.7090212e-41
-8.3787544e-44
-3.2941136e-43
-1.2179437e-44
-1.4346123e-44
-1.1040644e-47
-9.1161824e-46
-8.2129789e-50
-1.4416967e-48
-9.9035164e-52
-1.8385451e-50
-1.3140144e-53
-2.6354212e-52
-2.5018329e-55
-3.6172237e-54
-2.9948016e-56
-8.5964205e-56
-5.3574783e-56
-2.0462439e-56
-1.058074e-55
-5.623183e-56
-1.1133811e-55
-9.1626311e-56
-7.7747942e-56
-9.8846603e-56
-2.6640646e-56
-5.5874767e-56
-9.2277953e-57
-1.927928e-56
-4.0330829e-57
-7.5696962e-57
-1.3450713e-57
-3.5249176e-57
-3.1091168e-58
-1.167383e-57
-3.1821005e-59
-2.6795925e-58
-5.9304501e-61
-2.7172153e-59
-4.6677678e-63
-5.2791587e-61
-4.0510066e-65
-4.542641e-63
-3.4427122e-67
-4.3617466e-65
-2.737575e-69
-4.1319904e-67
-1.9723253e-71
-3.718023e-69
-1.246285e-73
-3.0549349e-71
-6.7812483e-76
-2.2420669e-73
-3.017487e-78
-1.4526947e-75
-1.0135585e-80
-7.9752273e-78
-1.4645205e-83
-3.4931035e-80
-1.4437921e-82
1.8257276e-81
-1.9339065e-80
9.8539998e-79
-3.6491591e-78
2.2317742e-76
-6.3339967e-76
3.9775015e-74
-9.142984e-74
6.0269964e-72
-1.1624976e-71
8.0620401e-70
-1.3374985e-69
9.9061873e-68
-1.4392772e-67
1.136536e-65
-1.4615628e-65
1.2531476e-63
-1.4411916e-63
1.4414129e-61
-1.496348e-61
2.0170443e-59
-1.9088895e-59
1.4736504e-57
-1.32779e-57
1.6426321e-56
-1.5070288e-56
6.7039321e-56
-6.2725935e-56
1.8663587e-55
-1.7603964e-55
4.1319441e-55
-3.6090615e-55
1.2711235e-54
-9.6926371e-55
3.5553148e-54
-2.818938e-54
4.6128332e-54
-4.3946009e-54
3.8784134e-54