/*--------------------------------*- C++ -*----------------------------------*\
  =========                 |
  \\      /  F ield         | OpenFOAM: The Open Source CFD Toolbox
   \\    /   O peration     | Website:  https://openfoam.org
    \\  /    A nd           | Version:  9
     \\/     M anipulation  |
\*---------------------------------------------------------------------------*/
FoamFile
{
    format      ascii;
    class       volScalarField;
    location    "0.26";
    object      alpha.phase1;
}
// * * * * * * * * * * * * * * * * * * * * * * * * * * * * * * * * * * * * * //

dimensions      [0 0 0 0 0 0 0];

internalField   nonuniform List<scalar> 
10000
(
1.0616634e-98
1.0616634e-98
3.3481295e-97
5.9241131e-95
8.9791701e-93
1.2198177e-90
1.4897717e-88
1.7338281e-86
1.8732513e-84
1.7470183e-82
1.4862318e-80
1.8765944e-78
1.6771335e-76
2.6588559e-75
1.4126723e-74
4.2890005e-74
9.1346312e-74
2.8238058e-73
2.0502486e-73
1.1691472e-73
1.1077583e-73
1.1077583e-73
2.779158e-73
3.4242956e-71
3.4875868e-69
3.1087365e-67
3.394615e-65
4.5535097e-63
9.078667e-61
5.2207668e-58
1.6506305e-56
4.3436248e-56
7.3073617e-55
2.8310623e-54
4.2868338e-53
1.3427207e-51
3.9906127e-50
1.0743055e-48
2.5930733e-47
5.5270692e-46
1.017293e-44
1.5877918e-43
2.0992121e-42
2.3462041e-41
2.128209e-40
1.4960333e-39
8.2678284e-39
3.6535276e-38
1.2207962e-37
2.9396144e-37
2.9726849e-37
1.2569081e-37
3.6930142e-38
7.9927442e-39
1.300338e-39
1.5003538e-40
1.0540679e-41
3.8264702e-43
6.3631832e-45
4.4521846e-47
2.0283587e-49
1.884728e-52
1.2612067e-55
4.7308856e-58
1.3251631e-57
1.6703055e-56
4.8606653e-56
6.1251599e-56
3.8502717e-56
4.1068149e-57
1.8604755e-58
3.6573819e-61
4.5549398e-63
5.0144731e-65
3.8773979e-67
2.9448455e-69
3.1179693e-71
3.165437e-73
2.5664979e-73
2.5664979e-73
2.7605905e-73
4.7029301e-73
5.5207174e-73
1.8876909e-73
8.8718366e-74
2.8765643e-74
5.6482824e-75
4.1401429e-76
5.7419312e-78
4.4450342e-80
5.3992858e-82
5.3262342e-84
4.658063e-86
3.5821643e-88
2.4450692e-90
1.4924393e-92
7.8228029e-95
3.4596829e-97
1.0474468e-98
1.0474468e-98
1.1235125e-98
8.3116476e-97
8.874321e-95
5.7110191e-93
3.515666e-91
3.3150027e-89
3.1893851e-87
2.9753525e-85
2.6618352e-83
2.3864212e-81
2.3783433e-79
1.4707581e-77
3.0347773e-76
3.2488865e-75
1.5607872e-74
4.5574996e-74
9.6981818e-74
2.9157363e-73
1.985826e-72
2.4671861e-72
1.4075172e-72
2.6388749e-73
3.6582437e-73
3.9409326e-71
4.0044155e-69
1.0780034e-68
2.7896461e-66
1.0322489e-63
2.9695941e-61
7.9274201e-58
1.7032921e-56
6.6372379e-56
9.0337817e-53
6.4358705e-52
1.3105803e-50
3.9533566e-49
1.1085137e-47
2.8077774e-46
6.3492151e-45
1.2639383e-43
2.1750312e-42
3.1780055e-41
3.8946132e-40
3.9490896e-39
3.1518731e-38
1.7795875e-37
6.4078438e-37
1.5197905e-36
3.1488742e-36
5.4902287e-36
5.5399514e-36
3.2222547e-36
1.5447935e-36
6.3411986e-37
1.6552385e-37
2.3899773e-38
1.822155e-39
7.3402216e-41
1.4163265e-42
1.3284038e-44
5.3412577e-47
5.994626e-50
2.4168333e-53
1.5521148e-55
2.9550399e-54
1.3954318e-53
2.1208414e-53
1.3106677e-53
2.7217652e-56
4.8457781e-57
2.4901329e-58
2.487082e-60
7.7110521e-64
7.2100735e-66
2.6395604e-68
2.0247344e-70
3.5507627e-71
8.5660573e-73
1.2249301e-72
4.7668963e-72
5.835037e-72
3.9475473e-72
5.8017224e-73
2.0854031e-73
9.6326442e-74
3.2794216e-74
7.1508195e-75
7.6705132e-76
4.4359946e-77
9.0763983e-79
9.5485792e-81
1.045609e-82
1.085282e-84
1.0534388e-86
9.5629631e-89
8.6093175e-91
1.2348815e-92
1.511161e-94
1.0788129e-96
1.1068743e-98
7.0286849e-96
5.0463995e-94
6.608527e-92
6.9972668e-90
6.029766e-88
4.0260278e-86
2.341312e-84
1.8036799e-82
1.4381954e-80
1.2254646e-78
1.2256308e-76
7.2954043e-75
8.6376077e-74
1.4659421e-72
9.285208e-72
2.4588447e-71
4.6669395e-71
1.5288787e-70
8.5472225e-70
1.0053024e-69
5.6842747e-70
9.943948e-71
1.6538259e-70
7.7135292e-69
4.2817653e-67
2.823079e-66
1.2624698e-63
7.6774378e-59
8.7241005e-57
3.5161366e-55
1.9778344e-54
3.0389978e-53
1.0723945e-49
3.6451992e-49
3.0344173e-48
8.0567001e-47
2.1792418e-45
5.3204134e-44
1.1573122e-42
2.2127807e-41
3.6554596e-40
5.1318566e-39
6.0517743e-38
5.9216191e-37
4.6012048e-36
2.573804e-35
9.3620956e-35
2.2483753e-34
4.6129713e-34
8.2593397e-34
8.3377681e-34
4.7140499e-34
2.2795114e-34
9.2479459e-35
2.391509e-35
3.5047188e-36
2.8076321e-37
1.238648e-38
2.7591029e-40
3.1116362e-42
1.5509616e-44
2.6160698e-47
1.9783955e-50
2.7458199e-52
3.8834695e-51
1.4679102e-50
2.0506387e-50
1.1657799e-50
2.2086746e-54
6.8400922e-55
6.5213793e-56
3.0457293e-57
2.4649171e-59
2.2150136e-62
7.7479914e-66
2.6960435e-68
6.6637769e-69
3.5507323e-70
5.2403675e-70
1.9681545e-69
2.4239387e-69
1.6987663e-69
2.3951071e-70
9.4018973e-71
4.7484211e-71
1.6796168e-71
1.775512e-72
2.092978e-73
2.1189452e-74
4.5985956e-76
4.7504016e-78
5.3504405e-80
6.0545059e-82
7.1565087e-84
1.1069615e-85
1.4802387e-87
1.4368207e-89
1.0677939e-91
6.2482545e-94
6.7969486e-96
2.0730941e-93
1.9905084e-91
2.5102356e-89
2.9574606e-87
2.9926997e-85
2.6472584e-83
2.0997845e-81
1.4024156e-79
7.7712949e-78
5.4218746e-76
4.7706588e-74
2.8275121e-72
4.4706857e-71
8.8985157e-70
3.9599536e-69
9.4881823e-69
2.2109631e-68
7.0738201e-68
2.6974634e-67
3.0721889e-67
1.7420653e-67
3.3573427e-68
9.9224229e-68
4.938514e-66
2.7114902e-64
2.5347217e-63
1.436004e-58
9.024589e-56
7.179858e-54
2.0244037e-52
1.3355242e-51
3.2185864e-50
1.0752899e-46
2.2387739e-46
6.6387685e-46
1.2857681e-44
3.3256137e-43
7.7998566e-42
1.6270454e-40
2.9807195e-39
4.7163975e-38
6.3407145e-37
7.1683324e-36
6.7481603e-35
5.0890417e-34
2.8051797e-33
1.0215935e-32
2.4600522e-32
4.9749047e-32
9.0345909e-32
9.123175e-32
5.0770968e-32
2.4876496e-32
1.0068772e-32
2.6010623e-33
3.8868078e-34
3.2791178e-35
1.5857247e-36
4.0774966e-38
5.4874064e-40
3.2250067e-42
8.8780039e-45
1.2983676e-47
4.9935466e-49
4.5031624e-48
1.2489646e-47
1.5184849e-47
6.690162e-48
2.1910756e-51
4.8993653e-52
3.9656001e-53
2.045531e-54
2.0563051e-56
1.45974e-58
4.1039752e-61
2.2695908e-65
4.2429764e-66
1.5047866e-67
1.6100489e-67
5.8366748e-67
7.3855887e-67
5.4182818e-67
1.1244015e-67
4.0058577e-68
1.869303e-68
7.4419982e-69
1.4029558e-69
9.1910101e-71
7.9219931e-72
1.6965606e-73
1.8319225e-75
2.4324735e-77
3.6409119e-79
6.0920912e-81
7.3384422e-83
7.1994518e-85
5.8116435e-87
3.6785129e-89
2.4582565e-91
1.9609584e-93
4.7012539e-91
5.3378989e-89
6.7140743e-87
8.1337182e-85
8.8526608e-83
8.4719797e-81
7.4701302e-79
5.9815447e-77
4.1023002e-75
2.1552998e-73
1.480702e-71
8.569127e-70
1.9321545e-68
2.9176998e-67
1.1483972e-66
2.6471588e-66
6.4576251e-66
2.150316e-65
6.861954e-65
7.5749896e-65
4.3228921e-65
9.190555e-66
3.838562e-65
2.0326274e-63
1.1943872e-61
1.387814e-58
1.15434e-55
5.556726e-53
3.5869727e-51
8.4219838e-50
6.9313085e-49
2.6283963e-47
5.2517846e-44
1.1344436e-43
1.824082e-43
1.72036e-42
4.1012528e-41
9.2012904e-40
1.8340995e-38
3.2077274e-37
4.8447346e-36
6.2188309e-35
6.7195874e-34
6.0647617e-33
4.4252423e-32
2.3966328e-31
8.7018852e-31
2.0907644e-30
4.1575531e-30
7.599714e-30
7.6764836e-30
4.2373488e-30
2.1081272e-30
8.5505115e-31
2.2145153e-31
3.3798305e-32
3.0035637e-33
1.5947672e-34
4.7144092e-36
7.4717032e-38
5.5691138e-40
2.1036993e-42
6.8475875e-45
6.8464186e-46
4.2516211e-45
8.8223366e-45
9.0375219e-45
2.2412574e-45
1.7715675e-48
2.7553776e-49
1.7143355e-50
9.1383512e-52
9.4791676e-54
7.8177149e-56
5.2311266e-58
1.1491419e-60
1.6423107e-63
4.8647805e-65
4.0411473e-65
1.4083379e-64
1.8129668e-64
1.3715726e-64
3.4958551e-65
1.1726663e-65
5.2435191e-66
2.1783435e-66
4.9048053e-67
3.3749432e-68
2.2878261e-69
4.8426353e-71
5.9705104e-73
1.1146225e-74
1.7726762e-76
2.2122296e-78
2.3105734e-80
2.0369296e-82
1.4276645e-84
1.0449397e-86
6.4482963e-89
4.3474218e-91
8.6498704e-89
1.0937166e-86
1.5073244e-84
1.6553392e-82
1.9068528e-80
1.9276612e-78
1.7912302e-76
1.5187823e-74
1.1554031e-72
7.5917979e-71
3.7775088e-69
2.1235268e-67
6.3726222e-66
6.8548582e-65
2.59085e-64
5.8401686e-64
1.467974e-63
4.9637228e-63
1.4549504e-62
1.5629106e-62
9.0051163e-63
2.1109137e-63
1.1056911e-62
6.2005364e-61
4.7745724e-59
1.0760141e-55
5.9727484e-53
1.4770769e-50
4.8898074e-49
3.3910709e-47
2.8701087e-46
1.6744914e-44
1.0148734e-41
4.9231897e-41
6.895993e-41
2.2668776e-40
4.2318518e-39
9.0070248e-38
1.7080014e-36
2.8409561e-35
4.0805076e-34
4.981306e-33
5.1223804e-32
4.4146227e-31
3.1042578e-30
1.6460114e-29
5.9412748e-29
1.4205713e-28
2.7738267e-28
5.0791774e-28
5.1319943e-28
2.823098e-28
1.4278584e-28
5.8180199e-29
1.5139474e-29
2.3634022e-30
2.2151332e-31
1.2938748e-32
4.3918431e-34
8.1002928e-36
7.6158262e-38
3.799949e-40
2.0474859e-42
5.8668106e-43
3.081217e-42
5.1379215e-42
4.3655858e-42
5.8665425e-43
1.1494063e-45
1.2297837e-46
4.8506781e-48
2.9950415e-49
3.1309425e-51
2.6684624e-53
2.534559e-55
7.4568591e-58
5.1643687e-61
1.2233607e-62
7.9872228e-63
2.8966206e-62
3.7223802e-62
2.8803907e-62
8.3142384e-63
2.6633758e-63
1.1570532e-63
4.889168e-64
1.1907293e-64
1.1043273e-65
5.3867511e-67
1.1321036e-68
1.6848518e-70
3.4604011e-72
4.6250354e-74
5.2086994e-76
4.9302553e-78
3.8393114e-80
2.9688066e-82
2.2963991e-84
1.2917711e-86
7.8146668e-89
1.3376634e-86
1.8257505e-84
2.6593237e-82
3.0347857e-80
3.132529e-78
3.3681805e-76
3.2790718e-74
2.9281107e-72
2.3404343e-70
1.6952352e-68
7.9389002e-67
4.4097302e-65
1.3968801e-63
1.2905188e-62
4.776573e-62
1.0740023e-61
2.7429151e-61
9.6189282e-61
2.6021108e-60
2.78521e-60
1.6213301e-60
4.166323e-61
2.5234114e-60
1.5191348e-58
1.5373942e-56
3.1003088e-53
7.4407151e-51
8.3324155e-49
9.4554822e-48
4.0992082e-45
8.9992475e-44
8.9006296e-42
4.5887075e-40
2.0153366e-38
2.6735122e-38
3.8105561e-38
3.7886973e-37
7.4721112e-36
1.3413224e-34
2.1116555e-33
2.8715859e-32
3.3208405e-31
3.2353602e-30
2.6493468e-29
1.7869132e-28
9.2425396e-28
3.3079891e-27
7.8579754e-27
1.5050987e-26
2.7502257e-26
2.779803e-26
1.5295905e-26
7.8713785e-27
3.2263289e-27
8.4452332e-28
1.3502567e-28
1.3377037e-29
8.6131518e-31
3.3376782e-32
7.057022e-34
8.0656882e-36
5.4296726e-38
5.4836354e-40
4.0628322e-40
1.7346918e-39
2.4868907e-39
1.6738884e-39
1.4517335e-40
5.9002235e-43
4.3847565e-44
4.3746586e-46
8.7929654e-47
8.0330428e-49
7.7886745e-51
7.9427845e-53
1.2478064e-55
1.2707749e-58
2.5694757e-60
1.4180034e-60
5.1242825e-60
6.5619708e-60
5.1698011e-60
1.6204276e-60
4.9734885e-61
2.1198103e-61
8.9806693e-62
2.2802903e-62
2.5810221e-63
1.0629243e-64
2.2215076e-66
4.3814309e-68
7.21803e-70
8.7760693e-72
8.8612605e-74
7.7420913e-76
6.3646148e-78
5.6418196e-80
3.9640774e-82
2.1066943e-84
1.1798224e-86
1.7829366e-84
2.5790478e-82
3.9027524e-80
4.7195156e-78
4.7282582e-76
4.6608246e-74
4.6509092e-72
4.4282031e-70
3.772028e-68
2.8933086e-66
1.5372798e-64
7.65776e-63
2.430445e-61
2.0486454e-60
7.4510404e-60
1.7000829e-59
4.3641648e-59
1.5963105e-58
4.0504937e-58
4.3332686e-58
2.5402781e-58
7.2089297e-59
4.6893221e-58
3.0215219e-56
3.1381257e-54
1.9149981e-51
1.3768133e-49
6.1750264e-48
2.1069005e-45
3.4679004e-44
2.3329261e-41
4.8630102e-39
2.6658174e-38
6.5810431e-36
1.0620979e-35
1.0056637e-35
3.2732539e-35
5.3352922e-34
9.0086325e-33
1.3359263e-31
1.7116953e-30
1.8652954e-29
1.7128506e-28
1.3254015e-27
8.5274014e-27
4.2852324e-26
1.5175162e-25
3.576622e-25
6.7119406e-25
1.2191813e-24
1.2327697e-24
6.8097065e-25
3.5687599e-25
1.4724194e-25
3.8799662e-26
6.3665558e-27
6.6867267e-28
4.7365544e-29
2.0698281e-30
4.9741607e-32
6.9064593e-34
6.5200415e-36
1.7105877e-37
2.5412434e-37
8.0101306e-37
9.8850571e-37
4.5858276e-37
3.1142039e-38
2.3753718e-40
1.2960737e-41
2.1290948e-44
3.4004469e-44
2.0654804e-46
2.3458215e-48
5.3016297e-51
3.7998609e-54
2.5426834e-56
4.4796429e-58
2.3132881e-58
7.9346795e-58
1.0121316e-57
8.1044915e-58
2.7137648e-58
7.9057348e-59
3.3361668e-59
1.4026212e-59
3.6491598e-60
4.6130649e-61
1.8178997e-62
3.7729215e-64
8.0183851e-66
1.1484897e-67
1.2415898e-69
1.2159166e-71
1.099541e-73
1.0364609e-75
8.5863853e-78
5.6881423e-80
2.9051465e-82
1.534005e-84
2.0868526e-82
3.1621635e-80
4.9241231e-78
6.1981029e-76
6.5994956e-74
5.989221e-72
5.7352106e-70
5.3882558e-68
4.7798958e-66
3.8528587e-64
2.4755872e-62
1.184721e-60
3.5666398e-59
2.8230454e-58
1.017765e-57
2.35241e-57
6.0569763e-57
2.3048796e-56
5.5775834e-56
5.9609324e-56
3.5167968e-56
1.1247716e-56
7.1159394e-56
4.8578823e-54
4.0785525e-52
3.9261986e-50
4.9950601e-48
1.0077692e-45
1.3127981e-43
5.1658129e-42
5.2386102e-39
1.6523282e-36
7.446206e-36
1.1811559e-33
3.8706074e-33
3.1055122e-33
3.8224672e-33
3.3664972e-32
5.2306435e-31
7.2667355e-30
8.7303906e-29
8.9200713e-28
7.6741501e-27
5.5711018e-26
3.3942825e-25
1.6477271e-24
5.7551496e-24
1.3421301e-23
2.4588226e-23
4.4249112e-23
4.476228e-23
2.4895018e-23
1.3328765e-23
5.5475363e-24
1.4740304e-24
2.4902735e-25
2.7868451e-26
2.1734982e-27
1.0637624e-28
2.8993816e-30
4.9582283e-32
6.9306107e-34
5.4101513e-35
1.4505007e-34
2.9754064e-34
2.9374183e-34
5.7074677e-35
3.3942051e-36
7.8856861e-38
3.1027346e-39
3.1708003e-42
2.3810196e-42
6.5718125e-44
1.9195044e-46
5.1211835e-50
3.6389475e-52
3.769679e-54
6.3194846e-56
3.3560082e-56
1.0909405e-55
1.3850255e-55
1.1244385e-55
3.9410152e-56
1.0959502e-56
4.5937395e-57
1.9131667e-57
5.0454898e-58
6.8508002e-59
2.6724212e-60
5.7076923e-62
1.1390429e-63
1.3928442e-65
1.5206781e-67
1.5083084e-69
1.5031487e-71
1.4161862e-73
1.1032468e-75
7.0122453e-78
3.474616e-80
1.7500158e-82
2.1760492e-80
3.4273165e-78
5.4600478e-76
7.0839554e-74
7.8662325e-72
7.5689282e-70
6.6189282e-68
6.0153923e-66
5.2886816e-64
4.2630461e-62
2.87055e-60
1.714158e-58
4.5711097e-57
3.4469358e-56
1.2415244e-55
2.8943473e-55
7.4728511e-55
2.9464033e-54
6.8784283e-54
7.3292193e-54
4.3795758e-54
1.5462923e-54
8.8232893e-54
6.2680435e-52
4.84923e-50
4.8995868e-48
7.9320151e-46
1.710024e-43
3.781289e-43
1.0453046e-39
9.5513171e-37
2.132676e-34
1.6671148e-33
1.4525523e-31
1.1035883e-30
1.0205697e-30
6.8250819e-31
2.0650553e-30
2.6541776e-29
3.4319895e-28
3.8429116e-27
3.6596653e-26
2.9309251e-25
1.9789707e-24
1.1297667e-23
5.2517215e-23
1.8006541e-22
4.137377e-22
7.3566508e-22
1.3142372e-21
1.3305066e-21
7.4285445e-22
4.0841029e-22
1.7207884e-22
4.6232333e-23
8.0914216e-24
9.7369418e-25
8.3875128e-26
4.5817732e-27
1.4235029e-28
3.1166523e-30
7.4783143e-32
1.8337059e-32
6.1963083e-32
9.7644508e-32
6.7272321e-32
6.3267426e-34
1.501163e-34
2.6249035e-35
5.9557174e-37
3.7035398e-40
1.7679741e-41
3.3163131e-42
2.0359149e-45
5.4558714e-48
4.7286071e-50
4.3625091e-52
6.9736919e-54
4.3736732e-54
1.3453719e-53
1.7e-53
1.3972657e-53
5.0543317e-54
1.3489037e-54
5.6295867e-55
2.3264889e-55
6.1612008e-56
8.8138284e-57
3.7914652e-58
8.1144434e-60
1.2772389e-61
1.5575975e-63
1.7056788e-65
1.767411e-67
1.872984e-69
1.6526595e-71
1.2329156e-73
7.5922016e-76
3.6707324e-78
1.7770953e-80
2.0446603e-78
3.329401e-76
5.4057158e-74
7.1854901e-72
8.2388321e-70
8.2889436e-68
7.459452e-66
6.3009371e-64
5.4395185e-62
4.4267864e-60
3.152409e-58
2.2201665e-56
5.229585e-55
3.7869451e-54
1.3661639e-53
3.2088379e-53
8.2916282e-53
3.3789308e-52
7.6709881e-52
8.1513101e-52
4.9211505e-52
1.8891635e-52
8.6038377e-52
6.4598513e-50
5.2149304e-48
6.6631981e-46
1.315611e-43
2.1850207e-41
5.4709871e-41
8.0659347e-38
1.4649647e-34
4.0757619e-33
3.275517e-31
2.5322833e-30
2.3607135e-28
2.8818461e-28
1.601105e-28
1.706376e-28
1.2009777e-27
1.4150698e-26
1.4679095e-25
1.2948434e-24
9.5845094e-24
5.9639426e-23
3.1450059e-22
1.384006e-21
4.6670228e-21
1.0746574e-20
1.8892602e-20
3.3779088e-20
3.4227814e-20
1.9027634e-20
1.0541443e-20
4.4148228e-21
1.1924036e-21
2.1810169e-22
2.8622075e-23
2.7370291e-24
1.6676346e-25
6.0069559e-27
1.7983287e-28
9.0709867e-30
6.1063049e-30
2.2139789e-29
3.1702007e-29
1.9789683e-29
1.6378258e-32
1.0391831e-32
7.5340185e-33
9.1827657e-35
3.2462078e-38
1.9477494e-39
1.3162305e-41
8.3355658e-44
6.7825642e-46
5.1473379e-48
3.5124227e-50
5.2159666e-52
5.1920179e-52
1.4995237e-51
1.8880091e-51
1.5696615e-51
5.805669e-52
1.4941932e-52
6.2098397e-53
2.5493099e-53
6.7516327e-54
1.0061843e-54
5.0014201e-56
9.1195894e-58
1.339877e-59
1.6141898e-61
1.8036756e-63
2.035895e-65
2.0097238e-67
1.6938011e-69
1.2221647e-71
7.3349881e-74
3.4730717e-76
1.6247495e-78
1.747278e-76
2.9303919e-74
4.8364402e-72
6.5601909e-70
7.7197433e-68
8.036252e-66
7.5879967e-64
6.3948936e-62
5.2331978e-60
4.3243303e-58
3.3038841e-56
2.5256165e-54
5.4198938e-53
3.7898814e-52
1.3674815e-51
3.2346282e-51
8.3734988e-51
3.5139243e-50
7.798049e-50
8.2627427e-50
5.0244751e-50
2.0715341e-50
5.1203502e-50
4.1649722e-48
3.5629712e-46
5.4610209e-44
8.8943682e-42
7.6611802e-40
7.5515971e-39
9.7217136e-37
2.5149201e-32
5.1667366e-32
3.6126171e-29
2.2183369e-29
4.9588355e-26
7.3666385e-26
4.5896717e-26
2.018479e-26
5.3665119e-26
5.1593647e-25
4.9202905e-24
3.9903615e-23
2.7054004e-22
1.5389338e-21
7.433202e-21
3.0738615e-20
1.039414e-19
2.6091534e-19
5.0152686e-19
8.6752664e-19
8.7594789e-19
5.0562587e-19
2.5614713e-19
9.7513505e-20
2.5801754e-20
4.9544167e-21
7.135262e-22
7.5855871e-23
5.1881605e-24
2.2548112e-25
1.0096369e-26
1.3771645e-27
1.9361295e-27
6.2692361e-27
8.2659559e-27
4.6631594e-27
1.3959803e-30
6.299971e-31
1.1016187e-30
1.1266039e-32
2.2490072e-37
6.4752651e-38
1.2105809e-39
7.6546975e-42
4.6877217e-44
2.9614387e-46
2.1515748e-48
3.5999787e-50
5.6362699e-50
1.5191301e-49
1.9103965e-49
1.6058347e-49
6.0385463e-50
1.5066136e-50
6.2186778e-51
2.5363786e-51
6.7233285e-52
1.035331e-52
5.7112145e-54
9.6433039e-56
1.3146513e-57
1.5712041e-59
1.8583635e-61
2.0308605e-63
1.908469e-65
1.5523809e-67
1.0899497e-69
6.4003069e-72
2.9751221e-74
1.3498447e-76
1.3683868e-74
2.3573875e-72
3.947163e-70
5.4489208e-68
6.5543617e-66
7.0152422e-64
6.8701227e-62
6.1055509e-60
4.8403958e-58
3.9760515e-56
3.2668356e-54
2.511813e-52
5.1402742e-51
3.4883694e-50
1.2622757e-49
2.9895233e-49
7.7777122e-49
3.3426042e-48
7.2729535e-48
7.6812415e-48
4.6909316e-48
2.0563606e-48
2.5831966e-48
1.5697572e-46
1.0720729e-44
7.7033764e-43
6.6067548e-41
7.5387349e-39
1.3942942e-36
2.8526113e-34
2.2588248e-30
6.5487616e-30
2.0316946e-28
3.0356647e-28
8.2683638e-24
1.4954933e-23
1.0804516e-23
3.3275891e-24
3.2094118e-24
1.7057014e-23
1.4632002e-22
1.083986e-21
6.6763253e-21
3.4580426e-20
1.5587635e-19
6.1127513e-19
2.0620658e-18
5.6414803e-18
1.1889198e-17
1.8640848e-17
1.8657745e-17
1.199318e-17
5.564964e-18
1.9188662e-18
4.9979419e-19
1.0032739e-19
1.5442571e-20
1.8194843e-21
1.4284351e-22
8.0717632e-24
6.2551115e-25
2.2272187e-25
5.7389718e-25
1.4043031e-24
1.682023e-24
8.1374876e-25
1.211473e-28
8.406431e-29
1.2810541e-28
1.2062937e-30
8.4268375e-35
7.4135357e-37
1.2490639e-37
2.2376949e-40
1.3073799e-42
1.4922068e-44
1.9133845e-46
3.5460487e-48
5.5859994e-48
1.4057739e-47
1.7708648e-47
1.5046959e-47
5.7357956e-48
1.3971256e-48
5.7250401e-49
2.3154394e-49
6.1403214e-50
9.7067632e-51
5.8101106e-52
9.5057334e-54
1.206057e-55
1.4733498e-57
1.7413604e-59
1.8033137e-61
1.6312331e-63
1.2887717e-65
8.8399687e-68
5.0918529e-70
2.3277645e-72
1.0269021e-74
9.88461e-73
1.7458132e-70
2.9612619e-68
4.1528587e-66
5.0914667e-64
5.5794628e-62
5.629018e-60
5.2066426e-58
4.3864574e-56
3.511592e-54
3.0242247e-52
2.2159755e-50
4.4968863e-49
2.9682491e-48
1.0918759e-47
2.5696888e-47
6.6902079e-47
2.9274669e-46
6.2563919e-46
6.5827308e-46
4.0250584e-46
1.8402795e-46
2.5641172e-46
1.5288708e-44
1.0409525e-42
9.0996708e-41
8.5715728e-39
1.3906634e-36
2.6409215e-34
8.6996065e-32
1.6354878e-28
1.0063345e-27
2.6141321e-27
5.4115297e-28
1.1375127e-21
2.4372408e-21
1.9534773e-21
7.0009076e-22
2.433774e-22
5.7235517e-22
3.9512316e-21
2.6874846e-20
1.5102967e-19
6.9933416e-19
2.8719323e-18
1.0300903e-17
3.1045831e-17
7.6265444e-17
1.5135704e-16
2.1876305e-16
2.1901029e-16
1.5092684e-16
7.4459163e-17
2.818986e-17
8.1124613e-18
1.7692995e-18
2.9834194e-19
4.039197e-20
3.8139619e-21
3.0414129e-22
4.8730256e-23
3.8612611e-23
1.3383526e-22
2.5365333e-22
2.7788754e-22
1.0723182e-22
9.4063764e-27
1.2318233e-26
1.1562107e-26
5.5548973e-29
3.2645458e-32
1.2149829e-34
1.7422959e-36
1.2904151e-38
1.8016214e-40
1.8608886e-42
2.2334088e-44
4.1057205e-46
5.0126993e-46
1.1952235e-45
1.5102356e-45
1.2971448e-45
5.006952e-46
1.1992503e-46
4.9207793e-47
1.9685862e-47
5.1673754e-48
8.361044e-49
5.3307591e-50
8.6848292e-52
1.0523784e-53
1.309781e-55
1.4575958e-57
1.4486734e-59
1.269989e-61
9.786494e-64
6.5766344e-66
3.722205e-68
1.6755357e-70
7.1999376e-73
6.622328e-71
1.1973955e-68
2.0552013e-66
2.9238459e-64
3.646032e-62
4.0787387e-60
4.2203994e-58
4.0333732e-56
3.5562195e-54
3.0170701e-52
2.6451083e-50
1.8548716e-48
3.6555332e-47
2.3435592e-46
8.7669289e-46
2.0753372e-45
5.3587707e-45
2.3731674e-44
4.9853974e-44
5.2227256e-44
3.1981626e-44
1.4744946e-44
2.9097251e-44
1.859075e-42
1.365035e-40
1.3782476e-38
1.4385915e-36
2.1928887e-34
4.4592106e-32
2.2067611e-29
1.0305549e-26
1.5393508e-25
6.7231789e-26
2.2249949e-23
1.6220376e-19
3.4219638e-19
2.8427144e-19
1.2020777e-19
2.3547094e-20
2.4803213e-20
1.0492964e-19
6.468228e-19
3.2856047e-18
1.2914453e-17
4.2435759e-17
1.2100709e-16
3.052114e-16
6.6490289e-16
1.1651669e-15
1.6797048e-15
1.6371134e-15
1.189953e-15
6.3498564e-16
2.6718607e-16
8.9956123e-17
2.3813706e-17
5.1703075e-18
8.9424434e-19
1.1126477e-19
1.3708736e-20
4.7041626e-21
6.8701813e-21
2.3263831e-20
3.71789e-20
3.8488655e-20
1.2687794e-20
1.4067389e-26
2.5238433e-25
5.1235144e-25
1.2372788e-28
9.4907169e-30
2.0766826e-32
1.2236406e-34
2.0261266e-36
2.7312661e-38
2.5191541e-40
2.6718484e-42
4.5976218e-44
4.1215735e-44
9.3683022e-44
1.1888243e-43
1.0322775e-43
4.0365294e-44
9.5339993e-45
3.9152562e-45
1.561693e-45
4.0204459e-46
6.6577568e-47
4.404056e-48
7.3970604e-50
8.838457e-52
1.0418554e-53
1.1079862e-55
1.0647107e-57
9.0866072e-60
6.8498472e-62
4.5189515e-64
2.5162669e-66
1.1163103e-68
4.6783272e-71
4.1346431e-69
7.6449776e-67
1.3265753e-64
1.912201e-62
2.4217286e-60
2.7595644e-58
2.9193498e-56
2.8686698e-54
2.6254132e-52
2.3529957e-50
2.2006633e-48
1.4644331e-46
2.7723496e-45
1.7244078e-44
6.5012783e-44
1.5460523e-43
3.9984519e-43
1.7887398e-42
3.6927477e-42
3.8492675e-42
2.3586147e-42
1.0421469e-42
3.1921903e-42
2.1950102e-40
1.7445814e-38
1.922173e-36
2.1994106e-34
3.0516272e-32
6.7913803e-30
4.6914795e-27
7.0982704e-25
1.7791025e-23
2.2638905e-23
5.8564599e-21
2.7735075e-17
4.908786e-17
3.591193e-17
1.5459646e-17
2.8413841e-18
1.3284895e-18
3.0533714e-18
1.4528058e-17
6.0270646e-17
1.9470366e-16
4.6584647e-16
1.0355722e-15
2.0234477e-15
3.0589138e-15
4.9867515e-15
7.2288255e-15
7.6378948e-15
5.1107234e-15
2.9088486e-15
1.601543e-15
6.2131578e-16
2.2039097e-16
6.9652786e-17
1.5619971e-17
2.8882138e-18
6.7286488e-19
4.2632989e-19
1.0228072e-18
3.1218558e-18
4.8840668e-18
5.1610982e-18
1.6761686e-18
1.3967542e-23
4.2093782e-24
1.2341556e-23
9.4039351e-27
1.7862776e-27
3.2645407e-30
2.0851491e-32
3.1145029e-34
3.4863981e-36
3.0831297e-38
3.008162e-40
4.734584e-42
3.1444522e-42
6.7720922e-42
8.6595141e-42
7.6028472e-42
3.017091e-42
7.0359268e-43
2.8633689e-43
1.1406153e-43
2.9116758e-44
4.9219998e-45
3.317898e-46
5.9302582e-48
6.7576423e-50
7.5440365e-52
7.7309632e-54
7.2186385e-56
6.0167821e-58
4.4467357e-60
2.8840429e-62
1.5816168e-64
6.91969e-67
2.8307681e-69
2.4157962e-67
4.5640013e-65
8.0000314e-63
1.1672954e-60
1.4994633e-58
1.7375112e-56
1.8748521e-54
1.8878221e-52
1.7836561e-50
1.671761e-48
1.6802473e-46
1.0880962e-44
1.9639921e-43
1.1933862e-42
4.4758998e-42
1.0666152e-41
2.7894799e-41
1.2577485e-40
2.5491397e-40
2.6423171e-40
1.6239937e-40
6.3703772e-41
3.2471791e-40
2.3918039e-38
2.0348476e-36
2.2072413e-34
2.8840051e-32
3.9096606e-30
9.4724367e-28
8.4793199e-25
2.2023221e-22
3.1795108e-21
3.3461427e-21
1.0279968e-18
2.9141095e-15
5.923449e-15
4.0648933e-15
1.5026174e-15
2.8344845e-16
7.0923022e-17
9.2445983e-17
2.595674e-16
7.6453069e-16
1.9912837e-15
4.6569856e-15
7.1737962e-15
9.5420815e-15
1.602205e-14
1.6766158e-14
2.0926188e-14
2.1152803e-14
1.4917647e-14
1.2129189e-14
7.8138103e-15
5.2641913e-15
2.4503317e-15
5.8481177e-16
1.5049608e-16
4.8423176e-17
2.9069774e-17
3.1784013e-17
1.1393714e-16
3.3456797e-16
5.9816372e-16
7.1069761e-16
2.0736737e-16
3.3449491e-21
1.1121778e-21
1.8372859e-21
2.6701789e-24
2.8714833e-25
4.618078e-28
3.2769425e-30
4.3163535e-32
3.5599392e-34
2.9121611e-36
3.1107247e-38
4.5081405e-40
2.202265e-40
4.5219805e-40
5.8465538e-40
5.1932936e-40
2.0956774e-40
4.8366513e-41
1.9339672e-41
7.7087426e-42
1.9805171e-42
3.3873205e-43
2.3475207e-44
4.4119111e-46
4.7053189e-48
5.025247e-50
4.9902935e-52
4.5438936e-54
3.7080061e-56
2.6912147e-58
1.7180609e-60
9.2866559e-63
4.0088596e-65
1.6017856e-67
1.3258601e-65
2.5577008e-63
4.525912e-61
6.6784051e-59
8.6913009e-57
1.0227128e-54
1.12352e-52
1.1562095e-50
1.1234256e-48
1.0941022e-46
1.1663443e-44
7.6501204e-43
1.3007245e-41
7.8115932e-41
2.8698885e-40
6.840218e-40
1.8252994e-39
8.2700745e-39
1.6429034e-38
1.6926955e-38
1.0488503e-38
3.899433e-39
3.0246255e-38
2.4077482e-36
2.3282341e-34
2.4679741e-32
3.1355365e-30
4.6334582e-28
1.2233205e-25
3.8378482e-22
1.1746845e-19
7.080829e-20
7.6192454e-20
1.2348212e-16
4.1975367e-14
3.6348589e-13
3.021426e-13
9.8304385e-14
1.8713553e-14
3.0585362e-15
2.3995662e-15
3.6373809e-15
8.7006069e-15
3.4319966e-14
1.3489566e-13
1.3006756e-13
1.7146418e-13
4.2247944e-13
2.1998336e-13
8.2338161e-14
7.0614443e-14
2.4394515e-13
1.4716078e-13
7.0735154e-14
1.022863e-13
1.1783207e-13
3.9124619e-14
5.3182225e-15
1.0501372e-15
8.5444896e-16
2.0705723e-15
8.088136e-15
2.5830907e-14
6.0032473e-14
4.8315153e-14
1.1394566e-15
4.3892788e-19
7.7004692e-20
3.7129336e-19
2.5245701e-20
1.8808433e-22
5.9573241e-26
4.5913595e-28
5.2556472e-30
3.283567e-32
2.4725765e-34
2.8905406e-36
3.9326849e-38
1.40812e-38
2.7990352e-38
3.6625943e-38
3.2940703e-38
1.3550345e-38
3.1031757e-39
1.210545e-39
4.8333488e-40
1.2644081e-40
2.1736084e-41
1.5638938e-42
2.9846171e-44
3.0167438e-46
3.1025878e-48
2.9977618e-50
2.6692723e-52
2.1367561e-54
1.5250754e-56
9.593563e-59
5.1150311e-61
2.1793412e-63
8.5079381e-66
6.8582477e-64
1.3501803e-61
2.4100915e-59
3.5937927e-57
4.7336172e-55
5.6491943e-53
6.3082133e-51
6.6208294e-49
6.5960566e-47
6.6443934e-45
7.450356e-43
5.0615151e-41
8.0689352e-40
4.7625748e-39
1.7144503e-38
4.0887281e-38
1.1282451e-37
5.0944727e-37
9.8960511e-37
1.0132395e-36
6.2632951e-37
4.5210653e-37
3.0445536e-36
5.0496341e-34
2.4112639e-31
5.1988077e-29
6.0920522e-28
5.341523e-26
6.8447621e-23
1.5574737e-18
8.7727184e-18
3.3194851e-19
6.5503216e-19
1.1096425e-14
1.4610342e-12
1.9369866e-11
2.0931879e-11
3.8920355e-12
5.7668926e-13
8.026279e-14
1.3701537e-13
2.6448589e-13
2.4599783e-13
1.8296622e-13
2.4502259e-13
5.0083094e-13
9.8719747e-13
1.0625742e-12
1.0206024e-12
5.3263863e-13
4.2175341e-13
6.3025906e-13
6.3013042e-13
4.7419748e-13
3.6306386e-13
2.2907086e-13
9.4742575e-14
5.5367107e-14
4.5790264e-14
4.3861728e-14
6.3968215e-14
2.7383721e-13
1.1043887e-12
5.2903994e-12
1.8066067e-12
1.8796829e-13
3.8782373e-17
4.3750875e-19
7.8182881e-18
1.0762296e-17
1.8258892e-18
7.0599911e-24
8.1332265e-26
8.1217725e-28
5.1571584e-30
2.6999037e-32
2.3515283e-34
3.1103258e-36
8.8745179e-37
1.6008206e-36
2.1304355e-36
1.9389785e-36
8.1774444e-37
1.8644177e-37
7.0403568e-38
2.814499e-38
7.4935409e-39
1.3054475e-39
9.8498614e-41
1.8578103e-42
1.7940872e-44
1.7854244e-46
1.6838637e-48
1.4695713e-50
1.1559501e-52
8.1237038e-55
5.0399828e-57
2.6520483e-59
1.1156852e-61
4.2564007e-64
3.3538452e-62
6.7350526e-60
1.2119866e-57
1.8247293e-55
2.4302062e-53
2.9379267e-51
3.3299415e-49
3.5579872e-47
3.6255985e-45
3.7641879e-43
4.4132736e-41
3.0857878e-39
4.7035703e-38
2.7104376e-37
9.5620036e-37
2.2826345e-36
6.6290567e-36
2.9426142e-35
5.5722663e-35
5.668975e-35
3.528533e-35
4.4954035e-35
1.867669e-33
2.8288237e-31
5.2837463e-29
1.0928549e-26
2.040212e-24
1.157145e-22
2.9632269e-18
1.1878843e-16
1.2145387e-16
3.5243788e-19
2.4343069e-18
3.1860808e-09
2.5509286e-10
6.3965102e-10
1.2306469e-09
2.5743117e-10
1.1246046e-12
6.1293943e-13
8.5814805e-13
6.3430309e-13
2.6147031e-13
1.1718326e-13
1.5574196e-13
2.2301052e-13
-3.6299755e-13
-2.0029501e-12
-2.7347251e-12
-1.135903e-12
3.0739923e-13
-4.1070486e-13
-3.2303291e-13
1.1453315e-13
2.713104e-13
1.6358552e-13
7.702742e-14
7.4252899e-14
2.6391337e-13
5.9807177e-13
7.8280813e-13
5.6555463e-13
5.1972403e-11
3.6253665e-10
4.7956939e-11
2.1289822e-11
8.8019633e-11
4.6752284e-19
4.8747655e-17
2.6364471e-16
1.4917074e-16
5.6246304e-21
2.2105479e-22
2.0992377e-24
1.1262675e-26
4.1946273e-29
1.015875e-31
2.4131398e-34
6.1199943e-35
8.46794e-35
1.1505609e-34
1.059074e-34
4.609045e-35
1.056363e-35
3.8113869e-36
1.5256065e-36
4.1365912e-37
7.3780069e-38
5.7875017e-39
1.0721919e-40
9.9510018e-43
9.6189331e-45
8.8786298e-47
7.6100305e-49
5.8908634e-51
4.0811652e-53
2.4993119e-55
1.2987544e-57
5.3959911e-60
2.0119236e-62
1.5549827e-60
3.1838159e-58
5.7716054e-56
8.766389e-54
1.1793896e-51
1.4426807e-49
1.6574928e-47
1.7999197e-45
1.8720172e-43
1.997355e-41
2.4372881e-39
1.7462553e-37
2.5862449e-36
1.4427789e-35
4.986122e-35
1.1921882e-34
3.6702349e-34
1.5918887e-33
2.931207e-33
2.963251e-33
1.8680722e-33
3.7178081e-33
2.095516e-31
2.6318709e-29
3.647736e-27
6.6311765e-25
1.6431351e-22
1.0946526e-19
1.0373772e-15
5.8108878e-15
2.0211557e-15
1.5339193e-17
7.5379894e-12
3.9704308e-08
8.8329666e-09
1.5214635e-08
3.9135229e-08
1.8229026e-09
1.2459679e-11
1.3496198e-12
9.3823853e-13
6.3780877e-13
9.7585738e-14
1.4892214e-14
5.128848e-31
-1.1131299e-16
-1.0540532e-12
-6.2035e-12
-1.1730359e-11
-1.9378345e-12
-3.9702038e-14
-3.9462629e-12
-2.263682e-12
-3.5743129e-13
-1.5762162e-13
-4.6164841e-13
-6.3474072e-13
8.8485879e-14
1.5438505e-12
3.0086334e-12
1.0931936e-12
4.1598687e-11
3.5966266e-09
1.2448364e-08
1.8128823e-09
1.4860399e-09
3.7817633e-09
2.1650158e-18
8.5107913e-17
1.105723e-15
1.6327019e-15
6.6293856e-17
2.0654996e-20
1.5270528e-22
7.5949262e-25
3.2795331e-27
1.3610416e-29
6.7134167e-32
4.1816784e-33
4.1917063e-33
5.7653115e-33
5.3650469e-33
2.4237027e-33
5.6440007e-34
1.9235594e-34
7.7103912e-35
2.1307458e-35
3.9220893e-36
3.1574963e-37
5.7687862e-39
5.1693724e-41
4.8690441e-43
4.408942e-45
3.7182343e-47
2.8366164e-49
1.9394319e-51
1.1733572e-53
6.0247102e-56
2.4728462e-58
9.0112659e-61
6.8538117e-59
1.4301207e-56
2.6096422e-54
3.9952869e-52
5.4240834e-50
6.7058268e-48
7.7989808e-46
8.5938036e-44
9.1047808e-42