/*--------------------------------*- C++ -*----------------------------------*\
  =========                 |
  \\      /  F ield         | OpenFOAM: The Open Source CFD Toolbox
   \\    /   O peration     | Website:  https://openfoam.org
    \\  /    A nd           | Version:  9
     \\/     M anipulation  |
\*---------------------------------------------------------------------------*/
FoamFile
{
    format      ascii;
    class       volScalarField;
    location    "0.26";
    object      p;
}
// * * * * * * * * * * * * * * * * * * * * * * * * * * * * * * * * * * * * * //

dimensions      [1 -1 -2 0 0 0 0];

internalField   nonuniform List<scalar> 
10000
(
0
-0.0032189539
0.0020252935
0.0081059356
0.016256837
0.026956327
0.040116161
0.055551413
0.073135235
0.092732484
0.11419078
0.13735227
0.16205218
0.18812137
0.21538352
0.24365885
0.2727699
0.30254337
0.33281715
0.36345192
0.39433821
0.42542632
0.45672624
0.48816906
0.51965423
0.55108819
0.58242267
0.61368875
0.64503899
0.67650209
0.70757115
0.73747105
0.76714549
0.79704574
0.82679059
0.85594596
0.88416578
0.91110305
0.93632319
0.95933947
0.97963952
0.99664998
1.0097691
1.0183916
1.0218838
1.0196161
1.0109901
0.99546971
0.97264561
0.94220654
0.9039726
0.85794834
0.80429837
0.74337385
0.6756523
0.60175148
0.52236036
0.43824096
0.35024489
0.25916034
0.16591786
0.071330825
-0.02372607
-0.11844512
-0.21198915
-0.30366046
-0.39282775
-0.47866222
-0.56046913
-0.63754948
-0.71148247
-0.78229456
-0.84919598
-0.91197801
-0.9708531
-1.0260677
-1.0777846
-1.1261616
-1.1713434
-1.2135415
-1.2530532
-1.2900416
-1.3246309
-1.3569354
-1.387044
-1.4150291
-1.4408918
-1.4646878
-1.4864299
-1.5061837
-1.5239248
-1.5396869
-1.5534418
-1.5652379
-1.5750049
-1.5827078
-1.5882551
-1.5921806
-1.5956309
-1.5908751
-0.0011454408
-0.0048051093
0.00028191379
0.0063467858
0.014510824
0.025248199
0.038444207
0.053915501
0.071528739
0.091151499
0.11263152
0.13580526
0.16050545
0.18655659
0.21377588
0.24198139
0.27099477
0.30064295
0.33076888
0.36123983
0.39195144
0.42282858
0.45382412
0.48487988
0.51593605
0.54694318
0.57787633
0.60872218
0.6393868
0.66975825
0.69996999
0.73034288
0.76050102
0.79045459
0.82006423
0.84909892
0.87723388
0.90410318
0.92928671
0.95230533
0.97263584
0.98971627
1.0029483
1.0116935
1.0152861
1.0130859
1.0044962
0.98895993
0.96606031
0.93550883
0.897154
0.85099998
0.79715901
0.73595995
0.66789052
0.5935828
0.51376146
0.4291846
0.34075551
0.24927625
0.15567848
0.06080703
-0.034448067
-0.1292745
-0.22289243
-0.31454341
-0.40356534
-0.48927049
-0.5712677
-0.64937131
-0.72303023
-0.79258741
-0.85836037
-0.92041067
-0.97870017
-1.0332994
-1.0843624
-1.1320866
-1.1766881
-1.2183874
-1.25741
-1.293915
-1.3280461
-1.3599385
-1.3896678
-1.4173244
-1.4429163
-1.4664994
-1.4880484
-1.5076383
-1.5252712
-1.5409497
-1.5546347
-1.5663764
-1.5761174
-1.5837957
-1.5893144
-1.5931847
-1.5966277
-1.5919083
-0.010490826
-0.014426073
-0.0094554626
-0.0034153796
0.0048054262
0.015655015
0.029004782
0.044659588
0.062489775
0.082363028
0.10411868
0.1275881
0.15259553
0.17895413
0.20647327
0.23496698
0.26424931
0.2941415
0.32447782
0.3551205
0.38596226
0.4169209
0.44793844
0.47896164
0.50995806
0.5409086
0.5718151
0.60268397
0.63351623
0.66434397
0.69526365
0.72641917
0.75719552
0.78768533
0.81785181
0.84750262
0.87633871
0.9040055
0.93008456
0.95409487
0.97550887
0.99374891
1.0081798
1.0181291
1.0228797
1.021714
1.0139842
0.99909343
0.97657594
0.94614353
0.90763091
0.86103956
0.8065039
0.74434122
0.67507491
0.59934884
0.51796062
0.43174567
0.34161339
0.24846132
0.1532296
0.05681957
-0.03991258
-0.13609439
-0.23090699
-0.32357636
-0.41341797
-0.49985351
-0.58250923
-0.66117622
-0.73596079
-0.80618304
-0.87215385
-0.93406234
-0.99202627
-1.0462089
-1.0968141
-1.1440666
-1.1882099
-1.229465
-1.268053
-1.3041625
-1.3379388
-1.3695319
-1.3990251
-1.4264963
-1.4519334
-1.475392
-1.4968741
-1.5163961
-1.5339998
-1.5496503
-1.5633551
-1.5750773
-1.5848121
-1.5924842
-1.597978
-1.6018377
-1.6052623
-1.6004089
-0.021988913
-0.025980596
-0.02096903
-0.014837025
-0.0064457178
0.0046566661
0.018317441
0.034339119
0.05259365
0.072940074
0.095210883
0.11922635
0.1447957
0.17172243
0.19980746
0.22884541
0.25863473
0.28898602
0.31973014
0.35071819
0.38182739
0.41296765
0.44407068
0.47509944
0.5060362
0.53689428
0.56770569
0.59851465
0.62937229
0.66032611
0.69136655
0.72230747
0.75326388
0.78411189
0.81470681
0.84485646
0.87428347
0.90264977
0.92956403
0.9545715
0.97715346
0.99672116
1.0126098
1.0241011
1.0304138
1.0307316
1.0243079
1.0104722
0.98866512
0.95853098
0.91987654
0.8726681
0.81707389
0.75344374
0.68240015
0.60467187
0.521106
0.43268219
0.34034516
0.2450604
0.14775921
0.049421326
-0.049088121
-0.14689194
-0.24311572
-0.33702752
-0.42791534
-0.51521768
-0.59850452
-0.67748919
-0.75209351
-0.82231956
-0.88812147
-0.94966095
-1.0070973
-1.0606458
-1.1105664
-1.1571305
-1.200606
-1.2412455
-1.2792864
-1.3149193
-1.3482922
-1.3795458
-1.4087776
-1.4360539
-1.4613523
-1.484715
-1.5062006
-1.5257516
-1.5434044
-1.5590965
-1.5728822
-1.584681
-1.5944582
-1.6021708
-1.6077111
-1.611617
-1.6150841
-1.610159
-0.037436718
-0.041484144
-0.036368964
-0.030087108
-0.021449984
-0.010008875
0.0040709665
0.020591438
0.039418955
0.060405358
0.083372788
0.10812655
0.13446232
0.16216989
0.19103234
0.22082752
0.25133635
0.28235087
0.31368098
0.34516103
0.37665569
0.40806489
0.43932366
0.47040294
0.50130686
0.53207335
0.56276806
0.59347188
0.62426109
0.65519116
0.68627073
0.71752349
0.74886597
0.78018125
0.81132783
0.84211707
0.8722727
0.90146207
0.92933244
0.9554669
0.97935597
1.0004105
1.0179495
1.0312016
1.0393177
1.0413865
1.0365296
1.0239728
1.0030528
0.97330076
0.93446624
0.88647981
0.82957367
0.76416023
0.69093899
0.61079494
0.5246445
0.43356604
0.33856482
0.24068079
0.14087728
0.040142634
-0.060610179
-0.1605224
-0.25864888
-0.35423289
-0.44660228
-0.53513997
-0.61937469
-0.69899696
-0.77383615
-0.843909
-0.90930121
-0.97022041
-1.0268858
-1.0795635
-1.1285754
-1.1742394
-1.2168614
-1.2567156
-1.2940562
-1.3290864
-1.3619656
-1.3928133
-1.4217196
-1.4487369
-1.4738853
-1.497172
-1.5186451
-1.5382364
-1.5559505
-1.5717353
-1.5855918
-1.5974725
-1.6073096
-1.6150617
-1.6206718
-1.6246281
-1.6281175
-1.6230893
-0.056782429
-0.060873739
-0.055605037
-0.049093876
-0.040118271
-0.028225012
-0.013588523
0.0035864945
0.023162678
0.04498356
0.06885719
0.094575585
0.12192007
0.15066093
0.18055907
0.21137043
0.24285106
0.27476473
0.30689395
0.33905133
0.37108742
0.40289462
0.43440745
0.4656028
0.49650172
0.5271694
0.55770927
0.58824971
0.61891705
0.64981146
0.68099967
0.71247941
0.74418184
0.77599607
0.80776379
0.83929251
0.87030903
0.90049505
0.92952634
0.95701955
0.98249256
1.0053715
1.0249645
1.0404408
1.0508493
1.0551535
1.0523081
1.0413719
1.0215561
0.99226751
0.95320911
0.90429922
0.84578871
0.77819664
0.70230508
0.61913812
0.52975476
0.43534418
0.33701781
0.23586323
0.13293221
0.029199704
-0.074383246
-0.17695323
-0.27757493
-0.37535913
-0.46959728
-0.55965685
-0.64501878
-0.72532224
-0.8003864
-0.87027658
-0.93513638
-0.99522412
-1.0508499
-1.1023825
-1.1502255
-1.1947475
-1.2362979
-1.2751838
-1.311683
-1.3460048
-1.3783151
-1.4087043
-1.4372722
-1.4640534
-1.4890955
-1.5123756
-1.5338521
-1.5535231
-1.5713412
-1.5872725
-1.6012349
-1.613211
-1.6231827
-1.6310416
-1.6367439
-1.6407302
-1.6442786
-1.6391563
-0.080143464
-0.08427822
-0.078804895
-0.071993361
-0.062583366
-0.050117559
-0.034785437
-0.016794997
0.0037124806
0.02656913
0.051570353
0.078494315
0.10710318
0.13714418
0.16835307
0.20045623
0.23317532
0.26623919
0.29939908
0.33244034
0.36519221
0.39753245
0.42938847
0.46073838
0.49161744
0.5221224
0.5524043
0.58265306
0.61306863
0.64381264
0.67499296
0.70665359
0.73872824
0.77108068
0.80353691
0.8358892
0.86785518
0.89912594
0.92941588
0.9584064
0.98569024
1.01074
1.0328593
1.0511584
1.06455
1.0718156
1.0716954
1.0629974
1.0447293
1.0161412
0.97684739
0.92677649
0.8662
0.79576573
0.7164382
0.62941059
0.53595031
0.43738722
0.33499362
0.22990417
0.12322983
0.015927129
-0.091085457
-0.19687738
-0.30052479
-0.40107064
-0.49765234
-0.58955963
-0.67622733
-0.75728075
-0.83250675
-0.90203175
-0.96607912
-1.025004
-1.0792452
-1.1292859
-1.1756118
-1.2186705
-1.2588874
-1.2966129
-1.3321198
-1.3656084
-1.397275
-1.427187
-1.455434
-1.4820171
-1.5069592
-1.5302632
-1.5518133
-1.5716179
-1.5895866
-1.6056875
-1.6198409
-1.6319866
-1.6421377
-1.6501713
-1.655987
-1.6600162
-1.6636055
-1.6583758
-0.10767509
-0.11184398
-0.10612256
-0.098939385
-0.08899683
-0.075838624
-0.059667004
-0.040692653
-0.019063566
0.0050420308
0.03140722
0.05979197
0.089936512
0.12156344
0.15437851
0.18807086
0.22232156
0.2568184
0.29127266
0.32543294
0.35909515
0.3921082
0.42437924
0.45588205
0.48666951
0.51688159
0.54673636
0.57650516
0.60647478
0.63689756
0.66795102
0.69970996
0.73217374
0.76513911
0.79837392
0.83160568
0.86452248
0.89683306
0.92833409
0.95882398
0.98802477
1.0155085
1.0406007
1.062352
1.0795182
1.0906233
1.0941088
1.0884412
1.0723083
1.0447458
1.005216
0.95365655
0.89044752
0.81639011
0.73270313
0.6408313
0.54236141
0.43883966
0.3316862
0.2220783
0.11110331
-0.00029344462
-0.11125901
-0.22086451
-0.32810289
-0.43194909
-0.53139365
-0.62557174
-0.71379254
-0.79558759
-0.87087939
-0.93977082
-1.002627
-1.0599549
-1.1123579
-1.16046
-1.2048569
-1.2460926
-1.2846514
-1.3209389
-1.3552652
-1.3878131
-1.418765
-1.4481681
-1.4760887
-1.5025265
-1.5274313
-1.5507784
-1.5724769
-1.5924935
-1.6107389
-1.6270801
-1.6414808
-1.6538863
-1.6642512
-1.6724886
-1.6784301
-1.6825765
-1.6862299
-1.6808818
-0.13955652
-0.14375403
-0.13773891
-0.13011249
-0.11954367
-0.10557115
-0.08840983
-0.068276522
-0.04532485
-0.019743154
0.0082358546
0.038352236
0.070325121
0.10385103
0.13859945
0.174216
0.21033465
0.24659311
0.28264962
0.31819902
0.35298552
0.38681166
0.41954957
0.45116415
0.48173271
0.51145088
0.54062178
0.56962425
0.59886482
0.62872188
0.65947815
0.69125197
0.72413416
0.75779659
0.79188952
0.82600803
0.8597861
0.89297542
0.92550905
0.95736968
0.9884793
1.0185953
1.0471261
1.0730631
1.0949799
1.11105
1.1192582
1.1176019
1.1043225
1.0781666
1.0384271
0.98500506
0.91844228
0.83978801
0.75063862
0.65280586
0.54827361
0.43890119
0.32626063
0.21158064
0.095839529
-0.020116386
-0.13549112
-0.249463
-0.36099985
-0.46886486
-0.5717977
-0.66871693
-0.75876029
-0.84134652
-0.91641073
-0.98423221
-1.0453426
-1.1004661
-1.1504042
-1.1959636
-1.2378904
-1.2768589
-1.3134257
-1.3480123
-1.3809573
-1.4124566
-1.4426338
-1.4715137
-1.4991191
-1.5254467
-1.5504134
-1.573912
-1.5958828
-1.6161927
-1.6347758
-1.6514644
-1.6662018
-1.67896
-1.6896268
-1.6981031
-1.7041949
-1.7084278
-1.7121666
-1.7067088
-0.17599869
-0.18021298
-0.17385946
-0.1657256
-0.15443634
-0.13952501
-0.12122162
-0.099747717
-0.075262442
-0.047967245
-0.018110691
0.014030962
0.048155013
0.083928351
0.12098031
0.15890678
0.19728441
0.23568744
0.2737038
0.31095258
0.34710144
0.38188492
0.41512926
0.4467848
0.47695217
0.50589074
0.53400773
0.56182606
0.58992545
0.61886824
0.64910566
0.68088811
0.71414583
0.74858645
0.78361416
0.81860801
0.85308517
0.88683979
0.91999043
0.9528341
0.98563977
1.0184807
1.0509521
1.0820004
1.1099435
1.1324725
1.1469067
1.150584
1.1411463
1.1169134
1.0769844
1.0212191
0.95035927
0.86581324
0.76971961
0.66447203
0.55259832
0.43638078
0.31755871
0.19735602
0.076543892
-0.044299134
-0.16455849
-0.28348387
-0.40002984
-0.51273168
-0.61995063
-0.72021774
-0.81240135
-0.89562977
-0.97009729
-1.0362388
-1.0948346
-1.1469233
-1.1935907
-1.2358738
-1.2746888
-1.3108398
-1.3449966
-1.3776124
-1.4089861
-1.4393177
-1.4686774
-1.4970645
-1.524427
-1.5507207
-1.5758591
-1.5996547
-1.6220062
-1.6427603
-1.6617651
-1.6788808
-1.6940554
-1.707232
-1.7182638
-1.7270096
-1.7333268
-1.7376585
-1.741497
-1.7359301
-0.21723312
-0.22144925
-0.2147207
-0.20601807
-0.19391401
-0.17793922
-0.15833956
-0.13533962
-0.10910534
-0.079850081
-0.047832715
-0.013342203
0.023294901
0.061709694
0.1014872
0.14216683
0.18325572
0.22424771
0.26463968
0.30394999
0.3417428
0.37765972
0.41146123
0.44306747
0.47259243
0.50036242
0.52691188
0.55295435
0.57931466
0.60682436
0.63617818
0.66776129
0.7014849
0.73689898
0.77304873
0.80893035
0.84381547
0.8775371
0.91053139
0.94360542
0.97758128
1.0130417
1.0499448
1.0872531
1.1229027
1.1538901
1.1766132
1.1874628
1.1832574
1.1616977
1.1215885
1.0627628
0.98626555
0.89407859
0.78909564
0.67454765
0.55372163
0.42947652
0.30379817
0.17782774
0.051934762
-0.073777565
-0.19914197
-0.32363404
-0.44611317
-0.56472938
-0.67723654
-0.78159083
-0.87643779
-0.95994151
-1.0332098
-1.0967882
-1.151816
-1.1997561
-1.242077
-1.2801167
-1.3150407
-1.3477857
-1.3790767
-1.4094115
-1.4390388
-1.4681097
-1.4966483
-1.5246389
-1.5519096
-1.5783015
-1.6037181
-1.6279888
-1.6508538
-1.6721722
-1.6917621
-1.7094311
-1.7251247
-1.7387784
-1.7502439
-1.7593118
-1.765854
-1.7703381
-1.7742776
-1.7685907
-0.26351639
-0.26772274
-0.26058733
-0.25125338
-0.23824387
-0.22108348
-0.20003447
-0.17532534
-0.1471243
-0.11564843
-0.081161811
-0.043966192
-0.0044129772
0.037088063
0.080069644
0.12400719
0.16832758
0.21242663
0.2556873
0.29750018
0.33729542
0.37458888
0.40903991
0.44050585
0.46908883
0.49517608
0.51945584
0.54289233
0.56665075
0.5919573
0.61987533
0.65103426
0.68536608
0.72211635
0.75975482
0.79656061
0.83137219
0.86407369
0.89559552
0.92755227
0.96167148
0.99935046
1.0411311
1.0861012
1.1317024
1.1739247
1.2078412
1.228432
1.2313282
1.2134095
1.1731046
1.110257
1.0263062
0.92404655
0.80745831
0.681023
0.54916923
0.41557126
0.28252154
0.15093522
0.020474631
-0.10966981
-0.24007206
-0.37064466
-0.50016678
-0.62615159
-0.74535043
-0.8546173
-0.95144037
-1.0358559
-1.1072387
-1.1670142
-1.2170103
-1.2593096
-1.2959159
-1.3285467
-1.3586441
-1.3873005
-1.4152517
-1.4429909
-1.4707354
-1.498549
-1.5263436
-1.5540322
-1.5813715
-1.6080937
-1.6339809
-1.6588641
-1.6824466
-1.7044715
-1.7247761
-1.7431609
-1.7594939
-1.7736901
-1.7856515
-1.7951205
-1.8019181
-1.8066011
-1.810711
-1.8049114
-0.31513144
-0.3193163
-0.3117476
-0.30171947
-0.28771647
-0.26925774
-0.24661628
-0.22001929
-0.18962801
-0.15565417
-0.11836528
-0.078077985
-0.035169556
0.0099090958
0.056631159
0.10439992
0.15255392
0.20037563
0.24710907
0.29198545
0.33426315
0.37328664
0.40855889
0.43981799
0.46710901
0.49085547
0.51191495
0.53157155
0.55145834
0.57338228
0.59900978
0.62942823
0.66467631
0.70344731
0.74326485
0.7811623
0.81520175
0.84531538
0.87323338
0.90184149
0.93431027
0.97333042
1.020365
1.074799
1.133452
1.1908139
1.239967
1.2738365
1.28638
1.2733873
1.2328233
1.1646024
1.0706715
0.95493481
0.82294822
0.68105286
0.53539336
0.39087409
0.25020595
0.11376892
-0.019902465
-0.15315824
-0.2879694
-0.4250158
-0.56302862
-0.69854055
-0.82662782
-0.94250469
-1.0426582
-1.1264356
-1.1943141
-1.2483339
-1.2912237
-1.3258888
-1.3550226
-1.380823
-1.4049878
-1.4287516
-1.4528852
-1.4778049
-1.5036109
-1.5302266
-1.5574543
-1.5850361
-1.6126355
-1.6399243
-1.666595
-1.6923065
-1.7167784
-1.7397022
-1.7608737
-1.7800973
-1.7971875
-1.8120288
-1.8245567
-1.8344787
-1.8416206
-1.8464864
-1.8507587
-1.8449144
-0.37237778
-0.37652963
-0.3685051
-0.35772638
-0.34265049
-0.3227951
-0.29843162
-0.26977157
-0.23696097
-0.20020185
-0.15976242
-0.11597403
-0.069242042
-0.020055671
0.031002517
0.083259045
0.13595433
0.18824346
0.2392068
0.28787856
0.33329557
0.37456585
0.41095682
0.44200251
0.46761664
0.48820677
0.50478323
0.51901205
0.53316415
0.54991457
0.571907
0.60106375
0.63772435
0.67987944
0.72325174
0.76269038
0.79487784
0.81985041
0.84080383
0.86260461
0.89054111
0.92928392
0.98181512
1.0481207
1.1242078
1.2022969
1.272396
1.3244289
1.3500642
1.3436688
1.3026697
1.2271388
1.1197358
0.9857816
0.83300051
0.67050315
0.50719443
0.34985988
0.20176431
0.062294293
-0.071981365
-0.20576798
-0.34335959
-0.48695701
-0.63539685
-0.7836444
-0.9238905
-1.0483443
-1.1523756
-1.2346712
-1.2968316
-1.3422857
-1.3751794
-1.3995681
-1.4189873
-1.4362173
-1.4532283
-1.471298
-1.4911565
-1.5130806
-1.5369963
-1.5625897
-1.5895168
-1.6173302
-1.6455546
-1.6737242
-1.7014317
-1.7282756
-1.7538958
-1.7779358
-1.800152
-1.8203468
-1.8383141
-1.8539087
-1.8670561
-1.877473
-1.8850163
-1.8901753
-1.8946042
-1.8887337
-0.43556691
-0.4396756
-0.43116945
-0.419604
-0.40339645
-0.38206015
-0.35585543
-0.32496417
-0.28950969
-0.24968239
-0.20574574
-0.15803954
-0.10699275
-0.053128004
0.0029268349
0.06042544
0.1185022
0.1761696
0.23231853
0.28574207
0.33519139
0.37945444
0.41745905
0.44841304
0.47197404
0.48843174
0.49889284
0.50544129
0.5111755
0.5200204
0.53617801
0.56309421
0.60196371
0.65003115
0.69976099
0.74159801
0.77017885
0.78585037
0.79461832
0.80445224
0.82353948
0.85940389
0.91751281
0.99896857
1.0986609
1.2054199
1.3045722
1.3815457
1.4248006
1.4270527
1.3852641
1.2997787
1.1741423
1.0153574
0.83413559
0.64365301
0.45717057
0.28453722
0.12976393
-0.0093824527
-0.13958316
-0.2693071
-0.40647117
-0.55606733
-0.71767644
-0.88377249
-1.0413991
-1.1779005
-1.286047
-1.3648149
-1.4177079
-1.4504691
-1.4693404
-1.4799665
-1.4869119
-1.4935415
-1.5020648
-1.5137047
-1.5289822
-1.5478881
-1.570097
-1.5950348
-1.6220891
-1.6505882
-1.6798801
-1.7093919
-1.7385249
-1.7668244
-1.7938768
-1.8192945
-1.8427732
-1.8640917
-1.8830688
-1.8995153
-1.9133259
-1.9243387
-1.9322989
-1.9377857
-1.9423991
-1.9364831
-0.50501739
-0.50907052
-0.50007081
-0.48769986
-0.47032492
-0.44744159
-0.41929035
-0.38601742
-0.3477166
-0.30456014
-0.25679907
-0.20476776
-0.14890102
-0.089742978
-0.027957195
0.035647784
0.10010051
0.16425641
0.22678801
0.28619972
0.34088365
0.38920626
0.42962335
0.46085108
0.48209834
0.49334675
0.49566329
0.49151888
0.48500325
0.4817566
0.48841446
0.51119868
0.55342201
0.61192705
0.67316446
0.71826515
0.74047698
0.74033366
0.72922554
0.71967561
0.72369383
0.75265186
0.81601226
0.91722145
1.049677
1.1966637
1.3361243
1.4470601
1.513832
1.5272622
1.4840492
1.3850303
1.2346683
1.0419902
0.8215966
0.59244756
0.3745409
0.18306422
0.023311981
-0.10988273
-0.22835001
-0.34629939
-0.4773063
-0.63122874
-0.80983703
-1.0019802
-1.1855636
-1.3389538
-1.4510706
-1.5224845
-1.5603732
-1.5743175
-1.5736118
-1.5659632
-1.5571393
-1.5509894
-1.5497199
-1.554305
-1.5649022
-1.5810906
-1.6020829
-1.6269609
-1.654764
-1.684581
-1.715553
-1.7468974
-1.7779277
-1.8080877
-1.8368795
-1.8639162
-1.8888625
-1.9114608
-1.9315717
-1.9490046
-1.9635671
-1.9751954
-1.9836419
-1.9894472
-1.9942596
-1.9883129
-0.58105109
-0.58503982
-0.57555938
-0.5623804
-0.54382061
-0.51934868
-0.4891746
-0.45340426
-0.41209599
-0.36539057
-0.31351066
-0.2567651
-0.19557053
-0.13046818
-0.062142343
0.0085497965
0.080539226
0.152515
0.22290502
0.28988171
0.35140568
0.40530481
0.44939646
0.48168659
0.50066372
0.50569242
0.49750333
0.47874873
0.45454226
0.43274327
0.42365518
0.43838115
0.48507024
0.56222996
0.64552502
0.69940977
0.70417689
0.67715326
0.63511925
0.59668178
0.57779667
0.59446389
0.66232376
0.78951983
0.96800373
1.1722917
1.3682283
1.5250176
1.622175
1.6492984
1.603534
1.486556
1.3035445
1.0652094
0.79033707
0.50642039
0.24456164
0.028925317
-0.13320161
-0.25207096
-0.34748584
-0.44181681
-0.55687969
-0.71097089
-0.91126023
-1.1423922
-1.3662913
-1.5437888
-1.6581
-1.7149347
-1.7285449
-1.7146691
-1.6869013
-1.6554065
-1.6270263
-1.605817
-1.5936838
-1.5910091
-1.5972503
-1.6113693
-1.6319894
-1.6577113
-1.6871787
-1.7191375
-1.7525256
-1.7863282
-1.8197864
-1.8522491
-1.8831343
-1.9120411
-1.9386524
-1.9627348
-1.9840724
-2.0025297
-2.017945
-2.0302101
-2.0391656
-2.0453216
-2.0503189
-2.0443606
-0.66399695
-0.6679242
-0.65799128
-0.64402304
-0.6242838
-0.59821457
-0.56598794
-0.52765941
-0.48324076
-0.43282343
-0.37657727
-0.31475863
-0.24773789
-0.1760228
-0.10028865
-0.021421124
0.059427599
0.14078443
0.22082222
0.29735099
0.36783462
0.42944021
0.47915277
0.51399201
0.53135744
0.52952729
0.50835419
0.47015114
0.42075335
0.37048938
0.33472765
0.33257721
0.38186949
0.48985867
0.61344206
0.67762845
0.65291552
0.58345246
0.49552187
0.41780924
0.36736375
0.36438416
0.43474497
0.59681912
0.84119238
1.1272924
1.4016825
1.6194686
1.7545446
1.7972488
1.747197
1.6074521
1.3828042
1.0839325
0.73344485
0.370843
0.045498398
-0.20245798
-0.36277321
-0.45558384
-0.51269661
-0.5660408
-0.64825451
-0.79341226
-1.0210073
-1.3130578
-1.6022022
-1.8131716
-1.9228643
-1.9512193
-1.9256187
-1.87101
-1.8063666
-1.7443661
-1.692463
-1.6542395
-1.6307102
-1.621184
-1.624057
-1.6373234
-1.6588724
-1.6867047
-1.7189822
-1.7541393
-1.7908212
-1.8278454
-1.8643325
-1.8995508
-1.932916
-1.9640018
-1.9924655
-2.0181396
-2.0407982
-2.060332
-2.0766121
-2.0895986
-2.0990444
-2.1055226
-2.110743
-2.1048208
-0.75418133
-0.75805836
-0.74771752
-0.73300704
-0.71212701
-0.68449916
-0.65025117
-0.60937519
-0.56181724
-0.50759546
-0.4467996
-0.37960378
-0.30629543
-0.22730921
-0.14327039
-0.055062148
0.036106809
0.12863095
0.22044815
0.30900001
0.3912017
0.46344574
0.52168446
0.56162981
0.57911419
0.57066722
0.53439631
0.47126735
0.38688396
0.29350162
0.21244462
0.17528627
0.21800277
0.38150499
0.57685367
0.65289113
0.58401374
0.4291865
0.27871264
0.155174
0.066480861
0.036272927
0.10610464
0.3150208
0.65482826
1.0590767
1.4422132
1.7379433
1.9157479
1.9724644
1.9151262
1.7492447
1.4753632
1.0999841
0.64709052
0.17132605
-0.24914682
-0.54473342
-0.69887484
-0.75128696
-0.75201471
-0.74263694
-0.76704764
-0.88087362
-1.1429032
-1.5317995
-1.9279088
-2.1818849
-2.2675729
-2.2415205
-2.1531777
-2.0399095
-1.9263034
-1.8265558
-1.747532
-1.691207
-1.6567552
-1.6417229
-1.6430325
-1.6574274
-1.6817938
-1.7134516
-1.7500539
-1.7896685
-1.8306521
-1.871707
-1.9118613
-1.950331
-1.9865388
-2.0200548
-2.0505989
-2.0779759
-2.1019921
-2.1226426
-2.1397885
-2.153493
-2.1634542
-2.1702105
-2.1756094
-2.1697453
-0.85190931
-0.8557535
-0.84507239
-0.82969611
-0.80776685
-0.77868275
-0.74251961
-0.69919011
-0.64855242
-0.5905249
-0.52508819
-0.45229853
-0.37231507
-0.28545109
-0.19223483
-0.093495719
0.0095542394
0.11523985
0.22132185
0.32490287
0.42233539
0.50915839
0.58011068
0.62925515
0.65028679
0.63712112
0.584886
0.49150991
0.36025653
0.20301513
0.046096201
-0.063797447
-0.06066831
0.20493588
0.52370954
0.59269199
0.38463165
0.1178916
-0.082789357
-0.2321662
-0.35639992
-0.42566529
-0.36688134
-0.089409268
0.39517797
0.96767002
1.4965812
1.886649
2.1074937
2.1727884
2.1042969
1.9113333
1.585316
1.1214894
0.53298906
-0.11047432
-0.68024891
-1.0483605
-1.1877725
-1.1823655
-1.1138852
-1.03193
-0.97243064
-1.0154562
-1.294005
-1.8220888
-2.3946197
-2.709237
-2.7216484
-2.5948034
-2.4083769
-2.2129136
-2.0366683
-1.8924427
-1.7840751
-1.7101981
-1.6669035
-1.6491833
-1.6518819
-1.6702078
-1.6999803
-1.7376703
-1.7804492
-1.8259732
-1.8724191
-1.918412
-1.9628929
-2.0050681
-2.0444229
-2.0805929
-2.113354
-2.1425283
-2.167954
-2.1896449
-2.2076646
-2.2220362
-2.2324804
-2.2395289
-2.2450453
-2.2391982
-0.95745203
-0.9612816
-0.95035632
-0.9344328
-0.9116077
-0.88124963
-0.84336642
-0.79777456
-0.74422485
-0.68251137
-0.61247189
-0.53399924
-0.44707445
-0.35183579
-0.2486605
-0.13824643
-0.021714132
0.099289484
0.2224485
0.34461034
0.46161952
0.5681584
0.65763298
0.72214737
0.75266238
0.73946634
0.67311825
0.54603718
0.35547747
0.10657366
-0.17558424
-0.44850785
-0.65572432
-0.44337826
0.051673165
0.20702429
-0.19809295
-0.59684198
-0.76919705
-0.86111714
-0.97083395
-1.0789663
-1.0543542
-0.70197037
-0.0040878442
0.81584636
1.5569442
2.0581997
2.3122576
2.3763646
2.2926297
2.0743598
1.6996965
1.1448576
0.39229622
-0.48721815
-1.2967955
-1.7947232
-1.9119391
-1.8480117
-1.746192
-1.6276156
-1.4604597
-1.3630157
-1.6528295
-2.4443834
-3.2381147
-3.5657093
-3.3311048
-3.0142839
-2.679333
-2.3736285
-2.1215876
-1.9284936
-1.7914213
-1.7033013
-1.6556195
-1.6398567
-1.6483643
-1.6745511
-1.7130047
-1.7594158
-1.8104998
-1.8636213
-1.916806
-1.9686396
-2.0180918
-2.0644467
-2.1071968
-2.1461737
-2.1812085
-2.2121511
-2.239012
-2.2617159
-2.2804943
-2.2954087
-2.3062639
-2.3135768
-2.3191643
-2.3133218
-1.0710273
-1.0748631
-1.0638223
-1.0475262
-1.024027
-0.99266525
-0.95336037
-0.90581592
-0.84966002
-0.78453633
-0.71009861
-0.62602768
-0.53207828
-0.42815622
-0.3144126
-0.19131146
-0.059748817
0.078795268
0.2220797
0.36686458
0.50864486
0.64135683
0.757071
0.84574377
0.89510643
0.89084211
0.81715763
0.6579474
0.39961486
0.030797911
-0.44715665
-1.0640991
-1.8031297
-2.076544
-1.3919254
-1.0273007
-1.6179073
-2.0254448
-1.9697008
-1.8842202
-1.8821637
-2.0263606
-2.0901715
-1.4998693
-0.5180203
0.6454541
1.6621225
2.2265379
2.4759931
2.5170733
2.4128225
2.1859989
1.7842217
1.1590798
0.23134681
-1.0105357
-2.2663504
-2.9452145
-3.0185582
-2.914189
-2.8873785
-2.840289
-2.6108392
-2.3503923
-2.7621102
-4.1152131
-5.1408485
-4.9101103
-4.1370765
-3.4812662
-2.9372542
-2.4940936
-2.157695
-1.9167168
-1.756617
-1.6616501
-1.6171854
-1.6104355
-1.6308045
-1.6698906
-1.7210496
-1.7793451
-1.8411247
-1.9036217
-1.964812
-2.0233739
-2.0783949
-2.1292859
-2.1756595
-2.2174736
-2.2547211
-2.2873496
-2.3154714
-2.3391261
-2.3585685
-2.3738683
-2.3849942
-2.3924477
-2.3980503
-2.3922535
-1.1927711
-1.1966497
-1.1856658
-1.169234
-1.1453604
-1.1133593
-1.0730499
-1.0240081
-0.96572071
-0.89765049
-0.81922617
-0.72987397
-0.62907578
-0.51644025
-0.39178885
-0.2552298
-0.10728239
0.050930223
0.2174654
0.38926381
0.56175734
0.72839886
0.88011174
1.0047522
1.0865949
1.1060548
1.0394427
0.85916224
0.53446107
0.025764089
-0.6973155
-1.7855374
-3.1289064
-3.2809983
-3.1918568
-2.5433765
-3.1499235
-3.5916017
-3.6587347
-3.4557009
-3.2816205
-3.4054332
-3.5873099
-3.0185942
-0.73685075
0.91739546
1.5058523
2.2011162
2.4622856
2.4545705
2.3318144
2.1367279
1.7562103
1.1190078
0.15385171
-1.390196
-3.3854767
-4.8289477
-4.9312383
-4.710759
-4.8092628
-4.8999943
-4.651287
-4.1067303
-4.2676216
-6.6078663
-7.7074398
-6.7784626
-5.1206983
-3.9559441
-3.1362906
-2.5324628
-2.1136949
-1.8354609
-1.6653259
-1.5763856
-1.5465952
-1.5585163
-1.5986111
-1.6567082
-1.7252922
-1.7989545
-1.8739148
-1.9475349
-2.0179264
-2.083934
-2.1449527
-2.2005343
-2.2505874
-2.2952061
-2.3344746
-2.3685921
-2.397736
-2.4220756
-2.4419611
-2.4575398
-2.4687999
-2.4762116
-2.4817157
-2.4760178
-1.3227341
-1.3267136
-1.3160139
-1.2997417
-1.2758764
-1.2437101
-1.2029504
-1.1530344
-1.093284
-1.02295
-0.94120682
-0.84719154
-0.74006119
-0.61905128
-0.48354156
-0.3331464
-0.16783886
0.011856078
0.20460448
0.40789498
0.61751447
0.82689282
1.0262904
1.2018912
1.3347129
1.3997294
1.364487
1.1890022
0.82191509
0.19949503
-0.72102084
-2.0996554
-3.5543927
-4.2092017
-2.2756535
0.96088406
-3.1146035
-4.7727806
-5.1442375
-5.2153283
-5.0022421
-4.6466118
-4.7990181
-4.9590202
-2.887193
-1.8933394
0.012397803
1.2236195
1.8759535
1.8996251
1.8006603
1.6522449
1.1730136
0.02351755
-1.3422854
-2.5287808
-5.1934499
-7.1653972
-7.5968721
-7.34001
-7.444965
-7.5796078
-7.2862108
-5.6341534
-5.7620472
-8.9280352
-9.5539151
-8.1559994
-5.9193445
-4.2497671
-3.170962
-2.4299831
-1.9529033
-1.6619379
-1.503842
-1.440035
-1.4406291
-1.4835907
-1.5528624
-1.6369927
-1.7280537
-1.8206362
-1.9112
-1.9974516
-2.077971
-2.1519315
-2.2190958
-2.2793683
-2.3329265
-2.3800645
-2.4210743
-2.4563292
-2.4861633
-2.5108917
-2.5308685
-2.5464532
-2.5576719
-2.5649125
-2.5701456
-2.5645115
-1.4608857
-1.4650337
-1.4548985
-1.4391443
-1.4157582
-1.3840229
-1.3435211
-1.2935361
-1.2332058
-1.1615471
-1.0774611
-0.97976632
-0.86723923
-0.7386621
-0.59287168
-0.42884263
-0.24580169
-0.04339731
0.17801423
0.41692444
0.67004062
0.93149025
1.1917476
1.4362769
1.643724
1.7840782
1.8157601
1.6861027
1.3202151
0.63740086
-0.48062878
-2.198816
-3.8600441
-4.5948426
-1.0123155
-0.60477999
-3.7003753
-4.6270981
-5.9259232
-6.5486662
-6.815107
-5.5736547
-5.8996769
-9.7154174
-11.300729
-9.8425039
-6.177561
-1.7796017
0.040327103
0.48130701
0.53227996
0.21895829
-0.80549597
-3.4188188
-6.902202
-7.4453664
-9.0374053
-9.4617188
-10.130873
-10.382954
-10.169152
-10.141565
-9.9166459
-7.5221506
-9.3723263
-10.656043
-10.378759
-8.3872024
-6.2709075
-4.2154695
-2.9458886
-2.1294062
-1.6382661
-1.3746397
-1.2613949
-1.2486997
-1.2995295
-1.3882387
-1.4971806
-1.614651
-1.7331244
-1.8478597
-1.9560092
-2.0560015
-2.1471654
-2.2292526
-2.3024265
-2.367064
-2.423735
-2.4729026
-2.5151515
-2.5510796
-2.5810989
-2.6057569
-2.6254715
-2.6406873
-2.651551
-2.6584622
-2.6632838
-2.6576545
-1.6070778
-1.6114746
-1.6022237
-1.5874178
-1.5650832
-1.5345031
-1.4951272
-1.4460719
-1.3862794
-1.3145281
-1.2294319
-1.1294625
-1.0129683
-0.87820973
-0.72338994
-0.54670047
-0.34640471
-0.12099099
0.13054069
0.40821298
0.71039448
1.0329229
1.367784
1.7012562
2.0114098
2.2647231
2.4121957
2.3861901
2.0820952
1.3816985
0.097383956
-2.0711379
-4.4462606
-5.7773232
-5.6837213
-2.3185128
-4.0595785
-5.593245
-6.9839382
-8.2963624
-8.9169224
-4.2546717
7.4739602
-2.0098018
-10.448993
-9.0240947
-13.945778
-6.5091704
-2.7761166
-1.3831274
-1.0871056
-1.7084116
-3.7053441
-7.9179863
-11.341463
12.337333
-5.986298
-10.199527
-11.662693
-13.658148
-12.91178
-12.658004
-11.838013
-6.9087217
-12.66494
-12.715055
-11.987176
-9.1219227
-6.0931786
-3.7816852
-2.4033419
-1.581752
-1.1428893
-0.9611612
-0.93590355
-1.0054785
-1.129083
-1.2790743
-1.4381371
-1.5957558
-1.7458537
-1.8851967
-2.0122451
-2.1264872
-2.2282653
-2.3180985
-2.3967552
-2.4651249
-2.5241625
-2.574658
-2.6173897
-2.6532618
-2.682903
-2.7069019
-2.7258498
-2.7402914
-2.7504639
-2.756777
-2.7609895
-2.7553136
-1.7610034
-1.7657516
-1.7577449
-1.7443867
-1.7237836
-1.6952142
-1.6579911
-1.6110672
-1.5531892
-1.4829021
-1.3985239
-1.2981585
-1.1796942
-1.0408203
-0.87902559
-0.69159219
-0.47564319
-0.22826405
0.053271818
0.37111036
0.72618611
1.1172842
1.5395649
1.9823049
2.4256596
2.8351458
3.158285
3.3112858
3.1605165
2.541293
1.1929178
-1.3199653
-4.4718748
-6.6160342
-6.9414188
-5.5595818
-5.1002903
-9.1226388
-10.750017
-11.434488
-12.001895
0.87844353
3.6853307
-1.5515196
-9.8630691
-3.0001022
-11.861771
-8.5520589
-4.2065217
-2.3349059
-1.914744
-2.6733093
-4.6610326
-9.1250318