/*--------------------------------*- C++ -*----------------------------------*\
  =========                 |
  \\      /  F ield         | OpenFOAM: The Open Source CFD Toolbox
   \\    /   O peration     | Website:  https://openfoam.org
    \\  /    A nd           | Version:  9
     \\/     M anipulation  |
\*---------------------------------------------------------------------------*/
FoamFile
{
    format      ascii;
    class       volVectorField;
    location    "0.26";
    object      U;
}
// * * * * * * * * * * * * * * * * * * * * * * * * * * * * * * * * * * * * * //

dimensions      [0 1 -1 0 0 0 0];

internalField   nonuniform List<vector> 
10000
(
(0.0097175838 -0.0088177376 0)
(0.021159994 -0.0088588878 0)
(0.026899368 -0.0088777314 0)
(0.033536013 -0.0088819555 0)
(0.040617897 -0.0088680581 0)
(0.047528353 -0.0088476782 0)
(0.054314962 -0.0088197428 0)
(0.061051686 -0.0087821959 0)
(0.06771679 -0.0087349747 0)
(0.074290299 -0.0086782544 0)
(0.080761271 -0.0086111188 0)
(0.087117024 -0.0085332562 0)
(0.093342324 -0.0084451447 0)
(0.099420873 -0.0083461191 0)
(0.10533684 -0.0082353354 0)
(0.11107173 -0.0081140272 0)
(0.11660261 -0.0079824893 0)
(0.1219061 -0.0078369818 0)
(0.12695878 -0.0076737487 0)
(0.13173435 -0.0074909965 0)
(0.13619931 -0.0072870561 0)
(0.14031776 -0.0070534547 0)
(0.1440589 -0.0067806078 0)
(0.14739725 -0.0064539475 0)
(0.15031044 -0.0060640747 0)
(0.15277478 -0.0056026326 0)
(0.15475326 -0.0050635261 0)
(0.15619629 -0.004421108 0)
(0.15706404 -0.00364768 0)
(0.15734102 -0.0027118374 0)
(0.15707037 -0.0015830802 0)
(0.15637687 -0.00031362708 0)
(0.15511785 0.00089976687 0)
(0.15301072 0.0021236199 0)
(0.15001007 0.0034186631 0)
(0.14613782 0.0048000653 0)
(0.1413817 0.0062629357 0)
(0.13570836 0.0078109812 0)
(0.12913404 0.0094456598 0)
(0.12169109 0.011141878 0)
(0.1133919 0.012876691 0)
(0.10429318 0.01463956 0)
(0.094478042 0.016387225 0)
(0.08400686 0.018060971 0)
(0.072941586 0.019617373 0)
(0.061363014 0.021010049 0)
(0.049348935 0.022185852 0)
(0.036967484 0.023102223 0)
(0.024286176 0.023730743 0)
(0.011375783 0.024061203 0)
(-0.0016965163 0.024128135 0)
(-0.014747771 0.02394317 0)
(-0.027690984 0.023469815 0)
(-0.040436779 0.0227059 0)
(-0.052907064 0.021670154 0)
(-0.065022237 0.020396775 0)
(-0.076702551 0.018933883 0)
(-0.087867403 0.017337928 0)
(-0.098413109 0.015662751 0)
(-0.10824159 0.013944175 0)
(-0.11729793 0.012212078 0)
(-0.12553235 0.010503988 0)
(-0.13289385 0.0088486874 0)
(-0.1393378 0.0072663888 0)
(-0.14483912 0.0057622858 0)
(-0.14942305 0.0043273999 0)
(-0.1531193 0.0029679621 0)
(-0.15589357 0.0016947527 0)
(-0.15773744 0.00045902032 0)
(-0.15882704 -0.00080497798 0)
(-0.15941752 -0.0020691621 0)
(-0.15951958 -0.0031518752 0)
(-0.15900628 -0.0040424033 0)
(-0.15786196 -0.0047816246 0)
(-0.15611641 -0.0054037144 0)
(-0.15381374 -0.0059358857 0)
(-0.15100644 -0.006391395 0)
(-0.14772501 -0.0067729624 0)
(-0.14398964 -0.0070942079 0)
(-0.13982979 -0.0073671179 0)
(-0.13528113 -0.0076052026 0)
(-0.13039077 -0.0078192038 0)
(-0.12520102 -0.008010539 0)
(-0.11974194 -0.0081777022 0)
(-0.11404008 -0.0083248549 0)
(-0.10812273 -0.0084563897 0)
(-0.10201583 -0.0085748531 0)
(-0.095742274 -0.0086793155 0)
(-0.089320596 -0.0087704704 0)
(-0.08276854 -0.0088495962 0)
(-0.076102894 -0.008917163 0)
(-0.069337718 -0.0089737946 0)
(-0.062484611 -0.0090200793 0)
(-0.055563748 -0.009055816 0)
(-0.048595985 -0.009081547 0)
(-0.04150492 -0.0090994859 0)
(-0.0342413 -0.0091121697 0)
(-0.027426708 -0.0091143987 0)
(-0.02150139 -0.0091023816 0)
(-0.0098584862 -0.0090976115 0)
(0.0096697366 -0.020417726 0)
(0.021101192 -0.020416203 0)
(0.026874494 -0.020412491 0)
(0.033546148 -0.020374537 0)
(0.040652527 -0.020301172 0)
(0.047577868 -0.020210903 0)
(0.05438223 -0.02009955 0)
(0.061139067 -0.019963248 0)
(0.067824671 -0.019801142 0)
(0.074419807 -0.019611668 0)
(0.080914082 -0.019393136 0)
(0.087293792 -0.019143685 0)
(0.093543996 -0.01886135 0)
(0.09964927 -0.018544122 0)
(0.10559248 -0.018190452 0)
(0.11135452 -0.017796739 0)
(0.11691567 -0.017358809 0)
(0.12225509 -0.016874036 0)
(0.12734865 -0.016341407 0)
(0.13216927 -0.015755765 0)
(0.13668899 -0.015107157 0)
(0.14087895 -0.014383398 0)
(0.14471366 -0.013567651 0)
(0.14816694 -0.012641994 0)
(0.15121107 -0.01158925 0)
(0.15381901 -0.01039327 0)
(0.15596966 -0.0090406012 0)
(0.1576336 -0.0075083631 0)
(0.15878072 -0.0057638021 0)
(0.15940235 -0.0037750123 0)
(0.15946218 -0.001525166 0)
(0.15886117 0.00092060916 0)
(0.15757027 0.0034076343 0)
(0.15556297 0.005983599 0)
(0.15273495 0.0087049366 0)
(0.14903249 0.011571436 0)
(0.14442731 0.014555271 0)
(0.13889349 0.017633471 0)
(0.13242277 0.02078219 0)
(0.12502638 0.023950596 0)
(0.11673024 0.027093926 0)
(0.10757519 0.030169458 0)
(0.097608394 0.033115214 0)
(0.086900594 0.035866774 0)
(0.075531803 0.038363756 0)
(0.063576971 0.04055363 0)
(0.051120478 0.042388289 0)
(0.038255706 0.043825921 0)
(0.025077987 0.044838237 0)
(0.011705921 0.04541051 0)
(-0.0017775002 0.045560277 0)
(-0.015268602 0.045290216 0)
(-0.028697927 0.044575851 0)
(-0.04193464 0.043423473 0)
(-0.054869442 0.041853807 0)
(-0.067396808 0.039899963 0)
(-0.079416729 0.037606264 0)
(-0.090835883 0.0350275 0)
(-0.10155896 0.032224179 0)
(-0.11150346 0.029246073 0)
(-0.12060889 0.026146787 0)
(-0.12882316 0.02298877 0)
(-0.13610715 0.019824101 0)
(-0.14243568 0.016700699 0)
(-0.14780984 0.013645603 0)
(-0.15225239 0.010679716 0)
(-0.15577671 0.0078462263 0)
(-0.1584129 0.0051645369 0)
(-0.16023785 0.0025801546 0)
(-0.16135146 3.4370448e-05 0)
(-0.16176234 -0.0024343684 0)
(-0.16150008 -0.0046668393 0)
(-0.16065585 -0.0066394693 0)
(-0.15925509 -0.0083758562 0)
(-0.15731159 -0.0099044787 0)
(-0.15484819 -0.011260755 0)
(-0.15189452 -0.0124623 0)
(-0.1484809 -0.013518514 0)
(-0.14463653 -0.014445249 0)
(-0.1403913 -0.01526272 0)
(-0.13577951 -0.01599321 0)
(-0.13083709 -0.016649528 0)
(-0.12559681 -0.017239097 0)
(-0.12009088 -0.017770203 0)
(-0.11434916 -0.018246113 0)
(-0.10839738 -0.018668443 0)
(-0.10225794 -0.019041439 0)
(-0.095952552 -0.019369596 0)
(-0.089501454 -0.019657596 0)
(-0.082922008 -0.019908965 0)
(-0.076230789 -0.020126218 0)
(-0.069442447 -0.020312201 0)
(-0.062567903 -0.020469012 0)
(-0.055626857 -0.020599495 0)
(-0.048641796 -0.020704863 0)
(-0.041537812 -0.020789759 0)
(-0.034258205 -0.02086089 0)
(-0.027419185 -0.020907796 0)
(-0.021489788 -0.020924434 0)
(-0.0098531557 -0.02097051 0)
(0.0097004364 -0.025650501 0)
(0.021153908 -0.025577904 0)
(0.026934193 -0.02552795 0)
(0.033642546 -0.025437619 0)
(0.040778266 -0.025308176 0)
(0.047726972 -0.025154235 0)
(0.054558641 -0.024970074 0)
(0.061345252 -0.024751551 0)
(0.068062365 -0.024497483 0)
(0.074690648 -0.024205371 0)
(0.08121976 -0.023872634 0)
(0.087637223 -0.023496649 0)
(0.093927977 -0.023074108 0)
(0.1000757 -0.02260172 0)
(0.10606564 -0.022076265 0)
(0.11188122 -0.02149563 0)
(0.11749926 -0.02085665 0)
(0.12289444 -0.020155099 0)
(0.1280462 -0.019384496 0)
(0.13293565 -0.018537124 0)
(0.13753626 -0.017605147 0)
(0.14181988 -0.016578582 0)
(0.14576174 -0.015442613 0)
(0.149337 -0.014183968 0)
(0.15252121 -0.01278531 0)
(0.15528721 -0.011231307 0)
(0.15760625 -0.0095038819 0)
(0.15944928 -0.007592058 0)
(0.16078497 -0.0054759447 0)
(0.16158023 -0.0031490643 0)
(0.16177811 -0.00062778968 0)
(0.16133269 0.002096701 0)
(0.16021846 0.0050524747 0)
(0.15836746 0.0081934404 0)
(0.15569104 0.011512793 0)
(0.15213054 0.01500423 0)
(0.14765166 0.018650109 0)
(0.14222527 0.022424298 0)
(0.13583508 0.026293797 0)
(0.12848366 0.03020913 0)
(0.12018819 0.034112409 0)
(0.11097907 0.037936364 0)
(0.10090093 0.041618514 0)
(0.090009134 0.045094167 0)
(0.078374608 0.048288529 0)
(0.066084066 0.051126135 0)
(0.053222967 0.053540236 0)
(0.039885335 0.055473978 0)
(0.026176647 0.056879231 0)
(0.012225366 0.057715724 0)
(-0.0018688868 0.05795226 0)
(-0.015962964 0.057575333 0)
(-0.029955558 0.056603806 0)
(-0.043700153 0.055073753 0)
(-0.057081128 0.053024131 0)
(-0.069987437 0.05050525 0)
(-0.082315949 0.047577451 0)
(-0.0939711 0.044309924 0)
(-0.10486301 0.040777965 0)
(-0.11491195 0.037049322 0)
(-0.12405758 0.033191566 0)
(-0.13226149 0.029273367 0)
(-0.13949519 0.025359777 0)
(-0.1457459 0.021503925 0)
(-0.15102091 0.017740995 0)
(-0.15533038 0.014105362 0)
(-0.1587047 0.010625424 0)
(-0.16120453 0.0073080801 0)
(-0.16289587 0.0041535885 0)
(-0.16385735 0.0011850373 0)
(-0.16412309 -0.0015519453 0)
(-0.16371626 -0.0041066602 0)
(-0.16269549 -0.0064688436 0)
(-0.16109933 -0.0086256005 0)
(-0.15896888 -0.010582512 0)
(-0.15633668 -0.012352852 0)
(-0.15322804 -0.013948072 0)
(-0.14967127 -0.015380319 0)
(-0.14569809 -0.016669064 0)
(-0.14134333 -0.017828573 0)
(-0.1366353 -0.018873161 0)
(-0.13160637 -0.019815169 0)
(-0.1262933 -0.020663958 0)
(-0.12072308 -0.021426279 0)
(-0.11491638 -0.022109976 0)
(-0.10890004 -0.022722374 0)
(-0.10270184 -0.023269441 0)
(-0.096345039 -0.023755748 0)
(-0.08984791 -0.024184276 0)
(-0.083226358 -0.02456045 0)
(-0.076496669 -0.024888488 0)
(-0.069672792 -0.025172886 0)
(-0.062766161 -0.025416793 0)
(-0.055796275 -0.0256245 0)
(-0.04878543 -0.025798542 0)
(-0.041661534 -0.025943667 0)
(-0.03435948 -0.026067955 0)
(-0.027491378 -0.026162191 0)
(-0.021564579 -0.026216747 0)
(-0.0098999136 -0.026304263 0)
(0.0097337568 -0.032984867 0)
(0.021213907 -0.032898211 0)
(0.027006656 -0.032832836 0)
(0.033756514 -0.03271642 0)
(0.040926806 -0.032558449 0)
(0.04790635 -0.032369098 0)
(0.054774223 -0.032140305 0)
(0.061600213 -0.031867092 0)
(0.068359024 -0.031547608 0)
(0.075032672 -0.031178712 0)
(0.081611034 -0.030755807 0)
(0.088081443 -0.030275189 0)
(0.094429453 -0.029732814 0)
(0.10063949 -0.029124096 0)
(0.10669334 -0.02844458 0)
(0.11257214 -0.027691495 0)
(0.11825778 -0.026860271 0)
(0.12373243 -0.02594299 0)
(0.12897574 -0.024930416 0)
(0.13396179 -0.023815991 0)
(0.13866518 -0.022592685 0)
(0.14306364 -0.021247988 0)
(0.14713438 -0.019767519 0)
(0.15085376 -0.018136317 0)
(0.15419579 -0.016338727 0)
(0.15713397 -0.014357775 0)
(0.15964177 -0.012173653 0)
(0.16169193 -0.0097672403 0)
(0.16325015 -0.0071213891 0)
(0.16427155 -0.0042189726 0)
(0.16472399 -0.0010497759 0)
(0.16455368 0.0024078289 0)
(0.16367815 0.0061480336 0)
(0.16203397 0.010142546 0)
(0.15955524 0.014379865 0)
(0.1561701 0.018838223 0)
(0.15182703 0.023470303 0)
(0.14648781 0.028234571 0)
(0.14012855 0.033081277 0)
(0.13274261 0.037940268 0)
(0.12434173 0.042734532 0)
(0.11496146 0.047387924 0)
(0.10465374 0.051822694 0)
(0.093475303 0.055962419 0)
(0.081492072 0.059738019 0)
(0.068786401 0.063076051 0)
(0.055455322 0.065903697 0)
(0.041603626 0.068157637 0)
(0.02734004 0.069789987 0)
(0.012795456 0.07076444 0)
(-0.0019202542 0.071062792 0)
(-0.016624034 0.070675487 0)
(-0.031198422 0.069605023 0)
(-0.04549592 0.067876213 0)
(-0.059394175 0.065522543 0)
(-0.072771228 0.062593374 0)
(-0.085514599 0.059151928 0)
(-0.097519904 0.05527207 0)
(-0.10869571 0.051031059 0)
(-0.11896764 0.046504195 0)
(-0.12827401 0.041770395 0)
(-0.13656565 0.036912165 0)
(-0.14381605 0.03201392 0)
(-0.15002305 0.027147587 0)
(-0.155199 0.022371398 0)
(-0.1593698 0.017739057 0)
(-0.16257992 0.013287541 0)
(-0.16489429 0.0090440948 0)
(-0.16637501 0.0050364903 0)
(-0.16707523 0.0012800748 0)
(-0.16707772 -0.0022003048 0)
(-0.16644598 -0.0054148065 0)
(-0.16520752 -0.0083733979 0)
(-0.16340319 -0.01108632 0)
(-0.16107335 -0.013567718 0)
(-0.15824672 -0.015826026 0)
(-0.15495233 -0.017875618 0)
(-0.15122826 -0.019731283 0)
(-0.1471068 -0.021410968 0)
(-0.14261303 -0.022928258 0)
(-0.13777888 -0.024296288 0)
(-0.13263605 -0.025530221 0)
(-0.12721253 -0.026640565 0)
(-0.12153865 -0.027633904 0)
(-0.11564403 -0.028519838 0)
(-0.1095522 -0.029309488 0)
(-0.10328363 -0.030011827 0)
(-0.096857517 -0.03063335 0)
(-0.090294552 -0.031178913 0)
(-0.083613556 -0.031654861 0)
(-0.076830255 -0.032067452 0)
(-0.069958054 -0.032422614 0)
(-0.06300768 -0.032725762 0)
(-0.055998299 -0.032980921 0)
(-0.048952594 -0.033193609 0)
(-0.041800141 -0.033368995 0)
(-0.034469532 -0.033515357 0)
(-0.027564049 -0.033626604 0)
(-0.021628247 -0.033688152 0)
(-0.0099381836 -0.033775987 0)
(0.0097810321 -0.040101352 0)
(0.021299111 -0.039991276 0)
(0.027110858 -0.039902034 0)
(0.033909301 -0.039750165 0)
(0.041118508 -0.039554044 0)
(0.048137069 -0.039318309 0)
(0.055051153 -0.039033709 0)
(0.061927464 -0.038695395 0)
(0.068739407 -0.038300297 0)
(0.075470326 -0.037844344 0)
(0.082110683 -0.037321736 0)
(0.088647479 -0.036727792 0)
(0.095066435 -0.036057656 0)
(0.10135205 -0.035305958 0)
(0.10748724 -0.03446729 0)
(0.11345508 -0.033534541 0)
(0.11923776 -0.032500446 0)
(0.12481539 -0.031358117 0)
(0.13016613 -0.030101339 0)
(0.13526794 -0.028722572 0)
(0.14010028 -0.027210125 0)
(0.14464228 -0.025551222 0)
(0.14887138 -0.023732579 0)
(0.1527641 -0.021739154 0)
(0.15629806 -0.01955351 0)
(0.1594504 -0.017154281 0)
(0.16219481 -0.014518938 0)
(0.16450045 -0.011623854 0)
(0.16633447 -0.0084489995 0)
(0.16765636 -0.0049698913 0)
(0.16841235 -0.0011602486 0)
(0.16853965 0.0029813335 0)
(0.16796631 0.0074588082 0)
(0.16661948 0.012276001 0)
(0.16441738 0.017416581 0)
(0.16125964 0.022843465 0)
(0.15708532 0.028496936 0)
(0.15186318 0.03431959 0)
(0.14555231 0.040243457 0)
(0.1381292 0.046176913 0)
(0.12960656 0.052023152 0)
(0.12001556 0.057688849 0)
(0.10940151 0.063078581 0)
(0.097830516 0.06809638 0)
(0.085381099 0.072651434 0)
(0.072138326 0.07666262 0)
(0.058201981 0.080054471 0)
(0.043691364 0.082756685 0)
(0.028734711 0.08471072 0)
(0.013482718 0.085878005 0)
(-0.0019438042 0.086254875 0)
(-0.017368115 0.085831309 0)
(-0.032667772 0.084588785 0)
(-0.047672561 0.082547702 0)
(-0.062242257 0.079748441 0)
(-0.076237133 0.076245291 0)
(-0.089528259 0.072109031 0)
(-0.1020026 0.067417035 0)
(-0.11356469 0.062258586 0)
(-0.12413047 0.056734536 0)
(-0.13363108 0.050946389 0)
(-0.14202021 0.044999836 0)
(-0.14927975 0.038999945 0)
(-0.15542085 0.033038927 0)
(-0.16046433 0.027196029 0)
(-0.16444249 0.021544908 0)
(-0.16741858 0.016140682 0)
(-0.16946836 0.01101588 0)
(-0.17066913 0.0061982526 0)
(-0.17110254 0.0016945606 0)
(-0.17082445 -0.002501049 0)
(-0.16989199 -0.0063787914 0)
(-0.16836674 -0.0099469932 0)
(-0.16629245 -0.013225501 0)
(-0.1637074 -0.016227226 0)
(-0.16064306 -0.018967161 0)
(-0.15713132 -0.021464708 0)
(-0.15320421 -0.023739182 0)
(-0.14889206 -0.025802456 0)
(-0.14422463 -0.027670184 0)
(-0.13923182 -0.029358485 0)
(-0.13394372 -0.030881346 0)
(-0.12838842 -0.032251192 0)
(-0.12259227 -0.033481272 0)
(-0.11658133 -0.034580362 0)
(-0.110381 -0.035557194 0)
(-0.10401398 -0.036420845 0)
(-0.09749953 -0.037181485 0)
(-0.090856213 -0.037849345 0)
(-0.084101744 -0.038431741 0)
(-0.077251917 -0.038936546 0)
(-0.070319449 -0.039370526 0)
(-0.063313806 -0.039741485 0)
(-0.056254591 -0.040054809 0)
(-0.04916572 -0.040315209 0)
(-0.041976653 -0.040530283 0)
(-0.034610045 -0.040709739 0)
(-0.027660867 -0.040847329 0)
(-0.021710759 -0.040928664 0)
(-0.0099850549 -0.041031859 0)
(0.0098400564 -0.047238273 0)
(0.021407126 -0.047112376 0)
(0.027244011 -0.047000889 0)
(0.034096931 -0.046819247 0)
(0.041351968 -0.046587691 0)
(0.04841871 -0.046308532 0)
(0.055387821 -0.045971854 0)
(0.062323478 -0.045572822 0)
(0.069199232 -0.045106901 0)
(0.075999944 -0.044568192 0)
(0.08271604 -0.043950675 0)
(0.089334061 -0.043248345 0)
(0.09584025 -0.04245487 0)
(0.10221963 -0.041563365 0)
(0.10845568 -0.04056696 0)
(0.11453115 -0.039458105 0)
(0.12042806 -0.03823 0)
(0.12612739 -0.03687473 0)
(0.13160925 -0.035384626 0)
(0.13685315 -0.033749845 0)
(0.14183904 -0.031959208 0)
(0.14654602 -0.030000754 0)
(0.15095323 -0.027861638 0)
(0.15504125 -0.025526333 0)
(0.15879041 -0.022976454 0)
(0.16217919 -0.020190303 0)
(0.16518363 -0.017144992 0)
(0.1677741 -0.013810539 0)
(0.16991689 -0.010156301 0)
(0.17157345 -0.0061559003 0)
(0.17268967 -0.0017749797 0)
(0.17319064 0.0030171434 0)
(0.17299805 0.0082266041 0)
(0.17202727 0.013862186 0)
(0.17017628 0.019913145 0)
(0.16732944 0.026337996 0)
(0.16340364 0.033071729 0)
(0.15834605 0.040033926 0)
(0.15210143 0.047124377 0)
(0.14463886 0.054228825 0)
(0.13597031 0.061229553 0)
(0.12613068 0.068005721 0)
(0.11516761 0.074446092 0)
(0.10314276 0.080446288 0)
(0.090138176 0.085901397 0)
(0.076253127 0.090711688 0)
(0.061596571 0.09478642 0)
(0.046293994 0.098047941 0)
(0.030487535 0.10042193 0)
(0.014353845 0.10185397 0)
(-0.001970956 0.1023281 0)
(-0.018301042 0.10182706 0)
(-0.034499259 0.10033849 0)
(-0.050365136 0.097892461 0)
(-0.065741501 0.094539334 0)
(-0.080473666 0.090344247 0)
(-0.094422938 0.085390714 0)
(-0.10746377 0.079770119 0)
(-0.11948159 0.073588893 0)
(-0.1303896 0.06696487 0)
(-0.14012016 0.06002009 0)
(-0.14862307 0.052882278 0)
(-0.15588498 0.045684318 0)
(-0.16192393 0.038547247 0)
(-0.16676999 0.031577629 0)
(-0.17047963 0.024866063 0)
(-0.17314627 0.018480355 0)
(-0.17486456 0.012462285 0)
(-0.1757185 0.0068317432 0)
(-0.17579379 0.0015951783 0)
(-0.17516815 -0.0032539885 0)
(-0.17390756 -0.007734433 0)
(-0.17206818 -0.011864956 0)
(-0.16969577 -0.015665961 0)
(-0.1668261 -0.019155024 0)
(-0.16349431 -0.022351695 0)
(-0.15973327 -0.025276002 0)
(-0.1555732 -0.027944296 0)
(-0.15104296 -0.030372748 0)
(-0.14617213 -0.032578776 0)
(-0.14099061 -0.034575863 0)
(-0.13552711 -0.036377541 0)
(-0.12980874 -0.037997798 0)
(-0.12386201 -0.0394494 0)
(-0.11771228 -0.040744883 0)
(-0.11138333 -0.041896381 0)
(-0.10489721 -0.042914869 0)
(-0.098274256 -0.043810778 0)
(-0.091532356 -0.044595304 0)
(-0.084688132 -0.045277897 0)
(-0.077756952 -0.045868554 0)
(-0.0707517 -0.046375498 0)
(-0.063681275 -0.04680753 0)
(-0.056562019 -0.047172883 0)
(-0.049419344 -0.047476145 0)
(-0.042186711 -0.047725936 0)
(-0.034777997 -0.047934078 0)
(-0.027778654 -0.048094278 0)
(-0.021808433 -0.048193118 0)
(-0.01003849 -0.048306923 0)
(0.0099048439 -0.054409165 0)
(0.021531166 -0.05427293 0)
(0.027401206 -0.054142076 0)
(0.034315422 -0.05393628 0)
(0.041623063 -0.053673031 0)
(0.048745389 -0.053355619 0)
(0.055777949 -0.052973037 0)
(0.062782659 -0.052519125 0)
(0.069733726 -0.051987924 0)
(0.076615965 -0.051372652 0)
(0.083419955 -0.050666917 0)
(0.090133045 -0.049863346 0)
(0.096741897 -0.048954323 0)
(0.10323144 -0.047931492 0)
(0.10958535 -0.046787248 0)
(0.11578659 -0.045513268 0)
(0.12181777 -0.044101062 0)
(0.12765956 -0.042542566 0)
(0.13329222 -0.040828864 0)
(0.13869731 -0.038950455 0)
(0.14385617 -0.036896883 0)
(0.14874898 -0.034656298 0)
(0.15335664 -0.032214939 0)
(0.15766179 -0.02955763 0)
(0.16164809 -0.02666578 0)
(0.1652968 -0.023517056 0)
(0.1685902 -0.020084063 0)
(0.17150534 -0.016334531 0)
(0.17400583 -0.012227504 0)
(0.17605455 -0.0077216797 0)
(0.17760197 -0.0027713579 0)
(0.17855914 0.0026667535 0)
(0.17883349 0.0086259663 0)
(0.17833286 0.015115153 0)
(0.17692988 0.022128934 0)
(0.17447453 0.02962117 0)
(0.17085572 0.037506745 0)
(0.1659984 0.045681815 0)
(0.15983265 0.054019756 0)
(0.1523231 0.062378905 0)
(0.14347722 0.070613582 0)
(0.13333119 0.078581757 0)
(0.12194469 0.086150458 0)
(0.10938885 0.093197554 0)
(0.095746966 0.099609932 0)
(0.081119025 0.1052772 0)
(0.065624685 0.11008911 0)
(0.049400997 0.11394991 0)
(0.032598057 0.11677519 0)
(0.015415838 0.11849416 0)
(-0.0019889463 0.11907895 0)
(-0.019401496 0.11850606 0)
(-0.036661297 0.11676579 0)
(-0.053542915 0.11389675 0)
(-0.069872291 0.10995541 0)
(-0.085474383 0.10501896 0)
(-0.10019524 0.09918475 0)
(-0.11389898 0.092565493 0)
(-0.1264634 0.085281405 0)
(-0.13778994 0.077464448 0)
(-0.14780086 0.069265129 0)
(-0.15644061 0.060840954 0)
(-0.16369698 0.052353957 0)
(-0.16960036 0.043958819 0)
(-0.17420114 0.035790129 0)
(-0.17757851 0.027953404 0)
(-0.17985082 0.02053528 0)
(-0.18114085 0.013590286 0)
(-0.18155791 0.0071303045 0)
(-0.18120969 0.0011503724 0)
(-0.18017421 -0.004368711 0)
(-0.17852216 -0.0094526598 0)
(-0.17631643 -0.014135559 0)
(-0.17359937 -0.018442261 0)
(-0.17040911 -0.022401718 0)
(-0.16677913 -0.026037508 0)
(-0.16273758 -0.029369073 0)
(-0.15831269 -0.032415443 0)
(-0.1535358 -0.035193863 0)
(-0.14843447 -0.03771891 0)
(-0.14303467 -0.040006018 0)
(-0.13736697 -0.042069705 0)
(-0.13145911 -0.043924863 0)
(-0.12533574 -0.045585687 0)
(-0.1190224 -0.047066199 0)
(-0.11254295 -0.048379541 0)
(-0.10591841 -0.04953922 0)
(-0.099168659 -0.050557704 0)
(-0.092311263 -0.051447144 0)
(-0.085362615 -0.05221947 0)
(-0.0783373 -0.052885798 0)
(-0.071246833 -0.053456916 0)
(-0.064100247 -0.053942063 0)
(-0.056912827 -0.054350861 0)
(-0.049709221 -0.054690823 0)
(-0.042425936 -0.054970017 0)
(-0.034969085 -0.055201406 0)
(-0.027914869 -0.055378741 0)
(-0.021918403 -0.055491767 0)
(-0.010095858 -0.055613285 0)
(0.0099744033 -0.06162131 0)
(0.021669263 -0.061477378 0)
(0.027578235 -0.061329074 0)
(0.034559455 -0.061104492 0)
(0.04192696 -0.060814605 0)
(0.049111673 -0.060463963 0)
(0.056215816 -0.060041208 0)
(0.063299299 -0.059538442 0)
(0.070335946 -0.058948907 0)
(0.077310925 -0.058265176 0)
(0.084215457 -0.057478951 0)
(0.091037282 -0.056582069 0)
(0.097763637 -0.055565057 0)
(0.10437939 -0.054419181 0)
(0.11086815 -0.053135527 0)
(0.11721344 -0.051704589 0)
(0.1233971 -0.050117145 0)
(0.1294005 -0.048364818 0)
(0.13520502 -0.046437493 0)
(0.14079195 -0.044325874 0)
(0.14614299 -0.042019398 0)
(0.15124009 -0.039508439 0)
(0.15606604 -0.036780827 0)
(0.16060663 -0.033820882 0)
(0.16484897 -0.03061007 0)
(0.16878 -0.027125875 0)
(0.17238598 -0.023336994 0)
(0.17565168 -0.019208379 0)
(0.17855199 -0.014691323 0)
(0.18105177 -0.0097259251 0)
(0.18309909 -0.0042519905 0)
(0.18461015 0.0017932509 0)
(0.18547336 0.0084809287 0)
(0.18556448 0.015833224 0)
(0.18472979 0.023850017 0)
(0.18278182 0.032483707 0)
(0.17956529 0.041637059 0)
(0.17497022 0.05117447 0)
(0.16890783 0.060924813 0)
(0.16133705 0.070700639 0)
(0.15227237 0.080316943 0)
(0.14176191 0.089609512 0)
(0.12987344 0.098429544 0)
(0.11668871 0.1066379 0)
(0.10230063 0.11410935 0)
(0.086811282 0.12072165 0)
(0.070342555 0.12634902 0)
(0.053046601 0.13087424 0)
(0.0350863 0.13419809 0)
(0.016682015 0.13623379 0)
(-0.0019822869 0.13694597 0)
(-0.020660217 0.1363059 0)
(-0.039163837 0.13429703 0)
(-0.057238762 0.1309656 0)
(-0.074689179 0.12637819 0)
(-0.091318936 0.12062559 0)
(-0.10695544 0.11381837 0)
(-0.12144999 0.1060846 0)
(-0.13467 0.097560158 0)
(-0.14649835 0.088400511 0)
(-0.15684221 0.078782641 0)
(-0.16563984 0.068898433 0)
(-0.17287527 0.058951257 0)
(-0.17858442 0.049143991 0)
(-0.18284883 0.03965037 0)
(-0.18578553 0.030601585 0)
(-0.18754726 0.022106638 0)
(-0.18830073 0.014222557 0)
(-0.18818576 0.0069392918 0)
(-0.18731911 0.00023271898 0)
(-0.18579612 -0.0059166223 0)
(-0.18369885 -0.011570141 0)
(-0.18108119 -0.01677296 0)
(-0.17798351 -0.021562182 0)
(-0.17444137 -0.025972731 0)
(-0.17048044 -0.030027903 0)
(-0.16612805 -0.033748738 0)
(-0.16141222 -0.037156348 0)
(-0.15635804 -0.040266838 0)
(-0.15099338 -0.043094749 0)
(-0.14534775 -0.045657075 0)
(-0.13944898 -0.047969452 0)
(-0.13332458 -0.050045502 0)
(-0.12700034 -0.051901539 0)
(-0.12050051 -0.05355343 0)
(-0.11384853 -0.055015769 0)
(-0.1070657 -0.056303453 0)
(-0.10017109 -0.057431548 0)
(-0.09318215 -0.058413867 0)
(-0.086114499 -0.05926452 0)
(-0.07898225 -0.059995839 0)
(-0.07179621 -0.060620461 0)
(-0.064563765 -0.0611499 0)
(-0.057299854 -0.061594224 0)
(-0.050028632 -0.061962759 0)
(-0.042688405 -0.062264659 0)
(-0.035177188 -0.062513413 0)
(-0.028063542 -0.062702317 0)
(-0.022037346 -0.062826261 0)
(-0.010156884 -0.062952089 0)
(0.010047685 -0.068884602 0)
(0.021818579 -0.068735171 0)
(0.027771432 -0.068572987 0)
(0.034823695 -0.068334358 0)
(0.04225806 -0.068023585 0)
(0.049511954 -0.067645417 0)
(0.056695256 -0.067188701 0)
(0.063865995 -0.066644314 0)
(0.070997553 -0.066004758 0)
(0.078076324 -0.065260994 0)
(0.085093656 -0.064403121 0)
(0.09203812 -0.063422012 0)
(0.098896921 -0.062306542 0)
(0.10565457 -0.061046834 0)
(0.11229528 -0.059632622 0)
(0.11880236 -0.05805418 0)
(0.12515749 -0.056301425 0)
(0.13134218 -0.054364099 0)
(0.1373374 -0.052232891 0)
(0.14312517 -0.049898982 0)
(0.14868651 -0.04735303 0)
(0.15400334 -0.044585635 0)
(0.15906271 -0.041586158 0)
(0.16385362 -0.038341254 0)
(0.16836632 -0.034835079 0)
(0.17259469 -0.031045061 0)
(0.17653377 -0.026939963 0)
(0.18017829 -0.022476283 0)
(0.18351675 -0.017599672 0)
(0.18652248 -0.012234859 0)
(0.1891485 -0.0062963123 0)
(0.19132036 0.00031261711 0)
(0.19290523 0.0076957268 0)
(0.19374049 0.015906621 0)
(0.19362946 0.024968908 0)
(0.19233984 0.034842554 0)
(0.18966008 0.045407787 0)
(0.1854218 0.056472715 0)
(0.1795016 0.0678094 0)
(0.17185672 0.079180568 0)
(0.16252209 0.090358051 0)
(0.15157304 0.10113687 0)
(0.13909588 0.11134683 0)
(0.12518395 0.12084555 0)
(0.10993589 0.12950176 0)
(0.093453927 0.13718006 0)
(0.075861629 0.14373826 0)
(0.057323134 0.14903194 0)
(0.038016826 0.15293506 0)
(0.018187644 0.15534151 0)
(-0.0019456323 0.15620553 0)
(-0.02210314 0.15549144 0)
(-0.042064062 0.15317648 0)
(-0.061535568 0.14931514 0)
(-0.0802967 0.1439899 0)
(-0.09812887 0.13731118 0)
(-0.11484168 0.12940445 0)
(-0.13027187 0.12041284 0)
(-0.1442691 0.11048882 0)
(-0.15669586 0.09980749 0)
(-0.16743744 0.088574804 0)
(-0.17641006 0.077027639 0)
(-0.18358476 0.065426223 0)
(-0.18901349 0.054030177 0)
(-0.19282266 0.043066203 0)
(-0.19517437 0.032714022 0)
(-0.19627165 0.023096898 0)
(-0.19634489 0.014259188 0)
(-0.1955805 0.0061781123 0)
(-0.19409737 -0.0012049323 0)
(-0.19200815 -0.0079517983 0)
(-0.18940903 -0.014138626 0)
(-0.18633754 -0.01982736 0)
(-0.18282628 -0.025070273 0)
(-0.17889993 -0.029903482 0)
(-0.17457851 -0.034354996 0)
(-0.16988713 -0.038448071 0)
(-0.16484908 -0.042199883 0)
(-0.15948919 -0.045626059 0)
(-0.15383607 -0.048742851 0)
(-0.14791734 -0.051565128 0)
(-0.14175974 -0.054108735 0)
(-0.13539191 -0.056390164 0)
(-0.12884116 -0.058425707 0)
(-0.12213121 -0.060232538 0)
(-0.11528525 -0.061828018 0)
(-0.10832477 -0.063228946 0)
(-0.10126824 -0.064452364 0)
(-0.094132484 -0.065513907 0)
(-0.086932467 -0.066429185 0)
(-0.079681158 -0.067213853 0)
(-0.072389024 -0.067880426 0)
(-0.065062258 -0.068443053 0)
(-0.057714129 -0.068913435 0)
(-0.050369206 -0.069301657 0)
(-0.042967249 -0.069618813 0)
(-0.035397005 -0.069878136 0)
(-0.028221491 -0.070073891 0)
(-0.022161945 -0.070205185 0)
(-0.010219138 -0.070331816 0)
(0.010124006 -0.076202668 0)
(0.021975475 -0.076049441 0)
(0.027975886 -0.075877672 0)
(0.035102752 -0.075630069 0)
(0.042610227 -0.075303243 0)
(0.04993961 -0.07490517 0)
(0.05720867 -0.074422767 0)
(0.064474251 -0.073845524 0)
(0.071709934 -0.073165032 0)
(0.078903174 -0.072370449 0)
(0.086045226 -0.071451264 0)
(0.093125326 -0.070395374 0)
(0.1001313 -0.069192554 0)
(0.1070474 -0.067830038 0)
(0.11385691 -0.066296253 0)
(0.12054325 -0.064580577 0)
(0.12708882 -0.062671929 0)
(0.13347402 -0.060559609 0)
(0.13967897 -0.058234534 0)
(0.14568473 -0.05568817 0)
(0.15147287 -0.052912995 0)
(0.15702681 -0.049900174 0)
(0.16233359 -0.046641661 0)
(0.16738425 -0.043129064 0)
(0.17217472 -0.039350192 0)
(0.17670688 -0.035285775 0)
(0.18098852 -0.030906606 0)
(0.18502732 -0.026167138 0)
(0.18883033 -0.021004514 0)
(0.19239248 -0.015325108 0)
(0.19568234 -0.0090117407 0)
(0.19863746 -0.0019229437 0)
(0.20110568 0.0060818917 0)
(0.20288348 0.015130876 0)
(0.2037202 0.02528779 0)
(0.20330455 0.036518626 0)
(0.20132618 0.048676801 0)
(0.19754003 0.061502094 0)
(0.19179759 0.074677561 0)
(0.18406529 0.087877639 0)
(0.17440204 0.10081065 0)
(0.16291942 0.11323857 0)
(0.14974654 0.12498235 0)
(0.13499977 0.13590762 0)
(0.11877773 0.14588375 0)
(0.10117516 0.15476144 0)
(0.082305759 0.16238056 0)
(0.062336841 0.16856529 0)
(0.041469054 0.17314807 0)
(0.019979852 0.1759943 0)
(-0.0018702167 0.17704286 0)
(-0.023757573 0.17624851 0)
(-0.045422295 0.17358345 0)
(-0.066522989 0.16911634 0)
(-0.086805362 0.1629508 0)
(-0.10603069 0.15522307 0)
(-0.12399361 0.14608311 0)
(-0.14051717 0.13568311 0)
(-0.15543469 0.12418478 0)
(-0.168579 0.11177746 0)
(-0.17979603 0.098694102 0)
(-0.18896524 0.085224162 0)
(-0.19603614 0.071706644 0)
(-0.20107254 0.058483654 0)
(-0.20424857 0.045868371 0)
(-0.20580916 0.034108059 0)
(-0.20604957 0.023330468 0)
(-0.20526235 0.013552798 0)
(-0.20368978 0.0047242743 0)
(-0.20148726 -0.0032758806 0)
(-0.1987674 -0.010553727 0)
(-0.19561174 -0.017213133 0)
(-0.1920487 -0.023338849 0)
(-0.18809383 -0.028994358 0)
(-0.18375794 -0.034219979 0)
(-0.17905432 -0.039045945 0)
(-0.17399934 -0.043491829 0)
(-0.16861287 -0.047571831 0)
(-0.1629194 -0.051300011 0)
(-0.15694669 -0.054689931 0)
(-0.15072389 -0.057755729 0)
(-0.14427999 -0.060513527 0)
(-0.1376434 -0.062982358 0)
(-0.13084094 -0.065179455 0)
(-0.12389778 -0.067123892 0)
(-0.11683722 -0.068835384 0)
(-0.10968041 -0.070332964 0)
(-0.1024451 -0.07163524 0)
(-0.09514715 -0.072760246 0)
(-0.087802188 -0.073725229 0)
(-0.080421347 -0.074548272 0)
(-0.073013237 -0.075244022 0)
(-0.065584402 -0.075827766 0)
(-0.058146135 -0.076313403 0)
(-0.050722653 -0.076711438 0)
(-0.043254839 -0.077035001 0)
(-0.03562217 -0.077298929 0)
(-0.02838335 -0.077495177 0)
(-0.022288317 -0.077628638 0)
(-0.010281699 -0.077754475 0)
(0.010202291 -0.083578467 0)
(0.022136825 -0.083423262 0)
(0.028186542 -0.08324587 0)
(0.035391552 -0.082995951 0)
(0.042976869 -0.082659197 0)
(0.050385364 -0.082249247 0)
(0.057746364 -0.081750369 0)
(0.06511448 -0.081150212 0)
(0.072463164 -0.080439121 0)
(0.079780629 -0.079605013 0)
(0.087059574 -0.078635752 0)
(0.094288298 -0.077517193 0)
(0.10145497 -0.076238411 0)
(0.10854532 -0.074785073 0)
(0.11554156 -0.073143692 0)
(0.12242642 -0.071301702 0)
(0.12918163 -0.069247705 0)
(0.13578654 -0.066970815 0)
(0.14222038 -0.064461076 0)
(0.14846295 -0.061710511 0)
(0.15449491 -0.05871314 0)
(0.16029921 -0.055463561 0)
(0.16586273 -0.051957826 0)
(0.17117844 -0.048192074 0)
(0.17624697 -0.044161027 0)
(0.18107877 -0.039852594 0)
(0.18569571 -0.035243685 0)
(0.19012634 -0.030293865 0)
(0.19440699 -0.024932001 0)
(0.19856418 -0.019049696 0)
(0.2025976 -0.012495898 0)
(0.20645895 -0.0050701634 0)