/*--------------------------------*- C++ -*----------------------------------*\
  =========                 |
  \\      /  F ield         | OpenFOAM: The Open Source CFD Toolbox
   \\    /   O peration     | Website:  https://openfoam.org
    \\  /    A nd           | Version:  9
     \\/     M anipulation  |
\*---------------------------------------------------------------------------*/
FoamFile
{
    format      ascii;
    class       volScalarField;
    location    "29";
    object      p;
}
// * * * * * * * * * * * * * * * * * * * * * * * * * * * * * * * * * * * * * //

dimensions      [0 2 -2 0 0 0 0];

internalField   nonuniform List<scalar> 
400
(
1.4645797e-07
-0.00067271103
-0.0013851868
-0.001942544
-0.0022198366
-0.0021563328
-0.0017276277
-0.00092603699
0.00023558263
0.0017075659
0.0033874452
0.0051123542
0.0066736358
0.0078492617
0.0084585528
0.0084238526
0.0078135682
0.0068446869
0.0058614641
0.0052991053
0.00065800305
-4.0362075e-05
-0.00056949551
-0.00094046069
-0.0011106981
-0.0010397557
-0.00070562461
-9.5378891e-05
0.0007892644
0.001916349
0.0032097457
0.0045548636
0.0057821231
0.0067164192
0.0072145892
0.0072146962
0.0067701229
0.0060529351
0.0053106907
0.0047386481
0.0014238614
0.00044081256
-0.00011643698
-0.00045307951
-0.00061464419
-0.00058464673
-0.00034641571
0.00011990783
0.0008286242
0.00177007
0.0028944526
0.0040983235
0.0052283977
0.0061111314
0.0065940284
0.0065978263
0.0061559016
0.0054216745
0.0045939076
0.0037483952
0.0020143562
0.00068184689
1.6930857e-05
-0.00035869117
-0.00057138665
-0.00062639671
-0.00050991982
-0.00019046793
0.00036866543
0.00118455
0.0022300764
0.0034175871
0.0045915227
0.0055570968
0.0061237124
0.0061667232
0.0056837855
0.0048172147
0.0037474546
0.0024737608
0.0021674266
0.00049627644
-0.00029609963
-0.0007485453
-0.0010580926
-0.0012451093
-0.0012925876
-0.0011511417
-0.00075488996
-5.2938557e-05
0.00095718794
0.0022104453
0.0035448688
0.0047328208
0.0055220021
0.0057100453
0.0052294493
0.0042017665
0.0028063454
0.00098412322
0.0016541173
-0.00031432203
-0.0012386292
-0.0017991419
-0.0022525026
-0.0026277497
-0.0028984615
-0.0029909237
-0.0028023792
-0.0022375188
-0.0012509342
0.00013105636
0.0017448091
0.0033272694
0.0045418013
0.0050659366
0.0047176542
0.0035663577
0.001789753
-0.00072576122
0.00028718022
-0.0019194139
-0.0029728407
-0.003671223
-0.0043201358
-0.0049530394
-0.0055299599
-0.0059477938
-0.0060588447
-0.0057072229
-0.0047755548
-0.0032585321
-0.0012663463
0.00090733737
0.002823284
0.0039869934
0.0040252521
0.0028878663
0.00071553798
-0.0026803405
-0.0020762731
-0.0044510348
-0.0056266464
-0.0064921631
-0.0073927572
-0.0083655977
-0.0093567566
-0.010231619
-0.010790808
-0.010804681
-0.0100632
-0.0084615984
-0.0060406035
-0.0030830558
-0.0001261481
0.0021127804
0.002963984
0.0021357389
-0.0003658759
-0.0048724513
-0.0055240093
-0.0079919553
-0.009277763
-0.01033363
-0.011537835
-0.012935248
-0.014462539
-0.015956153
-0.017162299
-0.01776587
-0.017437919
-0.015919311
-0.013122795
-0.0092515963
-0.0048988469
-0.0010298567
0.0012695674
0.0012779208
-0.0013338003
-0.0072015186
-0.010076753
-0.012564935
-0.013936506
-0.015183846
-0.01671822
-0.018602458
-0.02077403
-0.023048597
-0.025121522
-0.026586189
-0.026969188
-0.025812779
-0.022845515
-0.018074287
-0.01205093
-0.005951793
-0.0013705803
0.00030075181
-0.0019470451
-0.009382066
-0.015684827
-0.018132253
-0.019537396
-0.02092665
-0.022757583
-0.025129719
-0.027996843
-0.031166238
-0.034291307
-0.036876689
-0.038294014
-0.037844118
-0.035065694
-0.029601308
-0.021822337
-0.012985416
-0.0051848159
-0.00071559192
-0.0017640411
-0.010792096
-0.022243438
-0.024612878
-0.025945433
-0.027334795
-0.029324004
-0.032079076
-0.035588786
-0.039664489
-0.043927112
-0.047801144
-0.050530029
-0.051236321
-0.048956717
-0.043143387
-0.033768856
-0.021926183
-0.010036724
-0.0014152852
-9.7086072e-06
-0.010225461
-0.029641056
-0.031923738
-0.032978588
-0.034079706
-0.035939348
-0.038831362
-0.042795462
-0.047651428
-0.052990376
-0.05816343
-0.062284089
-0.064265373
-0.062874999
-0.057112028
-0.046476584
-0.031648929
-0.015037703
-0.00086423117
0.0046469218
-0.005521379
-0.037865848
-0.040048356
-0.040439981
-0.040752359
-0.042014885
-0.044652906
-0.048758038
-0.054143905
-0.060355877
-0.06666519
-0.07206053
-0.075268124
-0.074811205
-0.06926911
-0.057628151
-0.039961352
-0.018247814
0.0027891961
0.014445315
0.0069077053
-0.047230438
-0.049134201
-0.048140419
-0.046882148
-0.046905347
-0.048798533
-0.052668133
-0.05827586
-0.065075949
-0.072231842
-0.078595612
-0.082712165
-0.082880055
-0.077309238
-0.064523787
-0.043934802
-0.016747834
0.012503104
0.032938941
0.03240911
-0.058896653
-0.059639732
-0.05588374
-0.051940904
-0.049972177
-0.050629728
-0.053928492
-0.059495187
-0.066611707
-0.074285144
-0.081191016
-0.085679252
-0.085831646
-0.079522046
-0.064875952
-0.040689119
-0.0072407699
0.032139525
0.064981605
0.077749336
-0.076226383
-0.072613607
-0.063516004
-0.055435214
-0.050724879
-0.049781457
-0.052312194
-0.057664214
-0.064891669
-0.07277482
-0.079779217
-0.084036599
-0.083391508
-0.075348817
-0.05760253
-0.028374996
0.012933475
0.065396627
0.11555166
0.15150638
-0.10809209
-0.089556255
-0.071233697
-0.057232841
-0.049071976
-0.046330069
-0.048077119
-0.053202459
-0.060434473
-0.068295715
-0.075027246
-0.078526768
-0.076388863
-0.065809534
-0.043865339
-0.0078183062
0.044393814
0.1129983
0.18838057
0.27186092
-0.17684536
-0.1082896
-0.076202391
-0.054651116
-0.042992241
-0.038997887
-0.040570368
-0.045927899
-0.053441391
-0.061438211
-0.068027438
-0.070962413
-0.067550991
-0.054739694
-0.029148674
0.013563742
0.078147101
0.1700645
0.28949561
0.47421837
-0.37208335
-0.12470834
-0.054972941
-0.031962388
-0.022063423
-0.020300384
-0.024359316
-0.031957857
-0.041261415
-0.050640741
-0.058316755
-0.062187319
-0.059782411
-0.04805667
-0.022658388
0.021474349
0.092818865
0.21015291
0.40288857
0.77640943
)
;

boundaryField
{
    movingWall
    {
        type            zeroGradient;
    }
    fixedWalls
    {
        type            zeroGradient;
    }
    frontAndBack
    {
        type            empty;
    }
}


// ************************************************************************* //
