/*--------------------------------*- C++ -*----------------------------------*\
  =========                 |
  \\      /  F ield         | OpenFOAM: The Open Source CFD Toolbox
   \\    /   O peration     | Website:  https://openfoam.org
    \\  /    A nd           | Version:  9
     \\/     M anipulation  |
\*---------------------------------------------------------------------------*/
FoamFile
{
    format      ascii;
    class       surfaceScalarField;
    location    "38";
    object      phi;
}
// * * * * * * * * * * * * * * * * * * * * * * * * * * * * * * * * * * * * * //

dimensions      [0 3 -1 0 0 0 0];

internalField   nonuniform List<scalar> 
1300
(
1.7582594
5.6264299
-5.0838516
1.7582594
-8.5095207
5.6264299
-5.4606383
5.4606383
-0.92973903
0.92973903
3.7323007
3.6523886
-4.2136095
4.2136095
-3.5774097
3.5774097
-0.92269709
0.92269709
-5.2377222
5.2377222
-5.0575732
5.0575732
4.7309656
-4.7309655
-6.9145973
6.9145973
-0.92895015
0.92895015
-5.1921561
5.1921561
1.4986646
-1.4986646
-3.5294421
3.5294421
-0.055833135
0.055833133
-0.57052646
5.1420008
1.1877329
1.1877329
-0.89212469
0.89212469
-4.8618475
4.8618475
6.2141353
-6.2141353
7.8824663
-7.8824663
-2.7986147
-3.37414
1.966463
-12.516093
-6.5430577
-6.5430577
-8.4382639
8.4382639
-2.811834
2.8145959
1.4560248
-1.4560248
-1.7811323
1.7811323
-5.3583721
-0.10226618
-5.3583721
5.5618053
-0.10116704
5.5618053
-1.0151169
0.085377869
-1.0151169
4.6981004
-4.6981004
0.79859585
0.13114317
0.79859586
1.2670406
-1.2670406
-3.7395258
7.4718266
3.6451635
-3.0540874
8.1960881
-3.3928636
7.0452522
-6.53109
6.53109
-4.4676795
0.25407003
-4.4676795
4.0138363
0.19977317
4.0138363
-7.4353245
7.4353245
-3.6393948
0.061985216
-3.6393948
3.5435913
0.033818416
3.5435913
2.0741649
-2.0741649
-0.92102101
-0.0016760754
-0.92102102
0.92296009
-0.00026300576
0.92296011
0.35898225
5.2674477
-5.9854122
8.8000081
-5.2674477
0.029725542
5.2000885
0.037633654
5.2000885
-5.0937938
0.036220588
-5.0937939
5.0154561
0.042117108
5.0154561
4.8222584
-0.091292982
4.8222585
-4.8369551
0.10598952
-4.8369551
-4.0079797
-4.5130975
-7.0843707
0.16977335
-7.0843707
-0.85819929
-0.070750853
-0.85819928
1.0170783
-0.088128092
1.0170783
-4.1096029
4.1096029
-5.5066928
0.31453673
-5.5066928
1.3680999
0.1305647
1.3680999
2.0093409
2.5621334
3.7676003
-3.7676003
2.2689356
-3.5197847
-0.0096574747
-3.5197847
-3.5908584
-4.2916079
3.5908584
-0.061416262
-0.44577737
0.38994425
-0.44577736
1.2430768
-0.055343899
1.2430768
0.91622883
0.0067312814
-0.91622885
0.024104154
3.3316208
-3.3316208
0.47772222
0.41440248
0.47772222
-5.5713528
5.5713528
4.9569907
0.058465426
-4.9569907
0.095143158
6.1534312
0.060704028
6.1534312
-6.1926584
-0.021476937
-6.1926584
3.4292218
-6.8033618
-3.4853603
6.7327827
0.1818146
-6.7327827
0.18972501
1.5675654
-0.11154062
1.5675654
-1.0752656
1.0752656
-1.4179582
-0.038066594
-1.4179582
-2.1065005
0.32536821
-2.1065005
1.5182218
0.26291051
1.5182218
-5.140412
-0.21796012
-5.140412
-5.5952695
0.088576715
5.5952696
-0.033464316
1.419904
-1.419904
-1.061423
0.046306064
-1.061423
-4.893428
-0.24698407
4.8934279
-0.19532757
-4.5669433
-0.13115708
-4.5669433
-1.3328895
-0.085068672
1.3328896
-0.06584897
1.2726037
-0.029526947
-1.2726037
0.0055630873
-3.0503824
5.6125158
-3.3965685
7.041732
-6.1554436
-0.37564635
-6.1554436
6.8649035
-0.33381348
6.8649035
4.8622644
0.32989169
-4.8622644
0.39458491
3.8545805
0.15925586
3.8545805
-7.3973539
-0.037970576
-7.3973539
7.4532941
-0.017969586
7.4532942
3.7326007
0.12197976
-3.7326007
0.093205889
3.5257406
0.017850651
3.5257406
2.2847367
-0.21057184
2.2847367
-1.8793001
-0.19486477
-1.8793001
1.0021398
-1.0021398
0.97579453
0.026345222
-0.97579453
0.054773508
-11.148735
11.127258
-0.035762199
-11.112973
5.1643263
5.1643263
4.0362973
0.78596096
4.0362972
-5.0332014
0.19624629
-5.0332014
3.4844649
-6.9698251
3.8284227
-7.8364024
5.0640617
-17.580155
4.7001018
-9.2131993
7.3211293
-7.3211293
7.2118405
0.10928878
-7.2118405
0.12746981
-0.77156249
-0.086636791
-0.77156248
-3.4900464
-0.61955647
-3.4900464
4.7734829
-0.66387999
4.7734829
-1.2824454
1.2824454
-1.308674
0.026228636
1.308674
0.059425908
3.5199719
0.0057686772
-3.519972
0.00018730586
0.64066147
0.15793438
-0.64066147
0.1948841
3.7780678
-0.44644706
3.7780678
-2.8665233
-0.46509754
-2.8665233
-0.63581339
-0.13574908
0.63581337
-0.15809116
-5.818113
0.24676012
-5.818113
-11.21344
0.10046698
-11.175806
-6.0921914
-6.0921914
2.3460725
11.146081
-1.7149282
-0.16437192
1.7149282
-0.14736279
1.2269051
0.055540314
-1.2269051
0.15163951
-1.0209187
0.018778989
1.0209187
0.054346856
-2.525246
0.41874552
-2.5252459
-1.2431643
1.2431643
-1.3331657
0.090001396
1.3331657
0.18505606
1.7194826
-0.29957858
1.7194826
1.0548009
-0.037722686
-1.054801
-0.0066219898
-4.3786622
-0.18828104
-4.3786622
7.1244031
-0.25949962
7.1244032
-2.5578669
-0.30865638
2.5578669
-0.27313022
-0.035171852
11.16243
-5.1291544
0.03536054
5.1291544
-11.223134
11.258494
-3.0966619
0.57141597
3.0966619
0.93963529
5.300861
0.27049184
-5.300861
0.26765959
7.3984498
0.054844359
-7.3984498
0.077320514
-2.981281
-0.50876538
-2.981281
-5.5177203
-0.63772326
5.5177203
-0.74423737
-11.47518
-0.19696974
11.67215
-11.433063
6.0150828
0.13834848
-6.0150827
11.396843
-1.2599604
-0.15994365
1.2599604
-0.016796153
2.0623071
-0.34282446
2.0623071
4.1512221
-0.37315428
-4.1512221
-0.22744008
-7.2830799
-0.11427401
7.2830799
-0.15867672
-2.4993345
-0.4819465
2.4993345
-0.43702747
-5.3383451
5.2830012
2.857743
-3.3248908
-3.478471
-7.6164987
2.540238
3.0722778
4.8091736
-11.031381
-6.5487739
-10.841656
7.2667361
-6.9990765
-9.453952
9.362659
10.503166
-10.634323
-7.2853047
7.3447306
8.7376436
-8.8034925
3.7943979
3.6774287
10.807601
-10.553531
-16.832787
16.45714
10.308826
-10.246841
16.997296
-17.035267
-19.243117
19.297962
-7.2684268
7.2667507
-9.4173913
9.2225266
-9.7588908
9.4857606
-3.6391632
-4.1972392
14.230594
-14.06082
11.73123
-11.740887
-11.451522
11.766059
4.0459711
1.2370301
4.0164441
-3.6119838
7.4063817
-3.4332683
6.2910113
3.5732044
-7.2123676
3.3966208
-6.8750917
6.0135838
5.7176457
-5.9521675
-1.6643312
-8.2135127
8.1019721
-7.4145429
7.4688898
11.954704
-12.056971
-3.6109022
7.2883309
-3.4308297
6.5031076
-3.6807652
-3.6045395
3.5502005
1.2589731
8.7744302
5.4561635
-8.9562447
-1.885411
-11.109296
10.736142
-11.671876
11.206778
-0.44136274
5.7852969
-5.3439341
4.4204848
-1.4821356
7.2674324
5.7846007
5.980847
5.8662288
-5.5957369
1.1328478
-6.4767818
-6.3816386
-2.7040108
2.7503168
2.7187975
-2.5876544
8.0076526
2.4955138
7.8123251
-7.5962932
-3.0380303
-7.7845742
4.3849772
2.9597534
4.4112059
5.2588112
3.4788323
5.1737426
5.8500579
-5.9676958
0.1176379
-5.4781763
11.328234
1.3206351
-9.0827158
-7.8237427
6.8760127
3.9315884
7.0757859
-7.4175494
-3.1359816
-7.0229645
-10.254059
-6.5787271
-10.891783
10.972158
5.4849827
10.638344
-12.886165
12.727488
6.7176559
3.5911703
6.7514743
-6.8364899
-3.410351
-6.743284
13.283617
-3.1776309
-10.105986
-11.124872
-8.118245
11.142842
5.8544544
11.857074
7.4408875
11.934395
4.862737
8.4208797
-10.717191
2.5989464
-4.4726397
-2.7957871
-4.4178662
4.4239904
2.8427604
4.4237274
-5.5221272
-3.8952641
-5.6864992
-5.5619715
-4.1969193
5.7725434
3.4499831
-5.8007197
-5.8711561
6.1093761
3.3763845
4.3975016
-10.946276
4.8156977
-9.0129369
-9.9628949
-4.0979255
-9.8354251
4.5243331
3.1212795
-7.6456126
-2.6880345
11.227457
-5.5098117
9.5631262
-7.2375952
-4.5032918
-7.2374079
-8.9465457
-2.5049763
-8.8579689
-9.55308
9.0443147
-9.935874
9.2719941
14.023776
-6.8660364
-7.1577398
-4.8839839
-3.9195086
4.8784208
-0.86197674
-7.2037121
7.32135
0.20266953
6.4936808
7.730711
6.8687342
-4.4656375
-2.9489054
-4.313998
4.4943572
2.9745326
4.5131362
9.0120876
2.9426168
8.9109205
-8.5055536
-3.551417
-8.7235138
9.5176224
-9.1922543
2.8298426
-2.9655917
7.3609613
3.8458169
-6.9145142
-4.1947817
9.4223298
-4.4221066
-5.0002232
-12.067124
10.597587
1.4695374
-4.7996916
-0.3792068
-0.32337375
-5.5591289
-3.8948227
5.4531396
0.5277074
11.125294
7.2304707
-5.5158023
5.7625624
6.1563478
6.2148132
-0.16682547
6.0496935
-5.4782775
7.1457887
-3.6241047
-3.5216841
6.9860426
-7.2330267
-1.7374712
-7.7312605
5.9937893
0.57929837
2.0036952
-1.6137509
-1.9466605
-0.75735024
-1.9532825
1.6203475
1.09845
1.7782819
0.98119581
1.769121
-3.5673144
0.73315549
2.8341589
-2.5861186
-1.8544989
-5.1822602
-2.0026863
7.1849465
7.7590797
2.9770619
-7.5316396
-0.25293462
2.6373812
-2.7255093
-0.74526393
-4.4369963
3.0170062
-3.7622701
-5.910221
-2.5041608
8.4143818
-3.6880047
-0.62599335
3.6324644
0.7787415
-4.8123617
-3.401151
4.8504283
0.32331425
-5.4235628
11.055751
-5.6321884
-8.3724682
4.4864987
6.8417354
7.446252
-9.1699417
4.7995748
4.370367
-2.3282063
5.9013419
1.1744441
6.0605977
-9.1736929
6.0377113
7.7895992
3.9764596
-8.1194909
1.0965264
-8.0771664
10.690717
-9.3055829
-1.3851338
5.3316289
5.3590879
7.6294996
6.3942769
-6.0562772
13.685777
-1.4124479
-7.893135
9.4896143
-5.5131547
6.2315647
-11.744719
-12.625841
4.7327064
-9.8944795
11.939315
-2.044836
-3.8515911
-9.0345735
13.74607
-1.3442711
-12.401799
9.2940731
-5.5797175
-5.6462763
11.225994
-8.7573483
9.0566273
-2.602815
-6.4538122
-10.857977
-6.17729
10.972251
1.7552374
-11.833038
14.431984
-3.4121583
5.8096395
0.94183482
5.8274902
4.201128
-6.7898507
2.5887228
4.5562203
-7.1590353
2.6474202
-9.4372709
-7.1950633
13.26718
-6.072117
-11.292989
-10.224465
-1.0685234
2.7912081
11.640776
-10.232096
8.0162071
2.2158886
3.7307168
0.78241943
-3.757062
-0.66080425
0.52774367
6.7887392
-7.3164828
4.951471
4.9582023
5.0512751
1.737464
5.150695
2.9512771
-5.0033322
-0.68316699
-6.5459211
2.3490018
-3.095938
-6.5082261
8.8572279
-7.1819693
0.67374324
-4.3900757
-6.1686248
10.5587
-7.1858628
5.2467292
5.8090219
8.2212618
-8.7698299
2.6012051
-4.3849614
-4.3848685
4.5807642
-7.6767022
3.3990348
5.458193
6.7754193
0.90426313
6.52096
6.7462203
-9.6422395
0.62930265
12.202384
-10.316973
2.649793
9.2846016
-10.666
0.44153471
-9.3938904
1.2604369
-6.7702486
-6.3851757
6.8028895
-9.3078659
-4.9418297
8.1854261
0.72549439
-8.1519619
-0.70600708
-6.5218783
-3.0312017
-7.0038248
-3.3007238
-6.6351503
-9.3570009
-1.7896079
-7.567393
7.2547067
-7.2303516
-3.661431
7.9745889
1.2974052
-8.0034466
7.843503
-8.0599534
7.7171289
0.28346809
7.0378819
7.1522023
3.2326937
-4.7096756
7.9423693
-7.058017
10.000634
-12.063794
5.0057774
5.8912936
-9.4427106
-6.1725009
5.4557128
4.0619096
5.7186234
9.3663168
-10.759754
1.3934376
-11.016621
12.619342
-1.602721
-17.065099
6.0484779
-7.6987826
2.6507155
0.17912707
2.5640788
0.80811915
2.9021946
-3.7103138
-2.1574725
-2.3155636
-3.7292859
-5.6101864
9.3394723
1.8245869
-5.2767989
3.4522119
-4.7481202
6.5727071
0.062877444
-5.3396763
7.1548292
-4.2526346
7.3339563
-4.6852427
2.6487136
5.1696953
9.0689622
-3.8992669
6.7894869
-2.9436699
3.0154813
-6.9147482
-2.5947052
-4.9102259
7.7529861
-5.6484746
6.3222178
-0.43650339
6.7587211
-5.8200116
1.397905
-0.76873654
4.1894657
4.2135699
6.9827054
-5.2452414
4.9322659
-7.8759359
-1.9824823
-6.9716727
-1.5134797
-0.40671825
-5.220666
5.6273844
6.7238608
-7.1305791
-5.3106404
9.6993285
-4.3886882
8.0344556
-5.5042947
-2.5301609
-4.5363961
-4.6558583
4.1176506
1.9320429
9.9664985
0.27973697
-5.7840317
-5.1985404
-4.2589051
4.3170295
2.8287592
-2.16009
3.6296273
2.4834636
-0.47976848
0.63364531
1.1446366
2.2438364
-1.6101911
0.27423035
1.969606
-1.3395206
1.9471388
0.6902425
-1.9094161
-0.043866443
-1.5020789
4.519085
1.3320801
-2.4305301
0.82033892
1.4005567
-5.0246614
7.283133
-3.911527
-3.371606
8.6836898
1.5253639
-5.4368908
6.2058967
-5.6265983
3.3204446
-5.3231308
-2.1164463
-7.7430446
-5.2475308
-4.1903652
7.6425771
-5.1491072
8.1261691
1.7323561
-7.8732345
9.6055906
-4.8499309
2.3457701
-4.1393084
4.8295509
-1.7227762
-2.4165322
4.3000702
4.1143116
-4.3257859
-0.1112104
-0.025715663
3.1458944
-3.1716101
-0.61637572
-3.2024943
-7.6172825
7.9405967
-3.8039191
8.6034938
4.1384502
-3.596899
12.200393
3.1909537
-6.7878526
-5.1815145
-5.8075078
-2.4174857
5.0287663
-0.81690038
-5.9263836
-7.2707126
5.8044038
0.25619391
-9.2297763
10.35169
-1.1219133
-5.2981879
-0.73952341
6.0711523
-7.8093048
0.6502695
-5.1618846
5.1898051
6.3642491
6.6204431
-12.204405
-0.19739471
-6.7194219
1.3711745
-8.0905965
6.7302625
-3.8393672
8.5720736
-11.143815
7.4823837
-9.8464094
7.1869398
-0.90365663
7.1496731
-4.5609503
2.9563126
-9.1336026
-7.3783652
7.2433302
-3.6521599
8.185165
-4.1616756
12.346841
-7.573834
7.0342094
5.3126313
-1.3749679
-5.8624399
-7.0050283
5.6300604
0.029181061
5.8566713
7.9479259
-4.9966487
7.2647589
4.3072075
-8.6921689
-3.3694948
-11.920023
3.2278543
-6.1110014
-3.2111657
6.4390201
5.0100961
5.7925155
2.0541515
-5.1317113
8.3584727
-9.4269961
-2.2863556
-4.0988201
6.9334913
-1.303431
4.3400491
-8.4388692
-2.4301995
5.8342236
-0.67173295
-5.1624905
1.031813
-5.9736427
2.429987
-8.4036298
6.8778789
-7.583886
2.3414538
-10.040236
-5.6619928
-5.678789
-2.4199486
-5.6400048
-7.9523974
5.5324488
-1.9039195
5.9395834
-8.8999408
8.2282077
-3.7194016
9.2518504
-5.868176
-1.1356489
6.3052035
1.4119255
10.663776
0.49893974
-6.6714407
-2.8803574
5.5345328
-2.6541754
1.4366721
-4.7217262
0.81280648
3.5014291
5.1822606
-9.4952185
0.052507867
-6.6189327
-4.157634
8.2195437
5.5416945
12.265555
1.5058009
9.3617582
-1.1422146
10.867559
4.5764088
4.7614648
-4.2133033
5.606741
1.4140809
6.4198583
-0.85710233
3.5058159
1.7069765
1.6362256
1.0892837
2.6315595
1.5820104
4.0294645
0.31915073
-1.9964129
4.672173
-8.9310781
-1.1118588
-8.145117
1.217542
5.8403741
-4.6228321
4.1621641
-1.3334048
1.5079885
-0.16504391
-1.9312122
2.0962564
-3.6867284
-2.4109807
-0.44137464
-2.1042843
2.9246233
2.4148007
-2.4832486
-1.2034798
0.68704713
-5.934578
4.6360837
-4.7472941
-0.63298242
8.9726082
-3.6634585
0.49184841
-1.3176884
-2.7106459
-3.4679961
3.5118626
11.57508
0.62531254
5.9428919
8.5659093
5.1647583
0.16810951
4.8841495
-6.9289855
-4.5531213
-7.1263802
-0.39611769
5.6750346
2.2074364
9.4333399
7.5200677
6.2166368
-2.2222324
-11.649229
8.4203658
-2.8136248
6.8176447
-1.6551542
-6.7484757
6.7923374
3.2082963
-7.5178318
-0.066054233
-6.8145299
-9.6281547
-0.49229358
8.7205013
-10.171482
9.0358333
6.0046315
1.5627614
-4.8160519
-0.86273705
4.7260505
0.035414321
10.902973
-1.191509
-7.0001176
8.1916269
-4.648865
3.5370063
0.9130586
2.7165689
3.0093149
1.6759102
-5.3242076
-9.9470399
-3.0521977
-1.9724637
-6.4238037
0.76114275
-3.1759435
6.2468971
-2.7098909
3.7167362
5.481736
6.9897245
-1.9975105
-5.1330686
6.3861987
-2.6694625
4.3202621
)
;

boundaryField
{
    wall-4
    {
        type            calculated;
        value           uniform 0;
    }
    velocity-inlet-5
    {
        type            calculated;
        value           nonuniform List<scalar> 8(-1.7582594 -1.7582594 -7.3846893 -4.5714743 -7.3846893 -6.446951 -4.5714743 -6.446951);
    }
    velocity-inlet-6
    {
        type            calculated;
        value           uniform -5.6264299;
    }
    pressure-outlet-7
    {
        type            calculated;
        value           nonuniform List<scalar> 8(5.0838516 8.5095207 6.1727547 10.54963 8.5210772 6.9145821 7.3128876 9.7641635);
    }
    wall-8
    {
        type            calculated;
        value           uniform 0;
    }
    frontAndBackPlanes
    {
        type            empty;
        value           nonuniform List<scalar> 0();
    }
}


// ************************************************************************* //
