/*--------------------------------*- C++ -*----------------------------------*\
  =========                 |
  \\      /  F ield         | OpenFOAM: The Open Source CFD Toolbox
   \\    /   O peration     | Website:  https://openfoam.org
    \\  /    A nd           | Version:  9
     \\/     M anipulation  |
\*---------------------------------------------------------------------------*/
FoamFile
{
    format      ascii;
    class       volVectorField;
    location    "38";
    object      U;
}
// * * * * * * * * * * * * * * * * * * * * * * * * * * * * * * * * * * * * * //

dimensions      [0 1 -1 0 0 0 0];

internalField   nonuniform List<vector> 
918
(
(0.40901061 -0.000197724 0)
(0.0090456843 2.9576278 0)
(-0.007288051 1.3448051 0)
(0.29032703 -0.0084187521 0)
(-0.012424433 2.262489 3.9578005e-20)
(-0.011743979 2.9485786 -3.4121217e-18)
(0.93068139 1.4634166 7.728765e-19)
(0.27889485 0.17141206 -2.7355386e-20)
(1.9883434 0.0038257191 0)
(0.024425498 1.1958014 0)
(0.0028504735 0.97594774 0)
(0.17499766 -0.0064044216 0)
(0.012835978 2.9163561 0)
(0.013687969 2.7911531 0)
(0.099337107 3.1679325 3.1667208e-19)
(-0.010326631 2.128643 1.1989372e-20)
(0.2226156 0.046824834 1.6968936e-18)
(0.20446701 1.6250002 5.8372406e-19)
(0.37256458 0.0059482664 0)
(-0.0077776859 0.9508118 0)
(-0.025892114 0.16727199 -1.355403e-18)
(1.0478183 -0.021787992 0)
(0.54343909 -0.027896459 0)
(0.24793215 -0.0069007809 0)
(0.23308948 0.0034578822 0)
(0.021824594 2.6220284 0)
(-0.0099803196 2.9058324 1.2570296e-18)
(-0.019779172 1.3988102 0)
(-0.034673213 1.6476406 0)
(-0.015919155 1.3733762 0)
(-0.010445275 2.8154971 0)
(-0.0043592342 2.3188611 -3.1113714e-20)
(-0.0063900871 2.1042961 0)
(-0.018162113 2.98132 -1.2711226e-22)
(-0.018376217 3.007022 2.6491307e-18)
(0.00085881928 3.0015932 0)
(0.28883209 -0.0026392701 0)
(0.43648997 0.91552199 3.4315991e-19)
(1.0350515 1.4792352 -9.4144815e-19)
(1.0648915 1.3102388 9.6205698e-19)
(0.87397693 1.625897 -1.7834613e-19)
(0.76819131 1.5951483 1.021569e-18)
(0.366951 0.20978955 2.6646083e-20)
(0.29388065 0.14408972 0)
(1.275336 0.74176517 0)
(0.32417062 0.21617631 1.2242877e-19)
(0.25140828 0.1745932 -1.2736787e-19)
(0.24925508 -0.013754577 0)
(1.9896374 0.00080356774 0)
(1.9887224 -0.0019738733 0)
(1.3548164 0.0017665769 0)
(1.8676289 0.0056341135 0)
(1.7381184 0.0032699155 0)
(0.026072525 2.018058 -8.5141692e-19)
(0.04415061 1.425301 0)
(0.044696882 1.2864005 0)
(0.029659279 1.379201 0)
(0.019531886 1.1148066 0)
(-0.00081871561 2.2217967 0)
(0.012098099 1.2281575 0)
(0.012140778 1.0011149 0)
(0.0021367806 1.2299633 0)
(0.00012959149 0.95291548 0)
(0.49344374 0.025061164 0)
(0.39272973 -0.0067947447 0)
(0.17031695 0.0091853295 0)
(0.39015142 -0.0091396768 0)
(0.18753146 0.00061275958 0)
(0.016738613 3.0145161 1.3065806e-18)
(0.012390297 3.0113852 0)
(0.0077273217 3.0035752 0)
(0.013324581 3.000491 1.3922915e-23)
(0.010556314 2.9476305 -1.8660303e-18)
(0.016839118 2.9848946 0)
(0.013433191 2.893851 0)
(0.017576827 2.9240891 3.0050227e-24)
(0.013833634 2.8182775 0)
(0.017395061 2.91073 0)
(0.010989141 2.7548488 0)
(0.24895868 3.6232588 0)
(0.17713722 3.5595391 0)
(0.13232321 3.3016568 -2.9613493e-19)
(0.048358018 2.9948315 0)
(-0.02336358 2.2729547 0)
(-0.015127699 2.3477948 -1.1816038e-20)
(-0.0099458682 2.1509883 -6.6952919e-21)
(0.37757145 0.077149802 -5.8161815e-19)
(0.19616496 0.024771822 -5.5263907e-19)
(0.40143091 0.091150392 -1.7799719e-18)
(0.25619553 0.065383131 -1.1910481e-18)
(0.17833606 1.1491959 0)
(0.31342374 1.7558975 -6.483689e-19)
(0.39469945 1.7090817 1.0822521e-18)
(0.54218222 0.039782225 0)
(0.32004348 0.028318166 0)
(1.2189748 -0.0013710603 0)
(0.73703387 -0.035252102 0)
(0.64702777 0.017064806 -2.9641538e-18)
(0.6493518 -0.026008965 2.3236026e-18)
(-0.0016123295 1.2073726 0)
(0.0029167646 0.96118833 0)
(-0.041004471 1.4281893 0)
(-0.01832766 1.2444016 0)
(-0.0139609 0.94940624 0)
(0.017824542 0.22469869 4.128438e-19)
(0.14104374 0.14108905 0)
(0.50528774 0.019780869 0)
(0.24603666 0.013984389 0)
(0.36675845 -0.0039904018 0)
(0.33291075 -0.012124731 0)
(0.2150557 0.0064160043 0)
(0.91613019 0.053453107 0)
(0.28473859 0.024910178 0)
(0.084896344 -0.0052726147 2.2047211e-18)
(0.0014712196 2.8591115 1.1062328e-18)
(0.020736689 2.9003709 0)
(0.033949252 2.8771902 0)
(0.015259899 2.7052982 0)
(-0.010487764 2.985702 1.2152089e-18)
(-0.0091420391 2.8906045 0)
(-0.01178285 2.9907413 -3.7312447e-18)
(-0.0095991885 2.9158376 1.276229e-18)
(-0.01857532 1.8343203 0)
(-0.0069292657 1.8447229 0)
(-0.0087164005 2.3326059 8.431295e-23)
(-0.008250521 2.3000625 0)
(-0.0092969827 2.1066544 0)
(0.62654187 0.02094756 0)
(0.3130661 0.013535086 0)
(0.22586941 0.027306801 0)
(0.59839299 0.002349212 0)
(0.28435763 0.014950761 0)
(0.52288642 1.093598 -4.2082931e-19)
(0.55539355 1.1285859 0)
(0.4152036 0.90239936 5.4753212e-20)
(0.32331762 0.69275778 0)
(1.1534539 1.3096913 -2.748107e-19)
(1.1461362 1.1134367 5.3181533e-19)
(0.50544789 1.783754 0)
(0.69849261 1.7359349 0)
(0.59055954 1.6845042 0)
(0.1515244 0.26150365 -4.3453023e-19)
(0.39495645 0.18170238 0)
(0.29022472 0.1255961 3.4280559e-19)
(1.2495507 1.1204381 0)
(1.3260799 0.92409767 0)
(1.2148184 0.92355476 -4.2932969e-19)
(1.3881578 0.73069734 0)
(1.3192606 0.57019926 6.1019516e-20)
(0.57586778 0.0219898 0)
(0.54030242 0.012278647 0)
(0.26112239 0.01039133 0)
(0.52409397 0.0078782499 0)
(0.53214187 -0.014039322 0)
(0.2560956 0.0072212963 0)
(1.4985742 -0.0016445101 0)
(1.8698389 -0.0016343545 0)
(1.7318219 0.00054703715 0)
(0.040323421 2.2442481 4.61735e-19)
(0.050216454 1.9434254 0)
(0.032624306 2.3327487 7.4535682e-19)
(0.019955191 2.0786675 -6.2373716e-19)
(0.14642261 1.6309949 -4.7950849e-19)
(0.068430717 1.5035251 0)
(0.086946638 1.4459269 0)
(0.02554483 1.3321947 0)
(0.016572159 1.063042 0)
(-0.0032321332 2.407037 -1.0212143e-21)
(0.0027126776 2.216912 0)
(0.0029137572 2.4124552 -5.2961448e-20)
(-0.00078992606 2.2250345 8.9696173e-20)
(0.021587399 1.2905211 0)
(0.017636296 1.2552677 0)
(0.014643851 1.0259972 0)
(0.00033238391 1.2250661 0)
(-0.00029750026 0.94916492 0)
(0.81654489 0.046306481 0)
(0.55796869 0.025812028 0)
(0.75588729 0.040748541 0)
(0.42175117 0.014092022 0)
(0.19288154 -0.0068266148 0)
(0.41933542 0.0046731722 0)
(0.4061638 0.018248448 0)
(0.18741924 -0.0016754014 0)
(0.0036856396 3.0720267 -1.1212742e-20)
(0.010779012 3.0616139 0)
(0.016163205 2.9688152 0)
(0.013250062 2.8677429 0)
(0.72758008 4.2056752 0)
(1.2254682 3.2752929 8.6710777e-19)
(0.07029869 3.1276954 0)
(0.028993729 2.9012804 0)
(-0.01293371 1.8426298 0)
(-0.021124761 2.0797958 0)
(-0.019480863 1.9452468 0)
(-0.022886289 2.7575185 -1.0671802e-20)
(-0.017606609 2.4603096 0)
(-0.020931736 2.6063227 0)
(-0.0030216159 2.1734117 3.563965e-21)
(-0.0068480419 2.3962497 1.6439195e-20)
(-0.0088137279 2.3755513 6.7843373e-21)
(-0.0063956654 2.1579987 0)
(0.37547413 0.04082843 8.39555e-19)
(0.1643808 9.4494724e-05 -8.3265855e-19)
(0.30478624 1.6965771 0)
(0.20564342 0.92764775 -3.7653496e-19)
(0.22559636 1.837812 -1.1740191e-18)
(0.13738469 1.391133 1.1779737e-18)
(0.28608495 -0.0020472386 0)
(0.50947778 0.00067258541 0)
(0.51083018 0.017726129 0)
(0.2953154 0.0061600895 0)
(-0.00010736882 1.218762 0)
(0.0012200232 1.2094437 0)
(0.0018751585 0.9531965 0)
(0.27456609 0.215424 1.1349713e-18)
(0.20476932 0.20665491 -1.3502386e-18)
(0.20525321 0.17008639 0)
(1.2167408 0.13703238 2.8887539e-20)
(1.1167246 0.11565953 0)
(1.0714927 0.093122623 0)
(0.75163446 0.035853218 0)
(0.35193213 0.0032494762 0)
(0.30884716 -0.018973458 -3.5586401e-18)
(0.11697517 -0.0084368831 1.3635251e-18)
(0.0024464301 2.9844064 1.103429e-18)
(-0.0036454621 2.8644036 4.5450669e-20)
(0.0038360546 3.0539737 -2.3448278e-20)
(0.012750385 3.0472342 8.442547e-19)
(-0.0093987985 2.9952553 4.1453996e-20)
(-0.0083915293 2.9361666 -1.6638157e-22)
(-0.013161132 3.0201638 -7.8058535e-19)
(0.0012135222 3.0231369 5.6262453e-19)
(0.0066736649 3.0398375 -8.4486215e-19)
(0.7184808 0.033051511 0)
(0.67767954 0.033692709 0)
(0.35625345 0.017459778 0)
(0.49254477 0.013137286 0)
(0.46088672 0.042718091 0)
(0.27704838 0.0054115231 0)
(0.42559921 -0.0048343266 0)
(0.42443695 0.013181779 0)
(0.20356848 0.0011112667 0)
(0.70738998 1.3751126 -1.4781903e-19)
(0.77367022 1.4549087 0)
(0.16742392 0.35986641 1.0650522e-19)
(0.33700832 0.77296515 8.1598228e-19)
(0.35815085 0.80230393 -4.8087674e-19)
(0.23275892 0.49423328 9.382157e-19)
(0.41781654 0.96523469 2.2137803e-18)
(0.16722275 0.34064647 4.9020268e-19)
(0.40799544 0.12535257 1.2603292e-18)
(0.40823524 0.15974125 3.3377936e-19)
(0.27977219 0.091947813 6.3637451e-19)
(1.4189896 0.55009722 1.844926e-19)
(1.3072397 0.39503154 1.4957218e-19)
(0.023153711 2.3879241 2.8080257e-19)
(0.01090312 2.1506993 0)
(0.96679013 0.064455848 0)
(0.88384707 0.054865491 0)
(0.65298978 0.031791569 0)
(0.0099975558 3.0770066 0)
(0.016950691 2.938782 1.6489877e-18)
(0.016531585 2.9537257 0)
(0.01349729 2.8434105 -1.6460658e-18)
(0.0094443881 3.0917634 3.7790162e-19)
(0.003691827 3.0888068 0)
(0.86312086 1.7413655 -8.6613772e-20)
(1.1252772 2.3468047 2.8613457e-20)
(0.8417609 1.8564843 -7.8011487e-19)
(0.013967692 2.9966565 -1.0145184e-18)
(0.034822433 3.0350339 0)
(0.012027465 2.8709302 0)
(-0.0087107408 2.39638 -2.3893825e-20)
(-0.0037875036 2.404029 -3.2495706e-20)
(-0.0015193307 2.2084141 -6.2405096e-22)
(0.34378806 1.5340659 1.1882195e-18)
(0.20988328 0.7442329 -8.1539332e-19)
(0.088119626 2.1559691 8.2324023e-19)
(0.16661818 2.017598 -1.010564e-18)
(0.082441208 1.6794353 1.2317099e-19)
(0.013730807 3.1144278 -2.5034937e-18)
(0.016474463 3.1195857 2.834031e-18)
(-0.00875257 2.9801569 1.1634399e-18)
(-0.0055432293 2.977027 -1.1440475e-18)
(-0.0076818341 2.8758369 -1.1852061e-18)
(0.004495566 3.1055244 -2.940283e-18)
(0.0093640916 3.1049063 2.9197094e-18)
(0.3768521 0.83727275 0)
(0.33279434 0.78090626 -1.8028164e-18)
(0.13687476 0.28908936 8.0011556e-19)
(0.41264415 1.0848756 1.4066334e-18)
(0.19012069 0.43038738 -2.1849698e-18)
(1.3514964 0.22316519 5.5228536e-20)
(1.4116573 0.37681023 0)
(1.2592216 0.23670636 1.9784228e-20)
(0.0083487301 2.4145006 -1.9527608e-21)
(0.0082286841 2.4009804 0)
(0.0050667304 2.1884631 0)
(0.39169808 1.3975948 -4.2849969e-19)
(0.42115441 1.2528056 -9.6094853e-19)
(0.19955934 0.56818903 1.7325707e-18)
(1.1918321 0.0066817489 0)
(1.3370841 0.0025794549 4.729113e-19)
(-0.023086136 1.8032898 0)
(-0.036588173 1.8289121 0)
(1.5126701 -0.00016838833 4.1427335e-21)
(1.0997803 0.01552245 1.0579336e-18)
(-0.019962041 2.7619374 1.3839e-20)
(-0.019232372 2.8038392 0)
(0.0599592 3.1764206 8.1983017e-19)
(0.53113877 3.5400616 0)
(1.5447473 0.89001699 -5.2888656e-20)
(1.2732419 0.012467339 2.3430477e-20)
(1.3730966 0.025428255 0)
(1.9988753 0.0093163873 9.3095771e-21)
(0.10065565 1.8600819 0)
(0.11870875 2.7586587 0)
(0.021937456 1.7996085 0)
(0.0038468025 2.8206088 4.991805e-20)
(-0.016641564 2.7681674 2.5502815e-20)
(1.2643247 0.011798694 2.115621e-20)
(1.4546165 0.066342441 0)
(1.5081094 0.10026095 0)
(-0.019688823 2.098397 0)
(-0.012314258 2.7944361 0)
(-0.0053243501 1.7920223 0)
(0.31319382 1.969732 -2.9385351e-19)
(1.2992416 0.010668128 0)
(1.0938108 0.0093761072 0)
(1.9712782 0.012282559 6.1827699e-19)
(1.6583292 0.016734766 -7.0740231e-19)
(1.9059041 0.011152417 0)
(-0.013701844 1.9149998 0)
(-0.016060557 1.8179235 0)
(-0.013839019 1.8669007 0)
(-0.0084034048 1.7855818 0)
(-0.010976447 1.7682734 0)
(-0.015266568 1.7761017 0)
(1.4163438 0.043346225 0)
(1.2926654 0.019068338 2.1885508e-20)
(1.0219593 1.6961446 4.5999977e-19)
(1.956592 0.0028082984 -6.3057342e-19)
(1.7067311 -0.0036001567 7.5589884e-19)
(1.8970313 -0.0052241869 0)
(1.3045185 0.0046682462 6.2959051e-19)
(1.1795741 0.0024488548 -7.8805349e-19)
(0.9247949 0.020807651 0)
(-0.017395436 2.8332002 0)
(-0.021201583 2.808309 -7.6289574e-21)
(-0.01786828 2.8263998 3.479991e-21)
(1.6741103 0.37761975 6.5583741e-19)
(1.6151844 0.17564564 0)
(0.073452909 3.0552419 -1.500771e-18)
(0.042321973 2.8509534 -1.0459304e-19)
(0.17741814 3.1780741 2.2912791e-18)
(0.16358935 3.2420958 -3.6843172e-19)
(0.16112306 3.2852783 0)
(0.030678866 3.1341756 4.2843864e-19)
(0.082488037 3.1732614 1.4751777e-18)
(0.07885025 3.1986212 -7.9742092e-19)
(0.047933538 3.1093948 0)
(0.68498449 0.3065821 0)
(0.62744773 0.38827909 0)
(1.5157743 0.9649338 9.498619e-20)
(1.4507544 1.0978106 -4.4523063e-20)
(1.6163208 0.78406764 0)
(1.6067511 0.71167461 0)
(1.2730869 0.019922904 -1.2621592e-18)
(1.0837284 0.015658203 1.6186361e-18)
(1.3959529 0.022815561 0)
(1.2339812 0.021859719 0)
(2.0041437 0.016339544 0)
(1.8771241 0.0071405179 0)
(1.9366422 0.010951592 0)
(1.7267877 -0.002582541 0)
(1.6656535 0.00067086268 0)
(1.7975935 0.00044887013 0)
(0.089411707 1.8504219 0)
(0.072570794 1.8403484 0)
(0.12244805 1.8863116 0)
(0.13281682 1.9066028 0)
(0.13946929 2.787632 0)
(0.18064158 2.8644748 -5.017105e-19)
(0.095992536 2.8581244 0)
(0.078589372 2.870492 2.2504388e-19)
(0.027350744 2.8833932 -1.9928922e-19)
(0.019278148 1.8042438 0)
(0.015448901 1.7718969 0)
(0.026846034 1.8106936 0)
(0.030818707 1.7874474 0)
(0.0048256567 2.2650079 -1.1459114e-20)
(-0.015686416 2.8163202 -2.1160066e-20)
(-0.0015744264 2.8644759 4.7784578e-20)
(-0.005551334 2.8981755 0)
(-0.014974605 2.8223537 -6.4822867e-20)
(-0.014074752 2.8186542 -1.100479e-20)
(0.007364456 2.2596236 1.3801488e-20)
(-0.010731165 2.5818096 2.7944437e-20)
(-0.017699913 2.6197302 -6.0707062e-20)
(1.3006876 0.011354114 1.3919987e-18)
(1.0764147 0.0076728403 -1.7274125e-18)
(1.2462083 0.016906463 -1.495685e-18)
(1.132916 0.011091363 1.9823205e-18)
(1.4883955 0.059944124 0)
(1.3480532 0.05551075 0)
(1.5322725 0.091871538 0)
(1.4967744 0.070228568 0)
(1.3430853 0.066300476 0)
(1.6198184 0.16101136 0)
(1.5502245 0.11126664 0)
(1.4209081 0.10023853 0)
(-0.018414048 2.6303845 6.2976269e-22)
(-0.016610672 2.2861044 0)
(-0.018309165 2.4568112 0)
(-0.011140462 2.8212547 4.7144404e-22)
(-0.011198173 2.8315057 -1.436676e-22)
(-0.0035243749 1.9962686 -1.8959878e-20)
(-0.012017531 1.9395881 1.9113735e-20)
(-0.014447582 1.8396847 0)
(-0.017367633 1.8463827 0)
(-0.017662799 1.8440771 0)
(-0.0035291793 1.7927662 0)
(-0.0013871958 1.7595127 0)
(0.45533411 1.9804586 5.0203556e-19)
(0.47219391 1.9882649 2.5558079e-19)
(0.59241709 2.643929 -2.7345839e-19)
(0.38111969 2.7731641 7.1838978e-19)
(0.41038828 2.2699599 9.6405444e-20)
(1.4078912 0.024377102 0)
(1.3350215 0.023922836 0)
(1.1448376 0.015221753 0)
(1.9819177 0.019625535 0)
(1.9614516 0.01422996 0)
(1.7254173 0.019780807 0)
(1.6334678 0.018332996 0)
(1.6483657 0.02292616 0)
(1.3349539 0.016332927 1.2181117e-18)
(1.0298734 0.030791087 -1.5458277e-18)
(1.2925238 0.024308475 -1.2916134e-18)
(1.122105 0.017190348 1.6710344e-18)
(0.97869418 1.7342462 0)
(0.85437594 1.841912 4.6137029e-19)
(1.1382245 1.6079121 2.125773e-19)
(1.1756096 1.561166 -2.8323876e-19)
(1.2750079 2.7010947 8.8034353e-19)
(0.81161268 0.074115105 8.993271e-19)
(1.6303974 0.19876139 0)
(1.6811987 0.29378537 -5.0924622e-19)
(1.5896364 0.24035352 -2.0233852e-20)
(1.5356159 0.17420893 0)
(0.21244447 2.924636 1.0303541e-18)
(0.098376633 2.8156209 -2.1758026e-18)
(0.026504644 2.3894203 1.3541788e-18)
(0.074590167 -0.14437718 -6.5783279e-19)
(0.36437985 3.4572391 1.9450795e-20)
(0.23395618 3.3663618 0)
(0.24737635 3.42562 -2.7397572e-20)
(0.26040199 3.0830597 -2.5222235e-18)
(0.39369267 3.1709677 0)
(0.013498972 3.1195873 7.715755e-20)
(0.016555413 3.132391 -8.2218368e-19)
(0.030797458 3.1182381 1.2779209e-18)
(0.03717774 3.1484449 0)
(0.034784868 3.155948 0)
(1.3542152 2.7926429 0)
(0.7870553 1.033328 -9.0371975e-19)
(1.3413722 1.3152806 -5.5461371e-20)
(1.2720038 1.4176665 0)
(1.1886488 1.3583276 -1.6542593e-19)
(1.4093328 1.192791 3.892255e-20)
(0.37539574 0.44114727 -1.5717087e-18)
(0.76099913 0.31201629 -2.5143632e-20)
(0.63833681 0.22099991 7.2381897e-19)
(0.65797105 0.43767184 5.2883561e-20)
(0.53953747 0.38723739 -2.1661055e-18)
(0.72728683 0.34726786 0)
(0.88131084 0.48071071 1.2057324e-18)
(0.88209842 0.44809617 0)
(0.70318552 0.39583223 0)
(0.60289933 0.30696125 0)
(1.2326495 0.85357554 7.085078e-19)
(1.6843792 0.41379189 -5.8654928e-19)
(1.6697175 0.58686252 0)
(1.6504837 0.5151106 0)
(0.74715027 0.17047234 1.043772e-18)
(1.2379858 0.72455595 -6.7479841e-19)
(1.0206183 0.63637479 1.2171805e-18)
(1.4535034 0.56046655 -1.212134e-18)
(1.2527442 0.013364402 8.3216105e-19)
(1.2326413 0.01595372 -8.6579727e-19)
(0.99299493 0.014510238 0)
(1.4457072 0.041997748 0)
(1.3878832 0.031648559 -7.4169101e-19)
(1.2007074 0.022314217 7.3280775e-19)
(1.8303327 0.025351289 0)
(1.7046855 0.012206641 0)
(1.9106164 0.0068522764 0)
(1.674299 0.012590072 0)
(1.957002 0.02115637 0)
(1.9415614 0.018275963 0)
(0.064468433 1.837371 0)
(0.05558826 1.8147943 0)
(0.15701253 1.8282258 1.3670859e-20)
(0.29414051 1.9573933 1.5214886e-19)
(0.17581701 1.9412287 3.3588269e-19)
(0.20038147 1.9581789 -5.4230598e-19)
(0.19390605 1.862178 0)
(0.16602272 1.9949596 -8.1278581e-20)
(0.14593183 1.98074 0)
(0.37871127 2.2299052 -1.335526e-19)
(0.36094924 2.5204352 6.7099658e-19)
(0.22421032 1.9344695 7.2856527e-20)
(0.29590449 1.8755628 5.8162875e-20)
(0.23835102 1.8568326 -4.7371065e-20)
(0.33550949 1.8256338 -1.0453152e-19)
(0.26797877 1.9820614 0)
(0.31899014 1.9982385 1.1433793e-19)
(0.036326855 2.4832553 -4.3164037e-20)
(0.032780654 2.8756673 0)
(0.061531601 2.5879318 1.7097317e-19)
(0.052881562 2.5927045 0)
(0.057089876 2.8906611 -2.5025446e-19)
(0.043908654 2.9287377 0)
(0.024872503 1.869193 1.3202556e-20)
(0.027910195 1.9143107 0)
(0.035184807 1.847071 0)
(0.027665865 1.8378442 -1.4974304e-20)
(0.0061222637 2.8520258 -2.0488524e-21)
(0.014944935 2.8864122 2.3084398e-19)
(0.0088525574 2.9222963 1.6098187e-21)
(0.0080631766 2.1590792 9.2889174e-21)
(0.0036781261 2.0669907 1.7836252e-21)
(0.014008545 1.791866 0)
(0.0096544767 1.757832 0)
(0.042410292 1.9881846 3.1976536e-20)
(0.036175302 1.8823222 -3.7340833e-21)
(0.03655663 1.943354 -5.4322896e-21)
(0.049139767 2.0057253 0)
(-0.029143834 2.4833993 2.6653125e-20)
(-0.025291766 2.7281798 4.5281756e-21)
(-0.024134318 2.6456205 -3.8578652e-21)
(0.005734253 2.1619616 -1.0991847e-20)
(-0.019527768 2.6717962 -6.5733357e-21)
(-0.02025032 2.6428855 5.1202515e-20)
(1.2485626 0.014770459 -8.9882957e-19)
(1.2568503 0.0060455212 9.1495628e-19)
(1.032907 0.0079828779 0)
(1.5083469 0.0763952 1.4910223e-18)
(1.187061 0.017295839 -1.6531507e-18)
(1.1355675 0.011029837 1.8746928e-18)
(1.532569 0.10901738 -2.0379133e-19)
(1.4339652 0.04367649 0)
(1.4466378 0.051509813 7.4954916e-19)
(1.3217707 0.044264953 -7.4316837e-19)
(1.703543 0.10435057 -4.6430322e-20)
(1.6764412 0.085199585 3.9872384e-19)
(1.8032158 0.10923317 0)
(1.8634118 0.10457238 -1.5565516e-19)
(1.7425199 0.04846785 0)
(1.6166091 0.031740083 0)
(1.8586607 0.025211008 0)
(1.6637579 0.020567541 0)
(1.8681557 0.06244008 3.081298e-19)
(1.8520013 0.043854071 -6.4820896e-19)
(1.8505652 0.090128117 -3.1192432e-19)
(1.8540339 0.08433316 -3.6267391e-19)
(1.826705 0.13121469 7.2268293e-19)
(1.6925858 0.1290197 0)
(1.7391923 0.17656348 0)
(-0.022918134 2.4805649 4.7775334e-20)
(-0.016327701 2.2955347 -9.9741661e-23)
(-0.016125081 2.2885159 0)
(-0.024804846 2.6686208 -4.9084745e-20)
(-0.019394226 2.6305744 -5.0013259e-22)
(-0.022519286 2.6618605 3.4095399e-21)
(-0.016163414 2.8352741 1.1138809e-20)
(-0.012868231 2.7524148 -2.4503659e-21)
(-0.015514136 2.7184087 1.3072196e-21)
(-0.0099798476 2.8285557 -8.4937981e-21)
(-0.016659877 2.8296122 1.1993494e-20)
(-0.0067426754 1.9107464 -2.052953e-21)
(0.0055959354 2.0193161 -1.2630869e-20)
(0.47208705 1.9343949 -2.1755953e-19)
(0.4408791 1.8634471 5.5379116e-20)
(0.8175956 1.8790507 -4.4779368e-19)
(0.6390316 1.9645099 -2.4657354e-19)
(0.66998197 1.9459467 0)
(0.64244829 2.6066874 2.5182051e-19)
(0.69810213 2.6212467 3.98839e-19)
(0.4473749 2.7044202 1.1265636e-19)
(0.4568546 2.7104534 -6.9227577e-19)
(0.54422002 2.6413157 6.7799598e-19)
(0.55370474 2.6610156 0)
(0.48507865 2.717967 -6.365691e-19)
(0.22678639 2.7885254 1.2808461e-18)
(0.3340211 2.7738685 -5.051508e-20)
(0.26941897 2.8626198 -1.7511124e-18)
(1.0213616 2.5460527 1.0412177e-18)
(0.89187981 2.562769 0)
(1.955732 0.0263424 2.4266443e-20)
(1.6617963 0.02486886 -2.0750487e-20)
(1.6819524 0.024678079 -3.6463128e-19)
(1.8824637 0.03157602 3.6545887e-19)
(1.9907961 0.032636139 0)
(0.91012102 1.7465988 0)
(0.92443688 1.659355 0)
(1.1007952 1.5482617 0)
(0.95840517 1.5642025 0)
(1.2816337 2.7353538 2.754878e-22)
(1.1938993 2.5671532 0)
(0.94175356 2.2615739 6.388994e-21)
(0.88220064 2.5387149 0)
(0.99657969 2.6058322 -5.3660353e-19)
(1.0258247 2.5927083 3.6665814e-19)
(0.82308155 0.11273934 0)
(0.77955274 0.11616279 2.5011633e-19)
(1.0843468 0.12081629 1.3744754e-18)
(0.8618473 0.075264615 -5.3977709e-19)
(0.80905547 0.020561652 -1.5961888e-18)
(1.7209947 0.34443042 -1.1708338e-18)
(1.5670313 0.41789323 -2.9689056e-20)
(1.2787379 0.33279354 1.3979727e-18)
(1.5386786 0.29798077 1.1283513e-18)
(1.3005297 0.17413846 -1.8444251e-18)
(1.2429306 0.18901722 2.3464786e-19)
(1.2821018 0.26032419 -5.2040138e-19)
(1.2746274 0.22963775 0)
(1.5321664 0.21658674 9.0490876e-19)
(1.6602971 0.2575427 0)
(1.6550646 0.30818537 0)
(1.710088 0.21752942 3.5689917e-19)
(1.7842087 0.2680152 -2.3073699e-20)
(1.7489817 0.34474995 -2.0624226e-19)
(1.7222938 0.3094267 0)
(1.5655121 0.036894927 7.5907323e-19)
(1.821111 0.086872361 9.196608e-19)
(1.7728772 0.059688877 -7.2141991e-19)
(1.7679426 0.10563996 -6.2709537e-19)
(1.5564435 0.072535458 -1.0694385e-18)
(1.4079634 0.13654413 0)
(1.4319508 0.12347011 0)
(1.1400469 0.034409677 -6.798106e-19)
(1.0388698 0.033029039 2.7869373e-19)
(1.6892553 0.13583799 9.2995719e-19)
(1.8033657 0.20599133 -1.0511423e-18)
(1.7755762 0.22077594 9.6439538e-19)
(1.711583 0.20165943 0)
(1.7964008 0.17129369 0)
(1.8276923 0.15140713 -4.0952545e-19)
(1.7933862 0.13952616 -7.5771378e-19)
(0.76378881 1.5006831 2.5894643e-19)
(0.82832253 1.8168771 -2.8762082e-19)
(1.1830516 2.7595072 -3.2770981e-19)
(1.2998902 3.1139065 6.4829331e-20)
(1.3440657 2.8132137 -6.8700239e-19)
(1.3962835 2.8787662 1.0090288e-19)
(1.2696361 2.5581392 2.5108999e-20)
(1.3325863 3.0386128 -2.4952088e-19)
(1.3408825 3.0583761 4.6897508e-19)
(1.3162566 3.3220384 -4.4335428e-20)
(1.4316916 3.0908875 4.5745584e-20)
(1.4469317 3.0197224 0)
(0.79194088 1.1174722 -8.2017739e-20)
(0.2272346 1.3175829 8.9817289e-19)
(0.65917018 0.62180191 1.0403635e-18)
(0.43448139 0.19864418 1.1752205e-18)
(0.58358482 0.4476991 1.2191821e-18)
(0.67940229 0.56297772 -2.0178588e-18)
(0.66684658 0.56819915 1.6389704e-18)
(0.56631136 0.47653199 -6.2381967e-19)
(0.42756001 0.36619529 1.4139858e-18)
(0.78787268 0.22098669 -5.9085147e-19)
(0.75295575 0.25073177 0)
(0.65143679 0.1947591 1.1902078e-20)
(0.94963306 0.62429522 6.4474309e-19)
(0.88396007 0.55519556 -2.3516228e-18)
(0.73457131 0.56055824 1.857987e-20)
(0.75205797 0.52901767 0)
(0.95900954 1.0246776 7.08605e-19)
(1.2425094 1.1018565 6.2051932e-19)
(1.1404534 1.2233808 -7.1490673e-19)
(1.3008877 1.1341233 -2.4268861e-19)
(1.3435482 1.194736 -5.0848954e-20)
(1.328274 1.1922911 5.1325467e-20)
(1.332335 0.91523078 -1.1652524e-18)
(1.3649959 1.0211429 2.278234e-19)
(1.4466587 1.0241321 0)
(1.474516 0.97240459 -2.9069183e-19)
(1.6181043 0.45134472 3.359401e-19)
(1.7152287 0.4459508 3.6379056e-19)
(1.7151382 0.41161335 4.9760815e-19)
(1.6028839 0.54219587 -6.8047516e-19)
(1.6156905 0.60401333 0)
(1.6457937 0.57814863 0)
(1.2590572 0.46311672 2.5387836e-20)
(1.0895315 0.31733228 0)
(1.1574697 0.29662686 6.7929955e-19)
(1.2613766 0.34355084 -1.811759e-20)
(1.4498701 0.60767272 3.144955e-18)
(1.3602113 0.70665753 8.8081837e-19)
(1.3286646 0.61186114 -9.9782122e-19)
(1.105308 0.54192045 1.0874632e-18)
(1.0517585 0.5353621 6.4604936e-19)
(0.97358455 0.47176702 -6.3391682e-19)
(1.6783362 0.03913416 6.1731278e-19)
(1.9513515 0.035821669 0)
(1.9175467 0.042112408 4.1948597e-19)
(1.6970756 0.03867431 -9.3775856e-19)
(1.9349489 0.033434561 4.6585116e-19)
(1.8750939 0.016791546 -9.8906265e-19)
(1.6921288 0.01682526 0)
(1.5771172 0.021236234 -2.0619991e-19)
(1.8410514 0.015230123 5.14467e-19)
(1.668347 0.016879443 -2.6594936e-19)
(1.6060867 0.022206662 1.946817e-19)
(0.036033753 1.8130609 0)
(0.038270749 1.8253966 0)
(0.048001544 1.8196341 0)
(0.039744169 1.7983399 0)
(0.076586987 1.8347446 -5.3488305e-20)
(0.091173157 1.8157014 2.5622527e-20)
(0.12730612 1.9188829 -2.2341512e-20)
(0.10725665 1.8068079 -6.809363e-21)
(0.042766212 1.8893843 -3.0071148e-21)
(0.044856498 1.8830186 2.2885687e-21)
(0.071945727 1.8247686 -1.8686542e-20)
(0.064897694 1.8302738 5.4698951e-20)
(0.053140882 1.816388 7.09957e-21)
(0.042858206 1.827015 1.0607683e-21)
(0.088191763 2.5326261 -1.8381636e-19)
(0.092848088 2.566123 0)
(0.15773327 2.2808253 1.0961129e-19)
(0.14202616 2.0689721 6.0156583e-20)
(0.26762636 2.251396 -1.011498e-19)
(0.2330214 2.6153009 0)
(0.27691672 2.6018115 -6.6215685e-19)
(0.32685342 2.5041427 4.7611178e-19)
(0.22780754 2.2133925 -2.5495648e-19)
(0.17557357 2.370869 1.7667219e-19)
(0.16553222 2.5035448 0)
(0.01727892 2.2211322 -7.5173761e-20)
(0.0171011 2.5930959 -1.0355953e-19)
(0.012466307 2.3634379 0)
(0.014842437 2.6525769 -1.5992944e-20)
(0.032371564 2.4886083 4.8648608e-20)
(0.012950417 1.8538234 -4.6087702e-21)
(0.010968176 1.8464006 7.5257774e-20)
(0.013437781 1.8526449 -2.844929e-20)
(0.018096005 1.849476 -1.8320411e-20)
(0.023717966 1.8762381 0)
(0.0076141746 1.8319518 0)
(0.0010380072 1.7846012 -3.422809e-20)
(0.0040074791 1.8244572 9.3145811e-21)
(0.0062746205 1.8264626 0)
(0.0069947527 1.7826407 -2.5856262e-20)
(0.0029521335 1.7528426 5.3182944e-20)
(1.6554553 0.053354111 0)
(1.6482191 0.056036329 -6.9319974e-20)
(1.936632 0.058122892 -5.388198e-19)
(1.8166689 0.067775485 0)
(1.6656435 0.060032579 0)
(1.9056547 0.046908353 2.5686736e-21)
(1.9079509 0.04737419 8.1000083e-19)
(1.7805544 0.02928037 1.0370708e-18)
(1.6580153 0.023788104 0)
(1.5805319 0.026575147 0)
(1.7674458 0.041423106 5.3577536e-19)
(1.6090255 0.034667881 0)
(1.5784734 0.020734933 0)
(-0.012309394 2.284126 0)
(0.0042131712 2.048442 -8.5759667e-21)
(-0.0065651406 2.167905 -1.3134967e-20)
(0.002313539 1.8337069 0)
(-0.0035891174 1.9626574 -9.3757887e-21)
(-0.0046391553 1.8956786 6.3499291e-21)
(-0.001474785 1.8354251 0)
(0.50970866 1.9368757 0)
(0.45673191 1.7665814 -1.3261834e-19)
(0.41883659 1.7590471 0)
(0.55150338 1.8108188 1.2322143e-20)
(0.61849751 1.9404355 0)
(0.56457251 1.9005483 4.5536634e-20)
(1.1115182 2.7967551 -2.1512678e-20)
(1.0428992 2.5648857 -1.1981295e-18)
(1.038755 2.4569753 1.3928573e-18)
(0.91972976 2.5495302 3.3865341e-19)
(0.91019731 2.6037079 0)
(0.97519723 2.5828938 0)
(0.99668367 2.5514169 0)
(0.97658116 2.5498182 -1.225635e-18)
(0.73931067 2.5531306 -5.4486549e-19)
(0.86132278 2.5760058 -1.2847467e-19)
(0.86377607 2.529982 1.0278589e-19)
(0.74798856 2.5838628 0)
(0.8484643 2.5753886 0)
(0.80366814 2.594547 -4.3665585e-19)
(0.80601119 2.600199 0)
(0.90864524 1.5145758 0)
(0.73367543 1.250845 -8.4129005e-19)
(0.83197594 1.2787013 -5.1268673e-20)
(0.78175462 1.4040157 0)
(0.76000425 1.3537268 1.2838402e-18)
(1.1560141 1.2696746 -1.9555631e-19)
(1.1205817 1.4042834 0)
(1.1378604 1.3443746 2.8521773e-19)
(0.96383019 1.4577068 0)
(0.98478683 1.3328068 0)
(1.2514809 2.8067271 -3.8384465e-19)
(1.211391 2.8413211 -2.7657623e-19)
(1.0059712 2.3517452 4.8160837e-19)
(1.0064933 2.3869634 -1.6092247e-19)
(1.2209003 2.7986896 0)
(1.1782363 2.7553077 2.0433935e-19)
(1.2063686 2.6387506 -3.7904948e-19)
(1.1178164 2.4854449 -2.9358379e-20)
(0.69929232 1.702346 0)
(0.72271838 1.5163906 -2.2797113e-19)
(0.79846172 1.6247715 0)
(1.0885003 0.23260721 0)
(0.79164353 0.13535682 0)
(0.63920177 0.1121721 0)
(1.0691229 0.24026112 -1.0587902e-18)
(0.81163984 0.1727546 6.1578449e-19)
(1.0509353 0.031637828 -5.5200938e-19)
(1.152365 0.095160743 0)
(1.1297939 0.11166269 2.4521594e-19)
(0.90130775 0.033062869 9.9222904e-19)
(0.82757718 0.013275617 -6.2676212e-19)
(1.3212402 3.4459953 -2.5225828e-19)
(1.3062194 3.3773521 0)
(1.3404633 3.4016782 -5.9034036e-19)
(0.52919634 3.503302 5.5730026e-19)
(0.77344756 3.0341877 -4.0568188e-19)
(0.66757443 1.0963637 1.0284674e-18)
(0.63601765 1.1429253 0)
(0.51644117 0.59451368 -2.7642297e-19)
(0.644142 0.91184752 1.5002305e-18)
(0.67379716 0.54964689 -3.6848929e-19)
(0.63895891 0.65202252 4.2594187e-19)
(0.81411612 0.62951727 8.7959777e-19)
(0.90655898 0.66907646 0)
(0.85256147 0.75928889 0)
(0.75629871 0.69511767 0)
(1.5063786 0.85749856 8.9465497e-20)
(1.4012026 0.7770021 -8.370498e-19)
(1.4089461 0.82577139 6.2330687e-19)
(1.4717406 0.72747002 -6.3379294e-19)
(1.5927217 0.72310021 0)
(1.5976484 0.78971358 -1.4390273e-19)
(1.1007902 0.48250702 -1.4345228e-18)
(1.1354108 0.47803398 -1.708536e-18)
(1.0225734 0.43275747 1.1232661e-18)
(1.0081652 0.39616257 -1.142178e-18)
(1.0877301 0.35306937 -8.8585875e-19)
(0.98644221 0.33525209 1.100134e-18)
(1.9167367 0.034405898 -5.0047414e-19)
(1.9468635 0.03701161 1.0123803e-18)
(1.6819422 0.039439141 6.2862393e-19)
(1.6982944 0.046163639 -7.479469e-19)
(1.7914593 0.053867606 0)
(1.9433076 0.050250178 -1.3144364e-18)
(0.067139073 2.0466018 2.3904165e-20)
(0.062571683 1.9860291 0)
(0.10034837 2.0415039 2.5368319e-19)
(0.11270482 2.0347404 -2.299184e-19)
(0.094252957 1.945266 3.9579106e-20)
(0.084170582 1.9375794 0)
(0.0093666737 2.0725945 0)
(0.0044865392 1.915872 2.7755693e-21)
(0.0032350746 1.8820921 -2.5113764e-21)
(-0.0037038217 1.9632804 5.3992882e-21)
(-0.0027311727 2.2045972 2.7392014e-21)
(-0.0025472889 2.2259805 5.3803369e-21)
(0.68606628 1.7283138 -5.0796178e-19)
(0.64252374 1.7647864 5.3621568e-19)
(0.5958465 1.7856129 -2.2570151e-20)
(0.5984386 1.7167652 1.7518713e-20)
(0.84338679 1.7870668 0)
(0.70207808 1.878684 2.0856508e-19)
(0.76601144 1.8757872 -2.0261043e-19)
(0.63855549 1.8170067 2.2400924e-20)
(0.71965038 1.736343 0)
(0.78008635 1.7114464 0)
(0.71697581 2.5241075 7.9760049e-19)
(0.71507793 2.5913761 1.4681489e-18)
(0.76188979 2.590958 -1.0550924e-18)
(0.63372439 2.6000115 -2.2037078e-19)
(0.62289422 2.657148 3.6246855e-19)
(0.57454187 2.6297444 -9.1187231e-19)
(1.089048 2.5452589 -7.5731866e-19)