/*--------------------------------*- C++ -*----------------------------------*\
  =========                 |
  \\      /  F ield         | OpenFOAM: The Open Source CFD Toolbox
   \\    /   O peration     | Website:  https://openfoam.org
    \\  /    A nd           | Version:  9
     \\/     M anipulation  |
\*---------------------------------------------------------------------------*/
FoamFile
{
    format      ascii;
    class       volScalarField;
    location    "48";
    object      p;
}
// * * * * * * * * * * * * * * * * * * * * * * * * * * * * * * * * * * * * * //

dimensions      [0 2 -2 0 0 0 0];

internalField   nonuniform List<scalar> 
918
(
0.56457553
1.7217775
0.011562897
0.55422218
-0.0094869738
1.6924516
-0.94607312
1.2044168
0.5965161
-0.23539566
-0.063787683
0.67931284
1.5638174
1.3220074
-0.6702084
-0.031997219
1.0326838
-0.72116988
0.61583504
-0.080614811
1.2738154
0.53598573
0.56186961
0.53513065
0.78897822
1.2787767
1.4270224
0.0077312921
0.0028137089
-0.011003187
-0.0067182536
-0.056567252
-0.040067249
1.5687296
1.6227492
1.6464324
0.54021301
0.6018647
-0.75923868
-0.84295165
-0.82483748
-0.99296932
1.1911604
1.1826832
-0.48339182
1.2150405
1.224395
0.54613281
0.5946544
0.60872411
0.5327197
0.56850607
0.58200352
0.46951173
-0.25624628
-0.30998331
-0.2016453
-0.17276352
0.042952261
-0.063241867
-0.070039317
-0.050971977
-0.047236204
0.49911404
0.66874122
0.6552319
0.68802717
0.70426668
1.6588728
1.6223202
1.6492958
1.596113
1.5864206
1.5436472
1.5067833
1.361336
1.3689626
1.3188204
1.2812369
-1.1796392
-2.1857255
-0.11435675
0.17740065
-0.0054661328
-0.018550257
-0.0056002946
1.016756
0.99883914
1.0611194
1.0874021
1.3067238
-0.6956775
-0.89224975
0.61898643
0.61669321
0.59558564
0.57784037
0.62404713
0.66981883
-0.057805105
-0.05468073
-0.094713317
-0.074046023
-0.080704157
1.2448073
1.2523086
0.55033865
0.55550267
0.71642742
0.74887048
0.73778318
0.27820235
0.77239502
0.78515534
1.1073754
1.2877099
1.2903629
1.2759883
1.4134059
1.3690466
1.4736082
1.4991364
0.029649732
0.0018626863
-0.016802934
-0.033002846
-0.015600033
0.54649825
0.53882295
0.62560761
0.54406696
0.55221914
0.54957272
0.41413452
0.68978045
0.70000157
-0.64266571
-0.7020366
-0.81647497
-0.86022438
-0.98417301
0.97341017
1.166778
1.1510065
-0.5263641
-0.41867871
-0.58320496
-0.33286544
-0.38095707
0.55103659
0.55721282
0.55216876
0.55006491
0.55031824
0.55230124
0.59057581
0.58654337
0.60382684
0.54421188
0.68492524
0.41488783
0.35521086
-0.50207692
-0.34219815
-0.47323527
-0.1533562
-0.12946258
0.070494037
0.11797009
0.049293109
0.046471704
-0.11396138
-0.083516875
-0.09396217
-0.045954176
-0.045171145
0.48591604
0.47326698
0.50995104
0.51924182
0.64424155
0.6432645
0.65325587
0.65120632
1.4327629
1.4564215
1.5010931
1.4639937
-3.517788
-6.11506
0.4894651
0.66120552
-0.010571379
-0.0086721492
0.00428819
-0.0019222207
0.0010833724
-0.0093582669
0.0074755827
0.00073458805
-0.0043999219
0.0024667978
0.96942958
0.95915727
1.2593032
1.3012454
1.1684366
1.1550635
0.62482845
0.62193947
0.62766523
0.61914199
-0.045667967
-0.048997043
-0.045933783
1.2316953
1.2441367
1.2399758
0.18799055
0.091651412
0.32763576
0.37643569
0.90865654
0.83933626
0.87913593
1.1797252
1.2118673
1.4885192
1.5005416
1.5384843
1.5352243
1.5834999
1.5758016
1.5342832
0.52287778
0.53586294
0.53371236
0.62212589
0.62696437
0.62623709
0.63680201
0.63661576
0.63318934
0.25552189
-0.069848967
0.77719316
0.76475353
0.74272712
0.73798986
1.0461415
1.1354087
1.1015106
1.1351275
1.1203866
-0.23338517
-0.25660286
0.28624857
0.25638594
0.40652379
0.45235246
0.4348015
1.4068166
1.4069071
1.4534904
1.4156579
1.3569972
1.3799053
-0.095347428
-1.2256995
-0.62571708
1.0439611
0.83436729
0.93344759
0.0090054387
0.0078424015
-0.01461006
1.2796413
1.3433183
0.7474048
1.0034921
1.0004287
1.2556289
1.2775064
1.3504832
1.2779705
1.3032241
1.3257254
1.308487
0.91725856
0.81849203
0.84719856
1.1744304
1.221145
0.0029692138
-0.12046863
-0.12519407
0.13054849
0.18926461
0.15297272
1.3090262
1.2591609
1.3257164
0.56223771
0.55527558
-0.001370599
-0.00062539888
0.61658312
0.59407938
-0.026417552
-0.0089415037
0.91020382
-0.41359687
0.017408697
0.63063601
0.57101651
0.58840733
-0.22271227
0.43271639
-0.056379052
0.040873219
-0.017460053
0.66639951
0.5248232
0.46672274
-0.0091504819
-0.037720143
-0.053726099
-0.42812107
0.57054922
0.54831107
0.57478061
0.55339626
0.5895453
-0.024628659
-0.018928583
-0.0077329108
-0.056865777
-0.049434067
-0.064450509
0.5530404
0.63831478
-0.35664177
0.59683047
0.58989058
0.60315948
0.57801854
0.63234273
0.5889032
-0.01517257
-0.015149114
-0.0099080614
0.20552417
0.38531003
1.2081813
1.3344491
1.2403824
0.86668278
0.55055103
1.0761565
1.165798
1.0418828
1.201386
1.1762928
1.2184968
0.1361414
-0.11327424
0.14420027
0.014819542
0.62279493
0.62793822
0.56555301
0.55752555
0.59797432
0.57270836
0.60153401
0.61153465
0.6102806
0.62383989
-0.15373608
-0.18228969
-0.20870525
-0.32203039
0.44987841
0.7256198
0.34230089
0.3771543
0.16932739
-0.05586973
-0.048307719
-0.0623068
-0.074552342
5.5023699e-05
-0.045345129
0.058755981
0.061190788
0.034728875
-0.010485954
-0.021477563
-0.046059527
-0.0097557297
0.616584
0.63164137
0.66470449
0.68445791
0.52428033
0.52237748
0.48009927
0.52283432
0.49263622
0.39535157
0.46937413
0.42327835
-0.013592976
-0.013330816
-0.015121895
-0.025126285
-0.0096675925
-0.022307572
-0.027086502
-0.023429783
-0.02677655
-0.033893975
-0.053276544
-0.053721422
-0.36311414
-0.55021714
1.2184226
1.0564439
0.28423664
0.54461743
0.54640177
0.53069227
0.58360425
0.57040805
0.56903296
0.56820042
0.56495272
0.59246589
0.60183979
0.63310052
0.64076869
-0.24196192
-0.4966771
-0.23184674
-0.35708779
0.47524208
0.93237534
0.39416705
0.28138364
0.28843111
0.74915962
1.463883
1.3052449
1.2672045
1.2361515
-0.074067076
0.36798996
0.10258494
0.75920307
1.001143
1.1841427
1.2368159
1.2396888
1.2104728
1.1537245
0.068645748
1.0713093
-0.23805681
-0.16389628
0.25961029
-0.027639372
1.1953344
1.1390276
1.1271153
1.2064056
1.2333662
1.1727975
1.1506287
1.1552826
1.1873481
1.1839805
0.91231094
0.26190859
0.14924713
0.10192202
1.0645005
0.9625768
1.0464799
0.82166934
0.61239807
0.63165165
0.61666252
0.52871908
0.55754123
0.53011837
0.59189125
0.63059003
0.61539963
0.59387016
0.60996151
0.58359397
-0.13439924
-0.13903405
-0.082924609
-0.28655782
-0.27988265
-0.40726423
-0.1456246
0.087769054
0.046148613
0.30102433
0.46147989
0.037916143
-0.15118751
-0.097358495
0.00043067705
0.217014
0.25985222
0.099951817
0.17043321
0.15604207
0.12752013
0.27670714
0.28152613
-0.025217761
-0.019893636
-0.054874746
-0.043900125
0.02980807
0.13497457
0.13706379
-0.00092954869
-0.020355088
-0.045958612
-0.042964453
-0.0062277572
-0.049986373
-0.020817506
-0.011149991
-0.027747035
0.0032892731
-0.0013109801
-0.009803288
0.0079252069
-0.00063519298
0.65069397
0.63667917
0.63849502
0.70997885
0.69369914
0.71691005
0.7070248
0.55094413
0.53822271
0.54262248
0.53654599
0.52576111
0.53747336
0.56784424
0.63064371
0.65092176
0.62106697
0.60173885
0.61505797
0.58062162
0.56535635
0.57182932
0.55740569
0.49126339
0.49168256
-0.030065316
-0.0063920699
0.0086886274
-0.065663565
-0.0025776004
-0.022575212
-0.0080273023
0.027487425
-0.018147973
0.0047085418
-0.0059815559
-0.022499381
-0.015853792
-0.1478822
0.019522812
-0.41043178
-0.44494645
-0.57360115
1.1155092
1.2764313
0.99839728
0.73278233
0.77229831
1.0507331
1.1854723
0.68024446
0.81853901
0.93129083
0.93556846
1.1614412
0.5746455
0.56357274
0.57490647
0.54932988
0.58515993
-0.0032851954
0.24966461
0.11568557
0.34072042
0.59441644
0.63810096
0.46403718
0.41069746
0.55695626
0.4500695
0.94822176
0.98149739
0.82922086
0.88576557
0.84314858
0.56451041
0.79708792
0.93404328
0.81154827
0.84023484
0.88291088
0.84700306
0.90226823
0.79257044
0.68266269
0.71966625
0.49664348
0.58115874
0.52900323
0.46839829
0.6452152
0.60175343
0.65087425
0.61637783
0.67608443
0.75391423
0.73805393
0.73345938
0.76580742
0.65014495
0.57932929
0.59687182
0.66846688
0.54872691
0.57538949
0.61648309
0.49402224
0.50194532
0.3746834
0.28681981
0.33483795
0.19293431
0.1620748
0.21569015
0.52286415
-0.088518094
-0.091237481
-0.4564113
0.96034322
1.4691496
1.0725098
1.0426588
1.2325254
1.2072464
1.1992027
1.2414424
1.2400127
1.071904
1.1132789
1.1017905
1.0892071
1.1327786
1.1964031
1.178271
1.0058391
0.66897535
0.64688652
0.56082175
0.24447513
0.35755638
0.7684342
0.60641708
0.43333844
0.40130082
0.70823325
0.43962529
0.57682652
0.73523282
0.54379217
0.43440288
0.90358584
1.0198345
1.0110152
0.96373749
0.81766922
0.87953827
0.96173648
1.0266323
1.058975
1.1307666
0.55893644
0.58333224
0.57363161
0.5505889
0.57990997
0.60085305
0.60358908
0.59590613
0.59997809
0.60984248
0.62094317
-0.077940384
-0.066264682
-0.10712811
-0.10129888
-0.054370555
-0.083093625
0.0077121749
-0.025766902
-0.043282666
-0.039419293
-0.070063799
-0.091890763
-0.084812706
-0.059721891
0.14347592
0.19436692
0.13645134
0.11302091
0.35568141
0.47457237
0.53110959
0.45859413
0.27118579
0.29681367
0.36385054
0.015946869
0.035251735
0.043734457
0.07089181
0.06927762
-0.050950519
-0.053536726
-0.043914049
-0.049144218
-0.023522177
-0.040039834
-0.046380345
-0.036286982
-0.034834458
-0.039915434
-0.048178879
0.54588803
0.55132164
0.59363789
0.54917204
0.5511268
0.60276253
0.58526882
0.60484277
0.61726304
0.63803606
0.60431993
0.63075128
0.63239828
-0.024685974
-0.029085187
-0.046115493
-0.037378428
-0.030060505
-0.025920312
-0.034111144
0.30216669
0.15326802
0.19707081
0.044745695
-0.22580995
-0.11342664
0.67700222
0.81377618
0.80733734
1.0303505
0.81305134
0.77047807
0.9208853
1.0436963
0.45948556
0.69024194
0.50982189
1.1438975
1.0597403
1.2262485
0.7794826
0.49917906
0.74355011
0.82557418
0.53839196
0.64500347
0.56157102
0.3648319
0.43216917
0.5138448
0.69120503
0.4923909
0.55513385
0.47866277
0.49567783
0.54823274
0.5691081
0.6502678
0.70560193
0.4160981
0.38974689
0.31882678
0.96329627
0.98475891
1.0093265
1.0200903
1.027785
0.78863735
0.78634278
0.82579887
0.79954036
0.76824737
-0.27429972
-0.35675679
-0.72961199
-0.21534028
0.41043199
1.0124792
0.90445735
1.3912948
1.1317059
1.2715024
1.2109566
1.1791605
1.0992361
1.1200147
1.1782373
0.56455992
0.76621216
0.75249433
0.68484451
0.47001523
0.37138399
1.0124933
0.98481295
1.0615929
1.0928519
1.0255514
1.0993071
0.58173379
0.59965647
0.57478926
0.58632661
0.56222747
0.57581608
0.055359508
-0.0081487865
0.12197013
0.10151442
0.010524127
-0.023262185
-0.017467991
-0.01555128
-0.036183987
-0.029461442
-0.012600821
-0.014157028
0.35215188
0.28678117
0.065049413
0.18720122
-0.022118068
-0.133178
-0.2007982
0.02305686
0.20214827
0.19878678
0.58820235
0.86478692
0.71556108
0.82226276
0.64551288
0.7563729
0.75376261
0.70444659
0.74373396
0.63439826
0.64908728
0.72293641
-0.076956136
0.24178978
1.4290803
1.396152
1.0144967
0.88308576
0.81581223
1.0728241
1.0205274
0.85429175
0.95883966
1.0684222
1.0474977
0.47638325
0.44075647
0.86668332
1.0043575
0.57957349
0.4483869
0.41983481
0.60472641
0.66475753
)
;

boundaryField
{
    wall-4
    {
        type            zeroGradient;
    }
    velocity-inlet-5
    {
        type            zeroGradient;
    }
    velocity-inlet-6
    {
        type            zeroGradient;
    }
    pressure-outlet-7
    {
        type            fixedValue;
        value           uniform 0;
    }
    wall-8
    {
        type            zeroGradient;
    }
    frontAndBackPlanes
    {
        type            empty;
    }
}


// ************************************************************************* //
