/*--------------------------------*- C++ -*----------------------------------*\
  =========                 |
  \\      /  F ield         | OpenFOAM: The Open Source CFD Toolbox
   \\    /   O peration     | Website:  https://openfoam.org
    \\  /    A nd           | Version:  9
     \\/     M anipulation  |
\*---------------------------------------------------------------------------*/
FoamFile
{
    format      ascii;
    class       surfaceScalarField;
    location    "48";
    object      phi;
}
// * * * * * * * * * * * * * * * * * * * * * * * * * * * * * * * * * * * * * //

dimensions      [0 3 -1 0 0 0 0];

internalField   nonuniform List<scalar> 
1300
(
1.7582594
5.62643
-4.9840236
1.7582594
-8.4739948
5.6264299
-5.3617665
5.3617665
-0.49808027
0.49808027
3.7300978
3.6545915
-3.4939467
3.4939467
-3.4122856
3.4122856
-0.40963951
0.40963951
-5.2377244
5.2377244
-5.0578429
5.0578429
4.7096531
-4.7096531
-6.870801
6.870801
-0.25358468
0.25358468
-4.604678
4.604678
1.5060832
-1.5060832
-3.3727929
3.3727929
0.10408797
-0.10408797
-0.56729629
5.1387706
1.1909631
1.1909631
-0.11221834
0.11221834
-4.8663579
4.8663579
6.2140718
-6.2140718
7.7544809
-7.7544809
-2.7704573
-3.390408
1.9736343
-12.531083
-6.5003605
-6.5003605
-8.4382637
8.4382638
-2.8118339
2.8145961
1.5234902
-1.5234902
-1.7224871
1.7224871
-5.3208494
-0.040917053
-5.3208495
5.3710612
-0.0092947234
5.3710612
-0.50809551
0.010015232
-0.50809555
4.7712971
-4.7712971
0.45438816
0.043692079
0.45438815
1.2979547
-1.2979547
-3.7417995
7.4718972
3.6428898
-3.056453
8.1952236
-3.390498
7.0450895
-6.5708446
6.5708446
-3.7184705
0.22452373
-3.7184705
3.3843315
0.10961527
3.3843314
-7.4692168
7.4692168
-3.4005976
-0.011687998
-3.4005976
3.4198282
-0.0075426603
3.4198282
2.1170696
-2.1170696
-0.52221663
0.11257713
-0.52221663
0.28578836
0.12385115
0.28578836
0.35898155
5.2674483
-5.9854114
8.8000075
-5.2674484
0.02972405
5.2000952
0.037629208
5.2000952
-5.0938986
0.036055719
-5.0938987
5.0160879
0.041754989
5.0160879
4.7887826
-0.079129439
4.7887826
-4.8233791
0.11372586
-4.8233791
-4.0252787
-4.5420825
-7.0463923
0.17559138
-7.0463923
-0.21667528
-0.036909432
-0.2166753
0.3770625
-0.12347784
0.37706248
-4.151363
4.151363
-5.0316387
0.42696069
-5.0316387
1.3718338
0.13424939
1.3718338
2.0086694
2.562805
3.7669287
-3.7669287
2.2608455
-3.3681626
-0.0046302795
-3.3681626
-3.439263
-4.3152179
3.439263
-0.066470159
-0.28554421
0.3896322
-0.28554423
1.2545033
-0.063540208
1.2545033
0.17924986
0.1065385
-0.17924983
0.067031478
3.3873884
-3.3873884
-0.22408988
0.33630824
-0.22408989
-5.5692029
5.5692029
4.9587892
0.05729863
-4.9587892
0.092431362
6.1532542
0.060817601
6.1532542
-6.192635
-0.021436823
-6.192635
3.4276621
-6.8180701
-3.5188459
6.6868097
0.18399131
-6.6868097
0.18644922
1.6410825
-0.11759232
1.6410825
-1.0102831
1.0102831
-1.4747367
-0.048753447
-1.4747367
-2.0513867
0.32889963
-2.0513867
1.4605125
0.26197465
1.4605125
-5.1594632
-0.16138623
-5.1594633
-5.2746917
0.24305304
5.2746917
0.096369435
1.4426072
-1.4426072
-0.48090567
-0.027189873
-0.4809057
-4.946919
-0.21254422
4.9469191
-0.17562195
-4.6533574
-0.11793974
-4.6533574
-1.3772085
-0.097528258
1.3772085
-0.079253797
1.292099
-0.037595721
-1.292099
-0.0058557
-3.0482898
5.6110948
-3.3986612
7.041551
-6.1872597
-0.38358488
-6.1872597
6.912091
-0.34124641
6.912091
4.1623444
0.44233362
-4.1623443
0.44387389
3.3568394
0.027492089
3.3568394
-7.4415684
-0.02764846
-7.4415684
7.4708375
-0.0016206436
7.4708374
3.3743112
-0.01747182
-3.3743111
-0.026286441
3.4080609
0.011767319
3.4080609
2.3150155
-0.19794592
2.3150155
-1.9352327
-0.1818369
-1.9352327
0.84142255
-0.84142255
0.7306951
0.11072745
-0.73069509
0.20847846
-11.148742
11.127305
-0.03575213
-11.11299
5.164343
5.164343
3.9909526
0.79782985
3.9909528
-5.0257928
0.20241365
-5.0257928
3.4897719
-7.0086177
3.8669808
-7.8922595
5.0727202
-17.603803
4.7087958
-9.2508783
7.3087546
-7.3087546
7.1846279
0.12412672
-7.184628
0.13823568
-0.13829291
-0.078382385
-0.13829292
-3.5387285
-0.61263447
-3.5387285
4.8096681
-0.65830508
4.8096681
-1.2595601
1.2595601
-1.2988986
0.039338503
1.2988986
0.072935253
3.3878302
0.020230712
-3.3878302
0.019667619
0.39846122
0.055926932
-0.39846123
0.112917
3.8565383
-0.46914985
3.8565383
-2.9038086
-0.48357985
-2.9038086
0.036054209
-0.17434713
-0.036054195
-0.18803569
-5.8169992
0.24779632
-5.8169992
-11.21344
0.10045018
-11.175811
-6.0921848
-6.0921848
2.346079
11.146087
-1.7881811
-0.14705157
1.7881811
-0.14709857
1.1892953
0.070264826
-1.1892953
0.17901214
-0.91214514
0.070722591
0.91214513
0.098137999
-2.4740421
0.42265533
-2.4740421
-1.2112403
1.2112403
-1.2830246
0.071784331
1.2830245
0.17748799
1.7614759
-0.31886874
1.7614759
0.44303732
-0.065974833
-0.44303726
-0.037868439
-4.4740381
-0.17931934
-4.4740381
7.174685
-0.26259408
7.174685
-2.5877946
-0.31601404
2.5877946
-0.27277913
-0.035146939
11.162452
-5.1291961
0.035297408
5.1291961
-11.22327
11.258567
-3.0485971
0.57455494
3.048597
0.94235577
5.2969094
0.27229356
-5.2969094
0.27111661
7.4020134
0.068824022
-7.4020134
0.093258822
-3.0372723
-0.50145618
-3.0372723
-5.5508617
-0.63639802
5.5508617
-0.74119365
-11.47501
-0.19762234
11.672633
-11.433255
6.0146216
0.1386326
-6.0146216
11.3972
-1.2564422
-0.18616497
1.2564421
-0.045201733
2.113301
-0.35182502
2.113301
4.2438473
-0.38730904
-4.2438473
-0.23019085
-7.3330853
-0.10848302
7.3330854
-0.15840037
-2.554147
-0.48312535
2.554147
-0.44084601
-5.344772
5.2812318
2.8504516
-3.3037181
-3.514352
-7.618936
2.5325189
3.0785759
4.7933644
-11.047514
-6.5562893
-10.861065
7.2642759
-6.9931593
-9.4164826
9.337353
11.019851
-11.137791
-7.2377724
7.3107076
8.7633847
-8.8426385
3.8117251
3.6601721
10.705076
-10.480552
-16.761946
16.378361
10.015695
-10.027383
17.114884
-17.142533
-19.392974
19.461798
-6.9957929
7.10837
-9.6540931
9.4722562
-10.127934
9.8551552
-3.626476
-4.2657835
14.285361
-14.10977
11.684065
-11.688695
-11.605534
12.032495
4.0553397
1.225892
4.017744
-3.6039335
7.4156586
-3.441156
6.2916076
3.6201179
-7.2465939
3.3884998
-6.9028518
5.9993044
5.6847603
-5.9328342
-1.6861018
-8.2992562
8.1816639
-7.251672
7.34981
12.466321
-12.507238
-3.6182634
7.2784355
-3.4232875
6.5018634
-3.662208
-3.5755644
3.5279586
1.2654058
8.7943687
5.4909926
-8.9783601
-1.8827044
-11.656812
11.269503
-12.200738
11.717158
-0.43806153
5.7873548
-5.3492932
4.4282964
-1.490591
7.2779458
5.773685
5.9760987
5.8659023
-5.5936087
1.127257
-6.4765502
-6.3841188
-2.4051233
2.3779334
2.3074894
-2.2637973
8.3829671
2.6368837
8.2073452
-7.99822
-3.1395704
-8.1775394
4.3364081
2.9742995
4.3757467
5.2892749
3.4741097
5.1917467
5.8266069
-5.9811859
0.15457894
-5.4889545
11.315561
1.2972497
-9.0645189
-7.7991131
6.7475256
3.9575506
6.8571409
-7.3598729
-3.1206794
-6.915999
-10.194457
-6.5674891
-10.830855
10.94967
5.428691
10.608423
-12.916571
12.758171
6.5622725
3.4534227
6.5547299
-6.5552107
-3.4721725
-6.5814972
13.536244
-3.2341034
-10.30214
-11.199417
-8.1935568
11.201038
5.9138465
11.932465
7.5293334
12.025723
4.9409347
8.5953089
-10.854781
2.6612244
-4.3326349
-2.663158
-4.1241565
4.1283648
2.9800053
4.2522159
-5.634163
-4.0199301
-5.7812146
-5.7559705
-4.3719639
5.9539164
3.5183398
-6.0670698
-6.1336684
6.3830838
3.4720714
4.4274388
-10.983728
4.8234395
-9.089223
-10.015146
-4.0946238
-9.8769106
4.5927004
3.0948815
-7.6875819
-2.6538935
11.242847
-5.5580868
9.5567453
-7.1685705
-4.5201245
-7.1489029
-9.2326046
-2.3729294
-8.9895515
-9.4570433
8.9555871
-9.8665029
9.2081978
13.867164
-6.8783418
-6.9888218
-4.8935807
-3.9490578
4.8994364
-0.88169234
-7.1899686
7.3445476
0.22569001
6.5172976
7.7431896
6.8614973
-4.3912668
-2.8604051
-4.2122547
4.3135503
3.0362597
4.3842729
9.2783878
3.1879328
9.2690931
-8.9079372
-3.5993005
-9.0693234
9.4173785
-9.0884789
2.4316682
-2.6060153
7.7285401
3.9886182
-7.2593903
-4.3974222
9.5930203
-4.5291737
-5.0638466
-12.079554
10.573117
1.5064378
-4.8016085
-0.37331209
-0.47740007
-5.5484606
-3.8680219
5.4347346
0.54136414
11.114481
7.2464588
-5.51512
5.7629163
6.1575125
6.2148112
-0.16930756
5.9868314
-5.4122764
6.8608214
-3.6384832
-3.2223381
7.3347363
-7.5472805
-1.7345871
-8.0330367
6.2984496
0.66006462
1.7508999
-1.3612677
-1.6394684
-0.76565492
-1.6773369
1.3637655
0.9437239
1.4196925
0.86144794
1.5164855
-3.4304519
0.73729667
2.6931552
-2.569004
-1.5265007
-5.1941172
-2.0776774
7.2717946
8.1583113
3.1111921
-7.9281205
-0.24941889
2.2973488
-2.4208267
-0.67987772
-4.5142395
3.0090729
-3.6889506
-6.0809773
-2.4867825
8.5677598
-3.6372084
-0.57504629
3.5669435
0.80880312
-4.8429599
-3.4562963
4.8917134
0.30003334
-5.4660452
11.051027
-5.5849815
-8.3264503
4.4463559
6.8692055
7.4206554
-9.1652369
4.8386904
4.3265465
-2.2960314
5.7765153
1.0806256
5.8040074
-9.5856727
6.4649933
7.761961
4.2705338
-8.2042946
1.2882956
-8.2973771
11.088959
-9.7743459
-1.3146133
5.4603933
5.6285659
7.5204306
6.346733
-5.9426738
13.463104
-1.651454
-8.1228919
9.948831
-5.6782973
6.685296
-12.363593
-13.032029
4.9091371
-9.9235814
12.089132
-2.1655501
-3.8865511
-9.0300202
13.810133
-1.3158092
-12.494323
9.2926142
-5.7131117
-5.567033
11.280145
-8.947215
9.0392054
-2.702951
-6.3362544
-10.905927
-6.2366057
11.01441
1.7437606
-11.953561
14.614785
-3.3582517
5.6800906
0.87463925
5.6918579
4.3514259
-7.0572795
2.7058536
4.5957891
-7.2987401
2.735134
-9.7924135
-7.2673036
13.369781
-6.1024778
-11.361927
-10.32102
-1.0409075
2.7941362
11.820649
-10.32347
8.0480802
2.2753894
3.4986689
0.88560399
-3.6093964
-0.51476011
0.38804698
6.8836106
-7.2716576
4.6402629
4.7468014
5.0178403
1.8657703
5.2109837
2.9706802
-5.0638852
-0.71732939
-6.7401701
2.3682063
-3.2218304
-6.7457594
9.1139657
-7.3185216
0.57276209
-4.5414061
-6.1336548
10.675061
-7.2045641
5.1629201
5.8881065
8.1991798
-8.8559848
2.72233
-4.3449601
-4.5110247
4.5961916
-7.8180219
3.5476423
5.5663235
7.0197137
0.88604524
6.6026444
6.7671369
-9.6975259
0.60830292
12.25813
-10.375425
2.6919994
9.333724
-10.74008
0.4190599
-9.4578507
1.2299811
-6.788068
-6.4576007
7.2576397
-9.6305691
-5.1059536
8.3517934
0.91729966
-8.4481629
-0.54138865
-6.4546374
-3.0024059
-6.9377627
-3.2825849
-6.5839179
-9.2252588
-1.7590348
-7.466224
7.1965524
-7.1910207
-3.6398339
7.9322143
1.2759835
-7.9224663
7.7363014
-7.973658
7.621833
0.30632792
7.0382196
7.1678252
3.2187674
-4.7421882
7.9609557
-7.1726739
10.360607
-12.32488
5.1522065
6.1505996
-9.7499001
-6.1742808
5.3916048
4.0257738
5.6535795
9.2222461
-10.575862
1.3536155
-10.810217
12.410792
-1.6005753
-16.792347
5.9821303
-7.5701009
2.2689188
0.16274938
2.1905364
0.74935936
2.8447567
-3.5941161
-1.8566559
-2.0446916
-3.8486625
-5.8067953
9.6554578
1.8635322
-5.3874237
3.5238914
-4.7282981
6.5918304
0.060242109
-5.4476658
7.1363123
-4.2915555
7.2990616
-4.668056
2.6310056
5.3014648
9.2963283
-3.9948635
7.0671162
-3.0784981
3.1371013
-7.1319648
-2.669694
-4.873136
7.8531412
-5.8019249
6.374687
-0.58148369
6.9561706
-5.8808636
1.3516899
-0.86302328
3.8837782
3.9508096
7.1586185
-5.2928483
5.037193
-8.1156911
-2.0947718
-7.2296458
-1.6633224
-0.37988102
-4.9707486
5.3506296
6.5716004
-6.9514813
-5.2866237
9.613404
-4.3267803
7.9656159
-5.4783346
-2.4872813
-4.4822257
-4.6062532
4.0595703
1.9272611
9.892877
0.26008233
-5.7384169
-5.1521941
-4.2098384
4.1380088
2.7228125
-2.0015781
3.508016
2.4789782
-0.72807827
0.49091884
0.92877362
2.03482
-1.5439012
0.31957703
1.715243
-1.0416907
1.6672263
0.63012254
-1.6012514
-0.076085559
-1.3857238
4.3947967
1.3074314
-2.2511553
0.70725417
1.3707769
-5.0092601
7.4518142
-4.05961
-3.3922042
8.8225911
1.5407941
-5.6004041
6.4922425
-5.8321779
3.3783039
-5.4559812
-2.2221002
-8.0542781
-5.4173944
-4.3281804
7.8520718
-5.3272774
8.4384694
1.7710945
-8.1890505
9.960145
-4.8352362
2.3484537
-4.1203998
4.7505223
-1.7565941
-2.3638057
4.3795378
4.1882219
-4.3788186
-0.13542088
0.00071923103
3.1142896
-3.1135704
-0.57466105
-3.1436651
-7.6839918
7.9840252
-3.7510736
8.589764
4.2098821
-3.6545085
12.244272
3.1338985
-6.7884069
-5.1925518
-5.7675981
-2.4618604
4.958795
-0.93534041
-5.6461567
-7.2715947
5.6636285
0.14037888
-9.48166
10.614196
-1.1325361
-5.5241094
-0.9408838
6.4012772
-8.0215254
0.72278529
-5.2863913
5.3278049
6.4084305
6.5488094
-12.227393
-0.26693078
-6.7987016
1.3275872
-8.1262888
6.9561532
-3.7335898
8.642727
-11.005498
7.3656643
-9.7295147
7.3281137
-0.79817515
7.3215533
-4.6156996
2.9805869
-9.2171926
-7.4734319
7.1665698
-3.7131471
8.0412091
-4.2087458
12.249955
-7.5669975
7.0146717
5.2352832
-1.3814897
-5.7674132
-6.9593471
5.5778574
0.055324585
5.7471825
8.0911974
-5.1205173
7.373868
4.464084
-8.8090441
-3.3539379
-11.954609
3.1455651
-6.0665027
-3.2893929
6.434958
4.9097869
5.7953909
1.9239333
-5.2806308
8.4880412
-9.5289487
-2.3855634
-4.0720374
6.9180552
-1.3401979
4.3901373
-8.4621747
-2.3979307
5.6981406
-0.62246995
-5.0756707
1.1802011
-6.2861547
2.3821048
-8.6682595
7.2484644
-7.789853
2.3383785
-9.9084795
-5.5840877
-5.6292894
-2.4097311
-5.5639269
-7.8356361
5.425905
-1.8535058
5.8827956
-8.7311092
8.1086393
-3.679683
9.105588
-5.8042512
-1.1335114
6.2450973
1.3767358
10.482324
0.52027209
-6.6945529
-2.8145966
5.2095319
-2.3949354
1.3234121
-4.4504764
0.75905554
3.5628286
5.2597625
-9.8612783
0.11137823
-6.5831746
-4.1159525
8.1417263
5.4974515
12.069052
1.4931904
9.2680258
-1.1262995
10.761216
4.5272801
4.7047681
-4.0355345
5.3891501
1.3150952
6.4673018
-0.79509771
3.4261033
1.3954386
1.3585292
1.0622975
2.542362
1.4084477
3.8940518
0.29993571
-1.7447559
4.6590734
-8.8689118
-1.0793434
-8.0710819
1.266271
5.818355
-4.552084
3.8107823
-1.0879698
1.415847
-0.27433831
-1.4628695
1.7372078
-3.4966763
-2.1909478
-0.47570479
-2.0484083
2.7556624
2.3463884
-2.2799576
-1.2167186
0.72821711
-6.1456115
4.7277641
-4.863185
-0.67496304
9.2851819
-3.6258687
0.51229835
-1.277415
-2.6313667
-3.3970217
3.4731073
11.577198
0.66707434
5.9922167
8.6510995
5.1948033
0.074286008
5.0056991
-7.1712492
-4.7867143
-7.43818
-0.48202677
5.9192504
2.2718828
9.548766
7.507166
6.1669681
-2.2952066
-11.824155
8.2845769
-2.8954268
6.6840016
-1.608331
-7.0599285
6.9615633
3.3990434
-7.8788629
0.089009931
-6.9709185
-9.8663453
-0.45893005
8.5675694
-10.023394
8.8898823
5.8874764
1.5787476
-4.7541389
-0.87515046
4.6823544
0.022413718
10.78363
-1.2089671
-6.8516286
8.0605959
-4.6093878
3.5300445
0.88588679
2.6221292
2.6230944
1.5351245
-5.3165043
-9.8685883
-3.0944598
-1.9148003
-6.486664
0.78513058
-3.131519
6.189162
-2.6591174
3.7018806
5.4014785
6.8173255
-1.979591
-4.9718903
6.3063714
-2.6044907
4.2128348
)
;

boundaryField
{
    wall-4
    {
        type            calculated;
        value           uniform 0;
    }
    velocity-inlet-5
    {
        type            calculated;
        value           nonuniform List<scalar> 8(-1.7582594 -1.7582594 -7.3846893 -4.5714743 -7.3846893 -6.446951 -4.5714743 -6.446951);
    }
    velocity-inlet-6
    {
        type            calculated;
        value           uniform -5.6264299;
    }
    pressure-outlet-7
    {
        type            calculated;
        value           nonuniform List<scalar> 8(4.9840236 8.4739948 6.1608652 10.557449 8.5673612 6.946508 7.3567526 9.781516);
    }
    wall-8
    {
        type            calculated;
        value           uniform 0;
    }
    frontAndBackPlanes
    {
        type            empty;
        value           nonuniform List<scalar> 0();
    }
}


// ************************************************************************* //
