/*--------------------------------*- C++ -*----------------------------------*\
  =========                 |
  \\      /  F ield         | OpenFOAM: The Open Source CFD Toolbox
   \\    /   O peration     | Website:  https://openfoam.org
    \\  /    A nd           | Version:  9
     \\/     M anipulation  |
\*---------------------------------------------------------------------------*/
FoamFile
{
    format      ascii;
    class       volVectorField;
    location    "48";
    object      U;
}
// * * * * * * * * * * * * * * * * * * * * * * * * * * * * * * * * * * * * * //

dimensions      [0 1 -1 0 0 0 0];

internalField   nonuniform List<vector> 
918
(
(0.40815974 -0.00024687983 0)
(0.0090457202 2.9576277 0)
(-0.006025226 1.3185413 0)
(0.29043183 -0.0084004577 0)
(-0.01149719 2.2524662 4.3765691e-20)
(-0.011743957 2.9485786 -3.3184825e-18)
(0.91032335 1.4213168 7.9923484e-19)
(0.13134321 0.081087419 -2.6376759e-20)
(1.9883078 0.0043733228 0)
(0.010331788 0.94765807 0)
(-0.0014660235 0.92345984 0)
(0.075133212 0.0065110369 0)
(0.012835743 2.9163566 0)
(0.013652866 2.7913105 0)
(0.096351102 3.155252 3.2123958e-19)
(-0.010356479 2.1126391 2.129999e-20)
(0.0097057481 -0.0061679258 1.6180677e-18)
(0.19489463 1.431271 5.9054575e-19)
(0.38077443 0.0086667528 0)
(-0.0071806234 0.89240213 0)
(-0.03073446 0.052006454 -1.272486e-18)
(1.0481332 -0.021332388 0)
(0.54537114 -0.026991973 0)
(0.24712307 -0.0058125937 0)
(0.05050729 0.061145647 0)
(0.020718151 2.6244709 0)
(-0.0099922244 2.9057942 1.2184709e-18)
(-0.019446795 1.3759858 0)
(-0.037626636 1.6440681 0)
(-0.015174626 1.3483763 0)
(-0.0088215111 2.8179451 0)
(-0.0025320016 2.308958 -3.4402417e-20)
(-0.0050382407 2.088016 0)
(-0.018162039 2.9813197 -1.2342408e-22)
(-0.018376307 3.007022 2.5764303e-18)
(0.00085869475 3.0015933 0)
(0.30689719 -0.0020702051 0)
(0.41850372 0.88538081 3.5112411e-19)
(1.0365362 1.4688711 -9.9626071e-19)
(1.0546473 1.28613 1.0162773e-18)
(0.86918331 1.5972157 -1.8265932e-19)
(0.74091584 1.5203089 1.0360991e-18)
(0.21631797 0.11751858 2.5733638e-20)
(0.12412348 0.045878458 0)
(1.2873328 0.74725293 0)
(0.19737719 0.11703355 1.1807756e-19)
(0.13410005 0.085915225 -1.2258928e-19)
(0.25620839 -0.012685633 0)
(1.9896689 0.001558559 0)
(1.9887542 -0.0014157928 0)
(1.3550296 0.0029839795 0)
(1.8675889 0.0065423353 0)
(1.7380926 0.0037057754 0)
(0.026190174 2.0336044 -8.3230202e-19)
(0.031697258 1.2220077 0)
(0.038150344 1.0346642 0)
(0.0065840618 1.1942741 0)
(0.00037053031 0.89955989 0)
(-0.0032891759 2.2309127 0)
(-0.00064511641 1.1704057 0)
(0.0006332801 0.92334017 0)
(-0.0026586583 1.1867162 0)
(-0.00015628928 0.9149024 0)
(0.49767575 0.021438642 0)
(0.19128907 0.020143759 0)
(0.10978978 0.028498084 0)
(0.15738512 0.01980757 0)
(0.042127631 0.012574307 0)
(0.016738387 3.0145163 1.2697239e-18)
(0.012390053 3.0113842 0)
(0.0077272042 3.0035755 0)
(0.013324499 3.000492 1.3520692e-23)
(0.010556047 2.9476309 -1.8133923e-18)
(0.016837558 2.9848982 0)
(0.013431458 2.8938527 0)
(0.01753069 2.9241883 2.9033029e-24)
(0.013819545 2.818333 0)
(0.01726229 2.9109578 0)
(0.010872671 2.7552169 0)
(0.24270971 3.6010622 0)
(0.17287982 3.5354931 0)
(0.12827494 3.2887813 -3.0025731e-19)
(0.046455821 2.9869782 0)
(-0.024816034 2.2855663 0)
(-0.015643871 2.337064 -2.0990099e-20)
(-0.010538921 2.1358565 4.0930758e-21)
(0.14560317 0.039481139 -5.5433262e-19)
(-0.0076162102 -0.0066950994 -5.2584882e-19)
(0.18874577 0.018124703 -1.7009204e-18)
(0.048463821 0.00095475407 -1.1445374e-18)
(0.17992845 1.1720138 0)
(0.30139057 1.5908506 -6.3255759e-19)
(0.37620625 1.5428052 1.0506621e-18)
(0.53443143 0.041715451 0)
(0.33503438 0.032351197 0)
(1.2189998 -0.0012648587 0)
(0.73674181 -0.035108029 0)
(0.6447636 0.017688699 -3.1609803e-18)
(0.64936649 -0.025440038 2.4736159e-18)
(0.00081507832 1.1681211 0)
(0.0059867957 0.90685474 0)
(-0.044679684 1.4093463 0)
(-0.019475381 1.20852 0)
(-0.014695332 0.88947544 0)
(-0.094279698 0.16860388 3.9120636e-19)
(0.10371234 0.094388738 0)
(0.51015974 0.022012184 0)
(0.24705992 0.014884178 0)
(0.11081474 0.016466759 0)
(0.061809021 -0.0056542215 0)
(0.028455719 0.022918719 0)
(0.91953663 0.053944019 0)
(-0.041037273 0.043474241 0)
(-0.15603371 -0.09405436 1.9922493e-18)
(0.0011120704 2.8579002 1.0635093e-18)
(0.020356379 2.9009712 0)
(0.033006437 2.8787322 0)
(0.014921853 2.7063407 0)
(-0.01052499 2.9856649 1.1764625e-18)
(-0.0091736133 2.8904954 0)
(-0.011797439 2.9907267 -3.6154903e-18)
(-0.0096038948 2.9158242 1.2372423e-18)
(-0.024390747 1.8394756 0)
(-0.011039757 1.8534746 0)
(-0.0086375133 2.3191645 3.5774218e-22)
(-0.0070064139 2.2868607 0)
(-0.0086572652 2.0901855 0)
(0.65109656 0.020997503 0)
(0.3332626 0.012044468 0)
(0.23766357 0.031962935 0)
(0.6204061 0.0048014249 0)
(0.29945965 0.016329801 0)
(0.50337804 1.0645136 -4.3018188e-19)
(0.53623481 1.101054 0)
(0.40209004 0.87620889 5.5647364e-20)
(0.30689611 0.6522658 0)
(1.1670338 1.314875 -2.9304949e-19)
(1.1437586 1.1056785 5.8039514e-19)
(0.49480538 1.67354 0)
(0.6890287 1.6732527 0)
(0.56187115 1.5657832 0)
(0.1558796 0.26459586 -4.507425e-19)
(0.22400497 0.079568168 0)
(0.098335036 0.043070234 3.3009046e-19)
(1.2718425 1.1357163 0)
(1.3549946 0.94238568 0)
(1.2198199 0.92471945 -4.9015876e-19)
(1.421268 0.74657802 0)
(1.3368116 0.57571125 6.1385139e-20)
(0.59357251 0.024428697 0)
(0.55459246 0.014866968 0)
(0.27232364 0.011125976 0)
(0.53120855 0.0099101343 0)
(0.54221566 -0.011570143 0)
(0.25965119 0.00816034 0)
(1.4982674 -0.0010383573 0)
(1.8698336 -0.00074893674 0)
(1.7318265 0.00096262089 0)
(0.041058886 2.2535754 4.5319301e-19)
(0.049880157 1.9568233 0)
(0.032774314 2.3445 7.2132389e-19)
(0.019539223 2.096295 -5.9652787e-19)
(0.14260425 1.4335356 -4.8739053e-19)
(0.067802532 1.2930534 0)
(0.083358277 1.2199418 0)
(-0.0029143004 1.1778865 0)
(-0.0027029098 0.89282329 0)
(-0.0063307204 2.4205831 -7.3789096e-22)
(0.00042854753 2.2292975 0)
(-0.00027709522 2.4226868 -3.7334702e-20)
(-0.0031010268 2.2276855 5.8824025e-20)
(-0.0072522259 1.1731521 0)
(-0.0052688592 1.1716745 0)
(-0.0026947133 0.90541591 0)
(0.0012243706 1.1891375 0)
(0.001762279 0.91156065 0)
(0.83864128 0.042761575 0)
(0.55470393 0.023453987 0)
(0.77814648 0.035382476 0)
(0.4335379 0.010846747 0)
(0.18209049 0.0029649419 0)
(0.31289971 0.024610367 0)
(0.25116552 0.059193185 0)
(0.16450187 0.012590682 0)
(0.0036657855 3.0720098 -1.0863794e-20)
(0.010772403 3.0616324 0)
(0.016159587 2.9688243 0)
(0.013246778 2.867749 0)
(0.71685789 4.1729137 0)
(1.2079134 3.2425439 8.4733675e-19)
(0.067722514 3.1208408 0)
(0.027843453 2.897264 0)
(-0.018471754 1.8526811 0)
(-0.025795197 2.0950577 0)
(-0.022848312 1.9568065 0)
(-0.022865006 2.7603126 -1.2093925e-20)
(-0.020435027 2.470313 0)
(-0.021437998 2.6109761 0)
(-0.0044414689 2.1657342 2.8107891e-21)
(-0.0091173575 2.3938263 3.280696e-21)
(-0.0103795 2.3684085 -4.2213513e-21)
(-0.0077306516 2.1456802 0)
(0.15056232 0.0092207621 8.004612e-19)
(-0.068429939 0.0028555479 -7.9355366e-19)
(0.30367896 1.7050472 0)
(0.20844884 0.95467476 -3.8083867e-19)
(0.22418737 1.845647 -1.1764704e-18)
(0.13672209 1.4093235 1.1803112e-18)
(0.30367412 0.0013417117 0)
(0.48125809 0.0038818711 0)
(0.49142788 0.022116007 0)
(0.31408739 0.0097436238 0)
(0.0044680101 1.1834843 0)
(0.0066468714 1.1718073 0)
(0.005060743 0.90811154 0)
(0.17923211 0.12172683 1.097319e-18)
(0.12739814 0.12891068 -1.2958211e-18)
(0.12628087 0.099193952 0)
(1.2515316 0.14295763 2.3022452e-20)
(1.1300877 0.11767197 0)
(1.0997074 0.0958024 0)
(0.74795784 0.034748423 0)
(0.14926762 -0.037018787 0)
(0.093026718 -0.060220082 -3.2419306e-18)
(-0.15678736 0.00067739758 1.2586424e-18)
(0.0020564201 2.9837191 1.0633902e-18)
(-0.003831449 2.8637274 4.4894123e-20)
(0.0038283202 3.0539623 -2.2747036e-20)
(0.012747375 3.0472431 8.1895224e-19)
(-0.0094041659 2.9952498 4.0214305e-20)
(-0.0083930186 2.936163 -1.6145273e-22)
(-0.013162409 3.0201633 -7.5809723e-19)
(0.001211814 3.0231401 5.4641567e-19)
(0.0066712879 3.0398334 -8.1954142e-19)
(0.74134255 0.028296612 0)
(0.70159276 0.031887566 0)
(0.37842033 0.016683816 0)
(0.45718187 0.016316915 0)
(0.4158129 0.04828968 0)
(0.29344224 0.0098974115 0)
(0.34947661 0.0060357734 0)
(0.36520072 0.021771953 0)
(0.20372735 0.0081822526 0)
(0.68716024 1.3468086 -1.6669383e-19)
(0.75465809 1.427773 0)
(0.15994523 0.33578693 1.0805796e-19)
(0.33808749 0.76173995 8.1991591e-19)
(0.35413016 0.78708174 -4.8021563e-19)
(0.21694 0.4555187 9.3736834e-19)
(0.4279735 0.98013372 2.2933089e-18)
(0.17352346 0.35770009 5.0613419e-19)
(0.2073226 0.052363323 1.2096964e-18)
(0.2150722 0.081929259 3.2331126e-19)
(0.079715677 0.016656331 6.1141423e-19)
(1.4581439 0.56433846 2.5102698e-19)
(1.3266036 0.40058427 2.2045185e-19)
(0.022612364 2.4018506 2.6665614e-19)
(0.010247921 2.1678923 0)
(0.99253627 0.065174814 0)
(0.90663351 0.053185231 0)
(0.64736123 0.030056575 0)
(0.0099788741 3.0770383 0)
(0.016932062 2.9388257 1.5958826e-18)
(0.016523536 2.9537452 0)
(0.013490581 2.8434295 -1.5930548e-18)
(0.0093930095 3.0918188 3.6513818e-19)
(0.0036413486 3.0887836 0)
(0.84377107 1.7134545 -7.8299285e-20)
(1.1065185 2.3184736 5.3308737e-21)
(0.8234755 1.829416 -7.4630829e-19)
(0.013263079 2.9950682 -9.7541544e-19)
(0.033408883 3.0316622 0)
(0.011411298 2.8688466 0)
(-0.011633853 2.4025322 -2.3799001e-20)
(-0.0063192654 2.406308 -3.3719309e-21)
(-0.0032279626 2.2062765 -4.2779007e-22)
(0.34311614 1.5433208 1.2062193e-18)
(0.2153977 0.7778877 -8.2802042e-19)
(0.087595969 2.1635054 8.181824e-19)
(0.16544866 2.024251 -1.0077787e-18)
(0.082382419 1.6953851 1.2574779e-19)
(0.013401108 3.1145892 -2.414271e-18)
(0.01623428 3.1195831 2.7330666e-18)
(-0.0088485813 2.9800564 1.1241063e-18)
(-0.0057492815 2.9767601 -1.1035352e-18)
(-0.007762212 2.8755483 -1.145147e-18)
(0.0043647409 3.1054941 -2.8391928e-18)
(0.0092265945 3.1050027 2.8191164e-18)
(0.38981985 0.84691197 0)
(0.34318708 0.77703478 -1.8443711e-18)
(0.13767149 0.27535552 8.1951248e-19)
(0.41874632 1.1004744 1.4425142e-18)
(0.19798806 0.45449363 -2.2425886e-18)
(1.3899991 0.23052755 2.7211888e-20)
(1.4530466 0.3885819 0)
(1.2785081 0.24085122 5.3533718e-20)
(0.0061757969 2.4307315 -1.6574035e-21)
(0.0072282346 2.4166859 0)
(0.0039743916 2.2037674 0)
(0.39357939 1.411505 -4.3430823e-19)
(0.42628972 1.2704029 -9.7801431e-19)
(0.20544203 0.59368221 1.7665827e-18)
(1.1925681 0.0087661959 0)
(1.3376035 0.0042887315 4.9801177e-19)
(-0.029743666 1.8064358 0)
(-0.043250525 1.8313856 0)
(1.5120466 0.0013888945 5.5298981e-21)
(1.0969471 0.015705115 1.1333919e-18)
(-0.02040279 2.7657897 1.5682452e-20)
(-0.019139174 2.8081353 0)
(0.057766128 3.1740935 7.839447e-19)
(0.51725849 3.5276771 0)
(1.6242847 0.92372027 -3.1186583e-20)
(1.2646531 0.016423986 2.2793248e-20)
(1.3779509 0.030772223 0)
(1.9988322 0.012129317 1.1170515e-20)
(0.10424239 1.8413944 0)
(0.12497049 2.7499468 0)
(-0.0072121956 1.7543107 0)
(0.0025284336 2.8393956 2.8588198e-20)
(-0.021186552 2.791384 8.1207505e-21)
(1.2221348 0.05139283 2.3963532e-20)
(1.4933438 0.069018458 0)
(1.5680409 0.10571384 0)
(-0.026951824 2.1132895 0)
(-0.016429716 2.805618 0)
(-0.0065503635 1.7855943 0)
(0.37982452 1.9928433 -3.1901785e-19)
(1.3002571 0.013420842 0)
(1.0952705 0.011757618 0)
(1.9714752 0.015500786 6.547884e-19)
(1.6590265 0.019006885 -7.449381e-19)
(1.9059185 0.013035045 0)
(-0.021798644 1.9291955 0)
(-0.022681887 1.8236328 0)
(-0.020668476 1.8772049 0)
(-0.010614884 1.7776972 0)
(-0.014576234 1.7648525 0)
(-0.017554916 1.7718312 0)
(1.4293932 0.048411149 0)
(1.2630983 0.035830872 2.0195711e-20)
(1.0883786 1.7420801 4.8455016e-19)
(1.9563782 0.0058449638 -6.6956869e-19)
(1.7060957 -0.0015481335 8.0783263e-19)
(1.8968504 -0.0034239858 0)
(1.2985921 0.0082026941 6.7910788e-19)
(1.1744975 0.0036541293 -8.4491437e-19)
(0.91776088 0.020951567 0)
(-0.0204142 2.8416098 0)
(-0.022238218 2.8142701 -1.5501826e-20)
(-0.019512841 2.8332503 9.7139271e-21)
(1.7578074 0.39370389 5.2707231e-19)
(1.6891259 0.18608282 0)
(0.070409899 3.0563019 -1.4428224e-18)
(0.041996506 2.8540593 -1.0050784e-19)
(0.17292831 3.1791496 2.2056037e-18)
(0.15958196 3.2405253 -3.5035746e-19)
(0.15621242 3.2797688 0)
(0.029677584 3.1338026 4.1158422e-19)
(0.079870577 3.1731031 1.4181861e-18)
(0.076404842 3.1972207 -7.6634364e-19)
(0.046437344 3.1100074 0)
(0.60164007 0.25038815 0)
(0.55360394 0.31210976 0)
(1.5950434 1.0005482 2.7327986e-20)
(1.5285473 1.1395596 4.4395767e-20)
(1.6991875 0.81305501 0)
(1.6952994 0.74046937 0)
(1.2660201 0.024938057 -1.3553739e-18)
(1.0712317 0.019827948 1.7385418e-18)
(1.4026488 0.028014111 0)
(1.2386218 0.026001115 0)
(2.0034899 0.022612925 0)
(1.8750574 0.013730781 0)
(1.9358776 0.015241396 0)
(1.7237305 0.0032873505 0)
(1.6634461 0.0049672355 0)
(1.7962317 0.0042374819 0)
(0.088117829 1.8290119 0)
(0.05226976 1.7908454 0)
(0.14551741 1.8848203 0)
(0.15909146 1.869416 0)
(0.1464923 2.7720449 0)
(0.18111698 2.85101 -4.9672147e-19)
(0.103642 2.8437098 0)
(0.084071232 2.8654342 2.1206331e-19)
(0.029578378 2.8906449 -1.7032129e-19)
(-0.0058795037 1.7594071 0)
(-0.0014652896 1.7197663 0)
(-0.0082098741 1.7623393 0)
(-0.0077722726 1.7211605 0)
(0.0055658086 2.3098559 9.9122433e-21)
(-0.019371682 2.837608 -4.0148438e-20)
(-0.0036188479 2.8828852 2.0261677e-20)
(-0.0093232745 2.9139385 0)
(-0.020470263 2.8437721 -2.1576921e-20)
(-0.020160805 2.8390245 1.0695758e-20)
(0.0063479309 2.3069169 -2.6833381e-21)
(-0.013575 2.6172481 5.3007512e-20)
(-0.018601988 2.6515848 -2.5728579e-20)
(1.2785208 0.047947083 1.3727125e-18)
(0.98787135 0.045262307 -1.7445839e-18)
(1.2145427 0.055946603 -1.4547604e-18)
(1.0430914 0.050687885 1.8921307e-18)
(1.5244481 0.065249597 0)
(1.3702466 0.053835941 0)
(1.5865318 0.098715067 0)
(1.5403337 0.074476028 0)
(1.3879503 0.064589215 0)
(1.6913993 0.17191915 0)
(1.6122102 0.11859439 0)
(1.4888773 0.10442751 0)
(-0.021944742 2.6387576 1.2366689e-21)
(-0.024075901 2.3019466 0)
(-0.021771119 2.4673224 0)
(-0.016341476 2.8328841 -6.0132774e-21)
(-0.016102441 2.8443373 1.5316924e-22)
(-0.014315339 2.013272 -2.7138196e-20)
(-0.021225715 1.9520007 2.7360353e-20)
(-0.022345404 1.8413209 0)
(-0.025699571 1.8510112 0)
(-0.02550276 1.8499123 0)
(-0.0059732376 1.7838722 0)
(0.00203313 1.7369178 0)
(0.51997485 2.0234527 5.3482737e-19)
(0.54633533 2.0090021 2.6972776e-19)
(0.58747355 2.6191792 -2.7802765e-19)
(0.38063567 2.7561722 7.1694483e-19)
(0.42134962 2.2410899 1.048369e-19)
(1.4125701 0.02946318 0)
(1.3375531 0.027714545 0)
(1.1487573 0.018978509 0)
(1.9819832 0.025322261 0)
(1.9617861 0.01858326 0)
(1.7262299 0.023756626 0)
(1.6359957 0.02270457 0)
(1.649822 0.027923935 0)
(1.3156917 0.030573466 1.3116851e-18)
(0.99968838 0.03975815 -1.6682412e-18)
(1.2707891 0.044266468 -1.3774007e-18)
(1.0706856 0.035518988 1.7767729e-18)
(1.0455832 1.7856578 0)
(0.92214613 1.8806647 4.8388069e-19)
(1.2074024 1.6613552 2.3920398e-19)
(1.2476689 1.6075177 -3.1869173e-19)
(1.2581164 2.6752199 9.1446561e-19)
(0.70518322 0.051587742 8.4305591e-19)
(1.7057448 0.20985049 0)
(1.7614989 0.30903773 -4.0343998e-19)
(1.6723229 0.25255788 -1.6083955e-20)
(1.5629158 0.18663895 0)
(0.2006909 2.9297207 9.9207434e-19)
(0.09033187 2.8164448 -2.0906757e-18)
(0.016184022 2.3941523 1.2980552e-18)
(0.093146119 -0.2078334 -5.8684357e-19)
(0.35405397 3.4484427 1.240156e-20)
(0.22750493 3.3613273 0)
(0.24070638 3.4154796 -1.7454668e-20)
(0.24865155 3.0819714 -2.4327512e-18)
(0.37926457 3.1713035 0)
(0.012973063 3.1197714 7.4316142e-20)
(0.016078659 3.1323582 -7.9188466e-19)
(0.030098712 3.1185256 1.230841e-18)
(0.036066073 3.1483419 0)
(0.033457079 3.1554029 0)
(1.3306274 2.7639898 0)
(0.77267363 0.98061856 -9.0713496e-19)
(1.4148874 1.3606491 -8.6497793e-20)
(1.3445781 1.4693357 0)
(1.2490025 1.4032763 -1.6753659e-19)
(1.487074 1.2382662 3.7124066e-20)
(0.28674916 0.37185207 -1.4688145e-18)
(0.68877354 0.26858867 -1.7319031e-20)
(0.5180227 0.1612586 7.001487e-19)
(0.56990189 0.35262209 5.140128e-20)
(0.44889775 0.28723115 -2.0987433e-18)
(0.64362037 0.28707231 0)
(0.85719208 0.44949286 1.1802386e-18)
(0.85349645 0.41985116 0)
(0.6267409 0.3256623 0)
(0.49356749 0.22139052 0)
(1.2520656 0.85512168 7.0554109e-19)
(1.7677116 0.43010137 -4.9211856e-19)
(1.7551674 0.61009016 0)
(1.740062 0.5374595 0)
(0.65783202 0.13927932 1.0024379e-18)
(1.2546055 0.71828653 -6.5940767e-19)
(1.0085718 0.61800435 1.196949e-18)
(1.4830995 0.56526108 -1.1737552e-18)
(1.2364274 0.022925345 8.9865593e-19)
(1.220727 0.022823063 -9.3002715e-19)
(0.97185738 0.01905877 0)
(1.458865 0.048076639 0)
(1.3966809 0.036764697 -7.7348092e-19)
(1.2087484 0.025977273 7.6387993e-19)
(1.828784 0.042880911 0)
(1.6956454 0.030135703 0)
(1.9087818 0.01476833 0)
(1.6689361 0.021544349 0)
(1.9571966 0.031303231 0)
(1.9411174 0.026751622 0)
(0.039116566 1.7910378 0)
(0.017531385 1.7513388 0)
(0.18051433 1.9096627 5.3343879e-20)
(0.35692739 1.9818572 1.7173763e-19)
(0.22160703 1.946115 3.9128136e-19)
(0.25568194 1.948858 -6.2527104e-19)
(0.23089983 1.9386159 0)
(0.20652974 2.0746988 -6.3940769e-20)
(0.18135327 2.0622843 0)
(0.38679323 2.1983194 -1.452883e-19)
(0.35734934 2.4779639 7.0136614e-19)
(0.26978234 2.0164502 5.7304129e-20)
(0.33758388 1.9535932 6.196373e-20)
(0.2813153 1.9494506 -5.05044e-20)
(0.39941647 1.9390652 -1.1458714e-19)
(0.31240562 2.0470308 0)
(0.36740916 2.0490976 1.2199487e-19)
(0.047399432 2.5131181 -3.061192e-20)
(0.037036423 2.8782909 0)
(0.075296983 2.6036198 1.4939814e-19)
(0.064903546 2.6097695 0)
(0.062233924 2.8853971 -2.3604243e-19)
(0.04654584 2.9284327 0)
(0.0057437116 1.8791771 3.3345941e-20)
(0.018359833 1.9583672 0)
(0.0103683 1.8477162 0)
(0.0010007505 1.8270299 -3.784473e-20)
(0.0064044497 2.8683134 -1.8721136e-21)
(0.017211459 2.8950971 1.951971e-19)
(0.0087215484 2.9337749 1.3664935e-21)
(-0.0047267633 2.1896757 -3.9600824e-21)
(-0.0047818036 2.1008906 -7.3371517e-21)
(0.0012773146 1.7515819 0)
(0.0054595331 1.7110284 0)
(0.047798429 2.067684 -4.9834085e-21)
(0.022961903 1.9138423 -4.838067e-20)
(0.028832671 1.9913331 4.6305472e-20)
(0.057495256 2.0827257 0)
(-0.037955955 2.5031413 5.0526691e-20)
(-0.032586181 2.7435462 -6.8133798e-21)
(-0.032218304 2.6649675 -3.1601379e-22)
(-0.0065845461 2.191665 4.6851192e-21)
(-0.027262685 2.6950169 6.2283363e-22)
(-0.026563133 2.6675195 1.7732596e-20)
(1.2124276 0.039798513 -9.5358796e-19)
(1.2180667 0.034590751 9.3963383e-19)
(0.95538159 0.032412063 0)
(1.5289009 0.10175563 1.4096988e-18)
(1.1576825 0.054576007 -1.5507583e-18)
(1.0657971 0.047421845 1.7394353e-18)
(1.5554537 0.13207396 -1.9049231e-19)
(1.4521409 0.048176072 0)
(1.4692853 0.055378577 7.6298099e-19)
(1.3347956 0.045376785 -7.5727295e-19)
(1.7573001 0.12017243 -4.4932622e-20)
(1.7204691 0.098308833 3.9070417e-19)
(1.8506523 0.12850447 0)
(1.9011434 0.12642254 -1.4991288e-19)
(1.75861 0.078329033 0)
(1.6247062 0.065385908 0)
(1.8586889 0.044323292 0)
(1.6575392 0.046052154 0)
(1.8889292 0.086690245 3.0326188e-19)
(1.8657123 0.069155274 -6.5343075e-19)
(1.8889809 0.10883845 -3.0636167e-19)
(1.888083 0.10404033 -3.5669872e-19)
(1.8775122 0.15122407 6.8208869e-19)
(1.751302 0.14276428 0)
(1.8021488 0.1936779 0)
(-0.031849459 2.4998753 5.6161129e-20)
(-0.025247271 2.3126782 6.7007107e-22)
(-0.026022523 2.3092561 0)
(-0.030135393 2.680462 -5.7727866e-20)
(-0.023355526 2.6397684 -1.8088435e-21)
(-0.02702906 2.6730907 5.0214999e-21)
(-0.021769388 2.8536164 -7.7844764e-21)
(-0.020807518 2.7700666 -1.1953914e-21)
(-0.02389931 2.7376533 -4.1347588e-21)
(-0.015388696 2.8450244 1.9076933e-21)
(-0.022029612 2.8463686 -5.974265e-22)
(-0.01723697 1.9203697 -1.9427137e-21)
(-0.0062112297 2.0352294 -2.3655632e-20)
(0.53469478 2.0061549 -2.2522443e-19)
(0.48916286 1.9489669 7.9713207e-20)
(0.88276338 1.9295842 -4.6927124e-19)
(0.70116424 2.0089496 -2.6062615e-19)
(0.74142934 1.9709835 0)
(0.63838998 2.577728 2.5849975e-19)
(0.69431889 2.5969456 4.0539499e-19)
(0.4473064 2.6815202 1.105021e-19)
(0.45930759 2.6719621 -7.3506565e-19)
(0.54124686 2.6023695 7.0287195e-19)
(0.55001559 2.635078 0)
(0.48108176 2.6993451 -6.4119542e-19)
(0.22701391 2.7707301 1.2724841e-18)
(0.33415215 2.7560592 -4.9309811e-20)
(0.26870365 2.8491439 -1.7472848e-18)
(1.0220518 2.5120419 1.0807219e-18)
(0.88808032 2.5311568 0)
(1.9573381 0.033061223 2.5606804e-20)
(1.6647979 0.030534247 -2.1899434e-20)
(1.6858201 0.030628255 -3.8409424e-19)
(1.8859828 0.039153914 3.8495164e-19)
(1.9919649 0.040696838 0)
(0.96279392 1.7889505 0)
(0.96381706 1.6911429 0)
(1.1576031 1.6005397 0)
(0.99207298 1.5869457 0)
(1.2647803 2.7059687 5.5720491e-21)
(1.1784553 2.5379887 0)
(0.92416165 2.2182684 6.9770654e-21)
(0.87253966 2.4897773 0)
(0.98835802 2.5629282 -5.8526676e-19)
(1.0150827 2.5515942 3.995549e-19)
(0.70721824 0.093751149 0)
(0.66351308 0.092926665 2.3773446e-19)
(1.0450243 0.11606078 1.2800317e-18)
(0.7554478 0.06196297 -5.2071373e-19)
(0.70420231 0.0083297933 -1.4658262e-18)
(1.7763469 0.35947952 -1.0839953e-18)
(1.604722 0.42484058 -3.0051685e-20)
(1.2818951 0.32933587 1.3390376e-18)
(1.5660611 0.30429433 1.0716221e-18)
(1.3014525 0.17459378 -1.7231801e-18)
(1.2360866 0.18742076 2.1964677e-19)
(1.2672074 0.25781216 -4.9488551e-19)
(1.2759109 0.22682017 0)
(1.5606996 0.22544808 8.4549904e-19)
(1.701383 0.26931825 0)
(1.6954645 0.31944742 0)
(1.7784677 0.23123895 3.3044236e-19)
(1.8394333 0.28514456 -2.281741e-20)
(1.815742 0.35744883 -1.910936e-19)
(1.7912652 0.33119722 0)
(1.5796664 0.073424092 7.3431082e-19)
(1.850734 0.11289332 8.8352867e-19)
(1.7945556 0.087779392 -6.9780979e-19)
(1.7955008 0.13016854 -6.0126979e-19)
(1.5715751 0.10277686 -1.010249e-18)
(1.4235689 0.14430791 0)
(1.4453984 0.13629422 0)
(1.1029202 0.060320913 -6.2849738e-19)
(0.96917562 0.052326405 2.5481133e-19)
(1.7214152 0.15752509 8.6968765e-19)
(1.8587456 0.22492127 -9.7680672e-19)
(1.8254731 0.23589722 8.9721246e-19)
(1.7500865 0.21978981 0)
(1.8513028 0.19046583 0)
(1.8753597 0.17109861 -3.8732348e-19)
(1.8300507 0.16224957 -7.0990087e-19)
(0.72939354 1.418736 2.9059075e-19)
(0.79892074 1.7579607 -3.1331941e-19)
(1.16704 2.7377517 -3.5864976e-19)
(1.2816808 3.0978581 7.1828334e-20)
(1.3256563 2.7867472 -7.1793995e-19)
(1.3746818 2.8517731 1.184706e-19)
(1.2451582 2.5233185 2.2986115e-20)
(1.3143629 3.0191029 -2.776609e-19)
(1.3255278 3.0393258 5.1494015e-19)
(1.2962931 3.301646 -3.1624271e-20)
(1.409316 3.0665631 3.266737e-20)
(1.4221996 2.9937418 0)
(0.77344919 1.0597632 -8.5372721e-20)
(0.19723744 1.2866651 8.7042782e-19)
(0.65824006 0.52013515 9.793965e-19)
(0.44627798 0.10551026 1.0757775e-18)
(0.49161574 0.34661863 1.1859994e-18)
(0.63281213 0.48791152 -1.9527033e-18)
(0.61777664 0.48213011 1.5866203e-18)
(0.50848139 0.36983293 -5.9901415e-19)
(0.33043856 0.26206585 1.3605985e-18)
(0.69649238 0.18842171 -5.6687477e-19)
(0.66890917 0.21090235 0)
(0.52894943 0.14560483 8.5064667e-21)
(0.93463479 0.59948936 6.3150386e-19)
(0.86794295 0.51818177 -2.3041549e-18)
(0.69615479 0.49560145 1.0459821e-20)
(0.7069508 0.47953145 0)
(0.96116363 1.0131336 7.1306284e-19)
(1.2753245 1.1191642 6.2821612e-19)
(1.1696551 1.2370616 -7.2318163e-19)
(1.3452118 1.1582994 -2.4011771e-19)
(1.4060025 1.2370837 -4.8774301e-20)
(1.3848516 1.2297651 4.9220684e-20)
(1.364263 0.92893741 -1.1526683e-18)
(1.4073894 1.0416584 2.2544365e-19)
(1.5046894 1.0547365 0)
(1.5332968 1.0050874 -2.7977819e-19)
(1.6640584 0.45989762 3.209847e-19)
(1.7799027 0.46128018 3.1874376e-19)
(1.7735781 0.42719103 4.6206426e-19)
(1.6510431 0.55291599 -6.4687924e-19)
(1.6767363 0.62370325 0)
(1.7102451 0.60099553 0)
(1.2562673 0.4569377 2.8201961e-20)
(1.0769345 0.30512777 0)
(1.1522125 0.28509544 6.5082674e-19)
(1.2633493 0.33939534 -1.3576816e-20)
(1.4803317 0.61247089 3.0396719e-18)
(1.3868264 0.71130369 8.588221e-19)
(1.3505957 0.6109076 -9.7454902e-19)
(1.0917039 0.5271378 1.0642837e-18)
(1.0414163 0.51932639 6.2959546e-19)
(0.96891181 0.45305306 -6.1757345e-19)
(1.6889658 0.047499052 6.4496025e-19)
(1.9537275 0.046093464 0)
(1.9221144 0.051741295 4.396373e-19)
(1.7075906 0.047458429 -9.8109895e-19)
(1.9382694 0.046977156 4.9202549e-19)
(1.8724251 0.030944972 -1.0460607e-18)
(1.6845522 0.032176068 0)
(1.5682611 0.034184779 -2.2042672e-19)
(1.8379378 0.026282667 5.479126e-19)
(1.6627718 0.026961802 -2.8370018e-19)
(1.5981772 0.033573601 2.0810775e-19)
(-0.0031351775 1.7568871 0)
(0.006447066 1.8164197 0)
(0.012603701 1.7670362 0)
(-0.0010400401 1.7250144 0)
(0.074510918 1.8829002 -1.3189981e-19)
(0.090207486 1.8674548 5.1185335e-20)
(0.15855269 2.0131598 -5.1664313e-21)
(0.1434163 1.9317665 -2.7181087e-20)
(0.034022705 1.9317471 5.737072e-20)
(0.041989694 1.9358585 -4.4880293e-20)
(0.064223978 1.8677504 -2.1237967e-20)
(0.045422415 1.8460533 1.026637e-19)
(0.026586151 1.8186978 1.596842e-20)
(0.016814928 1.8392342 8.7708944e-21)
(0.10439779 2.5430332 -1.6053786e-19)
(0.10856881 2.571854 0)
(0.18072538 2.3051314 1.1463124e-19)
(0.17100637 2.1393132 5.5891246e-20)
(0.29545298 2.2557161 -1.0758081e-19)
(0.2354206 2.5808902 0)
(0.27895733 2.5695653 -6.7486373e-19)
(0.33235421 2.4561151 4.8537853e-19)
(0.25503953 2.2335 -2.6372409e-19)
(0.19824923 2.3747165 1.8779536e-19)
(0.17905219 2.4755073 0)
(0.026459383 2.2741505 -3.3384277e-20)
(0.021314655 2.6211746 -6.1015301e-20)
(0.018599839 2.4112913 0)
(0.021577019 2.6748957 -1.59152e-20)
(0.041971352 2.5194228 2.8672276e-20)
(-0.0075686448 1.839109 -8.8572598e-21)
(-0.0053677084 1.8263862 1.3799753e-19)
(-0.0016099972 1.843116 -4.2798954e-20)
(0.0032076922 1.8593961 -4.4169152e-20)
(0.0061244969 1.886052 0)
(-0.0046194476 1.8153686 0)
(0.00022490754 1.7637117 -4.700999e-20)
(-0.0048836836 1.8153362 1.3602929e-20)
(-0.0036090764 1.8134717 0)
(0.0028936313 1.7506964 -3.3717664e-20)
(0.0051248365 1.7170314 7.0282752e-20)
(1.6823326 0.065722616 0)
(1.6740581 0.067156599 -7.0137121e-20)
(1.9552424 0.078208867 -5.461403e-19)
(1.8475304 0.08482606 0)
(1.7040184 0.073497315 0)
(1.9176435 0.065991166 -5.0219724e-21)
(1.9190329 0.064994659 8.364194e-19)
(1.7833647 0.05312131 1.0678024e-18)
(1.6528306 0.049598758 0)
(1.5732558 0.059044371 0)
(1.773537 0.067155834 5.3732646e-19)
(1.6122364 0.070693126 0)
(1.5700642 0.058475991 0)
(-0.022885804 2.3104788 0)
(-0.0094330033 2.0650985 -9.2335514e-21)
(-0.018473533 2.1959951 -1.8511036e-20)
(-0.0048700837 1.828807 0)
(-0.017039278 1.9710265 -1.8389456e-20)
(-0.016017941 1.8994256 9.5096706e-21)
(-0.010223061 1.8339303 0)
(0.49575461 1.8745065 0)
(0.49924536 1.8454667 -1.9507881e-19)
(0.43077404 1.7500078 0)
(0.6049227 1.8745377 7.4708782e-20)
(0.67758007 2.0001089 0)
(0.625145 1.9669192 2.57194e-20)
(1.1067124 2.76011 -2.2475258e-20)
(1.0414365 2.5287229 -1.243787e-18)
(1.0402382 2.4267749 1.4282374e-18)
(0.91847574 2.5160208 3.5116989e-19)
(0.90433928 2.5625809 0)
(0.97003777 2.5425947 0)
(0.996286 2.5159773 0)
(0.97593535 2.5180839 -1.2722534e-18)
(0.73363635 2.5038195 -5.8142748e-19)
(0.85397144 2.5303462 -1.3647442e-19)
(0.85531446 2.482206 1.0922242e-19)
(0.74387978 2.5556177 0)
(0.84467288 2.5439522 0)
(0.79982564 2.5687653 -4.4674284e-19)
(0.79941946 2.5574988 0)
(0.92169406 1.5080008 0)
(0.70363003 1.169916 -9.0295636e-19)
(0.81779766 1.2352413 -5.4500278e-20)
(0.74786475 1.337656 0)
(0.72372827 1.2672695 1.3783127e-18)
(1.1851658 1.2840857 -2.0085962e-19)
(1.1663589 1.4396487 0)
(1.1868968 1.3888048 2.9034314e-19)
(0.9867031 1.4570988 0)
(0.99859994 1.3239233 0)
(1.2376846 2.782674 -4.0042241e-19)
(1.1983074 2.8213666 -2.9851087e-19)
(0.98872794 2.3168488 5.2320011e-19)
(0.99034895 2.3503248 -1.7187893e-19)
(1.2111638 2.7708298 0)
(1.1695034 2.7246493 2.1784759e-19)
(1.1924334 2.6076273 -3.815833e-19)
(1.1088503 2.4584555 -2.6881083e-20)
(0.67003894 1.6283867 0)
(0.6946035 1.4489402 -2.5573045e-19)
(0.81644355 1.6204057 0)
(1.0675595 0.22488521 0)
(0.68041971 0.1139714 0)
(0.48653041 0.082786639 0)
(1.0498539 0.22683687 -1.0156429e-18)
(0.73005889 0.14875993 5.8622352e-19)
(0.99412198 0.047327295 -5.062349e-19)
(1.1171754 0.10435817 0)
(1.0997015 0.10952151 2.2373012e-19)
(0.80203653 0.027738807 8.9712414e-19)
(0.70294107 0.019207315 -5.6652987e-19)
(1.299255 3.4251761 -2.3308145e-19)
(1.2859923 3.3582005 0)
(1.3173629 3.3820405 -5.7830089e-19)
(0.51675568 3.4903381 5.3839824e-19)
(0.7506454 3.0246136 -4.1232806e-19)
(0.64732749 0.98898227 1.0472983e-18)
(0.5994782 1.0265308 0)
(0.43966166 0.42553806 -2.7162677e-19)
(0.61321435 0.83394213 1.5062417e-18)
(0.65741221 0.40580158 -3.5500787e-19)
(0.58457074 0.57588803 4.1666585e-19)
(0.78677648 0.5854426 8.5825822e-19)
(0.88596245 0.64107328 0)
(0.83420638 0.71136788 0)
(0.72689389 0.62878474 0)
(1.5595845 0.87978621 7.5848071e-20)
(1.4329609 0.78835599 -8.1528339e-19)
(1.4447296 0.8400342 6.0814935e-19)
(1.5103482 0.74107392 -6.1074834e-19)
(1.6536579 0.74450719 0)
(1.6605491 0.81563883 -1.3664941e-19)
(1.0885776 0.47124451 -1.3911146e-18)
(1.1255435 0.46650134 -1.6502916e-18)
(1.0046993 0.41275864 1.0897559e-18)
(1.0010563 0.37730379 -1.101501e-18)
(1.0748754 0.33888452 -8.5405888e-19)
(0.96850501 0.31738195 1.0601755e-18)
(1.9207408 0.048303971 -5.230787e-19)
(1.9512097 0.051423299 1.0570032e-18)
(1.6953087 0.04852162 6.5258711e-19)
(1.7127764 0.05506212 -7.7633152e-19)
(1.8084209 0.066686977 0)
(1.954935 0.066050847 -1.3603445e-18)
(0.084226736 2.123464 1.4343158e-20)
(0.07668452 2.0700108 0)
(0.122058 2.1151118 2.0943989e-19)
(0.13906532 2.1061058 -1.9150099e-19)
(0.11950071 2.0353443 9.130008e-21)
(0.10302331 2.0273702 0)
(-0.003846262 2.0987205 0)
(-0.008913854 1.9134825 7.7349618e-21)
(-0.0082153755 1.8796227 -6.9986177e-21)
(-0.017354568 1.9725911 4.7251471e-21)
(-0.014243952 2.2345788 1.0954713e-20)
(-0.01362101 2.2570956 -5.0949499e-22)
(0.68281744 1.6875902 -6.0147411e-19)
(0.63734158 1.7074812 6.3497413e-19)
(0.63853 1.8413057 -5.6212624e-20)
(0.60590989 1.699238 2.0774497e-20)
(0.89612179 1.8351029 0)
(0.76480963 1.9413448 2.010408e-19)
(0.82214875 1.9333105 -1.9517963e-19)
(0.70157235 1.8834907 5.5805228e-20)
(0.75279856 1.7580014 0)
(0.81982663 1.7331178 0)
(0.71169438 2.4766056 8.5157277e-19)
(0.70911923 2.5504215 1.5263931e-18)
(0.75525395 2.5465858 -1.0966243e-18)
(0.62786567 2.5577531 -2.2635421e-19)
(0.61660635 2.6045825 3.7816832e-19)