/*--------------------------------*- C++ -*----------------------------------*\
  =========                 |
  \\      /  F ield         | OpenFOAM: The Open Source CFD Toolbox
   \\    /   O peration     | Website:  https://openfoam.org
    \\  /    A nd           | Version:  9
     \\/     M anipulation  |
\*---------------------------------------------------------------------------*/
FoamFile
{
    format      ascii;
    class       volScalarField;
    location    "0.12";
    object      alpha.phase1;
}
// * * * * * * * * * * * * * * * * * * * * * * * * * * * * * * * * * * * * * //

dimensions      [0 0 0 0 0 0 0];

internalField   nonuniform List<scalar> 
10000
(
2.2325296e-114
2.2874916e-114
1.7788295e-111
6.1722801e-109
1.6582634e-106
3.6261814e-104
6.6727603e-102
1.058283e-99
1.4728008e-97
1.8239504e-95
2.032704e-93
2.0574225e-91
1.9059288e-89
1.6265993e-87
1.2862883e-85
9.4732392e-84
6.5277559e-82
4.2264825e-80
2.5815359e-78
1.4932059e-76
8.2094341e-75
4.3058061e-73
2.1625134e-71
1.0439826e-69
4.8642362e-68
2.1967978e-66
9.6588434e-65
4.1558869e-63
1.773034e-61
7.6960739e-60
3.4100124e-58
1.4710082e-56
5.9106754e-55
2.179612e-53
7.3300101e-52
2.2289824e-50
6.0650774e-49
1.460168e-47
3.0741331e-46
5.5679895e-45
8.4716419e-44
1.0641721e-42
1.1110458e-41
9.6987965e-41
6.8134973e-40
3.7332521e-39
1.6405363e-38
5.7658353e-38
1.527355e-37
3.0910863e-37
3.0727876e-37
1.5102583e-37
5.5785568e-38
1.5339842e-38
3.1859504e-39
4.8872614e-40
4.6937178e-41
2.1719661e-42
3.7847029e-44
1.7366947e-46
6.6944212e-49
8.8260329e-51
1.0426566e-52
1.1447367e-54
1.204665e-56
1.2398632e-58
1.2733267e-60
2.3685381e-62
1.0995338e-62
1.0790735e-62
4.4682506e-63
4.1187483e-64
8.9312153e-66
1.56098e-67
3.6262739e-69
8.6971838e-71
1.991023e-72
4.3388922e-74
9.0111624e-76
1.7802148e-77
3.3367641e-79
5.9177124e-81
9.9012929e-83
1.5579826e-84
2.2975404e-86
3.1632936e-88
4.0489916e-90
4.7951438e-92
5.2254976e-94
5.2067336e-96
4.7081634e-98
3.8288169e-100
2.7695156e-102
1.7573162e-104
9.6085609e-107
4.4208405e-109
1.6556942e-111
4.8023069e-114
6.376919e-117
6.0776429e-117
2.2325296e-114
1.9717837e-112
1.4025521e-109
6.5454018e-107
2.0738249e-104
5.0519433e-102
1.0047806e-99
1.6918897e-97
2.471869e-95
3.1898301e-93
3.6857445e-91
3.8543543e-89
3.6804361e-87
3.2326305e-85
2.6283215e-83
1.9891835e-81
1.4082666e-79
9.3678651e-78
5.8795764e-76
3.4953343e-74
1.9755536e-72
1.0654126e-70
5.5025046e-69
2.7315602e-67
1.3083994e-65
6.0717983e-64
2.7412677e-62
1.2101197e-60
5.2901471e-59
2.3378656e-57
1.0471488e-55
4.5666149e-54
1.8548609e-52
6.9036991e-51
2.3383453e-49
7.1476333e-48
1.9524687e-46
4.7115202e-45
9.9066862e-44
1.785359e-42
2.705068e-41
3.3806122e-40
3.4362515e-39
2.7949187e-38
1.7175736e-37
7.0808147e-37
1.8262983e-36
3.4040777e-36
6.2941104e-36
9.7232729e-36
9.7184201e-36
6.288238e-36
3.4064977e-36
1.7824592e-36
6.6888315e-37
1.4064393e-37
1.446323e-38
7.2313056e-40
1.4005172e-41
9.2761931e-44
1.0551887e-46
6.6939387e-49
8.8253251e-51
1.0425689e-52
1.1446397e-54
1.2045671e-56
1.2398345e-58
1.2733267e-60
2.3685381e-62
1.0995338e-62
7.4783761e-61
2.0502682e-61
7.9448011e-63
8.2685218e-65
1.2683194e-66
2.7673457e-68
6.0762434e-70
1.2686039e-71
2.5307015e-73
4.8225965e-75
8.7449138e-77
1.5033748e-78
2.4418085e-80
3.7336419e-82
5.3536833e-84
7.169053e-86
8.9232465e-88
1.0268996e-89
1.085956e-91
1.0477693e-93
9.1431861e-96
7.1403948e-98
4.9233638e-100
2.9445846e-102
1.4908018e-104
6.1621729e-107
1.9584572e-109
4.2629651e-112
6.5082915e-115
6.0776429e-117
9.1788704e-113
2.8249666e-110
2.0404101e-107
8.852864e-105
2.9757349e-102
7.9176437e-100
1.6637957e-97
2.9120044e-95
4.3811935e-93
5.7889553e-91
6.823182e-89
7.2596094e-87
7.0398238e-85
6.2708725e-83
5.1652142e-81
3.9569461e-79
2.8336453e-77
1.9054986e-75
1.2082774e-73
7.2532365e-72
4.1372794e-70
2.2504425e-68
1.1715287e-66
5.8579596e-65
2.8241248e-63
1.3179241e-61
5.9781676e-60
2.6496312e-58
1.1612279e-56
5.1235099e-55
2.2899642e-53
1.0040718e-51
4.0998143e-50
1.5293688e-48
5.1800301e-47
1.5797264e-45
4.2956854e-44
1.0297388e-42
2.1466899e-41
3.8287121e-40
5.7314403e-39
7.0663267e-38
7.0799776e-37
5.6827226e-36
3.4704056e-35
1.4451839e-34
3.8313271e-34
7.3219489e-34
1.3522273e-33
2.1830602e-33
2.1814986e-33
1.3505648e-33
7.319707e-34
3.7415469e-34
1.3686445e-34
2.8739495e-35
3.0677704e-36
1.6678049e-37
3.799174e-39
3.2438893e-41
5.829488e-44
2.1477459e-46
2.9615907e-48
3.6784921e-50
4.2423317e-52
4.6716605e-54
5.0048366e-56
5.2740042e-58
5.5109367e-60
8.0717301e-58
4.3151559e-58
4.2769585e-59
8.7865782e-61
1.3252999e-62
2.7286661e-64
6.1949657e-66
1.3666363e-67
2.8647499e-69
5.7208141e-71
1.0879274e-72
1.9644345e-74
3.3576187e-76
5.4152038e-78
8.2127589e-80
1.1668433e-81
1.5466178e-83
1.9033951e-85
2.1629834e-87
2.2551878e-89
2.1409766e-91
1.8333131e-93
1.3994535e-95
9.3768565e-98
5.3985082e-100
2.58811e-102
9.7947039e-105
3.156487e-107
7.6076755e-110
1.106489e-112
3.2107443e-115
1.9239688e-110
3.1603927e-108
2.6539275e-105
1.1873041e-102
3.7421014e-100
9.3987218e-98
2.0880707e-95
3.8700623e-93
6.0632291e-91
8.2644167e-89
9.9893292e-87
1.0857279e-84
1.0725769e-82
9.7138872e-81
8.1229391e-79
6.3098975e-77
4.5772731e-75
3.1152508e-73
1.9977072e-71
1.2118179e-69
6.979447e-68
3.830346e-66
2.0100824e-64
1.0122546e-62
4.9098231e-61
2.3026937e-59
1.0485451e-57
4.6599474e-56
2.0440418e-54
8.9930806e-53
3.9998344e-51
1.7521544e-49
7.1669699e-48
2.6744931e-46
9.0390715e-45
2.74436e-43
7.4136151e-42
1.7619117e-40
3.634521e-39
6.4021429e-38
9.4463351e-37
1.1455135e-35
1.127118e-34
8.8894317e-34
5.3640827e-33
2.2333215e-32
5.980598e-32
1.1487159e-31
2.0942724e-31
3.4524952e-31
3.4499856e-31
2.0917096e-31
1.1480741e-31
5.8462037e-32
2.1209862e-32
4.4915343e-33
4.9937298e-34
2.9475229e-35
7.8194805e-37
8.3934144e-39
2.0286246e-41
5.35133e-44
7.6732694e-46
9.9787625e-48
1.2056749e-49
1.3876408e-51
1.5479882e-53
1.6913539e-55
1.8199873e-57
3.7204284e-55
1.3914201e-55
9.4412002e-57
1.5026087e-58
2.3980145e-60
5.2318368e-62
1.1918682e-63
2.6091088e-65
5.4335774e-67
1.0779846e-68
2.0348221e-70
3.6439361e-72
6.1718009e-74
9.8553819e-76
1.478604e-77
2.0762226e-79
2.7168457e-81
3.2966483e-83
3.6879185e-85
3.7774725e-87
3.5130703e-89
2.9352976e-91
2.1732885e-93
1.3990692e-95
7.6085556e-98
3.4378323e-100
1.5028293e-102
5.0059961e-105
1.1572637e-107
1.5069677e-110
7.4211261e-113
3.2641548e-108
2.7535554e-106
2.8977118e-103
1.3722744e-100
4.4596751e-98
1.1197163e-95
2.2914692e-93
4.089914e-91
6.8096026e-89
9.6867069e-87
1.2099624e-84
1.3508253e-82
1.3651388e-80
1.2611084e-78
1.0733362e-76
8.4715705e-75
6.2353123e-73
4.3005403e-71
2.7916253e-69
1.7123501e-67
9.9615653e-66
5.5159219e-64
2.9171795e-62
1.478661e-60
7.209243e-59
3.3937161e-57
1.5487443e-55
6.8870028e-54
3.016035e-52
1.3200548e-50
5.8239743e-49
2.537985e-47
1.0365518e-45
3.8595753e-44
1.2986938e-42
3.9173206e-41
1.0491962e-39
2.4674497e-38
5.0273548e-37
8.729727e-36
1.2668652e-34
1.5070574e-33
1.4515104e-32
1.1206857e-31
6.6526762e-31
2.7522162e-30
7.3828342e-30
1.4153345e-29
2.5427167e-29
4.2424656e-29
4.2393466e-29
2.5396322e-29
1.4142749e-29
7.2234548e-30
2.6203633e-30
5.6265847e-31
6.519445e-32
4.1878924e-33
1.2794214e-34
1.6589987e-36
5.5634765e-39
1.0678301e-41
1.5888334e-43
2.1604524e-45
2.734174e-47
3.2912219e-49
3.8287904e-51
4.3477093e-53
4.863989e-55
1.0142786e-52
3.4338331e-53
1.9907936e-54
2.547984e-56
3.8945933e-58
8.7206987e-60
1.9836102e-61
4.2958188e-63
8.8693579e-65
1.7459934e-66
3.2682576e-68
5.7990515e-70
9.7228715e-72
1.5354206e-73
2.2756457e-75
3.1527449e-77
4.0645561e-79
4.8505252e-81
5.3246658e-83
5.3359254e-85
4.8347471e-87
3.911364e-89
2.7763057e-91
1.6821955e-93
9.4799782e-96
5.1251957e-98
2.1535638e-100
6.8063438e-103
1.5072851e-105
1.6931162e-108
1.4030493e-110
4.653675e-106
1.6904515e-104
2.6969303e-101
1.3750192e-98
4.6084679e-96
1.1815226e-93
2.4705531e-91
4.2724188e-89
6.3941903e-87
9.454534e-85
1.2362226e-82
1.4294173e-80
1.4865288e-78
1.4069923e-76
1.2230815e-74
9.8359774e-73
7.3619028e-71
5.1547297e-69
3.3918026e-67
2.1058428e-65
1.2382395e-63
6.9198305e-62
3.6878908e-60
1.8807122e-58
9.2095342e-57
4.3463418e-55
1.9846714e-53
8.8124795e-52
3.8431549e-50
1.6683033e-48
7.2725017e-47
3.1380581e-45
1.2762181e-43
4.7314814e-42
1.5816118e-40
4.7298288e-39
1.2535646e-37
2.9119732e-36
5.8500261e-35
9.9966587e-34
1.4240856e-32
1.657703e-31
1.5578598e-30
1.1731606e-29
6.8237407e-29
2.791511e-28
7.4564375e-28
1.4197102e-27
2.5100383e-27
4.2140945e-27
4.2109693e-27
2.5070238e-27
1.4184414e-27
7.3015434e-28
2.6638116e-28
5.8235955e-29
7.0383878e-30
4.9295572e-31
1.7290005e-32
2.632194e-34
1.2061224e-36
1.75769e-39
2.7096936e-41
3.8488286e-43
5.1024434e-45
6.4297821e-47
7.8135577e-49
9.2443416e-51
1.0893152e-52
2.0194617e-50
6.3473573e-51
3.3011479e-52
3.8631988e-54
5.8446277e-56
1.3115889e-57
2.96077e-59
6.3443438e-61
1.2970992e-62
2.5286875e-64
4.6841846e-66
8.2173665e-68
1.360777e-69
2.1199681e-71
3.0955543e-73
4.2187385e-75
5.3400851e-77
6.2420797e-79
6.690669e-81
6.517981e-83
5.7038667e-85
4.4096158e-87
2.9808333e-89
2.0169273e-91
1.3033534e-93
6.6283728e-96
2.6480962e-98
8.1658158e-101
1.713398e-103
1.5304634e-106
2.255799e-108
5.7094214e-104
3.342449e-103
2.1233843e-99
1.1992796e-96
4.1862146e-94
1.0960212e-91
2.3294704e-89
4.1841403e-87
6.3471119e-85
8.3090105e-83
1.0667532e-80
1.296233e-78
1.3997614e-76
1.3661372e-74
1.2187876e-72
1.0023956e-70
7.6518967e-69
5.4518671e-67
3.6427275e-65
2.2921151e-63
1.3634185e-61
7.6935104e-60
4.1321582e-58
2.1194244e-56
1.0416163e-54
4.9225965e-53
2.2456179e-51
9.9364875e-50
4.3047237e-48
1.8479005e-46
7.9311873e-45
3.3758095e-43
1.3634681e-41
5.0223255e-40
1.6642364e-38
4.9245485e-37
1.2892141e-35
2.9532253e-34
5.8410411e-33
9.8083689e-32
1.3693052e-30
1.5560796e-29
1.422348e-28
1.0407963e-27
5.9087101e-27
2.3807046e-26
6.3039202e-26
1.1877348e-25
2.0643863e-25
3.4728219e-25
3.4702463e-25
2.0619364e-25
1.1865484e-25
6.1777877e-26
2.2765248e-26
5.0841038e-27
6.4186576e-28
4.9112879e-29
1.9648648e-30
3.4096344e-32
2.0182548e-34
3.9445813e-37
3.8905641e-39
5.7700776e-41
8.0178077e-43
1.0592573e-44
1.3473954e-46
1.6658556e-48
2.1715411e-50
3.6651835e-48
9.0275282e-49
3.3165546e-50
3.9659327e-52
7.3043417e-54
1.6969347e-55
3.8445859e-57
8.2460695e-59
1.6823139e-60
3.2623964e-62
5.9958815e-64
1.04124e-65
1.7033465e-67
2.6159772e-69
3.7573214e-71
5.0247553e-73
6.2235846e-75
7.0927945e-77
7.3763315e-79
6.9227759e-81
5.7656977e-83
4.505567e-85
3.4889129e-87
2.5479846e-89
1.5324001e-91
7.4241864e-94
2.9090515e-96
8.6890645e-99
1.6926233e-101
9.8764229e-105
3.1863129e-106
6.1124627e-102
1.1296426e-101
1.3893494e-97
9.1026341e-95
3.3482008e-92
9.0258057e-90
1.9519907e-87
3.557954e-85
5.6211271e-83
7.6326499e-81
8.9487344e-79
1.016439e-76
1.1405244e-74
1.1596584e-72
1.0692646e-70
9.0411414e-69
7.0673019e-67
5.1396726e-65
3.4956659e-63
2.2333652e-61
1.3456448e-59
7.6732071e-58
4.1546834e-56
2.142999e-54
1.0564371e-52
4.994576e-51
2.2729704e-49
1.000354e-47
4.2953059e-46
1.8187769e-44
7.6621137e-43
3.2025575e-41
1.2805399e-39
4.6759741e-38
1.5329214e-36
4.4800617e-35
1.1565789e-33
2.608905e-32
5.0739784e-31
8.3633654e-30
1.1426629e-28
1.2649651e-27
1.1209908e-26
7.938539e-26
4.3809551e-25
1.7324457e-24
4.5320731e-24
8.4258037e-24
1.4384434e-23
2.4160861e-23
2.4143085e-23
1.4367667e-23
8.4167249e-24
4.4446788e-24
1.6598373e-24
3.7978241e-25
5.0213203e-26
4.1844454e-27
1.8739199e-28
3.6219906e-30
2.7082999e-32
7.0669156e-35
4.7772593e-37
7.39788e-39
1.0784097e-40
1.4964341e-42
1.9978055e-44
2.5949438e-46
4.4643956e-48
9.4142559e-46
1.490465e-46
2.8778038e-48
3.8337327e-50
8.5642664e-52
2.0295728e-53
4.5867939e-55
9.8221606e-57
1.9957671e-58
3.8431025e-60
6.9949797e-62
1.2000549e-63
1.934672e-65
2.9206924e-67
4.1121902e-69
5.3732731e-71
6.4764062e-73
7.1439568e-75
7.1341185e-77
6.3552641e-79
5.6489817e-81
4.9411624e-83
4.0161063e-85
2.7830595e-87
1.5819796e-89
7.4739717e-92
2.8589159e-94
8.1842893e-97
1.442648e-99
2.0023574e-103
3.9930793e-104
5.7504298e-100
9.4053983e-100
7.2590357e-96
6.0401957e-93
2.3768629e-90
6.6460869e-88
1.4729348e-85
2.7288199e-83
4.3735937e-81
6.1849918e-79
7.6131702e-77
8.162726e-75
8.428648e-73
8.631759e-71
8.3233969e-69
7.290658e-67
5.8683266e-65
4.3743958e-63
3.0380241e-61
1.9754183e-59
1.2076006e-57
6.9659282e-56
3.8042928e-54
1.9733158e-52
9.7529373e-51
4.6083108e-49
2.08917e-47
9.1282576e-46
3.876226e-44
1.6151061e-42
6.6537532e-41
2.7151798e-39
1.0674103e-37
3.8515108e-36
1.2470664e-34
3.5937763e-33
9.1358715e-32
2.0268358e-30
3.8726051e-29
6.2610343e-28
8.3636343e-27
9.0020318e-26
7.7082724e-25
5.2591593e-24
2.808481e-23
1.0863561e-22
2.7993171e-22
5.1206509e-22
8.5747034e-22
1.4334145e-21
1.4323714e-21
8.5649417e-22
5.1148227e-22
2.7472542e-22
1.0427094e-22
2.4514821e-23
3.4067134e-24
3.0916056e-25
1.5312228e-26
3.2503482e-28
3.0028813e-30
9.7752224e-33
5.0801725e-35
8.2108883e-37
1.2564836e-38
1.8350808e-40
2.5806898e-42
3.5661597e-44
5.7287195e-43
2.482435e-43
1.6223191e-44
2.31653e-46
4.0418522e-48
9.5889689e-50
2.2672192e-51
5.0875443e-53
1.082091e-54
2.1806413e-56
4.1554906e-58
7.4677521e-60
1.2618317e-61
1.9981133e-63
2.9538267e-65
4.0577365e-67
5.1498645e-69
5.9925834e-71
6.3210397e-73
6.2308528e-75
6.1137669e-77
5.8367869e-79
5.206454e-81
4.0801562e-83
2.6557432e-85
1.4610519e-87
6.7552123e-90
2.5028875e-92
6.7862566e-95
1.0349064e-97
8.2017784e-102
4.4738298e-102
4.8440594e-98
7.1377347e-98
2.5253998e-94
3.4023716e-91
1.4668735e-88
4.2905371e-86
9.8030474e-84
1.8584281e-81
3.0274937e-79
4.3478727e-77
5.5878545e-75
6.3469979e-73
6.3474097e-71
6.0105055e-69
5.6453772e-67
5.1829985e-65
4.3339094e-63
3.3325662e-61
2.3748187e-59
1.5774008e-57
9.8107584e-56
5.7364876e-54
3.1643029e-52
1.6519654e-50
8.1882247e-49
3.8659999e-47
1.7447327e-45
7.5589787e-44
3.1690863e-42
1.2968237e-40
5.2136035e-39
2.0674323e-37
7.9427091e-36
2.8238233e-34
9.0152082e-33
2.5577414e-31
6.3944982e-30
1.3939284e-28
2.6149724e-27
4.1457945e-26
5.4119793e-25
5.6540575e-24
4.6616301e-23
3.0478408e-22
1.5658449e-21
5.9012835e-21
1.4927116e-20
2.6749932e-20
4.3813948e-20
7.2948315e-20
7.289568e-20
4.3765468e-20
2.67182e-20
1.4658871e-20
5.6737914e-21
1.3755404e-21
2.0206407e-22
2.0026553e-23
1.088168e-24
2.5063047e-26
2.8167497e-28
1.2853193e-30
4.7160014e-33
7.955368e-35
1.2788034e-36
1.9703425e-38
2.9352184e-40
4.4768408e-42
1.0651279e-40
3.2724805e-41
1.5664719e-42
2.1229689e-44
4.0442029e-46
9.7666359e-48
2.3070563e-49
5.1573308e-51
1.0906455e-52
2.1794062e-54
4.1060173e-56
7.2725028e-58
1.2070918e-59
1.8705637e-61
2.6945999e-63
3.5881349e-65
4.3833399e-67
4.8529756e-69
5.2446857e-71
5.6490915e-73
5.837311e-75
5.6542208e-77
4.9044573e-79
3.57886e-81
2.2373554e-83
1.2052499e-85
5.4216004e-88
1.9298949e-90
4.8792997e-93
5.9051431e-96
7.3503141e-100
4.4965092e-100
3.5873191e-96
4.8660367e-96
1.4960745e-93
1.5710286e-89
7.7308675e-87
2.3960012e-84
5.6819547e-82
1.1082081e-79
1.8480064e-77
2.7020323e-75
3.533424e-73
4.1834533e-71
4.4400875e-69
4.2029356e-67
3.7411998e-65
3.2770001e-63
2.817297e-61
2.2577275e-59
1.6623708e-57
1.1337885e-55
7.2028911e-54
4.2814816e-52
2.390247e-50
1.2575466e-48
6.255145e-47
2.9511644e-45
1.3251934e-43
5.6870982e-42
2.3506031e-40
9.430371e-39
3.6920685e-37
1.4171653e-35
5.2939831e-34
1.8494707e-32
5.813533e-31
1.6215564e-29
3.9823842e-28
8.5234663e-27
1.5696073e-25
2.4409829e-24
3.1143946e-23
3.1540211e-22
2.4941613e-21
1.5517166e-20
7.6056413e-20
2.7864185e-19
6.9476044e-19
1.2259266e-18
1.9728685e-18
3.2920976e-18
3.2897102e-18
1.9707259e-18
1.2243853e-18
6.826895e-19
2.6832345e-19
6.719085e-20
1.0533754e-20
1.146016e-21
6.7748442e-23
1.6735917e-24
2.2499031e-26
1.5028461e-28
6.0625224e-31
6.7738071e-33
1.1443244e-34
1.8660697e-36
2.9788331e-38
5.5992202e-40
1.8097322e-38
3.6275055e-39
1.0384104e-40
1.5313539e-42
3.5391508e-44
8.8624443e-46
2.1065288e-47
4.7174728e-49
9.955403e-51
1.9764931e-52
3.6827303e-54
6.421269e-56
1.0441412e-57
1.5767595e-59
2.1993533e-61
2.8111534e-63
3.3207459e-65
3.8721389e-67
4.4770982e-69
4.9568091e-71
5.173542e-73
4.8959445e-75
3.9411014e-77
2.7471416e-79
1.6799082e-81
8.8169206e-84
3.829526e-86
1.2974878e-88
2.9894185e-91
2.309062e-94
5.974861e-98
4.0201344e-98
2.3139044e-94
2.956321e-94
4.8189627e-92
5.6167407e-88
3.4179734e-85
1.1423301e-82
2.8344306e-80
5.7174697e-78
9.8037145e-76
1.4686436e-73
1.9593677e-71
2.3654159e-69
2.6122451e-67
2.6240564e-65
2.3775554e-63
2.0078828e-61
1.6558834e-59
1.3432994e-57
1.0335931e-55
7.2910247e-54
4.7562657e-52
2.885331e-50
1.6349836e-48
8.6865325e-47
4.3419674e-45
2.0487467e-43
9.1567466e-42
3.8919688e-40
1.5851042e-38
6.2296418e-37
2.3737632e-35
8.8080756e-34
3.1806524e-32
1.0854339e-30
3.3512301e-29
9.178224e-28
2.2119521e-26
4.6455153e-25
8.3990638e-24
1.2825684e-22
1.6007529e-21
1.5696959e-20
1.1856936e-19
6.9720185e-19
3.2418454e-18
1.1679166e-17
2.9962516e-17
5.5185574e-17
9.0385575e-17
1.4417872e-16
1.4407568e-16
9.0276954e-17
5.5105377e-17
2.9471193e-17
1.1263587e-17
2.8787919e-18
4.8540644e-19
5.8351992e-20
3.7303095e-21
9.7595763e-23
1.4908726e-24
1.3961127e-26
7.2105758e-29
5.0881741e-31
9.0440763e-33
1.5716004e-34
2.7686341e-36
9.0608104e-36
4.5081891e-36
3.2132442e-37
5.824069e-39
1.2076309e-40
3.1052801e-42
7.8083997e-44
1.8482489e-45
4.1138452e-47
8.598115e-49
1.6838024e-50
3.0810055e-52
5.2497128e-54
8.294414e-56
1.2085949e-57
1.6100293e-59
2.0243586e-61
2.5161729e-63
3.0756156e-65
3.6085511e-67
4.0223364e-69
4.10154e-71
3.5919904e-73
2.7486979e-75
1.8703342e-77
1.1138927e-79
5.6523251e-82
2.3531934e-84
7.4910623e-87
1.5102207e-89
1.8180567e-93
4.3683715e-96
3.1753713e-96
1.2823566e-92
1.5661969e-92
2.0499307e-90
1.3650421e-86
1.2572072e-83
4.6566959e-81
1.2221701e-78
2.5661685e-76
4.5446567e-74
7.0020487e-72
9.5835287e-70
1.1833624e-67
1.3362553e-65
1.3925191e-63
1.331436e-61
1.1571688e-59
9.3834951e-58
7.3951448e-56
5.7165167e-54
4.2140378e-52
2.842927e-50
1.768735e-48
1.0207219e-46
5.4886862e-45
2.7607974e-43
1.3036749e-41
5.799849e-40
2.4406028e-38
9.7864521e-37
3.7644646e-35
1.3944896e-33
4.9884637e-32
1.7294813e-30
5.7154844e-29
1.7276292e-27
4.6419625e-26
1.0966016e-24
2.2587313e-23
4.0114971e-22
6.025326e-21
7.3672806e-20
6.9931373e-19
5.0464259e-18
2.8262521e-17
1.2674777e-16
4.5213779e-16
1.2237431e-15
2.43597e-15
4.0056721e-15
5.3602635e-15
5.3571657e-15
3.9998305e-15
2.4321842e-15
1.2057573e-15
4.3679647e-16
1.1372653e-16
2.0300298e-17
2.6744253e-18
1.8371044e-19
5.0210626e-21
8.2901038e-23
1.0200466e-24
9.2203059e-27
6.3639075e-29
6.3385138e-31
1.1956299e-32
2.5152283e-34
2.2826278e-33
5.6806903e-34
2.2857757e-35
4.0040305e-37
9.5560091e-39
2.5196125e-40
6.3407793e-42
1.4984347e-43
3.316172e-45
6.8572811e-47
1.3217058e-48
2.3666143e-50
3.9197085e-52
5.9710292e-54
8.2864495e-56
1.0970971e-57
1.4372076e-59
1.8407036e-61
2.2682033e-63
2.676471e-65
2.9216384e-67
2.7585077e-69
2.2878979e-71
1.7048123e-73
1.1286261e-75
6.4974035e-78
3.1670878e-80
1.2524558e-82
3.6778073e-85
6.0002864e-88
5.1514373e-92
2.8604036e-94
2.1973217e-94
6.1607081e-91
7.2384926e-91
7.6873368e-89
7.4725094e-86
3.5566072e-82
1.5493836e-79
4.3836314e-77
9.6731579e-75
1.7812543e-72
2.8372539e-70
4.0038268e-68
5.090417e-66
5.9078211e-64
6.3283605e-62
6.3123283e-60
5.8394133e-58
4.9362021e-56
3.8732995e-54
2.943731e-52
2.1731566e-50
1.5220244e-48
9.7793077e-47
5.7736635e-45
3.1517828e-43
1.5983912e-41
7.5617255e-40
3.3500179e-38
1.3954988e-36
5.5058229e-35
2.0714065e-33
7.4505401e-32
2.5647173e-30
8.4986751e-29
2.7020203e-27
7.9667307e-26
2.0966275e-24
4.849392e-23
9.789558e-22
1.7085017e-20
2.5298862e-19
3.0451414e-18
2.8215999e-17
1.9642747e-16
1.0512918e-15
4.4619432e-15
1.3814848e-14
3.1369969e-14
5.3732241e-14
7.966019e-14
9.6674997e-14
9.6638217e-14
7.9560821e-14
5.3678724e-14
3.091183e-14
1.3374604e-14
4.0806004e-15
7.8849706e-16
1.1327859e-16
8.2921492e-18
2.3256533e-19
3.9085038e-21
5.4328018e-23
7.110232e-25
8.1504262e-27
7.8467225e-29
1.0205593e-30
5.5714432e-31
3.887731e-31
3.9693482e-32
9.9554288e-34
2.3826167e-35
6.659412e-37
1.7973975e-38
4.5499047e-40
1.0780792e-41
2.3793215e-43
4.8752723e-45
9.2463174e-47
1.616283e-48
2.5884049e-50
3.7716974e-52
5.2498411e-54
7.2080749e-56
9.6376896e-58
1.2419619e-59
1.5426823e-61
1.780186e-63
1.7899264e-65
1.5913795e-67
1.2819921e-69
9.2786329e-72
5.929129e-74
3.2779915e-76
1.5232061e-78
5.6491464e-81
1.484827e-83
1.5982768e-86
2.3818023e-90
1.6514309e-92
1.3291676e-92
2.5002028e-89
2.851883e-89
2.5280561e-87
1.4927043e-84
6.2994366e-81
3.8926252e-78
1.2362747e-75
2.9189536e-73
5.6505819e-71
9.375631e-69
1.3725973e-66
1.8087134e-64
2.1774024e-62
2.4205758e-60
2.5057578e-58
2.4310949e-56
2.200586e-54
1.8293818e-52
1.4052518e-50
1.030988e-48
7.2626526e-47
4.8192758e-45
2.9314782e-43
1.6322435e-41
8.3744256e-40
3.9790639e-38
1.7586214e-36
7.2614012e-35
2.8215364e-33
1.0388018e-31
3.6289062e-30
1.2033208e-28
3.8081206e-27
1.1542103e-25
3.2841905e-24
8.4361949e-23
1.9091097e-21
3.7719623e-20
6.46622e-19
9.4992572e-18
1.1469362e-16
1.0526681e-15
6.8228235e-15
2.9840797e-14
9.4092864e-14
2.1349863e-13
3.1751072e-13
3.7788275e-13
4.9575389e-13
6.3684666e-13
6.3667061e-13
4.9556762e-13
3.7793118e-13
3.1196079e-13
2.0699764e-13
8.5816914e-14
2.3342607e-14
4.3563785e-15
3.594784e-16
9.9894551e-18
1.6115546e-19
2.312639e-21
3.520115e-23
5.8985712e-25
1.0499963e-26
1.8226945e-28
2.4841635e-28
5.8100229e-29
2.5967275e-30
5.6955083e-32
1.5610992e-33
4.5353213e-35
1.2363639e-36
3.1356526e-38
7.397697e-40
1.616311e-41
3.2576638e-43
6.0293925e-45
1.0181473e-46
1.5639893e-48
2.2758797e-50
3.2337056e-52
4.4614233e-54
5.9486369e-56
7.694524e-58
9.3343973e-60
9.9189711e-62
9.3398051e-64
8.0207632e-66
6.2503607e-68
4.3504181e-70
2.6613933e-72
1.3994903e-74
6.1157909e-77
2.0766761e-79
4.545901e-82
9.9294104e-86
9.8817702e-89
8.2419918e-91
6.8923536e-91
8.3089863e-88
9.2864923e-88
7.1397858e-86
4.0703846e-83
2.4838648e-80
5.9198874e-77
2.455196e-74
6.5154371e-72
1.3576219e-69
2.3853038e-67
3.6681601e-65
5.0701236e-63
6.4145963e-61
7.521078e-59
8.2350156e-57
8.4463214e-55
8.1200446e-53
7.2608162e-51
5.951965e-49
4.4806145e-47
3.1714863e-45
2.1275327e-43
1.3310344e-41
7.6027806e-40
3.9604352e-38
1.8945724e-36
8.367001e-35
3.4279379e-33
1.3126211e-31
4.7313718e-30
1.6061194e-28
5.1330102e-27
1.5489691e-25
4.4468869e-24
1.2099569e-22
3.0174808e-21
6.663049e-20
1.2865073e-18
2.1789844e-17
3.2429344e-16
3.9453916e-15
3.3046972e-14
1.7155076e-13
4.9070577e-13
8.2222776e-13
1.4965374e-12
1.4262029e-12
1.1061858e-12
1.2754965e-12
1.8221934e-12
1.8216749e-12
1.2768503e-12
1.1079209e-12
1.3935535e-12
1.4493428e-12
7.2788235e-13
3.9664601e-13
1.2281134e-13
1.3427744e-14
3.9659824e-16
5.8014515e-18
8.6024627e-20
1.4674087e-21
3.1335667e-23
9.1344821e-25
4.6556765e-26
2.9932076e-26
4.7821816e-27
1.5105516e-28
3.3869994e-30
1.0013061e-31
2.9645607e-33
8.1266859e-35
2.0609328e-36
4.8300583e-38
1.0406647e-39
2.0514529e-41
3.674991e-43
5.9595471e-45
9.0436096e-47
1.3230495e-48
1.8668458e-50
2.542498e-52
3.3734504e-54
4.2858278e-56
4.7891517e-58
4.7104475e-60
4.2419281e-62
3.4991878e-64
2.6012287e-66
1.7171492e-68
9.8945418e-71
4.8501548e-73
1.9287015e-75
5.5855073e-78
7.4018592e-81
2.2233459e-84
3.6661916e-87
3.5259122e-89
3.0322645e-89
2.2292326e-86
2.4701181e-86
1.8048257e-84
1.0554062e-81
4.9962495e-79
2.1198128e-76
1.5524015e-73
7.2744194e-71
1.8778897e-68
3.7490471e-66
6.3695894e-64
9.6496573e-62
1.3414203e-59
1.7368999e-57
2.1043268e-55
2.3805569e-53
2.5014166e-51
2.4292291e-49
2.1597447e-47
1.7376397e-45
1.2706379e-43
8.6249149e-42
5.4726633e-40
3.2020639e-38
1.7010202e-36
8.2141491e-35
3.6309934e-33
1.47754e-31
5.5787409e-30
1.9696693e-28
6.4987623e-27
2.001316e-25
5.7568598e-24
1.5590308e-22
3.997838e-21
9.5440221e-20
2.0434449e-18
3.8850591e-17
6.7142787e-16
1.0114049e-14
1.0663661e-13
6.8810849e-13
2.8080387e-12
6.8144261e-12
4.7106315e-12
1.1639644e-11
1.4341495e-11
1.3415059e-11
2.4685107e-11
3.5539065e-11
3.5527691e-11
2.4755265e-11
1.3453985e-11
1.3928991e-11
1.1190981e-11
4.2023962e-12
6.0469863e-12
2.27265e-12
3.0555434e-13
1.3076271e-14
1.8790931e-16
3.1459027e-18
6.8677207e-20
2.0867443e-21
1.0538094e-22
2.7212771e-23
3.8608197e-24
1.8220709e-25
5.5143743e-27
1.7770688e-28
5.7335486e-30
1.7373199e-31
4.8172067e-33
1.2241683e-34
2.8540033e-36
6.0633909e-38
1.1657082e-39
2.0161249e-41
3.2220565e-43
4.8969016e-45
7.1027996e-47
9.870227e-49
1.3327578e-50
1.7567305e-52
2.0398479e-54
2.0559824e-56
1.8962239e-58
1.6154858e-60
1.2512516e-62
8.7070848e-65
5.3653446e-67
2.8570015e-69
1.2636915e-71
4.2865111e-74
8.3517942e-77
3.970259e-80
7.1436294e-83
1.2030071e-85
1.281712e-87
1.123742e-87
4.7723391e-85
5.3383245e-85
4.4417051e-83
2.7015541e-80
1.2957365e-77
5.0893711e-75
1.6632537e-72
4.6371778e-70
1.1154194e-67
2.3530896e-65
4.3652039e-63
7.1973282e-61
1.0779861e-58
1.6249835e-56
3.0464789e-54
4.6034505e-52
5.9211675e-50
6.6350138e-48
6.5763903e-46
5.7953802e-44
4.5398007e-42
3.1867167e-40
2.0444881e-38
1.2103936e-36
6.5477732e-35
3.2028798e-33
1.4203995e-31
5.7510447e-30
2.1444557e-28
7.4293238e-27
2.3856171e-25
7.0836219e-24
1.944926e-22
4.967269e-21
1.1882408e-19
2.6642838e-18
5.5061175e-17
1.0541616e-15
1.8384629e-14
2.3760956e-13
1.7810728e-12
1.1818841e-11
8.1700119e-11
2.2244825e-10
9.7283533e-11
2.6342357e-10
2.8744962e-10
2.7231018e-10
5.9789274e-10
8.5216357e-10
8.5186239e-10
6.0048824e-10
2.7221847e-10
2.7906445e-10
2.5469502e-10
9.3891721e-11
2.1278647e-10
7.400261e-11
5.450134e-12
1.7039756e-13
5.0380349e-15
1.4391873e-16
4.6459135e-18
2.2705977e-19
2.7368857e-20
3.1312051e-21
2.0469301e-22
8.6300918e-24
3.128683e-25
1.0537751e-26
3.374039e-28
1.0377074e-29
2.8979899e-31
7.311692e-33
1.6783184e-34
3.4784951e-36
6.4554795e-38
1.0926623e-39
1.7288953e-41
2.5697259e-43
3.6005012e-45
4.8338214e-47
6.3779214e-49
7.4822111e-51
7.5412939e-53
6.883629e-55
5.8030514e-57
4.4579531e-59
3.0739175e-61
1.8726374e-63
9.768256e-66
4.0928589e-68
1.1382067e-70
1.8107119e-73
4.404057e-76
1.0736694e-78
2.1874091e-81
3.573762e-84
3.8884506e-86
3.4352152e-86
7.7204854e-84
9.1204675e-84
1.1827326e-81
7.5889648e-79
3.8079404e-76
1.5502768e-73
5.2660428e-71
1.5228644e-68
3.804273e-66
8.2977056e-64
1.5939816e-61
2.7151329e-59
4.1242025e-57
5.6130362e-55
6.8679279e-53
7.5695314e-51
8.4524662e-49
1.3781144e-46
1.6773143e-44
1.6715717e-42
1.4265391e-40
1.0613592e-38
7.0061185e-37
4.1900433e-35
2.288364e-33
1.1331408e-31
5.0543099e-30
2.0398944e-28
7.5245013e-27
2.5629518e-25
8.0225604e-24
2.2993727e-22
6.0289015e-21
1.4517383e-19
3.2262577e-18
6.7748344e-17
1.3864967e-15
2.5459779e-14
3.2261927e-13
2.4519492e-12
1.944526e-11
2.9463005e-10
2.6772305e-09
7.6443383e-09
2.9117468e-09
5.8738876e-09
6.1317598e-09
6.6415683e-09
1.3552801e-08
2.0033438e-08
2.0026179e-08
1.363951e-08
6.6309066e-09
6.0764081e-09
5.823882e-09
2.8825102e-09
7.4951318e-09
2.542295e-09
1.429308e-10
2.1719562e-13
7.6633418e-14
7.0080124e-15
3.9384052e-16
2.9210987e-17
2.8260958e-18
1.9388876e-19
9.4870011e-21
4.1684664e-22
1.6980305e-23
6.0524609e-25
1.9357348e-26
5.9310218e-28
1.6546328e-29
4.143504e-31
9.352415e-33
1.8840876e-34
3.4247929e-36
5.7273197e-38
8.8323497e-40
1.2554849e-41
1.6752137e-43
2.169756e-45
2.506525e-47
2.3970816e-49
1.9403452e-51
1.3434444e-53
7.4097374e-56
4.3694273e-58
2.7424093e-60
1.5862845e-62
8.142141e-65
3.708079e-67
1.474446e-69
5.0734394e-72
1.478961e-74
3.6133759e-77
7.1699193e-80
1.1156163e-82
9.6133551e-85
8.2817957e-85
9.0678951e-83
1.2180119e-82
2.8558128e-80
1.9568646e-77
1.0435353e-74
4.5075151e-72
1.6214886e-69
4.9520146e-67
1.3018379e-64
2.9765233e-62
5.9657752e-60
1.0546988e-57
1.6531844e-55
2.3075886e-53
2.8793225e-51
3.221893e-49
3.2358971e-47
3.0659542e-45
3.7680525e-43
4.2732538e-41
4.0745879e-39
3.2411435e-37
2.2211042e-35
1.347785e-33
7.3960745e-32
3.680578e-30
1.6504684e-28
6.6457682e-27
2.4269517e-25
8.1399679e-24
2.4868163e-22
6.878731e-21
1.7153309e-19
3.8776708e-18
8.2122988e-17
1.7490541e-15
3.4102364e-14
3.9704892e-13
2.2093773e-12
6.0934434e-12
2.3872121e-10
7.733857e-09
8.5178862e-08
2.5195718e-07
9.7549353e-08
1.3056501e-07
1.3925066e-07
1.6901627e-07
3.9322701e-07
4.2387243e-07
4.2391186e-07
3.9544222e-07
1.6868702e-07
1.3872811e-07
1.3031803e-07
9.7066718e-08
2.4979982e-07
8.3080093e-08
4.6858508e-09
5.5906444e-12
3.309581e-13
1.1372863e-13
2.2301961e-14
2.8023101e-15
1.8923569e-16
9.0891806e-18
4.3102219e-19
2.022597e-20
8.6142014e-22
3.2391395e-23
1.0718882e-24
3.2596241e-26
8.9897752e-28
2.2280682e-29
4.9338364e-31
9.7987618e-33
1.7688389e-34
2.90618e-36
4.3213407e-38
5.8604221e-40
7.4080642e-42
8.1766894e-44
6.8398563e-46
4.7643663e-48
4.6359675e-50
4.1478861e-52
3.3167295e-54
2.3708425e-56
1.5091032e-58
8.5170953e-61
4.2398839e-63
1.850241e-65
7.0218064e-68
2.2933046e-70
6.3578156e-73
1.4679343e-75
2.7452868e-78
3.998801e-81
1.9440051e-83
1.5058367e-83
7.8851455e-82
1.3644135e-81
5.7756304e-79
4.2870877e-76
2.4704399e-73
1.1508787e-70
4.4522416e-68
1.4571216e-65
4.0873888e-63
9.923834e-61
2.100485e-58
3.8985035e-56
6.3742088e-54
9.2177285e-52
1.1831156e-49
1.3523522e-47
1.3809432e-45
1.2588704e-43
1.0552415e-41
1.1572289e-39
1.118597e-37
9.3121347e-36
6.6457699e-34
4.1066951e-32
2.2570243e-30
1.1182493e-28
5.0044238e-27
2.0107085e-25
7.2772397e-24
2.4102886e-22
7.207688e-21
1.9243951e-19
4.6000933e-18
1.0365684e-16
2.3601432e-15
4.5910674e-14
4.5945965e-13
1.9672862e-12
3.3410857e-12
3.4022491e-11
3.6305211e-09
1.6739302e-07
1.8748421e-06
7.2090399e-06
2.7742051e-06
2.3449405e-06
3.0136785e-06
5.6188982e-06
1.5361951e-05
9.6840171e-06
9.6869271e-06
1.5386711e-05
5.6087142e-06
3.0115482e-06
2.3495796e-06
2.7662874e-06
7.1935436e-06
1.8496056e-06
1.2635493e-07
1.1935675e-10
4.7296234e-12
6.5968231e-13
3.4850658e-13
8.443436e-14
9.3326354e-15
5.0203499e-16
2.2721864e-17
1.0193916e-18
4.2596847e-20
1.62334e-21
5.5760082e-23
1.7302012e-24
4.7537011e-26
1.1673363e-27
2.5669932e-29
5.1045923e-31
9.2314996e-33
1.4888665e-34
2.1157131e-36
2.6736555e-38
2.8084366e-40
2.5787498e-42
3.1363067e-44
3.4331615e-46
3.3531326e-48
2.9263051e-50
2.274062e-52
1.5683611e-54
9.5655757e-57
5.1390941e-59
2.4208074e-61
9.9403659e-64
3.5326048e-66
1.0759837e-68
2.7725127e-71
5.9325795e-74
1.0263189e-76
1.3787449e-79
3.3072419e-82
1.9321426e-82
4.5382844e-81
1.3004261e-80
9.4066063e-78
7.7094246e-75