/*--------------------------------*- C++ -*----------------------------------*\
  =========                 |
  \\      /  F ield         | OpenFOAM: The Open Source CFD Toolbox
   \\    /   O peration     | Website:  https://openfoam.org
    \\  /    A nd           | Version:  9
     \\/     M anipulation  |
\*---------------------------------------------------------------------------*/
FoamFile
{
    format      ascii;
    class       volScalarField;
    location    "0.12";
    object      p_rgh;
}
// * * * * * * * * * * * * * * * * * * * * * * * * * * * * * * * * * * * * * //

dimensions      [1 -1 -2 0 0 0 0];

internalField   nonuniform List<scalar> 
10000
(
0
-0.0021862158
-0.0071272698
-0.011672577
-0.017072491
-0.023295994
-0.030423317
-0.038533073
-0.047674124
-0.05792462
-0.069386645
-0.082167867
-0.096376321
-0.11211423
-0.12951177
-0.14871467
-0.16985907
-0.19309856
-0.21860577
-0.24655567
-0.27712222
-0.31047985
-0.34681119
-0.38631532
-0.42918229
-0.4755709
-0.52561009
-0.57937286
-0.63676299
-0.69543123
-0.75715927
-0.82307189
-0.89322828
-0.96740592
-1.0456648
-1.1278295
-1.2132366
-1.3006838
-1.3888271
-1.476378
-1.5620221
-1.6443973
-1.7221122
-1.7937843
-1.8580805
-1.913764
-1.959732
-1.9950437
-2.0189673
-2.031024
-2.0309475
-2.0187392
-1.9947301
-1.9594783
-1.9137429
-1.8584828
-1.7947917
-1.7239565
-1.6473826
-1.5664178
-1.4824794
-1.3969083
-1.311064
-1.2261439
-1.1434741
-1.0642526
-0.98906664
-0.91805798
-0.85120027
-0.78871482
-0.7304512
-0.67528202
-0.62139347
-0.57108059
-0.52438845
-0.48123207
-0.44144549
-0.40487149
-0.37130619
-0.34062388
-0.31256881
-0.28694153
-0.2635887
-0.24231706
-0.22303107
-0.20555664
-0.18971807
-0.17538139
-0.16244018
-0.15073962
-0.14020798
-0.13079062
-0.12237995
-0.11491904
-0.10837561
-0.10268956
-0.097729659
-0.093536905
-0.088831437
-0.086793454
-0.001796514
-0.0039081319
-0.0088278481
-0.013267695
-0.018588563
-0.024714524
-0.031728219
-0.039660263
-0.048566914
-0.058536091
-0.06966559
-0.082053276
-0.095787449
-0.11098011
-0.12776749
-0.1462752
-0.1666435
-0.18903663
-0.21363372
-0.24061683
-0.27016563
-0.30246295
-0.33772193
-0.37616346
-0.41798756
-0.46338056
-0.51251936
-0.56555775
-0.62268021
-0.68167
-0.74514884
-0.81303922
-0.88515894
-0.96148373
-1.0419059
-1.1261041
-1.2134042
-1.302799
-1.3930985
-1.4830109
-1.5711542
-1.6560779
-1.7363134
-1.810411
-1.8769597
-1.9346312
-1.9822518
-2.0188413
-2.043614
-2.0560528
-2.0559456
-2.0433021
-2.0184112
-1.9818512
-1.9344117
-1.8771271
-1.8111751
-1.7378836
-1.6587574
-1.5752404
-1.4888202
-1.4009088
-1.3129328
-1.2261073
-1.1415626
-1.0603131
-0.9830122
-0.90993358
-0.84116746
-0.77673598
-0.71675458
-0.66129937
-0.60770019
-0.55814424
-0.51236005
-0.47019519
-0.43144616
-0.39594657
-0.36346185
-0.33381378
-0.30677548
-0.28212881
-0.25969075
-0.23927889
-0.2207401
-0.20395721
-0.18874744
-0.174955
-0.16246974
-0.15116111
-0.14094653
-0.13177895
-0.12358934
-0.11630994
-0.10990617
-0.10431738
-0.099449625
-0.095396074
-0.090760224
-0.088661175
0.00015808004
-0.0019168153
-0.0067082887
-0.011015564
-0.016192652
-0.022149551
-0.028922055
-0.036550471
-0.045106849
-0.054677565
-0.065355861
-0.077219732
-0.090362857
-0.10491057
-0.12097926
-0.13868981
-0.15819255
-0.17966492
-0.20329304
-0.22926332
-0.25776297
-0.28900737
-0.32323344
-0.36067651
-0.40156773
-0.44613812
-0.49456163
-0.54683471
-0.60257249
-0.66432123
-0.72962232
-0.79934976
-0.87367824
-0.95257015
-1.0358525
-1.123133
-1.2137278
-1.3066833
-1.4008426
-1.4948752
-1.5873114
-1.6766006
-1.7611613
-1.8394176
-1.9098229
-1.9709114
-2.0213882
-2.0601918
-2.0864762
-2.0996603
-2.0994965
-2.0860128
-2.0595285
-2.0206636
-1.9702812
-1.9095083
-1.8396562
-1.7621719
-1.6786668
-1.5907798
-1.5000866
-1.4081003
-1.3162936
-1.225953
-1.1381907
-1.0539379
-0.97386106
-0.89830909
-0.82743357
-0.76123577
-0.69951244
-0.64137056
-0.58920406
-0.54043857
-0.49540205
-0.45407146
-0.41627123
-0.38177188
-0.3503369
-0.3217289
-0.2957156
-0.27208564
-0.25061631
-0.23113902
-0.21346285
-0.1974699
-0.1829829
-0.16984519
-0.15792498
-0.14711084
-0.13735017
-0.12856923
-0.12072168
-0.11373635
-0.10755804
-0.10212333
-0.097368468
-0.093414658
-0.08890315
-0.086907148
0.0013215534
-0.00066744423
-0.0053682719
-0.0095495631
-0.014589052
-0.020339186
-0.026835428
-0.034132465
-0.042305113
-0.051439361
-0.061601833
-0.072870034
-0.085351333
-0.099150901
-0.11437042
-0.13113546
-0.14960506
-0.16996317
-0.19239845
-0.21709801
-0.24427195
-0.27416762
-0.30704576
-0.34317436
-0.38284739
-0.42636276
-0.4739619
-0.52581577
-0.58211897
-0.64347841
-0.7096815
-0.78090685
-0.85726982
-0.93873993
-1.0251064
-1.1159467
-1.2105885
-1.3080891
-1.407258
-1.5066868
-1.6048067
-1.6999438
-1.7903477
-1.8742403
-1.9498807
-2.0156306
-2.0700255
-2.1118638
-2.1402157
-2.1544263
-2.1541878
-2.1395346
-2.1108388
-2.0687925
-2.0143724
-1.9488335
-1.8736499
-1.790501
-1.7011244
-1.6073657
-1.5109744
-1.4136211
-1.3168743
-1.2220835
-1.1303838
-1.0427045
-0.95969117
-0.88171126
-0.8089125
-0.74132017
-0.67880506
-0.6211275
-0.56846391
-0.52016622
-0.47602528
-0.43581348
-0.39925318
-0.36606186
-0.33599203
-0.30873031
-0.28403452
-0.26165657
-0.24138792
-0.22301548
-0.20636853
-0.19129974
-0.17763782
-0.16524847
-0.15399125
-0.14376343
-0.13449905
-0.1261441
-0.11865283
-0.11197637
-0.10606432
-0.1008395
-0.096243604
-0.092376217
-0.08791771
-0.08602926
0.0027001479
0.00078752715
-0.003807261
-0.007852959
-0.01269787
-0.018181721
-0.024352753
-0.031269113
-0.039005971
-0.04761942
-0.057169496
-0.067746486
-0.079441585
-0.092339379
-0.10654111
-0.12217767
-0.13941365
-0.15843242
-0.17941673
-0.20256732
-0.22812847
-0.25637465
-0.28759691
-0.32212195
-0.36031247
-0.40252308
-0.4490685
-0.50024644
-0.55639489
-0.61788449
-0.68489408
-0.75759462
-0.83611818
-0.92046658
-1.0104388
-1.105616
-1.2053319
-1.3086254
-1.4142475
-1.520698
-1.6262735
-1.7291088
-1.8272092
-1.9185219
-2.0010416
-2.0729069
-2.1324519
-2.1782784
-2.2093177
-2.2248445
-2.2245098
-2.2083382
-2.1767524
-2.1305292
-2.0707899
-1.9990077
-1.9168251
-1.8261799
-1.7290692
-1.6275888
-1.5237382
-1.4193984
-1.3162773
-1.215837
-1.1192344
-1.0273839
-0.94092651
-0.86025025
-0.78548659
-0.71658371
-0.65338352
-0.59567069
-0.54324728
-0.49571482
-0.45270503
-0.41387575
-0.37888105
-0.34732703
-0.31890428
-0.29328324
-0.27016453
-0.24928304
-0.23045547
-0.21344018
-0.19802456
-0.18406035
-0.17139195
-0.15988286
-0.14939078
-0.13984208
-0.13114473
-0.12327964
-0.11621667
-0.10990895
-0.10430885
-0.099342034
-0.094936122
-0.091220959
-0.086847978
-0.085036286
0.0043980674
0.0025720927
-0.0019093899
-0.0057709743
-0.010372551
-0.015555757
-0.021372738
-0.027881754
-0.03512723
-0.043150758
-0.052022661
-0.061819888
-0.072611217
-0.084474004
-0.097510578
-0.11185682
-0.12767337
-0.14512841
-0.1644075
-0.185741
-0.20940196
-0.23568824
-0.26493849
-0.29754735
-0.33393275
-0.37450093
-0.41965549
-0.4698174
-0.52542341
-0.58689196
-0.65453214
-0.72862971
-0.80938374
-0.8968546
-0.99089565
-1.091125
-1.19689
-1.3072176
-1.4208074
-1.5360484
-1.6510381
-1.7636297
-1.8715066
-1.9722798
-2.0636
-2.1432843
-2.2094059
-2.2603369
-2.2948109
-2.3120019
-2.3115345
-2.2934186
-2.2581369
-2.2066003
-2.1400692
-2.0602814
-1.9691678
-1.8689459
-1.7619854
-1.6507417
-1.5375043
-1.4244475
-1.3134538
-1.2061044
-1.1036507
-1.0069861
-0.91671428
-0.83315917
-0.75637771
-0.68627171
-0.62260025
-0.56504306
-0.51328737
-0.46688191
-0.42533876
-0.38824027
-0.35513081
-0.32554147
-0.29907776
-0.27542141
-0.25420543
-0.2351179
-0.21792944
-0.2024506
-0.18845279
-0.17576897
-0.16423694
-0.15371054
-0.1440874
-0.13528453
-0.1272464
-0.11995526
-0.11336865
-0.10745536
-0.10216086
-0.097475516
-0.093288979
-0.089752885
-0.08551069
-0.083772053
0.0063167335
0.0045808831
0.00025984953
-0.0033780991
-0.0077130203
-0.012579912
-0.018034249
-0.024103109
-0.030811491
-0.038206439
-0.046344215
-0.055276869
-0.065061103
-0.075771189
-0.08751031
-0.10040809
-0.11460312
-0.1302524
-0.14756286
-0.16679215
-0.18823046
-0.21220965
-0.23912716
-0.26943373
-0.3035952
-0.34208719
-0.38542053
-0.43414088
-0.48879651
-0.54992917
-0.61796699
-0.69331504
-0.7762939
-0.86706507
-0.96557453
-1.0715249
-1.1843214
-1.3030097
-1.4262358
-1.5522373
-1.6788529
-1.8035789
-1.9236748
-2.0363038
-2.1386711
-2.2281612
-2.3024938
-2.3597909
-2.3985705
-2.4178467
-2.4172047
-2.3966653
-2.3567596
-2.2985738
-2.2235596
-2.1337124
-2.0313932
-1.9192039
-1.7999225
-1.6765213
-1.5517164
-1.4280036
-1.3075202
-1.1919908
-1.0827279
-0.98063307
-0.88618897
-0.79962045
-0.72090325
-0.64979779
-0.58594872
-0.52890607
-0.47822907
-0.43338749
-0.39377195
-0.35882496
-0.3280029
-0.30077018
-0.27666968
-0.25529983
-0.23629547
-0.21929744
-0.20402837
-0.19030575
-0.17791309
-0.16663114
-0.15633737
-0.14689919
-0.13825006
-0.13028049
-0.12297653
-0.11630779
-0.11023795
-0.10476258
-0.09982374
-0.095411356
-0.091443465
-0.088076267
-0.083976952
-0.082350074
0.0083996701
0.0067918349
0.0026678501
-0.00073093116
-0.0047909133
-0.0093429326
-0.014416325
-0.020017958
-0.026173021
-0.032911945
-0.040263262
-0.048262078
-0.056955751
-0.066415643
-0.07673589
-0.088017995
-0.10037889
-0.11398488
-0.12906259
-0.1458795
-0.16474514
-0.18603786
-0.21020624
-0.23774284
-0.26917246
-0.30506565
-0.34604865
-0.39279333
-0.44599048
-0.50635822
-0.57442555
-0.65076503
-0.73584458
-0.82997026
-0.93324306
-1.0455243
-1.1663398
-1.2947888
-1.4294673
-1.5684412
-1.7092445
-1.8489246
-1.9841625
-2.1114935
-2.2275456
-2.3291805
-2.4136563
-2.4787812
-2.5228681
-2.5447459
-2.5439032
-2.5203845
-2.4747766
-2.4083468
-2.3228606
-2.2205828
-2.1043171
-1.9772489
-1.8427724
-1.7044115
-1.5654783
-1.4289228
-1.2971772
-1.1721745
-1.055219
-0.94712683
-0.84827038
-0.75869004
-0.67820574
-0.60642675
-0.54279504
-0.48671615
-0.43768611
-0.39494439
-0.35778815
-0.32551804
-0.29749546
-0.27308423
-0.25178053
-0.23310389
-0.21665508
-0.20204845
-0.18898292
-0.17720238
-0.16654956
-0.156835
-0.14791693
-0.13968651
-0.13207621
-0.12499591
-0.11845382
-0.11243577
-0.10693042
-0.10191216
-0.097346318
-0.093192739
-0.089441571
-0.086275543
-0.082325694
-0.080822398
0.010641194
0.0091840077
0.0052668459
0.0021101827
-0.0016817744
-0.0059102842
-0.010590768
-0.015728736
-0.021328569
-0.027389315
-0.033917807
-0.040935415
-0.048481664
-0.056614044
-0.065394273
-0.074891844
-0.085221784
-0.096562
-0.10913658
-0.12321493
-0.13913609
-0.15732098
-0.17825409
-0.20247163
-0.23057703
-0.26324974
-0.30123453
-0.34533785
-0.39641359
-0.45546615
-0.52306095
-0.59997729
-0.68684297
-0.78419638
-0.89239143
-1.0115174
-1.1412875
-1.2809224
-1.429031
-1.5835204
-1.7415427
-1.8995455
-2.0534469
-2.1989307
-2.3318345
-2.4483831
-2.5453045
-2.6200043
-2.6705588
-2.6956286
-2.6945529
-2.6673719
-2.6148113
-2.5383184
-2.4399758
-2.3224183
-2.1889916
-2.0435182
-1.8902706
-1.7335861
-1.5775411
-1.4256863
-1.2808048
-1.1449495
-1.0194348
-0.90492259
-0.80157092
-0.70918183
-0.62729441
-0.55526992
-0.49243275
-0.43794538
-0.39125338
-0.35129197
-0.3172455
-0.2882898
-0.26365278
-0.24262574
-0.22458274
-0.2090238
-0.19549943
-0.18358795
-0.17296696
-0.16338602
-0.15465469
-0.14663614
-0.13919409
-0.13224675
-0.12572466
-0.11958
-0.11382634
-0.10847895
-0.10351689
-0.09891659
-0.09470615
-0.090836797
-0.087307636
-0.084375411
-0.080624014
-0.079237766
0.013006037
0.011703265
0.0079943093
0.0050686445
0.0015470242
-0.0023581164
-0.0066647907
-0.01135565
-0.016401892
-0.021778307
-0.027472844
-0.033492631
-0.039860593
-0.046597442
-0.053723825
-0.06129518
-0.069427629
-0.078286598
-0.088079447
-0.099082793
-0.11166291
-0.12626525
-0.14340424
-0.16367577
-0.18777605
-0.21649663
-0.25070575
-0.29134834
-0.33947658
-0.39648612
-0.4629459
-0.53977848
-0.6278969
-0.72814784
-0.84121017
-0.96749286
-1.107011
-1.2592442
-1.4229321
-1.5958556
-1.774702
-1.9551328
-2.1320486
-2.299966
-2.4535954
-2.5883327
-2.7003761
-2.7867291
-2.84514
-2.87406
-2.8726997
-2.8410741
-2.7800732
-2.6913948
-2.5774425
-2.441217
-2.2866759
-2.1184903
-1.9420546
-1.7628963
-1.5861562
-1.4161412
-1.2560842
-1.1080896
-0.97332635
-0.85220038
-0.7445238
-0.64971822
-0.56703235
-0.49551643
-0.43416457
-0.38201199
-0.33852438
-0.30223311
-0.27209284
-0.24717385
-0.22658749
-0.20952761
-0.19530487
-0.18332296
-0.17307749
-0.16417691
-0.15627905
-0.14912783
-0.14251568
-0.13630534
-0.1304081
-0.12476418
-0.11935078
-0.1141745
-0.10922044
-0.10451836
-0.10006362
-0.095890524
-0.092020062
-0.088452731
-0.085178291
-0.082448001
-0.078886511
-0.077640303
0.015444045
0.014294918
0.010788545
0.0080922775
0.0048287448
0.0012146809
-0.0027479126
-0.007010165
-0.011519694
-0.016231067
-0.021114561
-0.026154695
-0.031332367
-0.036620957
-0.042016529
-0.047564491
-0.053355771
-0.059523045
-0.066260267
-0.073848751
-0.082660889
-0.093151384
-0.1058718
-0.12149316
-0.1408104
-0.16472929
-0.194246
-0.23042447
-0.27439144
-0.32865307
-0.39306658
-0.46892544
-0.55750099
-0.66000676
-0.77754809
-0.91096391
-1.0607696
-1.2269075
-1.4084166
-1.6030689
-1.8070937
-2.0151388
-2.2206211
-2.4163589
-2.5954817
-2.752294
-2.8824937
-2.9828505
-3.0507797
-3.0843705
-3.0826563
-3.0456662
-2.9744996
-2.8712049
-2.7384679
-2.5795815
-2.3990449
-2.2026894
-1.9974559
-1.7906369
-1.588859
-1.3974326
-1.2200491
-1.0587707
-0.91437957
-0.78678375
-0.67526414
-0.57882355
-0.49624099
-0.42619595
-0.3672723
-0.31812329
-0.27917273
-0.247602
-0.22228887
-0.20221681
-0.18643927
-0.17402717
-0.1642118
-0.15630597
-0.14979782
-0.14426067
-0.13934434
-0.13477677
-0.13039014
-0.12605976
-0.12175325
-0.1174723
-0.11319363
-0.10893525
-0.10473927
-0.10067893
-0.096723499
-0.092949717
-0.08940724
-0.086095333
-0.083067823
-0.080540272
-0.077133114
-0.076039678
0.017920153
0.016921818
0.013621301
0.011135116
0.0080871262
0.0047243309
0.0010748351
-0.0027939491
-0.0068115833
-0.010913986
-0.015046966
-0.01915001
-0.023149533
-0.026983378
-0.030626719
-0.034090965
-0.037418338
-0.040706738
-0.044135493
-0.047968625
-0.052558536
-0.058364869
-0.065984437
-0.07616808
-0.08981505
-0.10796314
-0.13177105
-0.16241701
-0.20074591
-0.25132901
-0.31246995
-0.38611495
-0.4740073
-0.57774808
-0.69890521
-0.83893936
-0.99910489
-1.1801043
-1.3816189
-1.6017219
-1.8362916
-2.0786607
-2.3200051
-2.5505038
-2.7609819
-2.9443853
-3.0960991
-3.2130482
-3.292472
-3.3318495
-3.329732
-3.28619
-3.2027788
-3.0821314
-2.9271011
-2.7409454
-2.5284359
-2.2968339
-2.0554282
-1.8142528
-1.5821032
-1.3655694
-1.1687462
-0.99337936
-0.83947706
-0.7061039
-0.59180042
-0.49491092
-0.41367214
-0.3464002
-0.29122063
-0.24584509
-0.21311107
-0.1873306
-0.16787073
-0.15364642
-0.14350085
-0.13645982
-0.13170591
-0.1284426
-0.12608237
-0.12421051
-0.12249991
-0.12069941
-0.11864282
-0.11627525
-0.11358802
-0.1106308
-0.10743347
-0.10407853
-0.10060667
-0.097068576
-0.093559018
-0.09014191
-0.086887271
-0.083821899
-0.080985342
-0.078636066
-0.075400204
-0.074449154
0.020422939
0.019581359
0.016469001
0.014144438
0.011268823
0.0081182562
0.0047328415
0.001193356
-0.0024148494
-0.0060045097
-0.0094755652
-0.012710078
-0.015592882
-0.018029985
-0.019948732
-0.021303426
-0.022088687
-0.022362533
-0.022262642
-0.022004777
-0.02190597
-0.022429216
-0.024212005
-0.028077432
-0.035036925
-0.046296881
-0.063266743
-0.087578685
-0.12124892
-0.16431169
-0.22011439
-0.28998193
-0.37571204
-0.47918572
-0.60248817
-0.74789821
-0.91765563
-1.1137385
-1.3371348
-1.5868154
-1.8585846
-2.1441594
-2.4313474
-2.7059469
-2.9550274
-3.169878
-3.346429
-3.4827991
-3.5762544
-3.6230233
-3.6204778
-3.5686873
-3.4703317
-3.3293325
-3.1485917
-2.9301638
-2.6782721
-2.4019128
-2.1142443
-1.8297266
-1.5605892
-1.3149902
-1.0970168
-0.90746724
-0.74503778
-0.60740083
-0.49199331
-0.39629242
-0.31802996
-0.25523792
-0.20616692
-0.16971636
-0.14096213
-0.12148475
-0.10894237
-0.10164876
-0.098166783
-0.097377448
-0.098346863
-0.10025678
-0.10248837
-0.10460709
-0.10629868
-0.10738238
-0.10773483
-0.10733806
-0.10623534
-0.10455235
-0.10235769
-0.099776243
-0.096938913
-0.093883517
-0.090724844
-0.08760112
-0.084544179
-0.081662616
-0.078968608
-0.076746949
-0.073687422
-0.072859519
0.022970802
0.022266478
0.019301983
0.017097217
0.014351366
0.011354871
0.0081551226
0.004843913
0.0015255455
-0.0016728405
-0.0045974995
-0.0070835903
-0.0089754883
-0.01012709
-0.010399043
-0.0096832974
-0.0079245178
-0.0051159649
-0.0013111833
0.0033479387
0.0085893488
0.013960202
0.018801766
0.022235056
0.023139574
0.020132853
0.011567799
-0.0044651966
-0.030133118
-0.065632108
-0.11471792
-0.17919314
-0.26093335
-0.362136
-0.48537519
-0.63380877
-0.81106552
-1.021144
-1.2673853
-1.5508074
-1.8679867
-2.2089425
-2.5563666
-2.8883644
-3.1851643
-3.435804
-3.6392799
-3.7979088
-3.9091892
-3.9659995
-3.9629593
-3.9001264
-3.7829541
-3.6186716
-3.4099456
-3.1546353
-2.8540289
-2.5194279
-2.1709324
-1.8307842
-1.5164449
-1.2377887
-0.9980106
-0.79571363
-0.62711974
-0.48778356
-0.37370319
-0.28140473
-0.20809438
-0.15142637
-0.10952457
-0.080557742
-0.060660631
-0.049719108
-0.045686373
-0.046671081
-0.051026011
-0.057434271
-0.064880778
-0.072521059
-0.079757131
-0.086127065
-0.091389701
-0.095414117
-0.098147572
-0.099654392
-0.10006531
-0.099530137
-0.098239703
-0.096329649
-0.09392855
-0.091234664
-0.088324207
-0.085359037
-0.082421162
-0.079631484
-0.077025725
-0.074892885
-0.071956478
-0.071234041
0.025578023
0.024973267
0.022125728
0.019999295
0.017319819
0.014390382
0.011264586
0.0080480519
0.0048773362
0.0019249509
-0.00061515623
-0.0025356463
-0.0036197977
-0.0036518127
-0.0024324062
0.00021071336
0.0044189055
0.010302855
0.017922195
0.027232068
0.03802723
0.049896748
0.062193346
0.074004614
0.08410993
0.09094767
0.092632081
0.087004695
0.07174442
0.045315026
0.0046199352
-0.052536069
-0.12819226
-0.2246416
-0.34471386
-0.49237432
-0.67309881
-0.89375039
-1.1616429
-1.4820466
-1.8544671
-2.2680668
-2.6978691
-3.1075598
-3.4636807
-3.7516491
-3.97994
-4.16314
-4.299085
-4.3715433
-4.367975
-4.2884196
-4.1454752
-3.9554063
-3.7205673
-3.4266025
-3.0653744
-2.6519063
-2.2201464
-1.8069597
-1.4376395
-1.122918
-0.86290036
-0.65171317
-0.48140513
-0.34454311
-0.23515714
-0.14895027
-0.082834587
-0.034328798
-0.0013851405
0.018170983
0.027358095
0.027694019
0.021417399
0.010633655
-0.0028202139
-0.017475484
-0.032184822
-0.046127557
-0.058723568
-0.069560335
-0.078464191
-0.085413976
-0.090453223
-0.09372136
-0.095475888
-0.095911487
-0.09530431
-0.093868642
-0.091762323
-0.089221215
-0.086424638
-0.083474803
-0.080541067
-0.077739514
-0.075139106
-0.073048722
-0.070183746
-0.069549957
0.028272437
0.027739726
0.024976656
0.022861228
0.020159522
0.017181784
0.013991742
0.010720104
0.007533847
0.0046368551
0.0022621713
0.00067415141
0.0001565972
0.0009872627
0.0034279845
0.0077426888
0.014200934
0.023052638
0.034491602
0.048599313
0.065279372
0.08421422
0.10481635
0.12616923
0.14696878
0.16547893
0.17953185
0.18658348
0.18385405
0.16889623
0.13872599
0.090964141
0.023633393
-0.06527805
-0.17831479
-0.31977733
-0.49699623
-0.72079637
-1.0048175
-1.3623411
-1.8004945
-2.311537
-2.8603515
-3.381846
-3.8127192
-4.1307284
-4.3701994
-4.5796966
-4.755754
-4.8574196
-4.8533003
-4.7433766
-4.5591023
-4.341362
-4.0938599
-3.7682237
-3.3304746
-2.8034442
-2.2512997
-1.7400671
-1.3053779
-0.95482012
-0.68060046
-0.46858579
-0.30415712
-0.17570286
-0.075242572
0.001901741
0.058501758
0.096676873
0.11843646
0.12615854
0.12264966
0.1102497
0.091675681
0.069338784
0.045342474
0.021317376
-0.0014541956
-0.022227446
-0.040452708
-0.055854552
-0.068373788
-0.07810476
-0.085232483
-0.090038677
-0.092873568
-0.094025983
-0.093833079
-0.09257135
-0.090549709
-0.087958085
-0.085051814
-0.08197633
-0.078909617
-0.075991705
-0.0732968
-0.071156389
-0.068343713
-0.067778815
0.031126416
0.030628461
0.027896707
0.025708282
0.022871101
0.019711627
0.016307901
0.012810336
0.0094032405
0.0063198367
0.0038458636
0.0023018564
0.0020202745
0.0033368832
0.0066053438
0.0122195
0.020604587
0.032172188
0.047280668
0.066180986
0.088948415
0.11542838
0.14516041
0.17727872
0.21043611
0.24273005
0.27163716
0.29404639
0.30649024
0.30572946
0.28844669
0.25201861
0.19479499
0.11590085
0.014234133
-0.11375886
-0.27654115
-0.48975882
-0.77638435
-1.1633732
-1.674301
-2.3169916
-3.0499752
-3.7481584
-4.2775543
-4.5944378
-4.7995735
-5.0354044
-5.2914707
-5.4534715
-5.4488448
-5.2773997
-5.0117832
-4.7661707
-4.5513917
-4.224934
-3.6862446
-2.9798719
-2.2413064
-1.5973547
-1.0903751
-0.71226073
-0.43826781
-0.24006471
-0.093256322
0.01889351
0.10564358
0.17096482
0.2161643
0.24213406
0.25044398
0.243643
0.22489098
0.19722181
0.16396361
0.12809005
0.091985696
0.057456397
0.025801765
-0.002238323
-0.026260309
-0.04619295
-0.062138869
-0.0743621
-0.083246174
-0.089208149
-0.092690845
-0.094155186
-0.094018588
-0.092637695
-0.090370331
-0.087500699
-0.084257933
-0.080870518
-0.07750109
-0.074344664
-0.071462843
-0.069182723
-0.066383477
-0.065851584
0.03423774
0.03371649
0.030949796
0.028590764
0.025497538
0.022015991
0.018229945
0.014294609
0.010415965
0.006869088
0.0039836566
0.002108322
0.001615532
0.0029239864
0.0065116318
0.012918873
0.022736798
0.03656842
0.054980163
0.078453466
0.1073156
0.14166253
0.18125658
0.22538789
0.27274067
0.32124817
0.36795121
0.40901854
0.4400518
0.45670043
0.45475706
0.4311754
0.38495724
0.31722234
0.23027708
0.12409422
-0.0085474582
-0.18807545
-0.45036659
-0.84285951
-1.4176004
-2.2299886
-3.2705131
-4.2842522
-4.9572133
-5.1799015
-5.2145276
-5.4767089
-5.9181991
-6.2217645
-6.2168311
-5.9025955
-5.4502016
-5.1764258
-5.1304638
-4.8961797
-4.2108137
-3.1846441
-2.1345793
-1.3189629
-0.74888263
-0.36824853
-0.12289313
0.036982815
0.14932679
0.23605802
0.30527615
0.3574267
0.39028891
0.40264664
0.39526785
0.37091853
0.333613
0.2874982
0.23675315
0.18502936
0.13510384
0.088940183
0.047727929
0.012141558
-0.017642573
-0.041856619
-0.060846305
-0.075098064
-0.08517571
-0.091737582
-0.095363444
-0.096638847
-0.096096812
-0.094213946
-0.091358137
-0.087894145
-0.084057371
-0.080126364
-0.07628144
-0.072727418
-0.069544722
-0.067071177
-0.064230373
-0.06366987
0.037724609
0.037111867
0.034234523
0.031605168
0.028135373
0.024174183
0.019800828
0.015183131
0.010560414
0.0062354167
0.0025464942
-0.00013989579
-0.0013928149
-0.00069106939
0.0025736913
0.0090924515
0.019632714
0.035019003
0.056081663
0.083609981
0.11828118
0.16055818
0.21056788
0.26791368
0.33142225
0.39889564
0.46692591
0.53085201
0.58497803
0.62318366
0.63943083
0.62962658
0.59321243
0.53441987
0.46199641
0.38515223
0.30315448
0.1929303
0.0012477281
-0.34532238
-0.92733164
-1.9112934
-3.5084393
-5.1579534
-6.0935239
-5.9682969
-5.4327586
-5.7571153
-6.6357672
-7.3327301
-7.3278931
-6.6191182
-5.7281229
-5.3897553
-5.9126558
-6.0248324
-5.0730451
-3.4039088
-1.7898463
-0.79920298
-0.22328056
0.10638022
0.27447008
0.35839599
0.41429876
0.46715591
0.51859936
0.55969973
0.58158346
0.57961019
0.55391983
0.508164
0.44805103
0.37945385
0.3078445
0.23766881
0.17208976
0.11316847
0.061950922
0.018827491
-0.016413596
-0.044364663
-0.065664237
-0.081171809
-0.091724129
-0.098155291
-0.10126774
-0.10175122
-0.10028511
-0.097400474
-0.093555132
-0.089125653
-0.084402918
-0.079678447
-0.075183016
-0.07107777
-0.067456607
-0.064711195
-0.061768804
-0.061101161
0.041734209
0.040954204
0.037897061
0.034899361
0.030916712
0.026290753
0.021106075
0.015556106
0.0098938221
0.004411202
-0.00056146106
-0.004621549
-0.0072661753
-0.0078836397
-0.0057522951
-2.6610318e-05
0.010262046
0.026184973
0.048887977
0.079552648
0.11932539
0.16919786
0.22985426
0.30140947
0.38301816
0.47252388
0.56619435
0.65846675
0.74184387
0.80739452
0.84583313
0.85004086
0.81872052
0.76015123
0.69426102
0.64821298
0.6404142
0.65169266
0.60101911
0.37396193
-0.058800586
-0.9797873
-3.6774833
-6.7735613
-8.2640494
-7.1389444
-5.0345237
-5.403463
-7.3532492
-9.1911603
-9.1871284
-7.3375583
-5.3730536
-4.9860539
-7.0777151
-8.190771
-6.6806596
-3.5523155
-0.82249866
0.11146181
0.5347535
0.73575698
0.75226928
0.70506486
0.67916121
0.69583332
0.73729931
0.77620363
0.7921006
0.77593016
0.72829469
0.65571896
0.56698498
0.47067815
0.37406391
0.28253741
0.19952576
0.12695971
0.065616934
0.015340681
-0.024632941
-0.055337419
-0.077931757
-0.093607232
-0.10360435
-0.10897149
-0.11070063
-0.10968591
-0.10667452
-0.10224919
-0.096939306
-0.091145642
-0.085226051
-0.079460813
-0.074090679
-0.069270374
-0.065083997
-0.061946572
-0.058817002
-0.057971759
0.046436877
0.045416923
0.042120502
0.03864745
0.03399756
0.028518236
0.022308786
0.015565683
0.0085185992
0.001433954
-0.0053544653
-0.011405071
-0.016165083
-0.018957881
-0.018961867
-0.015179232
-0.006426183
0.0086406921
0.03152817
0.063893026
0.10748726
0.16403207
0.23499955
0.32127245
0.42268253
0.53753183
0.6620694
0.78984782
0.91111587
1.0128641
1.0802175
1.0994104
1.0644129
0.98604806
0.90025869
0.86798195
0.95471449
1.1709029
1.3806488
1.3097526
1.2244839
1.4862011
-3.366526
-10.166101
-12.918425
-8.8813333
-3.2716787
-3.1821967
-7.887305
-13.209728
-13.208184
-7.8759034
-3.1544538
-3.214177
-8.8141805
-12.848346
-10.077273
-3.2206619
1.6975451
1.4588137
1.5261022
1.5531558
1.2923356
1.0265064
0.89636551
0.89329848
0.9514854
1.0088389
1.0281446
0.99738301
0.92164074
0.8138991
0.68834454
0.55751029
0.43089795
0.31484272
0.21282475
0.12624227
0.055218916
-0.0011956128
-0.044579667
-0.076576367
-0.09895413
-0.11340045
-0.12150807
-0.12465694
-0.12400528
-0.1206169
-0.11527836
-0.10869223
-0.10140897
-0.093850072
-0.086398501
-0.079337931
-0.072861629
-0.06713731
-0.062261741
-0.05862692
-0.055221301
-0.054136928
0.05202048
0.050705423
0.047103278
0.043040068
0.037581019
0.031081893
0.023635911
0.015407443
0.0065894725
-0.0025672515
-0.011726337
-0.020441359
-0.028146822
-0.034123885
-0.0374575
-0.037017918
-0.03142681
-0.019051012
0.0020137947
0.033982183
0.079356086
0.1407863
0.22079394
0.32141185
0.44372223
0.58717504
0.74862395
0.92111707
1.092545
1.244709
1.3540841
1.3938021
1.3440101
1.2094801
1.0423599
0.95993564
1.1338739
1.693142
2.4689527
2.56971
2.0917624
4.3556819
0.91808042
-15.387327
-24.385541
-12.194566
-0.13230072
5.1928721
-6.0772264
-21.72842
-21.72915
-6.0716484
5.2179232
-0.067251812
-12.111674
-24.334608
-15.323457
1.0903413
4.6600868
2.4275791
2.8663222
2.686562
1.8339641
1.2066615
0.97789101
1.0191281
1.1565877
1.2701391
1.3052164
1.2552456
1.138918
0.98241633
0.80823571
0.6340468
0.47168662
0.32798984
0.20590552
0.10581112
0.026499111
-0.034185212
-0.078817923
-0.10998793
-0.13011033
-0.14149737
-0.14610235
-0.1455801
-0.14135641
-0.13456174
-0.12607125
-0.11662954
-0.10680897
-0.097056835
-0.087718562
-0.079072485
-0.071276746
-0.064471248
-0.058766856
-0.054528815
-0.050803148
-0.049425533
0.058697477
0.057038615
0.05306991
0.048323926
0.041935035
0.034259689
0.025349589
0.015328596
0.0043581094
-0.0073342903
-0.019443952
-0.031562047
-0.043137044
-0.05343442
-0.061476006
-0.066039054
-0.065597101
-0.058242866
-0.041651653
-0.012988266
0.031111169
0.09440189
0.1807709
0.29394363
0.43701842
0.61156903
0.8162337
1.0447524
1.2834155
1.5085174
1.6856412
1.7644853
1.6951622
1.4518481
1.0827596
0.78067968
0.93784366
2.058186
4.221878
4.2309083
1.4297889
8.8696356
15.090222
-0.67196735
-26.843323
-24.742742
7.238418
32.199807
13.735053
-49.403502
-49.418468
13.729357
32.228229
7.4200693
-24.620372
-26.729437
-0.48828568
15.442293
9.3178544
1.9377473
4.6462459
4.4825979
2.2105019
0.99879959
0.77481948
1.0319711
1.3719916
1.5967542
1.6542015
1.5676904
1.3856427
1.1586666
0.91928739
0.69075692
0.48661963
0.31296628
0.17106461
0.059314347
-0.025538801
-0.087372197
-0.1301158
-0.15748611
-0.17271137
-0.1786853
-0.17777336
-0.17193826
-0.16277461
-0.15143914
-0.13890055
-0.12586556
-0.11291464
-0.10050856
-0.088926647
-0.078393459
-0.069060562
-0.061032443
-0.054362058
-0.049401646
-0.045314092
-0.04358573
0.066713887
0.064665564
0.060300417
0.054805007
0.047373386
0.03835681
0.02776256
0.015668716
0.0021958156
-0.01248666
-0.028147955
-0.044442507
-0.060863937
-0.076704546
-0.090998599
-0.10248783
-0.10955421
-0.11008122
-0.10133381
-0.079847631
-0.041363453
0.019111999
0.10719419
0.2289296
0.39033174
0.59642515
0.84955388
1.146632
1.4749623
1.8060211
2.0979111
2.2647002
2.2011958
1.7974792
1.0234637
0.096654289
-0.27109659
1.3224289
6.8227901
16.535234
7.0651163
-11.775748
2.2177555
42.374058
-68.730803
-69.37154
-80.78954
3.2473771
808.45308
3324.9503
3326.2574
809.64484
3.276321
-80.813442
-69.315936
-68.853261
42.279817
2.6078982
-11.212566
7.9172825
17.093587
7.1393362
1.4730677
-0.24560102
0.045346742
0.92940612
1.6803219
2.0717066
2.1286607
1.9582374
1.6632107
1.3344013
1.0077475
0.71252372
0.46154261
0.25769803
0.098608597
-0.020721492
-0.10645495
-0.16475204
-0.20123408
-0.22083908
-0.22776841
-0.22547656
-0.21670541
-0.20366932
-0.18800608
-0.17093421
-0.15338139
-0.1360093
-0.11936228
-0.10384681
-0.089671061
-0.076975151
-0.065886599
-0.056491726
-0.048742717
-0.04299929
-0.038488096
-0.036361102
0.076330808
0.073904957
0.069125869
0.062800635
0.054223888
0.043727593
0.031268161
0.016871401
0.00057876757
-0.017532784
-0.03732911
-0.058559863
-0.080809609
-0.10346402
-0.12567138
-0.14623452
-0.16352258
-0.17531095
-0.17855531
-0.16923838
-0.14225977
-0.09132066
-0.0087871717
0.11426928
0.28774431
0.52174972
0.82495695
1.2014989
1.646089
2.1362663
2.6124949
2.9688952
3.0153124
2.4796574
1.0870695
-1.1833964
-3.6039094
-4.2886437
0.81647153
30.745141
65.397144
-38.297992
36.967433
28.101517
1462.7721
5373.3075
4950.5361
3365.972
4973.199
8035.3081
8036.4659
4975.2045
3365.0924
4947.6309
5375.1374
1467.1808
27.477011
37.065725
-37.323151
66.676527
31.47926
1.2272629
-4.1823958
-3.6640802
-1.314129
0.92990844
2.3144885
2.8491627
2.8042913
2.4507009
1.9794058
1.4903087
1.0488695
0.67609259
0.37676368
0.1464943
-0.023404707
-0.14302577
-0.2223612
-0.27035548
-0.29466942
-0.30151504
-0.29600423
-0.2820617
-0.26278337
-0.24041112
-0.21657397
-0.19248585
-0.16894039
-0.14651285
-0.12564317
-0.10659823
-0.089503141
-0.074415867
-0.061393421
-0.050479698
-0.041553715
-0.034981766
-0.030009432
-0.027495304
0.087851409