/*--------------------------------*- C++ -*----------------------------------*\
  =========                 |
  \\      /  F ield         | OpenFOAM: The Open Source CFD Toolbox
   \\    /   O peration     | Website:  https://openfoam.org
    \\  /    A nd           | Version:  9
     \\/     M anipulation  |
\*---------------------------------------------------------------------------*/
FoamFile
{
    format      ascii;
    class       surfaceScalarField;
    location    "0.12";
    object      phi;
}
// * * * * * * * * * * * * * * * * * * * * * * * * * * * * * * * * * * * * * //

dimensions      [0 3 -1 0 0 0 0];

internalField   nonuniform List<scalar> 
19800
(
-0.000113907
0.00011978785
-0.00015420582
0.00011953415
-0.00019446091
0.00011983161
-0.00023450838
0.00011987969
-0.00027432517
0.00011999185
-0.00031385277
0.00012006742
-0.0003530202
0.0001200755
-0.00039173055
0.00011997563
-0.00042987444
0.0001197189
-0.00046734382
0.00011925146
-0.00050401658
0.00011852229
-0.00053974959
0.00011746664
-0.00057440237
0.00011602683
-0.00060781071
0.00011415188
-0.00063979707
0.00011177483
-0.00067018603
0.000108816
-0.000698796
0.00010524108
-0.00072542272
0.00010098828
-0.00074987341
9.6006024e-05
-0.00077196474
9.0253311e-05
-0.00079150794
8.3699421e-05
-0.00080831736
7.6315125e-05
-0.0008222326
6.8085305e-05
-0.00083311207
5.9005987e-05
-0.00084083125
4.9086705e-05
-0.00084528935
3.8345086e-05
-0.00084644158
2.6803197e-05
-0.00084435122
1.4508599e-05
-0.000839593
1.7342702e-06
-0.00083225138
-1.1168391e-05
-0.00081940478
-2.3847015e-05
-0.00080255137
-3.607318e-05
-0.00078134835
-4.9311963e-05
-0.00075625861
-6.3179893e-05
-0.00072771302
-7.7697049e-05
-0.00069603432
-9.2767449e-05
-0.0006614719
-0.00010817686
-0.0006240387
-0.00012363902
-0.00058379212
-0.0001389534
-0.00054084388
-0.00015394887
-0.0004953309
-0.00016844141
-0.00044739413
-0.00018224015
-0.0003971852
-0.00019514851
-0.00034488136
-0.00020696412
-0.00029069201
-0.00021749124
-0.00023484818
-0.00022655311
-0.00017757953
-0.00023398829
-0.00011913138
-0.00023965254
-5.9770285e-05
-0.00024349184
1.9198746e-07
-0.00024550882
6.0152571e-05
-0.00024550878
0.00011951445
-0.00024349151
0.00017796715
-0.00023965158
0.00023524058
-0.00023398639
0.00029109373
-0.00022655358
0.0003452962
-0.00021749193
0.00039761479
-0.00020696577
0.00044784294
-0.0001951523
0.00049579637
-0.00018224381
0.00054133385
-0.00016844368
0.00058429839
-0.00015394839
0.00062456184
-0.00013894935
0.00066200061
-0.00012363387
0.00069656223
-0.00010816999
0.00072823771
-9.2758095e-05
0.000756777
-7.7683207e-05
0.00078185385
-6.3159306e-05
0.00080303629
-4.9284414e-05
0.00081986394
-3.6040221e-05
0.00083267707
-2.3800493e-05
0.00083999071
-1.1116816e-05
0.00084472741
1.7935168e-06
0.00084678469
1.4568824e-05
0.0008455881
2.6858675e-05
0.00084108299
3.8397052e-05
0.00083331817
4.9138975e-05
0.00082240278
5.9057345e-05
0.0008084524
6.8129739e-05
0.00079161175
7.6348268e-05
0.00077202937
8.3723743e-05
0.00074990324
9.0275451e-05
0.00072542426
9.6024789e-05
0.00069877378
0.00010100087
0.00067015073
0.00010524434
0.00063975382
0.00010880632
0.00060775574
0.00011175278
0.00057434014
0.00011412763
0.00053968876
0.00011599694
0.00050395912
0.00011742499
0.00046729573
0.00011846852
0.00042984542
0.00011918452
0.00039172831
0.0001196377
0.00035305547
0.00011987657
0.00031393611
0.00011995601
0.00027446174
0.00011992327
0.00023470489
0.00011981566
0.00019472372
0.00011966575
0.00015453214
0.00011956093
0.00011430512
0.00011926185
0.00011934161
-0.00011387907
0.00015991195
-0.00015404887
0.00015970122
-0.00019413836
0.00015991996
-0.00023411868
0.00015986006
-0.0002739309
0.00015980628
-0.00031350461
0.00015964373
-0.00035276146
0.00015933498
-0.00039161789
0.00015883341
-0.00042998278
0.00015808334
-0.00046775363
0.00015702065
-0.000504792
0.00015555827
-0.00054097916
0.00015365129
-0.00057616396
0.00015120966
-0.00061018072
0.00014816733
-0.00064285594
0.00014444918
-0.00067402446
0.00013998406
-0.00070348143
0.00013469798
-0.00073103258
0.00012853965
-0.00075648426
0.00012145802
-0.00077964035
0.00011340973
-0.00080028842
0.00010434756
-0.00081825054
9.4276722e-05
-0.00083334784
8.3181456e-05
-0.00084542004
7.1076911e-05
-0.0008543255
5.7991431e-05
-0.00085995015
4.3969822e-05
-0.00086223401
2.9087727e-05
-0.00086115021
1.34257e-05
-0.00085708134
-2.3335185e-06
-0.00084908158
-1.9166678e-05
-0.00083703144
-3.5895135e-05
-0.00082047607
-5.2626205e-05
-0.00079998673
-6.979927e-05
-0.00077566247
-8.750302e-05
-0.00074770867
-0.00010565073
-0.00071634395
-0.00012413263
-0.00068174617
-0.0001427749
-0.00064401025
-0.00016137423
-0.00060322106
-0.00017974084
-0.00055948875
-0.00019767956
-0.00051292903
-0.00021500061
-0.00046368723
-0.00023148154
-0.00041192828
-0.00024690633
-0.00035785522
-0.00026103674
-0.00030168119
-0.00027366472
-0.0002436544
-0.00028457581
-0.00018408149
-0.00029355661
-0.00012330011
-0.00030043382
-6.1703197e-05
-0.00030508828
2.0568242e-07
-0.00030741415
6.2113216e-05
-0.0003074148
0.00012371325
-0.0003050889
0.0001845014
-0.00030043542
0.00024407764
-0.00029356212
0.00030211207
-0.00028458555
0.00035829959
-0.00027367843
0.0004123816
-0.0002610511
0.00046415692
-0.00024692286
0.00051341348
-0.00023150122
0.00055999539
-0.00021501698
0.00060374176
-0.00019769406
0.00064454377
-0.0001797512
0.0006822864
-0.00016138044
0.00071688659
-0.00014277477
0.00074824852
-0.00012412115
0.00077619335
-0.00010562474
0.00080050119
-8.7465891e-05
0.00082097158
-6.975289e-05
0.00083750357
-5.2569502e-05
0.0008495263
-3.5821903e-05
0.00085749395
-1.9083268e-05
0.000861525
-2.237878e-06
0.00086256914
1.352626e-05
0.00086024346
2.9183189e-05
0.0008545794
4.406206e-05
0.000845632
5.8083831e-05
0.00083351946
7.1170058e-05
0.00081837765
8.3267116e-05
0.00080037951
9.4351516e-05
0.0007796969
0.00010441029
0.0007565101
0.00011346435
0.00073103385
0.00012150573
0.00070345833
0.00012857372
0.00067397991
0.00013471827
0.00064279717
0.00013999303
0.00061011074
0.00014444236
0.00057608586
0.00014815102
0.00054090065
0.00015118286
0.00050471767
0.00015360683
0.00046768882
0.00015549574
0.00042993561
0.00015693945
0.00039159634
0.00015797873
0.00035276563
0.0001587075
0.00031353649
0.00015918615
0.00027399811
0.00015946293
0.00023421958
0.00015959331
0.00019426747
0.00015961637
0.00015420951
0.00015961693
0.00011407045
0.00015939561
0.00015946063
-0.00011395874
0.00020002803
-0.00015413893
0.00019987981
-0.00019424323
0.00020002321
-0.00023427624
0.00019989365
-0.00027417025
0.00019970089
-0.00031387124
0.0001993454
-0.00035331515
0.000198779
-0.00039242446
0.00019794209
-0.00043109909
0.00019675729
-0.00046923566
0.00019515673
-0.00050672249
0.00019304483
-0.00054341959
0.00019034836
-0.00057918782
0.00018697782
-0.00061386515
0.00018284418
-0.00064727567
0.00017785891
-0.00067922153
0.00017192917
-0.00070952251
0.00016499842
-0.00073796542
0.00015698223
-0.00076433939
0.00014783178
-0.00078842764
0.00013749772
-0.00081003136
0.00012595068
-0.00082893285
0.00011317727
-0.00084494382
9.9191506e-05
-0.00085788972
8.4022448e-05
-0.00086761621
6.7718308e-05
-0.00087399563
5.0350033e-05
-0.00087694085
3.203361e-05
-0.00087640773
1.2892896e-05
-0.00087186302
-6.8780167e-06
-0.00086380392
-2.7225269e-05
-0.00085200358
-4.7694533e-05
-0.0008362878
-6.8340848e-05
-0.00081616203
-8.9924116e-05
-0.00079217824
-0.00011148623
-0.00076450417
-0.00013332432
-0.00073328885
-0.00015534727
-0.00069866627
-0.00017739672
-0.00066073847
-0.00019930153
-0.00061960077
-0.00022087831
-0.00057534681
-0.0002419336
-0.000528089
-0.0002622592
-0.00047795835
-0.00028161254
-0.00042509678
-0.00029976547
-0.00036968853
-0.00031644114
-0.00031197882
-0.0003313729
-0.00025224807
-0.00034430559
-0.00019080221
-0.00035499961
-0.00012798783
-0.00036324778
-6.4187779e-05
-0.00036888977
2.1581187e-07
-0.00037181517
6.4620294e-05
-0.00037181634
0.00012842631
-0.0003688939
0.00019124839
-0.00036325589
0.00025269983
-0.00035501519
0.00031243901
-0.00034432649
0.00037016075
-0.00033139694
0.0004255791
-0.00031646843
0.00047845454
-0.00029979328
0.00052860014
-0.00028164392
0.00057587418
-0.00026229061
0.00062014342
-0.00024196251
0.00066129324
-0.00022090104
0.00069922511
-0.00019931478
0.00073384713
-0.00017739699
0.00076505846
-0.00015533258
0.00079272792
-0.00013329073
0.00081670084
-0.00011143518
0.00083680363
-8.9852807e-05
0.0008524876
-6.8250718e-05
0.00086425761
-4.7592062e-05
0.00087228202
-2.7108283e-05
0.00087679173
-6.7491901e-06
0.00087728808
1.3029994e-05
0.0008742957
3.2173961e-05
0.0008678658
5.0490953e-05
0.00085809272
6.7857593e-05
0.00084510657
8.4158145e-05
0.00082905742
9.9317555e-05
0.00081011931
0.00011329226
0.00078848046
0.00012605319
0.00076435851
0.00013758694
0.00073795668
0.00014790885
0.00070948746
0.00015704455
0.00067916282
0.00016504115
0.00064719891
0.00017195444
0.00061377783
0.00017786197
0.00057909359
0.0001828313
0.0005433235
0.00018695078
0.00050662984
0.00019030281
0.00046914886
0.00019297636
0.00043102567
0.00019506179
0.00039236806
0.00019663958
0.00035328413
0.00019779428
0.00031386383
0.00019860536
0.00027418764
0.00019913725
0.00023432458
0.00019945545
0.00019432186
0.00019961647
0.00015422979
0.00019970398
0.00011407945
0.00019954423
0.00019957834
-0.00011393097
0.00024013882
-0.00015412873
0.00024007669
-0.00019429348
0.00024018816
-0.00023441946
0.00024001923
-0.00027446505
0.00023974556
-0.00031437066
0.0002392493
-0.00035407563
0.00023848194
-0.00039351551
0.00023738079
-0.00043260324
0.00023584525
-0.00047122866
0.00023378357
-0.00050929122
0.00023110937
-0.00054665514
0.00022771392
-0.00058317254
0.00022349573
-0.00061867938
0.00021835039
-0.00065299704
0.00021217541
-0.00068594703
0.00020487805
-0.00071730606
0.00019635658
-0.00074686961
0.00018654508
-0.00077440707
0.00017536852
-0.0007996882
0.00016277787
-0.00082249491
0.00014875622
-0.00084260481
0.00013328623
-0.00085980238
0.00011638894
-0.000873888
9.8108916e-05
-0.00088468465
7.851627e-05
-0.00089204521
5.7711568e-05
-0.00089583604
3.5824604e-05
-0.0008959464
1.3002737e-05
-0.00089220218
-1.0622929e-05
-0.00088451149
-3.4916411e-05
-0.0008728722
-5.9333933e-05
-0.00085702805
-8.4184784e-05
-0.00083733396
-0.0001096176
-0.00081363161
-0.00013518743
-0.0007860681
-0.00016088617
-0.00075480342
-0.00018661018
-0.00071995858
-0.0002122406
-0.0006816328
-0.00023762803
-0.00063990975
-0.00026260324
-0.00059487465
-0.00028696989
-0.00054662292
-0.0003105107
-0.00049524885
-0.00033298558
-0.00044091635
-0.00035409548
-0.000383806
-0.00037354738
-0.00032415271
-0.00039102443
-0.00026224961
-0.00040621044
-0.0001984403
-0.00041880884
-0.00013312042
-0.00042856525
-6.6734563e-05
-0.00043527503
2.2640956e-07
-0.00043877525
6.7189695e-05
-0.00043877778
0.0001335814
-0.00043528602
0.00019890727
-0.00042858283
0.00026272624
-0.00041883327
0.00032464091
-0.00040624176
0.00038430522
-0.00039105943
0.0004414295
-0.00037358764
0.00049577299
-0.00035413811
0.0005471631
-0.00033303011
0.00059542799
-0.00031055717
0.00064047605
-0.00028701319
0.00068221267
-0.00026263559
0.00072054756
-0.00023764713
0.00075539295
-0.00021224201
0.0007866518
-0.00018658851
0.00081420941
-0.00016084221
0.00083789363
-0.00013511833
0.00085756488
-0.0001095265
0.00087338386
-8.4069087e-05
0.00088498748
-5.9193975e-05
0.00089263832
-3.4756819e-05
0.00089633853
-1.0447476e-05
0.00089618303
1.3187304e-05
0.00089234662
3.6012994e-05
0.00088493958
5.789737e-05
0.00087409912
7.8700612e-05
0.00085996702
9.8292461e-05
0.00084272404
0.00011656557
0.00082256936
0.00013344866
0.00079972391
0.00014890158
0.00077441014
0.00016290319
0.00074684248
0.00017547313
0.00071725244
0.00018663085
0.00068587039
0.00019642223
0.00065290529
0.00020491943
0.00061857141
0.00021219795
0.00058305658
0.00021834985
0.00054653405
0.00022347073
0.00050916952
0.00022766482
0.00047111407
0.00023103425
0.00043249895
0.00023367894
0.00039342875
0.0002357062
0.00035401414
0.0002372062
0.00031432185
0.00023829949
0.00027444306
0.00023901704
0.00023443254
0.00023946473
0.00019432307
0.00023972461
0.00015417161
0.0002398516
0.00011399813
0.00023971969
0.0002396918
-0.0001138647
0.00028028309
-0.0001541079
0.00028032093
-0.00019436201
0.00028044223
-0.00023461935
0.00028027526
-0.00027483981
0.00027996309
-0.00031500709
0.00027941278
-0.0003550716
0.00027854363
-0.0003949432
0.00027725183
-0.00043455449
0.00027545831
-0.0004737927
0.00027302504
-0.00051256879
0.00026988867
-0.00055075096
0.00026589788
-0.00058819156
0.0002609363
-0.00062472491
0.00025488258
-0.00066017142
0.00024762061
-0.00069432503
0.00023903065
-0.00072697019
0.00022900097
-0.00075788062
0.00021745463
-0.00078682391
0.0002043105
-0.00081353444
0.00018948676
-0.00083777754
0.00017299793
-0.00085930335
0.0001548117
-0.00087787327
0.00013495989
-0.00089326226
0.00011349975
-0.00090526492
9.0520537e-05
-0.00091369595
6.6143133e-05
-0.00091838921
4.0517254e-05
-0.00091921011
1.3822348e-05
-0.00091600531
-1.3829147e-05
-0.00090882245
-4.2100485e-05
-0.00089747394
-7.0683238e-05
-0.00088200589
-9.9652821e-05
-0.00086237291
-0.00012924931
-0.00083870247
-0.00015885538
-0.00081110051
-0.0001884853
-0.00077966779
-0.00021804095
-0.00074450685
-0.00024740135
-0.0007057014
-0.00027643519
-0.00066332379
-0.0003049835
-0.00061743042
-0.00033286466
-0.00056807889
-0.0003598611
-0.00051536702
-0.00038569562
-0.00045940945
-0.00041005237
-0.00040037836
-0.00043257748
-0.00033851187
-0.00045288926
-0.00027412028
-0.00047060215
-0.00020758021
-0.00048534935
-0.00013933227
-0.00049681062
-6.9875456e-05
-0.00050472921
2.4104338e-07
-0.00050889243
7.0358523e-05
-0.0005088962
0.00013981833
-0.00050474455
0.00020806911
-0.00049683461
0.00027461683
-0.00048537878
0.00033902008
-0.00047064154
0.0004008938
-0.00045293838
0.0004599419
-0.00043263275
0.00051591274
-0.000410113
0.0005686409
-0.00038575806
0.00061800847
-0.00035992178
0.00066391832
-0.00033292098
0.00070630885
-0.00030502684
0.00074512663
-0.00027646065
0.00078029073
-0.00024740628
0.00081171732
-0.00021801892
0.00083930905
-0.00018843098
0.00086296561
-0.00015876809
0.00088257208
-0.00012912863
0.00089800552
-9.9500833e-05
0.00090931593
-7.0504799e-05
0.00091645442
-4.1896415e-05
0.00091961928
-1.3611319e-05
0.00091875194
1.4054399e-05
0.00091400745
4.0759152e-05
0.00090552191
6.6384159e-05
0.00089346805
9.0757229e-05
0.00087802742
0.00011373124
0.00085940944
0.00013518306
0.00083783737
0.00015501833
0.00081355068
0.00017318482
0.0007868052
0.00018965342
0.00075783229
0.00020445311
0.00072689284
0.00021757057
0.00069421795
0.00022909182
0.00066004297
0.00023909294
0.00062458252
0.00024765511
0.00058804051
0.0002548907
0.00055059804
0.00026091603
0.00051241872
0.00026584611
0.00047364752
0.00026980468
0.00043441578
0.00027291363
0.00039482479
0.0002753002
0.00035496696
0.00027706171
0.00031494104
0.00027832174
0.00027480282
0.00027915343
0.00023457899
0.00027968635
0.0001943493
0.00027995019
0.00015410995
0.00028008601
0.0001138806
0.00027994523
0.00027983193
-0.00011370869
0.00032048454
-0.00015403984
0.00032065362
-0.00019442598
0.00032082825
-0.00023487043
0.00032071708
-0.00027535507
0.0003204431
-0.00031584239
0.00031989561
-0.00035628712
0.00031898603
-0.00039664477
0.00031761016
-0.00043683237
0.00031564903
-0.0004768193
0.00031301582
-0.00051644597
0.00030951799
-0.00055559392
0.00030504638
-0.00059412038
0.00029946177
-0.00063186081
0.0002926217
-0.00066862145
0.00028438042
-0.00070419489
0.00027460376
-0.00073836068
0.00026316634
-0.00077085739
0.00024995023
-0.00080142441
0.00023487564
-0.00082982372
0.00021788412
-0.00085574643
0.00019891967
-0.00087892233
0.00017798827
-0.00089908323
0.00015512273
-0.00091597472
0.00013039333
-0.0009293603
0.00010390726
-0.0009390265
7.5809159e-05
-0.00094478668
4.627629e-05
-0.00094648612
1.5520211e-05
-0.00094399733
-1.6319562e-05
-0.00093719141
-4.8907808e-05
-0.00092614393
-8.173141e-05
-0.00091083606
-0.00011495999
-0.00089133722
-0.00014874572
-0.00086763816
-0.00018255086
-0.00083987659
-0.00021624365
-0.00080816054
-0.00024975558
-0.00077258025
-0.00028298218
-0.00073321932
-0.0003157978
-0.00069010537
-0.00034809947
-0.00064326972
-0.000379702
-0.00059273729
-0.00041039395
-0.00053854845
-0.00043988387
-0.00048078525
-0.00046781568
-0.00041959553
-0.00049376776
-0.00035521021
-0.00051727305
-0.00028795508
-0.0005378543
-0.00021824903
-0.00055505478
-0.00014659154
-0.00056846909
-7.3546531e-05
-0.00057777264
2.5838382e-07
-0.00058269611
7.4059459e-05
-0.00058269909
0.00014710419
-0.00057778609
0.00021876343
-0.00056849304
0.0002884689
-0.00055508795
0.00035573087
-0.00053789965
0.00042012263
-0.00051733488
0.00048132826
-0.00049383927
0.00053910895
-0.0004678936
0.0005933187
-0.00043996595
0.00064386989
-0.00041047506
0.00069072617
-0.00037977682
0.00073385799
-0.00034816156
0.00077323465
-0.00031583676
0.00080882171
-0.00028298871
0.00084053611
-0.00024972954
0.00086828626
-0.00021617891
0.00089196507
-0.00018244568
0.00091143727
-0.00014860124
0.00092670901
-0.00011477396
0.00093771635
-8.1510534e-05
0.00094446554
-4.8643704e-05
0.00094691032
-1.6052738e-05
0.00094515954
1.5807853e-05
0.0009393413
4.657695e-05
0.00092961384
7.6110607e-05
0.00091617077
0.00010420301
0.00089922518
0.00013068096
0.00087901351
0.0001553988
0.00085579052
0.00017824625
0.00082982303
0.00019915189
0.00080137975
0.00021808904
0.00077077662
0.00023505195
0.00073825175
0.00025009716
0.00070405593
0.00026328346
0.00066846001
0.00027469027
0.0006316854
0.00028443335
0.00059393636
0.00029263781
0.00055540735
0.00029944115
0.00051626543
0.00030498656
0.00047664732
0.00030942101
0.00043668457
0.0003128746
0.00039650013
0.00031548392
0.00035615579
0.00031740567
0.00031573319
0.00031874615
0.00027526827
0.00031962007
0.00023481734
0.0003201392
0.00019439376
0.00032037231
0.0001540305
0.00032044894
0.00011371812
0.00032025253
0.00032002464
-0.00011348853
0.00036075005
-0.0001538971
0.00036106414
-0.00019442504
0.0003613553
-0.00023506673
0.00036135494
-0.00027581859
0.00036118998
-0.00031666294
0.00036073616
-0.0003575691
0.00035989114
-0.00039851343
0.00035855636
-0.00043941984
0.00035655879
-0.00048020204
0.0003538007
-0.00052078509
0.0003501017
-0.00056105384
0.00034531407
-0.00060083107
0.00033923756
-0.0006399647
0.00033175465
-0.00067825448
0.00032267046
-0.00071548155
0.0003118313
-0.00075140177
0.00029908628
-0.0007857517
0.00028429868
-0.00081824667
0.00026736846
-0.00084857953
0.00024821537
-0.00087644436
0.00022678447
-0.00090153251
0.00020307794
-0.00092353891
0.00017713124
-0.00094216654
0.00014902246
-0.00095714034
0.00011888142
-0.00096821467
8.688295e-05
-0.00097517868
5.3239319e-05
-0.00097784205
1.8182417e-05
-0.00097608977
-1.8073077e-05
-0.00096990073
-5.5097766e-05
-0.00095910342
-9.2528608e-05
-0.00094388669
-0.00013017497
-0.00092439681
-0.00016823239
-0.00090054004
-0.00020640392
-0.00087249467
-0.00024428614
-0.00084038835
-0.00028186077
-0.00080432052
-0.00031905055
-0.00076431871
-0.00035580101
-0.0007204243
-0.00039199565
-0.00067260924
-0.0004275193
-0.00062083694
-0.0004621686
-0.0005650789
-0.00049564287
-0.00050535588
-0.00052753763
-0.00044177344
-0.00055734899
-0.00037455078
-0.00058449548
-0.00030403005
-0.00060837347
-0.0002306764
-0.00062840667
-0.00015506414
-0.0006440843
-7.7841893e-05
-0.00065499705
2.7173184e-07
-0.0006608061
7.8380816e-05
-0.00066080853
0.0001556018
-0.00065500635
0.00023121679
-0.00064410424
0.00030456717
-0.00062844261
0.00037508984
-0.00060842408
0.00044232006
-0.00058456491
0.00050591663
-0.00055743574
0.00056565714
-0.00052763778
0.00062144199
-0.00049574839
0.00067323989
-0.00046227417
0.00072107783
-0.0004276178
0.00076499298
-0.00039207851
0.000805011
-0.00035585548
0.00084109348
-0.00031906975
0.00087320164
-0.00028183331
0.00090123552
-0.00024420801
0.00092507001
-0.00020627501
0.00094452976
-0.00016805472
0.00095970561
-0.00012994752
0.00097044576
-9.2248059e-05
0.00097659232
-5.4787458e-05
0.00097828418
-1.77441e-05
0.00097555986
1.8532454e-05
0.00096853321
5.3604425e-05
0.00095739415
8.725123e-05
0.0009423571
0.00011924142
0.00092366877
0.00014936987
0.00090160468
0.00017746213
0.00087646258
0.00020338705
0.00084854977
0.00022706822
0.00081817142
0.00024846801
0.00078563716
0.00026758454
0.00075125766
0.00028448029
0.00071531002
0.00029923118
0.00067806031
0.00031193792
0.00063975394
0.00032273814
0.00060061016
0.00033178186
0.00056082933
0.00033922585
0.00052056805
0.00034525039
0.0004799944
0.00034999591
0.00043921676
0.00035365278
0.00039832637
0.00035637451
0.00035740716
0.00035832494
0.0003165237
0.00035963072
0.00027570593
0.00036043943
0.00023498213
0.0003608594
0.00019436908
0.00036098398
0.00015386616
0.00036095227
0.00011348558
0.00036063284
0.00036026527
-0.00011315663
0.00040105342
-0.00015365514
0.00040156371
-0.00019430554
0.00040200368
-0.00023514126
0.0004021866
-0.00027618044
0.00040222501
-0.00031741202
0.00040196544
-0.00035882503
0.0004013046
-0.00040038435
0.000400118
-0.00044206711
0.00039824368
-0.00048379069
0.00039552464
-0.00052546159
0.00039177115
-0.00056695718
0.00038680773
-0.00060817907
0.00038045849
-0.00064890586
0.00037248194
-0.00068894612
0.000362712
-0.00072806821
0.00035095421
-0.0007660139
0.0003370314
-0.00080249844
0.00032078146
-0.00083719629
0.0003020645
-0.00086978047
0.00028079892
-0.00089990705
0.00025691192
-0.00092721267
0.00023038523
-0.00095135408
0.00020127405
-0.00097198944
0.00016965842
-0.00098880005
0.00013569207
-0.001001496
9.9578827e-05
-0.0010098298
6.1573026e-05
-0.0010136097
2.1961958e-05
-0.0010126732
-1.9010071e-05
-0.0010069425
-6.0828627e-05
-0.00099635956
-0.00010311058
-0.00098125589
-0.00014527632
-0.00096170723
-0.0001877779
-0.00093752172
-0.0002305863
-0.00090905968
-0.00027274584
-0.00087645151
-0.00031446778
-0.00083978587
-0.00035571642
-0.00079912914
-0.00039645928
-0.00075445204
-0.00043667502
-0.000705672
-0.00047630134
-0.00065266286
-0.00051517917
-0.00059529747
-0.00055300942
-0.0005335008
-0.00058933382
-0.00046730816
-0.00062353939
-0.00039691328
-0.00065489092
-0.0003226806
-0.00068260914
-0.00024513434
-0.00070595171
-0.00016493915
-0.00072427907
-8.2856049e-05
-0.00073708483
2.8198574e-07
-0.00074394339
8.3420836e-05
-0.00074394441
0.0001655051
-0.00073709076
0.00024570115
-0.00072429864
0.00032324982
-0.00070598889
0.00039748664
-0.00068266494
0.00046788702
-0.00065496878
0.00053409206
-0.00062363955
0.0005959086
-0.00058945585
0.00065330214
-0.000553145
0.00070634412
-0.00051531748
0.00075515405
-0.00047643083
0.00079985713
-0.0004367817
0.00084053703
-0.00039653092
0.00087721551
-0.00035574344
0.00090982665
-0.00031444084
0.00093827752
-0.00027265636
0.00096243705
-0.00023043401
0.00098195747
-0.00018757179
0.00099701677
-0.00014500554
0.0010075196
-0.00010275376
0.0010131968
-6.0467178e-05
0.0010140696
-1.8614849e-05
0.0010102251
2.2381264e-05
0.0010018246
6.2010239e-05
0.00098905683
0.00010001979
0.00097217467
0.00013612407
0.00095146934
0.00017007477
0.00092726437
0.00020166953
0.0008999008
0.0002307524
0.00086971973
0.00025725116
0.00083708679
0.00028110171
0.0008023487
0.00030232422
0.00076582966
0.0003209991
0.00072785789
0.00033720466
0.00068871587
0.00035108284
0.00064865992
0.00036279365
0.00060792369
0.00037251447
0.00056671069
0.00038043977
0.000525212
0.00038675017
0.00048354867
0.00039166363
0.00044183802
0.00039536743
0.00040017386
0.00039803997
0.00035863023
0.00039987035
0.00031724042
0.00040101741
0.00027603625
0.00040164072
0.00023502924
0.00040186018
0.00019422064
0.00040179155
0.00015359939
0.00040156997
0.0001131341
0.00040109806
0.00040053989
-0.00011267681
0.00044136177
-0.00015322752
0.00044211385
-0.00019398522
0.00044275874
-0.00023499931
0.00044319715
-0.0002763336
0.00044355667
-0.00031795042
0.00044358184
-0.00035989592
0.00044325158
-0.00040214672
0.00044237044
-0.00044467439
0.00044077142
-0.00048742154
0.00043826994
-0.00053030613
0.00043465318
-0.0005732221
0.00042972207
-0.00061601553
0.00042325208
-0.00065853016
0.0004149981
-0.00070055087
0.00040473428
-0.0007418308
0.00039223452
-0.00078208777
0.00037728734
-0.00082100858
0.00035970074
-0.00085825266
0.00033930777
-0.00089342699
0.00031597366
-0.00092615433
0.0002896404
-0.00095603707
0.00026026895
-0.00098265247
0.0002278899
-0.0010056081
0.00019261439
-0.0010245308
0.00015461536
-0.0010390833
0.00011413234
-0.0010489798
7.1470446e-05
-0.0010539993
2.6981754e-05
-0.0010540105
-1.8998818e-05
-0.0010485845
-6.6254259e-05
-0.0010385075
-0.00011318639
-0.0010232297
-0.00016055199
-0.0010032113
-0.00020779377
-0.00097865714
-0.00025513806
-0.00094965021
-0.00030175099
-0.00091640785
-0.00034770927
-0.00087909079
-0.00039303354
-0.00083775318
-0.00043779783
-0.0007923398
-0.00048209014
-0.00074268564
-0.00052595685
-0.00068853573
-0.00056932891
-0.00062961206
-0.00061193362
-0.00056569371
-0.00065325464
-0.00049670325
-0.00069252956
-0.00042278251
-0.00072880951
-0.00034432816
-0.00076106701
-0.00026195341
-0.00078833011
-0.00017644263
-0.0008097877
-8.8697224e-05
-0.00082483018
3.0186181e-07
-0.00083294407
8.9300545e-05
-0.00083294075
0.00017704564
-0.00082483235
0.00026255215
-0.00080980932
0.00034493006
-0.00078836593
0.0004233889
-0.0007611237
0.00049731671
-0.00072889685
0.00056631805
-0.00069264739
0.00063026084
-0.00065339889
0.00068921513
-0.00061210107
0.00074340556
-0.00056950672
0.00079310255
-0.00052612758
0.00083855093
-0.0004822337
0.00087991617
-0.00043789801
0.00091725132
-0.00039307738
0.00095049539
-0.00034768329
0.0009794895
-0.00030164571
0.0010040117
-0.00025495478
0.0010239754
-0.00020753804
0.0010391973
-0.0001602277
0.0010492372
-0.00011278975
0.0010545856
-6.5812011e-05
0.0010544969
-1.8523232e-05
0.0010493952
2.7482459e-05
0.0010394195
7.1988362e-05
0.0010247879
0.00011465467
0.0010057864
0.00015512871
0.00098275195
0.00019310938
0.00095606257
0.00022835875
0.00092611273
0.00026070458
0.00089333039
0.00029003453
0.00085810307
0.00031632397
0.0008208144
0.00033961279
0.00078185793
0.00035995136
0.00074157438
0.00037748698
0.00070027486
0.00039238482
0.00065823988
0.0004048324
0.00061571644
0.00041504028
0.00057292105
0.00042323809
0.00053001353
0.00042965386
0.0004871433
0.00043453223
0.00044440901
0.0004381027
0.00040190011
0.00044054788
0.00035967072
0.00044210144
0.00031775158
0.00044293788
0.00027615716
0.00044323196
0.00023486175
0.00044315353
0.0001938803
0.00044277545
0.00015315539
0.00044229592
0.00011263515
0.00044161587
0.00044082025
-0.00011201243
0.00048163037
-0.0001525721
0.00048267154
-0.00019340867
0.0004835924
-0.00023459876
0.00048438469
-0.00027616113
0.00048511827
-0.00031819226
0.00048561411
-0.00036067866
0.00048573957
-0.00040363691
0.00048532895
-0.0004470604
0.00048419319
-0.00049090354
0.00048211024
-0.00053511181
0.00047885916
-0.00057956561
0.00047417533
-0.00062413632
0.00046782395
-0.00066864845
0.00045951194
-0.00071289528
0.00044898199
-0.00075661364
0.00043595242
-0.00079949734
0.0004201699
-0.00084120814
0.00040141083
-0.0008813635
0.00037946341
-0.00091952824
0.00035413922
-0.00095526956
0.00032538229
-0.00098811202
0.00029311152
-0.0010175878
0.00025736585
-0.0010432306
0.00021825827
-0.0010645987
0.00017598531
-0.0010812934
0.00013082896
-0.0010929708
8.3149e-05
-0.0010993476
3.3358879e-05
-0.0011001596
-1.8186867e-05
-0.0010955765
-7.0837015e-05
-0.0010853336
-0.00012342817
-0.0010697959
-0.00017608816
-0.0010494043
-0.00022818364
-0.001024153
-0.00028038769
-0.00099433235
-0.00033157037
-0.00096028899
-0.00038175204
-0.00092222455
-0.00043109766
-0.00088022151
-0.00047980005
-0.00083419159
-0.00052811992
-0.00078386614
-0.00057628438
-0.00072881031
-0.00062438647
-0.00066851589
-0.00067222764
-0.00060253133
-0.00071924064
-0.00053059964
-0.00076446327
-0.00045277966
-0.00080662649
-0.00036950087
-0.00084434492
-0.00028152544
-0.00087631152
-0.00018982752
-0.00090148813
-9.5488397e-05
-0.00091916394
3.340977e-07
-0.00092876313
9.6146369e-05
-0.00092875606
0.00019047484
-0.00091915818
0.00028216144
-0.00090149698
0.00037013009
-0.00087633412
0.00045340458
-0.00084440231
0.00053122971
-0.00080671843
0.00060317681
-0.00076460019
0.00066919183
-0.00071941723
0.00072952515
-0.00067243646
0.0007846324
-0.00062461321
0.00083501658
-0.00057650869
0.00088109795
-0.00052831495
0.00092314048
-0.00047993776
0.00096123085
-0.00043116046
0.00099527937
-0.00038173038
0.001025084
-0.00033145319
0.0010502981
-0.00028017156
0.0010706385
-0.00022788117
0.0010861077
-0.0001756978
0.0010962788
-0.00012295802
0.0011007766
-7.0307576e-05
0.0010998832
-1.7629354e-05
0.0010934127
3.3955242e-05
0.0010816398
8.3763189e-05
0.001064853
0.0001314452
0.001043396
0.00017658827
0.0010176664
0.00021883801
0.00098810941
0.00025791313
0.00095519602
0.00029361757
0.0009193924
0.00032584073
0.00088116929
0.00035454644
0.00084096861
0.00037981895
0.00079921825
0.00040170521
0.00075630692
0.00042039994
0.00071256788
0.00043611907
0.00066830646
0.00044908607
0.00062378701
0.00045955533
0.00057921996
0.00046780765
0.00053477475
0.00047410011
0.00049058014
0.00047872491
0.00044675839
0.00048192098
0.00040335499
0.00048394759
0.00036042102
0.00048503604
0.00031796537
0.0004854006
0.00027596536
0.00048523067
0.00023442694
0.0004846916
0.00019327699
0.00048392409
0.00015247871
0.00048309661
0.00011195517
0.00048213726
0.00048105729
-0.00011111929
0.00052178396
-0.00015162519
0.00052317424
-0.00019246886
0.00052443327
-0.00023375231
0.00052566696
-0.00027555115
0.00052691793
-0.00031794576
0.00052801046
-0.0003609721
0.00052876682
-0.0004046641
0.00052901998
-0.00044902682
0.00052855346
-0.00049403725
0.00052711822
-0.00053965536
0.00052447617
-0.00058578786
0.00052030843
-0.00063230777
0.00051434525
-0.00067904114
0.00050624616
-0.00072576451
0.00049570503
-0.00077222349
0.00048241037
-0.00081807938
0.00046602511
-0.0008629502
0.00044628187
-0.00090641374
0.0004229276
-0.00094802891
0.00039575469
-0.00098724405
0.0003645972
-0.0010235295
0.00032939693
-0.0010563291
0.00029016657
-0.0010850939
0.00024702543
-0.0011092987
0.0002001928
-0.0011284625
0.00014999454
-0.0011421758
9.6862683e-05
-0.0011501447
4.13273e-05
-0.0011520557
-1.6276398e-05