/*--------------------------------*- C++ -*----------------------------------*\
  =========                 |
  \\      /  F ield         | OpenFOAM: The Open Source CFD Toolbox
   \\    /   O peration     | Website:  https://openfoam.org
    \\  /    A nd           | Version:  9
     \\/     M anipulation  |
\*---------------------------------------------------------------------------*/
FoamFile
{
    format      ascii;
    class       volScalarField;
    location    "0.91";
    object      alpha.phase1;
}
// * * * * * * * * * * * * * * * * * * * * * * * * * * * * * * * * * * * * * //

dimensions      [0 0 0 0 0 0 0];

internalField   nonuniform List<scalar> 
10000
(
5.4483112e-84
2.2096045e-83
9.6588837e-82
4.2127457e-81
4.7247195e-81
1.7863179e-81
5.8784211e-82
5.7934475e-82
1.8880536e-81
2.454811e-79
2.9300073e-77
3.1261899e-75
3.0312282e-73
2.6943747e-71
2.2030716e-69
1.6646025e-67
1.1670349e-65
7.6222472e-64
4.6860788e-62
2.8618335e-60
2.4407561e-58
5.2034754e-56
1.7690692e-53
5.8513716e-51
1.7047913e-48
4.3195833e-46
9.506435e-44
1.8176713e-41
3.0211941e-39
4.3684607e-37
5.5002643e-35
6.0382849e-33
5.7904409e-31
4.8623101e-29
3.5862206e-27
2.3315223e-25
1.3413454e-23
6.8561506e-22
3.1243365e-20
1.2735613e-18
4.7867826e-17
1.8148556e-15
3.8268826e-14
2.3991875e-13
4.8306157e-12
1.0659523e-10
2.6300773e-08
4.2066736e-07
1.5962722e-06
1.6088796e-06
1.690027e-06
1.7973999e-06
1.9071942e-06
2.0167351e-06
4.4911511e-06
4.1029187e-06
1.4932048e-06
7.7612982e-07
7.7612982e-07
1.2379696e-06
1.9439535e-06
1.2009615e-06
1.3075692e-07
4.2187843e-10
2.0872404e-11
2.1244487e-12
4.2005934e-13
1.7561896e-13
2.5629318e-14
1.1900903e-15
2.9570844e-17
7.374444e-19
1.8277351e-20
3.9319387e-22
7.1840075e-24
1.1160803e-25
1.4643721e-27
1.6033648e-29
1.4413742e-31
1.0408602e-33
5.8609229e-36
2.467735e-38
7.294729e-41
1.3620518e-43
1.3002117e-46
3.5508453e-50
1.1519168e-53
4.623113e-56
1.6211615e-58
4.9155767e-61
1.2784879e-63
4.1271307e-65
4.5978966e-65
1.1215652e-62
1.0236725e-60
5.5869165e-59
1.9514025e-57
4.6960064e-56
8.0484822e-55
4.9609942e-54
5.4485462e-84
1.8951414e-82
6.6582206e-81
2.9498594e-80
3.8189874e-80
2.8579692e-80
1.5349402e-80
7.7594958e-81
4.126631e-80
6.0128263e-78
7.6467373e-76
8.6797003e-74
8.8895991e-72
8.2900034e-70
7.0886629e-68
5.5944804e-66
4.0949161e-64
2.7900178e-62
1.7794144e-60
1.0743199e-58
6.6247352e-57
6.5639626e-55
1.6712411e-52
5.6637246e-50
1.764804e-47
4.78553e-45
1.1229547e-42
2.2816999e-40
4.0191375e-38
6.1447881e-36
8.1645689e-34
9.4425566e-32
9.5240606e-30
8.3983954e-28
6.4946202e-26
4.4204044e-24
2.65825e-22
1.4168115e-20
6.7269729e-19
2.9777316e-17
1.2794739e-15
2.8743179e-14
2.2724202e-13
4.8209479e-12
1.0632365e-10
1.5142473e-09
1.1741178e-06
1.0439054e-05
1.3814299e-05
1.3475434e-05
1.0932851e-05
1.2109238e-05
9.6926879e-06
1.387034e-05
1.6345903e-05
1.6144689e-05
8.1323706e-06
8.0054371e-07
7.7612982e-07
7.941562e-07
6.0938564e-06
7.9255739e-06
4.4648688e-06
1.2034113e-08
3.6871964e-10
3.3544388e-11
2.0188677e-12
1.144796e-13
2.3706799e-14
2.0202461e-15
5.3713858e-17
9.9885657e-19
2.1251837e-20
4.3193102e-22
7.5821693e-24
1.1357293e-25
1.4406731e-27
1.5280238e-29
1.3345337e-31
9.4244493e-34
5.1427506e-36
2.0100607e-38
5.606033e-41
1.0546488e-43
1.3066632e-46
8.1888834e-50
3.9820366e-53
1.6319215e-55
5.7549197e-58
1.7252651e-60
4.7947157e-63
6.4206368e-64
1.8616015e-61
2.3376623e-59
1.7526516e-57
8.1936542e-56
2.5175801e-54
4.528777e-53
2.7690285e-52
3.3072349e-52
3.2867602e-81
2.4667631e-79
5.9535475e-78
2.0297703e-77
2.3766334e-77
1.7139301e-77
8.8390796e-78
4.2982791e-78
1.7002111e-77
2.5720419e-75
3.3653924e-73
3.9096459e-71
4.0806674e-69
3.8646043e-67
3.3457027e-65
2.6654204e-63
1.9650963e-61
1.3472334e-59
8.6196096e-58
5.1601007e-56
2.9002862e-54
1.5385211e-52
8.1318338e-51
6.1557015e-49
1.1395193e-46
3.1478666e-44
7.8644422e-42
1.6549343e-39
2.9870693e-37
4.6852989e-35
6.4025978e-33
7.6262722e-31
7.9266823e-29
7.2016337e-27
5.7324377e-25
4.0092282e-23
2.4707619e-21
1.3462184e-19
6.6903861e-18
3.2808398e-16
9.318819e-15
8.2193257e-14
2.3225244e-12
6.7248279e-11
1.7356369e-09
4.8045114e-07
1.0873177e-05
1.3964329e-05
1.3789183e-05
1.1075299e-05
1.3065225e-05
1.3485968e-05
1.2661931e-05
1.5379775e-05
1.8536696e-05
1.585373e-05
7.3057291e-06
8.8980953e-07
8.0127114e-07
7.9568606e-07
1.1325046e-06
7.9210928e-06
8.0263487e-06
7.7661557e-06
1.1418288e-06
5.6522783e-10
4.3498192e-11
2.09853e-12
1.0617528e-13
4.7268207e-14
9.3647381e-15
2.5542209e-16
1.4324669e-18
1.3002041e-20
1.7257633e-22
2.0634946e-24
2.0963953e-26
1.8206179e-28
1.3625463e-30
8.0204537e-33
2.3293741e-35
3.5447137e-38
4.3282972e-41
8.1584627e-45
2.036806e-47
7.7760614e-50
3.5067315e-52
1.3916836e-54
4.702746e-57
1.342399e-59
5.5341297e-62
1.6621091e-60
2.7211324e-58
2.7701604e-56
1.7699816e-54
7.3545031e-53
2.0372226e-51
3.2487003e-50
1.9080147e-49
2.6571823e-49
1.7937664e-78
1.8777293e-76
3.3953719e-75
9.4718587e-75
1.0421495e-74
7.3797008e-75
3.7160787e-75
1.7710009e-75
5.822697e-75
9.2022978e-73
1.2481983e-70
1.4930687e-68
1.5973823e-66
1.5442848e-64
1.3614028e-62
1.1015619e-60
8.2295814e-59
5.706271e-57
3.6872003e-55
2.2301224e-53
1.2671824e-51
6.7240262e-50
3.286916e-48
1.5310041e-46
7.9278766e-45
5.0396259e-43
3.3069786e-41
3.2975205e-39
6.1546986e-37
1.0519896e-34
1.5265386e-32
1.9086351e-30
2.0664992e-28
1.9409467e-26
1.5848892e-24
1.1284623e-22
7.0250263e-21
3.8504943e-19
1.9632466e-17
9.7007352e-16
2.3649683e-14
1.8122192e-13
5.3945804e-12
1.6588408e-10
4.5844422e-09
2.986516e-06
1.1000439e-05
8.941805e-06
2.9792986e-07
5.2152442e-08
5.2856543e-08
1.0230667e-06
9.708447e-06
1.3574228e-05
1.8612786e-05
1.5980438e-05
7.2986639e-06
2.6439355e-06
3.4178549e-06
2.1238361e-06
1.5014273e-06
1.6856976e-06
6.3901112e-06
9.2258382e-06
5.7950342e-06
1.8389184e-07
1.225119e-09
4.9678529e-11
1.7311751e-12
6.3272366e-14
9.2890619e-15
3.4433201e-16
4.7412621e-18
6.9649013e-20
9.8513923e-22
1.1857232e-23
1.1524756e-25
8.5548505e-28
4.9339868e-30
2.2314165e-32
9.6537969e-35
3.0040947e-37
5.8676901e-40
5.6263147e-43
1.5964865e-46
4.9288472e-49
2.1785229e-51
8.2239077e-54
2.6574738e-56
8.1098824e-59
6.5019433e-60
2.0743045e-57
2.7182194e-55
2.3040719e-53
1.2776594e-51
4.764484e-50
1.1987429e-48
1.7169446e-47
9.4752172e-47
1.4213048e-46
7.0848875e-76
8.428159e-74
1.3300802e-72
3.3291456e-72
3.5204301e-72
2.4735362e-72
1.2275325e-72
5.7506011e-73
1.5803232e-72
2.6519876e-70
3.7712234e-68
4.678971e-66
5.1564681e-64
5.1106418e-62
4.5993662e-60
3.7883431e-58
2.8730422e-56
2.0176358e-54
1.3179127e-52
8.0396661e-51
4.6002795e-49
2.4577336e-47
1.2064882e-45
5.5583476e-44
2.8369332e-42
1.9430287e-40
1.0766004e-38
2.7310442e-37
3.8911015e-36
1.1230556e-34
1.247069e-32
1.6900998e-30
1.875151e-28
1.790964e-26
1.4820297e-24
1.0648577e-22
6.6498013e-21
3.6340059e-19
1.8600857e-17
9.4818466e-16
2.2328951e-14
1.4711539e-13
4.7592316e-12
1.5914896e-10
4.2564382e-09
2.4686033e-06
5.2319044e-06
5.347293e-08
5.2217254e-08
5.1838586e-08
5.2203363e-08
2.2854036e-06
2.2556994e-05
4.9738431e-05
6.5409982e-05
6.6027026e-05
5.2590694e-05
2.2980962e-05
5.6105945e-05
6.9532214e-05
3.7095524e-05
1.8997715e-06
3.9189285e-06
9.4677349e-06
8.5295832e-06
1.0320208e-06
3.4548621e-09
1.3588432e-10
4.4600096e-12
1.3806551e-13
1.4681853e-14
5.1342425e-16
8.2879772e-18
1.1527981e-19
1.3799803e-21
1.3759819e-23
1.2035762e-25
9.3219788e-28
5.6079593e-30
2.4694878e-32
6.6825992e-35
1.0560936e-37
7.9601346e-41
9.6388525e-44
4.5533808e-46
2.0544613e-48
8.1794375e-51
2.9383461e-53
9.7139853e-56
5.5593581e-58
1.2185029e-56
1.8837708e-54
2.0221873e-52
1.4535107e-50
7.0765856e-49
2.3824848e-47
5.4629934e-46
7.0803147e-45
3.6415518e-44
5.6600865e-44
2.157687e-73
2.7042791e-71
3.9836125e-70
9.3901687e-70
9.67103e-70
6.7810609e-70
3.3350826e-70
1.530712e-70
3.3327058e-70
6.1237083e-68
9.2951556e-66
1.2091922e-63
1.3817088e-61
1.4098835e-59
1.2993703e-57
1.0913751e-55
8.4121368e-54
5.982553e-52
3.9470191e-50
2.425894e-48
1.3939397e-46
7.4670539e-45
3.6817061e-43
1.6936935e-41
8.2528378e-40
5.2213526e-38
3.1720936e-36
9.8081735e-35
1.3650327e-33
1.138604e-32
9.6564561e-32
1.8205874e-30
1.093496e-28
9.515994e-27
7.9038427e-25
5.869562e-23
3.9531574e-21
2.2533484e-19
1.1035018e-17
4.9060611e-16
1.4685731e-14
1.8286234e-13
4.4050809e-12
1.9398915e-10
5.550229e-08
9.9512084e-07
1.0672354e-06
1.0758443e-07
5.1838481e-08
5.1479413e-08
5.1833035e-08
8.2845877e-06
6.0524234e-05
6.3358402e-05
6.5661894e-05
6.7919106e-05
6.9178391e-05
6.9501219e-05
6.9532647e-05
6.9530486e-05
6.9531381e-05
5.866966e-05
1.0563119e-05
9.6405282e-06
9.0284218e-06
2.3991409e-06
6.0969945e-09
2.120922e-10
6.2495145e-12
1.7279066e-13
2.0755387e-14
6.5551223e-16
8.7211189e-18
1.146966e-19
1.3895563e-21
1.3666186e-23
1.0291408e-25
5.6835519e-28
2.3000268e-30
6.1907558e-33
9.0915536e-36
7.3744537e-39
1.9362537e-41
1.1137747e-43
5.9190918e-46
2.9182325e-48
1.3646911e-50
6.1859811e-53
3.0509271e-55
3.6582583e-56
1.0432165e-53
1.3116594e-51
1.1728767e-49
7.2505959e-48
3.1288515e-46
9.5646615e-45
2.0021751e-43
2.3571741e-42
1.1260362e-41
1.7715777e-41
5.9134177e-71
6.8193636e-69
9.7079572e-68
2.2121759e-67
2.2408092e-67
1.5729878e-67
7.7049219e-68
3.4130694e-68
5.1630359e-68
1.1138529e-65
1.8724678e-63
2.6012103e-61
3.1157913e-59
3.294976e-57
3.123844e-55
2.6832901e-53
2.1057454e-51
1.5195244e-49
1.0131072e-47
6.2741746e-46
3.6198134e-44
1.9413093e-42
9.5986892e-41
4.4444074e-39
2.1054539e-37
1.1485861e-35
6.2189973e-34
2.2396664e-32
4.357772e-31
4.6864989e-30
3.3104831e-29
2.1466847e-28
2.1498069e-27
6.3859695e-26
4.2962639e-24
1.988076e-22
4.8610446e-21
1.1050056e-19
3.6782446e-18
1.455866e-16
5.2436589e-15
1.199024e-13
1.8976617e-12
9.4157506e-11
5.9216877e-09
2.4890759e-07
1.114912e-06
2.5608093e-07
1.6374741e-07
5.0831978e-08
1.5538809e-07
8.9551833e-06
1.2028097e-05
3.8432033e-05
3.4809816e-05
2.1299693e-05
2.2437103e-05
5.2940391e-05
6.9510506e-05
6.9531865e-05
6.95245e-05
6.9516332e-05
3.7996092e-05
6.6110253e-06
9.045292e-06
3.6389699e-06
5.9270088e-09
3.6671674e-10
1.6258198e-11
5.6611051e-13
2.9340715e-14
6.5240922e-16
9.063261e-18
1.0093184e-19
9.0873744e-22
6.4246196e-24
3.3617754e-26
1.2262756e-28
2.9194777e-31
4.725262e-34
1.4311578e-36
9.0593742e-39
5.6342373e-41
3.4311552e-43
1.9709482e-45
1.1242107e-47
5.8607005e-50
2.4033404e-52
1.9063756e-54
5.1049655e-53
6.8956702e-51
7.2244983e-49
5.4614641e-47
2.9364765e-45
1.1322005e-43
3.1537601e-42
6.0377993e-41
6.4752136e-40
2.8710099e-39
4.5059778e-39
2.9606931e-68
1.4292093e-66
1.9972451e-65
4.4766589e-65
4.4897546e-65
3.1658958e-65
1.5605052e-65
6.2793606e-66
4.2822204e-66
1.4519687e-63
2.9630716e-61
4.5606512e-59
5.8344875e-57
6.4656908e-55
6.3502463e-53
5.6081026e-51
4.4972403e-49
3.2995561e-47
2.228528e-45
1.3926352e-43
8.0769003e-42
4.3390337e-40
2.1501321e-38
1.0026586e-36
4.6859843e-35
2.276037e-33
1.0418557e-31
4.0361583e-30
1.1567132e-28
1.789318e-27
1.3246048e-26
6.0475564e-26
2.8404571e-25
3.501014e-24
3.192608e-22
2.0692336e-20
3.8060269e-19
2.8367862e-18
1.7074864e-17
1.842388e-16
3.4973174e-15
7.9273566e-14
1.2757278e-12
1.186723e-11
4.4797207e-11
9.9317617e-08
4.3851349e-07
2.5996108e-07
1.6437776e-07
5.0339749e-08
2.7956901e-06
4.7413837e-06
2.320115e-06
9.6781675e-07
4.0219508e-07
3.1607717e-07
3.0614902e-07
3.0512064e-07
2.8251874e-06
1.4911355e-05
3.7763948e-05
6.9154225e-05
1.72024e-05
5.7574615e-06
5.6055678e-06
2.9657079e-06
2.6294179e-08
7.2528917e-10
1.8685165e-11
4.0491492e-13
1.438592e-14
2.5995923e-16
3.4287056e-18
3.3638542e-20
2.2806193e-22
1.1288845e-24
4.1517306e-27
1.4880613e-29
9.3626579e-32
7.9042517e-34
6.6451203e-36
5.4488168e-38
4.1154713e-40
2.4324413e-42
1.2132911e-44
5.1728502e-47
1.9165134e-49
8.189333e-52
1.305727e-52
3.2747871e-50
3.6493038e-48
3.2103877e-46
2.0797385e-44
9.8192884e-43
3.4042383e-41
8.668016e-40
1.5205985e-38
1.4889358e-37
6.1332136e-37
9.5178216e-37
3.7761647e-65
2.6917161e-64
3.5616047e-63
7.9486414e-63
7.9282984e-63
5.6226872e-63
2.7940968e-63
1.0513014e-63
8.6329252e-65
1.0486948e-61
3.3629886e-59
6.2154155e-57
8.7611047e-55
1.0331683e-52
1.0603984e-50
9.6773722e-49
7.9617485e-47
5.9567706e-45
4.0808725e-43
2.5764997e-41
1.5036915e-39
8.1039361e-38
4.02604e-36
1.8829687e-34
8.6490814e-33
3.8774016e-31
1.5875008e-29
6.4888764e-28
2.6111949e-26
5.3575603e-25
4.0981733e-24
1.5169795e-23
4.5549006e-23
2.6350707e-22
3.786672e-20
2.8052201e-18
4.3123266e-17
2.2139444e-16
6.9187079e-16
2.4648662e-15
1.7071801e-14
1.045622e-13
2.7018976e-13
8.0286537e-12
8.709829e-09
1.7638066e-07
9.3766024e-08
8.589068e-08
6.1817732e-08
5.0236035e-08
2.9377181e-06
1.7305184e-05
1.5812818e-05
1.5084813e-05
4.9586519e-06
4.0782271e-07
3.0430386e-07
3.0172316e-07
2.9870547e-07
3.141386e-07
4.964387e-07
4.0718969e-06
3.2758254e-05
1.0892197e-05
1.0841654e-06
7.2359435e-07
3.4139711e-08
3.0939106e-10
1.4440944e-11
2.6089521e-12
6.8235167e-14
9.3404655e-17
6.0626008e-19
4.8552491e-21
3.1203581e-23
2.6092716e-25
2.6898197e-27
2.8093915e-29
2.8215771e-31
2.682397e-33
2.2681149e-35
1.6778486e-37
1.0778988e-39
5.8114571e-42
2.6440389e-44
9.9921929e-47
3.3290246e-49
3.1212163e-51
1.5446717e-49
1.6648883e-47
1.5603015e-45
1.1658549e-43
6.5520619e-42
2.7404192e-40
8.5865889e-39
2.0042375e-37
3.2288837e-36
2.8936381e-35
1.1094799e-34
1.6937099e-34
5.0004902e-62
6.0472909e-62
5.634436e-61
1.2575934e-60
1.2522056e-60
8.9432336e-61
4.4556147e-61
1.6807804e-61
1.150864e-62
2.2882902e-60
1.3878937e-57
3.3385876e-55
5.372191e-53
6.9339422e-51
7.5718599e-49
7.2361323e-47
6.1723397e-45
4.7618465e-43
3.3474413e-41
2.1587317e-39
1.2846067e-37
7.0805046e-36
3.627348e-34
1.7229486e-32
7.5125105e-31
3.0509361e-29
1.368728e-27
1.0999733e-25
9.1193802e-24
2.1817082e-22
1.418714e-21
3.8673058e-21
7.7605355e-21
3.0695098e-20
5.2594179e-18
2.4053723e-16
2.4497276e-15
1.0053839e-14
2.6490693e-14
5.1058635e-14
5.3007244e-14
3.3354999e-13
5.0750292e-12
2.3795797e-10
5.0392543e-07
1.4879194e-06
5.6267594e-07
9.1115839e-08
4.9902487e-08
5.0273741e-08
1.6174468e-07
1.7607571e-05
2.4646543e-05
2.483003e-05
2.4955235e-05
1.8488811e-06
3.0155128e-07
2.9899667e-07
2.9879091e-07
2.9899907e-07
3.1914693e-07
4.3710994e-06
4.8481856e-05
1.2379867e-05
9.3666426e-08
6.9315914e-09
5.7973878e-09
1.6034652e-10
1.5900223e-10
6.17386e-12
4.022854e-14
1.4291221e-16
5.2623656e-19
3.0417581e-21
3.9385592e-23
5.6589143e-25
7.345685e-27
8.3523158e-29
8.269182e-31
6.9886043e-33
5.0281846e-35
3.1109422e-37
1.6660491e-39
7.8655483e-42
3.1460954e-44
1.2416705e-46
7.4791813e-49
5.4289857e-49
7.3561427e-47
6.7912328e-45
5.4267926e-43
3.4945219e-41
1.7214076e-39
6.4247044e-38
1.8282521e-36
3.9231078e-35
5.8174536e-34
4.784765e-33
1.7120767e-32
2.5636582e-32
5.3006186e-59
2.8123435e-59
8.1734944e-59
1.7919701e-58
1.7898168e-58
1.2895382e-58
6.4913188e-59
2.7375639e-59
1.2038203e-60
4.5138954e-59
3.8676758e-56
2.3823507e-53
6.1713218e-51
9.7458368e-49
1.182346e-46
1.2073386e-44
1.0775247e-42
8.576945e-41
6.1691183e-39
4.0358596e-37
2.4180157e-35
1.3318038e-33
6.7600956e-32
3.1660962e-30
1.3663754e-28
5.5041161e-27
2.3590954e-25
1.507497e-23
1.0292442e-21
2.6300088e-20
1.8817559e-19
4.9852257e-19
8.1490628e-19
1.9729722e-18
1.9336004e-16
6.7561882e-15
5.802737e-14
2.3212706e-13
5.7098349e-13
9.4280684e-13
4.9670207e-13
2.4733737e-12
3.7931414e-11
1.3616697e-08
9.7808192e-07
1.4918401e-06
9.2009309e-07
8.6894574e-08
4.9147054e-08
4.9874459e-08
5.0619159e-08
5.5444041e-08
9.1124735e-06
2.5192803e-05
2.520333e-05
1.9769605e-06
2.9883122e-07
2.987913e-07
2.9880504e-07
2.9880504e-07
3.5105683e-06
4.1611908e-05
4.8775459e-05
2.0143907e-05
2.449802e-07
9.9326135e-09
1.07916e-08
4.6048557e-09
1.6777589e-10
2.0627236e-12
1.2141518e-14
7.4262239e-17
4.3257232e-19
4.6136265e-21
6.8808275e-23
9.392795e-25
1.0867023e-26
1.0864889e-28
9.4856707e-31
7.2796713e-33
4.9452128e-35
2.9207207e-37
1.5138471e-39
7.2143987e-42
3.5341951e-44
1.6877113e-46
3.4382991e-48
3.4007393e-46
2.8545927e-44
2.2608014e-42
1.5608103e-40
8.7274764e-39
3.7903513e-37
1.2706166e-35
3.2989997e-34
6.528432e-33
8.9336626e-32
6.7650138e-31
2.2656795e-30
3.3224479e-30
4.5041151e-56
2.0201141e-56
1.167626e-56
2.3321432e-56
2.3384174e-56
1.7015459e-56
8.7882812e-57
3.1865643e-57
1.3420165e-58
5.0645442e-59
1.5318318e-56
2.2899537e-51
3.0960957e-48
7.5691716e-46
1.1043789e-43
1.2506392e-41
1.198453e-39
1.0071542e-37
7.5782782e-36
5.1717741e-34
3.2177234e-32
1.819683e-30
9.352995e-29
4.7059667e-27
2.8841954e-25
2.1504217e-23
9.5777039e-22
1.6660739e-20
1.4901665e-19
1.3440549e-18
1.0232451e-17
3.3658533e-17
5.7795987e-17
9.9431268e-17
5.6127695e-15
2.8098384e-13
2.1931373e-12
2.9774838e-12
2.3424037e-12
9.7150272e-13
8.9669055e-13
4.88321e-12
1.0918724e-10
6.5201316e-08
9.3713055e-07
1.0075756e-06
1.2376666e-07
4.8831218e-08
4.8713459e-08
4.9114385e-08
5.4611075e-08
8.7150636e-08
1.4333701e-07
2.508594e-05
2.5233407e-05
4.7146057e-07
3.2006682e-07
2.9943065e-07
4.3840195e-07
1.346984e-05
4.6755347e-05
4.9153874e-05
4.8982194e-05
4.2420007e-05
1.3585472e-08
1.2347625e-08
2.7664996e-08
4.6536841e-09
8.4132999e-14
7.3704282e-14
2.7965863e-15
4.4324736e-17
3.9596176e-19
4.8251306e-21
6.8474509e-23
8.8020346e-25
9.8128266e-27
9.5550553e-29
8.1323974e-31
6.0499314e-33
3.9148353e-35
2.2439291e-37
1.1916266e-39
6.119393e-42
3.1651421e-44
3.4301362e-46
1.4587786e-45
1.2294514e-43
9.0116342e-42
6.163674e-40
3.7081874e-38
1.8181971e-36
7.0173825e-35
2.1256927e-33
5.058943e-32
9.2640409e-31
1.173145e-29
8.207037e-29
2.5813606e-28
3.7041749e-28
3.13915e-53
1.3655565e-53
2.1352537e-54
2.8409211e-54
2.8130003e-54
2.0824902e-54
9.5937451e-55
6.5436393e-56
6.550967e-56
1.3996816e-53
6.5517228e-51
3.0859545e-49
4.7500721e-44
2.2259033e-41
4.0294793e-39
5.2391282e-37
5.6494892e-35
5.3462912e-33
4.5303178e-31
3.4332068e-29
2.561215e-27
3.4977193e-25
7.2259169e-23
3.0784487e-21
2.5707718e-20
8.7393726e-20
4.7332777e-19
4.8991053e-18
2.0306429e-17
5.5411232e-17
1.6912088e-16
6.534095e-16
2.2905311e-15
2.6100707e-14
2.1666292e-13
2.0688575e-12
1.4579865e-11
6.9244607e-12
1.6374707e-12
1.0931782e-12
3.6002302e-12
9.8165784e-11
8.7558646e-08
3.1696765e-07
2.1580835e-07
5.2519523e-08
4.8895898e-08
4.8719094e-08
4.8820119e-08
5.2408575e-08
8.953207e-08
1.4700258e-07
2.3326222e-07
1.5204515e-05
2.5539777e-05
9.1133251e-06
3.2697611e-07
3.2315585e-07
1.6125001e-05
4.899626e-05
4.9153874e-05
4.9254985e-05
4.939359e-05
2.5195213e-05
2.6279412e-08
1.7078103e-07
1.55757e-08
5.8225649e-10
1.7398974e-14
1.3477178e-14
1.404335e-15
3.1172174e-17
3.2549299e-19
4.0674856e-21
5.4797689e-23
6.5619748e-25
6.9733728e-27
6.5132288e-29
5.327945e-31
3.8503986e-33
2.5061706e-35
1.5143293e-37
8.638996e-40
4.638051e-42
2.8635187e-44
2.5577903e-45
5.4087352e-43
3.588481e-41
2.3155023e-39
1.3810647e-37
7.3026109e-36
3.1678734e-34
1.0946849e-32
3.0142192e-31
6.6066026e-30
1.1235102e-28
1.3203999e-27
8.5646946e-27
2.5397603e-26
3.5656603e-26
1.8295496e-50
7.8982606e-51
7.1695001e-52
3.2375968e-52
3.1553644e-52
2.3203529e-52
1.2020796e-52
4.2952605e-53
1.7460317e-52
4.269858e-50
2.8488119e-47
1.2380215e-44
4.3654272e-42
1.4061441e-39
2.637475e-37
3.6550256e-35
4.0325519e-33
3.7736118e-31
3.1131406e-29
2.3130155e-27
1.5623673e-25
9.733507e-24
6.2504765e-22
4.5790741e-20
5.309135e-18
3.0606822e-16
4.3552517e-15
1.8979969e-14
3.6806418e-14
4.5948104e-14
5.7800338e-14
1.1422935e-13
2.1390999e-13
5.2834149e-13
5.3135334e-12
9.649413e-12
1.5555468e-11
6.112207e-12
1.7108231e-12
1.1871043e-08
3.6767466e-09
3.175996e-09
6.0976833e-08
1.8931337e-07
1.4914477e-07
5.9591672e-08
5.2257674e-08
4.8895898e-08
5.2064535e-08
7.4704066e-08
9.6904501e-07
4.851584e-06
7.7067412e-07
8.0582868e-06
2.5588445e-05
2.4007725e-05
3.794156e-07
8.8819226e-07
1.8013862e-05
4.8977875e-05
4.9065875e-05
4.9153874e-05
4.1045032e-05
1.1926035e-07
6.9174085e-08
3.0895203e-07
3.0825066e-09
-3.2496325e-14
1.5797491e-14
1.6525784e-14
8.0560216e-16
1.8121572e-17
2.0407938e-19
2.5185446e-21
3.2079683e-23
3.6751236e-25
3.7611609e-27
3.4376713e-29
2.8246537e-31
2.1197861e-33
1.4679877e-35
9.2891862e-38
5.2662712e-40
2.3932995e-42
5.1808343e-44
2.336034e-42
1.4447753e-40
8.5197589e-39
4.8457226e-37
2.5531383e-35
1.1965557e-33
4.6257043e-32
1.4413133e-30
3.6285418e-29
7.3597549e-28
1.1663905e-26
1.2756087e-25
7.7015256e-25
2.1628839e-24
2.9723155e-24
9.0502557e-48
3.9130434e-48
3.2360068e-49
3.6418399e-50
3.3209387e-50
2.4270223e-50
1.3746725e-50
5.4326371e-51
1.1706501e-50
1.744077e-48
7.1717625e-46
3.9961511e-43
1.4813046e-40
5.2401364e-38
1.1263527e-35
1.6396397e-33
1.8347406e-31
1.7258027e-29
1.4211714e-27
1.0479943e-25
6.9857868e-24
4.1833878e-22
2.3457353e-20
1.6344679e-18
1.9705725e-16
1.2927795e-14
2.0325381e-13
9.3017076e-13
1.7901705e-12
1.8563965e-12
1.6961048e-12
1.8776671e-12
2.4152328e-12
3.1363032e-12
8.2353407e-12
9.7642594e-12
8.8620532e-12
1.3826535e-10
3.7362119e-08
5.141693e-08
8.9334848e-09
5.6541606e-09
6.9222588e-09
5.1943725e-07
1.8659726e-06
1.197427e-06
3.7650975e-07
5.2066949e-08
6.5866275e-08
1.9327515e-07
1.7563516e-05
9.8743709e-06
6.1766204e-07
7.4902251e-06
2.5708536e-05
2.5821327e-05
1.1087628e-05
1.5638908e-06
3.0606681e-06
3.5241173e-05
4.8977875e-05
3.2524515e-05
2.2476245e-06
7.5279236e-08
3.6305071e-07
3.0594942e-07
1.3719567e-12
1.7598209e-14
1.6128987e-14
1.3405779e-14
3.6131353e-16
7.4495007e-18
8.9456858e-20
1.0974284e-21
1.3883202e-23
1.6242901e-25
1.7073509e-27
1.6327228e-29
1.4121152e-31
1.0924674e-33
7.4582408e-36
4.3461189e-38
1.9015112e-40
3.2127802e-42
6.7366304e-42
5.8714584e-40
3.1570085e-38
1.658827e-36
8.3614206e-35
3.937644e-33
1.639019e-31
5.6704609e-30
1.6040256e-28
3.7132119e-27
7.0023966e-26
1.0374458e-24
1.0583905e-23
5.9726238e-23
1.5965416e-22
2.1487717e-22
3.8443636e-45
1.675073e-45
1.4180792e-46
4.9836676e-48
3.2669999e-48
2.3897907e-48
1.3673424e-48
6.0318169e-49
5.9946718e-49
1.0939444e-46
3.4682795e-44
1.4055354e-41
7.4857843e-39
1.9219869e-36
2.9010451e-34
3.4005413e-32
3.3458968e-30
2.8687219e-28
2.1885426e-26
1.5035213e-24
9.3326624e-23
5.1967706e-21
2.7065938e-19
1.7271916e-17
1.779719e-15
1.0162004e-13
1.4887911e-12
6.7610438e-12
1.3258267e-11
1.4950879e-11
1.1560691e-11
8.6637963e-12
8.9954716e-12
8.4581968e-12
8.8292989e-12
8.8179849e-12
8.8391793e-12
2.3962333e-09
5.141693e-08
5.141693e-08
1.0764748e-08
6.9223282e-09
8.6121433e-07
4.4756465e-06
5.0919787e-06
5.0923842e-06
1.0847793e-06
6.71231e-08
1.2319764e-07
1.0144322e-05
4.5395253e-05
9.0600767e-06
4.2712841e-07
2.6163408e-06
2.5911148e-05
2.5877997e-05
2.5882658e-05
2.2797841e-05
7.0499951e-06
9.7022467e-06
1.5359973e-05
2.0625717e-06
3.3764993e-08
5.3644797e-09
1.0256326e-07
5.4078408e-08
9.9896804e-14
1.8822591e-14
2.03537e-14
5.2213496e-15
1.0616947e-16
2.1159478e-18
2.8184168e-20
3.6955853e-22
5.1137351e-24
6.6096355e-26
7.4964352e-28
7.4492319e-30
6.3355698e-32
4.4661025e-34
2.5259602e-36
1.0943424e-38
7.397834e-41
1.0766835e-41
2.3302081e-39
1.1580277e-37
5.6123955e-36
2.6430152e-34
1.1901507e-32
5.0329507e-31
1.8742855e-29
5.8458417e-28
1.5106477e-26
3.2334591e-25
5.693854e-24
7.9044776e-23
7.5373565e-22
3.9942843e-21
1.021615e-20
1.3446801e-20
1.415416e-42
6.245717e-43
5.5510996e-44
1.0738618e-45
3.0720806e-46
2.2508656e-46
1.2355515e-46
4.9031443e-47
4.6539335e-47
1.563442e-44
5.0777197e-42
9.938323e-40
1.5425341e-37
2.0113482e-35
2.2429529e-33
2.1689526e-31
1.8504944e-29
1.4098555e-27
9.6776387e-26
6.0190205e-24
3.3817792e-22
1.7002486e-20
7.9276845e-19
4.3599365e-17
3.7774879e-15
2.0082564e-13
2.9807622e-12
1.4423347e-11
3.1938081e-11
3.6463538e-11
3.1969085e-11
2.1702953e-11
1.6450621e-11
1.075073e-11
8.8850346e-12
8.8391793e-12
8.8540276e-12
1.2289383e-08
5.1219324e-08
3.7141098e-08
1.0937072e-08
2.5083981e-07
4.7211162e-06
5.0906912e-06
5.0926922e-06
5.0906912e-06
1.2787566e-06
1.2821559e-07
2.1191958e-07
0.00010133432
7.9314757e-05
3.8868695e-06
2.6743752e-07
3.1765067e-08
1.1701306e-05
2.5882658e-05
2.5882658e-05
2.5882658e-05
2.5797535e-05
1.5723385e-05
2.6945996e-07
3.8318271e-08
3.6629186e-07
4.5369956e-10
3.3023265e-10
-1.6194854e-11
-2.4823195e-13
1.6999546e-14
1.7057068e-14
7.8602199e-16
2.0024927e-17
4.7852135e-19
7.9799888e-21
1.2145738e-22
1.8849994e-24
2.5931358e-26
2.9357626e-28
2.6823724e-30
1.9088249e-32
1.0096896e-34
3.7128537e-37
1.0528177e-39
8.0208756e-41
8.8649578e-39
4.1306201e-37
1.8597654e-35
8.1634465e-34
3.4676974e-32
1.4040418e-30
5.3505904e-29
1.7933847e-27
5.0744593e-26
1.2048522e-24
2.3970435e-23
3.9552426e-22
5.1485352e-21
4.5939402e-20
2.3034444e-19
5.7098779e-19
7.394632e-19
4.5502073e-40
2.042456e-40
1.9185858e-41
3.2477767e-43
2.7678479e-44
1.9884609e-44
1.0960854e-44
4.2124211e-45
3.3456323e-45
8.0478067e-44
1.9796594e-41
3.5713152e-39
5.1797126e-37
5.9036192e-35
5.9104134e-33
5.3760357e-31
4.3897141e-29
3.2262685e-27
2.144081e-25
1.2933012e-23
7.0375313e-22
3.4110902e-20
1.5510879e-18
8.6564046e-17
6.8963601e-15
2.9380726e-13
3.5803896e-12
1.1555256e-11
3.5697207e-11
3.8916145e-11
8.0683078e-11
2.2916964e-11
1.9788875e-11
8.9228886e-12
8.9047458e-12
6.4973245e-08
4.7631854e-07
6.8644416e-08
2.4538947e-08
1.1838446e-08
1.1385818e-08
2.1131613e-06
5.0483768e-06
5.0778246e-06
5.0906912e-06
2.6848653e-06
3.2413771e-07
2.2851875e-07
2.9160617e-05
0.00013564594
9.715817e-05
3.0760116e-06
3.1886511e-08
2.3287544e-08
3.1765075e-08
1.1121446e-05
2.588267e-05
2.5819717e-05
1.4313426e-05
3.0393137e-06
4.5733121e-07
2.2709578e-09
1.36779e-07
1.9601267e-11
2.0396019e-11
4.6061844e-14
2.1371383e-15
1.976145e-14
6.064356e-15
5.6134399e-17
3.4892752e-18
1.1009813e-19
1.4390877e-21
2.6238599e-23
6.1409996e-25
7.800059e-27
7.4243087e-29
5.1136378e-31
2.437225e-33
7.8040802e-36
1.9340275e-38
1.1396557e-39
3.1475724e-38
1.4136849e-36
5.946396e-35
2.4425034e-33
9.7682222e-32
3.7659288e-30
1.3796895e-28
4.750869e-27
1.438593e-25
3.7104886e-24
8.1383155e-23
1.5122229e-21
2.3417634e-20
2.8547061e-19
2.3908491e-18
1.1541378e-17
2.8971359e-17
3.991645e-17
1.2848516e-37
5.8958713e-38
5.8820973e-39
1.044814e-40
1.1404481e-42
1.584303e-42
9.7057043e-43
3.5605835e-43
7.7324966e-44
1.0390733e-43
9.0827718e-42
2.1653898e-39
4.4364483e-37
8.9233153e-35
1.466549e-32
1.8317207e-30
1.8821956e-28
1.6606959e-26
1.2904317e-24
8.9331517e-23
5.4872037e-21
3.0703338e-19
1.9247688e-17
1.6604523e-15
8.1039271e-14
1.2937687e-12
4.2366616e-12
9.9091858e-12
1.2937595e-09
1.4073619e-09
1.0795179e-08
1.282109e-09
1.3161319e-11
8.7929527e-12
8.9144008e-12
2.2314021e-07
5.1231353e-07
5.1231353e-07
5.477056e-08
1.3636089e-08
5.1283021e-07
4.7642526e-06
4.9297948e-06
5.0484152e-06
3.9817569e-06
7.3172139e-07
5.2648135e-07
3.2380903e-07
6.1658686e-05
0.00014130615
9.7834938e-05
2.7111842e-06
2.3254649e-08
2.128726e-08
4.3317333e-08
1.3910503e-06
4.0089362e-06
4.3792254e-06
3.5204512e-07
8.1331532e-09
6.2172804e-08
1.5863108e-10
2.0290231e-11
3.2105772e-12
2.0324085e-12
2.0363942e-14
1.4978514e-14
8.3215903e-15
5.5611799e-16
1.5014926e-17
1.0431013e-18
1.8779312e-20
-2.7035963e-21
3.6786367e-23
1.0405077e-25
9.2721509e-28
6.7807396e-30
3.9719305e-32
2.8196324e-34
2.2201281e-36
3.9469783e-38
8.8028393e-38
4.6207265e-36
1.8185847e-34
7.0322414e-33
2.6536189e-31
9.7182471e-30
3.4173788e-28
1.1381442e-26
3.5456421e-25
9.6937776e-24
2.2804339e-22
4.6421296e-21
8.1073967e-20
1.1801786e-18
1.3506043e-17
1.0749797e-16
5.0709566e-16
1.3229625e-15
2.1840147e-15
3.2031231e-35
1.5104475e-35
1.6079486e-36
3.0569358e-38
1.0535967e-40
1.9772022e-40
8.3152647e-41
2.8521084e-41
6.9658741e-42
4.4269112e-42
1.1582959e-40
3.4337076e-38
6.0825428e-36
8.3680278e-34
9.8669562e-32
9.9440506e-30
8.7502988e-28
6.8114747e-26
4.753355e-24
2.9365681e-22
1.5961323e-20
7.7292545e-19
3.6831086e-17
1.990494e-15
7.8866889e-14
3.5555238e-14
1.0546433e-10
2.0815145e-09
6.8276626e-06
8.2354022e-06
2.0294178e-06
1.6058429e-07
6.3927568e-11
1.1027725e-11
8.9860295e-12
2.6617336e-11
4.2955223e-07
5.0657862e-07
2.4033726e-07
1.6731356e-08
2.7283444e-08
2.2131545e-06
4.8008635e-06
2.4033355e-06
1.6129905e-06
1.0623787e-06
7.327369e-07
5.7260429e-07
9.3468015e-05
0.00014397054
8.3730226e-05
6.2421945e-07
2.1286878e-08
1.9867603e-08
1.9180855e-08
4.6716437e-08
4.1414904e-08
4.745516e-09
1.3024808e-09
4.6349981e-10
2.2627935e-10
2.8594855e-11
3.2106362e-12
2.1752636e-12
6.1594149e-13
4.2337231e-14
3.3575237e-14
1.1378427e-14
1.8089414e-15
1.5690669e-16
4.6696285e-19
1.7571043e-20
-2.9101181e-20
9.2415163e-23
3.3866029e-26
7.6405206e-28
1.0828555e-29
1.6129626e-31
2.1024621e-33
2.0754172e-35
8.2559103e-37
1.3406098e-35
5.2727464e-34
1.9266032e-32
6.9138821e-31
2.4164474e-29
8.1630623e-28
2.6343711e-26
8.0057733e-25
2.2542812e-23
5.5192661e-22
1.1695303e-20
2.2022624e-19
3.6739598e-18
5.1401214e-17
5.5533112e-16
4.1226628e-15
1.7396492e-14
3.6385671e-14
4.1514454e-14
7.0827947e-33
3.4515222e-33
3.9409383e-34
8.0078144e-36
3.3628974e-38
8.3195446e-39
5.6796064e-39
2.3493936e-39
5.4880149e-40
1.6519718e-40
3.5049899e-39
1.2254846e-37
1.2330714e-35
1.717153e-33
2.0487784e-31
2.0951727e-29
1.8552408e-27
1.4389184e-25
8.9748125e-24
5.4593962e-22
3.0273932e-20
1.438346e-18
6.8614853e-17
2.4553843e-15
3.8447718e-15
8.2866984e-13
5.741121e-08
3.8559837e-05
9.5209943e-05
0.00010460019
6.6411357e-05
8.1448885e-06
1.8560573e-08
1.1534026e-09
1.0927467e-09
2.7188322e-09
2.6314063e-08
1.3066509e-07
1.1139785e-07
7.8175685e-08
5.5622265e-08
4.3831178e-08
6.8878124e-08
2.545198e-07
9.9059794e-07
1.3865053e-06
1.0390215e-06
1.7700935e-06
0.00013993258
0.00014394346
5.1378321e-05
4.2642472e-07
1.265985e-07
8.7725525e-08
2.4223447e-10
7.8012655e-10
1.1566732e-09
3.3596598e-10
1.0757374e-10
4.8166356e-11
2.9016185e-11
1.9270202e-11
5.7362317e-12
5.4479549e-12
3.9130873e-12
1.8304379e-12
3.6875287e-13
1.004558e-13
1.8896409e-14
1.6726108e-15
5.5113089e-20
-1.5047835e-20
-9.2135396e-20
4.4300661e-22
1.7756775e-25
9.5623434e-27
1.6442634e-28
2.8793096e-30
3.7286385e-32
3.8951887e-34
2.7960566e-35
1.4245645e-33
5.0052501e-32
1.7184745e-30
5.784215e-29
1.8891636e-27
5.9355548e-26
1.7734027e-24
4.9602728e-23
1.2682682e-21
2.7442864e-20
5.0386459e-19
8.4475209e-18
1.3697439e-16
1.9446688e-15
1.8861679e-14
1.082074e-13
3.3082491e-13
4.2026275e-13
1.544778e-13
1.3952499e-30
7.0666754e-31
8.6917021e-32
1.8871391e-33
8.9762658e-36
1.2559319e-38
3.479342e-37
1.877403e-37