/*--------------------------------*- C++ -*----------------------------------*\
  =========                 |
  \\      /  F ield         | OpenFOAM: The Open Source CFD Toolbox
   \\    /   O peration     | Website:  https://openfoam.org
    \\  /    A nd           | Version:  9
     \\/     M anipulation  |
\*---------------------------------------------------------------------------*/
FoamFile
{
    format      ascii;
    class       surfaceScalarField;
    location    "0.91";
    object      alphaPhi0.phase1;
}
// * * * * * * * * * * * * * * * * * * * * * * * * * * * * * * * * * * * * * //

dimensions      [0 3 -1 0 0 0 0];

internalField   nonuniform List<scalar> 
19800
(
5.9479794e-89
2.8613805e-88
2.4083525e-88
1.1894955e-87
2.2472996e-87
5.3578851e-86
-1.7896551e-86
2.4098363e-85
-2.4237797e-86
2.8003523e-85
-8.8020432e-87
1.0989794e-85
-1.193145e-86
3.7611383e-86
-5.3262123e-86
3.8615278e-86
-1.3344023e-85
1.34834e-85
-2.1246625e-83
1.8323993e-83
-2.9755235e-81
2.2820397e-81
-3.691978e-79
2.5413799e-79
-4.1353069e-77
2.5698687e-77
-4.2175526e-75
2.3782918e-75
-3.9428979e-73
2.0249658e-73
-3.3738282e-71
1.5934676e-71
-2.5339995e-69
1.166684e-69
-1.7168237e-67
8.1341099e-68
-1.4612812e-65
6.5016338e-66
-3.3566565e-63
1.1300355e-63
-1.5460428e-60
4.2856916e-61
-7.1968613e-58
1.8003607e-58
-2.9554802e-55
6.7954723e-56
-1.0530681e-52
2.2465153e-53
-3.2477865e-50
6.4725619e-51
-8.666006e-48
1.6234464e-48
-2.0005374e-45
3.5419405e-46
-3.996173e-43
6.7155809e-44
-6.9098188e-41
1.1058037e-41
-1.0348308e-38
1.5809993e-39
-1.3434685e-36
1.9632863e-37
-1.5138545e-34
2.119235e-35
-1.4832979e-32
1.9914465e-33
-1.2669139e-30
1.6327974e-31
-9.4624044e-29
1.1711722e-29
-6.2023167e-27
7.3723846e-28
-3.581696e-25
4.0888122e-26
-1.8293757e-23
2.0068475e-24
-8.2893884e-22
8.7576213e-23
-3.3440772e-20
3.415096e-21
-1.2521484e-18
1.1977676e-19
-4.6233936e-17
3.8081348e-18
-8.8433995e-16
1.1404053e-16
-1.2312796e-14
8.1063464e-15
-5.2255738e-13
4.312367e-13
-1.038575e-11
8.0164674e-12
-5.2478787e-10
0
-5.7331171e-09
-3.9524726e-09
-4.2371109e-09
-3.5507131e-08
-2.0088593e-09
-2.5506596e-08
7.5565623e-10
-2.3165945e-08
3.4866182e-09
-2.0181959e-08
6.0598348e-09
-1.7451832e-08
1.0768483e-08
-1.2384675e-08
1.9079105e-08
-1.2034716e-08
1.2716322e-08
-1.2521462e-08
3.8461095e-09
-4.9229362e-09
4.1521352e-09
-1.5138969e-09
4.2734993e-09
-1.4201115e-09
1.1945991e-08
-1.2274741e-09
1.0478009e-08
-3.8055363e-09
3.5693131e-09
-1.4219625e-09
7.7980193e-11
8.6440788e-10
9.419451e-12
6.0469117e-11
3.0502664e-13
9.1869805e-12
6.8704547e-15
2.90656e-13
1.0967762e-15
8.7265544e-15
2.5492419e-16
3.6245979e-16
1.5659611e-17
4.4891782e-17
4.4422385e-19
2.6295424e-18
1.1261018e-20
9.650143e-20
2.9120084e-22
3.0735922e-21
6.6330559e-24
8.5238428e-23
1.2822022e-25
2.0085368e-24
2.1056304e-27
4.0102256e-26
2.9206516e-29
6.7819866e-28
3.3820766e-31
9.6851057e-30
3.2181666e-33
1.1601666e-31
2.4636083e-35
1.1525862e-33
1.4745917e-37
9.3374837e-36
6.6328628e-40
6.020527e-38
2.1141455e-42
2.9903026e-40
4.3365118e-45
1.0898489e-42
4.7502825e-48
2.6964342e-45
1.6606424e-51
3.9119734e-48
-3.7772229e-58
2.231394e-51
-6.9866681e-60
2.4621673e-57
-4.0275218e-62
8.122062e-60
-1.5970646e-64
2.2749134e-62
-4.8284362e-67
5.3171148e-65
-8.8066667e-69
1.0094451e-67
-2.1435203e-68
2.1626236e-69
-4.7696121e-68
2.0057996e-69
-8.1939981e-66
1.0004017e-67
-8.5960004e-64
-4.0973103e-65
-5.7009419e-62
-6.7839667e-63
-2.3727157e-60
-4.2920584e-61
-5.7474057e-59
-1.2885767e-59
-8.7198529e-58
-1.4939137e-58
-6.2355937e-58
6.7991536e-89
3.0824655e-88
3.0324295e-87
2.0735299e-86
4.3063517e-86
7.4130459e-85
-4.1968183e-86
3.3946974e-84
-2.0871885e-85
4.6056337e-84
-2.2950742e-85
3.6965327e-84
-1.3183637e-85
2.094944e-84
-1.825295e-85
1.0850154e-84
-2.6442416e-84
6.2779344e-84
-4.6940973e-82
9.5991022e-82
-7.1472476e-80
1.2797003e-79
-9.5541786e-78
1.5232777e-77
-1.1419514e-75
1.6377653e-75
-1.2333604e-73
1.6015552e-73
-1.2169215e-71
1.4394189e-71
-1.1015257e-69
1.1941533e-69
-9.016094e-68
9.2198018e-68
-6.3944566e-66
6.6902093e-66
-4.6782972e-64
4.8637959e-64
-5.7235881e-62
5.1218791e-62
-1.9614812e-59
1.3544272e-59
-9.0612173e-57
5.3398439e-57
-3.8590013e-54
2.0349754e-54
-1.4355553e-51
7.1099865e-52
-4.632089e-49
2.1905965e-49
-1.2940926e-46
5.8789242e-47
-3.1282516e-44
1.370241e-44
-6.5409771e-42
2.7694615e-42
-1.1829784e-39
4.849475e-40
-1.8510215e-37
7.352883e-38
-2.5072545e-35
9.6528375e-36
-2.9430872e-33
1.0978018e-33
-2.9988401e-31
1.083022e-31
-2.6586596e-29
9.2879242e-30
-2.0569984e-27
6.9438528e-28
-1.3938791e-25
4.5421456e-26
-8.3051509e-24
2.611352e-24
-4.36592e-22
1.3265444e-22
-2.0385599e-20
5.9911308e-21
-8.8033759e-19
2.4281597e-19
-3.4282956e-17
8.8797233e-18
-7.9228845e-16
2.7369894e-16
-1.3584795e-14
8.0753792e-15
-4.0832829e-13
3.0422514e-13
-1.1086122e-11
8.9563351e-12
-2.2992777e-10
2.0985677e-10
-1.7614853e-08
-1.601998e-09
-4.5821932e-08
-3.6595239e-08
-2.0024996e-08
-6.2736124e-08
3.6402274e-09
-1.0654103e-07
2.1216351e-08
-5.0518602e-08
4.4568761e-08
-4.5037719e-08
6.410847e-08
-8.2533745e-09
1.0416349e-07
-1.1801658e-08
7.9195431e-08
-3.7937605e-09
7.3549727e-08
-9.9711989e-09
8.2476049e-09
-9.9113726e-09
7.9686472e-09
-2.0233024e-09
7.6380985e-09
-1.4218415e-09
7.6680247e-09
-1.4529731e-09
4.9591665e-08
-2.5098198e-09
5.8055297e-08
2.9366044e-09
7.5455901e-09
6.2951422e-09
6.2623998e-10
6.4156878e-09
1.3074198e-11
6.1665263e-10
6.1479614e-13
1.2231906e-11
1.6081269e-14
5.8263964e-13
4.1681381e-16
1.4693566e-14
2.7078607e-17
2.526785e-16
9.8711575e-19
1.2047653e-17
2.2666051e-20
4.1558196e-19
5.088268e-22
1.1208832e-20
1.0581342e-23
2.6969641e-22
1.8996594e-25
5.652167e-24
2.9028854e-27
1.0156469e-25
3.7428346e-29
1.5536852e-27
4.0103595e-31
2.006462e-29
3.4997616e-33
2.1581633e-31
2.4233537e-35
1.8934247e-33
1.2846795e-37
1.3167564e-35
4.9462992e-40
7.1942606e-38
1.2759974e-42
3.144511e-40
1.9128496e-45
9.6323225e-43
1.1831036e-48
1.8545182e-45
3.1164266e-53
1.7344895e-48
-4.9434159e-57
3.5013356e-53
-3.8762835e-59
1.782694e-56
-1.9023393e-61
6.0076331e-59
-6.9829914e-64
1.6895889e-61
-1.9546041e-66
3.8684804e-64
-2.7904653e-67
7.9622967e-67
-8.0926721e-67
1.372988e-67
-1.4633671e-64
1.4792168e-65
-1.8920861e-62
1.1879858e-64
-1.6556967e-60
-1.4078311e-61
-9.8406704e-59
-1.6411512e-59
-4.1395144e-57
-8.735175e-58
-7.7738115e-56
-2.2015987e-56
-2.985408e-55
-1.9373887e-55
-5.283927e-55
4.61788e-86
3.9542946e-85
4.8229508e-84
3.0619004e-83
5.8051001e-83
7.645675e-82
2.8600897e-83
2.6970756e-81
-7.0173193e-83
3.2694803e-81
-9.9381598e-83
2.4594326e-81
-5.9413601e-83
1.323194e-81
-8.538638e-83
6.7269172e-82
-9.5862168e-82
2.849976e-81
-1.7979837e-79
4.521698e-79
-2.8575949e-77
6.213886e-77
-3.9555661e-75
7.5853271e-75
-4.8494676e-73
8.326237e-73
-5.3530254e-71
8.3087381e-71
-5.3664242e-69
7.5942603e-69
-4.9365196e-67
6.4014149e-67
-4.196491e-65
5.0135156e-65
-3.3052173e-63
3.6602616e-63
-2.3933832e-61
2.5114724e-61
-1.528326e-59
1.6286541e-59
-9.4578607e-58
1.0347619e-57
-8.1852299e-56
8.077082e-56
-1.8069009e-53
1.3530267e-53
-6.323919e-51
4.0204314e-51
-2.1361763e-48
1.1485259e-48
-6.3321449e-46
2.8165225e-46
-1.6237146e-43
6.5804034e-44
-3.5962574e-41
1.4316631e-41
-6.8806763e-39
2.7467776e-39
-1.1371003e-36
4.5333878e-37
-1.6231479e-34
6.4267463e-35
-2.0024448e-32
7.8341373e-33
-2.1376619e-30
8.2237316e-31
-1.9783718e-28
7.4498924e-29
-1.5914292e-26
5.841221e-27
-1.1163051e-24
3.9794076e-25
-6.8502155e-23
2.3671346e-23
-3.6949302e-21
1.2372122e-21
-1.8111992e-19
5.7359574e-20
-8.3847557e-18
2.3871386e-18
-2.3624778e-16
8.4791353e-17
-3.9352138e-15
2.6163168e-15
-1.2541283e-13
9.0822456e-14
-4.0284486e-12
3.1103164e-12
-1.0994462e-10
8.7804374e-11
-1.5525966e-08
2.4284195e-09
-5.7536582e-08
-1.1416641e-08
-3.3673879e-08
-3.7164846e-08
-8.6171972e-09
-4.7991752e-08
1.3852157e-08
-5.0628653e-10
4.0671479e-08
-5.4266727e-10
8.3194816e-08
-2.0082071e-08
1.7158197e-07
-2.0254777e-08
2.1785897e-07
-1.4286551e-09
1.9609248e-08
0
3.3577392e-08
-2.4019333e-09
1.2931042e-08
-2.2399135e-09
1.0104811e-08
-9.0642381e-10
9.8612306e-09
-1.9425605e-09
1.0309466e-08
-9.8859517e-10
4.692972e-08
0
6.1788115e-08
4.8019347e-09
6.0347078e-08
1.7916824e-08
2.6664511e-08
2.8143719e-08
3.0555668e-10
1.3412933e-08
1.3223626e-11
3.0458664e-10
5.6265187e-13
1.2681055e-11
1.9630251e-14
5.3213994e-13
8.3734592e-16
1.7766484e-14
6.7821903e-17
7.348366e-16
4.0176128e-18
4.4423595e-17
4.9778878e-20
1.4687894e-18
6.8782952e-22
2.8667293e-20
1.0521184e-23
5.192222e-22
1.3928409e-25
8.247206e-24
1.5380166e-27
1.107923e-25
1.3935176e-29
1.238474e-27
1.0104026e-31
1.1269368e-29
5.6616866e-34
8.0676421e-32
2.3257472e-36
4.2758194e-34
6.4869705e-39
1.8648091e-36
1.2969448e-41
6.1632626e-39
1.241017e-44
1.3094236e-41
5.7462131e-49
1.4060916e-44
-9.1234318e-54
2.2884891e-48
-8.3890553e-56
3.0467324e-53
-4.7630577e-58
1.9898435e-55
-2.000611e-60
6.4282354e-58
-6.5658727e-63
1.714811e-60
-1.6299429e-65
3.7268403e-63
-2.1695808e-65
1.3085621e-65
-1.6683502e-63
3.3506038e-64
-2.308036e-61
2.1283016e-62
-2.5508415e-59
-4.3683412e-61
-1.9470039e-57
-2.4633213e-58
-1.0269649e-55
-2.2685052e-56
-3.6590266e-54
-1.0407923e-54
-5.8173262e-53
-2.2946106e-53
-2.2993895e-52
-1.8695374e-52
-5.0853604e-52
2.7923426e-83
2.2779726e-82
4.313291e-81
2.4677209e-80
4.3643563e-80
4.6235341e-79
3.9123364e-80
1.3359061e-78
-6.0967529e-81
1.526047e-78
-2.7662284e-80
1.1299724e-78
-1.8904459e-80
5.9395184e-79
-2.889989e-80
2.963285e-79
-2.8185697e-79
1.0424706e-78
-5.6569916e-77
1.7317697e-76
-9.4407863e-75
2.4702563e-74
-1.3620514e-72
3.1152498e-72
-1.7244459e-70
3.5117801e-70
-1.9546859e-68
3.5916959e-68
-2.0013724e-66
3.3532449e-66
-1.8726882e-64
2.8853988e-64
-1.6123316e-62
2.3008666e-62
-1.2871513e-60
1.7102091e-60
-9.5628726e-59
1.1910134e-58
-6.6797704e-57
7.8178318e-57
-4.3843452e-55
4.8498835e-55
-2.5828669e-53
2.8272469e-53
-1.3110828e-51
1.5401843e-51
-7.1473388e-50
8.3332383e-50
-6.2208717e-48
5.7176776e-48
-9.2478734e-46
6.4212044e-46
-2.0067892e-43
1.1153441e-43
-4.6355157e-41
2.3637055e-41
-9.5903535e-39
3.8347979e-39
-1.7079495e-36
6.5103885e-37
-2.6123377e-34
9.6432925e-35
-3.4328293e-32
1.2255366e-32
-3.8777443e-30
1.3362692e-30
-3.7701823e-28
1.2516108e-28
-3.1619912e-26
1.0093743e-26
-2.2942278e-24
7.0330118e-25
-1.4438264e-22
4.2538508e-23
-7.9539842e-21
2.2483256e-21
-4.0460131e-19
1.0511064e-19
-1.8600175e-17
4.3894669e-18
-4.3944019e-16
1.5174363e-16
-5.5730011e-15
4.7686042e-15
-1.7750799e-13
1.7378398e-13
-6.0224431e-12
6.2825842e-12
-1.6775773e-10
1.7831613e-10
-4.1466431e-08
4.2448068e-09
-2.4894313e-08
-1.0240743e-08
-5.9078464e-09
-9.4571888e-10
-1.1493351e-11
-9.8335664e-10
7.910387e-11
-5.042899e-10
1.6462776e-10
-5.0531822e-10
4.0532841e-08
-1.3660241e-08
1.3744837e-07
-1.805201e-08
1.7807387e-07
-8.8171986e-08
1.987415e-07
-2.7901547e-07
1.4745025e-07
-2.4756092e-07
4.9839704e-08
-4.1870457e-08
4.2256326e-08
0
4.5821333e-08
-4.636458e-09
2.1526533e-08
1.6076773e-08
1.9873087e-08
2.3065536e-08
3.6629207e-08
6.3132021e-09
6.8725606e-08
1.998512e-08
5.7752568e-08
5.2680592e-08
6.6399322e-09
4.7691741e-08
9.0498431e-11
2.773454e-09
3.8690987e-12
8.8301824e-11
1.4142951e-13
3.7864669e-12
4.3741886e-15
1.3816232e-13
1.6951802e-16
4.3272792e-15
6.0440059e-18
1.3706206e-16
1.0623731e-19
3.6477612e-18
1.616626e-21
7.3438482e-20
2.2693973e-23
1.2421807e-21
2.6698199e-25
1.7515152e-23
2.5627932e-27
2.0075777e-25
1.9553563e-29
1.8463803e-27
1.1478867e-31
1.5345316e-29
4.9792264e-34
1.0029515e-31
1.4911183e-36
4.9753922e-34
2.7327254e-39
1.4960515e-36
2.2704072e-42
2.5930059e-39
2.2806987e-46
1.9194961e-42
-2.2306057e-50
3.395234e-46
-1.2374951e-52
1.2484999e-49
-7.9131487e-55
3.6302405e-52
-3.7531949e-57
1.3226969e-54
-1.4104968e-59
4.0364452e-57
-4.3562466e-62
1.0300787e-59
-4.4397498e-63
2.5252445e-62
-1.2546936e-62
3.4992806e-63
-2.2220144e-60
4.2932355e-61
-2.6444736e-58
1.8438157e-59
-2.5081948e-56
-1.219733e-57
-1.6782434e-54
-2.8312271e-55
-7.8639355e-53
-2.1481485e-53
-2.4139471e-51
-8.5585902e-52
-3.3031935e-50
-1.6624524e-50
-1.2720898e-49
-1.2457587e-49
-3.3115804e-49
1.2502294e-80
9.4124293e-80
2.317107e-78
1.1638924e-77
2.2130812e-77
1.9075301e-76
2.3374204e-77
4.9504921e-76
8.4280509e-78
5.4516383e-76
-3.5251397e-78
4.008231e-76
-4.0294444e-78
2.0802779e-76
-7.0476035e-78
1.0206356e-76
-6.1799307e-77
2.99553e-76
-1.3665779e-74
5.2937503e-74
-2.4541556e-72
7.9342218e-72
-3.7139747e-70
1.0379643e-69
-4.9117639e-68
1.2096199e-67
-5.7395227e-66
1.2695254e-65
-6.0327587e-64
1.2134633e-63
-5.7492315e-62
1.064892e-61
-5.0284616e-60
8.6519981e-60
-4.0621109e-58
6.5381395e-58
-3.0439522e-56
4.6176719e-56
-2.1384189e-54
3.0687924e-54
-1.4146949e-52
1.9249647e-52
-8.5467496e-51
1.134629e-50
-4.471923e-49
6.2045982e-49
-2.3009634e-47
3.2530192e-47
-1.7884144e-45
1.9340961e-45
-1.8371632e-43
1.4637747e-43
-8.2900976e-42
8.7021134e-42
-1.5636644e-40
2.4023229e-40
-5.6238281e-39
4.4809381e-39
-7.6014401e-37
3.812064e-37
-1.2393175e-34
5.401918e-35
-1.7503055e-32
5.4430955e-33
-2.0990525e-30
6.3248456e-31
-2.1454228e-28
6.3907499e-29
-1.8711851e-26
5.4727242e-27
-1.3946471e-24
3.9726557e-25
-8.8844235e-23
2.4525781e-23
-4.8962744e-21
1.2943496e-21
-2.5539591e-19
5.9548799e-20
-1.2008881e-17
2.4410128e-18
-2.4347757e-16
7.3969276e-17
-3.3348559e-16
1.9302895e-15
0
7.2743287e-14
0
2.8959665e-12
0
9.7011034e-11
-1.0843295e-08
1.2834334e-09
-1.8239652e-10
-1.025173e-08
-6.7163552e-11
-9.3966972e-10
1.6741191e-11
-9.7852695e-10
1.031883e-10
-5.3295033e-10
5.6781584e-10
-8.8047442e-10
7.8539267e-08
-8.0246055e-08
4.5503395e-07
-4.6413829e-07
6.3920628e-07
-5.3082439e-07
8.111844e-07
-4.4603745e-07
8.7775374e-07
-2.778928e-07
4.8709402e-07
-1.723665e-07
5.5238756e-07
-8.5780324e-08
8.4748974e-07
1.5001551e-08
7.4491465e-07
1.2501555e-07
1.2377491e-07
1.2053464e-07
3.400599e-08
9.7843614e-08
4.3205837e-08
3.0364057e-08
3.234366e-08
7.4651085e-08
2.0496018e-08
5.9621812e-08
2.2194798e-10
1.124635e-08
8.53346e-12
2.67468e-10
2.7768181e-13
1.0595667e-11
7.866209e-15
3.5757268e-13
3.2440477e-16
1.0226895e-14
9.9075914e-18
2.8266925e-16
1.6464079e-19
6.3284137e-18
2.2773065e-21
1.0926552e-19
2.7121836e-23
1.6876562e-21
2.6428472e-25
2.1769033e-23
2.0611481e-27
2.3039997e-25
1.2572913e-29
1.9182369e-27
5.7172174e-32
1.1167935e-29
1.7765832e-34
4.8738915e-32
3.2893048e-37
1.4520628e-34
2.6062808e-40
2.3682872e-37
1.2329812e-44
1.4760605e-40
-1.5565285e-47
2.2320335e-44
-1.2949123e-49
6.9762735e-47
-8.332459e-52
3.1714667e-49
-4.1541943e-54
1.2883221e-51
-1.7385685e-56
4.541208e-54
-6.3761948e-59
1.4108247e-56
-2.1839696e-61
3.9290262e-59
-2.8130719e-61
2.2349708e-61
-1.7221519e-59
5.2515006e-60
-2.2005557e-57
3.8230455e-58
-2.313044e-55
9.5565696e-57
-1.9191234e-53
-1.6064474e-54
-1.1272248e-51
-2.3843718e-52
-4.6714142e-50
-1.5133924e-50
-1.244363e-48
-5.2444581e-49
-1.4857862e-47
-9.0069618e-48
-5.413895e-47
-6.2035489e-47
-1.5899011e-46
4.266365e-78
2.9779517e-77
8.7295368e-76
3.8930038e-75
8.2975994e-75
5.9753186e-74
9.4865034e-75
1.462471e-73
5.6312651e-75
1.5737587e-73
8.506172e-76
1.1548407e-73
-4.4498923e-76
5.9496735e-74
-1.1964171e-75
2.8636021e-74
-9.6709259e-75
6.6364085e-74
-2.4905078e-72
1.2858089e-71
-4.9327681e-70
2.0594294e-69
-8.0417221e-68
2.8299653e-67
-1.1170126e-65
3.4209158e-65
-1.3576248e-63
3.7004092e-63
-1.4694166e-61
3.6265117e-61
-1.4367031e-59
3.2518415e-59
-1.275652e-57
2.6858902e-57
-1.0400181e-55
2.0581728e-55
-7.8585833e-54
1.4722347e-53
-5.5306402e-52
9.866304e-52
-3.6485547e-50
6.2250233e-50
-2.2091808e-48
3.6882183e-48
-1.1723257e-46
2.0294838e-46
-5.8510836e-45
1.0588248e-44
-3.942624e-43
5.9837072e-43
-4.0321928e-41
4.2901167e-41
-2.89603e-39
2.8402782e-39
-8.0939106e-38
9.7580671e-38
-8.9802627e-37
1.5375705e-36
-6.9013152e-36
1.4491832e-35
-9.949885e-35
1.2058047e-34
-6.791902e-33
4.3155272e-33
-7.9554512e-31
4.4879927e-31
-8.6799577e-29
4.6137464e-29
-8.1193855e-27
4.0876165e-27
-6.5146121e-25
2.6391566e-25
-4.4124328e-23
1.3848465e-23
-2.5112288e-21
6.6731241e-22
-1.2481563e-19
2.9976757e-20
-5.645612e-18
1.1675081e-18
-1.4045361e-16
4.0051163e-17
-2.6047681e-16
1.1297267e-15
0
3.8863994e-14
0
1.667687e-12
-1.067966e-09
1.1666383e-10
-1.6919698e-09
1.9790431e-12
-4.8758182e-10
-6.5857155e-09
-5.1103168e-11
-1.5749629e-09
3.7265801e-11
-1.0090884e-09
1.0306969e-10
-5.6805011e-10
3.0461448e-09
-3.766775e-09
2.1372745e-07
-1.0883135e-07
4.7040736e-07
-5.2255872e-07
6.4113193e-07
-6.1291303e-07
8.0595128e-07
-5.5614533e-07
9.4625823e-07
-3.9094832e-07
1.0321144e-06
-2.4549077e-07
1.035098e-06
-8.115365e-08
9.790096e-07
7.8787759e-08
8.889025e-07
2.2140973e-07
7.2721939e-07
2.885306e-07
2.1769492e-07
2.9425879e-07
5.4991639e-09
1.4820492e-07
1.0189274e-09
5.4898696e-08
1.6495745e-08
4.6411863e-08
2.3350245e-10
2.3073666e-08
6.2647322e-12
4.6392739e-10
1.6698733e-13
1.5366287e-11
4.2973493e-15
4.7506501e-13
3.1004933e-16
1.2753177e-14
1.0274658e-17
3.4208472e-16
1.3904876e-19
7.2079141e-18
1.6068072e-21
1.1109775e-19
1.622133e-23
1.3439162e-21
1.3101971e-25
1.3464382e-23
8.0748187e-28
1.0682602e-25
3.5955035e-30
6.2895298e-28
1.0660783e-32
2.5449054e-30
1.8099872e-35
6.6627868e-33
1.1421866e-38
9.3337763e-36
-5.5625365e-43
6.0986752e-39
-4.1794941e-45
8.7204979e-42
-3.8554182e-47
1.7757207e-44
-2.7985053e-49
8.8172956e-47
-1.69754e-51
4.5571914e-49
-9.1771983e-54
1.9953547e-51
-4.6111791e-56
8.2999213e-54
-2.0623802e-58
3.2377555e-56
-4.1148354e-59
1.3899467e-58
-1.0757842e-58
3.9970802e-59
-1.6291318e-56
4.4746893e-57
-1.6960976e-54
2.4728906e-55
-1.6061153e-52
1.6361828e-54
-1.1761031e-50
-1.4232769e-51
-6.063675e-49
-1.5401375e-49
-2.2192745e-47
-8.2609398e-48
-5.1524042e-46
-2.4995641e-46
-5.422506e-45
-3.8075838e-45
-1.8384917e-44
-2.4130972e-44
-5.9124939e-44
1.3156399e-75
8.4294575e-75
2.5680168e-73
1.0172417e-72
2.4772706e-72
1.5129162e-71
2.9688681e-72
3.5899026e-71
2.1465124e-72
3.808189e-71
6.8248098e-73
2.8000887e-71
7.1343082e-74
1.4380876e-71
-1.049878e-73
6.6875172e-72
-9.3907298e-73
1.0700046e-71
-3.2461011e-70
2.441726e-69
-7.5709737e-68
4.3351297e-67
-1.3639075e-65
6.3631621e-65
-2.0332966e-63
8.0674903e-63
-2.601227e-61
9.0471039e-61
-2.9200032e-59
9.1195416e-59
-2.9219854e-57
8.3576526e-57
-2.645867e-55
7.0308744e-55
-2.1823346e-53
5.4645899e-53
-1.6560639e-51
3.9498367e-51
-1.1654121e-49
2.6665074e-49
-7.6479125e-48
1.6900678e-47
-4.5976943e-46
1.0027272e-45
-2.4694923e-44
5.5354475e-44
-1.2530938e-42
2.8977647e-42
-7.4814305e-41
1.5733893e-40
-5.8156793e-39
9.8105539e-39
-4.0196886e-37
5.9631515e-37
-1.5998886e-35
2.416591e-35
-3.1468762e-34
5.3499338e-34
-3.2112491e-33
6.586619e-33
-2.1537987e-32
5.3438886e-32
-1.5633857e-31
4.0310771e-31
-2.8468481e-30
5.0637524e-30
-1.90983e-28
1.8541347e-28
-1.4522347e-26
1.1449528e-26
-5.8561807e-25
4.8554429e-25
-1.9211346e-23
1.2873938e-23
-7.7635252e-22
4.2181778e-22
-3.4679748e-20
1.6554146e-20
-1.4521762e-18
4.7341749e-19
-4.6969462e-17
1.1659039e-17
-7.869153e-16
2.91785e-16
0
6.1622921e-15
0
1.726568e-13
0
3.2245392e-12
-1.0134968e-09
8.3710296e-12
-2.4777695e-10
-2.5404984e-09
0
-1.9939715e-09
8.0746939e-11
-1.6962059e-09
1.1723321e-10
-5.8846146e-10
1.2267411e-08
-2.3385344e-08
7.8113021e-08
-4.4514363e-08
1.6197129e-07
-1.0615462e-07
3.1539823e-07
-1.8661074e-07
2.7240438e-07
-9.0598227e-08
3.1791758e-07
-2.070054e-08
5.8681315e-07
-4.7130278e-09
9.4017611e-07
-9.5055862e-10
9.6072914e-07
6.7703828e-08
8.7459389e-07
3.1530537e-07
7.9765958e-07
3.7209844e-07
6.7595254e-07
4.2285689e-07
4.0948422e-08
2.7389835e-07
5.2968512e-10
6.6165967e-08
1.5322183e-08
3.1881768e-08
9.5870332e-11
2.3687628e-08
0
5.3611275e-10
0
1.5687244e-11
9.8785119e-16
4.0017631e-13
2.0967817e-16
9.3534481e-15
5.5466468e-18
2.3231707e-16
6.9236227e-20
4.1612084e-18
6.8961626e-22
5.5330383e-20
5.416708e-24
5.4728184e-22
3.1950889e-26
4.0316605e-24
1.3301489e-28
2.1764226e-26
3.5113701e-31
8.080513e-29
4.725605e-34
1.9058449e-31
1.3610482e-37
3.1829573e-34
-2.5002061e-40
9.3252968e-37
-2.6583456e-42
2.35853e-39
-2.4742897e-44
9.7675747e-42
-1.9516207e-46
8.1441871e-44
-1.3426685e-48
4.4051813e-46
-8.7309288e-51
2.1846357e-48
-5.0144361e-53
1.0521627e-50
-2.1996547e-55
4.4245888e-53
-1.1294313e-57
1.4529097e-55
-1.5783782e-57
1.290047e-57
-1.0728894e-55
4.1295225e-56
-1.210125e-53
2.9147452e-54
-1.1009039e-51
1.1978493e-52
-9.2023239e-50
-2.2079145e-51
-5.8635906e-48
-9.3228637e-49
-2.6510358e-46
-7.830081e-47
-8.5625531e-45
-3.5816479e-45
-1.7434449e-43
-9.4988479e-44
-1.6301222e-42
-1.289957e-42
-5.1007819e-42
-7.5355675e-42
-1.7574642e-41
7.4088788e-73
4.3356852e-72
6.2065903e-71
2.1957359e-70
6.1345404e-70
3.2163933e-69
7.6519684e-70
7.5288413e-69
6.1569689e-70
7.921997e-69
2.4513841e-70
5.8631315e-69
5.8772419e-71
3.0349307e-69
8.7535302e-72
1.2815759e-69
-2.891599e-71
9.0067616e-70
-2.4652253e-68
3.2930034e-67
-8.0279677e-66
7.1123636e-65
-1.724351e-63
1.1571755e-62
-2.8528308e-61
1.5657178e-60
-3.9136844e-59
1.8391028e-58
-4.6141861e-57
1.9186653e-56
-4.7837691e-55
1.8060615e-54
-4.4142337e-53
1.5490713e-52
-3.6902074e-51
1.223131e-50
-2.8078201e-49
8.9337708e-49
-1.9702167e-47
6.0782304e-47
-1.2761641e-45
3.8651189e-45
-7.5438791e-44
2.2943803e-43
-4.0459809e-42
1.2688789e-41
-2.0857563e-40
6.6661276e-40
-1.1648025e-38
3.5492779e-38
-6.8453455e-37
1.9704403e-36
-3.8963105e-35
1.0346386e-34
-2.1064078e-33
4.6011196e-33
-7.472402e-32
1.5106587e-31
-1.11072e-30
2.6871468e-30
-7.1887261e-30
2.2957079e-29
-3.1075944e-29
1.2118208e-28
-2.0022394e-28
6.9752412e-28
-9.3427695e-27
1.4526922e-26
-1.3935283e-24
1.2528002e-24
-7.0580488e-23
7.2709288e-23
-9.0527112e-22
1.3804215e-21
-6.0609444e-21
1.0799547e-20
-5.3486242e-20
6.1470763e-20
-9.5477725e-19
5.6850251e-19
-2.4762145e-17
1.1037799e-17
-5.7038646e-16
2.4174177e-16
-2.5492212e-15
4.6402212e-15
0
1.939052e-13
-4.905458e-12
8.0256072e-12
-2.6300257e-10
0
-5.6550379e-11
-1.4831724e-09
3.9504134e-12
-1.7128598e-09
1.6257204e-10
-1.6917874e-09
2.0127933e-10
-6.256336e-10
1.6510951e-08
-3.9802611e-08
1.7173443e-08
-2.0200799e-07
1.5500874e-08
-1.3292304e-07
1.7237241e-08
-2.0211093e-07
1.0745161e-08
-8.6252933e-08
4.6645125e-09
-1.4973506e-08
3.714396e-09
-3.9338839e-09
3.7725601e-09
-1.1446881e-09
1.1305807e-07
7.8176242e-10
4.846872e-07
9.8072922e-09
6.3737611e-07
4.0397953e-08
3.7088013e-07
2.5184827e-07
2.7623638e-08
2.6944929e-07
1.6554342e-10
8.5354713e-08
9.0604464e-09
1.4933696e-08
2.4928597e-10
1.0698538e-08
0
4.0600957e-10
0
8.5502364e-12
0
1.8514102e-13
6.5146996e-17
5.5946824e-15
1.3109245e-18
1.2053807e-16
1.3781261e-20
1.4983544e-18
1.1339892e-22
1.1561096e-20
6.5330086e-25
7.9171479e-23
2.4366044e-27
4.0029526e-25
5.331516e-30
1.5909766e-27
4.6491136e-33
6.9906234e-30
-9.1691598e-36
4.0084123e-32
-2.0898967e-37
1.7942377e-34
-2.8069999e-39
1.287569e-36
-3.0864587e-41
1.2917959e-38
-2.8606404e-43
9.6669241e-41
-1.9668268e-45
6.2727997e-43
-1.099647e-47
3.1539558e-45
-5.1129691e-50
1.3131677e-47
-2.0208958e-52
4.5181851e-50
-6.6043422e-55
1.3143886e-52
-2.5817655e-55
5.3194275e-55
-6.3383174e-55
2.7514392e-55
-7.6966838e-53
2.6202329e-53
-7.2198479e-51
1.479375e-51
-5.9567902e-49
4.1691818e-50
-4.3524576e-47
-2.6158197e-48
-2.393454e-45
-4.7112011e-46
-9.494593e-44
-3.1809717e-44
-2.7124191e-42
-1.2519917e-42
-4.8778556e-41
-2.9269907e-41
-4.0773484e-40
-3.5654278e-40
-1.1747805e-39
-1.9236321e-39
-4.2651189e-39
1.0626155e-69
5.6410334e-69
1.2725877e-68
4.2395222e-68
1.2991975e-67
5.8979079e-67
1.6806123e-67
1.3788827e-66
1.4316095e-67
1.4460095e-66
6.4071923e-68
1.0784852e-66
1.903618e-68
5.6318464e-67
3.0615887e-69
2.2280049e-67
2.6234732e-70
1.8789744e-68
-3.5281298e-67
2.4048412e-65
-4.4433202e-64
8.2570405e-63
-1.4017011e-61
1.6154589e-60
-2.8186732e-59
2.4089578e-58
-4.3212532e-57
3.0071537e-56
-5.4614601e-55
3.273513e-54
-5.9119514e-53
3.1773568e-52
-5.6263385e-51
2.7906966e-50
-4.7244034e-49
2.2367537e-48
-3.5914149e-47
1.6535038e-46
-2.4811024e-45
1.1325854e-44
-1.5663954e-43
7.2246386e-43
-8.9484345e-42
4.2903823e-41
-4.6214909e-40
2.3698233e-39
-2.3191373e-38
1.2459062e-37
-1.1842375e-36
6.491697e-36
-5.5944049e-35
3.3290569e-34
-2.6452428e-33
1.5786811e-32
-1.8588595e-31
7.5454481e-31
-1.1050462e-29
3.5243015e-29
-2.2221019e-28
8.4069318e-28
-1.469064e-27
7.5055884e-27
-5.0721405e-27
3.2378693e-26
-1.9124736e-26
1.1535543e-25
-6.5503407e-25
1.2695565e-24
-1.63797e-22
1.5932298e-22
-9.1174062e-21
1.069121e-20
-1.019813e-19
1.7338744e-19
-4.3865603e-19
9.5398295e-19
-1.5009649e-18
3.147272e-18
-8.5924868e-18
1.1564042e-17
-8.3652552e-17
7.7564658e-17
-7.3231568e-16
8.6875032e-16
-4.2408754e-14
4.8404474e-14
-1.2704067e-12
1.2890156e-12
-2.9921933e-10
1.4377042e-10
-8.2181106e-11
-2.4079508e-09
2.6963224e-12
-1.0718458e-09
5.5264107e-11
-1.0561974e-09
1.7019836e-10
-6.4977394e-10
2.0552276e-10
-6.7292375e-10
2.4207202e-08
-1.1349512e-08
9.1755059e-08
-2.6498308e-07
4.7030061e-08
-2.4832071e-07
5.1817643e-08
-3.9146062e-07
2.8691247e-09
-2.0531907e-07
3.5370853e-09
-2.2002343e-08
2.7825166e-09
-3.2889797e-09
2.8187272e-09
-1.24361e-09
3.454164e-09
1.2951459e-10
1.0489076e-08
3.0192595e-09
3.1164643e-08
1.3755934e-08
1.8613308e-07
3.6074418e-08
1.1281439e-07
6.2974893e-07
0
1.8010294e-07
2.7493995e-11
4.1747792e-09
3.3372856e-10
3.6262348e-10
0
1.9609975e-10
0
2.6658738e-12
1.9313766e-15
1.2465046e-13
3.195554e-16
1.6438053e-14
1.5263826e-18
3.1083458e-16
2.4228073e-21
1.2817838e-18
9.1689405e-24
4.2728653e-21
2.4766309e-26
1.4536214e-23
3.4671013e-29
1.0051974e-25
-2.8918659e-31
8.2659644e-28
-8.0256602e-33
5.9676849e-30
-1.2670052e-34
6.1873828e-32
-1.6060095e-36
6.8474613e-34
-1.6659487e-38
5.9241462e-36
-1.4379829e-40
4.3269557e-38
-1.0414112e-42
2.6915692e-40
-6.1733257e-45
1.4202713e-42
-3.0275022e-47
6.2889609e-45
-1.2135821e-49
2.2932646e-47
-4.2020855e-52
7.427689e-50
-3.444409e-54
2.3061926e-52
-5.9458603e-54
4.0114975e-54
-4.7818214e-52
2.1036872e-52
-4.3948738e-50
1.2991589e-50
-3.4876996e-48
5.8308776e-49
-2.6335801e-46
8.7790316e-48
-1.687319e-44
-1.6184078e-45
-8.0257619e-43
-1.8745022e-43
-2.8001432e-41
-1.0438414e-41
-7.108034e-40
-3.566275e-40
-1.1375827e-38
-7.4015298e-39
-8.548081e-38
-8.1410321e-38
-2.2703723e-37
-4.0662358e-37
-8.5772767e-37
1.5823789e-66
7.5721482e-66
2.1276813e-66
9.7279515e-66
2.3969219e-65
9.5535078e-65
3.221154e-65
2.2405781e-64
2.8459297e-65
2.352004e-64
1.3713838e-65
1.7692658e-64
4.4590602e-66
9.2816018e-65
8.6125821e-67
3.6823515e-65
1.0101219e-67
2.6461354e-66
2.2531673e-65
5.311097e-64
2.9082579e-63
3.4457893e-61
-2.2341527e-60
8.8636385e-59
-8.1485915e-58
1.510172e-56
-1.5944029e-55
2.0590887e-54
-2.3019344e-53
2.3793903e-52
-2.6842277e-51
2.4102613e-50
-2.6544792e-49
2.1867084e-48
-2.2787136e-47
1.8002452e-46
-1.6920358e-45
1.3566233e-44
-1.1146691e-43
9.4458089e-43
-6.479531e-42
6.1088188e-41
-3.3300819e-40
3.691361e-39
-1.4861764e-38
2.0910762e-37
-5.4634854e-37
1.1104309e-35
-1.4522021e-35
5.4748104e-34
-2.392437e-34
2.5452738e-32
-3.4294237e-33
1.3247723e-30
-5.6866036e-31
1.2503581e-28
-3.0209255e-28
1.2255978e-26
-1.5525259e-26
3.4796021e-25
-1.3993216e-25
2.6848883e-24
-4.9554351e-25
8.651235e-24
-1.5937024e-24
2.0499449e-23
-5.7791921e-23
1.3060003e-22
-1.4016623e-20
2.0593734e-20
-5.1199918e-19
9.7682942e-19
-4.6278102e-18
1.090352e-17
-2.0052466e-17
4.8762633e-17
-6.5015221e-17
1.3536791e-16
-1.2210362e-16
2.935726e-16
-7.2859209e-16
1.4724456e-15
-4.700414e-14
4.3329216e-14
-1.65123e-12
1.5826673e-12
-2.7360937e-11
2.3209257e-11
-2.5548747e-09
-1.3036496e-10
-2.5721284e-10
-3.9316697e-09
0
-5.1756915e-09
1.6243954e-10
-9.4525478e-10
1.2233023e-10
-6.4139498e-10
1.452006e-10
-7.1047831e-10
2.947351e-08
-1.0427053e-09
8.8913615e-08
-7.6694896e-08
8.7558544e-08
-2.4300015e-07
8.0891123e-08
-3.8118492e-07
4.7623636e-08
-4.0232343e-07
1.8719602e-09
-2.798331e-08
1.5824273e-09
-3.0601692e-09
1.534189e-09
-1.2012532e-09
1.522758e-09
1.360605e-10
2.5741665e-09
1.9617781e-09
7.8311889e-09
8.5387136e-09
9.0699528e-08
2.1455875e-07
9.3474182e-08
6.2798292e-07
0
2.6431246e-07
3.483273e-11
2.8535657e-09
1.3415695e-12
2.7602614e-10
6.4889201e-13
4.4990366e-11
3.1322216e-14
5.226575e-12
4.680477e-14
8.0579474e-13
6.2800078e-17
2.7123263e-14
1.0842626e-19
1.374143e-16
1.1740547e-22
5.3486616e-19
-1.8792562e-25
1.5996019e-21
-9.507493e-27
9.9079748e-24
-2.2870092e-28
1.129958e-25
-4.0940765e-30
1.6522593e-27
-5.8336479e-32
1.9886823e-29
-6.8552155e-34
1.9309228e-31
-6.634958e-36
1.5917318e-33
-5.3294609e-38
1.1162124e-35
-3.6107265e-40
6.8654106e-38
-2.0844507e-42
3.7583532e-40
-1.046922e-44
1.7667245e-42
-4.4040129e-47
7.2428232e-45
-1.8055472e-49
2.6542602e-47
-6.4318559e-52
9.2613287e-50
-5.1200644e-52
6.201253e-52
-2.8489988e-51
1.4285321e-51
-2.5617657e-49
9.8634019e-50
-2.0106281e-47
5.0745021e-48
-1.3729396e-45
1.7721639e-46
-9.5361951e-44
2.4883532e-47
-5.3626024e-42
-7.0091503e-43
-2.2158355e-40
-5.9502366e-41
-6.8350982e-39
-2.7885503e-39
-1.5507308e-37
-8.3519542e-38
-2.2247081e-36
-1.5503361e-36
-1.5108131e-35
-1.5496954e-35
-3.7113801e-35
-7.1856127e-35
-1.4444225e-34
1.885321e-63
8.0897976e-63
9.6629755e-64
4.598538e-63
3.7942841e-63
1.4138083e-62
5.4553944e-63
3.2680082e-62
4.9818459e-63
3.4512258e-62
2.5175729e-63
2.6239799e-62
8.9862371e-64
1.3924987e-62
2.191787e-64
6.1783625e-63
1.7788024e-65
2.8534313e-64
9.8943595e-64
6.2640783e-63
5.8832834e-61
5.0779924e-60
1.9854639e-58
6.4942946e-57
1.1542453e-56
1.7773646e-54
-4.4380789e-54
2.9565849e-52
-1.1793216e-51
3.7803285e-50
-1.7174504e-49
4.0741948e-48
-1.7931827e-47
3.844208e-46
-1.4767991e-45
3.2468782e-44
-9.4169511e-44
2.4868695e-42
-3.9587347e-42
1.7419343e-40
-1.281351e-41
1.1252031e-38
1.7912103e-38
6.7438976e-37
2.1999361e-36
3.7646476e-35
1.8187754e-34
1.9628037e-33
1.2076151e-32
9.55854e-32
6.8722319e-31
4.4114302e-30
3.8933059e-29
2.2012928e-28
3.0753496e-27
1.6596875e-26
2.3701197e-25
1.3501163e-24
5.9407184e-24
4.1327019e-23
3.3185822e-23
3.5737508e-22
5.2035628e-23
1.1416359e-21
1.6717412e-23
2.2318811e-21
-6.911249e-22
6.7055444e-21
-2.3041188e-19
7.5519703e-19
-8.4328896e-18
2.9870966e-17
-8.72068e-17
2.9440565e-16
-4.3091986e-16
1.2593481e-15
-1.2395269e-15
3.0396523e-15
-1.6792008e-15
3.528383e-15
-1.1571332e-14
1.1544112e-14
-2.1655063e-13