/*--------------------------------*- C++ -*----------------------------------*\
  =========                 |
  \\      /  F ield         | OpenFOAM: The Open Source CFD Toolbox
   \\    /   O peration     | Website:  https://openfoam.org
    \\  /    A nd           | Version:  9
     \\/     M anipulation  |
\*---------------------------------------------------------------------------*/
FoamFile
{
    format      ascii;
    class       volScalarField;
    location    "0.91";
    object      p;
}
// * * * * * * * * * * * * * * * * * * * * * * * * * * * * * * * * * * * * * //

dimensions      [1 -1 -2 0 0 0 0];

internalField   nonuniform List<scalar> 
10000
(
0
0.00055508386
0.0021149501
0.0032962442
0.0041567729
0.0050189012
0.0053188959
0.0049332057
0.003678433
0.0012230521
-0.0026947204
-0.0083821749
-0.016270272
-0.026678337
-0.040022446
-0.056732118
-0.077133163
-0.10163281
-0.13064974
-0.16450493
-0.20356472
-0.24817597
-0.29856003
-0.35486321
-0.41719771
-0.48546405
-0.55935451
-0.63842504
-0.72198588
-0.80896068
-0.89788668
-0.98691894
-1.0736934
-1.155173
-1.2275992
-1.2864615
-1.3264074
-1.3411698
-1.3236233
-1.266142
-1.1607785
-0.99792455
-0.76706721
-0.46535835
-0.096924125
0.36331739
1.0118789
1.8929426
2.66917
3.6811372
4.4524835
4.7774851
4.8158853
4.4730292
3.7138049
2.9601609
2.3040082
1.7789692
1.5571504
1.5715741
1.7336381
1.9050636
2.1674111
2.3457776
2.500245
2.6115967
2.7095664
2.789221
2.845035
2.8797071
2.8971382
2.9015834
2.8973632
2.8881268
2.8766321
2.8648811
2.8542994
2.8458299
2.8400309
2.8372048
2.8374734
2.8408125
2.8471031
2.8561647
2.8677634
2.8816107
2.8973605
2.9145234
2.9326981
2.9515172
2.9704346
2.9888418
3.006091
3.0216691
3.0358962
3.0482299
3.058712
3.0667599
3.0715211
3.076231
-0.001709574
-0.00040028716
0.0014696655
0.0029381037
0.0039373452
0.0051706976
0.0057057016
0.0056756328
0.004738391
0.0026407396
-0.00087949743
-0.006241585
-0.013736259
-0.023760027
-0.03676944
-0.053091274
-0.073139926
-0.097392796
-0.12621625
-0.16000566
-0.19920161
-0.24412695
-0.2950273
-0.35219737
-0.41580228
-0.48579474
-0.56204025
-0.64426817
-0.73188199
-0.82394197
-0.91920603
-1.0160104
-1.1120949
-1.2045507
-1.2897935
-1.3634452
-1.4202399
-1.4540367
-1.4578708
-1.4244493
-1.3469109
-1.2163907
-1.0213966
-0.76846347
-0.48112563
-0.10168753
0.53009484
1.6055446
3.2397506
4.1102087
4.326108
4.5935449
4.5224194
4.2010008
3.7512971
3.0645277
1.8260496
1.2470996
1.0942641
1.1904118
1.6041621
2.0602281
1.8975046
2.2102705
2.3422352
2.4531218
2.563753
2.6493661
2.7116214
2.7549874
2.7819936
2.7965909
2.8028209
2.8038117
2.8019491
2.799034
2.7964185
2.7950825
2.7956747
2.7986008
2.8040796
2.8121424
2.822703
2.8356054
2.8506199
2.8674468
2.8857475
2.9051437
2.9252368
2.9455093
2.9654982
2.9847624
3.0029773
3.0199418
3.0353998
3.0487904
3.0600466
3.0686716
3.0738565
3.0789295
-0.0030621966
-0.0015108491
0.000740822
0.0024775775
0.0038997833
0.0056095393
0.0067054798
0.0072284035
0.0069195419
0.005551275
0.0027258679
-0.0018504586
-0.0085381376
-0.017790493
-0.029957917
-0.045448888
-0.064748436
-0.088256086
-0.11638217
-0.14963272
-0.18841632
-0.23307606
-0.28401544
-0.34159635
-0.40602622
-0.47742681
-0.55587007
-0.64122153
-0.73305933
-0.83072605
-0.93326319
-1.0392324
-1.1466146
-1.2527812
-1.3543811
-1.4471639
-1.5259318
-1.5846024
-1.6161455
-1.6131369
-1.5697239
-1.4784359
-1.3245995
-1.1237656
-0.95587753
-0.75968219
0.14446942
1.4869445
2.4790028
3.3503733
4.1764129
4.3639174
4.3058512
4.0256179
3.6214834
2.3510489
1.3532824
0.89750452
0.63443504
0.73505747
1.1228637
1.4622866
1.8240334
2.0155595
2.1394317
2.317659
2.4478015
2.5360109
2.5985205
2.643767
2.6747523
2.6951431
2.7087809
2.7181774
2.7250135
2.730592
2.7359701
2.741988
2.7492886
2.7582932
2.7692251
2.7821788
2.7971349
2.8139583
2.8324664
2.8524246
2.873496
2.8953097
2.9174902
2.939628
2.9613361
2.9822253
3.0019039
3.0199569
3.0364013
3.0508602
3.063024
3.072337
3.0780598
3.0836261
-0.0045163267
-0.002705253
-0.00015639379
0.0020466948
0.0038168784
0.0063641065
0.0081285436
0.0094344987
0.010044818
0.0096017517
0.0078193476
0.0043692392
-0.0011979499
-0.0092512258
-0.020179743
-0.034473624
-0.052555568
-0.074848619
-0.10189185
-0.13417962
-0.17213842
-0.21625526
-0.26702773
-0.32485369
-0.39008969
-0.46309512
-0.5441228
-0.63322894
-0.73030629
-0.83506495
-0.94686966
-1.0646082
-1.1866482
-1.3107439
-1.4338372
-1.551873
-1.659751
-1.7513623
-1.8194283
-1.8560432
-1.855933
-1.8139609
-1.7170144
-1.5976385
-1.5997664
-1.6370802
-0.37846469
0.171192
1.4865837
2.4897616
3.0669777
3.6999876
3.6525106
3.4721537
2.6725471
1.3825585
0.30846598
-0.39784435
-0.83967358
-0.55395687
0.28840232
1.0977585
0.98231796
1.687128
1.8415979
2.1253607
2.3317624
2.4355623
2.4953358
2.5401994
2.5736614
2.5979911
2.6170117
2.6328919
2.6467512
2.6594811
2.6718945
2.6846584
2.6983203
2.7132754
2.7297448
2.7478286
2.7675334
2.7887343
2.8112894
2.8349209
2.859311
2.8841256
2.9090372
2.933685
2.9576762
2.9806455
3.0022748
3.0222858
3.040056
3.055715
3.0689547
3.0791274
3.0855237
3.0917325
-0.0060681021
-0.0040634212
-0.0010613643
0.0016111052
0.0041589486
0.0074617928
0.010161672
0.01256915
0.01432021
0.015153968
0.014780113
0.012773747
0.0087558968
0.0023441646
-0.0069519114
-0.01957566
-0.035953589
-0.05662563
-0.082140494
-0.1129895
-0.14972242
-0.19294114
-0.24318618
-0.30096951
-0.3668784
-0.44148605
-0.52524016
-0.61850775
-0.7216076
-0.83467144
-0.9574756
-1.0893881
-1.2293062
-1.3754686
-1.5252132
-1.6747744
-1.8191353
-1.951953
-2.0653471
-2.150269
-2.2001951
-2.2111358
-2.1737787
-2.1210631
-2.2048497
-2.2255939
-1.7443656
-0.95446068
0.33238404
1.2977282
1.9755454
2.4713708
2.9735803
3.5343908
3.3452046
1.4129869
-1.4563133
-2.7117891
-2.4970635
-0.65322158
-1.3045262
-0.18361295
0.22419614
0.95593659
1.4874201
1.8569239
2.1550445
2.2836614
2.3500953
2.4028708
2.4456439
2.4789318
2.5067587
2.5314884
2.5540783
2.575303
2.5959206
2.6165462
2.6376868
2.6597127
2.6828225
2.7070956
2.7325545
2.7591274
2.7865961
2.8147222
2.8432281
2.8717961
2.9000913
2.9277826
2.9545134
2.9799592
3.0038168
3.0257519
3.0454142
3.0626513
3.0772429
3.0885203
3.0958139
3.1028416
-0.0080577453
-0.0057607048
-0.0023164831
0.0010468098
0.0045118727
0.0086940951
0.012618305
0.016318806
0.019537322
0.022011263
0.023351386
0.023194916
0.021168148
0.016788959
0.0095961911
-0.00083839381
-0.015045728
-0.033607251
-0.057044043
-0.085932232
-0.12094826
-0.16273922
-0.2119285
-0.26922985
-0.33543927
-0.41131596
-0.49757896
-0.59500916
-0.70442219
-0.82645627
-0.96143521
-1.1093651
-1.2698074
-1.4416277
-1.6227306
-1.809775
-1.9978198
-2.1800207
-2.3472846
-2.4881941
-2.5921255
-2.6518281
-2.6574331
-2.6259328
-2.6710952
-2.7315284
-2.4490112
-1.7219623
-0.71957183
0.071431849
0.59392047
0.9835879
3.9250662
3.1365706
1.1475785
-0.99738781
-3.1187097
-2.8990462
-3.6830485
-3.1226683
-1.6809935
-1.1029188
-1.7099177
-0.21500131
0.87465371
1.4656801
1.886676
2.0594622
2.1460448
2.2194092
2.2819212
2.331766
2.3737178
2.4111484
2.4453411
2.4773112
2.5079796
2.5380536
2.5680868
2.5984677
2.6293916
2.660849
2.6930831
2.7258726
2.7590607
2.7924216
2.8256841
2.8585674
2.8907798
2.9220182
2.9519512
2.9802914
3.0067619
3.0310397
3.0528269
3.0719519
3.0881107
3.1006742
3.1090619
3.1171389
-0.010594542
-0.0080518014
-0.0040008935
0.00012253167
0.0046344391
0.0099603971
0.015253085
0.020528006
0.02555481
0.029956128
0.033398448
0.035529349
0.035882633
0.033992883
0.029429068
0.02166748
0.010126109
-0.0057425756
-0.026519971
-0.052893673
-0.08557744
-0.12527191
-0.17277823
-0.22900414
-0.29489328
-0.37142942
-0.45967
-0.56083257
-0.67633142
-0.80749626
-0.95532483
-1.1205893
-1.3036709
-1.504286
-1.7211725
-1.9516517
-2.1909913
-2.4317207
-2.6628785
-2.8691562
-3.032975
-3.1390218
-3.1700497
-3.1211613
-3.0629468
-3.0446236
-2.8103548
-2.3930935
-1.6900103
-1.1005986
-0.81024617
-0.8179819
-1.6492845
-2.3696858
-4.4980034
-6.6960989
-8.0311997
-8.7332089
-7.8386725
-6.6476853
-3.9697718
-1.9921251
-2.7460069
-1.1998412
0.24438504
1.0601397
1.5315251
1.7574657
1.8841098
1.9925531
2.0855305
2.1596732
2.221133
2.2749999
2.323471
2.368196
2.4104719
2.4512692
2.4912808
2.5309
2.5704462
2.6100411
2.6497486
2.689455
2.7290104
2.7682122
2.8068185
2.8445793
2.8812357
2.916517
2.9501141
2.9817529
3.0112275
3.0382097
3.0624077
3.0836615
3.1016623
3.1157329
3.1254112
3.1347649
-0.013980618
-0.01105861
-0.0063814591
-0.0013740447
0.0043590007
0.010989222
0.017899119
0.025054789
0.032153778
0.038840503
0.044809406
0.049608187
0.052785588
0.053913266
0.05247541
0.047888057
0.039604993
0.027048474
0.0095306283
-0.013674478
-0.043284366
-0.080111304
-0.12516561
-0.17949623
-0.24420271
-0.32052282
-0.40985169
-0.51371076
-0.63439582
-0.77430745
-0.93506644
-1.1183064
-1.3254492
-1.5573949
-1.8141118
-2.094013
-2.3930062
-2.7032588
-3.0116904
-3.2978907
-3.5346144
-3.6939906
-3.7447078
-3.6584389
-3.4808276
-3.3532125
-3.3047934
-3.0600405
-2.6221937
-2.205771
-2.0424875
-2.3292634
-2.5493979
-3.4869577
-6.1394196
-9.2365919
-11.648435
-13.168616
-12.884099
-11.510629
-9.5835726
-4.8113123
-4.8175775
-2.4827259
-0.69160864
0.52870163
1.0747519
1.3848368
1.572155
1.7293865
1.8619932
1.9666214
2.0519817
2.1252698
2.1901761
2.2492323
2.30436
2.356892
2.4076515
2.4574041
2.5063929
2.5548095
2.6027155
2.6500282
2.6966081
2.7422783
2.7868381
2.8300524
2.8716645
2.9114397
2.9491144
2.9844561
3.0173032
3.0472929
3.0742313
3.0978988
3.1179896
3.1337633
3.1449574
3.1558737
-0.018405418
-0.015116665
-0.0097074294
-0.0036478969
0.0033721538
0.011556985
0.020370954
0.029648093
0.039127462
0.04850034
0.057373519
0.065257662
0.071772268
0.076422528
0.078612748
0.077791689
0.07339902
0.064777025
0.051183507
0.031910746
0.0061897673
-0.026878598
-0.068526204
-0.11990883
-0.18233045
-0.25737172
-0.34657972
-0.45119569
-0.57518797
-0.72300716
-0.89605345
-1.097007
-1.3286791
-1.5935914
-1.8934829
-2.2285661
-2.5963161
-2.9895341
-3.3936127
-3.7828658
-4.1187648
-4.3543006
-4.4330265
-4.3057141
-4.0273032
-3.7811613
-3.719344
-3.6314052
-3.3349069
-3.0370318
-3.105054
-2.7064673
-4.4246605
-6.3157097
-8.493321
-12.054836
-15.103632
-16.888444
-16.986624
-15.343325
-12.520634
-9.0247824
-6.2717867
-4.3138788
-1.7359831
-0.24783935
0.55614985
0.96766615
1.2295536
1.4440865
1.6204539
1.7582048
1.8697282
1.9639382
2.0466177
2.1210955
2.1898733
2.2550395
2.3175543
2.3782051
2.4374211
2.4954207
2.5522549
2.6078743
2.6621521
2.7149227
2.7660057
2.8151801
2.8622296
2.9069415
2.9490682
2.9884293
3.0250512
3.0584067
3.0883387
3.1146803
3.1371541
3.1548847
3.1678094
3.1806111
-0.024224483
-0.020501309
-0.014226215
-0.0070628495
0.0014291992
0.011426054
0.022345805
0.03405288
0.046286566
0.058692383
0.070826826
0.082293811
0.092647878
0.10131964
0.10772484
0.1113148
0.11143824
0.10738465
0.098487545
0.083954065
0.062950074
0.034801716
-0.0023586778
-0.04950648
-0.10828685
-0.18080202
-0.26909414
-0.37090768
-0.49436276
-0.64963508
-0.83343055
-1.0506751
-1.3061111
-1.6043799
-1.9496157
-2.3449203
-2.7909357
-3.2831289
-3.8072635
-4.3342994
-4.8156335
-5.1761011
-5.3093821
-5.1310047
-4.7004698
-4.1692346
-3.9689778
-3.8638315
-3.6824872
-3.4800445
-3.5699435
-3.4885306
-4.2129829
-6.3571348
-9.5118375
-13.941295
-17.190668
-19.147622
-19.361752
-17.679555
-14.710067
-11.51076
-6.4403508
-5.6805667
-2.8144748
-0.96659507
0.029983681
0.54827115
0.88607077
1.1569479
1.3737617
1.5426452
1.679752
1.7939632
1.8945731
1.9848953
2.0681393
2.1465532
2.2215033
2.2938465
2.3640607
2.432387
2.4988658
2.5634609
2.6260532
2.6864934
2.7446244
2.8002456
2.8531888
2.9032633
2.9502343
2.9937198
3.0346058
3.0716364
3.1048277
3.1341114
3.159188
3.1790973
3.1940024
3.2090258
-0.031734509
-0.027505727
-0.020356676
-0.011911158
-0.0017442558
0.010228444
0.023525922
0.037999072
0.053311536
0.069088122
0.084970248
0.10049689
0.11513763
0.12841522
0.1396843
0.14830583
0.15361009
0.15485919
0.15140107
0.14242817
0.12676147
0.10543424
0.073733483
0.032363335
-0.020589713
-0.087202112
-0.16977635
-0.27080047
-0.39598245
-0.55191556
-0.74243412
-0.97299426
-1.2497816
-1.5800935
-1.9709405
-2.4298524
-2.9629358
-3.5716419
-4.2460591
-4.9603106
-5.6606822
-6.2315178
-6.4856233
-6.2702048
-5.6052337
-4.6773214
-4.1053396
-3.778613
-3.602561
-3.4538173
-3.5011547
-3.9967946
-5.3716938
-6.0222037
-9.4420546
-13.89872
-17.314177
-19.317384
-19.651538
-18.02878
-15.731129
-13.192043
-7.8405428
-6.3934244
-3.5700962
-1.511964
-0.41638511
0.1828671
0.57604364
0.8887109
1.1343817
1.3279582
1.4863288
1.619828
1.736906
1.8425568
1.9402726
2.0323682
2.1203109
2.2049945
2.2868985
2.3662353
2.4430197
2.517207
2.5886979
2.657353
2.7230176
2.785533
2.8447789
2.90061
2.9529391
3.001888
3.0462805
3.0869904
3.1236287
3.1560998
3.1840412
3.2063405
3.2235215
3.2411156
-0.041284346
-0.0365842
-0.028413587
-0.018531215
-0.0065656963
0.0076194325
0.02359231
0.041103685
0.059829596
0.079442358
0.099529073
0.11957993
0.13907153
0.1575088
0.17423743
0.18855544
0.19975417
0.20712979
0.2099572
0.20753057
0.19891928
0.18345238
0.15931942
0.12551514
0.080354496
0.021724714
-0.053203343
-0.14850166
-0.26992061
-0.42410944
-0.61758844
-0.85750815
-1.1518834
-1.5102113
-1.9438121
-2.4661676
-3.0922261
-3.8346017
-4.6951429
-5.665316
-6.7012112
-7.6408406
-8.1687506
-8.0133787
-7.167708
-6.008883
-4.8985009
-3.9759545
-3.4187879
-3.086997
-2.9361067
-3.2248315
-4.1963497
-5.1268946
-8.2018395
-12.700545
-15.895348
-17.715882
-18.067224
-16.756841
-14.855998
-12.265474
-8.2289124
-5.2106985
-3.7495863
-1.7747779
-0.71002846
-0.10226537
0.32023997
0.65078798
0.91145046
1.1206502
1.2942908
1.4431013
1.5750416
1.6952574
1.8072418
1.9132387
2.0146447
2.1122544
2.2064819
2.2974863
2.3852306
2.4696182
2.5505501
2.6279033
2.7015318
2.7713146
2.8371588
2.8989825
2.9567137
3.0103014
3.0594746
3.1042989
3.1446732
3.1805799
3.2116325
3.2365131
3.2562727
3.2767967
-0.053352507
-0.048072541
-0.038789472
-0.027400577
-0.013427302
0.0032356766
0.022104795
0.04295644
0.065513004
0.089389852
0.11410958
0.13920645
0.1641519
0.18836352
0.21118183
0.23185138
0.24968121
0.26398531
0.27392534
0.27878581
0.27782868
0.27011478
0.25444216
0.2297299
0.19444493
0.14638949
0.082393883
-0.0023988563
-0.11466002
-0.26242604
-0.45405623
-0.69813738
-1.0042798
-1.3843113
-1.8540738
-2.4349675
-3.1535693
-4.043033
-5.1270159
-6.4413409
-7.9808304
-9.5523418
-10.713584
-11.050892
-10.509722
-9.1562695
-7.2795017
-5.1965696
-3.5841216
-2.6038965
-2.0639268
-1.9630576
-2.6412164
-4.2575454
-6.1606104
-10.841422
-13.409251
-15.338112
-15.666506
-13.621964
-12.899847
-10.880093
-7.5306699
-5.3493425
-3.3805026
-1.7551726
-0.84024846
-0.29291876
0.12028969
0.44466169
0.70657675
0.92161809
1.1045272
1.2649069
1.4097209
1.5435998
1.6696161
1.7897162
1.90506
2.0162289
2.1234624
2.2268019
2.326136
2.4213137
2.5122031
2.5986825
2.6806295
2.7579622
2.8306354
2.8986526
2.9619478
3.0205621
3.0744274
3.1234894
3.1677776
3.2073708
3.2417291
3.2693656
3.2920036
3.3158162
-0.068331224
-0.062433615
-0.052000612
-0.038929998
-0.022757206
-0.0034362689
0.018600136
0.043169908
0.069938623
0.098476064
0.12833239
0.15905161
0.19004973
0.22065671
0.25020787
0.27798241
0.30320859
0.32511495
0.34296233
0.35598114
0.36345685
0.36460207
0.35854834
0.34441151
0.32099922
0.28639056
0.23728809
0.1684621
0.071583905
-0.063766842
-0.24779076
-0.4900205
-0.80057789
-1.1929495
-1.6874013
-2.3149702
-3.1173553
-4.1533117
-5.4935816
-7.2599786
-9.5503721
-12.202839
-14.592465
-15.865919
-15.886707
-14.198209
-11.13583
-7.4054717
-4.1267263
-2.0337609
-1.0205142
-0.57712392
-0.68297703
-2.2162
-3.7099855
-7.4370293
-10.430706
-12.281549
-13.908062
-11.877558
-11.042532
-9.2298684
-6.6067886
-4.7555508
-2.8011421
-1.5485118
-0.87323646
-0.41366937
-0.038189208
0.26306857
0.51475997
0.72809315
0.91547317
1.0844493
1.2405703
1.3874981
1.5275697
1.6621899
1.7920957
1.9175537
2.0385534
2.1549286
2.2664625
2.3729759
2.4742829
2.570235
2.6607809
2.7458734
2.8254878
2.8997609
2.9686536
3.0324091
3.090996
3.1443973
3.1927021
3.2361324
3.2739229
3.3044711
3.3303389
3.3578074
-0.086743781
-0.080231734
-0.068503176
-0.053607942
-0.035111768
-0.012906855
0.012631283
0.041247056
0.072583574
0.10623788
0.1417875
0.17868503
0.2163112
0.25399649
0.29104274
0.32667071
0.36002076
0.39030795
0.41680128
0.43874315
0.45541967
0.46623534
0.47069801
0.46834463
0.45855874
0.44014139
0.41038418
0.36408834
0.29018457
0.17431849
0.0042269759
-0.22996994
-0.53690275
-0.9295679
-1.4315994
-2.0838719
-2.945183
-4.1096666
-5.7265936
-8.064249
-11.409877
-15.602232
-19.558773
-21.927152
-21.75259
-19.210028
-14.918305
-9.6284817
-4.6724967
-1.4177917
0.68218652
1.0673166
1.4274467
0.26265437
-1.0352075
-3.9588037
-7.775024
-9.1614042
-10.68563
-10.907923
-8.7635215
-7.7526104
-5.7349909
-3.7538688
-2.256378
-1.3638408
-0.87479172
-0.49833626
-0.17641063
0.093172679
0.32722901
0.53447682
0.72345655
0.8994791
1.0663342
1.2264
1.3810622
1.5309913
1.6763491
1.8169788
1.9525747
2.0827471
2.2071302
2.3254741
2.4375694
2.54325
2.642541
2.7354469
2.8220131
2.9024913
2.9770095
3.0458119
3.1090064
3.1666701
3.2190208
3.2663694
3.307695
3.3412586
3.3707428
3.402248
-0.10916681
-0.10195302
-0.088846183
-0.072056417
-0.051034176
-0.025676468
0.0036258612
0.036589605
0.072902748
0.11218195
0.15393242
0.19757795
0.24249944
0.28801722
0.33332844
0.37756888
0.41984609
0.45931945
0.49520669
0.52674687
0.55321685
0.57425098
0.58971764
0.59970264
0.60457781
0.60454206
0.59862036
0.5830462
0.54223787
0.45408757
0.30415927
0.083074256
-0.21254998
-0.59160691
-1.0785902
-1.7219673
-2.599046
-3.8520707
-5.7379355
-8.6866047
-13.144639
-18.783506
-23.693184
-26.271305
-25.466351
-22.057192
-17.114035
-10.807166
-4.8284247
-0.74196856
3.302661
2.0315306
3.0375019
2.4923226
1.6802107
-0.87135975
-3.978216
-6.4984989
-7.7794627
-7.9903819
-7.6775719
-6.1968031
-4.2912538
-2.8203012
-1.8241489
-1.2475094
-0.88811527
-0.58285212
-0.31681168
-0.080809349
0.1336724
0.33366731
0.52370952
0.70693608
0.88519225
1.0594172
1.2298846
1.3963987
1.5584481
1.7153944
1.8665661
2.0113409
2.1492189
2.2798384
2.4029714
2.5185183
2.6265636
2.7271765
2.8205696
2.9070526
2.9869354
3.0605462
3.1281236
3.189849
3.2461562
3.2973955
3.342247
3.3789097
3.4124381
3.4483802
-0.13613272
-0.12820063
-0.11369436
-0.094845003
-0.071096078
-0.042377382
-0.0090743942
0.028592223
0.070318427
0.11567859
0.16415458
0.2151908
0.26815376
0.32227185
0.37664775
0.43036694
0.48247473
0.531996
0.57799759
0.61970334
0.65644224
0.68790969
0.71427966
0.73627763
0.75572041
0.77494151
0.79663004
0.82103588
0.82644706
0.77663182
0.65209968
0.44505121
0.16594484
-0.18411065
-0.62855068
-1.2183911
-2.0447853
-3.3082747
-5.3763526
-8.8133346
-14.005315
-20.32222
-25.431771
-27.749593
-26.523837
-22.558668
-17.110912
-10.528265
-4.408142
5.3431587
6.1939389
3.0932175
4.0657505
4.0353006
3.3587161
1.746021
-0.41785661
-2.2869291
-3.4053558
-5.0124016
-4.4946763
-3.8030244
-2.8260967
-2.0688956
-1.5215731
-1.1851731
-0.93005624
-0.6943317
-0.47852371
-0.27383484
-0.076384121
0.11807843
0.31103008
0.50339133
0.6950852
0.88554356
1.0738326
1.2588038
1.4392115
1.6138888
1.7817776
1.9420031
2.0939691
2.2372447
2.3715737
2.4969734
2.613604
2.7216547
2.8215027
2.9135981
2.998404
3.0763593
3.1478494
3.2132453
3.2732348
3.3282111
3.376455
3.4163085
3.4544
3.495175
-0.16832631
-0.15966722
-0.14363997
-0.12258346
-0.095972964
-0.063723808
-0.02612606
0.016595624
0.064118861
0.11601734
0.17181872
0.23094931
0.29269967
0.35622325
0.42059089
0.48478346
0.54770797
0.60820086
0.66514129
0.71759317
0.76488088
0.80665808
0.84322028
0.87557908
0.90764345
0.94604836
0.99237287
1.0681428
1.1446136
1.1423496
1.0423639
0.8418654
0.58269674
0.27889794
-0.091012649
-0.57072846
-1.2295312
-2.3920059
-4.4043009
-7.8951625
-13.176225
-19.296536
-24.130653
-26.136894
-24.742411
-20.810999
-15.076985
-8.8514454
-3.4485087
9.3667753
6.0133778
4.0659954
4.5073847
4.6673885
4.1912456
3.0168042
1.9895767
0.43537355
-1.517906
-2.4999329
-2.568214
-2.3172566
-1.9475559
-1.6313793
-1.383924
-1.1970893
-1.0226538
-0.84971771
-0.67646779
-0.49802006
-0.31269658
-0.11966606
0.080156784
0.2853607
0.49400545
0.70395221
0.91298192
1.1189538
1.3198799
1.5139975
1.6998863
1.8764831
2.0430979
2.1992627
2.3447695
2.4797773
2.6045774
2.7195665
2.8252189
2.9221971
3.0112017
3.0927929
3.1674957
3.2359318
3.2990913
3.3574251
3.408811
3.4519486
3.4952934
3.5414159
-0.20646839
-0.19694042
-0.17933543
-0.15599875
-0.12640481
-0.090405687
-0.048255123
-0.00019215483
0.053500858
0.11246371
0.17622074
0.2441318
0.31545795
0.38932151
0.46472872
0.54050367
0.61535653
0.68789894
0.75675519
0.82068942
0.87878312
0.93049115
0.97619425
1.0156198
1.0567999
1.101588
1.1594758
1.3003922
1.4721006
1.5320903
1.4609311
1.24338
1.00305
0.77021761
0.51141542
0.20308547
-0.21767433
-1.0540447
-2.7165706
-5.7121678
-10.33901
-15.520451
-19.977795
-21.987561
-21.120276
-17.610862
-12.305039
-6.567388
-2.0229397
8.468422
4.093159
3.2632937
3.8617518
4.3463753
4.2212684
3.3138799
2.0384684
0.70354393
-0.46612984
-1.1424069
-1.4611444
-1.5726347
-1.5382775
-1.4603695
-1.3745191
-1.2839085
-1.1798179
-1.0609883
-0.92297166
-0.76389286
-0.58431382
-0.38655552
-0.1739724
0.049601031
0.2802306
0.51415234
0.74783423
0.9780773
1.2021442
1.4177452
1.6231013
1.8169882
1.9986798
2.167756
2.3241652
2.4682291
2.6004659
2.7215405
2.8321153
2.9330231
3.0251557
3.1093203
3.1862063
3.2567212
3.3222004
3.3831286
3.43713
3.4837255
3.5333596
3.5855862
-0.25117532
-0.24070028
-0.22152851
-0.19582637
-0.16309512
-0.12319298
-0.076319543
-0.022642275
0.037638544
0.1041858
0.17648875
0.25391029
0.33569587
0.42096426
0.50855429
0.5971571
0.68525754
0.77120004
0.85322169
0.92958592
0.99886548
1.0600053
1.1133124
1.1533848
1.1981029
1.2512392
1.2988591
1.4536397
1.8476152
1.9070338
1.7982918
1.526127
1.3870196
1.2477486
1.1185671
1.0185985
0.89790661
0.52787605
-0.50298498
-2.580476
-6.0516398
-10.373353
-14.439359
-17.033248
-17.067222
-14.321292
-9.5638882
-4.7565809
-2.238209
6.5512259
0.90623677
1.5921665
2.6324496
3.5288628
3.8080474
3.2482198
2.2429776
1.1409454
0.17037653
-0.516526
-0.9481092
-1.2123482
-1.3585572
-1.428508
-1.4539013
-1.4477246
-1.4105731
-1.3392533
-1.2296655
-1.0821577
-0.90021554
-0.68942255
-0.4561388
-0.206793
0.052521463
0.31625612
0.57951805
0.83808314
1.0884359
1.3278203
1.5541921
1.7662094
1.9631987
2.1449412
2.3116605
2.4639085
2.6025138
2.7284116
2.8425892
2.9460958
3.0399595
3.1252589
3.2028792
3.274052
3.3405017
3.4027269
3.4583554
3.5086933
3.5663699
3.6259438
-0.30320262
-0.29169502
-0.27093819
-0.24277532
-0.20685118
-0.16298431
-0.11122933
-0.0516537
0.015592277
0.09017328
0.17161884
0.25933442
0.35258034
0.45036336
0.55143194
0.65428815
0.75728717
0.85835018
0.95518831
1.0453889
1.1266437
1.1970722
1.2579451
1.2903465
1.3220473
1.3121664
1.2818212
2.677654
5.1517944
6.1164375
4.1136775
1.8370124
1.6750234
1.635964
1.6610646
1.7932261
1.9824885
2.088638
1.8405716
0.7969601
-1.5178465
-5.210317
-9.3379154
-12.720413
-13.897092
-11.469385
-6.8244913
-3.498164
-2.52353
2.3231747
-2.565681
-0.38876324
1.1053117
2.4058721
3.0936917
2.8736454
2.1404254
1.2653486
0.45060459
-0.20339381
-0.68786779
-1.0410098
-1.2995757
-1.4859434
-1.6153508
-1.6955828
-1.7247744
-1.6972196
-1.6095342
-1.4645852
-1.2698975
-1.0352671
-0.77086888
-0.4861974
-0.18970457
0.11117504
0.41009349
0.70182177
0.98212853
1.2478073
1.4967001
1.7275425
1.939778
2.1335456
2.3094866
2.4685347
2.6119494
2.7409996
2.8570353
2.9613538
3.0552114
3.1397705
3.2161905
3.2860707
3.3515013
3.412835
3.46826
3.5226725
3.5912433
3.6600614
-0.36328947
-0.35058972
-0.32823337
-0.29763697
-0.25856942
-0.21069785
-0.1539283
-0.088253836
-0.013773327
0.06926109
0.16047816
0.25932682
0.3650313
0.47654477
0.59254219
0.7114093
0.83130176
0.94972339
1.0636424
1.1696979
1.2646276
1.344163
1.4167823
1.4410833
1.481404
1.4524705
1.5455667
7.2864884
7.0924668
7.0393209
7.741467
3.9357101
1.9879287
1.9046402
2.0833392
2.4663935
2.9589568
3.4984851
3.9038178
3.7721114
2.1689772
-1.5688104
-6.4487229
-11.269832
-13.476145
-11.220834
-5.1157172
-5.7646379
-2.4209124
-3.7995426
-3.5593343
-1.8279059
-0.34139688
1.216907
2.2504505
2.3744472
1.9174262
1.2449126
0.56072172
-0.043080615
-0.55029772
-0.97589238
-1.3351406
-1.6330692
-1.8688914
-2.0393947
-2.1369805
-2.1515681
-2.0787146
-1.9248552
-1.7037819
-1.4313034
-1.1224273
-0.79030844
-0.44608635
-0.099120985
0.24278393
0.57333789
0.88769267
1.1823732
1.4552003
1.7051715
1.9321016
2.1366677
2.3201081
2.4839854
2.6300677
2.760095
2.875815
2.9788036
3.0704186
3.1519561
3.2247211
3.2907426
3.3524054
3.4094635
3.461019
3.5194308
3.6054022
3.6882857
-0.43201374
-0.41803705
-0.39413152
-0.3612337
-0.31909865
-0.26725715
-0.20549028
-0.13367151
-0.051761057
0.040149522
0.14177108
0.25257776
0.37177615
0.49832722
0.63089841
0.76781253
0.90706629
1.0456919
1.1798609
1.3050002
1.4170045
1.508642
1.5942068
1.6030884
1.6523217
1.4429918
1.7337222
3.5135827
6.3594626
6.5785156
4.7601193
2.2505412
1.6753237
1.9159587
2.3087694
2.9977636
3.7801587
4.6396129
5.5270029
5.9100555
4.1527225
-0.27355536
-5.8346169
-11.286772
-6.0563712
-4.2587927
-10.645729
-3.4773331
-4.9335585
-4.5215627
-3.904011
-2.9137581
-1.6154011
0.083275336
1.4373348
1.8796789
1.6582933
1.1456199
0.56738233
0.014396141
-0.50119202
-0.99041638
-1.4536601
-1.8725383
-2.2251821
-2.4957449
-2.6688438
-2.7258652
-2.6587676
-2.4799709
-2.2137489
-1.8848367
-1.5144278
-1.1198199
-0.71495717
-0.31118674
0.082265349
0.45814393
0.81107681
1.137438
1.4352999
1.7041364
1.9444909
2.1578676
2.3463087
2.5122279
2.6581254
2.7863292
2.8990052
2.998057
3.0849499
3.1608165
3.2270058
3.2860224
3.3403529
3.3878744
3.4271891
3.4863345
3.6043007
3.7126458
-0.50989745
-0.49471367
-0.46929361
-0.43428126
-0.38928593
-0.33371988
-0.26716253
-0.18925818
-0.099765971
0.0013638156
0.11393106
0.23747609
0.37127958
0.5143002
0.6651903
0.82243701
0.98399606
1.1464526
1.3050935
1.4538272
1.5871888
1.6980474
1.7899007
1.8227194
1.8554412
1.8207422
1.8334584
1.9715797
2.4499792
2.4021373
1.9265836
1.2524769
1.2589587
1.5686107
2.3683493
3.3557073
4.4029292
5.5340384
6.7326424
6.8673754
4.1722732
-1.8227867
-7.700928
-13.609262
-13.103933
-6.861963
-11.451968
-6.9085093
-5.1093182
-4.6903879
-4.5588869
-4.0470001
-2.7637623
-0.8309196
0.7602146
1.4042777
1.321487
0.92544824
0.46742558
-0.0059904266
-0.50851977
-1.055259
-1.6364687
-2.2003898
-2.6946993
-3.0872572
-3.3513569
-3.4530247
-3.3776657
-3.1497945
-2.812311
-2.4028169
-1.9495095
-1.4740298
-0.99301742
-0.51976383
-0.064839451
0.36362197
0.75987309
1.1203872
1.4438025
1.7304393
1.9819546
2.2010465
2.3909489
2.5551497
2.6971017
2.8199291
2.9263386
3.01852
3.0978916
3.1653373
3.221759
3.2697157
3.311594
3.3401236
3.3448129
3.3800143
3.5467723
3.7049188
-0.59748494
-0.58110329
-0.55422329
-0.51744032
-0.47008959
-0.41128262
-0.34028195
-0.25646723
-0.15939
-0.048854301
0.075090164
0.21214103
0.36168035
0.52268042
0.69377145
0.87357986
1.0609309
1.2518781
1.4401284
1.6183896
1.7792849
1.9181635
2.0251354
2.0921882
2.0951726
2.1199835
2.0331585
2.0707181
2.2382589
2.2337594
1.7800613
1.3901458
1.3624759
1.7514724
2.5308105
3.561612
4.7464076
5.9880667
7.3104846
7.0186584
2.9034218
-0.1349501
-7.9271471
-15.29264
-17.119055
-14.104326
-12.319068
-7.6547402
-5.2566875
-5.0416402
-5.3202893
-4.8617394
-3.3782108
-1.3031083
0.34711794
1.0038723
0.88492828
0.5119596
0.2197391
-0.085750377
-0.51952434
-1.1130947
-1.8523329
-2.6156519
-3.3001547
-3.8504673
-4.2285286
-4.3770766
-4.2705869
-3.9569881
-3.5121189
-2.9912591
-2.428824
-1.8505217
-1.2750908
-0.71754044
-0.18973467
0.29936088
0.7437443
1.140392
1.4889059
1.791025
2.0500313
2.2702795
2.4566629
2.6141255
2.7473681
2.8604406
2.9567802
3.0389417
3.1081641
3.1645137
3.2078124
3.2401187
3.2614548
3.2539234
3.1838186
3.1127861
3.376911
3.6752349
-0.69493849
-0.67733506
-0.64928844
-0.61141957
-0.56251773
-0.50117522
-0.42628619
-0.33695114
-0.23250967
-0.11254444
0.023107918
0.17434112
0.34071409
0.52131099
0.71449559
0.91867433
1.1365828
1.3611797
1.5845552
1.7989392
1.9941133
2.167035
2.2936662
2.3654537
2.3529293
2.3129238
2.1675509
2.0878455
2.0333734
1.9869238
1.7341741
1.9330981
2.1553506
2.3671103
2.8688414
3.7248272
4.7844713
6.0439408
7.4771335
7.2418616
3.9808185
3.636583
-4.6036423
-11.562644
-14.337806
-11.599203
-7.6975811
-4.6946254
-4.1280408
-4.6885303
-5.1455752
-4.5702751
-3.0087456
-1.095606
0.26902489
0.56724109
0.034506529
-0.46903673
-0.37881029
-0.28068916
-0.54642004
-1.1293535
-2.0721921
-3.1049994
-4.0470332
-4.8230238
-5.37057
-5.5713786
-5.3905792
-4.9311372
-4.3251903
-3.6534701
-2.9510882
-2.2448796
-1.5537474
-0.89471862
-0.28099339
0.2775139
0.77468968
1.2084781
1.5801635
1.8936539
2.1545876
2.3695859
2.5457492
2.6899208
2.8083556
2.9063248
2.988228
3.0572046
3.1139317
3.1575532
3.1874274
3.2050704
3.2030841
3.1556205
3.0198879
2.8811723
3.7629978
5.9479865
-0.80213267
-0.78321213
-0.75468198
-0.71684454
-0.66756524
-0.60473583
-0.52681933
-0.43263525
-0.32125201
-0.19199323
-0.044464253
0.12141305
0.30552276
0.50753816
0.72724225
0.96298042
1.212784
1.4702044
1.726019
1.9949156
2.2365132
2.4525101
2.6173557
2.701603
2.7082211
2.6101881
2.4158821
2.2095815
1.8923632
1.7976915
1.6435009
3.0373051
3.5344675
3.0790295
2.8944258
3.5876219
4.5812409
6.2460273
8.7832707
9.1199109
6.7431769
9.4143717
2.2020555
-5.4713075
-7.3301319
-6.055849
-3.6950568
-2.1326548
-2.2743426
-3.0880324
-3.564601
-2.979004
-1.5547276
-0.11660628
0.68384976
0.44709304
-1.0121962
-2.38929
-1.7060428
-0.65818994
-0.42690196
-0.79463501
-2.1578544
-3.6492987
-5.0196205
-6.1543467
-6.9406046
-7.1559499
-6.8042743
-6.1009495
-5.2579503
-4.3886465
-3.5124788
-2.6511977
-1.8196963
-1.0388861
-0.32413441
0.31320148
0.86726756
1.3376837
1.7285129
2.0468322
2.3016301
2.5026117
2.6596495
2.7820165
2.8779081
2.954232
3.0166028
3.0689976
3.1121243
3.1449317
3.1716479
3.1965708
3.2112657
3.1954383
3.1478535
3.3589178
9.5820992
11.937893
-0.91830758
-0.8977445
-0.87016878
-0.83425556
-0.78636854
-0.7235644
-0.64382955
-0.54568754
-0.42797712
-0.28979499