/*--------------------------------*- C++ -*----------------------------------*\
  =========                 |
  \\      /  F ield         | OpenFOAM: The Open Source CFD Toolbox
   \\    /   O peration     | Website:  https://openfoam.org
    \\  /    A nd           | Version:  9
     \\/     M anipulation  |
\*---------------------------------------------------------------------------*/
FoamFile
{
    format      ascii;
    class       surfaceScalarField;
    location    "0.91";
    object      phi;
}
// * * * * * * * * * * * * * * * * * * * * * * * * * * * * * * * * * * * * * //

dimensions      [0 3 -1 0 0 0 0];

internalField   nonuniform List<scalar> 
19800
(
1.0849793e-05
5.2764105e-05
6.1300948e-06
5.397924e-05
1.1923482e-06
5.5574797e-05
-3.9113938e-06
5.726993e-05
-9.2792816e-06
5.9318991e-05
-1.4800103e-05
6.1522488e-05
-2.0546235e-05
6.3955075e-05
-2.6549003e-05
6.6581113e-05
-3.2839397e-05
6.9344253e-05
-3.9487454e-05
7.223817e-05
-4.6564427e-05
7.5195484e-05
-5.4183538e-05
7.8295506e-05
-6.2479017e-05
8.1441511e-05
-7.1615417e-05
8.4573761e-05
-8.1856299e-05
8.783088e-05
-9.3486635e-05
9.1179785e-05
-0.00010693268
9.468999e-05
-0.00012253293
9.8277396e-05
-0.00014081128
0.00010240007
-0.00016223383
0.00010706134
-0.00018721678
0.00011227112
-0.00021633101
0.0001187361
-0.00025009424
0.00012628322
-0.00028924309
0.0001353957
-0.00033458534
0.000146131
-0.00038700658
0.00015864661
-0.00044748571
0.00017307707
-0.0005170864
0.0001894809
-0.0005969329
0.00020786592
-0.00068815531
0.00022821464
-0.0007918202
0.00025049018
-0.00090885728
0.00027458296
-0.0010400103
0.00030033513
-0.0011858674
0.00032756807
-0.0013469486
0.0003560082
-0.001523802
0.00038537739
-0.0017171257
0.0004156021
-0.0019279554
0.00044690916
-0.002157932
0.00047992395
-0.0024098257
0.00051597347
-0.0026882571
0.00055696576
-0.0029988776
0.00060257314
-0.0033489065
0.0006524997
-0.0037596376
0.00072164103
-0.0042517807
0.0007938713
-0.0047205106
0.00066986682
-0.0048342484
-3.5782574e-05
-0.0041186306
-0.0014227002
-0.0027429476
-0.0026864673
-0.0011730248
-0.0031469014
0.00040042374
-0.0031472394
0.0017562615
-0.0030247465
0.0028815064
-0.0025809253
0.0037899006
-0.0023073653
0.004415053
-0.0018251677
0.004669931
-0.0011066312
0.0047903436
-0.0009009851
0.0050574746
-0.0013191825
0.0054877969
-0.0016601581
0.005995285
-0.0015270763
0.0062943792
-0.00092176583
0.0061193681
-0.00021468403
0.0055731139
0.00040842605
0.0050124741
0.00083856876
0.0045709496
0.0011140541
0.0041945426
0.0012926755
0.0038287639
0.0014221098
0.0034651204
0.0015171072
0.0031151483
0.0015580633
0.002784997
0.0015475282
0.0024767372
0.0015012197
0.0021911786
0.0014292958
0.0019279013
0.001337593
0.0016856357
0.0012320185
0.0014627322
0.0011189698
0.0012574854
0.0010047718
0.0010684028
0.00089479722
0.00089433917
0.00079251229
0.00073448225
0.00069927529
0.00058830934
0.00061509819
0.00045555161
0.00053904299
0.00033590579
0.00047061795
0.00022906763
0.00040894525
0.00013468796
0.0003531741
5.2362663e-05
0.00030259173
-1.8366687e-05
0.00025663646
-7.7974498e-05
0.00021478482
-0.00012683842
0.00017648059
-0.00016514251
0.00014095318
-0.00019435374
0.00010865388
-0.00021572221
7.9327542e-05
-0.00022998627
5.2725935e-05
-0.00023688508
2.8804143e-05
-0.00023571283
7.2747246e-06
-0.00022813013
-1.0550965e-05
-0.00021271528
-2.5793401e-05
-0.0001910997
-3.8631933e-05
-0.00016426908
-4.9278955e-05
-0.00013315884
-5.7871836e-05
-6.5965323e-05
1.233616e-05
5.6762255e-05
8.0791769e-06
5.8242579e-05
3.523287e-06
6.0124588e-05
-1.2423422e-06
6.2039396e-05
-6.2287737e-06
6.430066e-05
-1.1436309e-05
6.6729671e-05
-1.6963299e-05
6.9479571e-05
-2.2804043e-05
7.2416106e-05
-2.8994092e-05
7.5535572e-05
-3.5589295e-05
7.8825239e-05
-4.2665145e-05
8.2273834e-05
-5.0283062e-05
8.5915661e-05
-5.8668682e-05
8.9824944e-05
-6.7914905e-05
9.3825237e-05
-7.8300442e-05
9.8216469e-05
-8.9931992e-05
0.00010280799
-0.00010314677
0.00010790702
-0.00011842629
0.00011355514
-0.00013604108
0.00012000982
-0.00015650857
0.00012752874
-0.00018042781
0.00013618863
-0.00020806506
0.0001463671
-0.00024017516
0.00015839051
-0.00027749157
0.00017271173
-0.00032092958
0.0001895659
-0.00037134921
0.00020906502
-0.0004297556
0.00023148745
-0.00049724411
0.00025697247
-0.00057497691
0.0002855981
-0.0006641269
0.00031736503
-0.00076580622
0.00035217166
-0.0008810101
0.00038978646
-0.0010105607
0.00042988274
-0.001155067
0.00047207263
-0.0013149615
0.00051590173
-0.0014905773
0.00056098975
-0.0016822692
0.00060728902
-0.0018906992
0.00065533743
-0.0021173063
0.00070653342
-0.0023650873
0.00076375533
-0.0026397597
0.00083163627
-0.0029509491
0.00091376444
-0.0033221195
0.0010236743
-0.0038176439
0.0012171662
-0.0044779007
0.0014541278
-0.0050010739
0.0011930411
-0.0047275919
-0.00030926259
-0.0034441842
-0.0027061072
-0.0015995321
-0.0045311218
0.00032878004
-0.0050752139
0.002119853
-0.0049383098
0.0035528559
-0.0044577453
0.0047322774
-0.0037603454
0.0056106891
-0.0031857778
0.0061944375
-0.0024089175
0.0065559532
-0.0014681466
0.0071438055
-0.0014888382
0.0075366523
-0.0017120316
0.0076787365
-0.0018022462
0.0078566802
-0.0017050204
0.0079461757
-0.0010112597
0.0074681418
0.00026334764
0.0064299848
0.0014465819
0.0053992823
0.0018692656
0.0046293292
0.0018840056
0.0041504627
0.001771544
0.0037776027
0.0017949693
0.0034089145
0.0018857938
0.0030427025
0.0019242719
0.0026996557
0.001890571
0.0023869986
0.0018138718
0.0021028376
0.0017134537
0.0018437376
0.001596691
0.0016065358
0.001469217
0.0013884188
0.0013370865
0.0011871018
0.0012060928
0.0010010276
0.0010808762
0.00082932986
0.00096421405
0.00067157848
0.00085702746
0.00052757503
0.00075909677
0.00039706375
0.00066954889
0.00027979737
0.00058788128
0.00017551005
0.0005132292
8.3714864e-05
0.00044496539
3.9525008e-06
0.00038234901
-6.4244782e-05
0.00032483072
-0.00012136352
0.00027190279
-0.00016800568
0.0002231231
-0.00020511788
0.00017806553
-0.00023292566
0.00013645995
-0.00025205398
9.8451985e-05
-0.00026210907
6.2776174e-05
-0.00026401049
3.0705501e-05
-0.00025867962
1.9464865e-06
-0.00024670751
-2.251862e-05
-0.00022822173
-4.4280389e-05
-0.00020386613
-6.2987696e-05
-0.00017444746
-7.8697121e-05
-0.00014073891
-9.1582183e-05
-0.00010375808
1.3858318e-05
6.0433027e-05
9.8390372e-06
6.225673e-05
5.5821547e-06
6.4387268e-05
1.0414379e-06
6.6577077e-05
-3.5469086e-06
6.8889926e-05
-8.5708742e-06
7.1752863e-05
-1.3869913e-05
7.4774024e-05
-1.9507178e-05
7.8055698e-05
-2.5502401e-05
8.1523537e-05
-3.188596e-05
8.5209816e-05
-3.8784007e-05
8.9173766e-05
-4.6248417e-05
9.3376445e-05
-5.429901e-05
9.7878606e-05
-6.325802e-05
0.00010278457
-7.3188279e-05
0.00010814338
-8.4398396e-05
0.00011402051
-9.7164443e-05
0.00012067331
-0.00011161564
0.00012800227
-0.0001282635
0.00013665784
-0.00014745907
0.00014672497
-0.00016964738
0.00015837359
-0.00019540526
0.00017212404
-0.00022543195
0.00018841928
-0.00026033232
0.00020761125
-0.00030104872
0.00023028093
-0.0003484713
0.00025649047
-0.0004036976
0.0002867169
-0.00046789516
0.00032116954
-0.00054229371
0.00035999586
-0.00062813684
0.0004032091
-0.00072662939
0.00045066364
-0.00083888754
0.00050204177
-0.00096586885
0.00055686206
-0.0011082756
0.00061447832
-0.001266503
0.00067412699
-0.0014406477
0.0007351322
-0.0016305339
0.00079717483
-0.0018360052
0.00086080924
-0.0020574139
0.00092794252
-0.0022961155
0.0010024563
-0.0025552624
0.001090781
-0.0028487689
0.0012072709
-0.0032323927
0.0014073012
-0.0038142765
0.001799051
-0.0045622416
0.0022020932
-0.0049586362
0.0015894376
-0.0041260814
-0.0011418155
-0.0025634241
-0.0042687631
-0.00072552224
-0.0063690242
0.0010669375
-0.0068676719
0.0029591244
-0.0068304933
0.0046204162
-0.0061190331
0.0063572667
-0.0054971939
0.0081433711
-0.0049718815
0.0097701417
-0.0040356879
0.011157094
-0.0028550989
0.01175996
-0.0020917052
0.0117037
-0.0016557725
0.010967097
-0.0010656438
0.0097154096
-0.00045333191
0.0088007665
-9.6616247e-05
0.0082552491
0.0008088646
0.0075391572
0.0021626706
0.0063933323
0.0030150891
0.0052292006
0.0030481391
0.0043882823
0.0026124615
0.0038375074
0.0023457442
0.0033881498
0.0023351494
0.002965317
0.0023470988
0.0025826363
0.0022732442
0.0022493354
0.0021471715
0.0019579632
0.0020048217
0.0016991677
0.0018554806
0.0014661759
0.0017022045
0.0012540031
0.001549259
0.0010592022
0.0014008967
0.00087982631
0.0012602531
0.00071499905
0.0011290377
0.00056439601
0.0010076261
0.00042783159
0.00089565755
0.00030489431
0.00079248219
0.00019521209
0.00069756015
9.8168043e-05
0.00061027027
1.3238985e-05
0.00052989197
-6.0071528e-05
0.00045565591
-0.00012232152
0.00038707699
-0.0001740124
0.00032359261
-0.00021563083
0.00026474132
-0.00024767511
0.00021010547
-0.00027066668
0.00015944553
-0.00028474439
0.00011252868
-0.00029130219
6.9334736e-05
-0.00029087878
3.0283892e-05
-0.00028333242
-5.5983646e-06
-0.00026818496
-3.7662534e-05
-0.00024669215
-6.5773912e-05
-0.00021944713
-9.0233326e-05
-0.0001871668
-0.00011097833
-0.00015051982
-0.00012823125
-0.0001446451
1.5334778e-05
6.3820718e-05
1.1616025e-05
6.5981302e-05
7.6746333e-06
6.8326464e-05
3.5251416e-06
7.0727624e-05
-9.2154084e-07
7.3336515e-05
-5.7635016e-06
7.6590835e-05
-1.0824062e-05
7.9837797e-05
-1.6208475e-05
8.3434355e-05
-2.1943889e-05
8.7259141e-05
-2.8089097e-05
9.1357468e-05
-3.4618875e-05
9.5700406e-05
-4.1759497e-05
0.00010051994
-4.9416142e-05
0.00010553739
-5.7885957e-05
0.00011125196
-6.7155513e-05
0.00011741486
-7.7566175e-05
0.00012443199
-8.924375e-05
0.0001323463
-0.00010260246
0.00014135945
-0.00011773303
0.00015178959
-0.00013510747
0.00016409793
-0.00015525032
0.00017851664
-0.00017854677
0.00019542445
-0.00020569252
0.00021556661
-0.00023728191
0.00023919976
-0.00027437142
0.0002673726
-0.00031787067
0.00029999327
-0.00036894451
0.00033779077
-0.00042886405
0.00038108751
-0.00049899552
0.00043012759
-0.00058075697
0.00048497025
-0.0006755376
0.00054544108
-0.00078460659
0.00061110769
-0.00090900251
0.00068125742
-0.0010494388
0.00075491403
-0.0012061928
0.00083087894
-0.0013789531
0.00090789256
-0.0015667586
0.00098498299
-0.0017680628
0.0010621134
-0.0019810742
0.0011409503
-0.002203232
0.0012246125
-0.0024315903
0.0013191399
-0.0026801366
0.001455818
-0.0030148488
0.001742015
-0.00349548
0.0022796832
-0.0039291276
0.0026357423
-0.0037676214
0.0014279343
-0.0028345377
-0.0020748975
-0.0016701759
-0.0054331235
-0.00028299792
-0.0077562014
0.0014105969
-0.0085612643
0.0028121125
-0.0082320057
0.0046722761
-0.0079791936
0.0071348912
-0.0079598063
0.0096269161
-0.0074639046
0.011726651
-0.0061354214
0.013256519
-0.004384967
0.014219015
-0.0030542001
0.014466203
-0.00190296
0.013668103
-0.00026754393
0.012056784
0.0011579905
0.010411579
0.0015485855
0.0091886009
0.0020318427
0.0082812055
0.0030700641
0.0073069887
0.0039893047
0.0061167044
0.0042384289
0.0049480489
0.0037811157
0.0040456479
0.003248138
0.0033986363
0.002982156
0.0028865761
0.0028591555
0.0024561315
0.0027036829
0.0020962985
0.0025070003
0.0017932553
0.002307862
0.0015318803
0.0021168521
0.0013016396
0.0019324428
0.00109547
0.0017554297
0.00090872126
0.0015876462
0.0007387391
0.0014302345
0.0005841332
0.0012836396
0.00044426406
0.0011474897
0.00031805877
0.0010218588
0.00020506605
0.00090547157
0.00010454787
0.00079807622
1.582558e-05
0.00069898974
-6.1587542e-05
0.00060729964
-0.00012829089
0.00052235503
-0.00018478022
0.00044356558
-0.00023142035
0.00037023205
-0.00026861714
0.00030193654
-0.00029677972
0.00023826725
-0.00031625707
0.00017892143
-0.00032765133
0.00012392408
-0.00033105439
7.2739941e-05
-0.00032648179
2.5713239e-05
-0.00031475696
-1.7323973e-05
-0.00029621119
-5.6208228e-05
-0.00027117585
-9.0807238e-05
-0.00024024993
-0.00012115635
-0.00020414933
-0.00014707886
-0.00016359554
-0.00016878757
-0.00018950996
1.7383452e-05
6.6852289e-05
1.3940907e-05
6.94217e-05
1.0218743e-05
7.2050938e-05
6.3141931e-06
7.4632712e-05
2.0399402e-06
7.760753e-05
-2.4640984e-06
8.1098985e-05
-7.2979272e-06
8.4667476e-05
-1.237847e-05
8.8515234e-05
-1.7805806e-05
9.2689107e-05
-2.3613503e-05
9.7161432e-05
-2.9878592e-05
0.0001019666
-3.6447023e-05
0.0001070907
-4.3715841e-05
0.00011280433
-5.1484611e-05
0.00011902251
-6.0038853e-05
0.00012597082
-6.9373357e-05
0.00013376196
-7.9860365e-05
0.00014282992
-9.1697747e-05
0.0001531971
-0.0001050194
0.00016510996
-0.00012021275
0.00017929102
-0.00013767824
0.00019598616
-0.00015797447
0.00021572362
-0.0001814636
0.00023905532
-0.00020896067
0.00026669824
-0.00024137397
0.00029978975
-0.00027980715
0.00033842776
-0.00032543174
0.0003834141
-0.00037964013
0.00043529589
-0.00044398276
0.00049447083
-0.00052010316
0.00056108879
-0.00060965193
0.00063498665
-0.00071417622
0.00071563049
-0.00083499173
0.00080207314
-0.00097299834
0.00089292068
-0.0011284513
0.00098633172
-0.0013006754
0.0010801177
-0.001487773
0.0011720821
-0.0016863967
0.0012607356
-0.0018913811
0.0013459308
-0.0020943207
0.0014275521
-0.0022841929
0.0015090154
-0.0024619844
0.0016336099
-0.0026516978
0.0019317274
-0.0028314788
0.0024594651
-0.0028481342
0.0026524011
-0.0025377765
0.001117581
-0.0020956167
-0.0025170564
-0.0011779209
-0.0063508206
0.00023144967
-0.0091655727
0.0016193484
-0.0099491606
0.0029971135
-0.0096097661
0.004960526
-0.0099426019
0.0075190284
-0.010518305
0.010037533
-0.0099824076
0.01255708
-0.008654966
0.014460257
-0.0062881429
0.015181558
-0.0037755021
0.014441863
-0.0011632629
0.013851591
0.0003227274
0.013075876
0.0019337074
0.011684106
0.0029403523
0.010126394
0.0035895541
0.0087522786
0.00444418
0.0075336703
0.0052079106
0.0063978361
0.0053742624
0.0051401478
0.0050388025
0.0040576994
0.0043305809
0.0032885856
0.003751267
0.0027292201
0.0034185176
0.0022791791
0.0031537219
0.0019090577
0.0028771185
0.0016034009
0.0026135159
0.0013449696
0.0023752821
0.0011210941
0.0021563174
0.00092357223
0.0019529517
0.00074712227
0.0017640957
0.0005885404
0.0015888157
0.00044579212
0.0014263847
0.00031710494
0.0012761725
0.00020169892
0.0011372637
9.8321628e-05
0.0010088487
6.2796731e-06
0.00089011766
-7.4782502e-05
0.00078005164
-0.00014558071
0.00067809638
-0.00020644164
0.00058321309
-0.0002576667
0.00049478791
-0.00029953282
0.0004120976
-0.00033231413
0.00033471816
-0.00035630163
0.00026225294
-0.00037174533
0.00019436047
-0.00037881302
0.00013098746
-0.00037795139
7.1875456e-05
-0.00036939934
1.7160491e-05
-0.00035355635
-3.3171515e-05
-0.00033073587
-7.9031062e-05
-0.00030138765
-0.00012016532
-0.00026615684
-0.00015639093
-0.00022560651
-0.00018763006
-0.00018026528
-0.00021413223
-0.00023919623
1.9467853e-05
6.9543842e-05
1.6400967e-05
7.249102e-05
1.2993931e-05
7.5458945e-05
9.3623033e-06
7.826156e-05
5.338405e-06
8.1636219e-05
1.1441769e-06
8.5290199e-05
-3.3644444e-06
8.9177178e-05
-8.1826193e-06
9.3337228e-05
-1.3304306e-05
9.7807833e-05
-1.8722288e-05
0.00010257982
-2.448213e-05
0.0001077285
-3.0687778e-05
0.00011329426
-3.7254407e-05
0.00011937195
-4.4301392e-05
0.00012607156
-5.1921821e-05
0.00013358716
-6.0304751e-05
0.00014214046
-6.933525e-05
0.00015185985
-7.9304678e-05
0.00016316498
-9.0618518e-05
0.00017642223
-0.00010321159
0.0001918866
-0.00011748161
0.00021025883
-0.00013395602
0.00023219731
-0.00015323968
0.0002583393
-0.0001759122
0.00028937429
-0.00020247611
0.00032635596
-0.00023450063
0.00037045193
-0.00027320852
0.0004221227
-0.00032012185
0.00048221137
-0.00037701967
0.00055136876
-0.00044584708
0.00062991423
-0.00052861861
0.00071775724
-0.00062728781
0.00081430014
-0.00074358993
0.00091837547
-0.0008788196
0.0010281509
-0.0010334874
0.0011410009
-0.0012068678
0.0012534983
-0.0013964362
0.001361649
-0.0015972043
0.0014615024
-0.0018005213
0.0015492475
-0.0019919963
0.0016190284
-0.0021529203
0.0016699409
-0.002268477
0.001749165
-0.0023165927
0.0019798418
-0.0022269694
0.0023698448
-0.0019351212
0.0023605569
-0.0016088065
0.0007912681
-0.0011718468
-0.0029540182
-0.00043503616
-0.0070876334
0.00056042074
-0.010161028
0.0014110339
-0.01079977
0.0026103548
-0.010809082
0.0044792677
-0.011811512
0.0068962032
-0.012935238
0.0095803811
-0.012666584
0.011906557
-0.01098114
0.013678509
-0.0080600933
0.014633843
-0.0047308377
0.015093623
-0.0016230434
0.014224059
0.001192291
0.012875445
0.0032823214
0.011483168
0.0043326277
0.0098976905
0.0051750299
0.0084208451
0.005921024
0.0072200779
0.0064086787
0.0059745903
0.0066197503
0.0047103507
0.0063030398
0.0036625353
0.0053783904
0.0029426121
0.0044711869
0.0024287926
0.0039323331
0.0020105747
0.0035719359
0.0016611876
0.0032265034
0.0013717085
0.0029029933
0.00112796
0.0026190288
0.00091809492
0.0023661837
0.00073410076
0.0021369488
0.00057129296
0.0019269024
0.0004260191
0.0017340871
0.00029575602
0.0015566459
0.00017878788
0.0013931387
7.4019507e-05
0.0012420323
-1.9772131e-05
0.0011026417
-0.00010316442
0.00097351128
-0.00017676248
0.00085364802
-0.00024069335
0.00074202472
-0.000295326
0.00063784763
-0.00034074487
0.00054021161
-0.00037726836
0.0004486247
-0.00040506506
0.00036251511
-0.00042426466
0.00028145004
-0.00043512803
0.00020522106
-0.00043779999
0.00013365785
-0.00043255622
6.6629686e-05
-0.00041959673
4.1996204e-06
-0.00039917183
-5.3600093e-05
-0.00037170754
-0.0001065017
-0.0003375861
-0.00015428819
-0.00029727285
-0.00019670861
-0.00025157129
-0.00023333079
-0.00020057658
-0.00026512788
-0.00029452163
2.1906868e-05
7.1874813e-05
1.9145695e-05
7.5252529e-05
1.6067387e-05
7.8534809e-05
1.2667245e-05
8.1666771e-05
8.937686e-06
8.5363058e-05
4.98544e-06
8.924428e-05
7.9653177e-07
9.337042e-05
-3.6967426e-06
9.782796e-05
-8.4622934e-06
0.00010257353
-1.3509199e-05
0.00010762883
-1.881513e-05
0.0001130324
-2.4380254e-05
0.00011885997
-3.0272973e-05
0.0001252672
-3.6516916e-05
0.00013231237
-4.3110589e-05
0.00014017646
-5.0057805e-05
0.00014908719
-5.7564185e-05
0.00015936511
-6.5623974e-05
0.00017122233
-7.4426708e-05
0.00018522563
-8.4088425e-05
0.00020154985
-9.4948946e-05
0.00022111772
-0.00010717444
0.00024442153
-0.0001212996
0.00027246691
-0.00013808563
0.00030616288
-0.00015809523
0.00034636565
-0.00018235154
0.00039470931
-0.00021263271
0.00045240765
-0.00025050109
0.00052008258
-0.00029804575
0.00059891315
-0.00035761687
0.00068948477
-0.00043172598
0.00079186765
-0.00052290819
0.0009054838
-0.00063355398
0.0010290215
-0.00076565506
0.0011602525
-0.00092038165
0.0012957288
-0.0010975055
0.0014306213
-0.0012946405
0.0015587811
-0.0015060168
0.001672878
-0.0017203552
0.0017635873
-0.0019185229
0.0018171962
-0.0020764678
0.0018278845
-0.0021724436
0.0018451401
-0.0021715342
0.0019789341
-0.0019886066
0.0021869216
-0.0015541195
0.0019260715
-0.0010121595
0.00024930587
-0.00055560314
-0.0034105768
-3.2103056e-05
-0.0076111323
0.00053568329
-0.01072881
0.0012323405
-0.011496424
0.0023656871
-0.011942426
0.0040610183
-0.013506841
0.0056000255
-0.014474243
0.007578506
-0.014645062
0.0097952289
-0.013197864
0.011670042
-0.0099349084
0.013110209
-0.0061710039
0.014143479
-0.0026563148
0.014116563
0.0012192084
0.012604902
0.0047939808
0.011435165
0.00550236
0.010115045
0.0064951496
0.0086204056
0.0074156618
0.0068487298
0.0081803541
0.0050842833
0.0083841961
0.0037988421
0.007588479
0.0029257178
0.0062515129
0.0023825563
0.0050143454
0.001986764
0.0043281231
0.0016450794
0.0039136167
0.0013465774
0.0035250008
0.0010927755
0.0031567929
0.00087621461
0.0028355912
0.00068848178
0.0025539203
0.0005239207
0.002301513
0.0003783048
0.002072518
0.00024838247
0.0018640064
0.00013214133
0.0016728822
2.7955972e-05
0.0014973218
-6.5559176e-05
0.0013355502
-0.00014922585
0.001186309
-0.00022351049
0.0010477934
-0.000288777
0.0009189115
-0.00034525089
0.0007984971
-0.00039308474
0.00068568162
-0.00043244677
0.00057957413
-0.00046339099
0.00047956855
-0.00048599051
0.00038511157
-0.00050034023
0.00029579762
-0.00050654889
0.00021142901
-0.00050463943
0.00013174722
-0.00049480805
5.6792228e-05
-0.00047711107
-1.3498024e-05
-0.00045185891
-7.8846696e-05
-0.00041930611
-0.00013906054
-0.00037979103
-0.00019380686
-0.00033385812
-0.00024264102
-0.00028228219
-0.00028490576
-0.00022479438
-0.00032261655
-0.0003563325
2.4628778e-05
7.3849406e-05
2.2206052e-05
7.7672494e-05
1.9425155e-05
8.132061e-05
1.6304963e-05
8.4783618e-05
1.2897658e-05
8.8772677e-05
9.1775895e-06
9.2969419e-05
5.1596159e-06
9.7386301e-05
9.9992616e-07
0.00010198762
-3.3629552e-06
0.00010693816
-8.0125086e-06
0.00011227608
-1.2830251e-05
0.00011785028
-1.7836274e-05
0.00012386898
-2.2955825e-05
0.00013038499
-2.8266651e-05
0.00013761988
-3.3738553e-05
0.00014564899
-3.9400812e-05
0.00015474976
-4.511106e-05
0.00016507325
-5.1148093e-05
0.00017725906
-5.7296729e-05
0.00019137495
-6.3853688e-05
0.00020810445
-7.0770326e-05
0.00022803151
-7.8296968e-05
0.00025194893
-8.6905511e-05
0.00028107726
-9.6710884e-05
0.00031596802
-0.00010901539
0.00035867076
-0.00012432261
0.00041002064
-0.00014439088
0.00047248042
-0.00017113921
0.00054683244
-0.00020701045
0.00063478447
-0.0002548624
0.00073733791
-0.00031784729
0.00085485442
-0.00039925332
0.00098689101
-0.00050238245
0.0011321511
-0.00063035237
0.0012882227
-0.00078562774
0.0014510037
-0.00096932333
0.001614315
-0.0011803485
0.0017698037
-0.0014133788
0.0019059074
-0.0016554974
0.0020057065
-0.001884463
0.0020461613
-0.0020761296
0.0020195507
-0.0022137691
0.0019827817
-0.0022664873
0.0020316553
-0.0021377095
0.0020581464
-0.0016739453
0.0014623081
-0.00084605945
-0.00057858069
-0.00015093313
-0.0041057022
0.00034163523
-0.0081036988
0.00077783779
-0.01116501
0.0017318778
-0.012450461
0.0030050005
-0.013215547
0.0039133103
-0.014415148
0.0046928708
-0.015253801
0.0060296596
-0.015981851
0.0078418778
-0.015010082
0.0097053254
-0.011798362
0.011238265
-0.0077039417
0.012115894
-0.0035339455
0.012661338
0.00067376553
0.012905822
0.004549495
0.011752398
0.0066557785
0.009913105
0.0083344406
0.0081364562
0.0091923094
0.0059305882
0.010386224
0.003991142
0.010323644
0.0027364263
0.0088431924
0.0020834331
0.0069045052
0.0017242532
0.0053735254
0.0014601293
0.0045922432
0.0012109845
0.0041627569
0.00097931706
0.0037566669
0.00077382585
0.0033622844
0.00059356431
0.003015855
0.000434667
0.0027128208
0.00029421141
0.0024419697
0.00016886614
0.0021978618
5.7089431e-05
0.0019757817
-4.3322895e-05
0.0017732924
-0.00013382864
0.0015878241
-0.00021531268
0.0014170323
-0.00028808349
0.0012590783
-0.00035271838
0.0011124279
-0.00040936526
0.00097556053
-0.00045817794
0.00084731302
-0.00049917708
0.00072668279
-0.00053238099
0.0006127783
-0.00055771937
0.00050490926
-0.00057514227
0.00040253732
-0.00058462181
0.00030527656
-0.00058605134
0.00021285899
-0.00057943667
0.00012513516
-0.00056489446
4.2248499e-05
-0.00054223863
-3.6149993e-05
-0.00051179645
-0.00010929186
-0.0004737936
-0.0001770649
-0.00042840449
-0.00023919958
-0.00037629375
-0.00029475415
-0.00031807524
-0.00034312793
-0.00025329621
-0.00038739581
-0.00042550283
2.7692131e-05
7.5449254e-05
2.5601715e-05
7.9767256e-05
2.3101842e-05
8.3815953e-05
2.0243537e-05
8.7644635e-05
1.7085155e-05
9.1935699e-05
1.3611932e-05
9.644085e-05
9.9290867e-06
0.00010106954
5.9301002e-06
0.00010598809
1.8686765e-06
0.00011099665
-2.3309508e-06
0.00011647509
-6.693568e-06
0.00012221568
-1.1067005e-05
0.00012824135
-1.551411e-05
0.00013482966
-1.9903953e-05
0.0001420115
-2.4245496e-05
0.00014999248
-2.8466949e-05
0.00015897011
-3.2623933e-05
0.00016922989
-3.6285236e-05
0.00018092103
-3.9846793e-05
0.00019493421
-4.3059001e-05
0.00021131294
-4.5970266e-05
0.00023094201
-4.8596406e-05
0.00025457571
-5.0774401e-05
0.00028325403
-5.335428e-05
0.00031854724
-5.6495483e-05
0.00036181531
-6.1528796e-05
0.00041505869
-6.9662076e-05
0.00048061553
-8.2720383e-05
0.00055989054
-0.00010399382
0.00065605891
-0.00013704627
0.00077039233
-0.00018568209
0.00090349106
-0.00025417147
0.0010553805
-0.00034706153
0.001225042
-0.00046891767
0.001410079
-0.00062406525
0.0016061492
-0.00081594417
0.001806191
-0.0010463999
0.0020002577
-0.0013124098
0.0021719173
-0.0016007135
0.0022940114
-0.0018881483
0.0023335973
-0.0021578826
0.0022892869
-0.0024069793
0.0022318818
-0.0025795821
0.0022042609
-0.0024698613
0.0019484267
-0.0018274011
0.00081984954
-0.00066456852
-0.0017414111
0.00038476611
-0.0051550345
0.0010295532
-0.0087484851
0.001470627
-0.011606084
0.0024379512
-0.013417784
0.0037235517
-0.014501144
0.0043215252
-0.015013118
0.004367462
-0.015299735
0.0051636485
-0.01677804
0.0062669016
-0.016113334
0.0073928359
-0.012924298
0.0083939498
-0.0087050535
0.0090318491
-0.0041718478
0.009415836
0.00028977666
0.0095659921
0.0043993346
0.0089520292
0.0072697387
0.0078328378
0.009453634
0.0058499575
0.011175192
0.0041443619
0.01209182
0.0027149413
0.011753064
0.0017626013
0.0097955308
0.0012975326
0.0073695703
0.001077317
0.0055937402
0.00091659619
0.0047529614
0.00074674114
0.0043326078
0.0005811707
0.0039222351
0.00042825748
0.0035151991
0.00028844161
0.0031556735
0.00016196085
0.0028393013
4.8641133e-05
0.0025552872
-5.2960131e-05
0.0022994621
-0.00014521769
0.0020680395
-0.00022898344
0.0018570589
-0.00030489322
0.0016637349
-0.00037346458
0.001485604
-0.00043506629
0.0013206797
-0.00048979472
0.0011671575
-0.00053774502
0.0010235122
-0.0005788998
0.00088847083
-0.00061311243
0.00076090047
-0.00064021487
0.00063988385
-0.00066004576
0.00052473955
-0.00067233152
0.00041482319
-0.00067693358
0.00030987744
-0.00067364153
0.00020956688
-0.00066234039
0.00011383179
-0.00064281045
2.2711853e-05
-0.00061512232
-6.3838193e-05
-0.00057929259
-0.00014512683
-0.00053542861
-0.00022093008
-0.00048380108
-0.00029082863
-0.00042498468
-0.00035357367
-0.00035934072
-0.0004087766
-0.00028642165
-0.00046031715
-0.00050299795
3.1134748e-05
7.6687427e-05
2.9359284e-05
8.1537276e-05
2.7119748e-05
8.6058802e-05
2.4526618e-05
9.024226e-05
2.1573345e-05
9.48867e-05
1.8349649e-05
9.9665415e-05
1.4794668e-05
0.00010462602
1.1129979e-05
0.00010964935
7.2209384e-06
0.00011490423
3.4221795e-06
0.00012027591
-3.8416441e-07
0.00012602072
-4.2801471e-06
0.00013213483
-8.0493066e-06
0.0001386007
-1.1554094e-05
0.00014551882
-1.4817332e-05
0.00015325512
-1.767858e-05
0.00016183112
-2.006437e-05
0.00017161681
-2.1882348e-05
0.00018273756
-2.2597471e-05
0.00019564575
-2.2421663e-05
0.00021113559
-2.1061054e-05
0.00022958126
-1.8322174e-05
0.00025183494
-1.4105878e-05
0.00027903592
-8.3585106e-06
0.00031280184
-1.4331845e-06
0.00035489393
5.9213718e-06
0.0004077055
1.243651e-05
0.00047409917
1.5010539e-05
0.00055731625
1.088986e-05
0.00066018107
-3.7358733e-06
0.00078501886
-3.3932413e-05
0.00093368683
-8.5101471e-05
0.0011065491
-0.00016310347
0.0013030448
-0.00027448619
0.0015214619
-0.0004265639
0.0017582249
-0.00062654266
0.0020061674
-0.0008807583
0.0022544735
-0.001189931
0.0024810919
-0.0015427057
0.0026467879
-0.0019241041
0.0027149975
-0.0023369204
0.0027021059
-0.0027653571
0.0026603228
-0.003036954
0.0024758619
-0.0027905418
0.0017020153
-0.0018163563
-0.00015433604
-0.00042602095
-0.0031317456
0.00095381751
-0.0065348709
0.0019180892
-0.0097127549
0.0024504165
-0.012138411
0.0029326913
-0.013900058
0.0034823247
-0.015050773
0.0037426232
-0.015273414
0.0036997228
-0.015256831
0.0035207385
-0.016599057
0.0038296027
-0.0164222
0.0044583679
-0.013553065
0.0048871507
-0.009133833
0.0050407183
-0.0043254176
0.0050113886
0.00031910601
0.0050377613
0.00437296
0.0050525238
0.0072549766
0.0046573276
0.0098488312
0.0030035316
0.012828985
0.002117404
0.012977945
0.0013010455
0.01256942
0.00082672811
0.010269846
0.00058050524
0.007615792
0.00048663682
0.0056876082
0.00039233823
0.0048472584
0.00027844136
0.0044465034
0.00017108836
0.0040295866
6.8233565e-05
0.0036180555
-3.0340241e-05
0.0032542507
-0.00012167695
0.0029306404
-0.00020633199
0.002639941
-0.00028462863
0.0023777547
-0.00035662811
0.0021400339
-0.00042278582
0.0019232147
-0.00048345525
0.001724408
-0.00053880173
0.0015409524
-0.00058888714
0.0013707636
-0.00063367227
0.0012119434
-0.00067300416
0.0010628462
-0.00070658907
0.00092205961
-0.0007341579
0.00078847077
-0.00075536154
0.00066108679
-0.00076979737
0.00053917278
-0.00077713733
0.00042216137
-0.00077710053
0.0003098387
-0.00076921574
0.0002016812
-0.00075321203
9.7829264e-05
-0.00072900597
-1.4926483e-06
-0.00069610062
-9.6746652e-05
-0.0006546905
-0.00018654021
-0.00060472851
-0.00027089437
-0.00054643979
-0.00034911712
-0.00048035073
-0.00041966714
-0.00040652702
-0.00048260607
-0.00032465223
-0.00054219612
-0.00058968868
3.4986844e-05
7.7553988e-05
3.352826e-05
8.3000104e-05
3.1542992e-05
8.8047408e-05
2.9143405e-05
9.263996e-05
2.6363561e-05
9.7668243e-05
2.3282533e-05
0.00010274799
1.9961554e-05
0.0001079434
1.6405344e-05
0.00011320372
1.2773622e-05
0.00011853707
9.1311271e-06
0.00012391617
5.6782799e-06
0.00012947024
2.3510929e-06
0.00013546302
-7.0170461e-07
0.00014165529
-3.4920559e-06
0.00014830789
-5.7587817e-06
0.00015552104
-7.4178956e-06
0.00016349161
-8.1319576e-06
0.00017233059
-7.8591884e-06
0.00018246222
-6.2640365e-06
0.00019404933
-2.8275297e-06
0.00020769905
2.7182196e-06
0.00022403378
1.0723911e-05
0.00024382719
2.1629978e-05
0.00026813117
3.5754651e-05
0.0002986804
5.3233252e-05
0.00033741582
7.3727414e-05
0.00038720899
9.5949963e-05
0.00045187544
0.00011799863
0.00053526856
0.00013603398
0.00064214589
0.00014482994
0.00077622123
0.00013843085
0.00094008481
0.0001102257
0.0011347549
5.2439477e-05
0.0013608317
-4.3306581e-05
0.0016172078
-0.00018670227
0.0019016204
-0.00038908756
0.0022085533
-0.0006636279
0.0025290151
-0.0010217824
0.0028392475
-0.0014641452
0.0030891508
-0.0019979856
0.0032488393
-0.0026326501
0.0033367738
-0.0032605221
0.0032881989
-0.0035488389
0.0027641821
-0.0031735227
0.0013267005
-0.0021116006
-0.0012162572
-0.00067258392
-0.0045707612
0.0010654725
-0.0082729264
0.0025685379
-0.01121582
0.0034744026
-0.013044275
0.0036148272
-0.014040481
0.0033117596
-0.0147477
0.0028952026
-0.014856852
0.0025678366
-0.014929464
0.0020803529
-0.016111573
0.0017911262
-0.016132972
0.0016228688
-0.013384806
0.0014579121
-0.0089688742
0.0011277032
-0.003995211
0.00075894471
0.00068786458
0.00088401758
0.0042478864
0.0013633179
0.0067756731
0.00081645327
0.010395694
0.0003049676
0.013340466
6.8371671e-05
0.013214536