/*--------------------------------*- C++ -*----------------------------------*\
  =========                 |
  \\      /  F ield         | OpenFOAM: The Open Source CFD Toolbox
   \\    /   O peration     | Website:  https://openfoam.org
    \\  /    A nd           | Version:  9
     \\/     M anipulation  |
\*---------------------------------------------------------------------------*/
FoamFile
{
    format      ascii;
    class       volVectorField;
    location    "0.91";
    object      U;
}
// * * * * * * * * * * * * * * * * * * * * * * * * * * * * * * * * * * * * * //

dimensions      [0 1 -1 0 0 0 0];

internalField   nonuniform List<vector> 
10000
(
(0.0013675875 0.0050400391 0)
(0.00079855205 0.0051347932 0)
(0.00054583118 0.0052677164 0)
(-0.00028336929 0.0054170195 0)
(-0.00054763244 0.0055893927 0)
(-0.0012287669 0.0057814878 0)
(-0.0017595423 0.0059889163 0)
(-0.0023449678 0.0062109057 0)
(-0.0029585799 0.0064413789 0)
(-0.0036014205 0.0066761992 0)
(-0.0042873675 0.0069101454 0)
(-0.0050257476 0.0071463302 0)
(-0.0058175651 0.007374493 0)
(-0.0066868003 0.0075871469 0)
(-0.007653941 0.0077873462 0)
(-0.0087434104 0.0079747928 0)
(-0.009966459 0.0081424347 0)
(-0.011415471 0.0082934331 0)
(-0.013132393 0.0084681518 0)
(-0.01508184 0.0086634696 0)
(-0.0173758 0.0088751746 0)
(-0.020072968 0.0091620113 0)
(-0.023205606 0.009509584 0)
(-0.02688847 0.0099515287 0)
(-0.031140505 0.01048989 0)
(-0.036022787 0.011135454 0)
(-0.04166447 0.011894012 0)
(-0.048160754 0.012764998 0)
(-0.05562507 0.013745094 0)
(-0.064171679 0.014832972 0)
(-0.073907078 0.01603229 0)
(-0.084932047 0.017347119 0)
(-0.097342131 0.018780951 0)
(-0.11120474 0.020331236 0)
(-0.12656062 0.021976308 0)
(-0.14345578 0.023683752 0)
(-0.16195285 0.025429113 0)
(-0.1821349 0.027199769 0)
(-0.20411657 0.028997624 0)
(-0.22811728 0.030846665 0)
(-0.25458226 0.032766734 0)
(-0.2839347 0.034619577 0)
(-0.31636362 0.036178292 0)
(-0.35367017 0.037626417 0)
(-0.40063902 0.037470404 0)
(-0.45613587 0.026900572 0)
(-0.49327272 -0.010233081 0)
(-0.46173438 -0.084981095 0)
(-0.34482451 -0.15911699 0)
(-0.19158313 -0.19416553 0)
(-0.039846311 -0.19735498 0)
(0.11439844 -0.20903537 0)
(0.2334429 -0.18316935 0)
(0.33632865 -0.17562342 0)
(0.412324 -0.15016325 0)
(0.45498956 -0.10409575 0)
(0.47172567 -0.091040285 0)
(0.49032124 -0.1257104 0)
(0.52600702 -0.14743204 0)
(0.57701844 -0.12084954 0)
(0.62526927 -0.072040831 0)
(0.63424293 -0.045609959 0)
(0.59119755 -0.013390687 0)
(0.52616271 0.032195876 0)
(0.47544949 0.073779031 0)
(0.43785899 0.098751762 0)
(0.4012 0.11294301 0)
(0.36407457 0.12291969 0)
(0.32814975 0.1284709 0)
(0.29405573 0.12928464 0)
(0.26211838 0.12658642 0)
(0.2324869 0.12129237 0)
(0.2051295 0.11389152 0)
(0.17994208 0.10492353 0)
(0.15676946 0.09502297 0)
(0.13543498 0.084843312 0)
(0.11577437 0.074961167 0)
(0.097659195 0.065767852 0)
(0.080993811 0.057435593 0)
(0.065732294 0.049993133 0)
(0.051816627 0.043367967 0)
(0.039203999 0.037506705 0)
(0.027900078 0.032319533 0)
(0.017867311 0.027714352 0)
(0.0090639735 0.023612819 0)
(0.0014386127 0.019951213 0)
(-0.0050554554 0.016675016 0)
(-0.010453915 0.013738413 0)
(-0.014779835 0.011083832 0)
(-0.018128056 0.008624572 0)
(-0.020634072 0.0063468775 0)
(-0.022408403 0.0042674424 0)
(-0.023472145 0.0024757039 0)
(-0.023751603 0.00098120335 0)
(-0.023326295 -0.00027731557 0)
(-0.022162092 -0.0013006699 0)
(-0.020113459 -0.0021519136 0)
(-0.017955203 -0.0028458958 0)
(-0.015765243 -0.0033961934 0)
(-0.0098642167 -0.0039029048 0)
(0.0014635912 0.0057267066 0)
(0.00098270749 0.0058725533 0)
(0.00076982306 0.0060663989 0)
(-2.6149076e-05 0.0062630556 0)
(-0.00025678347 0.0065030681 0)
(-0.00090699675 0.0067611213 0)
(-0.0014118233 0.0070478454 0)
(-0.0019766833 0.007354888 0)
(-0.0025776087 0.0076786339 0)
(-0.0032146456 0.0080186042 0)
(-0.0038943318 0.0083672452 0)
(-0.0046298893 0.008734008 0)
(-0.0054315921 0.0091120228 0)
(-0.0063115762 0.0094900819 0)
(-0.0072838661 0.0098949714 0)
(-0.0083827697 0.010302055 0)
(-0.0096179299 0.010733537 0)
(-0.011035315 0.011196335 0)
(-0.012683348 0.011729784 0)
(-0.014573084 0.012350674 0)
(-0.016759002 0.013065117 0)
(-0.019313154 0.013925468 0)
(-0.02229111 0.01494209 0)
(-0.025793084 0.016166438 0)
(-0.029859763 0.017605287 0)
(-0.03454485 0.019273924 0)
(-0.03998168 0.021189952 0)
(-0.046268073 0.02336275 0)
(-0.053519922 0.025796231 0)
(-0.061855027 0.028488373 0)
(-0.071388099 0.031428518 0)
(-0.08222675 0.034592583 0)
(-0.094464578 0.037949577 0)
(-0.10817217 0.041470309 0)
(-0.12339707 0.045124099 0)
(-0.14017207 0.048888538 0)
(-0.15852788 0.052770953 0)
(-0.17850963 0.056822047 0)
(-0.20018603 0.061151836 0)
(-0.22375386 0.065975565 0)
(-0.24981346 0.071618013 0)
(-0.27898387 0.078159026 0)
(-0.31133 0.085768776 0)
(-0.35174144 0.096979167 0)
(-0.4141818 0.11041819 0)
(-0.49015855 0.097052723 0)
(-0.51369119 0.00078814905 0)
(-0.42299006 -0.18985684 0)
(-0.24772632 -0.35990239 0)
(-0.058621545 -0.41149092 0)
(0.12248896 -0.40179046 0)
(0.29160245 -0.36736264 0)
(0.41759331 -0.30608876 0)
(0.52278233 -0.2601343 0)
(0.59441031 -0.19387782 0)
(0.63124172 -0.11161638 0)
(0.68336419 -0.11357136 0)
(0.74164452 -0.16048737 0)
(0.76917727 -0.19929306 0)
(0.77482733 -0.19723598 0)
(0.79449305 -0.1158952 0)
(0.79281398 0.0063061306 0)
(0.70614152 0.10098998 0)
(0.58342616 0.13051062 0)
(0.49188749 0.13997374 0)
(0.43483074 0.14849627 0)
(0.39551958 0.16005542 0)
(0.35926184 0.16908164 0)
(0.3219746 0.17201272 0)
(0.28608769 0.169589 0)
(0.25330878 0.1636368 0)
(0.2235975 0.15524091 0)
(0.19654918 0.14503418 0)
(0.17183388 0.13361949 0)
(0.14915335 0.12161765 0)
(0.12824741 0.10962595 0)
(0.10892164 0.098137095 0)
(0.091061164 0.087454611 0)
(0.074609836 0.07768298 0)
(0.059544864 0.068804712 0)
(0.045837576 0.060715975 0)
(0.033467806 0.05336914 0)
(0.022414174 0.04667534 0)
(0.012633282 0.040558458 0)
(0.0040835184 0.03494765 0)
(-0.0032861496 0.029789278 0)
(-0.0095235955 0.025033005 0)
(-0.014685111 0.020634732 0)
(-0.018849507 0.016543769 0)
(-0.022079723 0.012696806 0)
(-0.024414025 0.0091050003 0)
(-0.02585956 0.0058217638 0)
(-0.026436757 0.0028967635 0)
(-0.026243342 0.00032338278 0)
(-0.025394318 -0.0019545021 0)
(-0.023857423 -0.0038801473 0)
(-0.021529013 -0.0055101264 0)
(-0.019101692 -0.006875287 0)
(-0.016676509 -0.0079854495 0)
(-0.010422024 -0.0090366797 0)
(0.001572608 0.0056587246 0)
(0.0011630403 0.0058168804 0)
(0.00095980878 0.0060115276 0)
(0.00018566041 0.0062090309 0)
(-1.3363266e-05 0.0064338893 0)
(-0.00063612779 0.0066899385 0)
(-0.0011131976 0.0069720656 0)
(-0.001658092 0.0072756378 0)
(-0.0022363534 0.0075985333 0)
(-0.0028535535 0.0079414919 0)
(-0.0035128849 0.0083089597 0)
(-0.0042218575 0.0086949419 0)
(-0.0050046935 0.0091167327 0)
(-0.0058497852 0.0095599325 0)
(-0.0067910455 0.010051135 0)
(-0.0078580831 0.010576248 0)
(-0.0090311577 0.011170483 0)
(-0.010382477 0.011827933 0)
(-0.011944792 0.012592186 0)
(-0.013718275 0.013481223 0)
(-0.015775287 0.014507934 0)
(-0.018171439 0.015712853 0)
(-0.020938813 0.017138338 0)
(-0.024197502 0.018824852 0)
(-0.028002942 0.020811956 0)
(-0.032401976 0.023111111 0)
(-0.037528589 0.025760261 0)
(-0.043490313 0.028777476 0)
(-0.050410359 0.032173431 0)
(-0.058413048 0.03594795 0)
(-0.067621002 0.040088661 0)
(-0.0781523 0.044569684 0)
(-0.09011218 0.049351295 0)
(-0.10358454 0.054380227 0)
(-0.11862351 0.059594808 0)
(-0.13524751 0.064942442 0)
(-0.15344828 0.070407575 0)
(-0.17320805 0.07604782 0)
(-0.19448835 0.0820354 0)
(-0.21730513 0.088735311 0)
(-0.24217603 0.096728429 0)
(-0.26973173 0.10664241 0)
(-0.29985182 0.12127322 0)
(-0.3418606 0.14962014 0)
(-0.4208907 0.18425799 0)
(-0.51019598 0.14572453 0)
(-0.48813955 -0.068613333 0)
(-0.32622569 -0.36126517 0)
(-0.16230652 -0.5578296 0)
(0.018676295 -0.59964655 0)
(0.19926149 -0.59270904 0)
(0.37682317 -0.52020931 0)
(0.54871553 -0.43861237 0)
(0.72818857 -0.37610703 0)
(0.89888598 -0.29220205 0)
(1.0469188 -0.19196108 0)
(1.1578494 -0.15978429 0)
(1.1950932 -0.15582122 0)
(1.1543627 -0.13874937 0)
(1.0428267 -0.12580706 0)
(0.91407851 -0.086086602 0)
(0.84622324 0.040637767 0)
(0.80210725 0.18839875 0)
(0.70623378 0.25285089 0)
(0.57481268 0.24454273 0)
(0.46967282 0.21079291 0)
(0.40597804 0.20171778 0)
(0.36025953 0.21020363 0)
(0.31682404 0.21446262 0)
(0.27591735 0.20950709 0)
(0.24019344 0.19957851 0)
(0.20927542 0.18754246 0)
(0.1819889 0.17423777 0)
(0.1575509 0.16015749 0)
(0.13540405 0.14584902 0)
(0.1151276 0.13182505 0)
(0.096457409 0.1184751 0)
(0.079269838 0.10601644 0)
(0.063521749 0.094504096 0)
(0.04918427 0.083896154 0)
(0.036230333 0.07411629 0)
(0.024627241 0.065122509 0)
(0.01431973 0.05684548 0)
(0.0052479526 0.049231783 0)
(-0.002638853 0.042221678 0)
(-0.0093903378 0.035770952 0)
(-0.01506066 0.02982916 0)
(-0.019699487 0.024351853 0)
(-0.023363511 0.019306691 0)
(-0.026094178 0.014687703 0)
(-0.027924288 0.010483868 0)
(-0.028942898 0.0066696107 0)
(-0.02923534 0.0031906526 0)
(-0.028821549 3.1216142e-05 0)
(-0.02770513 -0.0028067125 0)
(-0.025848107 -0.005313372 0)
(-0.023233456 -0.0074780406 0)
(-0.020520666 -0.0092985756 0)
(-0.017836045 -0.010805352 0)
(-0.011154123 -0.012235567 0)
(0.0016832794 0.0062949233 0)
(0.0013356639 0.0064988992 0)
(0.0011583309 0.0067173244 0)
(0.00039408396 0.0069436586 0)
(0.00021924224 0.0071815649 0)
(-0.00036517744 0.0074798559 0)
(-0.00081967913 0.0077847994 0)
(-0.0013400345 0.0081211122 0)
(-0.0018964998 0.0084770122 0)
(-0.0024841384 0.0088560857 0)
(-0.0031167808 0.0092634695 0)
(-0.0037924768 0.0097045396 0)
(-0.0045311391 0.010175145 0)
(-0.0053360503 0.010699676 0)
(-0.0062214417 0.011265376 0)
(-0.0072127358 0.011906612 0)
(-0.0083108851 0.012632158 0)
(-0.0095538544 0.013443209 0)
(-0.010966678 0.014398977 0)
(-0.012590098 0.015520022 0)
(-0.014456851 0.016819353 0)
(-0.016610802 0.018356367 0)
(-0.019106123 0.020181772 0)
(-0.022046363 0.022323686 0)
(-0.025504731 0.024865653 0)
(-0.029531137 0.027805343 0)
(-0.03425193 0.031201822 0)
(-0.039790527 0.03508082 0)
(-0.046280636 0.039461991 0)
(-0.053863451 0.044348183 0)
(-0.062680424 0.049722554 0)
(-0.07286669 0.055547396 0)
(-0.084539976 0.061764153 0)
(-0.097788975 0.068294411 0)
(-0.11266288 0.07504575 0)
(-0.12915762 0.081928378 0)
(-0.14720544 0.088886626 0)
(-0.16668492 0.095954838 0)
(-0.18738553 0.10332764 0)
(-0.20897778 0.11139507 0)
(-0.23152568 0.12079237 0)
(-0.25534956 0.13363644 0)
(-0.27978579 0.15834815 0)
(-0.31430206 0.20707709 0)
(-0.38086079 0.2474216 0)
(-0.42682316 0.15042104 0)
(-0.34259075 -0.16932766 0)
(-0.21036026 -0.50022544 0)
(-0.10983865 -0.70983206 0)
(0.058480567 -0.77753525 0)
(0.20909167 -0.75440899 0)
(0.36672833 -0.70484126 0)
(0.58335084 -0.66533399 0)
(0.83642642 -0.61070346 0)
(1.0739869 -0.50033691 0)
(1.2604935 -0.35721436 0)
(1.3877313 -0.25798428 0)
(1.4513837 -0.18506005 0)
(1.4344967 -0.058798889 0)
(1.3102727 0.053180346 0)
(1.1212405 0.075900593 0)
(0.96054924 0.12428982 0)
(0.86951934 0.24582735 0)
(0.79011245 0.34737936 0)
(0.67614881 0.36550804 0)
(0.54623921 0.31675948 0)
(0.43898998 0.27323794 0)
(0.36665206 0.2618033 0)
(0.3121482 0.2590698 0)
(0.26516773 0.24866407 0)
(0.22576609 0.23287838 0)
(0.19311283 0.21602804 0)
(0.16524531 0.19912968 0)
(0.14087068 0.18227966 0)
(0.11919108 0.16576917 0)
(0.09963506 0.14992061 0)
(0.081849696 0.13495879 0)
(0.065659939 0.12099669 0)
(0.05096781 0.10803684 0)
(0.037692821 0.096064247 0)
(0.025767447 0.085000062 0)
(0.015125479 0.074807506 0)
(0.0056939894 0.065425591 0)
(-0.0025912751 0.056778638 0)
(-0.0097768794 0.048803428 0)
(-0.015910806 0.041445708 0)
(-0.021044528 0.034637621 0)
(-0.025214283 0.02832983 0)
(-0.028459971 0.022476029 0)
(-0.030823782 0.017038993 0)
(-0.032355102 0.011976419 0)
(-0.03308214 0.0072596684 0)
(-0.033008403 0.0029143945 0)
(-0.032182863 -0.0010220157 0)
(-0.030684638 -0.0045419998 0)
(-0.028471618 -0.0076794654 0)
(-0.025498872 -0.010426093 0)
(-0.022409836 -0.012752454 0)
(-0.019382234 -0.014696327 0)
(-0.012138861 -0.016546713 0)
(0.001838984 0.0065446225 0)
(0.0015734184 0.0067882409 0)
(0.0014045999 0.007041995 0)
(0.00064681567 0.0072989413 0)
(0.0005136655 0.0075775513 0)
(-3.6172531e-05 0.007919211 0)
(-0.00047496095 0.0082616749 0)
(-0.00096589869 0.0086343058 0)
(-0.0014974971 0.0090338591 0)
(-0.0020594123 0.0094628411 0)
(-0.0026520654 0.0099189413 0)
(-0.003292412 0.010417683 0)
(-0.0039845496 0.010951769 0)
(-0.0047271848 0.011550601 0)
(-0.0055432117 0.012206736 0)
(-0.006441603 0.012949089 0)
(-0.0074358806 0.013800211 0)
(-0.0085473526 0.014772304 0)
(-0.0097898444 0.01589354 0)
(-0.011210935 0.017222279 0)
(-0.012844663 0.018782613 0)
(-0.014708724 0.020619333 0)
(-0.016867843 0.022798125 0)
(-0.019406695 0.025367228 0)
(-0.022419598 0.028435144 0)
(-0.025969929 0.03199874 0)
(-0.030162137 0.036137524 0)
(-0.03514126 0.040893912 0)
(-0.041053501 0.04630011 0)
(-0.048061835 0.052366433 0)
(-0.056332692 0.059075824 0)
(-0.066028639 0.066379871 0)
(-0.07729553 0.074195996 0)
(-0.090247787 0.082407575 0)
(-0.10494683 0.090866451 0)
(-0.12137098 0.099408272 0)
(-0.13938835 0.1078864 0)
(-0.15874877 0.11624001 0)
(-0.1790112 0.12457214 0)
(-0.19936682 0.13306931 0)
(-0.21904126 0.1422352 0)
(-0.23764806 0.15601957 0)
(-0.25315401 0.18708385 0)
(-0.26754024 0.24356616 0)
(-0.29339877 0.27224194 0)
(-0.29852064 0.13021795 0)
(-0.23530975 -0.23331848 0)
(-0.16800325 -0.59879867 0)
(-0.049051593 -0.85557957 0)
(0.093466828 -0.94213258 0)
(0.22488777 -0.90145943 0)
(0.38846598 -0.89472583 0)
(0.61400973 -0.92344475 0)
(0.87576549 -0.87050578 0)
(1.1360601 -0.73885565 0)
(1.3619953 -0.53511222 0)
(1.5049662 -0.34220345 0)
(1.5071861 -0.15570629 0)
(1.4228914 -0.0087339133 0)
(1.3571989 0.14723284 0)
(1.2576276 0.22673011 0)
(1.0885309 0.28076207 0)
(0.92934734 0.3673454 0)
(0.81571024 0.45500327 0)
(0.70498326 0.48030285 0)
(0.57398325 0.44041092 0)
(0.44740268 0.37719349 0)
(0.35833979 0.33538166 0)
(0.29771682 0.3134082 0)
(0.24833527 0.29258964 0)
(0.20730667 0.26891766 0)
(0.17403261 0.24583726 0)
(0.14628833 0.22443988 0)
(0.12241464 0.20431184 0)
(0.10150283 0.18531802 0)
(0.082915878 0.1675037 0)
(0.066241952 0.15088375 0)
(0.051231176 0.13544342 0)
(0.037726704 0.12113424 0)
(0.02556905 0.10792549 0)
(0.014646487 0.095709458 0)
(0.0049187451 0.084431756 0)
(-0.0037141482 0.074008367 0)
(-0.011303582 0.064358145 0)
(-0.017867928 0.055393946 0)
(-0.023450824 0.047053486 0)
(-0.028089603 0.039263799 0)
(-0.031802562 0.031984219 0)
(-0.034624673 0.025172422 0)
(-0.03658161 0.018795965 0)
(-0.037692452 0.012847748 0)
(-0.037988188 0.0073360267 0)
(-0.037500527 0.0022535201 0)
(-0.036266701 -0.0024085211 0)
(-0.034349213 -0.006640393 0)
(-0.03171058 -0.010423224 0)
(-0.028324199 -0.01375175 0)
(-0.024790923 -0.016611358 0)
(-0.021334857 -0.019016545 0)
(-0.013412691 -0.02130832 0)
(0.0019996308 0.0068445592 0)
(0.0018133472 0.0071134146 0)
(0.0016751026 0.0073920866 0)
(0.00093452959 0.0076651194 0)
(0.00083599234 0.0079846952 0)
(0.00032255478 0.0083406072 0)
(-0.00010194674 0.008710456 0)
(-0.00056354805 0.0091072734 0)
(-0.0010600297 0.0095373727 0)
(-0.0015878539 0.0099978504 0)
(-0.0021475443 0.010494328 0)
(-0.0027410377 0.011026751 0)
(-0.0033743492 0.01161356 0)
(-0.0040512741 0.012259601 0)
(-0.0047868509 0.012981451 0)
(-0.0055759105 0.013800108 0)
(-0.0064360788 0.014739012 0)
(-0.0074012043 0.015825086 0)
(-0.0084497377 0.017085748 0)
(-0.0096262385 0.018570805 0)
(-0.010979712 0.020327963 0)
(-0.012511928 0.022415871 0)
(-0.014273323 0.024893226 0)
(-0.016320981 0.027830957 0)
(-0.018786453 0.0313415 0)
(-0.021744754 0.035481068 0)
(-0.025272583 0.040315992 0)
(-0.029539145 0.045916333 0)
(-0.034710192 0.052332739 0)
(-0.040977036 0.059587611 0)
(-0.048540299 0.067666838 0)
(-0.057601898 0.076513204 0)
(-0.068349989 0.086020408 0)
(-0.080941193 0.09602911 0)
(-0.095473182 0.10632168 0)
(-0.11193959 0.11662647 0)
(-0.13017887 0.12664787 0)
(-0.14983337 0.13613454 0)
(-0.17024385 0.14492378 0)
(-0.19014128 0.15275603 0)
(-0.20784554 0.1597814 0)
(-0.22215502 0.17072307 0)
(-0.22990769 0.19882322 0)
(-0.2253777 0.24734309 0)
(-0.21405625 0.25873561 0)
(-0.19544055 0.1038534 0)
(-0.13803321 -0.26546724 0)
(-0.092514989 -0.67224355 0)
(0.015634985 -0.97949077 0)
(0.094859341 -1.0524671 0)
(0.18646524 -1.0329685 0)
(0.34723329 -1.09369 0)
(0.56089564 -1.1887804 0)
(0.81397091 -1.1490737 0)
(1.0757005 -0.98957729 0)
(1.2936449 -0.71787261 0)
(1.4336075 -0.41876786 0)
(1.5097232 -0.11777905 0)
(1.4898113 0.08865849 0)
(1.367447 0.25857517 0)
(1.2246191 0.35817366 0)
(1.0730085 0.44559159 0)
(0.91075985 0.52363315 0)
(0.7800433 0.57692391 0)
(0.66541743 0.59416181 0)
(0.53071103 0.56507942 0)
(0.40386686 0.48838527 0)
(0.32016703 0.41415334 0)
(0.26568554 0.36934866 0)
(0.22043866 0.3372519 0)
(0.18158683 0.30570599 0)
(0.14999229 0.27614481 0)
(0.12382775 0.2499457 0)
(0.10138673 0.22632049 0)
(0.0818588 0.20467635 0)
(0.064646834 0.18474372 0)
(0.049332673 0.1663512 0)
(0.035637135 0.14936827 0)
(0.023359181 0.13369173 0)
(0.012303575 0.11920095 0)
(0.0023724625 0.10581367 0)
(-0.0064634145 0.093419249 0)
(-0.01428909 0.081916289 0)
(-0.0211483 0.071226805 0)
(-0.027054821 0.061258179 0)
(-0.032041174 0.05193732 0)
(-0.036128311 0.043203891 0)
(-0.039323525 0.03501139 0)
(-0.041660373 0.027322086 0)
(-0.04315149 0.020109602 0)
(-0.043812157 0.013357196 0)
(-0.043670613 0.0070522266 0)
(-0.042745752 0.0011912418 0)
(-0.041068279 -0.0042172073 0)
(-0.038683156 -0.0091541602 0)
(-0.035561487 -0.01359828 0)
(-0.031704396 -0.017530589 0)
(-0.027665858 -0.020922982 0)
(-0.023695037 -0.023827536 0)
(-0.014983294 -0.026559494 0)
(0.0021904568 0.0070837089 0)
(0.0020917397 0.0073983953 0)
(0.0019662355 0.0077100729 0)
(0.0012491193 0.0080080568 0)
(0.001188607 0.0083618507 0)
(0.00069806684 0.0087422164 0)
(0.00029866589 0.0091417207 0)
(-0.00012930258 0.0095648247 0)
(-0.00059288753 0.010018743 0)
(-0.0010841792 0.010507365 0)
(-0.0016006864 0.011032679 0)
(-0.0021452685 0.011600297 0)
(-0.0027179393 0.012223469 0)
(-0.0033195409 0.01291025 0)
(-0.0039566028 0.013678557 0)
(-0.0046311556 0.014553236 0)
(-0.0053493551 0.015554556 0)
(-0.0061302197 0.01671409 0)
(-0.0069658115 0.0180818 0)
(-0.0078817508 0.019675493 0)
(-0.0089061106 0.021577942 0)
(-0.010045411 0.023847564 0)
(-0.011352137 0.02656312 0)
(-0.012854222 0.029806337 0)
(-0.014660361 0.033671495 0)
(-0.016887481 0.038303868 0)
(-0.019617423 0.04377736 0)
(-0.023008797 0.050168684 0)
(-0.027255704 0.057568192 0)
(-0.032586531 0.066018729 0)
(-0.039247556 0.07551779 0)
(-0.047495584 0.086004997 0)
(-0.057582436 0.097355891 0)
(-0.069734302 0.10936897 0)
(-0.084121056 0.12174462 0)
(-0.10080018 0.13407518 0)
(-0.11964638 0.14586463 0)
(-0.14027815 0.15657472 0)
(-0.16190403 0.16559669 0)
(-0.1828889 0.17200167 0)
(-0.20080877 0.17544057 0)
(-0.2139806 0.18066221 0)
(-0.21959265 0.19922773 0)
(-0.20907881 0.22993188 0)
(-0.18144545 0.21991163 0)
(-0.14360004 0.062232613 0)
(-0.069229157 -0.30985835 0)
(-0.036482517 -0.73301024 0)
(0.031973085 -1.0517849 0)
(0.076771782 -1.1115542 0)
(0.16900944 -1.1352288 0)
(0.32720771 -1.2853386 0)
(0.47492892 -1.4037067 0)
(0.64077589 -1.3894213 0)
(0.85772809 -1.2219959 0)
(1.0800312 -0.89993835 0)
(1.2524448 -0.53889792 0)
(1.3759271 -0.20986958 0)
(1.4462102 0.13025188 0)
(1.3700367 0.42233293 0)
(1.2037756 0.50440209 0)
(1.0734875 0.58171322 0)
(0.94615449 0.65853563 0)
(0.78035265 0.71810266 0)
(0.59378087 0.74082943 0)
(0.42952499 0.69442214 0)
(0.31891143 0.58604585 0)
(0.25630714 0.47850206 0)
(0.21662263 0.41576579 0)
(0.1810144 0.37603157 0)
(0.14796498 0.33877115 0)
(0.12044713 0.30385452 0)
(0.097377651 0.27340357 0)
(0.077371458 0.24657241 0)
(0.059914168 0.22243501 0)
(0.044512671 0.20044226 0)
(0.030845802 0.18033442 0)
(0.018628763 0.16186787 0)
(0.0076547114 0.14487869 0)
(-0.0022203005 0.12919592 0)
(-0.011067805 0.11472784 0)
(-0.018940231 0.10131189 0)
(-0.025894886 0.088842455 0)
(-0.031965375 0.077213891 0)
(-0.037163479 0.066342223 0)
(-0.041510403 0.056138129 0)
(-0.045011388 0.04654749 0)
(-0.047673546 0.037512471 0)
(-0.049511974 0.02899296 0)
(-0.050528092 0.020960069 0)
(-0.050728262 0.013396988 0)
(-0.050131633 0.0062987213 0)
(-0.048745671 -0.00033666843 0)
(-0.046587919 -0.00649036 0)
(-0.043699141 -0.012141044 0)
(-0.040055559 -0.017263193 0)
(-0.03565901 -0.021825815 0)
(-0.031057557 -0.02576121 0)
(-0.026487332 -0.029220203 0)
(-0.016876642 -0.032390558 0)
(0.0024080049 0.0073067448 0)
(0.0023981944 0.0076636674 0)
(0.0022940994 0.0080086717 0)
(0.0015967438 0.0083419114 0)
(0.0015682528 0.0087212121 0)
(0.0011111283 0.0091309798 0)
(0.00072874584 0.009560133 0)
(0.00032429077 0.010015869 0)
(-0.00010252348 0.010491204 0)
(-0.00055359091 0.01099998 0)
(-0.001027801 0.011545074 0)
(-0.0015171826 0.012135128 0)
(-0.0020241233 0.012779638 0)
(-0.0025480892 0.013492885 0)
(-0.0030871168 0.014287673 0)
(-0.0036345926 0.015188479 0)
(-0.0042005609 0.016219708 0)
(-0.0047882884 0.017426281 0)
(-0.0053925018 0.018835815 0)
(-0.0060236358 0.020493769 0)
(-0.006691793 0.022476289 0)
(-0.007403481 0.024846085 0)
(-0.0081867637 0.027713941 0)
(-0.0090813489 0.031153947 0)
(-0.010150934 0.03530586 0)
(-0.011497566 0.040301814 0)
(-0.013265832 0.046318454 0)
(-0.015600838 0.053424402 0)
(-0.018703264 0.061762044 0)
(-0.022857205 0.071413005 0)
(-0.028366681 0.082393133 0)
(-0.035559076 0.094650298 0)
(-0.044770126 0.10805031 0)
(-0.056331611 0.12235445 0)
(-0.070538821 0.13718595 0)
(-0.087585541 0.15200438 0)
(-0.10748885 0.16610062 0)
(-0.12997062 0.17857083 0)
(-0.15421725 0.18816067 0)
(-0.17831188 0.19305079 0)
(-0.19929622 0.19243418 0)
(-0.21580186 0.19132601 0)
(-0.22695281 0.19983049 0)
(-0.22312878 0.21166147 0)
(-0.1943654 0.17324373 0)
(-0.13925761 -0.0073201518 0)
(-0.044350279 -0.37140089 0)
(0.017299208 -0.78794542 0)
(0.056639252 -1.0980025 0)
(0.1055486 -1.1920426 0)
(0.23943893 -1.2547711 0)
(0.36787981 -1.4129223 0)
(0.42279335 -1.5094524 0)
(0.51532252 -1.5546048 0)
(0.67842283 -1.4283668 0)
(0.87180296 -1.1055658 0)
(1.0530072 -0.71376105 0)
(1.1790891 -0.32973143 0)
(1.257581 0.083748721 0)
(1.3050133 0.46847602 0)
(1.2569446 0.61012516 0)
(1.1020138 0.7304387 0)
(0.91291137 0.81777646 0)
(0.70651567 0.91701325 0)
(0.48360576 0.93284267 0)
(0.31453316 0.82503181 0)
(0.22387326 0.66127383 0)
(0.18191593 0.52222606 0)
(0.15823674 0.44817852 0)
(0.13380895 0.40542521 0)
(0.10828892 0.36537926 0)
(0.086409316 0.32696272 0)
(0.0674744 0.29337441 0)
(0.05066626 0.26400712 0)
(0.03583543 0.23776035 0)
(0.022639282 0.21401721 0)
(0.010886634 0.19241998 0)
(0.00030572956 0.17267875 0)
(-0.0092155048 0.1545752 0)
(-0.01778081 0.1379034 0)
(-0.025465888 0.12251031 0)
(-0.032315341 0.10822294 0)
(-0.038359962 0.094912897 0)
(-0.043620517 0.082461568 0)
(-0.048099457 0.070777073 0)
(-0.051801375 0.059766524 0)
(-0.054716402 0.049368478 0)
(-0.056844871 0.039526067 0)
(-0.058183743 0.030197255 0)
(-0.058720585 0.021352858 0)
(-0.058449161 0.012982175 0)
(-0.057381411 0.0050822705 0)
(-0.055512606 -0.0023341411 0)
(-0.052850758 -0.0092525529 0)
(-0.049429266 -0.015645782 0)
(-0.045221036 -0.021481883 0)
(-0.040215947 -0.026700108 0)
(-0.035006611 -0.031214896 0)
(-0.029744482 -0.035307767 0)
(-0.019129546 -0.038913563 0)
(0.0026555778 0.0074882143 0)
(0.0027409174 0.0078929456 0)
(0.0026540658 0.0082762683 0)
(0.0019738067 0.0086401588 0)
(0.0019755028 0.0090512766 0)
(0.0015466216 0.0094861991 0)
(0.0011927999 0.0099423861 0)
(0.00081393143 0.010422445 0)
(0.00040823361 0.010924349 0)
(-7.5810236e-06 0.011449559 0)
(-0.00043533146 0.012008402 0)
(-0.00087313668 0.012606828 0)
(-0.0013146071 0.013258892 0)
(-0.0017566193 0.013978378 0)
(-0.0021962401 0.014778562 0)
(-0.0026243383 0.01568373 0)
(-0.0030264002 0.016712941 0)
(-0.0034178423 0.017911087 0)
(-0.0037899365 0.019323533 0)
(-0.0041209361 0.020984452 0)
(-0.004422499 0.02297009 0)
(-0.0046673482 0.025357194 0)
(-0.0048977311 0.028262146 0)
(-0.0051110873 0.031781998 0)
(-0.0053577205 0.036094559 0)
(-0.0057111308 0.041332208 0)
(-0.0063259604 0.047745821 0)
(-0.0073891547 0.055437431 0)
(-0.0090838334 0.064646497 0)
(-0.011760126 0.075486246 0)
(-0.015798866 0.088004517 0)
(-0.021610321 0.10216834 0)
(-0.029643298 0.11785907 0)
(-0.040370003 0.13484368 0)
(-0.054251607 0.15270373 0)
(-0.071687498 0.17077206 0)
(-0.092981328 0.18811509 0)
(-0.11815988 0.20335363 0)
(-0.14652757 0.21437126 0)
(-0.17597353 0.21841479 0)
(-0.20351405 0.21474869 0)
(-0.22895884 0.20942368 0)
(-0.25247639 0.21079353 0)
(-0.25896239 0.20298991 0)
(-0.22222701 0.12089844 0)
(-0.13084673 -0.11302802 0)
(-0.013829426 -0.46092617 0)
(0.086981529 -0.84447801 0)
(0.12658959 -1.1420085 0)
(0.17758886 -1.3045637 0)
(0.31540699 -1.3989748 0)
(0.42531005 -1.4823223 0)
(0.43710106 -1.5334861 0)
(0.46135865 -1.6587892 0)
(0.54771065 -1.5819766 0)
(0.67469424 -1.2676257 0)
(0.78989441 -0.85316798 0)
(0.87521199 -0.41371199 0)
(0.93151332 0.027342511 0)
(0.97332107 0.43091257 0)
(0.95504304 0.68563935 0)
(0.86087653 0.88833553 0)
(0.69863945 1.0170483 0)
(0.50100691 1.1296802 0)
(0.32742342 1.1136015 0)
(0.20497183 0.93795183 0)
(0.13734447 0.71649169 0)
(0.11082167 0.54999739 0)
(0.099324313 0.46842466 0)
(0.083652856 0.42577846 0)
(0.065343264 0.38507731 0)
(0.049618273 0.34486533 0)
(0.035149307 0.30939182 0)
(0.021942845 0.27829554 0)
(0.010089977 0.25044304 0)
(-0.00063523298 0.22535817 0)
(-0.010309503 0.2026111 0)
(-0.019075961 0.18188021 0)
(-0.027016544 0.16289458 0)
(-0.03420485 0.14541089 0)
(-0.040686325 0.12923607 0)
(-0.046482321 0.11420211 0)
(-0.051606576 0.10015574 0)
(-0.056054169 0.086973648 0)
(-0.059815947 0.074549978 0)
(-0.062876539 0.062794823 0)
(-0.065212916 0.0516371 0)
(-0.066813557 0.041020008 0)
(-0.067658402 0.0309063 0)
(-0.067719667 0.021267161 0)
(-0.066979289 0.012093268 0)
(-0.065427806 0.0033852365 0)
(-0.063057947 -0.0048403795 0)
(-0.059875757 -0.012553836 0)
(-0.055898873 -0.019724808 0)
(-0.051080664 -0.026316258 0)
(-0.045403963 -0.032222615 0)
(-0.0395667 -0.03738091 0)
(-0.033500915 -0.042171084 0)
(-0.021769706 -0.046219403 0)
(0.0029392415 0.0076305456 0)
(0.0031207763 0.0080881802 0)
(0.0030515785 0.0085129735 0)
(0.0023855202 0.0089142568 0)
(0.0024126005 0.0093561491 0)
(0.002013061 0.0098214662 0)
(0.00167505 0.010303398 0)
(0.0013191377 0.010802424 0)
(0.00094321866 0.011322218 0)
(0.00055579423 0.011858945 0)
(0.00016231638 0.012419905 0)
(-0.00022527056 0.013020199 0)
(-0.00060212202 0.013670332 0)
(-0.00096797797 0.014372593 0)
(-0.0013101557 0.015157566 0)
(-0.0016170197 0.016035463 0)
(-0.0018785667 0.01704073 0)
(-0.0020704344 0.018181878 0)
(-0.0021992435 0.019535137 0)
(-0.002245121 0.021137695 0)
(-0.0021761031 0.023049676 0)
(-0.0019588399 0.025356542 0)
(-0.001598416 0.028165576 0)
(-0.0010795797 0.031634669 0)
(-0.00042724778 0.035919671 0)
(0.00033458688 0.041237347 0)
(0.0010319963 0.047847916 0)
(0.0015056136 0.055980751 0)
(0.0015593901 0.065942889 0)
(0.00072367083 0.077897119 0)
(-0.0014474011 0.091965786 0)
(-0.0054549147 0.10817701 0)
(-0.011844724 0.12644112 0)
(-0.021253924 0.14651362 0)
(-0.034414043 0.16797458 0)
(-0.052051154 0.19012062 0)
(-0.074927446 0.21193702 0)
(-0.10355221 0.23160857 0)
(-0.13740078 0.24587758 0)
(-0.17459165 0.25101048 0)
(-0.21393327 0.24730675 0)
(-0.25679933 0.24221263 0)
(-0.29622858 0.2358168 0)
(-0.30172988 0.19143284 0)
(-0.2398525 0.040826889 0)
(-0.11434961 -0.24684813 0)
(0.024768818 -0.58038279 0)
(0.15770698 -0.91477914 0)
(0.23121702 -1.1846372 0)
(0.26854765 -1.3816334 0)
(0.32546601 -1.5026216 0)
(0.37415831 -1.5283894 0)
(0.3774373 -1.5350189 0)
(0.35571458 -1.6779794 0)
(0.34417415 -1.6460392 0)
(0.40077497 -1.3439253 0)
(0.46314197 -0.91169524 0)
(0.49534135 -0.44449782 0)
(0.51327889 0.01763825 0)
(0.52406157 0.43167504 0)
(0.51273892 0.73832645 0)
(0.50784363 0.9768466 0)
(0.40441583 1.2057386 0)
(0.24531782 1.2779845 0)
(0.16380255 1.2304063 0)
(0.094964911 1.0122989 0)
(0.057791761 0.75402247 0)
(0.047798167 0.5663575 0)
(0.044421004 0.48043969 0)
(0.033477472 0.43975388 0)
(0.021614451 0.39868606 0)
(0.011641867 0.35765814 0)
(0.0014193946 0.32135674 0)
(-0.008073324 0.28923741 0)
(-0.016864086 0.2603849 0)
(-0.024955991 0.23439758 0)
(-0.032408367 0.21086547 0)
(-0.039276654 0.18941565 0)
(-0.045578767 0.16975742 0)
(-0.051353444 0.15163371 0)
(-0.056606157 0.13483802 0)
(-0.061337479 0.11918946 0)
(-0.065537938 0.10452554 0)
(-0.069179269 0.090714108 0)
(-0.072234908 0.07763977 0)
(-0.074670801 0.065209143 0)
(-0.076451501 0.053348624 0)
(-0.077543074 0.041997678 0)
(-0.077907938 0.031123136 0)
(-0.077506671 0.020705194 0)
(-0.076306724 0.010726171 0)
(-0.07428951 0.0011909411 0)
(-0.071424354 -0.0078604427 0)
(-0.067706324 -0.016404339 0)
(-0.063153182 -0.024400952 0)
(-0.0576804 -0.031794985 0)
(-0.051289679 -0.038446347 0)
(-0.044789843 -0.044332864 0)
(-0.037791819 -0.049879486 0)
(-0.024857043 -0.054392803 0)
(0.003261207 0.0077389175 0)
(0.0035425344 0.0082517461 0)
(0.0034899166 0.0087271157 0)
(0.0028319414 0.0091648641 0)
(0.0028811334 0.0096445661 0)
(0.0025052363 0.010136277 0)
(0.0021836752 0.010641521 0)
(0.0018461671 0.011162355 0)
(0.001484328 0.011694088 0)
(0.0011175356 0.012237575 0)
(0.00076126429 0.012797453 0)
(0.0004220754 0.013386205 0)
(9.2818608e-05 0.014013157 0)
(-0.0002031191 0.014688492 0)
(-0.00045483009 0.015433515 0)
(-0.00064921612 0.016259786 0)
(-0.00077504235 0.017192879 0)
(-0.00080456395 0.018259552 0)
(-0.0006997836 0.019486077 0)
(-0.00045910438 0.020955032 0)
(-4.4352477e-05 0.022707697 0)
(0.00061734688 0.024824838 0)
(0.0015629614 0.02741549 0)
(0.002831274 0.030655968 0)
(0.0044366844 0.034718612 0)
(0.0064126182 0.039874973 0)
(0.0086294073 0.046449471 0)
(0.010932922 0.054801742 0)
(0.013081643 0.065305329 0)
(0.014516079 0.078261953 0)
(0.014731597 0.093877955 0)
(0.013118129 0.11221654 0)
(0.0089412863 0.13325718 0)
(0.0013779608 0.15688084 0)
(-0.010536465 0.18280862 0)
(-0.027777592 0.21043297 0)
(-0.051649331 0.23863287 0)