/*--------------------------------*- C++ -*----------------------------------*\
  =========                 |
  \\      /  F ield         | OpenFOAM: The Open Source CFD Toolbox
   \\    /   O peration     | Website:  https://openfoam.org
    \\  /    A nd           | Version:  9
     \\/     M anipulation  |
\*---------------------------------------------------------------------------*/
FoamFile
{
    format      ascii;
    class       volScalarField;
    location    "9";
    object      my_laplacianT;
}
// * * * * * * * * * * * * * * * * * * * * * * * * * * * * * * * * * * * * * //

dimensions      [0 -2 0 1 0 0 0];

internalField   nonuniform List<scalar> 10(1.7618976e-05 0.00010571184 0.00075947201 0.0010124774 0.0069612478 0.1955622 0.40164954 5.6167722 11.684981 -267.81392);

boundaryField
{
    inlet
    {
        type            extrapolatedCalculated;
        value           uniform 1.7618976e-05;
    }
    outlet
    {
        type            extrapolatedCalculated;
        value           uniform -267.81392;
    }
    bottom
    {
        type            extrapolatedCalculated;
        value           nonuniform List<scalar> 10(1.7618976e-05 0.00010571184 0.00075947201 0.0010124774 0.0069612478 0.1955622 0.40164954 5.6167722 11.684981 -267.81392);
    }
    top
    {
        type            extrapolatedCalculated;
        value           nonuniform List<scalar> 10(1.7618976e-05 0.00010571184 0.00075947201 0.0010124774 0.0069612478 0.1955622 0.40164954 5.6167722 11.684981 -267.81392);
    }
    frontAndBack
    {
        type            empty;
    }
}


// ************************************************************************* //
