/*--------------------------------*- C++ -*----------------------------------*\
  =========                 |
  \\      /  F ield         | OpenFOAM: The Open Source CFD Toolbox
   \\    /   O peration     | Website:  https://openfoam.org
    \\  /    A nd           | Version:  9
     \\/     M anipulation  |
\*---------------------------------------------------------------------------*/
FoamFile
{
    format      ascii;
    class       volScalarField;
    location    "19";
    object      p;
}
// * * * * * * * * * * * * * * * * * * * * * * * * * * * * * * * * * * * * * //

dimensions      [0 2 -2 0 0 0 0];

internalField   nonuniform List<scalar> 
1000
(
1.6755989
1.554521
1.4585406
1.3948845
1.3463749
1.3039029
1.2663677
1.2341959
1.2067955
1.182958
1.1615636
1.1417998
1.1231227
1.1051831
1.0877678
1.0707536
1.0540727
1.0376886
1.0215804
1.0057345
0.99013947
0.97478436
0.95965767
0.94474743
0.93004142
0.91552743
0.90119346
0.88702796
0.87301991
0.8591589
0.84543519
0.83183964
0.81836374
0.80499956
0.79173972
0.77857736
0.76550605
0.75251985
0.73961318
0.72678087
0.71401806
0.70132025
0.6886832
0.67610298
0.66357589
0.65109849
0.63866756
0.62628008
0.61393323
0.60162438
0.58935105
0.57711095
0.56490191
0.55272192
0.54056909
0.52844164
0.51633794
0.50425642
0.49219566
0.48015428
0.46813104
0.45612474
0.44413428
0.43215862
0.42019681
0.40824793
0.39631114
0.38438564
0.37247071
0.36056564
0.34866979
0.33678255
0.32490336
0.3130317
0.30116707
0.28930902
0.2774571
0.26561092
0.25377009
0.24193427
0.23010312
0.21827636
0.20645368
0.19463481
0.18281949
0.17100749
0.15919863
0.14739271
0.13558949
0.12378878
0.1119904
0.10019426
0.08840022
0.076608141
0.064817856
0.053029234
0.041242225
0.029456651
0.017672701
0.005889721
1.5583792
1.5034502
1.4424977
1.39093
1.3476599
1.3086916
1.2731054
1.2413327
1.2133718
1.188594
1.1661921
1.1454907
1.1260091
1.1074211
1.0895075
1.0721227
1.0551709
1.0385895
1.0223368
1.0063833
0.99070629
0.97528675
0.9601079
0.94515424
0.93041118
0.91586496
0.90150255
0.88731168
0.87328085
0.85939927
0.8456569
0.83204439
0.81855303
0.80517474
0.79190199
0.77872778
0.7656456
0.7526494
0.73973353
0.72689272
0.71412207
0.70141701
0.68877326
0.67618683
0.66365398
0.65117125
0.63873536
0.62634327
0.61399214
0.60167931
0.58940228
0.57715873
0.56494649
0.55276351
0.54060789
0.52847786
0.51637173
0.50428797
0.4922251
0.48018177
0.46815669
0.45614869
0.44415664
0.4321795
0.4202163
0.40826613
0.39632813
0.38440151
0.37248553
0.36057948
0.34868271
0.33679462
0.32491464
0.31304223
0.3011769
0.2893182
0.27746568
0.26561893
0.25377757
0.24194125
0.23010964
0.21828245
0.20645938
0.19464014
0.18282446
0.17101212
0.15920295
0.14739676
0.1355933
0.12379232
0.11199368
0.10019731
0.088403087
0.07661084
0.064820378
0.053031541
0.041244368
0.029458515
0.017674378
0.0058905644
1.497558
1.4713829
1.4329861
1.3918532
1.3527679
1.3161771
1.2818794
1.2501619
1.2213058
1.1952047
1.1714507
1.1495607
1.1291109
1.10977
1.0912898
1.0734888
1.0562369
1.0394414
1.0230353
1.0069702
0.99120979
0.9757261
0.96049623
0.94550073
0.93072246
0.91614598
0.90175715
0.88754297
0.87349143
0.85959137
0.84583244
0.83220506
0.81870033
0.80530997
0.79202631
0.77884222
0.76575108
0.75274673
0.73982344
0.72697586
0.71419903
0.70148829
0.68883934
0.67624813
0.66371089
0.65122409
0.63878447
0.62638893
0.61403461
0.60171882
0.58943906
0.57719297
0.56497837
0.55279321
0.54063557
0.52850366
0.51639579
0.50431039
0.49224601
0.48020126
0.46817488
0.45616565
0.44417247
0.43219427
0.42023009
0.40827899
0.39634014
0.38441272
0.37249599
0.36058924
0.34869182
0.33680312
0.32492258
0.31304964
0.30118383
0.28932467
0.27747172
0.26562457
0.25378284
0.24194617
0.23011423
0.21828672
0.20646337
0.19464388
0.18282796
0.17101539
0.15920599
0.14739961
0.13559595
0.1237948
0.11199597
0.10019946
0.088405105
0.076612738
0.064822102
0.053033103
0.041245706
0.029459676
0.017675071
0.005891039
1.4681495
1.4526514
1.4257815
1.3918576
1.3560566
1.3211053
1.2878033
1.2564503
1.2273196
1.2005281
1.1759406
1.1532484
1.1320965
1.1121678
1.0932096
1.0750299
1.0574841
1.0404631
1.0238845
1.0076865
0.99182254
0.97625679
0.96096082
0.94591114
0.93108771
0.91647298
0.90205134
0.8878087
0.87373225
0.85981024
0.84603187
0.83238717
0.81886695
0.8054627
0.79216654
0.77897117
0.76586982
0.75285621
0.7399245
0.72706925
0.7142854
0.70156826
0.68891343
0.67631683
0.66377463
0.65128328
0.63883944
0.62644002
0.61408211
0.601763
0.58948017
0.57723124
0.56501401
0.55282641
0.5406665
0.52853247
0.51642264
0.50433542
0.49226934
0.48022302
0.46819517
0.45618458
0.44419012
0.43221074
0.42024546
0.40829334
0.39635353
0.38442522
0.37250765
0.36060012
0.34870197
0.3368126
0.32493143
0.31305792
0.30119156
0.28933188
0.27747844
0.26563084
0.2537887
0.24195166
0.23011937
0.21829151
0.20646778
0.19464798
0.18283186
0.17101914
0.15920949
0.14740274
0.13559875
0.12379747
0.11199861
0.10020201
0.088407379
0.07661477
0.064823904
0.05303486
0.041247181
0.029461084
0.01767591
0.005892061
1.4554179
1.4434646
1.4212302
1.3909426
1.3570815
1.3230859
1.2903883
1.2593827
1.2302854
1.2032735
1.1783464
1.1552969
1.1338153
1.1135977
1.0943941
1.0760119
1.058303
1.0411525
1.0244717
1.0081926
0.99226357
0.97664501
0.96130549
0.94621933
0.93136487
0.91672339
0.90227841
0.88801522
0.87392052
0.85998223
0.84618926
0.83253144
0.81899938
0.80558441
0.79227854
0.77907435
0.76596498
0.75294405
0.74000566
0.72714431
0.71435488
0.70163262
0.68897308
0.67637215
0.66382597
0.65133095
0.63888373
0.62648118
0.61412037
0.60179859
0.58951328
0.57726206
0.56504271
0.55285314
0.5406914
0.52855567
0.51644426
0.50435557
0.49228813
0.48024054
0.46821151
0.45619981
0.44420433
0.432224
0.42025783
0.40830489
0.39636431
0.38443527
0.37251703
0.36060887
0.34871013
0.33682022
0.32493855
0.31306458
0.30119777
0.28933767
0.27748384
0.26563588
0.25379341
0.24195608
0.23012352
0.21829536
0.2064713
0.19465124
0.18283502
0.17102224
0.15921234
0.14740516
0.13560087
0.12379962
0.11200087
0.10020417
0.08840917
0.076616305
0.064825299
0.053036316
0.041248432
0.029462313
0.017676718
0.0058930594
1.4554179
1.4434646
1.4212302
1.3909426
1.3570815
1.3230859
1.2903883
1.2593827
1.2302854
1.2032735
1.1783464
1.1552969
1.1338153
1.1135977
1.0943941
1.0760119
1.058303
1.0411525
1.0244717
1.0081926
0.99226357
0.97664501
0.96130549
0.94621933
0.93136487
0.91672339
0.90227841
0.88801521
0.87392052
0.85998223
0.84618927
0.83253144
0.81899938
0.80558441
0.79227854
0.77907435
0.76596497
0.75294405
0.74000566
0.72714431
0.71435488
0.70163262
0.68897308
0.67637215
0.66382597
0.65133095
0.63888373
0.62648118
0.61412037
0.60179859
0.58951328
0.57726207
0.56504272
0.55285314
0.5406914
0.52855567
0.51644425
0.50435557
0.49228813
0.48024054
0.46821151
0.45619981
0.44420433
0.432224
0.42025783
0.40830489
0.39636431
0.38443527
0.37251702
0.36060886
0.34871013
0.33682023
0.32493856
0.31306458
0.30119778
0.28933767
0.27748383
0.26563588
0.25379341
0.24195609
0.23012352
0.21829533
0.20647127
0.19465125
0.18283509
0.1710223
0.15921229
0.14740503
0.1356008
0.1237997
0.11200101
0.10020421
0.088409095
0.076616212
0.064825275
0.053036356
0.041248474
0.029462326
0.017676711
0.0058930527
1.4681495
1.4526514
1.4257815
1.3918576
1.3560566
1.3211053
1.2878033
1.2564503
1.2273196
1.2005281
1.1759406
1.1532484
1.1320965
1.1121678
1.0932096
1.0750299
1.0574841
1.0404631
1.0238845
1.0076865
0.99182254
0.97625679
0.96096082
0.94591114
0.93108771
0.91647298
0.90205133
0.8878087
0.87373225
0.85981024
0.84603187
0.83238718
0.81886695
0.8054627
0.79216654
0.77897117
0.76586982
0.75285621
0.7399245
0.72706925
0.71428541
0.70156826
0.68891344
0.67631683
0.66377464
0.65128328
0.63883944
0.62644001
0.6140821
0.601763
0.58948017
0.57723125
0.56501402
0.55282641
0.5406665
0.52853247
0.51642263
0.50433542
0.49226934
0.48022302
0.46819517
0.45618458
0.44419013
0.43221075
0.42024547
0.40829335
0.39635353
0.38442521
0.37250764
0.36060011
0.34870197
0.33681261
0.32493145
0.31305793
0.30119156
0.28933187
0.27747843
0.26563084
0.25378871
0.24195168
0.23011937
0.21829145
0.20646773
0.19464802
0.18283201
0.17101923
0.15920936
0.14740248
0.13559866
0.12379767
0.11199888
0.10020205
0.088407198
0.076614592
0.064823887
0.053034954
0.041247259
0.029461097
0.017675893
0.00589205
1.497558
1.4713829
1.4329861
1.3918532
1.3527679
1.3161771
1.2818794
1.2501619
1.2213058
1.1952047
1.1714507
1.1495607
1.1291109
1.10977
1.0912898
1.0734888
1.0562369
1.0394414
1.0230353
1.0069702
0.99120979
0.9757261
0.96049623
0.94550074
0.93072247
0.91614597
0.90175714
0.88754297
0.87349143
0.85959137
0.84583245
0.83220507
0.81870033
0.80530997
0.7920263
0.77884222
0.76575108
0.75274673
0.73982344
0.72697586
0.71419903
0.7014883
0.68883934
0.67624813
0.66371089
0.6512241
0.63878446
0.62638892
0.6140346
0.60171882
0.58943906
0.57719298
0.56497838
0.55279322
0.54063557
0.52850365
0.51639578
0.50431039
0.492246
0.48020126
0.46817488
0.45616565
0.44417247
0.43219428
0.42023009
0.408279
0.39634014
0.38441271
0.37249598
0.36058923
0.34869182
0.33680313
0.32492259
0.31304965
0.30118383
0.28932466
0.27747171
0.26562457
0.25378285
0.24194618
0.23011422
0.21828669
0.20646335
0.19464394
0.18282806
0.17101541
0.15920587
0.14739946
0.13559595
0.12379495
0.11199611
0.10019945
0.088404985
0.076612643
0.064822105
0.05303316
0.041245748
0.029459681
0.017675062
0.0058910345
1.5583792
1.5034502
1.4424977
1.39093
1.3476599
1.3086916
1.2731054
1.2413327
1.2133718
1.188594
1.1661921
1.1454907
1.1260091
1.1074211
1.0895075
1.0721227
1.0551709
1.0385895
1.0223368
1.0063833
0.99070629
0.97528675
0.9601079
0.94515424
0.93041118
0.91586496
0.90150255
0.88731168
0.87328085
0.85939927
0.8456569
0.83204439
0.81855304
0.80517474
0.79190199
0.77872778
0.7656456
0.7526494
0.73973352
0.72689272
0.71412207
0.70141701
0.68877326
0.67618683
0.66365399
0.65117125
0.63873535
0.62634327
0.61399214
0.60167931
0.58940228
0.57715874
0.56494649
0.55276351
0.54060789
0.52847786
0.51637173
0.50428797
0.4922251
0.48018176
0.46815669
0.45614869
0.44415664
0.43217951
0.42021631
0.40826613
0.39632813
0.38440151
0.37248552
0.36057947
0.34868271
0.33679462
0.32491464
0.31304223
0.3011769
0.2893182
0.27746568
0.26561893
0.25377757
0.24194125
0.23010963
0.21828244
0.20645939
0.19464017
0.18282447
0.17101209
0.1592029
0.14739675
0.13559333
0.12379236
0.11199369
0.10019729
0.08840307
0.076610839
0.064820383
0.053031541
0.041244366
0.029458516
0.017674383
0.0058905667
1.6755989
1.554521
1.4585406
1.3948845
1.3463749
1.3039029
1.2663677
1.2341959
1.2067955
1.182958
1.1615636
1.1417998
1.1231227
1.1051831
1.0877678
1.0707536
1.0540727
1.0376886
1.0215804
1.0057345
0.99013947
0.97478437
0.95965767
0.94474743
0.93004142
0.91552743
0.90119346
0.88702796
0.87301991
0.8591589
0.84543519
0.83183964
0.81836374
0.80499956
0.79173972
0.77857736
0.76550605
0.75251985
0.73961318
0.72678087
0.71401806
0.70132025
0.6886832
0.67610298
0.66357589
0.65109849
0.63866756
0.62628008
0.61393323
0.60162438
0.58935105
0.57711095
0.56490191
0.55272192
0.54056909
0.52844164
0.51633794
0.50425642
0.49219565
0.48015428
0.46813104
0.45612474
0.44413428
0.43215863
0.42019681
0.40824793
0.39631114
0.38438564
0.3724707
0.36056563
0.34866978
0.33678255
0.32490336
0.3130317
0.30116708
0.28930902
0.2774571
0.26561092
0.25377008
0.24193426
0.23010312
0.21827637
0.2064537
0.19463482
0.18281947
0.17100748
0.15919864
0.14739273
0.1355895
0.12378876
0.11199038
0.10019426
0.088400246
0.076608159
0.06481785
0.053029216
0.041242212
0.029456651
0.017672707
0.0058897244
)
;

boundaryField
{
    top
    {
        type            zeroGradient;
    }
    inlet
    {
        type            zeroGradient;
    }
    outlet
    {
        type            fixedValue;
        value           uniform 0;
    }
    bottom
    {
        type            zeroGradient;
    }
    back
    {
        type            empty;
    }
    front
    {
        type            empty;
    }
}


// ************************************************************************* //
