/*--------------------------------*- C++ -*----------------------------------*\
  =========                 |
  \\      /  F ield         | OpenFOAM: The Open Source CFD Toolbox
   \\    /   O peration     | Website:  https://openfoam.org
    \\  /    A nd           | Version:  9
     \\/     M anipulation  |
\*---------------------------------------------------------------------------*/
FoamFile
{
    format      ascii;
    class       surfaceScalarField;
    location    "19";
    object      phi;
}
// * * * * * * * * * * * * * * * * * * * * * * * * * * * * * * * * * * * * * //

dimensions      [0 3 -1 0 0 0 0];

internalField   nonuniform List<scalar> 
1890
(
0.0093061957
0.00069380425
0.0082843931
0.0010218027
0.0073298986
0.00095449449
0.0064869553
0.00084294334
0.0057695845
0.0007173708
0.00518986
0.00057972444
0.004738168
0.00045169205
0.00439519
0.00034297801
0.0041390268
0.00025616318
0.003949107
0.00018991983
0.003807888
0.00014121897
0.0037013782
0.00010650979
0.003619058
8.232022e-05
0.0035534117
6.5646245e-05
0.0034992845
5.4127256e-05
0.0034532444
4.604005e-05
0.0034130501
4.0194294e-05
0.0033772574
3.5792757e-05
0.0033449386
3.2318758e-05
0.0033154893
2.9449278e-05
0.0032885008
2.6988572e-05
0.0032636805
2.4820296e-05
0.003240805
2.2875476e-05
0.0032196926
2.1112417e-05
0.0032001879
1.950466e-05
0.0031821539
1.8034025e-05
0.0031654671
1.6686737e-05
0.0031500158
1.5451372e-05
0.0031356979
1.4317865e-05
0.0031224208
1.3277068e-05
0.0031101003
1.2320583e-05
0.0030986595
1.144071e-05
0.0030880291
1.0630425e-05
0.0030781458
9.8833609e-06
0.003068952
9.1937737e-06
0.0030603955
8.5565049e-06
0.0030524286
7.9669319e-06
0.0030450076
7.4209171e-06
0.0030380929
6.9147559e-06
0.0030316478
6.4451272e-06
0.0030256387
6.0090474e-06
0.0030200349
5.60383e-06
0.0030148078
5.2270511e-06
0.0030099313
4.8765178e-06
0.0030053811
4.5502401e-06
0.0030011347
4.246406e-06
0.0029971713
3.9633606e-06
0.0029934717
3.6995905e-06
0.002990018
3.4537085e-06
0.0029867936
3.2244415e-06
0.0029837829
3.0106176e-06
0.0029809718
2.8111563e-06
0.0029783467
2.6250595e-06
0.0029758953
2.4514035e-06
0.002973606
2.2893326e-06
0.0029714679
2.1380547e-06
0.0029694711
1.9968368e-06
0.0029676061
1.8649994e-06
0.0029658642
1.7419103e-06
0.0029642372
1.6269805e-06
0.0029627175
1.5196613e-06
0.0029612981
1.419443e-06
0.0029599723
1.3258514e-06
0.0029587338
1.2384447e-06
0.002957577
1.1568119e-06
0.0029564964
1.0805686e-06
0.0029554871
1.0093575e-06
0.0029545442
9.4284336e-07
0.0029536635
8.8071591e-07
0.0029528408
8.2268394e-07
0.0029520723
7.6848036e-07
0.0029513545
7.1785046e-07
0.0029506839
6.7056282e-07
0.0029500575
6.2638875e-07
0.0029494724
5.8512826e-07
0.0029489258
5.4657588e-07
0.0029484153
5.1056814e-07
0.0029479383
4.7692001e-07
0.0029474928
4.4550641e-07
0.0029470767
4.1615181e-07
0.0029466879
3.8876458e-07
0.0029463248
3.6314129e-07
0.0029459855
3.3922789e-07
0.0029456687
3.1681975e-07
0.0029453728
2.9599847e-07
0.0029450963
2.7648897e-07
0.0029448379
2.583853e-07
0.0029445966
2.4122551e-07
0.0029443712
2.2537972e-07
0.0029441609
2.1035115e-07
0.0029439641
1.9678885e-07
0.0029437805
1.8369832e-07
0.0029436085
1.7197004e-07
0.0029434481
1.6031783e-07
0.0029432978
1.502686e-07
0.0029431575
1.403769e-07
0.0029430254
1.3210156e-07
0.0029429003
1.2511221e-07
0.0029427808
1.1947619e-07
1.258115e-07
0.010339525
0.00035427932
0.010570754
0.00079057335
0.010606301
0.00091894821
0.010547572
0.00090167137
0.010422317
0.00084262623
0.010244356
0.00075768559
0.010039421
0.00065662744
0.0098287427
0.00055365586
0.009625135
0.00045977083
0.0094353013
0.00037975354
0.0092624277
0.00031409258
0.0091075332
0.00026140426
0.008970154
0.00021969949
0.0088489023
0.00018689787
0.0087419716
0.00016105803
0.0086474927
0.00014051895
0.008563694
0.00012399297
0.0084890107
0.000110476
0.0084221096
9.9219869e-05
0.0083618775
8.9681398e-05
0.0083073954
8.147066e-05
0.0082579079
7.4307837e-05
0.0082127929
6.799049e-05
0.0081715353
6.2369989e-05
0.0081337049
5.7335021e-05
0.0080989388
5.2800197e-05
0.0080669272
4.869828e-05
0.0080374036
4.4974965e-05
0.0080101361
4.1585393e-05
0.0079849213
3.8491841e-05
0.0079615798
3.5662145e-05
0.0079399519
3.3068599e-05
0.0079198951
3.0687162e-05
0.0079012817
2.8496845e-05
0.0078839962
2.6479245e-05
0.0078679345
2.4618156e-05
0.0078530022
2.2899261e-05
0.0078391133
2.1309864e-05
0.0078261893
1.9838674e-05
0.0078141589
1.8475614e-05
0.0078029562
1.7211659e-05
0.0077925214
1.6038706e-05
0.007782799
1.4949455e-05
0.0077737382
1.3937315e-05
0.0077652921
1.2996311e-05
0.0077574175
1.2121014e-05
0.0077500744
1.1306476e-05
0.0077432258
1.0548182e-05
0.0077368375
9.8420009e-06
0.0077308778
9.1841464e-06
0.0077253173
8.5711409e-06
0.0077201286
7.9997838e-06
0.0077152866
7.4671253e-06
0.0077107675
6.9704432e-06
0.0077065496
6.507223e-06
0.0077026126
6.0751405e-06
0.0076989373
5.672047e-06
0.0076955064
5.2959525e-06
0.0076923033
4.9450101e-06
0.0076893128
4.617502e-06
0.0076865206
4.3118331e-06
0.0076839135
4.0265219e-06
0.0076814792
3.7601938e-06
0.007679206
3.5115685e-06
0.0076770834
3.2794561e-06
0.0076751012
3.0627464e-06
0.0076732502
2.8604093e-06
0.0076715215
2.6714805e-06
0.0076699072
2.4950687e-06
0.0076683995
2.3303363e-06
0.0076669915
2.1765136e-06
0.0076656765
2.0328663e-06
0.0076644483
1.8987263e-06
0.0076633013
1.773443e-06
0.00766223
1.6564452e-06
0.0076612294
1.5471562e-06
0.0076602948
1.445104e-06
0.007659422
1.3497681e-06
0.0076586067
1.2607677e-06
0.0076578453
1.1775932e-06
0.0076571341
1.0999859e-06
0.0076564697
1.0274276e-06
0.0076558492
9.5975883e-07
0.0076552697
8.9634914e-07
0.0076547284
8.3734866e-07
0.0076542228
7.8203935e-07
0.0076537504
7.3077815e-07
0.0076533093
6.8225798e-07
0.0076528972
6.3751591e-07
0.0076525126
5.9495141e-07
0.0076521528
5.5663071e-07
0.0076518173
5.1927062e-07
0.0076515029
4.8631933e-07
0.0076512105
4.5266653e-07
0.0076509355
4.2521024e-07
0.0076506808
3.9511549e-07
0.0076504387
3.7429487e-07
0.0076502165
3.472488e-07
0.0076499999
3.3616014e-07
3.1082595e-07
0.010188704
0.00016557515
0.010530487
0.000448791
0.010851453
0.00059798178
0.011124174
0.00062895025
0.011350581
0.00061621886
0.011524486
0.00058378055
0.01164633
0.0005347842
0.011724155
0.00047583049
0.011767999
0.00041592666
0.011786639
0.000361114
0.011787114
0.00031361712
0.011775058
0.00027346026
0.011754861
0.00023989719
0.011729768
0.00021199031
0.011702054
0.00018877261
0.011673239
0.00016933388
0.011644339
0.00015289296
0.011616003
0.00013881183
0.011588629
0.00012659379
0.011562446
0.00011586445
0.011537572
0.00010634494
0.011514052
9.7826996e-05
0.011491889
9.0153359e-05
0.011471056
8.3203365e-05
0.011451509
7.6882616e-05
0.011433193
7.1115565e-05
0.011416051
6.5840297e-05
0.011400021
6.1004911e-05
0.011385042
5.6565071e-05
0.011371051
5.2482338e-05
0.01135799
4.8723028e-05
0.011345801
4.5257389e-05
0.01133443
4.2058995e-05
0.011323822
3.9104272e-05
0.011313929
3.6372122e-05
0.011304704
3.3843608e-05
0.011296101
3.1501694e-05
0.01128808
2.9331019e-05
0.011280601
2.7317703e-05
0.011273628
2.544918e-05
0.011267125
2.3714049e-05
0.011261062
2.210195e-05
0.011255408
2.060345e-05
0.011250135
1.9209946e-05
0.011245218
1.791357e-05
0.011240632
1.6707121e-05
0.011236354
1.5583994e-05
0.011232364
1.4538124e-05
0.011228643
1.3563938e-05
0.01122517
1.26563e-05
0.011221931
1.1810477e-05
0.011218909
1.1022097e-05
0.011216089
1.0287119e-05
0.011213457
9.6018109e-06
0.011211002
8.9627169e-06
0.01120871
8.3666399e-06
0.011206572
7.810618e-06
0.011204576
7.2919018e-06
0.011202713
6.8079374e-06
0.011200974
6.3563504e-06
0.011199351
5.9349367e-06
0.011197836
5.5416475e-06
0.011196421
5.1745799e-06
0.011195101
4.8319606e-06
0.011193868
4.5121425e-06
0.011192718
4.213589e-06
0.011191643
3.9348746e-06
0.01119064
3.6746668e-06
0.011189703
3.431735e-06
0.011188829
3.2049196e-06
0.011188012
2.9931545e-06
0.011187249
2.7954193e-06
0.011186537
2.6107875e-06
0.011185872
2.4383576e-06
0.011185252
2.2773492e-06
0.011184672
2.1269663e-06
0.01118413
1.9865688e-06
0.011183625
1.8554243e-06
0.011183152
1.7330144e-06
0.011182711
1.6186067e-06
0.0111823
1.5118568e-06
0.011181915
1.4120287e-06
0.011181556
1.3190117e-06
0.01118122
1.2318672e-06
0.011180907
1.1508271e-06
0.011180614
1.0746323e-06
0.011180341
1.0041024e-06
0.011180086
9.3726313e-07
0.011179847
8.7614441e-07
0.011179625
8.1752258e-07
0.011179416
7.651687e-07
0.011179222
7.1296928e-07
0.01117904
6.6839154e-07
0.011178872
6.2097212e-07
0.011178712
5.850689e-07
0.011178566
5.411042e-07
0.011178425
5.1526321e-07
0.0111783
4.7228035e-07
0.011178177
4.5913106e-07
4.1618707e-07
0.010097182
6.8393554e-05
0.010346961
0.00019901112
0.010662469
0.00028247387
0.010982753
0.00030866649
0.011290229
0.00030874342
0.011575251
0.00029875788
0.011829022
0.00028101346
0.012047865
0.00025698756
0.012233272
0.00023051982
0.01238924
0.0002051459
0.012520295
0.00018256236
0.012630755
0.00016299957
0.012724428
0.00014622491
0.012804515
0.00013190312
0.012873613
0.00011967426
0.012933772
0.00010917461
0.012986596
0.00010006907
0.013033332
9.2076371e-05
0.01307495
8.4975259e-05
0.013112216
7.8598617e-05
0.013145739
7.2822304e-05
0.013176012
6.7553936e-05
0.013203441
6.2723921e-05
0.013228366
5.8278893e-05
0.013251071
5.4176984e-05
0.013271802
5.0384428e-05
0.01329077
4.6873161e-05
0.013308155
4.361918e-05
0.013324119
4.0601465e-05
0.0133388
3.7801289e-05
0.013352321
3.5201763e-05
0.013364791
3.2787539e-05
0.013376306
3.0544597e-05
0.01338695
2.846009e-05
0.0133968
2.6522218e-05
0.013405923
2.472013e-05
0.013414381
2.3043838e-05
0.013422228
2.1484141e-05
0.013429513
2.003256e-05
0.013436281
1.8681272e-05
0.013442572
1.7423065e-05
0.013448423
1.6251279e-05
0.013453866
1.5159764e-05
0.013458933
1.4142834e-05
0.013463652
1.3195227e-05
0.013468047
1.2312075e-05
0.013472142
1.148887e-05
0.013475959
1.0721437e-05
0.013479517
1.0005905e-05
0.013482834
9.3386839e-06
0.013485928
8.7164373e-06
0.013488814
8.1360689e-06
0.013491507
7.5947045e-06
0.013494019
7.0896757e-06
0.013496363
6.6185058e-06
0.013498551
6.1788932e-06
0.013500593
5.7686959e-06
0.013502499
5.3859179e-06
0.013504278
5.0287008e-06
0.013505939
4.6953156e-06
0.01350749
4.3841547e-06
0.013508938
4.0937203e-06
0.01351029
3.8226184e-06
0.013511552
3.5695482e-06
0.013512731
3.3333003e-06
0.013513832
3.1127461e-06
0.01351486
2.9068391e-06
0.01351582
2.7145999e-06
0.013516716
2.5351233e-06
0.013517554
2.3675535e-06
0.013518336
2.2111009e-06
0.013519066
2.0650063e-06
0.013519748
1.9285867e-06
0.013520386
1.8011774e-06
0.013520981
1.682211e-06
0.013521537
1.5711024e-06
0.013522056
1.4673844e-06
0.013522541
1.3705052e-06
0.013522994
1.2800856e-06
0.013523417
1.1955469e-06
0.013523812
1.1166614e-06
0.013524181
1.042888e-06
0.013524526
9.7424076e-07
0.013524848
9.0990539e-07
0.013525149
8.500487e-07
0.01352543
7.9357823e-07
0.013525692
7.4146306e-07
0.013525937
6.9209627e-07
0.013526166
6.4729266e-07
0.01352638
6.0385097e-07
0.01352658
5.6528298e-07
0.013526767
5.2616261e-07
0.013526941
4.9369959e-07
0.013527104
4.5816204e-07
0.013527257
4.3255904e-07
0.013527399
3.9898141e-07
0.013527533
3.8084481e-07
0.013527658
3.4710889e-07
0.013527779
3.3808213e-07
3.0573119e-07
0.010068394
-2.9673579e-12
0.010267405
-3.2518897e-12
0.010549879
-2.8560934e-12
0.010858545
-2.3927098e-12
0.011167288
-1.0280578e-12
0.011466046
1.4351532e-12
0.01174706
3.7542404e-12
0.012004047
4.5471514e-12
0.012234567
4.1517202e-12
0.012439713
1.5362514e-12
0.012622275
-1.8424226e-12
0.012785275
-4.9508965e-12
0.0129315
-5.7841922e-12
0.013063403
-3.7055948e-12
0.013183077
7.6514326e-13
0.013292252
5.7886759e-12
0.013392321
7.8095902e-12
0.013484397
7.0859039e-12
0.013569373
3.5064313e-12
0.013647971
-9.5661556e-13
0.013720794
-4.2704672e-12
0.013788347
-5.1886139e-12
0.013851071
-4.5979768e-12
0.01390935
-4.2354765e-12
0.013963527
-3.1619495e-12
0.014013912
-1.2683888e-12
0.014060785
2.109047e-12
0.014104404
5.3694628e-12
0.014145005
7.126249e-12
0.014182807
6.7937941e-12
0.014218009
3.7632488e-12
0.014250796
-1.0361604e-12
0.014281341
-5.0470272e-12
0.014309801
-7.4511655e-12
0.014336323
-7.0796708e-12
0.014361043
-3.3721299e-12
0.014384087
1.4350768e-12
0.014405571
4.6576282e-12
0.014425604
6.0831113e-12
0.014444285
5.101045e-12
0.014461708
2.857013e-12
0.014477959
9.9284922e-13
0.014493119
-8.3786691e-13
0.014507262
-3.4460339e-12
0.014520457
-5.5526663e-12
0.014532769
-6.1945705e-12
0.014544258
-4.9990469e-12
0.014554979
-9.4000726e-13
0.014564985
4.359496e-12
0.014574324
8.4510001e-12
0.01458304
9.1785265e-12
0.014591177
5.1648727e-12
0.014598771
-1.2834582e-12
0.014605861
-6.2635222e-12
0.014612479
-9.1367833e-12
0.014618658
-8.3036865e-12
0.014624427
-4.4841642e-12
0.014629813
-9.5008995e-14
0.014634842
3.7332783e-12
0.014639537
6.331671e-12
0.014643921
7.6642434e-12
0.014648015
7.28455e-12
0.014651837
4.1504688e-12
0.014655407
-1.4717626e-12
0.01465874
-7.2550023e-12
0.014661853
-1.1301012e-11
0.01466476
-1.174636e-11
0.014667475
-6.1733547e-12
0.01467001
3.4885222e-12
0.014672377
1.2664668e-11
0.014674588
1.7529553e-11
0.014676653
1.3398831e-11
0.014678582
7.963369e-13
0.014680383
-9.9225634e-12
0.014682065
-1.4991368e-11
0.014683636
-1.2878247e-11
0.014685104
-1.9414875e-12
0.014686474
7.4080257e-12
0.014687754
6.3531385e-12
0.01468895
-1.2034232e-11
0.014690067
-1.3909112e-11
0.014691109
3.0379321e-11
0.014692084
7.1462855e-11
0.014692993
3.2229301e-11
0.014693843
-6.9871234e-11
0.014694637
-1.1460057e-10
0.014695379
-4.6538238e-11
0.014696071
7.0122642e-11
0.014696718
1.1607733e-10
0.014697322
7.1013279e-11
0.014697887
-4.0727969e-11
0.014698413
-9.4233832e-11
0.014698907
-7.3135189e-11
0.014699365
8.4585278e-12
0.014699798
5.9336001e-11
0.014700197
5.0190338e-11
0.014700578
2.1982011e-12
0.014700925
-2.2115996e-11
0.014701263
-8.9414664e-12
-5.8633776e-12
0.010068394
-6.8393559e-05
0.010267405
-0.00019901113
0.010549879
-0.00028247388
0.010858545
-0.00030866649
0.011167288
-0.00030874342
0.011466046
-0.00029875788
0.01174706
-0.00028101345
0.012004047
-0.00025698755
0.012234567
-0.00023051982
0.012439713
-0.0002051459
0.012622275
-0.00018256236
0.012785275
-0.00016299958
0.0129315
-0.00014622491
0.013063403
-0.00013190312
0.013183077
-0.00011967426
0.013292252
-0.0001091746
0.013392321
-0.00010006906
0.013484397
-9.2076361e-05
0.013569373
-8.4975254e-05
0.013647971
-7.8598618e-05
0.013720794
-7.2822309e-05
0.013788347
-6.7553944e-05
0.013851071
-6.272393e-05
0.01390935
-5.8278901e-05
0.013963527
-5.4176989e-05
0.014013912
-5.0384429e-05
0.014060785
-4.6873157e-05
0.014104404
-4.3619171e-05
0.014145005
-4.0601455e-05
0.014182807
-3.780128e-05
0.014218009
-3.5201759e-05
0.014250796
-3.2787541e-05
0.014281341
-3.0544604e-05
0.014309801
-2.84601e-05
0.014336323
-2.6522227e-05
0.014361043
-2.4720134e-05
0.014384087
-2.3043837e-05
0.014405571
-2.1484136e-05
0.014425604
-2.0032552e-05
0.014444285
-1.8681264e-05
0.014461708
-1.7423058e-05
0.014477959
-1.6251276e-05
0.014493119
-1.5159766e-05
0.014507262
-1.414284e-05
0.014520457
-1.3195237e-05
0.014532769
-1.2312084e-05
0.014544258
-1.1488876e-05
0.014554979
-1.0721437e-05
0.014564985
-1.0005898e-05
0.014574324
-9.3386725e-06
0.01458304
-8.7164263e-06
0.014591177
-8.1360629e-06
0.014598771
-7.5947055e-06
0.014605861
-7.0896832e-06
0.014612479
-6.6185173e-06
0.014618658
-6.1789047e-06
0.014624427
-5.7687035e-06
0.014629813
-5.3859193e-06
0.014634842
-5.0286961e-06
0.014639537
-4.6953062e-06
0.014643921
-4.3841429e-06
0.014648015
-4.0937097e-06
0.014651837
-3.8226129e-06
0.014655407
-3.5695509e-06
0.01465874
-3.3333116e-06
0.014661853
-3.112762e-06
0.01466476
-2.9068533e-06
0.014667474
-2.7146062e-06
0.01467001
-2.5351178e-06
0.014672377
-2.3675369e-06
0.014674588
-2.2110801e-06
0.014676653
-2.0649915e-06
0.014678582
-1.9285843e-06
0.014680383
-1.8011868e-06
0.014682065
-1.6822269e-06
0.014683636
-1.5711162e-06
0.014685104
-1.4673899e-06
0.014686474
-1.3705047e-06
0.014687754
-1.2800889e-06
0.01468895
-1.1955549e-06
0.014690067
-1.1166463e-06
0.014691109
-1.0428331e-06
0.014692084
-9.741845e-07
0.014692994
-9.0991837e-07
0.014693844
-8.5013753e-07
0.014694637
-7.9365801e-07
0.014695379
-7.414582e-07
0.014696071
-6.9201891e-07
0.014696718
-6.472169e-07
0.014697322
-6.0382569e-07
0.014697887
-5.6531435e-07
0.014698413
-5.2621914e-07
0.014698907
-4.9374322e-07
0.014699365
-4.581648e-07
0.014699798
-4.3253202e-07
0.014700197
-3.9895294e-07
0.014700578
-3.8083343e-07
0.014700925
-3.471047e-07
0.014701263
-3.380757e-07
-3.0573839e-07
0.010097182
-0.00016557516
0.010346961
-0.000448791
0.010662469
-0.00059798178
0.010982753
-0.00062895025
0.011290229
-0.00061621886
0.011575251
-0.00058378055
0.011829022
-0.0005347842
0.012047865
-0.00047583049
0.012233272
-0.00041592666
0.01238924
-0.000361114
0.012520295
-0.00031361712
0.012630755
-0.00027346026
0.012724428
-0.00023989719
0.012804515
-0.00021199031
0.012873613
-0.0001887726
0.012933772
-0.00016933388
0.012986596
-0.00015289296
0.013033332
-0.00013881183
0.01307495
-0.00012659379
0.013112216
-0.00011586444
0.013145739
-0.00010634494
0.013176012
-9.7827e-05
0.013203441
-9.0153366e-05
0.013228366
-8.3203372e-05
0.013251071
-7.6882618e-05
0.013271802
-7.1115563e-05
0.01329077
-6.5840292e-05
0.013308155
-6.1004906e-05
0.013324119
-5.6565068e-05
0.0133388
-5.2482337e-05
0.013352321
-4.8723027e-05
0.013364791
-4.5257388e-05
0.013376306
-4.2058995e-05
0.01338695
-3.9104274e-05
0.0133968
-3.6372124e-05
0.013405923
-3.3843611e-05
0.013414381
-3.1501697e-05
0.013422228
-2.933102e-05
0.013429513
-2.7317701e-05
0.013436281
-2.5449174e-05
0.013442572
-2.3714042e-05
0.013448423
-2.2101946e-05
0.013453866
-2.0603452e-05
0.013458933
-1.9209951e-05
0.013463652
-1.7913576e-05
0.013468047
-1.6707124e-05
0.013472142
-1.5583993e-05
0.013475959
-1.4538122e-05
0.013479517
-1.3563936e-05
0.013482834
-1.26563e-05
0.013485928
-1.1810478e-05
0.013488814
-1.1022096e-05
0.013491507
-1.0287117e-05
0.013494019
-9.6018079e-06
0.013496363
-8.9627168e-06
0.013498551
-8.3666445e-06
0.013500593
-7.8106249e-06
0.013502499
-7.2919067e-06
0.013504278
-6.8079376e-06
0.013505939
-6.3563462e-06
0.01350749
-5.9349306e-06
0.013508938
-5.5416427e-06
0.01351029
-5.1745786e-06
0.013511552
-4.8319632e-06
0.013512731
-4.5121466e-06
0.013513832
-4.2135912e-06
0.01351486
-3.9348739e-06
0.01351582
-3.6746648e-06
0.013516716
-3.4317342e-06
0.013517554
-3.2049218e-06
0.013518336
-2.9931585e-06
0.013519066
-2.7954203e-06
0.013519748
-2.6107816e-06
0.013520386
-2.4383459e-06
0.013520981
-2.2773384e-06
0.013521537
-2.1269664e-06
0.013522056
-1.9865841e-06
0.013522541
-1.8554497e-06
0.013522994
-1.73303e-06
0.013523417
-1.6185844e-06
0.013523812
-1.5117992e-06
0.013524181
-1.4119965e-06
0.013524526
-1.3190721e-06
0.013524848
-1.2319777e-06
0.013525149
-1.1508354e-06
0.013525429
-1.0744707e-06
0.013525692
-1.003937e-06
0.013525937
-9.3732227e-07
0.013526166
-8.7639765e-07
0.01352638
-8.1768078e-07
0.01352658
-7.6504832e-07
0.013526767
-7.1271636e-07
0.013526941
-6.6828373e-07
0.013527104
-6.2108309e-07
0.013527257
-5.852351e-07
0.013527399
-5.4116247e-07
0.013527533
-5.1521537e-07
0.013527658
-4.7221277e-07
0.013527779
-4.5908893e-07
-4.161788e-07
0.010188704
-0.00035427932
0.010530487
-0.00079057335
0.010851453
-0.00091894821
0.011124174
-0.00090167137
0.011350581
-0.00084262623
0.011524486
-0.00075768559
0.01164633
-0.00065662744
0.011724155
-0.00055365586
0.011767999
-0.00045977083
0.011786639
-0.00037975354
0.011787114
-0.00031409258
0.011775058
-0.00026140425
0.011754861
-0.00021969948
0.011729768
-0.00018689786
0.011702054
-0.00016105802
0.011673239
-0.00014051895
0.011644339
-0.00012399297
0.011616003
-0.000110476
0.011588629
-9.9219867e-05
0.011562446
-8.9681396e-05
0.011537572
-8.1470659e-05
0.011514052
-7.430784e-05
0.011491889
-6.7990494e-05
0.011471056
-6.2369992e-05
0.011451509
-5.7335022e-05
0.011433193
-5.2800194e-05
0.011416051
-4.8698277e-05
0.011400021
-4.4974963e-05
0.011385042
-4.1585394e-05
0.011371051
-3.8491843e-05
0.01135799
-3.5662145e-05
0.011345801
-3.3068598e-05
0.01133443
-3.068716e-05
0.011323822
-2.8496843e-05
0.011313929
-2.6479245e-05
0.011304704
-2.4618158e-05
0.011296101
-2.2899264e-05
0.01128808
-2.1309867e-05
0.011280601
-1.9838674e-05
0.011273628
-1.847561e-05
0.011267125
-1.7211654e-05
0.011261062
-1.6038703e-05
0.011255408
-1.4949456e-05
0.011250135
-1.3937318e-05
0.011245218
-1.2996313e-05
0.011240632
-1.2121013e-05
0.011236354
-1.1306474e-05
0.011232364
-1.054818e-05
0.011228643
-9.8420018e-06
0.01122517
-9.18415e-06
0.011221931
-8.5711448e-06
0.011218909
-7.9997849e-06
0.011216089
-7.4671226e-06
0.011213457
-6.9704386e-06
0.011211002
-6.5072199e-06
0.01120871
-6.0751411e-06
0.011206572
-5.6720507e-06
0.011204576
-5.2959563e-06
0.011202713
-4.9450115e-06
0.011200974
-4.617501e-06
0.011199351
-4.3118315e-06
0.011197836
-4.0265216e-06
0.011196421
-3.7601949e-06
0.011195101
-3.5115697e-06
0.011193868
-3.2794552e-06
0.011192718
-3.0627425e-06
0.011191643
-2.8604037e-06
0.01119064
-2.6714772e-06
0.011189703
-2.4950715e-06
0.011188829
-2.3303452e-06
0.011188012
-2.1765236e-06
0.011187249
-2.0328697e-06
0.011186537
-1.8987186e-06
0.011185872
-1.773428e-06
0.011185252
-1.6564333e-06
0.011184672
-1.5471571e-06
0.01118413
-1.4451203e-06
0.011183625
-1.3497865e-06
0.011183152
-1.2607655e-06
0.011182711
-1.1775629e-06
0.0111823
-1.0999597e-06
0.011181915
-1.0274532e-06
0.011181556
-9.5983222e-07
0.01118122
-8.9638755e-07
0.011180907
-8.3727527e-07
0.011180614
-7.8189557e-07
0.011180341
-7.3071225e-07
0.011180086
-6.8236722e-07
0.011179847
-6.3771761e-07
0.011179624
-5.9504202e-07
0.011179416
-5.5651232e-07
0.011179222
-5.1906659e-07
0.01117904
-4.8622732e-07
0.011178872
-4.5274695e-07
0.011178712
-4.2535256e-07
0.011178566
-3.9518568e-07
0.011178425
-3.7427103e-07
0.0111783
-3.4719e-07
0.011178177
-3.3611375e-07
-3.1080984e-07
0.010339525
-0.00069380425
0.010570754
-0.0010218027
0.010606301
-0.00095449449
0.010547572
-0.00084294334
0.010422317
-0.0007173708
0.010244356
-0.00057972444
0.010039421
-0.00045169205
0.0098287427
-0.00034297801
0.009625135
-0.00025616318
0.0094353013
-0.00018991983
0.0092624277
-0.00014121897
0.0091075332
-0.00010650979
0.008970154
-8.2320219e-05
0.0088489023
-6.5646244e-05
0.0087419716
-5.4127255e-05
0.0086474927
-4.604005e-05
0.008563694
-4.0194294e-05
0.0084890107
-3.5792757e-05
0.0084221096
-3.2318758e-05
0.0083618775
-2.9449278e-05
0.0083073954
-2.6988573e-05
0.0082579079
-2.4820297e-05
0.0082127929
-2.2875477e-05
0.0081715353
-2.1112417e-05
0.0081337049
-1.9504659e-05
0.0080989388
-1.8034024e-05
0.0080669272
-1.6686736e-05
0.0080374036
-1.5451372e-05
0.0080101361
-1.4317866e-05
0.0079849213
-1.3277069e-05
0.0079615798
-1.2320583e-05
0.0079399519
-1.144071e-05
0.0079198951
-1.0630424e-05
0.0079012817
-9.8833593e-06
0.0078839962
-9.1937726e-06
0.0078679345
-8.5565047e-06
0.0078530022
-7.9669326e-06
0.0078391133
-7.4209179e-06
0.0078261893
-6.9147561e-06
0.0078141589
-6.4451267e-06
0.0078029562
-6.0090467e-06
0.0077925214
-5.6038297e-06
0.007782799
-5.2270514e-06
0.0077737382
-4.876518e-06
0.0077652921
-4.5502396e-06
0.0077574175
-4.2464045e-06
0.0077500744
-3.9633589e-06
0.0077432258
-3.6995896e-06
0.0077368375
-3.4537094e-06
0.0077308778
-3.2244438e-06
0.0077253173
-3.0106201e-06
0.0077201286
-2.8111577e-06
0.0077152866
-2.6250591e-06
0.0077107675
-2.4514017e-06
0.0077065496
-2.2893305e-06
0.0077026126
-2.1380535e-06
0.0076989373
-1.9968369e-06
0.0076955064
-1.8650002e-06
0.0076923033
-1.7419113e-06
0.0076893128
-1.6269813e-06
0.0076865206
-1.5196625e-06
0.0076839135
-1.4194445e-06
0.0076814792
-1.3258527e-06
0.007679206
-1.2384448e-06
0.0076770834
-1.1568101e-06
0.0076751012
-1.0805651e-06
0.0076732502
-1.0093538e-06
0.0076715215
-9.4284164e-07
0.0076699072
-8.8071804e-07
0.0076683995
-8.2268916e-07
0.0076669915
-7.6848581e-07
0.0076656765
-7.1785235e-07
0.0076644483
-6.705596e-07
0.0076633013
-6.2638297e-07
0.00766223
-5.8512427e-07
0.0076612294
-5.465771e-07
0.0076602948
-5.1057251e-07
0.007659422
-4.7692158e-07
0.0076586067
-4.4549936e-07
0.0076578453
-4.1614262e-07
0.0076571341
-3.8877084e-07
0.0076564698
-3.6316892e-07
0.0076558492
-3.3925016e-07
0.0076552696
-3.1680346e-07
0.0076547284
-2.959476e-07
0.0076542229
-2.7645372e-07
0.0076537506
-2.5840067e-07
0.0076533094
-2.4127631e-07
0.0076528971
-2.2542098e-07
0.0076525125
-2.1035834e-07
0.0076521528
-1.96762e-07
0.0076518174
-1.8365415e-07
0.007651503
-1.7193469e-07
0.0076512106
-1.6031729e-07
0.0076509355
-1.5030444e-07
0.0076506808
-1.4041903e-07
0.0076504386
-1.3211594e-07
0.0076502165
-1.2509421e-07
0.0076499999
-1.1944799e-07
-1.2579783e-07
0.0093061957
0.0082843931
0.0073298986
0.0064869553
0.0057695845
0.00518986
0.004738168
0.00439519
0.0041390268
0.003949107
0.003807888
0.0037013782
0.003619058
0.0035534117
0.0034992845
0.0034532444
0.0034130501
0.0033772574
0.0033449386
0.0033154893
0.0032885008
0.0032636805
0.003240805
0.0032196926
0.0032001879
0.0031821539
0.0031654671
0.0031500158
0.0031356979
0.0031224208
0.0031101003
0.0030986595
0.0030880291
0.0030781458
0.003068952
0.0030603955
0.0030524286
0.0030450076
0.0030380929
0.0030316478
0.0030256387
0.0030200349
0.0030148078
0.0030099313
0.0030053811
0.0030011347
0.0029971713
0.0029934717
0.002990018
0.0029867936
0.0029837829
0.0029809718
0.0029783467
0.0029758953
0.002973606
0.0029714679
0.0029694711
0.0029676061
0.0029658642
0.0029642372
0.0029627175
0.0029612981
0.0029599722
0.0029587338
0.002957577
0.0029564964
0.0029554871
0.0029545442
0.0029536635
0.0029528408
0.0029520723
0.0029513545
0.0029506839
0.0029500575
0.0029494724
0.0029489258
0.0029484153
0.0029479383
0.0029474929
0.0029470767
0.0029466879
0.0029463247
0.0029459855
0.0029456687
0.0029453728
0.0029450963
0.0029448379
0.0029445966
0.0029443712
0.0029441609
0.0029439641
0.0029437805
0.0029436085
0.0029434482
0.0029432979
0.0029431575
0.0029430254
0.0029429003
0.0029427808
)
;

boundaryField
{
    top
    {
        type            calculated;
        value           uniform 0;
    }
    inlet
    {
        type            calculated;
        value           nonuniform List<scalar> 10(-0.01 -0.01 -0.01 -0.01 -0.01 -0.01 -0.01 -0.01 -0.01 -0.01);
    }
    outlet
    {
        type            calculated;
        value           nonuniform List<scalar> 10(0.002942655 0.0076498148 0.011178072 0.01352789 0.014701568 0.014701568 0.01352789 0.011178072 0.0076498149 0.002942655);
    }
    bottom
    {
        type            calculated;
        value           uniform 0;
    }
    back
    {
        type            empty;
        value           nonuniform List<scalar> 0();
    }
    front
    {
        type            empty;
        value           nonuniform List<scalar> 0();
    }
}


// ************************************************************************* //
