/*--------------------------------*- C++ -*----------------------------------*\
  =========                 |
  \\      /  F ield         | OpenFOAM: The Open Source CFD Toolbox
   \\    /   O peration     | Website:  https://openfoam.org
    \\  /    A nd           | Version:  9
     \\/     M anipulation  |
\*---------------------------------------------------------------------------*/
FoamFile
{
    format      ascii;
    class       volVectorField;
    location    "19";
    object      U;
}
// * * * * * * * * * * * * * * * * * * * * * * * * * * * * * * * * * * * * * //

dimensions      [0 1 -1 0 0 0 0];

internalField   nonuniform List<vector> 
1000
(
(0.91890839 0.035821913 0)
(0.86271384 0.062195638 0)
(0.7870597 0.06251009 0)
(0.69536033 0.054550395 0)
(0.61089745 0.044531651 0)
(0.54411592 0.034015971 0)
(0.49343012 0.024187539 0)
(0.45479413 0.016144229 0)
(0.42544582 0.010265785 0)
(0.40347313 0.0063041451 0)
(0.38715766 0.0037976294 0)
(0.3749622 0.0023103383 0)
(0.36566192 0.0014930151 0)
(0.35836272 0.0010851184 0)
(0.35244267 0.00090607247 0)
(0.34748201 0.00084105185 0)
(0.34320348 0.00082372421 0)
(0.33942726 0.00081931039 0)
(0.33603793 0.00081185188 0)
(0.33296114 0.00079580105 0)
(0.33014778 0.00077081128 0)
(0.32756384 0.00073870934 0)
(0.3251842 0.00070188926 0)
(0.32298902 0.00066256575 0)
(0.32096172 0.0006224998 0)
(0.31908785 0.00058295776 0)
(0.31735449 0.00054477187 0)
(0.31574995 0.00050843432 0)
(0.3142636 0.00047419156 0)
(0.31288574 0.00044212437 0)
(0.31160755 0.00041220912 0)
(0.31042101 0.00038436128 0)
(0.30931883 0.00035846469 0)
(0.30829438 0.00033439017 0)
(0.30734165 0.0003120067 0)
(0.30645515 0.00029118776 0)
(0.30562991 0.00027181451 0)
(0.30486136 0.00025377704 0)
(0.30414535 0.00023697456 0)
(0.30347807 0.00022131497 0)
(0.30285601 0.00020671418 0)
(0.30227596 0.00019309535 0)
(0.30173496 0.0001803882 0)
(0.30123029 0.00016852837 0)
(0.30075942 0.00015745671 0)
(0.30032002 0.00014711873 0)
(0.29990993 0.00013746413 0)
(0.29952715 0.00012844639 0)
(0.29916983 0.0001200225 0)
(0.29883624 0.00011215261 0)
(0.29852478 0.00010479972 0)
(0.29823397 9.7929462e-05 0)
(0.29796241 9.1509791e-05 0)
(0.29770882 8.5510861e-05 0)
(0.29747201 7.9904855e-05 0)
(0.29725084 7.4665876e-05 0)
(0.29704429 6.9769835e-05 0)
(0.29685138 6.5194302e-05 0)
(0.2966712 6.0918319e-05 0)
(0.29650291 5.6922263e-05 0)
(0.29634572 5.3187785e-05 0)
(0.2961989 4.9697762e-05 0)
(0.29606176 4.6436224e-05 0)
(0.29593366 4.3388241e-05 0)
(0.29581401 4.0539872e-05 0)
(0.29570224 3.7878028e-05 0)
(0.29559784 3.539053e-05 0)
(0.29550032 3.3065931e-05 0)
(0.29540922 3.0893659e-05 0)
(0.29532413 2.8863744e-05 0)
(0.29524464 2.6967042e-05 0)
(0.29517039 2.5194762e-05 0)
(0.29510103 2.3538932e-05 0)
(0.29503625 2.19916e-05 0)
(0.29497572 2.0545904e-05 0)
(0.29491919 1.9194692e-05 0)
(0.29486638 1.7932404e-05 0)
(0.29481705 1.6752487e-05 0)
(0.29477097 1.5650658e-05 0)
(0.29472793 1.4620603e-05 0)
(0.29468772 1.3659609e-05 0)
(0.29465016 1.2760626e-05 0)
(0.29461507 1.1921896e-05 0)
(0.2945823 1.1135123e-05 0)
(0.29455168 1.0403629e-05 0)
(0.29452309 9.7180204e-06 0)
(0.29449636 9.0829288e-06 0)
(0.29447141 8.4805477e-06 0)
(0.29444809 7.9238886e-06 0)
(0.29442633 7.3956329e-06 0)
(0.29440598 6.9200887e-06 0)
(0.29438699 6.4630204e-06 0)
(0.29436922 6.0515473e-06 0)
(0.29435261 5.6485438e-06 0)
(0.29433715 5.2954792e-06 0)
(0.29432249 4.9746692e-06 0)
(0.29430919 4.6891231e-06 0)
(0.29429569 4.5394277e-06 0)
(0.29428501 4.4079857e-06 0)
(0.29426873 5.0587182e-06 0)
(1.0016583 0.05381943 0)
(1.0359761 0.10128444 0)
(1.0597199 0.11073663 0)
(1.0628947 0.10592202 0)
(1.0515569 0.096228728 0)
(1.0340529 0.083934061 0)
(1.0142795 0.070327063 0)
(0.99360703 0.056981333 0)
(0.97292577 0.045107479 0)
(0.9531074 0.03523675 0)
(0.93479538 0.02740165 0)
(0.91829012 0.021387227 0)
(0.90362379 0.016884499 0)
(0.89068067 0.013569709 0)
(0.87928174 0.011147749 0)
(0.86923242 0.0093736593 0)
(0.86034423 0.0080569286 0)
(0.85244667 0.0070571278 0)
(0.84539241 0.0062752384 0)
(0.83905793 0.0056438283 0)
(0.83334126 0.0051180904 0)
(0.82815884 0.0046686714 0)
(0.82344212 0.0042764164 0)
(0.81913467 0.0039287382 0)
(0.81518961 0.0036172034 0)
(0.81156765 0.0033359708 0)
(0.80823544 0.0030808046 0)
(0.8051644 0.0028484694 0)
(0.80232979 0.0026363694 0)
(0.79970999 0.0024423382 0)
(0.79728597 0.0022645181 0)
(0.79504086 0.002101289 0)
(0.79295963 0.0019512246 0)
(0.7910288 0.0018130626 0)
(0.78923627 0.0016856835 0)
(0.7875711 0.0015680929 0)
(0.78602338 0.0014594065 0)
(0.78458412 0.0013588366 0)
(0.78324511 0.0012656811 0)
(0.78199889 0.001179312 0)
(0.7808386 0.0010991669 0)
(0.77975799 0.0010247404 0)
(0.77875128 0.00095557742 0)
(0.77781318 0.00089126686 0)
(0.77693881 0.00083143616 0)
(0.77612368 0.0007757467 0)
(0.77536362 0.00072388987 0)
(0.77465481 0.00067558382 0)
(0.77399368 0.00063057061 0)
(0.77337693 0.00058861364 0)
(0.77280153 0.00054949542 0)
(0.77226464 0.00051301561 0)
(0.77176363 0.0004789894 0)
(0.77129606 0.00044724599 0)
(0.77085967 0.00041762752 0)
(0.77045234 0.00038998792 0)
(0.77007212 0.00036419202 0)
(0.76971717 0.0003401144 0)
(0.76938581 0.00031763856 0)
(0.76907644 0.00029665609 0)
(0.7687876 0.00027706624 0)
(0.76851791 0.00025877534 0)
(0.76826609 0.00024169631 0)
(0.76803096 0.00022574802 0)
(0.76781139 0.000210855 0)
(0.76760636 0.0001969468 0)
(0.76741489 0.00018395792 0)
(0.76723608 0.00017182701 0)
(0.7670691 0.00016049741 0)
(0.76691315 0.00014991584 0)
(0.76676751 0.00014003323 0)
(0.7666315 0.00013080276 0)
(0.76650446 0.00012218179 0)
(0.76638582 0.00011412872 0)
(0.76627501 0.0001066071 0)
(0.76617152 9.9580148e-05 0)
(0.76607486 9.3017735e-05 0)
(0.76598458 8.6886487e-05 0)
(0.76590025 8.1162044e-05 0)
(0.76582151 7.5812028e-05 0)
(0.76574793 7.0818979e-05 0)
(0.76567924 6.6149707e-05 0)
(0.76561504 6.1794872e-05 0)
(0.76555512 5.771688e-05 0)
(0.76549911 5.3921486e-05 0)
(0.76544685 5.0361041e-05 0)
(0.76539796 4.7055674e-05 0)
(0.76535238 4.3934777e-05 0)
(0.7653097 4.1056203e-05 0)
(0.76526997 3.8325198e-05 0)
(0.76523272 3.5846025e-05 0)
(0.76519804 3.345072e-05 0)
(0.76516557 3.1311034e-05 0)
(0.76513518 2.9184447e-05 0)
(0.76510713 2.737286e-05 0)
(0.76507998 2.5521325e-05 0)
(0.76505664 2.4071173e-05 0)
(0.76503058 2.2561031e-05 0)
(0.76501446 2.1606273e-05 0)
(0.76498345 2.0998477e-05 0)
(1.0014244 0.026824854 0)
(1.0291272 0.062791352 0)
(1.0654292 0.077736553 0)
(1.098962 0.0805972 0)
(1.1253149 0.078285171 0)
(1.145053 0.073153899 0)
(1.1594858 0.066111278 0)
(1.1694287 0.058162063 0)
(1.1755354 0.050296754 0)
(1.1785738 0.043150708 0)
(1.1793571 0.036972825 0)
(1.1785949 0.031771632 0)
(1.1768304 0.027451839 0)
(1.1744518 0.023886768 0)
(1.1717287 0.02094762 0)
(1.1688444 0.018515781 0)
(1.1659195 0.016488085 0)
(1.1630317 0.014779503 0)
(1.1602295 0.013322985 0)
(1.1575415 0.012067132 0)
(1.1549828 0.010973 0)
(1.1525601 0.010011061 0)
(1.1502747 0.0091587461 0)
(1.1481246 0.0083986037 0)
(1.1461059 0.0077169504 0)
(1.1442134 0.0071028884 0)
(1.1424414 0.0065475922 0)
(1.1407838 0.0060437958 0)
(1.1392344 0.0055854264 0)
(1.1377869 0.0051673447 0)
(1.1364353 0.0047851569 0)
(1.1351738 0.004435076 0)
(1.1339968 0.0041138164 0)
(1.1328987 0.0038185125 0)
(1.1318746 0.0035466528 0)
(1.1309195 0.0032960272 0)
(1.1300289 0.0030646834 0)
(1.1291985 0.002850891 0)
(1.1284242 0.0026531107 0)
(1.1277022 0.0024699688 0)
(1.1270291 0.0023002354 0)
(1.1264014 0.0021428063 0)
(1.1258161 0.0019966872 0)
(1.1252702 0.0018609798 0)
(1.1247612 0.0017348708 0)
(1.1242865 0.0016176213 0)
(1.1238437 0.0015085587 0)
(1.1234307 0.0014070695 0)
(1.1230455 0.0013125927 0)
(1.1226861 0.0012246147 0)
(1.1223509 0.0011426637 0)
(1.1220381 0.0010663063 0)
(1.1217462 0.00099514314 0)
(1.1214739 0.00092880637 0)
(1.1212198 0.00086695645 0)
(1.1209827 0.00080927979 0)
(1.1207614 0.00075548652 0)
(1.1205548 0.00070530824 0)
(1.1203621 0.00065849601 0)
(1.1201821 0.00061481871 0)
(1.1200142 0.00057406198 0)
(1.1198574 0.00053602683 0)
(1.1197111 0.00050052853 0)
(1.1195745 0.00046739513 0)
(1.1194469 0.00043646701 0)
(1.1193278 0.00040759536 0)
(1.1192167 0.00038064222 0)
(1.1191129 0.00035547853 0)
(1.119016 0.00033198501 0)
(1.1189255 0.00031004952 0)
(1.118841 0.00028956886 0)
(1.1187621 0.00027044464 0)
(1.1186884 0.00025258735 0)
(1.1186197 0.00023591023 0)
(1.1185554 0.0002203374 0)
(1.1184954 0.00020579216 0)
(1.1184394 0.00019221163 0)
(1.1183871 0.00017952592 0)
(1.1183383 0.00016768403 0)
(1.1182926 0.00015661752 0)
(1.11825 0.0001462906 0)
(1.1182103 0.00013663446 0)
(1.1181731 0.00012763287 0)
(1.1181384 0.00011920339 0)
(1.1181059 0.00011135963 0)
(1.1180757 0.00010399348 0)
(1.1180473 9.7164339e-05 0)
(1.1180211 9.0709366e-05 0)
(1.1179963 8.4782173e-05 0)
(1.1179734 7.9124113e-05 0)
(1.1179516 7.4026333e-05 0)
(1.1179318 6.9013239e-05 0)
(1.1179128 6.4655497e-05 0)
(1.1178955 6.0140382e-05 0)
(1.117879 5.6564095e-05 0)
(1.1178635 5.2424949e-05 0)
(1.11785 4.9743951e-05 0)
(1.1178349 4.5812123e-05 0)
(1.1178262 4.4329105e-05 0)
(1.1178083 4.0584309e-05 0)
(1.0007347 0.011814721 0)
(1.0178472 0.030860927 0)
(1.0462163 0.041434441 0)
(1.0799018 0.04519357 0)
(1.1132664 0.045502351 0)
(1.143782 0.044080308 0)
(1.1708941 0.041439982 0)
(1.1945687 0.037973678 0)
(1.2148582 0.034195729 0)
(1.2319652 0.030536887 0)
(1.2462683 0.027222045 0)
(1.2582339 0.02431392 0)
(1.2683135 0.021797888 0)
(1.2768875 0.019633659 0)
(1.2842554 0.017773826 0)
(1.2906479 0.016169652 0)
(1.296243 0.01477559 0)
(1.3011791 0.013552298 0)
(1.3055645 0.012467864 0)
(1.3094838 0.011497466 0)
(1.3130042 0.010622161 0)
(1.3161792 0.0098275127 0)
(1.3190526 0.0091024105 0)
(1.3216607 0.0084381763 0)
(1.3240343 0.0078279036 0)
(1.3261995 0.0072659744 0)
(1.3281786 0.0067477089 0)
(1.3299913 0.006269117 0)
(1.3316544 0.0058267278 0)
(1.3331829 0.0054174737 0)
(1.3345896 0.0050386126 0)
(1.3358862 0.0046876739 0)
(1.3370827 0.0043624193 0)
(1.3381882 0.0040608142 0)
(1.3392108 0.0037810039 0)
(1.3401576 0.0035212947 0)
(1.3410349 0.0032801384 0)
(1.3418486 0.0030561176 0)
(1.3426038 0.0028479342 0)
(1.3433051 0.0026543978 0)
(1.3439569 0.0024744162 0)
(1.3445629 0.0023069861 0)
(1.3451267 0.0021511855 0)
(1.3456513 0.0020061664 0)
(1.3461398 0.0018711478 0)
(1.3465947 0.0017454098 0)
(1.3470185 0.001628288 0)
(1.3474135 0.0015191694 0)
(1.3477816 0.0014174877 0)
(1.3481249 0.0013227192 0)
(1.3484449 0.0012343792 0)
(1.3487435 0.0011520189 0)
(1.349022 0.0010752224 0)
(1.3492818 0.0010036045 0)
(1.3495242 0.00093680805 0)
(1.3497505 0.0008745015 0)
(1.3499616 0.00081637732 0)
(1.3501587 0.00076214985 0)
(1.3503427 0.00071155348 0)
(1.3505145 0.00066434092 0)
(1.3506748 0.00062028228 0)
(1.3508245 0.00057916386 0)
(1.3509643 0.00054078711 0)
(1.3510948 0.00050496687 0)
(1.3512167 0.00047153107 0)
(1.3513305 0.00044031917 0)
(1.3514368 0.00041118234 0)
(1.3515361 0.00038398128 0)
(1.3516288 0.00035858707 0)
(1.3517153 0.00033487816 0)
(1.3517962 0.0003127429 0)
(1.3518717 0.00029207452 0)
(1.3519422 0.00027277642 0)
(1.3520081 0.00025475452 0)
(1.3520696 0.0002379275 0)
(1.3521271 0.00022221164 0)
(1.3521807 0.00020753977 0)
(1.3522309 0.00019383486 0)
(1.3522777 0.00018104341 0)
(1.3523215 0.00016908729 0)
(1.3523623 0.00015793321 0)
(1.3524005 0.00014750375 0)
(1.352436 0.00013778854 0)
(1.3524695 0.00012867849 0)
(1.3525004 0.00012020614 0)
(1.3525296 0.00011224116 0)
(1.3525565 0.00010488812 0)
(1.3525822 9.7907293e-05 0)
(1.3526054 9.152567e-05 0)
(1.3526282 8.5374623e-05 0)
(1.3526479 7.9920002e-05 0)
(1.3526684 7.4449303e-05 0)
(1.352685 6.982628e-05 0)
(1.3527037 6.482375e-05 0)
(1.352717 6.1103652e-05 0)
(1.3527349 5.6435874e-05 0)
(1.3527446 5.3747416e-05 0)
(1.3527628 4.9148072e-05 0)
(1.3527683 4.7710527e-05 0)
(1.3527888 4.2966875e-05 0)
(1.0005903 0.0034629156 0)
(1.0136865 0.0093660195 0)
(1.0370283 0.013046806 0)
(1.0674202 0.014563261 0)
(1.1000315 0.014854524 0)
(1.1316428 0.014564991 0)
(1.1610745 0.013888338 0)
(1.1880674 0.012919245 0)
(1.2125205 0.011806506 0)
(1.2343939 0.010696427 0)
(1.2538077 0.0096727422 0)
(1.2710339 0.008762822 0)
(1.286401 0.0079659735 0)
(1.3002112 0.0072722144 0)
(1.3127102 0.0066688085 0)
(1.3240903 0.0061419255 0)
(1.3345036 0.0056780727 0)
(1.3440716 0.0052653215 0)
(1.3528927 0.0048939355 0)
(1.3610463 0.0045563959 0)
(1.3685975 0.0042470696 0)
(1.3756004 0.0039617755 0)
(1.3821012 0.0036973972 0)
(1.3881402 0.0034515822 0)
(1.3937533 0.0032225184 0)
(1.3989728 0.0030087698 0)
(1.403828 0.0028091581 0)
(1.4083456 0.0026226793 0)
(1.4125503 0.0024484499 0)
(1.4164646 0.002285671 0)
(1.4201094 0.0021336077 0)
(1.423504 0.0019915762 0)
(1.426666 0.001858936 0)
(1.4296121 0.0017350855 0)
(1.4323573 0.0016194583 0)
(1.4349159 0.0015115213 0)
(1.4373007 0.0014107731 0)
(1.4395241 0.0013167423 0)
(1.441597 0.0012289866 0)
(1.4435301 0.001147091 0)
(1.4453328 0.0010706668 0)
(1.4470143 0.00099934998 0)
(1.4485827 0.0009328003 0)
(1.4500459 0.00087069955 0)
(1.451411 0.00081275043 0)
(1.4526846 0.00075867503 0)
(1.4538731 0.00070821377 0)
(1.4549822 0.00066112436 0)
(1.4560172 0.00061718071 0)
(1.4569831 0.00057617175 0)
(1.4578847 0.0005379004 0)
(1.4587262 0.0005021828 0)
(1.4595117 0.00046884762 0)
(1.460245 0.00043773506 0)
(1.4609295 0.00040869618 0)
(1.4615685 0.0003815921 0)
(1.4621651 0.00035629336 0)
(1.4627221 0.00033267907 0)
(1.4632422 0.00031063638 0)
(1.4637278 0.00029005987 0)
(1.4641811 0.00027085133 0)
(1.4646045 0.00025291914 0)
(1.4649998 0.00023617807 0)
(1.4653689 0.00022054853 0)
(1.4657136 0.00020595648 0)
(1.4660355 0.00019233266 0)
(1.4663361 0.00017961285 0)
(1.4666168 0.00016773675 0)
(1.466879 0.00015664848 0)
(1.4671238 0.00014629514 0)
(1.4673524 0.00013662808 0)
(1.467566 0.00012760057 0)
(1.4677654 0.00011917086 0)
(1.4679516 0.00011129807 0)
(1.4681256 0.0001039471 0)
(1.468288 9.7081295e-05 0)
(1.4684397 9.0671937e-05 0)
(1.4685815 8.4684774e-05 0)
(1.4687138 7.9096584e-05 0)
(1.4688375 7.387192e-05 0)
(1.4689529 6.8999902e-05 0)
(1.4690608 6.444518e-05 0)
(1.4691614 6.0202677e-05 0)
(1.4692557 5.621636e-05 0)
(1.4693433 5.2511758e-05 0)
(1.4694258 4.9031349e-05 0)
(1.4695019 4.5829993e-05 0)
(1.4695741 4.2775395e-05 0)
(1.4696401 3.9988407e-05 0)
(1.4697038 3.7288154e-05 0)
(1.4697607 3.4923278e-05 0)
(1.4698172 3.2520345e-05 0)
(1.4698653 3.0516997e-05 0)
(1.4699166 2.8297783e-05 0)
(1.469956 2.6703877e-05 0)
(1.4700045 2.4630971e-05 0)
(1.470034 2.3495296e-05 0)
(1.4700831 2.1427869e-05 0)
(1.4701001 2.0818256e-05 0)
(1.4701557 1.8657911e-05 0)
(1.0005903 -0.0034629162 0)
(1.0136865 -0.0093660201 0)
(1.0370283 -0.013046806 0)
(1.0674202 -0.014563261 0)
(1.1000315 -0.014854525 0)
(1.1316428 -0.014564991 0)
(1.1610745 -0.013888338 0)
(1.1880674 -0.012919245 0)
(1.2125205 -0.011806506 0)
(1.2343939 -0.010696427 0)
(1.2538077 -0.0096727423 0)
(1.2710339 -0.0087628225 0)
(1.286401 -0.0079659741 0)
(1.3002112 -0.0072722149 0)
(1.3127102 -0.0066688085 0)
(1.3240903 -0.0061419249 0)
(1.3345036 -0.0056780716 0)
(1.3440716 -0.0052653204 0)
(1.3528927 -0.0048939347 0)
(1.3610463 -0.0045563957 0)
(1.3685975 -0.0042470701 0)
(1.3756004 -0.0039617764 0)
(1.3821012 -0.0036973982 0)
(1.3881402 -0.003451583 0)
(1.3937533 -0.0032225188 0)
(1.3989728 -0.0030087698 0)
(1.403828 -0.0028091576 0)
(1.4083456 -0.0026226786 0)
(1.4125503 -0.0024484489 0)
(1.4164646 -0.00228567 0)
(1.4201094 -0.002133607 0)
(1.423504 -0.0019915761 0)
(1.426666 -0.0018589366 0)
(1.4296121 -0.0017350865 0)
(1.4323573 -0.0016194593 0)
(1.4349159 -0.001511522 0)
(1.4373007 -0.0014107732 0)
(1.4395241 -0.0013167419 0)
(1.441597 -0.0012289857 0)
(1.4435301 -0.00114709 0)
(1.4453328 -0.001070666 0)
(1.4470143 -0.00099934969 0)
(1.4485827 -0.0009328006 0)
(1.4500459 -0.00087070029 0)
(1.451411 -0.00081275132 0)
(1.4526846 -0.00075867586 0)
(1.4538731 -0.00070821436 0)
(1.4549822 -0.00066112449 0)
(1.4560172 -0.00061718023 0)
(1.4569831 -0.00057617077 0)
(1.4578847 -0.0005378993 0)
(1.4587262 -0.00050218198 0)
(1.4595117 -0.00046884734 0)
(1.460245 -0.00043773551 0)
(1.4609295 -0.00040869734 0)
(1.4615685 -0.00038159357 0)
(1.4621651 -0.00035629447 0)
(1.4627221 -0.00033267939 0)
(1.4632422 -0.0003106359 0)
(1.4637278 -0.00029005883 0)
(1.4641811 -0.00027085001 0)
(1.4646045 -0.00025291793 0)
(1.4649998 -0.00023617745 0)
(1.4653689 -0.00022054878 0)
(1.4657136 -0.00020595751 0)
(1.4660355 -0.00019233415 0)
(1.4663361 -0.0001796143 0)
(1.4666168 -0.00016773765 0)
(1.466879 -0.00015664836 0)
(1.4671238 -0.00014629385 0)
(1.4673524 -0.00013662606 0)
(1.467566 -0.00012759876 0)
(1.4677654 -0.00011916998 0)
(1.4679516 -0.00011129833 0)
(1.4681256 -0.00010394845 0)
(1.468288 -9.7083177e-05 0)
(1.4684397 -9.0673409e-05 0)
(1.4685815 -8.4685308e-05 0)
(1.4687138 -7.9096923e-05 0)
(1.4688375 -7.3872264e-05 0)
(1.4689529 -6.8997522e-05 0)
(1.4690608 -6.4438874e-05 0)
(1.4691614 -6.0198499e-05 0)
(1.4692557 -5.622106e-05 0)
(1.4693433 -5.2520112e-05 0)
(1.4694258 -4.9031835e-05 0)
(1.4695019 -4.5824268e-05 0)
(1.4695741 -4.2775766e-05 0)
(1.4696401 -3.9994844e-05 0)
(1.4697038 -3.7287414e-05 0)
(1.4697607 -3.4911291e-05 0)
(1.4698172 -3.2512068e-05 0)
(1.4698653 -3.0524423e-05 0)
(1.4699166 -2.8312382e-05 0)
(1.469956 -2.670899e-05 0)
(1.4700045 -2.4623834e-05 0)
(1.470034 -2.3486881e-05 0)
(1.4700831 -2.1425366e-05 0)
(1.4701001 -2.0818973e-05 0)
(1.4701557 -1.8660114e-05 0)
(1.0007347 -0.011814722 0)
(1.0178472 -0.030860927 0)
(1.0462163 -0.041434442 0)
(1.0799018 -0.04519357 0)
(1.1132664 -0.045502351 0)
(1.143782 -0.044080307 0)
(1.1708941 -0.041439981 0)
(1.1945687 -0.037973677 0)
(1.2148582 -0.034195729 0)
(1.2319652 -0.030536887 0)
(1.2462683 -0.027222045 0)
(1.2582339 -0.024313921 0)
(1.2683135 -0.021797888 0)
(1.2768875 -0.01963366 0)
(1.2842554 -0.017773826 0)
(1.2906479 -0.016169651 0)
(1.296243 -0.01477559 0)
(1.3011791 -0.013552297 0)
(1.3055645 -0.012467863 0)
(1.3094838 -0.011497466 0)
(1.3130042 -0.010622162 0)
(1.3161792 -0.0098275134 0)
(1.3190526 -0.0091024112 0)
(1.3216607 -0.008438177 0)
(1.3240343 -0.007827904 0)
(1.3261995 -0.0072659745 0)
(1.3281786 -0.0067477085 0)
(1.3299913 -0.0062691164 0)
(1.3316544 -0.005826727 0)
(1.3331829 -0.005417473 0)
(1.3345896 -0.0050386122 0)
(1.3358862 -0.0046876739 0)
(1.3370827 -0.0043624197 0)
(1.3381882 -0.0040608149 0)
(1.3392108 -0.0037810045 0)
(1.3401576 -0.0035212952 0)
(1.3410349 -0.0032801385 0)
(1.3418486 -0.0030561174 0)
(1.3426038 -0.0028479336 0)
(1.3433051 -0.0026543971 0)
(1.3439569 -0.0024744155 0)
(1.3445629 -0.0023069858 0)
(1.3451267 -0.0021511857 0)
(1.3456513 -0.0020061669 0)
(1.3461398 -0.0018711485 0)
(1.3465947 -0.0017454104 0)
(1.3470185 -0.0016282883 0)
(1.3474135 -0.0015191694 0)
(1.3477816 -0.0014174873 0)
(1.3481249 -0.0013227186 0)
(1.3484449 -0.0012343786 0)
(1.3487435 -0.0011520184 0)
(1.349022 -0.0010752223 0)
(1.3492818 -0.0010036049 0)
(1.3495242 -0.00093680876 0)
(1.3497505 -0.00087450237 0)
(1.3499616 -0.00081637805 0)
(1.3501587 -0.00076215017 0)
(1.3503427 -0.00071155324 0)
(1.3505145 -0.00066434021 0)
(1.3506748 -0.00062028138 0)
(1.3508245 -0.0005791631 0)
(1.3509643 -0.00054078674 0)
(1.3510948 -0.00050496705 0)
(1.3512167 -0.00047153173 0)
(1.3513305 -0.00044032007 0)
(1.3514368 -0.00041118317 0)
(1.3515361 -0.00038398172 0)
(1.3516288 -0.00035858691 0)
(1.3517153 -0.00033487743 0)
(1.3517962 -0.00031274186 0)
(1.3518717 -0.00029207347 0)
(1.3519422 -0.00027277572 0)
(1.3520081 -0.0002547545 0)
(1.3520696 -0.00023792815 0)
(1.3521271 -0.00022221274 0)
(1.3521807 -0.000207541 0)
(1.3522309 -0.00019383582 0)
(1.3522777 -0.00018104349 0)
(1.3523215 -0.00016908586 0)
(1.3523623 -0.00015793076 0)
(1.3524005 -0.00014750215 0)
(1.352436 -0.00013778905 0)
(1.3524695 -0.00012867994 0)
(1.3525004 -0.00012020625 0)
(1.3525297 -0.00011224005 0)
(1.3525565 -0.00010488831 0)
(1.3525822 -9.7909907e-05 0)
(1.3526054 -9.1527959e-05 0)
(1.3526282 -8.5372571e-05 0)
(1.352648 -7.9914791e-05 0)
(1.3526683 -7.4446067e-05 0)
(1.3526849 -6.9828085e-05 0)
(1.3527037 -6.4828662e-05 0)
(1.352717 -6.110723e-05 0)
(1.3527349 -5.6435669e-05 0)
(1.3527446 -5.3744663e-05 0)
(1.3527628 -4.9144982e-05 0)
(1.3527683 -4.7708378e-05 0)
(1.3527888 -4.2966705e-05 0)
(1.0014244 -0.026824855 0)
(1.0291272 -0.062791353 0)
(1.0654292 -0.077736553 0)
(1.098962 -0.0805972 0)
(1.1253149 -0.078285171 0)
(1.145053 -0.073153899 0)
(1.1594858 -0.066111278 0)
(1.1694287 -0.058162063 0)
(1.1755354 -0.050296754 0)
(1.1785738 -0.043150708 0)
(1.1793571 -0.036972825 0)
(1.1785949 -0.031771632 0)
(1.1768304 -0.027451839 0)
(1.1744518 -0.023886768 0)
(1.1717287 -0.02094762 0)
(1.1688444 -0.018515781 0)
(1.1659195 -0.016488085 0)
(1.1630317 -0.014779503 0)
(1.1602295 -0.013322985 0)
(1.1575415 -0.012067132 0)
(1.1549828 -0.010973 0)
(1.1525601 -0.010011061 0)
(1.1502747 -0.0091587465 0)
(1.1481246 -0.0083986042 0)
(1.1461059 -0.0077169507 0)
(1.1442134 -0.0071028884 0)
(1.1424414 -0.006547592 0)
(1.1407838 -0.0060437954 0)
(1.1392344 -0.0055854261 0)
(1.1377869 -0.0051673445 0)
(1.1364353 -0.0047851568 0)
(1.1351738 -0.0044350759 0)
(1.1339968 -0.0041138165 0)
(1.1328987 -0.0038185127 0)
(1.1318746 -0.003546653 0)
(1.1309195 -0.0032960274 0)
(1.1300289 -0.0030646837 0)
(1.1291985 -0.0028508912 0)
(1.1284242 -0.0026531106 0)
(1.1277022 -0.0024699684 0)
(1.1270291 -0.0023002349 0)
(1.1264014 -0.002142806 0)
(1.1258161 -0.0019966872 0)
(1.1252702 -0.0018609801 0)
(1.1247612 -0.0017348712 0)
(1.1242865 -0.0016176216 0)
(1.1238437 -0.0015085588 0)
(1.1234307 -0.0014070694 0)
(1.1230455 -0.0013125926 0)
(1.1226861 -0.0012246146 0)
(1.1223509 -0.0011426637 0)
(1.1220381 -0.0010663062 0)
(1.1217462 -0.00099514299 0)
(1.1214739 -0.00092880622 0)
(1.1212198 -0.00086695643 0)
(1.1209827 -0.00080928003 0)
(1.1207614 -0.00075548699 0)
(1.1205548 -0.00070530867 0)
(1.1203621 -0.00065849614 0)
(1.1201821 -0.00061481849 0)
(1.1200142 -0.00057406157 0)
(1.1198574 -0.00053602646 0)
(1.1197111 -0.00050052833 0)
(1.1195745 -0.00046739515 0)
(1.1194469 -0.00043646717 0)
(1.1193278 -0.00040759554 0)
(1.1192167 -0.00038064227 0)
(1.1191129 -0.00035547851 0)
(1.119016 -0.00033198507 0)
(1.1189255 -0.00031004973 0)
(1.118841 -0.00028956907 0)
(1.1187621 -0.00027044454 0)
(1.1186884 -0.0002525868 0)
(1.1186197 -0.00023590945 0)
(1.1185554 -0.0002203368 0)
(1.1184954 -0.00020579228 0)
(1.1184394 -0.00019221268 0)
(1.1183871 -0.00017952732 0)
(1.1183383 -0.0001676843 0)
(1.1182927 -0.00015661588 0)
(1.11825 -0.00014628872 0)
(1.1182103 -0.00013663498 0)
(1.1181731 -0.00012763566 0)
(1.1181384 -0.00011920485 0)
(1.1181059 -0.00011135727 0)
(1.1180757 -0.00010398871 0)
(1.1180473 -9.7160966e-05 0)
(1.1180211 -9.0710946e-05 0)
(1.1179963 -8.4789333e-05 0)
(1.1179734 -7.9131412e-05 0)
(1.1179516 -7.4026043e-05 0)
(1.1179318 -6.9003939e-05 0)
(1.1179128 -6.4645703e-05 0)
(1.1178955 -6.0139698e-05 0)
(1.117879 -5.6572437e-05 0)
(1.1178635 -5.2432971e-05 0)
(1.11785 -4.9745127e-05 0)
(1.1178349 -4.58079e-05 0)
(1.1178262 -4.432412e-05 0)
(1.1178083 -4.0582013e-05 0)
(1.0016583 -0.05381943 0)
(1.0359761 -0.10128444 0)
(1.0597199 -0.11073663 0)
(1.0628947 -0.10592202 0)
(1.0515569 -0.096228728 0)
(1.0340529 -0.083934061 0)
(1.0142795 -0.070327063 0)
(0.99360703 -0.056981333 0)
(0.97292577 -0.045107479 0)
(0.95310739 -0.03523675 0)
(0.93479538 -0.02740165 0)
(0.91829012 -0.021387227 0)
(0.90362379 -0.016884499 0)
(0.89068067 -0.013569709 0)
(0.87928174 -0.011147749 0)
(0.86923242 -0.0093736593 0)
(0.86034423 -0.0080569286 0)
(0.85244667 -0.0070571278 0)
(0.84539241 -0.0062752383 0)
(0.83905793 -0.0056438282 0)
(0.83334126 -0.0051180904 0)
(0.82815884 -0.0046686716 0)
(0.82344212 -0.0042764168 0)
(0.81913467 -0.0039287385 0)
(0.81518961 -0.0036172035 0)
(0.81156765 -0.0033359706 0)
(0.80823544 -0.0030808043 0)
(0.8051644 -0.0028484693 0)
(0.80232979 -0.0026363694 0)
(0.79970999 -0.0024423382 0)
(0.79728597 -0.0022645182 0)
(0.79504086 -0.002101289 0)
(0.79295963 -0.0019512245 0)
(0.7910288 -0.0018130625 0)
(0.78923627 -0.0016856835 0)
(0.7875711 -0.001568093 0)
(0.78602338 -0.0014594066 0)
(0.78458412 -0.0013588367 0)
(0.78324511 -0.001265681 0)
(0.78199889 -0.0011793118 0)
(0.7808386 -0.0010991666 0)
(0.77975799 -0.0010247402 0)
(0.77875128 -0.00095557754 0)
(0.77781318 -0.00089126713 0)
(0.77693881 -0.00083143635 0)
(0.77612368 -0.00077574664 0)
(0.77536362 -0.00072388963 0)
(0.77465481 -0.00067558359 0)
(0.77399368 -0.00063057056 0)
(0.77337693 -0.00058861381 0)
(0.77280153 -0.00054949569 0)
(0.77226464 -0.00051301579 0)
(0.77176363 -0.00047898934 0)
(0.77129606 -0.00044724576 0)
(0.77085967 -0.00041762733 0)
(0.77045234 -0.00038998795 0)
(0.77007212 -0.00036419223 0)
(0.76971717 -0.00034011459 0)
(0.76938581 -0.00031763857 0)
(0.76907644 -0.00029665596 0)
(0.7687876 -0.00027706613 0)
(0.76851791 -0.00025877535 0)
(0.76826609 -0.00024169646 0)
(0.76803096 -0.00022574821 0)
(0.76781139 -0.00021085507 0)
(0.76760636 -0.0001969466 0)
(0.76741489 -0.0001839575 0)
(0.76723608 -0.00017182666 0)
(0.7670691 -0.00016049745 0)
(0.76691315 -0.00014991632 0)
(0.76676751 -0.00014003388 0)
(0.7666315 -0.0001308031 0)
(0.76650446 -0.00012218147 0)
(0.76638582 -0.00011412789 0)
(0.76627501 -0.00010660635 0)
(0.76617152 -9.9580139e-05 0)
(0.76607486 -9.3018643e-05 0)
(0.76598458 -8.6887552e-05 0)
(0.76590025 -8.1161956e-05 0)
(0.7658215 -7.5810383e-05 0)
(0.76574794 -7.081741e-05 0)
(0.76567924 -6.6150718e-05 0)
(0.76561505 -6.179882e-05 0)
(0.76555512 -5.7720099e-05 0)
(0.7654991 -5.3918757e-05 0)
(0.76544685 -5.0352295e-05 0)
(0.76539797 -4.704896e-05 0)
(0.76535239 -4.3939168e-05 0)
(0.7653097 -4.1069949e-05 0)
(0.76526996 -3.8334607e-05 0)
(0.7652327 -3.5840394e-05 0)
(0.76519804 -3.3435756e-05 0)
(0.76516558 -3.1302107e-05 0)
(0.76513519 -2.9188907e-05 0)
(0.76510713 -2.7383535e-05 0)
(0.76507998 -2.5527243e-05 0)
(0.76505664 -2.4069724e-05 0)
(0.76503058 -2.2556779e-05 0)
(0.76501446 -2.1603021e-05 0)
(0.76498346 -2.0997244e-05 0)
(0.91890839 -0.035821913 0)
(0.86271384 -0.062195638 0)
(0.7870597 -0.06251009 0)
(0.69536033 -0.054550395 0)
(0.61089745 -0.044531651 0)
(0.54411592 -0.034015972 0)
(0.49343012 -0.024187539 0)
(0.45479413 -0.016144229 0)
(0.42544582 -0.010265785 0)
(0.40347313 -0.0063041452 0)
(0.38715766 -0.0037976295 0)
(0.3749622 -0.0023103383 0)
(0.36566192 -0.001493015 0)
(0.35836272 -0.0010851182 0)
(0.35244267 -0.00090607233 0)
(0.34748201 -0.00084105181 0)
(0.34320348 -0.00082372425 0)
(0.33942726 -0.00081931047 0)
(0.33603793 -0.00081185196 0)
(0.33296114 -0.00079580112 0)
(0.33014778 -0.00077081136 0)
(0.32756384 -0.00073870944 0)
(0.3251842 -0.00070188933 0)
(0.32298902 -0.00066256573 0)
(0.32096172 -0.00062249966 0)
(0.31908785 -0.00058295757 0)
(0.31735449 -0.00054477174 0)
(0.31574995 -0.00050843431 0)
(0.3142636 -0.00047419168 0)
(0.31288574 -0.00044212456 0)
(0.31160755 -0.00041220928 0)
(0.31042101 -0.00038436135 0)
(0.30931883 -0.00035846464 0)
(0.30829438 -0.00033439002 0)
(0.30734165 -0.00031200653 0)
(0.30645515 -0.00029118765 0)
(0.30562991 -0.00027181449 0)
(0.30486136 -0.00025377708 0)
(0.30414535 -0.00023697461 0)
(0.30347807 -0.00022131499 0)
(0.30285601 -0.00020671419 0)
(0.30227596 -0.0001930954 0)
(0.30173496 -0.00018038829 0)
(0.30123029 -0.00016852843 0)
(0.30075942 -0.00015745666 0)
(0.30032002 -0.00014711855 0)
(0.29990993 -0.0001374639 0)
(0.29952715 -0.00012844623 0)
(0.29916983 -0.00012002251 0)
(0.29883624 -0.0001121528 0)
(0.29852478 -0.00010480001 0)
(0.29823397 -9.7929678e-05 0)
(0.29796241 -9.1509835e-05 0)
(0.29770882 -8.5510742e-05 0)
(0.29747201 -7.9904675e-05 0)
(0.29725084 -7.4665729e-05 0)
(0.29704429 -6.9769757e-05 0)
(0.29685138 -6.519427e-05 0)
(0.2966712 -6.0918321e-05 0)
(0.29650291 -5.6922311e-05 0)
(0.29634572 -5.3187909e-05 0)
(0.2961989 -4.9697958e-05 0)
(0.29606176 -4.6436443e-05 0)
(0.29593366 -4.3388373e-05 0)
(0.29581401 -4.0539806e-05 0)
(0.29570224 -3.7877733e-05 0)
(0.29559784 -3.5390118e-05 0)
(0.29550032 -3.3065622e-05 0)
(0.29540922 -3.0893659e-05 0)
(0.29532413 -2.8864093e-05 0)
(0.29524464 -2.696757e-05 0)
(0.29517039 -2.5195145e-05 0)
(0.29510103 -2.3538913e-05 0)
(0.29503625 -2.1991219e-05 0)
(0.29497572 -2.0545477e-05 0)
(0.29491919 -1.9194589e-05 0)
(0.29486638 -1.7932663e-05 0)
(0.29481705 -1.6752761e-05 0)
(0.29477097 -1.5650368e-05 0)
(0.29472793 -1.46197e-05 0)
(0.29468772 -1.3659094e-05 0)
(0.29465016 -1.2761923e-05 0)
(0.29461506 -1.1924714e-05 0)
(0.29458229 -1.1136538e-05 0)
(0.29455168 -1.0400746e-05 0)
(0.29452309 -9.7126424e-06 0)
(0.29449637 -9.0806919e-06 0)
(0.29447141 -8.4846498e-06 0)
(0.29444808 -7.9304914e-06 0)
(0.29442633 -7.398144e-06 0)
(0.29440598 -6.9164079e-06 0)
(0.29438699 -6.4574306e-06 0)
(0.29436922 -6.0491055e-06 0)
(0.29435261 -5.6501762e-06 0)
(0.29433715 -5.2986026e-06 0)
(0.29432249 -4.9767549e-06 0)
(0.29430919 -4.6894106e-06 0)
(0.29429569 -4.5384616e-06 0)
(0.29428501 -4.4066537e-06 0)
(0.29426873 -5.0579553e-06 0)
)
;

boundaryField
{
    top
    {
        type            fixedValue;
        value           uniform (0 0 0);
    }
    inlet
    {
        type            fixedValue;
        value           uniform (1 0 0);
    }
    outlet
    {
        type            zeroGradient;
    }
    bottom
    {
        type            fixedValue;
        value           uniform (0 0 0);
    }
    back
    {
        type            empty;
    }
    front
    {
        type            empty;
    }
}


// ************************************************************************* //
