/*--------------------------------*- C++ -*----------------------------------*\
  =========                 |
  \\      /  F ield         | OpenFOAM: The Open Source CFD Toolbox
   \\    /   O peration     | Website:  https://openfoam.org
    \\  /    A nd           | Version:  9
     \\/     M anipulation  |
\*---------------------------------------------------------------------------*/
FoamFile
{
    format      ascii;
    class       volScalarField;
    location    "0.71";
    object      p_rgh;
}
// * * * * * * * * * * * * * * * * * * * * * * * * * * * * * * * * * * * * * //

dimensions      [1 -1 -2 0 0 0 0];

internalField   nonuniform List<scalar> 
10000
(
0
0.0029392429
-0.00039404956
-0.0058906977
-0.014779965
-0.027021829
-0.042724113
-0.061805968
-0.084352664
-0.11033739
-0.1398538
-0.17290428
-0.20947124
-0.24960613
-0.29322751
-0.34028445
-0.3907521
-0.4444946
-0.50139445
-0.56134474
-0.6241277
-0.68947731
-0.75710598
-0.82661473
-0.89749999
-0.96920404
-1.0410403
-1.1121382
-1.1814967
-1.2479614
-1.3101303
-1.3663618
-1.4149245
-1.4541129
-1.4820717
-1.4962834
-1.4960114
-1.4759473
-1.4336032
-1.3669785
-1.2744354
-1.1549298
-1.0082733
-0.83530102
-0.63824421
-0.42144004
-0.19160976
0.042624647
0.27153217
0.49115065
0.66549871
0.78850018
0.84959426
0.84074691
0.76023857
0.61685621
0.43304936
0.24486009
0.092521437
0.0067688625
0.00078714914
0.070861602
0.20638352
0.39137934
0.61211325
0.85821832
1.1204451
1.3908954
1.6635723
1.9339993
2.1990756
2.4566538
2.7051405
2.9434939
3.1710594
3.387482
3.5927363
3.786894
3.9701165
4.1426492
4.3047577
4.4568512
4.5992838
4.7323596
4.8564245
4.9717858
5.0787204
5.1775056
5.2683237
5.3513667
5.4267716
5.4946498
5.5550767
5.608112
5.653833
5.6922671
5.723436
5.7472098
5.7648398
5.7731541
-0.0092442162
-0.0063376898
-0.009698382
-0.015379471
-0.02440752
-0.036819759
-0.052613635
-0.071893861
-0.094597944
-0.12081868
-0.15057524
-0.1838415
-0.22070008
-0.2610848
-0.30494743
-0.35230494
-0.40304327
-0.45705278
-0.51427689
-0.57454973
-0.63764427
-0.70334345
-0.77133764
-0.84120842
-0.91250369
-0.98467867
-1.057023
-1.1287012
-1.1987719
-1.2660821
-1.3292248
-1.3866464
-1.4367104
-1.4776089
-1.5073178
-1.5234233
-1.5230071
-1.5036723
-1.4623674
-1.3966549
-1.3046192
-1.184946
-1.0371783
-0.86191215
-0.66116608
-0.43910652
-0.20241117
0.039200028
0.27105174
0.51451542
0.6918673
0.81857322
0.88077984
0.86837588
0.7764011
0.61134361
0.39515122
0.17003143
-0.014012531
-0.11817086
-0.13404036
-0.067443424
0.06645021
0.25165576
0.47574446
0.72770926
0.99735725
1.276236
1.5579936
1.837817
2.1121685
2.3785826
2.635403
2.8815165
3.116224
3.3392093
3.5504365
3.7500306
3.9381834
4.1151625
4.2813254
4.4370792
4.5827976
4.7188585
4.8455976
4.9633482
5.0724313
5.173126
5.265651
5.3501824
5.426895
5.4959333
5.5573675
5.6112676
5.6577233
5.6967601
5.728395
5.7525017
5.7704261
5.7788836
-0.0096708777
-0.0068758649
-0.010378977
-0.016057898
-0.025222619
-0.037686278
-0.053603237
-0.072934595
-0.095759379
-0.12211547
-0.15199143
-0.18548181
-0.22255447
-0.26315849
-0.30733269
-0.3550085
-0.40608087
-0.46052402
-0.5182432
-0.57905354
-0.64279241
-0.70924543
-0.77808696
-0.84895839
-0.92145235
-0.99502115
-1.0689919
-1.1426083
-1.2149554
-1.2848848
-1.3510485
-1.4119465
-1.4658894
-1.5109368
-1.5449322
-1.565512
-1.5699125
-1.5550814
-1.518242
-1.4567705
-1.3684104
-1.2514223
-1.1048942
-0.92903807
-0.72544465
-0.49765885
-0.25171421
0.0031502142
0.25437344
0.49121437
0.68298348
0.80951838
0.8676813
0.84389272
0.72904839
0.52837913
0.26104532
-0.016396466
-0.23502788
-0.34543101
-0.348901
-0.26555517
-0.1164858
0.085245829
0.32735987
0.5970016
0.88307404
1.1770807
1.4725329
1.7646347
2.0499813
2.3261365
2.5915332
2.8452365
3.0866571
3.3155379
3.5319043
3.7359681
3.9280387
4.1084258
4.2775519
4.4358981
4.5838739
4.7219215
4.8504137
4.9697006
5.0801468
5.1820358
5.275644
5.3611615
5.4387336
5.5085097
5.570604
5.6250895
5.6720221
5.7114571
5.7434255
5.767754
5.7859314
5.7943707
-0.008635461
-0.006093521
-0.0097552381
-0.015541505
-0.024749209
-0.037348821
-0.053337185
-0.072786571
-0.09575164
-0.12222234
-0.15229954
-0.18599636
-0.2232756
-0.26418611
-0.3087026
-0.35674276
-0.40829186
-0.46329927
-0.52163528
-0.58318434
-0.64780395
-0.71525995
-0.78528594
-0.85758996
-0.93177201
-1.0073067
-1.0836061
-1.1599721
-1.2355062
-1.3091159
-1.3795426
-1.4453177
-1.5047056
-1.5557414
-1.5962239
-1.6236094
-1.6350446
-1.6275297
-1.597927
-1.5433037
-1.4610089
-1.3487891
-1.2051657
-1.029747
-0.82340333
-0.58876584
-0.3310825
-0.059581544
0.21068359
0.45817885
0.66213609
0.78720165
0.83720048
0.78828549
0.63442217
0.39241736
0.054266876
-0.32001791
-0.60306068
-0.69911716
-0.66953987
-0.55679211
-0.37951461
-0.14826507
0.12351804
0.42148308
0.73380177
1.0516557
1.3682784
1.6788167
1.9799837
2.2696174
2.5464605
2.8097894
3.0593446
3.2951373
3.5173612
3.7263944
3.9226865
4.106698
4.2789646
4.4400264
4.5903728
4.7304928
4.8607893
4.9816919
5.0935688
5.1967422
5.2914974
5.3780343
5.4565218
5.5271069
5.5899294
5.6450657
5.6925722
5.7324861
5.76483
5.7894656
5.8081248
5.8171011
-0.0057263354
-0.0032527331
-0.007148073
-0.012968111
-0.022282615
-0.034921795
-0.050988489
-0.070536709
-0.093570173
-0.12019899
-0.15045433
-0.18431105
-0.2218387
-0.26305406
-0.30789794
-0.35636915
-0.40845533
-0.46406495
-0.52311862
-0.58554221
-0.65117969
-0.71983898
-0.79133428
-0.86540897
-0.94168988
-1.0197348
-1.0990427
-1.1789636
-1.2586658
-1.3371757
-1.4133272
-1.4856895
-1.552545
-1.6119175
-1.6615558
-1.6988194
-1.7207028
-1.723963
-1.7052175
-1.6610717
-1.5882643
-1.4839145
-1.3458479
-1.1728643
-0.96481554
-0.72296029
-0.45099638
-0.15756054
0.1398812
0.41446049
0.63360336
0.7558901
0.76695226
0.65769227
0.42308411
0.15021267
-0.28445741
-0.77781551
-1.1942988
-1.2464259
-1.1203973
-0.95499366
-0.7393237
-0.46343724
-0.14604404
0.19380057
0.54378749
0.89497752
1.2405043
1.5756675
1.8976321
2.2047609
2.4962337
2.77176
3.0314532
3.275721
3.5050847
3.7201181
3.921411
4.1096581
4.2855605
4.44972
4.6027195
4.7451319
4.8774266
5.0000907
5.1135359
5.2181129
5.3140976
5.4017349
5.4812147
5.5526898
5.61632
5.6721939
5.7203561
5.7608103
5.7936086
5.8185337
5.8376952
5.8468486
-0.00052611532
0.0019062198
-0.0020953452
-0.0080141835
-0.017350188
-0.030033037
-0.04615724
-0.065722955
-0.088850745
-0.1156054
-0.14597297
-0.18002171
-0.21780466
-0.25929891
-0.30451744
-0.35347609
-0.40612123
-0.46240074
-0.52228373
-0.58568489
-0.65247908
-0.72256322
-0.79579951
-0.87195841
-0.9507547
-1.0318523
-1.1148157
-1.1990754
-1.2839327
-1.3685513
-1.4518539
-1.5324739
-1.6087847
-1.6788375
-1.7403207
-1.7905137
-1.8262689
-1.8440883
-1.8401976
-1.8105997
-1.7512856
-1.6585967
-1.5295383
-1.362008
-1.1546474
-0.90666906
-0.61883379
-0.29683295
0.041876483
0.35864357
0.61000527
0.69155469
0.6306164
0.38470897
-0.17857689
-0.26076459
-0.093561358
-0.81563675
-2.0855149
-2.0130812
-1.7842249
-1.5149235
-1.2238323
-0.87595179
-0.48999844
-0.088665332
0.31471664
0.71138605
1.0950365
1.4617738
1.8096702
2.1380152
2.4468565
2.736646
3.0080325
3.2618664
3.4990907
3.7206218
3.9272798
4.1199775
4.2995967
4.4668915
4.6225518
4.7672107
4.9014665
5.0258508
5.1408141
5.2467385
5.3439279
5.4326554
5.5131404
5.5855613
5.6500533
5.7067016
5.7555591
5.7966205
5.8299333
5.8551054
5.8744752
5.8840232
0.0068764863
0.0093744427
0.0052276097
-0.0006850576
-0.010048771
-0.022756243
-0.038856333
-0.058465635
-0.081667737
-0.10847533
-0.13896523
-0.17320802
-0.21120837
-0.25300468
-0.29864159
-0.34809261
-0.40132957
-0.45835513
-0.51912859
-0.58357668
-0.65165943
-0.72333964
-0.79851086
-0.87701645
-0.95867987
-1.0432572
-1.1304113
-1.2197201
-1.3106456
-1.4024865
-1.4942915
-1.5848245
-1.672599
-1.7557465
-1.8319324
-1.8984085
-1.951952
-1.9887406
-2.0044307
-1.9943127
-1.9534519
-1.8771425
-1.761546
-1.603861
-1.4014693
-1.1510802
-0.84811223
-0.48895226
-0.090859448
0.28578654
0.51597321
0.45157907
0.10061203
-0.0090195425
1.7088748
0.68045985
0.26279927
-0.72108631
-1.3390747
-2.6445865
-2.5724164
-2.2055798
-1.8421448
-1.4027136
-0.92282879
-0.43502095
0.042707118
0.50049917
0.93322581
1.339158
1.7184101
2.0717942
2.4006567
2.7064822
2.9907645
3.2549748
3.5005543
3.7288026
3.9409466
4.1381485
4.3214446
4.4917763
4.6499734
4.7967944
4.9329227
5.0589281
5.1753382
5.2825702
5.3809521
5.470776
5.5523112
5.625719
5.6911132
5.7485892
5.7982
5.8399504
5.8738619
5.8998467
5.9185703
5.9283115
0.016536485
0.019018296
0.014828633
0.0089170511
-0.00043828086
-0.013075107
-0.029164998
-0.048791821
-0.071983226
-0.098839494
-0.12944675
-0.16382723
-0.20203857
-0.24415743
-0.29019478
-0.34013985
-0.3940137
-0.45181174
-0.51348782
-0.57903766
-0.64849613
-0.72185719
-0.79907272
-0.88010091
-0.96487142
-1.0532378
-1.1450193
-1.2399907
-1.337781
-1.4378348
-1.5393915
-1.6414324
-1.7426445
-1.8413254
-1.9352668
-2.0217532
-2.0974448
-2.1581929
-2.19907
-2.2144159
-2.1979454
-2.143654
-2.0470524
-1.9048946
-1.713823
-1.4685105
-1.1544854
-0.75164581
-0.25740821
0.28775613
0.33476893
0.10076384
0.29253192
-0.59268428
-2.6444118
-4.5828195
-6.1304736
-6.6678573
-6.0802859
-5.1559599
-4.3365278
-3.6172811
-2.8326292
-2.1184362
-1.4693075
-0.8532933
-0.2735219
0.26399842
0.75789618
1.2109088
1.6266378
2.0084088
2.3595148
2.6827986
2.9808266
3.2558835
3.5100795
3.7451751
3.9627982
4.1643764
4.3511961
4.5244246
4.6850316
4.8338971
4.9717799
5.0993282
5.2171093
5.3255981
5.425175
5.5161308
5.5987304
5.6731495
5.7395138
5.7978909
5.8483361
5.8908676
5.9254259
5.9520016
5.9708744
5.9806962
0.028384696
0.030916068
0.026647421
0.020781803
0.011533981
-0.0010394426
-0.017079218
-0.036625126
-0.059786327
-0.086671611
-0.11732467
-0.15181619
-0.19024637
-0.23265853
-0.27907226
-0.3295306
-0.38404785
-0.44259735
-0.50518487
-0.5718729
-0.64272021
-0.7177605
-0.79705123
-0.880668
-0.96864589
-1.0609871
-1.1577182
-1.2588238
-1.3641087
-1.473206
-1.5856284
-1.7006541
-1.8172192
-1.9338938
-2.0487516
-2.1592664
-2.2620726
-2.352649
-2.4253939
-2.4734786
-2.4887636
-2.4632973
-2.3914582
-2.2707064
-2.0998937
-1.871323
-1.5575664
-1.1145692
-0.49919762
0.16941756
-0.14483476
-0.7416356
-2.3336627
-4.6410085
-6.3145796
-8.8080295
-10.972455
-11.934342
-11.524976
-11.042723
-7.3556289
-5.4631956
-4.3989279
-3.0791867
-2.1274127
-1.3346343
-0.62499451
0.010071115
0.5765829
1.0837833
1.540049
1.9525137
2.3271224
2.6685303
2.9805933
3.2665706
3.5292428
3.7709439
3.9937437
4.1993953
4.389457
4.5652876
4.7280392
4.8787129
5.0181507
5.1470965
5.2661599
5.3758625
5.4766107
5.5686967
5.6523949
5.7278807
5.7952868
5.8546588
5.9060426
5.9494388
5.9847864
6.0120764
6.0312658
6.0414969
0.042436149
0.04496996
0.040658857
0.034942365
0.025792204
0.013334052
-0.0025439016
-0.021973257
-0.045072063
-0.071900953
-0.10255318
-0.13714749
-0.17575541
-0.2184258
-0.26522522
-0.31619111
-0.37130994
-0.43058687
-0.49408421
-0.56187837
-0.63404547
-0.71069791
-0.79200097
-0.87813302
-0.96926569
-1.0656128
-1.1674387
-1.2749457
-1.3881487
-1.5069338
-1.6311345
-1.7604
-1.8940662
-2.0311008
-2.170037
-2.3088974
-2.444525
-2.571777
-2.6842821
-2.7746286
-2.831452
-2.841755
-2.7985506
-2.7064894
-2.5680961
-2.371373
-2.1016776
-1.7008643
-0.92580315
0.0041345902
0.16211142
-3.5428533
-4.6207694
-7.2808213
-10.596838
-14.275952
-17.308498
-18.742747
-18.287158
-16.271176
-12.859414
-7.9135431
-6.9139777
-4.4438845
-2.9695972
-1.8706165
-0.99093053
-0.24475042
0.40223093
0.96783852
1.4663905
1.9101555
2.3082863
2.6675038
2.9930803
3.289333
3.5598063
3.807463
4.0347898
4.2439434
4.4367526
4.6147363
4.7792285
4.9313622
5.0720977
5.2022488
5.3224683
5.4332921
5.5352053
5.6284241
5.7132798
5.7898893
5.8584061
5.9188817
5.9713352
6.0157362
6.0520131
6.0801554
6.0999282
6.1108248
0.058580218
0.06115858
0.056877741
0.051306892
0.042321709
0.030095962
0.014422851
-0.0048383586
-0.027768926
-0.05448039
-0.085111158
-0.11975637
-0.15849278
-0.20141952
-0.2485989
-0.30002753
-0.3557094
-0.41569595
-0.48004939
-0.54883797
-0.62218959
-0.70030891
-0.78343459
-0.87184805
-0.96592382
-1.066122
-1.1729451
-1.2868658
-1.4081823
-1.537056
-1.673655
-1.8180972
-1.9703178
-2.1298844
-2.2959234
-2.4673635
-2.6418871
-2.813928
-2.9767809
-3.1231066
-3.232752
-3.2845802
-3.2750146
-3.2198781
-3.1168282
-2.9661672
-2.8129193
-2.6142896
-1.7448843
-0.43212306
-3.9973851
-5.0870338
-7.0523647
-10.403247
-15.017984
-20.183481
-24.296582
-26.140958
-25.364618
-22.374981
-18.09641
-12.137964
-7.8892589
-5.7985115
-3.7564169
-2.3752283
-1.3293507
-0.47244505
0.25347892
0.87597384
1.4150424
1.8883027
2.3082712
2.6836511
3.0212178
3.3263762
3.6034566
3.8559927
4.086899
4.2986944
4.4934767
4.6729817
4.8387023
4.9918934
5.1336099
5.2647178
5.3859079
5.4977023
5.6008761
5.6951905
5.7812068
5.8590552
5.9288204
5.9905545
6.0442325
6.0897943
6.1271761
6.1563366
6.1769173
6.1887244
0.076787228
0.079493417
0.075201499
0.069863704
0.061168905
0.049219443
0.033816417
0.014846189
-0.007833936
-0.034387853
-0.064931225
-0.099568031
-0.13842538
-0.18159967
-0.22911228
-0.28096613
-0.33719667
-0.39784407
-0.4629416
-0.53257604
-0.60692627
-0.68624621
-0.77084888
-0.86116054
-0.95778267
-1.0614248
-1.1728504
-1.2928954
-1.4222626
-1.5613763
-1.7106825
-1.8708357
-2.0425766
-2.2263756
-2.4221442
-2.6303274
-2.8513703
-3.0797524
-3.3066834
-3.5236225
-3.697886
-3.8081675
-3.8349084
-3.8022632
-3.7196012
-3.6088616
-3.5068237
-3.3037
0.20310676
-1.8963766
-4.496134
-6.4748883
-9.1070332
-13.142625
-19.087177
-25.550889
-30.571066
-32.589777
-31.530225
-27.69801
-22.107432
-16.322118
-8.6476153
-7.0278813
-4.464366
-2.8123306
-1.5984153
-0.64227366
0.1516218
0.82264891
1.3961253
1.8943189
2.3324393
2.7209939
3.0680814
3.3800348
3.6618979
3.9177187
4.1508525
4.3641241
4.5598974
4.7401252
4.9064357
5.0601926
5.2024976
5.3342893
5.4563352
5.5691233
5.6731834
5.7687368
5.8560462
5.9352557
6.0064379
6.0696106
6.1247075
6.1716357
6.2103356
6.2407087
6.2623099
6.2752247
0.097011646
0.099851902
0.095622111
0.090631597
0.082271899
0.07068308
0.055692045
0.037111414
0.014744743
-0.011560711
-0.041936857
-0.076543017
-0.11550869
-0.15888902
-0.20670509
-0.25898386
-0.31573934
-0.3769636
-0.4426802
-0.51299524
-0.5880893
-0.66822457
-0.75380778
-0.84544951
-0.943975
-1.0503431
-1.1656298
-1.2911462
-1.4281361
-1.5772624
-1.739091
-1.9148068
-2.1062575
-2.3153035
-2.5427141
-2.790626
-3.0655837
-3.3625886
-3.6581689
-3.9510242
-4.2376083
-4.4414497
-4.4559397
-4.432748
-4.3757997
-4.274206
-4.2265685
-2.2973165
-1.5068912
-4.1308332
-5.7419127
-7.9209411
-10.468412
-15.176501
-21.789144
-29.013468
-34.447011
-36.371657
-34.96904
-30.645881
-24.50256
-18.210365
-9.0141305
-7.8213864
-5.0354167
-3.1101558
-1.7543695
-0.72600714
0.11654985
0.82152357
1.4192809
1.935235
2.386038
2.7834648
3.1365796
3.4524528
3.7366352
3.9936435
4.2272767
4.4405957
4.6361853
4.8161713
4.9822991
5.1360131
5.2784734
5.4106416
5.5332888
5.6469512
5.7520409
5.8488477
5.9375781
6.0183205
6.0911201
6.1559379
6.2126777
6.2612251
6.3014999
6.3332963
6.3561777
6.3703757
0.11910944
0.12221444
0.11811578
0.11350571
0.10558219
0.094516282
0.080056931
0.061960993
0.040033964
0.014086448
-0.016077796
-0.05062418
-0.089650627
-0.13321495
-0.18135894
-0.23407962
-0.29132877
-0.35306414
-0.41929591
-0.49009287
-0.56559233
-0.64606295
-0.73199864
-0.82417115
-0.92362973
-1.031634
-1.1496654
-1.2796242
-1.423426
-1.582094
-1.7562288
-1.9470737
-2.1572828
-2.3909369
-2.6504026
-2.9392941
-3.2755844
-3.6657978
-4.0693565
-4.537764
-4.9642572
-5.1469585
-4.9824255
-5.2411264
-5.1615919
-4.9754438
-5.0307526
-4.9598584
-5.1407334
-5.7121644
-7.009844
-8.9310259
-11.224523
-15.903139
-22.420428
-29.577361
-34.819295
-36.58224
-35.103515
-30.436087
-24.336621
-18.347188
-10.354676
-6.38781
-5.1325997
-3.1395104
-1.7545113
-0.6996906
0.16360815
0.8831988
1.4926518
2.0171935
2.473676
2.874538
3.2292836
3.5454033
3.8288678
4.0845675
4.3165996
4.5282449
4.7222574
4.9008794
5.0659472
5.2189489
5.3610807
5.493312
5.6163935
5.7308297
5.8370031
5.9351682
6.0254778
6.1079714
6.1826369
6.2493854
6.3080599
6.3585195
6.4006498
6.4341011
6.4585312
6.4743129
0.1430144
0.14649102
0.1425255
0.13840687
0.13109764
0.12069392
0.10689815
0.089455959
0.068119853
0.042618313
0.012728608
-0.021693653
-0.060758225
-0.10454775
-0.15307453
-0.20626757
-0.26402552
-0.32626682
-0.39293259
-0.46398912
-0.53950448
-0.61974715
-0.70525507
-0.79690187
-0.89595315
-1.0040307
-1.1231493
-1.2559774
-1.4052489
-1.5723972
-1.7579489
-1.9627667
-2.1899389
-2.446892
-2.7391012
-3.0710603
-3.4672825
-3.9627696
-4.4915265
-4.7733633
-3.9301977
-4.6401586
-6.6173402
-6.5272107
-6.2498196
-5.8605985
-5.8721456
-6.1296372
-6.4028777
-6.9816432
-8.002441
-9.5183961
-11.297998
-15.353053
-20.861025
-27.081612
-31.708063
-33.083895
-31.446863
-26.978907
-21.327916
-16.25998
-10.09525
-5.7516361
-4.775807
-2.9476415
-1.5954744
-0.55392267
0.29959353
1.0142704
1.6219719
2.1448768
2.5990903
2.9970091
3.3481974
3.6602792
3.9394613
4.1909135
4.4189189
4.6269006
4.8177232
4.9937182
5.1567614
5.3083607
5.4496974
5.5816994
5.7050494
5.8202238
5.9275688
6.0272552
6.1193619
6.2038825
6.2807227
6.3497312
6.4106851
6.4634156
6.5077255
6.5431282
6.5693998
6.5871634
0.16856878
0.1724656
0.16873182
0.16529588
0.15874745
0.14917633
0.13626233
0.11967342
0.09906482
0.074127091
0.044624689
0.010375638
-0.0287638
-0.072855883
-0.12184794
-0.17561204
-0.23399258
-0.29680859
-0.36386057
-0.43498112
-0.5101368
-0.58952646
-0.67364556
-0.76341936
-0.86033568
-0.96639437
-1.0842617
-1.217785
-1.3709326
-1.545789
-1.7431586
-1.9612294
-2.1981467
-2.4674632
-2.7849919
-3.156866
-3.5946279
-4.1934683
-4.8588668
-2.5911587
-2.2465599
-6.6197759
-8.0004984
-8.2737368
-7.9460846
-6.9455045
-6.6379152
-7.0323494
-7.2169447
-7.6401644
-8.4734148
-9.4276374
-10.913755
-13.451635
-17.768907
-22.414026
-25.821625
-26.707813
-25.125363
-21.336997
-17.020308
-12.685659
-8.3609194
-5.5738612
-4.1234464
-2.494868
-1.2694544
-0.28757406
0.52597515
1.2183421
1.8107841
2.3213693
2.7648913
3.152914
3.4946718
3.7978579
4.0687385
4.3125955
4.5338487
4.7359691
4.9218683
5.0938956
5.253924
5.403414
5.5434861
5.6749804
5.7984982
5.9144576
6.0231157
6.1245577
6.2187711
6.3056519
6.3850398
6.4567086
6.5203574
6.5757771
6.6226563
6.6603638
6.6887864
6.7087717
0.19552206
0.19999386
0.19664479
0.19401848
0.18844065
0.17996944
0.16818881
0.15265989
0.13297236
0.10877587
0.079766079
0.045696841
0.006424332
-0.038067328
-0.087681977
-0.14223695
-0.2014668
-0.26502433
-0.33252518
-0.4036263
-0.47811096
-0.55599027
-0.6376089
-0.72387096
-0.81646433
-0.91770867
-1.0309192
-1.1618745
-1.3169972
-1.4985855
-1.7065744
-1.9376413
-2.1832932
-2.4589619
-2.802857
-3.2387818
-3.7972556
-4.6250494
-4.7984183
-2.8962906
-3.9231753
-7.7847848
-9.7118004
-10.57898
-10.321976
-9.1698612
-8.1489714
-7.5945952
-7.3650303
-7.9475462
-8.595641
-9.1583368
-10.188337
-11.579303
-14.440715
-17.359763
-19.574407
-19.988654
-17.389147
-13.610662
-11.738484
-9.1337596
-6.3447636
-4.8542325
-3.191667
-1.8833347
-0.81697528
0.078252207
0.84038809
1.4958723
2.0604702
2.5482455
2.972444
3.3431679
3.6692189
3.958191
4.216364
4.4489927
4.6605034
4.8544235
5.0335885
5.2002908
5.3562988
5.5029727
5.6413482
5.7721264
5.8958056
6.0126928
6.1229006
6.2264104
6.3231031
6.4127704
6.4951739
6.5699875
6.6368281
6.6954229
6.7453434
6.78577
6.816834
6.8397493
0.22392112
0.2288207
0.22604942
0.22443552
0.22012043
0.21304593
0.20267451
0.18849136
0.17000483
0.14675072
0.11832346
0.084443791
0.044975724
-8.0006817e-05
-0.050591989
-0.10628546
-0.16672883
-0.23136712
-0.29958835
-0.37078575
-0.44442897
-0.52019686
-0.5981381
-0.6789809
-0.76450093
-0.85721555
-0.96100599
-1.0845421
-1.2385193
-1.425025
-1.6429085
-1.8882466
-2.1340946
-2.4031459
-2.795254
-3.3198164
-3.9893761
-4.9305761
-5.5607164
-4.9649477
-5.3100439
-6.3121737
-10.887086
-12.505386
-12.383384
-10.95553
-9.3460609
-8.9943402
1.8399112
-2.3021908
-7.9760038
-8.6627654
-8.9809091
-10.118851
-11.460744
-13.24175
-14.493899
-14.69351
-13.771341
-9.7475566
-8.0151735
-6.9587673
-5.3152977
-3.6358586
-2.2954691
-1.2099251
-0.27933823
0.52835792
1.2314065
1.8416198
2.3690797
2.8254621
3.2218727
3.5676853
3.871407
4.1405211
4.3812345
4.5987886
4.7974702
4.9807402
5.1513001
5.3113124
5.4623543
5.6056122
5.7419548
5.8719169
5.9958593
6.1139059
6.2260017
6.3320019
6.4316515
6.5246483
6.61064
6.6891701
6.7597736
6.8221145
6.8756137
6.9192998
6.9534868
6.9798231
0.25300188
0.25844539
0.25668732
0.25638561
0.25365031
0.24831198
0.23973758
0.22729646
0.21033708
0.18825401
0.1605523
0.12690522
0.087140968
0.041256083
-0.010553892
-0.067884571
-0.13011778
-0.19645395
-0.265971
-0.33767664
-0.41058416
-0.48387391
-0.5570742
-0.63042181
-0.70551853
-0.78490916
-0.87271874
-0.98141763
-1.1305312
-1.3238103
-1.5527227
-1.8137741
-2.0703817
-2.3140419
-2.7604942
-3.3419564
-4.0698337
-4.9384902
-6.3546862
-6.7791983
-5.4114989
-5.4533146
-11.640137
-13.635998
-13.326233
-11.61698
-9.6536801
-8.807227
0.95987786
1.8344974
-8.3359444
-7.4545018
-7.7358832
-9.093936
-9.7282446
-10.540021
-10.765225
-10.547593
-9.9776184
-8.893143
-7.4505755
-5.5874246
-3.9169084
-2.5525364
-1.4674324
-0.52661001
0.30945901
1.0469982
1.69276
2.2528047
2.7357954
3.1521548
3.5122182
3.8252767
4.0997876
4.3431411
4.561488
4.7599635
4.9426481
5.1127973
5.2729338
5.4249652
5.5702008
5.7095731
5.8437011
5.9729051
6.0973352
6.2168915
6.3313439
6.4403836
6.543615
6.6406065
6.730861
6.8137905
6.8888362
6.9555938
7.0133055
7.060799
7.0986419
7.1290092
0.28218273
0.28887005
0.28827253
0.28956237
0.28879498
0.28567214
0.27941256
0.26919705
0.25417344
0.23359048
0.20683978
0.17347917
0.13326625
0.086202527
0.032557594
-0.027128233
-0.092030533
-0.16104992
-0.23285202
-0.30593653
-0.37872797
-0.44967736
-0.51741624
-0.58128164
-0.64225876
-0.70227969
-0.76502323
-0.84722428
-0.98208315
-1.1829706
-1.4350174
-1.7205037
-1.9837852
-2.2286568
-2.7041351
-3.2402954
-3.9616019
-4.6826457
-5.8851976
-7.4840644
-8.7784228
-6.8836689
-12.052332
-13.529595
-13.107863
-11.193192
-9.2760111
-8.2539337
-6.3349811
1.1348782
-7.3547088
-6.1655953
-6.9979277
-8.4478094
-9.1076203
-9.1699816
-8.8405192
-8.0595351
-7.0576497
-6.0437939
-4.9642087
-3.8937039
-2.7245099
-1.6412802
-0.69383573
0.17134781
0.94922542
1.6326625
2.2235709
2.7292102
3.1600038
3.5272597
3.841888
4.1138761
4.3518862
4.563308
4.7542231
4.9295561
5.0931256
5.2478294
5.3958752
5.5387928
5.6775616
5.8127686
5.9446893
6.0733787
6.1986831
6.3202782
6.4377326
6.5505227
6.6580942
6.7598562
6.8551552
6.9432735
7.0235661
7.0955187
7.158146
7.2100721
7.2522481
7.2872899
0.31197466
0.31936303
0.3202243
0.32352857
0.32527399
0.32499724
0.32169101
0.31431874
0.30181499
0.28320702
0.2576979
0.22469189
0.18386095
0.13518933
0.078996514
0.015960077
-0.052851923
-0.12598746
-0.20163491
-0.27768002
-0.35179319
-0.42140959
-0.48379792
-0.53686069
-0.58014709
-0.61325881
-0.6371357
-0.67248063
-0.7751288
-0.989218
-1.2728844
-1.6041086
-1.9074258
-2.2655025
-2.602588
-3.1026365
-3.7416735
-4.4221615
-5.351449
-6.5402956
-7.6060071
-9.7504103
-11.443079
-12.591842
-11.909361
-10.053272
-8.292739
-6.7986498
-4.9926341
-5.0076043
-4.3699098
-7.6899215
-8.005533
-8.949901
-9.2349128
-8.9097495
-7.7221122
-6.8900674
-6.3551021
-5.3385692
-4.2133368
-3.1679648
-2.0437801
-0.95745242
0.021335911
0.89528808
1.6525379
2.2935605
2.828989
3.273395
3.6419268
3.9493511
4.2084314
4.4302953
4.624014
4.7971065
4.9554687
5.1036858
5.2451628
5.382327
5.5168727
5.649843
5.7817549
5.9127581
6.0427238
6.17137
6.2981833
6.4225699
6.5438409
6.6612468
6.7740483
6.8814866
6.9827495
7.0769633
7.1634021
7.2414458
7.3098115
7.3669024
7.4141922
7.4546916
0.34157706
0.3486012
0.35252779
0.35788605
0.36271056
0.36603714
0.36652625
0.36285747
0.35366752
0.33766396
0.31379061
0.28127463
0.2396599
0.18885658
0.1292061
0.061531337
-0.012839813
-0.092081338
-0.17388229
-0.25544996
-0.33352837
-0.40425713
-0.46317002
-0.50624441
-0.53047011
-0.53076142
-0.50369516
-0.47447715
-0.51837288
-0.76187939
-1.109636
-1.4809301
-1.7864485
-2.2676756
-2.0642198
-3.0395343
-2.4127179
-0.78959387
-1.8417259
-6.2666213
-7.2042657
-9.7043318
-11.544097
-11.573102
-10.351544
-8.7956184
-7.5848781
-6.5857615
-4.7609217
-2.4713599
4.1679791
-8.9529213
-10.246676
-10.322367
-9.9872722
-9.1389143
-8.2515504
-6.3164109
-5.404256
-4.9528644
-4.3655745
-3.2693386
-1.7921779
-0.42854061
0.73584422
1.6884269
2.4492599
3.0492131
3.519685
3.8895207
4.1816213
4.4159225
4.6078009
4.7696017
4.9108732
5.0391724
5.1600038
5.2774012
5.3941365
5.5120171
5.6320499
5.7546164
5.8796462
6.0067526
6.135347
6.2646986
6.3939139
6.5220623
6.6481611
6.7712267
6.8903063
7.0044741
7.1127463
7.214099
7.3077322
7.3928823
7.4679113
7.531025
7.5843494
7.6311939
0.36993165
0.3767479
0.3833409
0.39155385
0.4004173
0.40840783
0.41385718
0.41505582
0.41021384
0.3976539
0.37600488
0.34423837
0.3016852
0.24814288
0.18395952
0.11008122
0.02804948
-0.059966688
-0.15114932
-0.24202175
-0.32835467
-0.40484206
-0.4651204
-0.50323244
-0.51285089
-0.4790278
-0.38089608
-0.23835496
-0.17682679
-0.40210098
-0.90781172
-1.3666204
-1.7092458
-2.0835985
-2.4571704
-2.0017729
-0.92320528
-0.81207726
0.26048588
-1.3186592
-6.4613479
-11.138355
-13.790458
-11.869932
-9.0068229
-7.5229821
-7.4143393
-7.5677048
-4.9317314
-4.3816508
-2.8879059
-10.445267
-10.898855
-11.540171
-11.179423
-9.7910448
-8.1395399
-6.2403271
-5.9112232
-5.9003549
-5.0907831
-3.0893957
-1.7128196
0.12644069
1.5790852
2.6364877
3.3922413
3.9286074
4.3096879
4.5816995
4.7776342
4.9223593
5.0336451
5.1246825
5.2051979
5.2824217
5.3611336
5.4445116
5.5344358
5.6318254
5.736833
5.8490359
5.9676416
6.0916316
6.2198352
6.3509718
6.4837559
6.6168765
6.749043
6.8790059
7.0055907
7.1276968
7.2441506
7.3538072
7.4557879
7.5491969
7.6319592
7.7021087
7.7625547
7.8167713
0.39556644
0.40225557
0.41161814
0.42360228
0.4375337
0.45161448
0.46357016
0.47115729
0.47205121
0.46410408
0.44553037
0.41492631
0.37135105
0.31445426
0.24454994
0.16263244
0.070367005
-0.029817077
-0.13463346
-0.240001
-0.34091248
-0.43077308
-0.50161161
-0.54687121
-0.56058568
-0.52165981
-0.3845873
-0.18963653
-0.22551801
-0.64249289
-1.2353439
-1.6256014
-1.8590761
-1.9730341
-2.7189908
-1.2143397
-1.1939187
-2.0749242
-0.3425206
2.2998073
-4.7739106
-15.826141
-21.038704
-12.894812
-6.6511014
-5.5192838
-7.5519447
-10.227193
-7.2423775
-5.3560691
0.666763
-4.1174447
-13.692506
-14.874338
-13.079116
-11.215032
-8.231609
-4.5925563
-4.7127169
-7.788304
-7.994513
-4.8371619
-1.5587692
1.0062338
2.7531961
3.8596962
4.544502
4.9612255
5.2088302
5.3497315
5.4242103
5.4601365
5.4762472
5.4856025
5.4973921
5.5178541
5.5505985
5.5975494
5.6593626
5.7358246
5.8260107
5.9285546
6.0417986
6.1639526
6.2931624
6.4275734
6.5654332
6.7050293
6.8447378
6.9830249
7.1185113
7.2499007
7.3758555
7.4950783
7.6066869
7.7096248
7.8013453
7.8796844
7.9485723
8.0114239
0.41671506
0.42340977
0.43570028
0.45252309
0.4729809
0.49493611
0.51542182
0.53145392
0.5399858
0.53825059
0.52391808
0.49511897
0.45061268
0.38983614
0.31296147
0.22091798
0.11540631
-0.0009914223
-0.12465582
-0.25110808
-0.37503471
-0.48892936
-0.58382252
-0.65984286
-0.72645196
-0.73287994
-0.54086797
-0.35607252
-0.9721141
-2.2081278
-3.2440197
-3.6025961
-3.0666923
-2.2992464
-2.7026159
-3.4603475
-2.4845653
-5.3438931
1.4196974
12.507426
1.4813584
-29.246588
-38.822843
-21.182543
2.592328
-0.2402296
-7.3507439
-15.177275
-11.004935
3.356912
15.440563
1.011605
-12.69952
-18.097738
-16.968894
-15.348986
-8.2485769
-0.17637573
-2.1682359
-13.2817
-12.704515
-6.2722455
-0.67573122
2.7323266
4.5524419
5.4970089
5.9607594
6.1615293
6.2143356
6.183212
6.1079819
6.0150598
5.9215468
5.8390792
5.7752469
5.7344256
5.718508
5.7277396
5.7612097
5.8173059
5.8938137
5.9882158
6.0978509
6.22003
6.3521457
6.4917514
6.636558
6.7844312
6.9333936
7.0816316
7.2275683
7.3696965
7.5065653
7.6367439
7.7593848
7.8732402
7.9752717
8.0631404
8.1420609
8.2151927
0.43166123
0.43772015
0.45316026
0.47616428
0.50510247
0.53739305
0.56907174
0.59628316
0.61505879
0.62166483
0.6131526
0.58717178
0.54211199
0.4770899
0.39200817
0.28760985
0.16552866
0.028374071
-0.12009558
-0.27531194
-0.43214559
-0.58224503
-0.71917636
-0.86248433
-1.0254289
-1.0742035
-0.84700533
-0.64734473
-1.5569879
-3.2225244
-4.8040686
-5.6149809
-4.4527365
-2.5329306
-2.2215525
-4.0033409
-6.9788781
-12.790855
-11.345495
28.018366
35.094305
-51.32138
-87.623525
-48.084696
34.910675
61.581608
9.1142339
49.138973
186.4158
177.02885
90.962771
53.373003
33.262943
6.8166645
-26.311766
-34.087979
-3.1952876
17.984822
1.156767
-25.804045
-23.747416
-7.4720402
2.0273042
5.8144108
7.1872262
7.601751
7.6373292
7.5080395
7.3016322
7.0584271
6.8062115
6.5663101
6.3507579
6.1683391
6.0238321
5.9189978
5.8533741
5.8250972
5.8313689
5.8688805
5.9339308
6.0226576
6.1312473
6.2560203
6.3935454
6.5407139
6.6946917
6.8529145
7.0130655
7.1730779
7.3311587
7.4856508
7.6348784
7.7774631
7.9126139
8.0388995
8.152732
8.2516871
8.3425452
8.4280604
0.43815567
0.44181437
0.46052757
0.49134157
0.53145622
0.57750491
0.62420332
0.66607115
0.69856295
0.71629093
0.71578436
0.69413242
0.64925809
0.57986972
0.48550598
0.3665959
0.22453967
0.061800985
-0.11790355
-0.31009756
-0.51002988
-0.70916925
-0.90798852
-1.1508318
-1.4336804
-1.5263671
-0.77301699
-0.53683483
-1.8731421
-3.2080899
-4.3674031
-5.3048256
-4.1062981
-1.413621
-0.86153613
-3.1356245
-7.767233
-26.991302
-40.002595
66.511937
169.80807
-67.645406
-68.586407
-33.651657
-523.78583
-207.41857
2514.0373
4467.2976
4517.4007
3442.3203
2604.2621
3059.8891
3687.4785
2222.6039
448.17594
-88.645849
75.39799
108.60647
26.308484
-77.329931
23.93252
1.5919827
9.7151454
11.012602
10.597703
10.020147
9.4490596
8.9200302
8.4138103
7.9331792
7.486699
7.0868676
6.740823
6.4533679
6.2258555
6.0566315
5.9423386
5.8785912
5.8604174
5.8825581
5.9396208
6.0262346
6.1372671
6.2679584
6.4140018
6.5715866
6.7373416
6.9082788
7.0817627
7.255514
7.4275366
7.5960665
7.7592125
7.9156913
8.0648612
8.2051619
8.3324347
8.44422
8.5492701
8.6497763
0.43164993
0.43050956
0.45248769
0.49333039
0.54850862
0.61321119