/*--------------------------------*- C++ -*----------------------------------*\
  =========                 |
  \\      /  F ield         | OpenFOAM: The Open Source CFD Toolbox
   \\    /   O peration     | Website:  https://openfoam.org
    \\  /    A nd           | Version:  9
     \\/     M anipulation  |
\*---------------------------------------------------------------------------*/
FoamFile
{
    format      ascii;
    class       surfaceScalarField;
    location    "0.71";
    object      phi;
}
// * * * * * * * * * * * * * * * * * * * * * * * * * * * * * * * * * * * * * //

dimensions      [0 3 -1 0 0 0 0];

internalField   nonuniform List<scalar> 
19800
(
-0.00011117835
0.0001671274
-0.00018575617
0.0001673926
-0.00026047819
0.00016818853
-0.000335342
0.00016917619
-0.00041043495
0.0001702974
-0.00048574852
0.00017150345
-0.00056132033
0.0001727614
-0.00063714518
0.00017404352
-0.000713202
0.00017527468
-0.00078945966
0.00017643927
-0.00086590665
0.00017748471
-0.00094245727
0.00017834465
-0.00101906
0.00017903118
-0.0010956403
0.00017942475
-0.0011721183
0.00017952742
-0.0012483834
0.0001792847
-0.0013243445
0.00017868766
-0.0013999005
0.00017769983
-0.0014749263
0.00017629449
-0.0015492812
0.00017443174
-0.0016228139
0.00017204162
-0.0016953471
0.00016910783
-0.0017666727
0.00016564164
-0.0018365398
0.00016154163
-0.0019046625
0.00015675738
-0.0019706929
0.00015114148
-0.0020342001
0.000144583
-0.0020946686
0.00013687857
-0.0021514925
0.0001277954
-0.002203991
0.0001170467
-0.002251375
0.00010431884
-0.0022927462
8.9368487e-05
-0.0023270671
7.1939704e-05
-0.0023530421
5.1834055e-05
-0.0023690424
2.9354077e-05
-0.0023716574
3.575598e-06
-0.0023589066
-2.3644279e-05
-0.0023272354
-5.5144178e-05
-0.0022744437
-9.0507853e-05
-0.0021979904
-0.00013033326
-0.0020951039
-0.00017505312
-0.0019628554
-0.00022505258
-0.0017981473
-0.00028075232
-0.0015975997
-0.00034265476
-0.0013573072
-0.00041141276
-0.0010728779
-0.00048775184
-0.00073983573
-0.00057218839
-0.00035439132
-0.00066343204
8.6406272e-05
-0.00076130548
0.00058871854
-0.00087010181
0.0011481117
-0.00097412877
0.0017586325
-0.0010681691
0.0024098294
-0.0011438035
0.0030815342
-0.0011852665
0.0037421534
-0.0011732713
0.0043513176
-0.0010928151
0.0048681621
-0.00094278359
0.0052631583
-0.00074033385
0.0055245508
-0.00051300514
0.0056533731
-0.00028330561
0.005663017
-6.9969119e-05
0.0055715987
0.00012588371
0.0054060639
0.00030074382
0.005186904
0.00044776759
0.0049314901
0.00056516847
0.0046547134
0.00065365768
0.0043683084
0.00071630942
0.0040810175
0.00075663973
0.0037988669
0.00077780028
0.0035255118
0.00078260016
0.0032629034
0.0007736809
0.0030119321
0.000753639
0.0027729138
0.00072505956
0.0025459073
0.00069044325
0.0023308811
0.00065203708
0.0021277698
0.000611677
0.0019364777
0.00057071582
0.001756846
0.00053013963
0.0015886495
0.00049054548
0.0014316105
0.00045255204
0.0012854609
0.00041624182
0.0011498575
0.00038181739
0.0010244088
0.00034935807
0.00090871249
0.00031883736
0.00080235476
0.00029024139
0.00070488015
0.00026359176
0.00061586695
0.0002387976
0.00053485539
0.00021575477
0.00046134378
0.00019437708
0.00039480897
0.00017464348
0.00033475984
0.00015659239
0.00028075001
0.00014018556
0.00023226488
0.00012525256
0.00018884594
0.00011188833
0.00014997837
0.00010008155
0.00011508325
8.9740429e-05
8.3586943e-05
8.0922269e-05
5.4962527e-05
7.3653453e-05
2.8580919e-05
6.8187766e-05
6.3558852e-05
-0.00011014431
0.0002412168
-0.00018440485
0.00024165848
-0.00025886206
0.00024265472
-0.00033357468
0.00024387593
-0.00040856396
0.00024528179
-0.00048382215
0.00024675845
-0.00055936913
0.00024831833
-0.00063522681
0.0002498999
-0.00071137379
0.00025142759
-0.00078778227
0.00025284682
-0.00086441714
0.00025411511
-0.00094121545
0.0002551458
-0.0010181028
0.00025591617
-0.0010950104
0.00025633328
-0.0011718466
0.00025636951
-0.0012485315
0.00025596948
-0.0013249587
0.00025511591
-0.0014009902
0.00025373517
-0.0014765312
0.00025183358
-0.0015514364
0.00024933504
-0.0016255616
0.00024616917
-0.0016987862
0.00024233046
-0.0017709122
0.00023776338
-0.0018417082
0.00023234039
-0.0019109078
0.00022596159
-0.001978212
0.00021844487
-0.0020432286
0.00020960016
-0.0021054954
0.00019915274
-0.0021644511
0.00018675625
-0.0022194358
0.00017202843
-0.0022696487
0.00015452785
-0.0023140875
0.00013380778
-0.002351506
0.00010935969
-0.0023804227
8.0750393e-05
-0.0023988106
4.774238e-05
-0.0024046523
9.4189555e-06
-0.002394972
-3.3323994e-05
-0.0023675785
-8.2537669e-05
-0.0023196522
-0.00013843254
-0.0022485138
-0.0002014699
-0.002151347
-0.00027221925
-0.0020251923
-0.00035120715
-0.0018669743
-0.00043897051
-0.0016734602
-0.00053616792
-0.0014409504
-0.00064391971
-0.0011649944
-0.00076370687
-0.00084088872
-0.00089629343
-0.00046306029
-0.0010412587
-2.3937193e-05
-0.0012004274
0.00047425968
-0.0013682947
0.0010462265
-0.0015460944
0.0016815767
-0.0017035179
0.0023714489
-0.0018336702
0.0030978828
-0.0019116968
0.00382693
-0.0019023184
0.0045067686
-0.0017726573
0.0050810191
-0.0015170335
0.0055090047
-0.0011683196
0.005779555
-0.00078355511
0.0059050799
-0.00040883549
0.0058982016
-6.3087985e-05
0.0057851597
0.00023892986
0.0055907975
0.00049510904
0.0053376981
0.00070086897
0.0050473328
0.00085553541
0.0047371998
0.00096379477
0.0044207082
0.0010328016
0.0041075621
0.0010697784
0.0038041301
0.0010812298
0.003513972
0.0010727598
0.0032386171
0.0010490356
0.0029783558
0.0010138975
0.0027328701
0.00097054315
0.0025016461
0.00092166759
0.0022841723
0.00086951051
0.0020800007
0.00081584625
0.001888709
0.00076200431
0.0017098974
0.00070895
0.0015430997
0.00065734076
0.0013878947
0.00060775444
0.0012438215
0.0005603135
0.0011104305
0.00051520784
0.00098726701
0.00047251804
0.00087385169
0.00043225372
0.00076971892
0.00039437499
0.00067440581
0.00035890225
0.00058748632
0.00032571341
0.00050846535
0.00029477139
0.00043686687
0.0002659739
0.00037225774
0.00023925164
0.00031416211
0.00021468748
0.00026215459
0.00019219464
0.00021561604
0.00017179369
0.00017410252
0.00015339981
0.00013715906
0.00013702344
0.00010420165
0.00012269802
7.4655602e-05
0.00011046818
4.8083332e-05
0.00010022508
2.385482e-05
9.241496e-05
8.5531368e-05
-0.00010954144
0.00031500024
-0.00018362891
0.00031575459
-0.0002579156
0.00031695333
-0.00033245093
0.00031841994
-0.00040717522
0.00032000004
-0.00048230123
0.00032188656
-0.00055783095
0.00032384284
-0.00063374156
0.00032581503
-0.00070995459
0.00032764308
-0.00078651119
0.00032940379
-0.0008633493
0.00033096065
-0.00094038866
0.0003321854
-0.0010175943
0.00033311975
-0.0010948722
0.00033361254
-0.0011721174
0.00033361127
-0.0012492858
0.00033313616
-0.0013261855
0.00033201939
-0.0014027787
0.00033032833
-0.0014789183
0.00032797186
-0.0015544619
0.00032488204
-0.0016292951
0.00032100308
-0.0017032582
0.00031629021
-0.0017762111
0.00031071745
-0.0018479292
0.00030406239
-0.0019182307
0.00029626174
-0.0019868131
0.00028702502
-0.0020533528
0.0002761442
-0.002117428
0.00026323339
-0.0021785293
0.00024785637
-0.0022360191
0.00022951473
-0.0022890723
0.00020758197
-0.0023366473
0.00018138579
-0.0023775485
0.00015026052
-0.0024102979
0.0001134979
-0.0024329277
7.0373303e-05
-0.0024441642
2.0657008e-05
-0.0024401239
-3.7366116e-05
-0.0024189281
-0.00010373568
-0.0023779336
-0.00017942543
-0.0023143052
-0.00026509608
-0.0022253575
-0.00036116814
-0.0021082345
-0.00046833171
-0.0019600602
-0.00058714441
-0.0017776837
-0.00071854294
-0.0015574102
-0.00086419055
-0.0012948378
-0.0010262779
-0.0009843112
-0.0012068196
-0.00061839774
-0.001407171
-0.00018868128
-0.0016301455
0.00031449762
-0.0018714718
0.00090669032
-0.0021382838
0.0015560994
-0.0023529255
0.0022690846
-0.0025466522
0.0030555626
-0.0026981729
0.0038888963
-0.0027356513
0.0046879784
-0.0025717428
0.0053556472
-0.0021847016
0.0058339996
-0.0016466718
0.0061190294
-0.0010685834
0.0062281678
-0.00051797711
0.0061850253
-1.9945242e-05
0.0060288031
0.00039515596
0.0057868507
0.00073706388
0.0054882078
0.00099951411
0.005157054
0.0011866864
0.0048117367
0.0013091159
0.0044654246
0.0013791108
0.0041271629
0.0014080412
0.0038026871
0.0014057068
0.0034951966
0.0013802489
0.0032060644
0.001338169
0.0029354325
0.0012845321
0.0026827184
0.0012232555
0.002447004
0.0011573815
0.0022272808
0.0010892365
0.0020225901
0.0010205369
0.0018320235
0.00095256992
0.0016548011
0.00088616858
0.0014901516
0.00082199284
0.0013374833
0.00076042462
0.0011960957
0.00070169876
0.0010654841
0.00064582079
0.00094509554
0.00059290402
0.00083441949
0.00054292971
0.00073294118
0.00049585496
0.00064022552
0.00045161436
0.00055578347
0.00041015393
0.00047922433
0.00037132632
0.00041010249
0.00033509381
0.00034782749
0.00030153061
0.00029194423
0.0002705743
0.00024196006
0.00024217682
0.00019749353
0.00021626105
0.00015802501
0.0001928694
0.00012307785
0.00017196864
9.2107985e-05
0.00015366651
6.4728897e-05
0.0001378496
4.0293393e-05
0.00012466125
1.8355926e-05
0.0001143512
0.00010477167
-0.00010880067
0.00038841965
-0.00018250369
0.00038944399
-0.00025641778
0.00039087561
-0.00033071052
0.00039271598
-0.00040542775
0.00039472476
-0.00048052105
0.000396975
-0.00055600805
0.00039933145
-0.00063189218
0.00040169852
-0.00070826918
0.00040401573
-0.00078500407
0.00040614264
-0.00086207255
0.00040803012
-0.0009394568
0.00040956872
-0.001017047
0.00041071269
-0.0010947583
0.00041132241
-0.0011725181
0.0004113691
-0.0012501879
0.00041080905
-0.001327706
0.0004095378
-0.0014049099
0.00040753002
-0.0014816647
0.00040472936
-0.0015579146
0.00040113473
-0.0016335501
0.00039663663
-0.0017084518
0.00039119204
-0.0017823839
0.00038465336
-0.0018553235
0.00037700144
-0.0019270225
0.00036795679
-0.0019973214
0.00035732483
-0.002065943
0.00034477012
-0.0021325926
0.00032988307
-0.0021967775
0.00031203825
-0.002257917
0.00029065503
-0.0023152797
0.00026494857
-0.002367964
0.00023407119
-0.002414778
0.00019707222
-0.0024541798
0.00015289833
-0.0024844018
0.00010059611
-0.0025029253
3.9180375e-05
-0.0025076689
-3.2625601e-05
-0.0024957085
-0.00011569875
-0.0024643811
-0.0002107513
-0.0024110061
-0.000318469
-0.0023328
-0.00043937669
-0.0022272005
-0.00057393446
-0.0020915282
-0.00072281562
-0.0019230505
-0.00088701712
-0.0017188775
-0.0010683602
-0.0014750173
-0.0012701384
-0.0011851099
-0.00149673
-0.0008387166
-0.0017535638
-0.00042417784
-0.0020446845
7.0583404e-05
-0.0023662317
0.00064339111
-0.0027110881
0.0012467741
-0.0029563078
0.0019872918
-0.0032871687
0.0029145344
-0.0036254145
0.003971187
-0.0037923008
0.0049928093
-0.0035933679
0.0058008842
-0.002992777
0.0063040377
-0.0021498247
0.0065740633
-0.0013386079
0.0066692824
-0.00061319788
0.0065916817
5.7653315e-05
0.0063717615
0.00061507747
0.0060526169
0.0010562076
0.0056785071
0.0013736265
0.0052819951
0.0015831966
0.0048838582
0.0017072544
0.0044965664
0.0017664014
0.0041274074
0.0017771997
0.0037801303
0.0017529832
0.0034561105
0.0017042698
0.0031552726
0.0016390096
0.0028766864
0.0015631141
0.0026189912
0.0014809513
0.0023806406
0.0013957289
0.0021601011
0.0013097744
0.0019559368
0.0012247012
0.001766869
0.0011416364
0.0015917844
0.001061249
0.0014296692
0.00098410487
0.0012796849
0.00091040343
0.0011412156
0.00084016311
0.0010135298
0.00077350443
0.00089602929
0.00071040067
0.0007882331
0.00065072678
0.00068954077
0.00059454448
0.00059954864
0.00054160464
0.00051781492
0.00049188532
0.00044381652
0.00044532218
0.0003770695
0.00040184381
0.00031716038
0.00036144007
0.00026368057
0.00032405323
0.00021618697
0.00028966988
0.00017418724
0.00025825754
0.00013720553
0.00022985093
0.00010478554
0.00020439033
7.6375518e-05
0.00018207566
5.1624135e-05
0.00016259906
2.9938818e-05
0.00014634699
1.0751169e-05
0.00013353659
0.00012084707
-0.00010779922
0.00046141531
-0.00018112486
0.00046276324
-0.0002547824
0.00046452594
-0.0003287786
0.00046671901
-0.00040321386
0.00046915797
-0.00047816523
0.00047192879
-0.00055360078
0.00047476821
-0.00062960687
0.00047770177
-0.00070609925
0.00048051169
-0.00078308448
0.00048312824
-0.00086049172
0.00048543438
-0.00093827939
0.0004873573
-0.0010163307
0.00048876267
-0.0010945741
0.00048956424
-0.0011729176
0.00048971648
-0.0012512242
0.00048911755
-0.0013294098
0.00048772086
-0.0014073667
0.00048548823
-0.0014849496
0.00048231557
-0.0015620706
0.00047825468
-0.0016386328
0.00047319837
-0.0017145066
0.00046706939
-0.0017896879
0.00045983548
-0.0018639872
0.00045129658
-0.0019373728
0.00044134085
-0.0020097101
0.00042966493
-0.0020807972
0.00041585718
-0.0021503396
0.00039942218
-0.002218055
0.0003797541
-0.0022834655
0.00035607024
-0.0023459678
0.00032745292
-0.0024046144
0.00029271517
-0.0024583211
0.00025077712
-0.0025055884
0.00020016622
-0.0025446034
0.00013961043
-0.0025732274
6.7801438e-05
-0.0025888534
-1.700197e-05
-0.0025886762
-0.00011587641
-0.0025697983
-0.00022962881
-0.0025294598
-0.00035880798
-0.0024649632
-0.00050387602
-0.0023738174
-0.00066508147
-0.0022538279
-0.00084280211
-0.0021031451
-0.001037698
-0.0019199221
-0.0012515839
-0.0017012332
-0.001488829
-0.0014399565
-0.0017580085
-0.0011259574
-0.0020675604
-0.00075690736
-0.002413734
-0.00033446687
-0.0027886737
0.00017787983
-0.0032234322
0.00089519275
-0.0036736177
0.0020114338
-0.0044034082
0.0034252239
-0.005039207
0.0049052523
-0.0052723271
0.0061872425
-0.0048753597
0.0070559525
-0.0038614894
0.0073914723
-0.0024853443
0.0073835453
-0.00133068
0.0072788278
-0.00050848157
0.0071029721
0.00023350651
0.0067924678
0.00092558392
0.0063717176
0.0014769578
0.005897663
0.001847676
0.0054155282
0.0020653327
0.0049500207
0.0021727606
0.0045123051
0.0022041151
0.0041067804
0.0021827244
0.0037341433
0.0021256218
0.0033930763
0.0020453347
0.0030813307
0.001950754
0.0027962953
0.0018481479
0.0025353485
0.0017418983
0.0022960234
0.0016350509
0.0020761056
0.0015296861
0.0018736564
0.0014271489
0.0016870709
0.0013282219
0.0015149097
0.0012334103
0.0013560478
0.0011429658
0.0012095523
0.0010568971
0.0010745589
0.00097515896
0.00095035797
0.00089770536
0.00083633182
0.00082442409
0.00073184928
0.00075520926
0.00063649114
0.00068989903
0.00054971308
0.00062838159
0.00047111489
0.0005704849
0.00040019953
0.00051623975
0.00033652663
0.00046551745
0.00027969218
0.00041827335
0.00022923822
0.00037450766
0.00018474828
0.00033415867
0.0001457608
0.00029724227
0.00011179213
0.00026381915
8.2384985e-05
0.00023379815
5.7133481e-05
0.00020732519
3.5389623e-05
0.00018434267
1.6822373e-05
0.00016491333
4.3034884e-07
0.00014992682
0.00013300963
-0.00010654738
0.00053387409
-0.00017938377
0.00053559416
-0.00025254966
0.00053769225
-0.00032621075
0.00054037416
-0.00040048996
0.00054343914
-0.00047529112
0.00054672951
-0.00055073868
0.00055021153
-0.00062676771
0.00055373491
-0.00070343645
0.00055718333
-0.00078069464
0.00056038519
-0.00085848436
0.00056322533
-0.00093672967
0.00056560136
-0.0010153455
0.00056737601
-0.001094239
0.00056846134
-0.0011732921
0.0005687727
-0.0012523687
0.00056819217
-0.0013313811
0.00056673341
-0.0014101758
0.00056428587
-0.0014886883
0.00056082728
-0.0015667502
0.00055631508
-0.0016443396
0.00055079091
-0.0017213716
0.0005441038
-0.0017978099
0.00053627068
-0.0018736566
0.00052714058
-0.0019488126
0.00051649825
-0.002023227
0.00050407942
-0.0020968972
0.00048952376
-0.002169757
0.00047228075
-0.0022415698
0.00045157126
-0.0023119766
0.00042648074
-0.0023805014
0.00039597567
-0.0024464387
0.00035864888
-0.0025086762
0.00031301479
-0.0025659059
0.00025739734
-0.002616171
0.0001898731
-0.0026572089
0.0001088356
-0.0026863312
1.2120206e-05
-0.0027005732
-0.00010163368
-0.0026966818
-0.00023352263
-0.0026717827
-0.00038370954
-0.0026232998
-0.0005523586
-0.0025489444
-0.0007394351
-0.0024468349
-0.00094491075
-0.002316204
-0.0011683316
-0.0021572189
-0.0014105715
-0.0019685811
-0.0016774648
-0.0017475356
-0.0019790534
-0.0015031585
-0.002311937
-0.0012597005
-0.0026571923
-0.00093286253
-0.0031155126
-0.0001151561
-0.0040411355
0.0014187348
-0.0052075053
0.0034863976
-0.0064710696
0.0056788794
-0.0072316944
0.0075590158
-0.0071524631
0.0089557213
-0.0062720628
0.0098839717
-0.0047897416
0.0099334962
-0.0025348712
0.0093004479
-0.00069763234
0.0085313123
0.00026065435
0.0078756547
0.00088916376
0.0072946239
0.0015066149
0.0067161609
0.0020554255
0.006121942
0.0024418921
0.0055382734
0.0026489999
0.004993874
0.0027171593
0.0044999798
0.0026980176
0.0040562916
0.0026264118
0.0036585647
0.0025233453
0.0033018204
0.0024020819
0.0029811151
0.0022714627
0.0026918018
0.0021374618
0.0024297645
0.0020039356
0.0021914791
0.0018733384
0.0019739976
0.0017471661
0.0017748784
0.0016262633
0.0015921327
0.0015109631
0.0014241255
0.0014014201
0.0012695552
0.0012975365
0.0011273599
0.0011990871
0.00099664658
0.0011058698
0.00087660724
0.0010177408
0.00076662543
0.00093440496
0.00066613214
0.00085570076
0.00057461139
0.00078141814
0.00049159306
0.00071140158
0.00041659829
0.00064548067
0.0003492583
0.00058357955
0.00028918344
0.00052559151
0.00023585491
0.00047159898
0.00018887703
0.00042148403
0.00014782268
0.0003752114
0.00011229696
0.00033276577
8.1827785e-05
0.00029428643
5.591353e-05
0.00025971576
3.4142504e-05
0.00022909584
1.6098706e-05
0.00020238695
1.4718183e-06
0.00017954049
-1.1743622e-05
0.00016314134
0.00014168325
-0.00010503315
0.00060569436
-0.00017728748
0.00060785597
-0.00025004194
0.00061043991
-0.00032330555
0.00061363824
-0.00039721655
0.00061735061
-0.00047183931
0.00062134762
-0.00054721719
0.00062559153
-0.00062333856
0.00062985857
-0.0007002228
0.00063406706
-0.00077780254
0.00063796719
-0.00085603407
0.00064145677
-0.0009348318
0.00064439677
-0.0010141068
0.00064665417
-0.0010937277
0.00064808603
-0.0011735799
0.00064862358
-0.0012535168
0.00064812865
-0.0013334436
0.00064666308
-0.0014131932
0.00064403481
-0.0014926801
0.00064031159
-0.0015718119
0.00063544877
-0.0016504594
0.00062944185
-0.0017286443
0.00062228742
-0.0018063696
0.00061399322
-0.0018836642
0.00060443584
-0.0019606037
0.00059343813
-0.0020373144
0.00058078656
-0.0021138466
0.0005660534
-0.0021902423
0.00054867923
-0.0022664294
0.00052776228
-0.0023423405
0.00050239118
-0.0024176071
0.00047123893
-0.0024917656
0.00043280601
-0.0025639253
0.0003851752
-0.0026327927
0.00032626465
-0.002696605
0.00025368327
-0.0027528119
0.00016504041
-0.0027985978
5.790577e-05
-0.0028302366
-6.9995423e-05
-0.0028441195
-0.00021964197
-0.0028372903
-0.00039053895
-0.0028071885
-0.00058245835
-0.0027513113
-0.00079531336
-0.0026679002
-0.001028325
-0.0025568806
-0.001279353
-0.0024202413
-0.0015472096
-0.0022629919
-0.0018347107
-0.0021053862
-0.0021366601
-0.0019895324
-0.0024277926
-0.0018328172
-0.0028139051
-0.0010957993
-0.0038525284
0.00083204026
-0.0059689745
0.0035043373
-0.0078798039
0.0062432584
-0.0092099893
0.0087936905
-0.0097821297
0.011029264
-0.0093880383
0.012695621
-0.0079384172
0.013628499
-0.0057226185
0.013892145
-0.002798518
0.013259019
-6.4503061e-05
0.011612788
0.0019068854
0.0097839883
0.002717964
0.0082163406
0.0030742649
0.0071206976
0.0031510672
0.0063104414
0.0032521537
0.0056162673
0.0033431801
0.0049922608
0.0033411667
0.0044414396
0.0032488418
0.0039616863
0.0031061625
0.0035430472
0.0029419855
0.0031753066
0.0027698202
0.0028500332
0.0025967373
0.0025603142
0.0024271816
0.0023005381
0.0022637129
0.0020661535
0.0021077215
0.0018535119
0.0019598086
0.0016597181
0.001820057
0.0014824737
0.0016882074
0.0013199667
0.0015639257
0.0011708311
0.0014466701
0.0010339047
0.0013360121
0.00090823142
0.0012315411
0.00079304864
0.0011329243
0.0006876802
0.0010397746
0.00059161774
0.00095176455
0.00050438802
0.00086864952
0.00042555125
0.00079023604
0.0003546349
0.00071639733
0.00029129514
0.00064692239
0.00023514628
0.00058174024
0.00018569255
0.00052104899
0.00014259731
0.00046457737
0.00010544773
0.00041235979
7.3790369e-05
0.0003644239
4.726005e-05
0.00032081581
2.533557e-05
0.00028163911
7.5533191e-06
0.00024687803
-6.8147324e-06
0.00021675573
-1.7386514e-05
0.00019011212
-2.6234345e-05
0.00017199121
0.00014721794
-0.00010317886
0.00067673802
-0.00017475066
0.00067942462
-0.00024680915
0.00068250178
-0.00031966289
0.00068649023
-0.00039322772
0.00069091149
-0.00046764204
0.00069576524
-0.00054293563
0.00070088707
-0.00061915491
0.00070607693
-0.00069627919
0.00071119358
-0.00077424274
0.00071593087
-0.00085300118
0.00072021254
-0.00093244372
0.00072384177
-0.0010124545
0.00072666918
-0.0010929433
0.00072857423
-0.0011737182
0.00072939833
-0.0012546726
0.00072908643
-0.0013356196
0.00072761039
-0.0014164396
0.00072485169
-0.0014969964
0.00072086882
-0.0015771846
0.00071564051
-0.0016569585
0.00070921563
-0.0017363048
0.0007016313
-0.0018152896
0.00069297829
-0.0018940001
0.00068314738
-0.0019726673
0.00067210241
-0.0020515066
0.00065962225
-0.0021307779
0.00064532614
-0.0022106742
0.00062857957
-0.0022914644
0.00060855261
-0.0023731461
0.00058406954
-0.0024557805
0.00055387171
-0.0025391545
0.00051618059
-0.0026225778
0.00046859805
-0.0027049987
0.00040868404
-0.0027847459
0.00033342976
-0.0028591106
0.00023940367
-0.0029246651
0.00012345778
-0.00297687
-1.7791403e-05
-0.0030114708
-0.00018503989
-0.0030251285
-0.0003768798
-0.0030153692
-0.00059221795
-0.0029793185
-0.00083136746
-0.0029136389
-0.0010940066
-0.0028171086
-0.0013758821
-0.0026961848
-0.0016681329
-0.0025796595
-0.001951235
-0.0025277847
-0.0021885345
-0.0025041671
-0.0024514099
-0.0019775334
-0.0033405359
0.00014885282
-0.0059789124
0.0031709423
-0.0089910634
0.0059197408
-0.010628606
0.0085893903
-0.011879638
0.011230727
-0.012423466
0.01338182
-0.011539132
0.015045907
-0.0096025033
0.015929619
-0.0066063285
0.016015029
-0.0028839285
0.015508174
0.00044235561
0.014126159
0.0032889071
0.01191225
0.0049318724
0.0095566823
0.0054298356
0.0077021678
0.0050055773
0.0064579815
0.0044963443
0.0055961709
0.0042049873
0.0049062962
0.0040310401
0.0043154428
0.0038396987
0.0038094223
0.003612184
0.0033777473
0.0033736614
0.003006569
0.0031409966
0.002683418
0.0029198915
0.0023988587
0.002711739
0.0021458648
0.0025167089
0.0019190024
0.00233458
0.0017140929
0.0021647194
0.0015279078
0.0020062372
0.0013579808
0.001858132
0.0012024754
0.0017194281
0.0010599532
0.0015891892
0.00092922376
0.0014667393
0.00080932753
0.0013514322
0.00069959606
0.0012426554
0.00059943416
0.001139937
0.00050833018
0.0010428682
0.00042584123
0.00095114009
0.00035155143
0.00086452814
0.0002851153
0.00078283476
0.00022617326
0.00070586458
0.00017425424
0.00063365914
0.00012912341
0.00056617735
9.035939e-05
0.00050333818
5.7581983e-05
0.00044513596
3.029099e-05
0.00039171647
8.133551e-06
0.00034297276
-9.3625535e-06
0.00029913306
-2.2714433e-05
0.00026023094
-3.2300526e-05
0.00022633998
-3.9495944e-05
0.00019730585
-4.3042754e-05
0.00017554171
0.00014925079
-0.0001009181
0.00074683582
-0.00017164187
0.00075015307
-0.00024301322
0.00075387448
-0.00031526107
0.00075873225
-0.00038838017
0.00076403269
-0.00046253984
0.00076992694
-0.00053776958
0.00077611603
-0.00061408864
0.00078239817
-0.00069147706
0.00078858211
-0.00076990347
0.00079435415
-0.00084925659
0.00079956703
-0.00092945692
0.00080404575
-0.0010103598
0.0008075716
-0.0010918121
0.00081002675
-0.0011736658
0.0008112565
-0.0012557509
0.00081117345
-0.0013378775
0.00080973438
-0.0014198765
0.0008068502
-0.001501578
0.00080257339
-0.0015828753
0.00079693814
-0.0016637619
0.00079009954
-0.0017442214
0.00078209055
-0.0018242961
0.00077305429
-0.0019042743
0.00076312368
-0.0019844246
0.00075224897
-0.0020651409
0.00074033864
-0.002146885
0.000727074
-0.0022302034
0.00071189966
-0.0023154724
0.00069381919
-0.0024030754
0.00067166973
-0.0024934003
0.00064419617
-0.0025864794
0.00060925996
-0.0026822964
0.00056441353
-0.0027800574
0.00050644291
-0.002878236
0.00043160772
-0.0029742333
0.00033539987
-0.0030635259
0.00021274847
-0.0031403324
5.9015065e-05
-0.0031986544
-0.00012671665
-0.0032346062
-0.00034092834
-0.0032472268
-0.00057959763
-0.0032329398
-0.00084565421
-0.0031832032
-0.0011437433
-0.0030949531
-0.0014641322
-0.0029946944
-0.0017683925
-0.0029570854
-0.0019888424
-0.0030235637
-0.0021220534
-0.0028232273
-0.0026517461
-0.001267252
-0.0048965106
0.0021119498
-0.0093581126
0.0049340508
-0.011813162
0.007324445
-0.013019001
0.0093515452
-0.01390674
0.011148142
-0.014220061
0.013043189
-0.013434177
0.014735472
-0.011294783
0.015942065
-0.0078129236
0.016513843
-0.0034557084
0.016056531
0.00089966772
0.014824593
0.0045208487
0.012915954
0.0068405121
0.01079928
0.0075465095
0.0084030399
0.0074018158
0.0066013418
0.0062980404
0.0054431046
0.0053632224
0.0046833748
0.0047907711
0.0040881197
0.0044349525
0.0035823052
0.0041179983
0.0031532726
0.0038026952
0.0027899271
0.003504345
0.00247787
0.0032319495
0.0022055113
0.0029840931
0.0019647335
0.0027574866
0.0017495948
0.0025497172
0.0015556293
0.0023586812
0.0013795625
0.0021823007
0.0012189198
0.0020187724
0.0010718942
0.0018664505
0.00093712455
0.0017239585
0.0008134798
0.0015903852
0.00070015289
0.0014647599
0.00059652249
0.0013462838
0.00050205558
0.0012344022
0.00041633154
0.0011285929
0.00033898232
0.0010284892
0.00026966977
0.00093384181
0.00020807761
0.00084442927
0.00015387426
0.00076006745
0.00010668476
0.00068084596
6.6231055e-05
0.0006066299
3.2153095e-05
0.00053741366
4.1209788e-06
0.00047316718
-1.8282253e-05
0.00041411755
-3.5593124e-05
0.00036028243
-4.8216994e-05
0.00031175448
-5.6619395e-05
0.00026863297
-6.1268635e-05
0.00023098864
-6.3357148e-05
0.0001993945
-6.1809417e-05
0.00017399497
0.00014665733
-9.8176975e-05
0.00081579501
-0.00016787215
0.00081984553
-0.00023835868
0.00082435923
-0.00030983164
0.00083020705
-0.00038249418
0.00083669431
-0.00045637312
0.00084380435
-0.00053152635
0.00085127158
-0.00060797065
0.00085884236
-0.00068568724
0.00086629521
-0.00076461998
0.00087328766
-0.00084468309
0.0008796332
-0.00092573915
0.00088510095
-0.0010076593
0.00088949157
-0.0010902608
0.00089263314
-0.001173347
0.00089434641
-0.0012567248
0.00089454986
-0.001340172
0.00089318099
-0.0014234635
0.00089014428
-0.0015064381
0.00088554806
-0.001588948
0.00087944478
-0.0016708817
0.00087203193
-0.0017523111
0.00086352113
-0.0018333567
0.00085409876
-0.0019142203
0.00084398354
-0.0019953965
0.00083342436
-0.0020775427
0.00082248822
-0.0021613047
0.00081083848
-0.002247521
0.00079811503
-0.002336935
0.00078323117
-0.0024301513
0.00076488494
-0.0025278714
0.00074191524
-0.0026310922
0.00071247928
-0.0027401266
0.00067344576
-0.0028548002
0.000621114
-0.0029742439
0.00055105059
-0.0030959546
0.00045711138
-0.0032147176
0.00033151151
-0.0033213699
0.00016566623
-0.0034053583
-4.272892e-05
-0.0034650603
-0.00028122566
-0.0035047944
-0.00053986129
-0.0035174884
-0.00083295962
-0.0034833513
-0.0011778819
-0.0034092509
-0.001538232
-0.0033594928
-0.0018181483
-0.003413508
-0.0019348253
-0.0034294186
-0.0021061412
-0.0026450469
-0.0034361165
-0.00013126499
-0.0074102906
0.0028223053
-0.012311682
0.0048448966
-0.013835754
0.006457332
-0.014631436
0.0080766577
-0.015526065
0.010001779
-0.016145181
0.012066131
-0.015498529
0.013822937
-0.013051587
0.014978037
-0.0089680233
0.015521236
-0.0039989107
0.015413089
0.0010078163
0.014541572
0.0053923609
0.012825258
0.0085568336
0.010411553
0.009960206
0.0084664168
0.0093469566
0.0065167483
0.0082477111
0.0051541284
0.0067258439
0.0043208765
0.0056240207
0.0037426827
0.0050131461
0.0032671705
0.0045935127
0.0028629157
0.0042069502
0.0025223082
0.0038449541
0.0022320917
0.0035221666
0.0019800261
0.0032361643
0.001757524
0.0029799847
0.0015585812
0.0027486617
0.001378923
0.0025383417
0.0012154751
0.0023457486
0.001065996
0.0021682471
0.0009289464
0.0020034996
0.00080295639
0.001849944
0.00068727548
0.0017060619
0.00058119527
0.0015708402
0.00048418046
0.0014433002
0.00039587378
0.00132271
0.00031593377
0.0012085329
0.00024406804
0.0011003544
0.00018007761
0.00099783402
0.00012364537
0.00090086205
7.4501248e-05
0.00080921091
3.2405074e-05
0.00072294072
-2.9804039e-06
0.00064201527
-3.1955247e-05
0.00056638421
-5.4888753e-05
0.00049610112
-7.2158182e-05
0.00043138671
-8.4146705e-05
0.00037226899
-9.1343015e-05
0.00031894839
-9.4224148e-05
0.00027151305
-9.3320294e-05
0.00023008386
-8.9346193e-05
0.00019542064
-8.225149e-05
0.00016690177
0.00013847209
-9.4860209e-05
0.00088335351
-0.00016330731
0.0008882844
-0.00023274463
0.00089380037
-0.0003034032
0.00090086447
-0.00037544939
0.00090873721
-0.00044894629
0.00091730298
-0.00052398607
0.00092631117
-0.00060057928
0.000935432
-0.00067865884
0.00094437523
-0.00075820785
0.00095283939
-0.00083908165
0.00096050585
-0.00092115656
0.00096717503
-0.0010042642
0.00097260353
-0.0010881847
0.00097655764
-0.0011727188
0.00097887997
-0.0012575839
0.00097941487
-0.0013425134
0.000978113
-0.0014272884
0.00097491925
-0.0015116366
0.00096989221
-0.0015953831
0.00096318858
-0.0016783629
0.00095501252
-0.0017605735
0.00094573131
-0.0018421871
0.00093570872
-0.0019235708
0.00092536531
-0.0020053202
0.00091517633
-0.0020880932
0.00090526468
-0.0021730669
0.00089581225
-0.0022613768
0.00088642291
-0.0023541892
0.00087604283
-0.0024523644
0.00086306002
-0.0025570325
0.00084658142
-0.0026698735
0.00082531716
-0.0027922221
0.00079579241
-0.0029253578
0.00075424886
-0.0030695703
0.00069526324
-0.0032225389
0.00061008018
-0.0033776893
0.00048666041
-0.0035204772
0.00030845296
-0.0036343713
7.1167807e-05
-0.0037235613
-0.00019203216
-0.0037965945
-0.00046682761
-0.0038380359
-0.00079152001
-0.0038275616
-0.0011883557
-0.0037965773
-0.001569213
-0.0038007092
-0.0018140144
-0.0037798894
-0.0019556449
-0.0032621077
-0.0026239209
-0.0015579884
-0.0051402325
0.001241972
-0.01021025
0.0022051066
-0.013274816
0.0032053512
-0.014836
0.0044594735
-0.015885558
0.0060652552
-0.017131843
0.0080171448
-0.018097071
0.010034275
-0.017515662
0.011673093
-0.014690403
0.012698563
-0.0099934892
0.013121328
-0.0044216785
0.013078995
0.0010501496
0.012605441
0.0058659153
0.011795591
0.0093666864
0.010021559
0.011734238
0.0080274678
0.011341046
0.0061297925
0.010145389
0.0047340199
0.0081216183
0.0038513723
0.0065066672
0.0032889966
0.0055755201
0.0028615156
0.0050209935
0.0025052097
0.0045632587
0.0022044411
0.0041457258
0.0019476969
0.0037789104