/*--------------------------------*- C++ -*----------------------------------*\
  =========                 |
  \\      /  F ield         | OpenFOAM: The Open Source CFD Toolbox
   \\    /   O peration     | Website:  https://openfoam.org
    \\  /    A nd           | Version:  9
     \\/     M anipulation  |
\*---------------------------------------------------------------------------*/
FoamFile
{
    format      ascii;
    class       surfaceScalarField;
    location    "0.83";
    object      alphaPhi0.phase1;
}
// * * * * * * * * * * * * * * * * * * * * * * * * * * * * * * * * * * * * * //

dimensions      [0 3 -1 0 0 0 0];

internalField   nonuniform List<scalar> 
19800
(
1.5632613e-88
2.8157715e-88
1.594265e-87
1.1671344e-87
9.0700308e-86
5.267681e-86
2.9271768e-85
2.3105878e-85
3.4626805e-85
2.6472994e-85
7.1601296e-86
9.7059044e-86
5.3362264e-86
3.528292e-86
5.7828861e-86
3.6846404e-86
3.6601625e-85
1.3385747e-85
5.9487613e-83
1.8624106e-83
7.3592661e-81
2.3242062e-81
8.0099784e-79
2.5858602e-79
7.7942495e-77
2.6033704e-77
6.8349796e-75
2.3885033e-75
5.4082255e-73
2.0065196e-73
3.8688033e-71
1.5478166e-71
2.5050163e-69
1.1005418e-69
1.466342e-67
7.2401724e-68
7.7102032e-66
4.4280336e-66
3.5903134e-64
2.5227518e-64
1.4296412e-62
1.3430572e-62
4.3952536e-61
6.6869025e-61
6.1366886e-60
3.1243036e-59
-4.2641895e-58
1.3787795e-57
-5.1633882e-56
5.8858865e-56
-3.9118696e-54
2.4871185e-54
-2.2471741e-52
9.9239598e-53
-8.9558228e-51
3.2994357e-51
-2.7809658e-49
8.9509795e-50
-9.0247337e-48
2.3597715e-48
-3.5378849e-46
7.3923451e-47
-1.5313696e-44
2.7143094e-45
-6.6459984e-43
1.0504816e-43
-2.8123483e-41
4.1577095e-42
-1.1930498e-39
1.7238068e-40
-5.7080613e-38
8.0626739e-39
-3.6591386e-36
4.840403e-37
-3.2914474e-34
4.0175484e-35
-3.6042171e-32
4.1649819e-33
-4.1284922e-30
4.5968616e-31
-4.5579457e-28
4.8716418e-29
-4.6600213e-26
4.6855827e-27
-4.3034617e-24
3.9307796e-25
-3.5338363e-22
2.7604233e-23
-2.6398767e-20
1.5004249e-21
-1.9638201e-18
4.2353649e-20
-1.3364613e-16
-2.2865886e-18
-5.1677282e-15
0
-6.5978773e-14
0
-2.2304479e-13
-4.1908793e-13
-1.1007982e-14
-3.638055e-12
6.9532284e-12
-2.4310157e-11
3.9141973e-11
-6.4911577e-11
1.3125043e-10
-1.720941e-10
2.39951e-10
-4.3515127e-10
3.6975373e-10
-4.744163e-10
3.5403588e-10
-3.373248e-10
1.1393403e-10
0
1.8583341e-11
0
1.1203232e-12
5.3205683e-12
5.18621e-14
1.3451773e-12
2.138589e-14
1.152791e-13
7.3239625e-15
4.1972428e-15
1.3111082e-15
8.9590712e-16
1.4032301e-16
1.7574886e-16
8.017859e-18
1.9518244e-17
2.9508248e-19
1.2387955e-18
9.0634261e-21
5.6722955e-20
2.4584619e-22
2.1251101e-21
5.6565575e-24
6.6333816e-23
1.082473e-25
1.716863e-24
1.7238825e-27
3.68418e-26
2.293584e-29
6.5811575e-28
2.5650603e-31
9.8590266e-30
2.4436916e-33
1.2563649e-31
2.0274266e-35
1.3973782e-33
1.4901404e-37
1.4094421e-35
9.3921082e-40
1.3419156e-37
4.1155633e-42
1.2298009e-39
-4.4074866e-45
1.0731058e-41
-3.6419507e-46
8.7541024e-44
-5.1568443e-48
6.8503428e-46
-5.021226e-50
4.7762118e-48
-3.8542281e-52
2.946312e-50
-2.4388492e-54
1.5917438e-52
-1.2936471e-56
7.4464989e-55
-5.7741768e-59
2.9794037e-57
-2.1636695e-61
1.003185e-59
-6.7625841e-64
2.7721531e-62
-1.7486707e-66
6.0595562e-65
-3.6397547e-69
9.7582084e-68
-7.6798614e-71
9.3201163e-71
-2.8975405e-69
-4.1477236e-70
-5.9770147e-69
-4.4994546e-70
-2.5583965e-67
-3.5601331e-68
-9.5565107e-66
-1.9609524e-66
-2.1939996e-64
-1.1908035e-64
-2.6079203e-63
-6.1588743e-63
-2.5398248e-62
-1.073835e-61
-1.0213903e-60
1.5526933e-88
2.0574569e-88
1.6905736e-86
1.5298714e-86
6.9387081e-85
5.5456312e-85
2.5253104e-84
2.5336935e-84
3.1283161e-84
3.4801195e-84
2.1000161e-84
2.8424524e-84
1.0721755e-84
1.6497589e-84
8.7196494e-85
8.9986761e-85
9.8727972e-84
5.7092945e-84
1.6851468e-81
9.16902e-82
2.2332659e-79
1.2607305e-79
2.6012922e-77
1.5417391e-77
2.6898893e-75
1.6930173e-75
2.489113e-73
1.6808947e-73
2.0710138e-71
1.5241761e-71
1.5574054e-69
1.2644302e-69
1.0590142e-67
9.672364e-68
6.5014061e-66
6.8448072e-66
3.5835073e-64
4.5018363e-64
1.7481212e-62
2.7604591e-62
7.2691437e-61
1.5853913e-60
2.3399523e-59
8.5034323e-59
3.3909757e-58
4.2934598e-57
-2.6627266e-56
2.0559918e-55
-3.3789683e-54
9.4926181e-54
-2.5070802e-52
4.197413e-52
-1.3968053e-50
1.7051589e-50
-6.2726743e-49
6.1661422e-49
-2.6051609e-47
2.0871544e-47
-1.1127089e-45
7.2642147e-46
-4.8651362e-44
2.6720473e-44
-2.0921536e-42
1.0004714e-42
-8.6826479e-41
3.7291451e-41
-3.4441478e-39
1.3905024e-39
-1.3307584e-37
5.3238924e-38
-5.6888765e-36
2.2641046e-36
-3.3942165e-34
1.2649188e-34
-3.1168769e-32
1.0623489e-32
-3.6722327e-30
1.1937531e-30
-4.5654941e-28
1.4588064e-28
-5.4495082e-26
1.7177798e-26
-5.9844603e-24
1.8363647e-24
-5.9335239e-22
1.7155476e-22
-5.3643552e-20
1.3559416e-20
-3.6698648e-18
8.7318124e-19
-1.1970445e-16
8.4647659e-17
-7.9479967e-15
4.7028017e-15
-1.6180465e-12
0
-1.1099997e-11
0
-2.0207659e-11
0
-3.2354289e-12
-3.4116585e-11
2.1759814e-10
-2.6373488e-10
8.7297215e-10
-2.0220465e-09
3.2739074e-09
-1.4392484e-08
4.0243717e-09
-4.0659639e-09
1.95595e-08
-2.2079075e-08
2.5173328e-08
-2.2328785e-08
1.5905336e-08
-9.2102281e-09
1.869277e-09
7.1574528e-10
1.8706073e-10
1.5462102e-09
1.3948177e-11
1.7416939e-10
5.1318124e-13
1.3487183e-11
1.6748987e-14
5.0311509e-13
8.2231428e-15
3.9376254e-14
4.7446087e-15
6.044397e-15
3.5879796e-16
1.3903106e-15
7.9933082e-18
9.4637484e-17
1.4730749e-19
3.0780485e-18
2.9903312e-21
8.3802586e-20
5.4421414e-23
1.9986878e-21
8.2714717e-25
4.0119049e-23
1.0449779e-26
6.7008093e-25
1.107911e-28
9.3483189e-27
1.0047079e-30
1.104873e-28
8.1034775e-33
1.1371485e-30
6.1246506e-35
1.0799343e-32
4.3819602e-37
1.0243928e-34
2.6124979e-39
1.0125206e-36
6.3368556e-42
1.0062167e-38
-1.228456e-43
9.410174e-41
-2.5791669e-45
8.3033852e-43
-3.1059105e-47
6.6097162e-45
-2.8377365e-49
4.6407112e-47
-2.1027642e-51
2.8509656e-49
-1.292834e-53
1.517098e-51
-6.6447202e-56
6.9026331e-54
-2.854417e-58
2.6426928e-56
-1.0204024e-60
8.331607e-59
-3.0156841e-63
2.0926711e-61
-7.3067489e-66
3.9423949e-64
-1.032356e-68
4.7510972e-67
-5.6359487e-69
6.9709496e-71
-9.9355903e-68
-6.6119409e-69
-8.7678219e-66
-1.2526208e-66
-4.4528542e-64
-9.9774601e-65
-1.3877591e-62
-4.35077e-63
-2.7004017e-61
-1.1105343e-61
-2.8337439e-60
-1.6292261e-60
-1.7040942e-59
-1.2043469e-59
-4.1638883e-59
1.0242557e-85
1.6497571e-85
2.2853572e-83
1.3759976e-83
6.2111869e-82
3.6135233e-82
1.6963822e-81
1.3228815e-81
2.0348285e-81
1.708629e-81
1.2698097e-81
1.3520601e-81
6.2579777e-82
7.7877129e-82
5.050483e-82
4.3591782e-82
4.1204813e-81
2.105132e-81
7.6113972e-79
3.6518054e-79
1.0400558e-76
5.3353095e-77
1.2432489e-74
6.8716474e-75
1.3135686e-72
7.9134838e-73
1.2371661e-70
8.1987159e-71
1.047832e-68
7.6925092e-69
7.9905006e-67
6.6043976e-67
5.4975188e-65
5.2072088e-65
3.4105842e-63
3.7823222e-63
1.8958358e-61
2.5468362e-61
9.2981186e-60
1.5954672e-59
3.9332214e-58
9.2776886e-58
1.3015381e-56
5.0334799e-56
2.2723145e-55
2.5368939e-54
-1.0027172e-53
1.2096678e-52
-1.6245528e-51
5.7729485e-51
-1.4518259e-49
2.7719795e-49
-7.9534224e-48
1.1307306e-47
-2.5518509e-46
3.2721713e-46
-6.4136299e-45
7.2652063e-45
-1.8720846e-43
1.6702379e-43
-6.9312465e-42
4.9318032e-42
-2.7672477e-40
1.6875898e-40
-1.0823429e-38
5.8764086e-39
-4.015718e-37
2.0263708e-37
-1.3821092e-35
6.9690723e-36
-4.8041058e-34
2.5165854e-34
-2.2577352e-32
1.139868e-32
-1.8587993e-30
8.4278839e-31
-2.2383208e-28
9.6202295e-29
-2.9632548e-26
1.2707265e-26
-3.7867682e-24
1.6420515e-24
-4.5878428e-22
1.9388892e-22
-6.2194958e-20
2.0270834e-20
-4.0124083e-18
1.7253043e-18
-6.110894e-17
1.3951708e-16
-3.0030443e-14
2.8971115e-14
-1.1640854e-12
1.0818322e-12
-9.1158769e-11
0
-1.0101739e-09
-3.9700504e-09
-4.9086606e-10
-1.7401409e-08
5.228453e-09
-6.1294573e-08
2.0649458e-08
-5.4727026e-08
3.2630493e-08
-3.382668e-08
5.1687857e-08
-6.4217966e-08
9.0619563e-08
-3.2649605e-08
1.4295271e-07
-5.6455179e-08
1.6116504e-07
-3.3412026e-08
1.7210357e-07
-1.3019679e-08
1.4606256e-07
1.3988341e-08
1.3714065e-08
1.1429619e-08
1.249633e-09
1.2596494e-08
4.2582635e-11
1.2178046e-09
2.2597389e-12
4.0659333e-11
4.2086807e-14
2.2780315e-12
4.5107037e-14
1.9278199e-13
3.704875e-14
4.5246463e-14
1.9985254e-15
6.2413688e-15
1.6406916e-17
2.3173453e-16
2.2990296e-19
5.256184e-18
3.4835171e-21
1.4806022e-19
4.4022593e-23
2.969744e-21
4.5237778e-25
4.2998001e-23
3.7002009e-27
4.9369973e-25
2.3948005e-29
4.5561596e-27
1.2742136e-31
3.4451864e-29
6.2198172e-34
2.3231061e-31
3.1432917e-36
1.6634593e-33
1.0575722e-38
1.4629012e-35
-1.2003642e-40
1.4440528e-37
-3.3070605e-42
1.3910138e-39
-4.5965348e-44
1.2285687e-41
-4.7531447e-46
9.5730556e-44
-3.9617782e-48
6.5340535e-46
-2.7327668e-50
3.870415e-48
-1.5732052e-52
1.9662143e-50
-7.5644105e-55
8.4444238e-53
-3.028813e-57
3.0088321e-55
-1.0050561e-59
8.6687518e-58
-2.7512567e-62
1.9358602e-60
-6.1649641e-65
3.0502558e-63
-5.821756e-67
2.2265857e-66
-1.4025512e-66
-5.6042086e-68
-1.5312535e-64
-1.8860031e-65
-1.019142e-62
-2.1729696e-63
-4.2510676e-61
-1.3299747e-61
-1.1462574e-59
-4.8673723e-60
-1.9949637e-58
-1.0960298e-58
-1.9194218e-57
-1.4636186e-57
-1.0453518e-56
-1.0078926e-56
-3.2809491e-56
5.7832965e-83
3.4553189e-83
1.8000586e-80
4.572306e-81
3.5218588e-79
1.0316557e-79
7.845002e-79
3.4720237e-79
9.2895714e-79
4.7079646e-79
5.6023711e-79
4.0225578e-79
2.7006378e-79
2.4429547e-79
2.1743309e-79
1.4363374e-79
1.4442623e-78
6.1127573e-79
2.8879102e-76
1.1698946e-76
4.1066533e-74
1.8434017e-74
5.0684401e-72
2.5401566e-72
5.5210217e-70
3.0820925e-70
5.3443823e-68
3.3591989e-68
4.6310462e-66
3.2963192e-66
3.6114016e-64
2.9434045e-64
2.5400062e-62
2.4056119e-62
1.6092858e-60
1.8072368e-60
9.156681e-59
1.2538633e-58
4.6391394e-57
8.0671706e-57
2.0289388e-55
4.8286244e-55
7.1613308e-54
2.681898e-53
1.5771045e-52
1.3730004e-51
-2.399301e-51
6.6213458e-50
-6.9560619e-49
3.3280987e-48
-8.8054895e-47
1.869571e-46
-5.8838787e-45
8.8488175e-45
-1.6413322e-43
2.389869e-43
-2.535218e-42
3.7343086e-42
-3.9864862e-41
4.9411945e-41
-1.0067028e-39
9.188579e-40
-3.5360003e-38
2.6298846e-38
-1.3177251e-36
8.5467757e-37
-4.8233095e-35
2.7999086e-35
-1.6068013e-33
9.0219454e-34
-4.5683491e-32
2.8017482e-32
-1.3814372e-30
9.1281775e-31
-7.4681418e-29
4.4656017e-29
-7.9699563e-27
4.2962594e-27
-1.0830471e-24
5.826351e-25
-1.5448679e-22
8.2606466e-23
-2.6242103e-20
1.1046057e-20
-2.0274189e-18
1.2385979e-18
-1.0093365e-16
1.1080092e-16
-1.2813459e-14
1.1757749e-14
-1.1391421e-12
1.0544394e-12
-4.199741e-11
3.8956407e-11
-7.3805369e-09
-2.6805646e-09
-2.3422047e-09
-6.9083758e-08
1.155193e-08
-6.173769e-08
2.9736338e-08
-7.5527625e-08
3.9426725e-08
-6.5981589e-08
2.6687405e-08
-2.0417862e-08
1.6960859e-08
-6.4351457e-09
3.667667e-08
-9.4470186e-09
6.8883628e-08
-8.7244341e-09
1.8865681e-07
-1.0197799e-08
1.8646184e-07
-2.5231863e-09
1.8471511e-07
2.1887261e-08
1.5826257e-07
4.8035819e-08
6.2657341e-08
5.6128831e-08
1.2649659e-09
1.9875981e-08
8.492496e-11
1.2033242e-09
4.9409506e-12
8.1132551e-11
1.0532649e-13
5.0999422e-12
2.93696e-15
1.3344102e-13
4.2504265e-16
2.1787219e-15
1.1924182e-17
1.1341657e-16
4.9189989e-19
6.0452259e-18
2.539927e-20
5.4028358e-19
4.1562974e-22
2.2599142e-20
2.1126814e-24
2.8363331e-22
1.2187985e-26
2.3532706e-24
6.8888703e-29
1.8855303e-26
4.3902201e-31
1.4082219e-28
2.4995644e-33
1.1665467e-30
1.0350115e-35
1.1982656e-32
-8.5745261e-38
1.3333881e-34
-2.9684512e-39
1.408296e-36
-4.634579e-41
1.3653264e-38
-5.3087756e-43
1.1679852e-40
-4.8859401e-45
8.7632647e-43
-3.7227146e-47
5.7169545e-45
-2.3725267e-49
3.2066867e-47
-1.2669875e-51
1.5256546e-49
-5.6624668e-54
6.076051e-52
-2.115133e-56
1.9908409e-54
-6.6213369e-59
5.2385129e-57
-1.7536779e-61
1.0548825e-59
-2.9966754e-64
1.3980093e-62
-1.4363909e-64
1.5022315e-66
-1.7080229e-63
-1.439592e-64
-1.4573051e-61
-2.6047339e-62
-7.830342e-60
-2.207644e-60
-2.7783066e-58
-1.1045001e-58
-6.6106004e-57
-3.4967398e-57
-1.0398259e-55
-7.0564837e-56
-9.2623092e-55
-8.65643e-55
-4.5799844e-54
-5.583391e-54
-1.7166646e-53
2.4317501e-80
-8.1402269e-81
8.5228372e-78
-8.0273179e-79
1.4111691e-76
-1.7759112e-78
2.8006581e-76
2.4050832e-77
3.2905377e-76
6.2006463e-77
1.9523087e-76
7.2019073e-77
9.2553935e-77
5.2172754e-77
7.4319324e-77
3.4229428e-77
4.0236288e-76
1.3375407e-76
8.9256917e-74
2.9382565e-74
1.3343715e-71
5.1246611e-72
1.7192266e-69
7.6134035e-70
1.9353367e-67
9.8946715e-68
1.9334578e-65
1.1351537e-65
1.7231593e-63
1.1700019e-63
1.3804781e-61
1.0879414e-61
9.9602105e-60
9.2324756e-60
6.475557e-58
7.1747121e-58
3.7916767e-56
5.123167e-56
1.9756923e-54
3.3937104e-54
8.9903206e-53
2.0848851e-52
3.3827464e-51
1.1863952e-50
8.8564194e-50
6.1991627e-49
1.7085319e-49
3.0153527e-47
-2.1527853e-46
1.5444564e-45
-3.6454868e-44
9.4326808e-44
-3.1713236e-42
5.2059495e-42
-9.8251993e-41
1.5228484e-40
-1.2958102e-39
2.1460169e-39
-1.2579412e-38
1.9995584e-38
-1.7285912e-37
2.108247e-37
-4.2936441e-36
3.9506188e-36
-1.4073152e-34
1.094226e-34
-5.126477e-33
3.3952947e-33
-1.9077445e-31
1.1003075e-31
-5.6507934e-30
3.3580676e-30
-1.1458804e-28
8.5499524e-29
-2.363699e-27
2.0466341e-27
-1.0619237e-25
8.060328e-26
-1.1216887e-23
7.5141315e-24
-1.7364868e-21
1.0224753e-21
-2.241487e-19
1.3104753e-19
-1.2594668e-17
1.3227529e-17
-1.5176831e-15
1.5923924e-15
-1.8132593e-13
1.8523458e-13
-1.3741707e-11
1.3875069e-11
-3.3727163e-09
5.1924342e-10
-1.6003847e-08
-5.0780761e-08
2.2888057e-08
-1.0455858e-07
4.4118243e-08
-7.7943243e-08
2.8597276e-08
-3.5129877e-08
2.2102126e-08
-6.6609594e-09
4.5413537e-09
-4.4758085e-09
4.3465422e-09
-7.5827177e-09
5.8576488e-09
-1.2031849e-08
7.9113614e-09
-1.199363e-08
1.516027e-08
-1.8884805e-08
2.2906981e-08
-1.162905e-08
1.6706031e-07
2.7862929e-08
1.7637436e-07
4.7597428e-08
1.6521597e-07
7.4940007e-08
0
2.8931776e-08
4.0239439e-10
9.6481832e-09
7.5045042e-11
1.0395535e-09
3.0628382e-12
7.7985285e-11
2.7942982e-14
3.196676e-12
4.0222638e-16
3.0025203e-14
1.4207981e-17
4.4401721e-16
1.299152e-18
1.4599464e-17
1.6890216e-19
1.5035775e-18
3.7117233e-21
9.273824e-20
1.2641409e-23
1.3700866e-21
5.140929e-26
9.9710832e-24
2.4397889e-28
7.1259029e-26
1.2029775e-30
5.2772999e-28
4.605855e-33
5.2511819e-30
-4.2069211e-35
6.0203975e-32
-1.6084081e-36
6.8640723e-34
-2.7685415e-38
7.1932929e-36
-3.5184751e-40
6.6410907e-38
-3.6110625e-42
5.3556025e-40
-3.064526e-44
3.7314348e-42
-2.1440606e-46
2.2267811e-44
-1.2347163e-48
1.1438019e-46
-5.9438189e-51
5.1589829e-49
-2.4535604e-53
2.0187463e-51
-8.8648957e-56
6.6160401e-54
-2.8608135e-58
1.7627396e-56
-8.3824719e-61
3.5787117e-59
-6.6890669e-63
4.2096885e-62
-1.4676451e-62
-4.7930779e-64
-1.4524038e-60
-1.8749138e-61
-9.7798827e-59
-2.2801203e-59
-4.386405e-57
-1.5261223e-57
-1.3511659e-55
-6.450503e-56
-2.8728012e-54
-1.7991096e-54
-4.1176381e-53
-3.2883479e-53
-3.4316748e-52
-3.7277249e-52
-1.5466728e-51
-2.2665153e-51
-6.5933107e-51
9.1446153e-78
-1.0569905e-77
2.9565429e-75
-1.3030894e-75
4.4792832e-74
-1.5156076e-74
8.2132171e-74
-2.4572931e-74
9.6181038e-74
-1.1780293e-74
5.5937431e-74
1.7687222e-75
2.6284154e-74
6.0105555e-75
2.0946409e-74
5.6155049e-75
8.5418429e-74
2.0796739e-74
2.230006e-71
5.6576344e-72
3.5783556e-69
1.1333866e-69
4.8515613e-67
1.864247e-67
5.704311e-65
2.6113362e-65
5.8965626e-63
3.1933297e-63
5.4269733e-61
3.4572023e-61
4.4662057e-59
3.3651468e-59
3.3128667e-57
2.9565371e-57
2.2153432e-55
2.3723618e-55
1.3296997e-53
1.7470669e-53
7.1573132e-52
1.1844968e-51
3.3985265e-50
7.4384496e-50
1.3672753e-48
4.3196933e-48
4.1826048e-47
2.3003128e-46
5.643435e-46
1.1379874e-44
-4.5163279e-44
5.7608336e-43
-9.4368854e-42
3.4313705e-41
-9.7774893e-40
1.9708546e-39
-3.8557067e-38
6.5618089e-38
-6.1225711e-37
1.0464284e-36
-5.6358602e-36
9.6380233e-36
-4.9006201e-35
7.4919808e-35
-6.4023972e-34
7.6930034e-34
-1.4252863e-32
1.3585004e-32
-4.5977741e-31
3.5698099e-31
-1.951628e-29
1.1650895e-29
-7.4994311e-28
3.9841346e-28
-1.5676124e-26
1.025087e-26
-1.7212395e-25
1.7116228e-25
-1.9682699e-24
2.4824946e-24
-1.1691095e-22
7.2334985e-23
-3.3117069e-20
7.7124558e-21
-3.6019792e-19
4.4204934e-19
-5.7413879e-18
2.2557496e-17
-1.9519112e-15
3.9046612e-15
-3.5620545e-13
5.6096846e-13
-3.0573208e-11
4.4203085e-11
-1.3425214e-08
4.3965571e-10
3.7555426e-08
-9.3429126e-08
5.0563937e-08
-1.1239344e-07
3.6434041e-08
-3.1278839e-08
4.160097e-09
-4.4553797e-09
2.7801419e-09
-6.9110362e-09
3.6841163e-09
-6.9971026e-09
6.2161165e-09
-1.1726946e-08
1.7048108e-08
-2.4570388e-08
3.5503975e-08
-3.2094699e-08
1.4739368e-07
-1.4377991e-07
1.4819753e-07
-6.624831e-08
8.748931e-08
1.8767375e-08
1.3016037e-08
5.4274178e-08
3.068168e-08
1.3968077e-08
6.4214463e-09
1.0068272e-08
3.1091183e-09
1.3858172e-08
1.3362414e-09
9.3821833e-09
8.5835239e-11
1.3352152e-09
4.5110456e-13
8.8781049e-11
5.6255168e-15
4.5221135e-13
6.6577425e-17
6.0620339e-15
1.1891585e-18
7.9925794e-17
8.2232587e-20
1.5455803e-18
2.0958532e-21
6.2691123e-20
1.0131626e-23
1.4232177e-21
2.489393e-26
9.3671701e-24
1.1054547e-28
5.5097305e-26
5.822109e-31
6.3349988e-28
-9.2783822e-33
1.0015114e-29
-3.1987633e-34
1.3435086e-31
-5.5896597e-36
1.5557163e-33
-7.2049768e-38
1.5291759e-35
-7.4555839e-40
1.2879188e-37
-6.4101327e-42
9.276909e-40
-4.6965152e-44
5.7021685e-42
-3.0214767e-46
3.0333631e-44
-1.7718732e-48
1.460833e-46
-9.6265426e-51
6.7884396e-49
-4.8352788e-53
3.0126503e-51
-2.2553415e-55
1.1976368e-53
-9.3636589e-58
3.9786627e-56
-2.5084203e-60
9.2716984e-59
-1.1560866e-60
8.2383715e-62
-1.0718116e-59
-7.5686345e-61
-8.9471242e-58
-1.5550463e-58
-4.9343989e-56
-1.4105703e-56
-1.8882778e-54
-7.7544753e-55
-5.1264979e-53
-2.8288867e-53
-9.8634997e-52
-7.0430048e-52
-1.2959756e-50
-1.1776486e-50
-1.0177986e-49
-1.2393284e-49
-4.1968853e-49
-7.1411311e-49
-1.9682754e-48
6.7049641e-75
-1.5286853e-74
8.0319006e-73
-5.8816506e-73
1.1699873e-71
-7.4760642e-72
2.0603156e-71
-1.3635138e-71
2.3904171e-71
-1.0211229e-71
1.3883723e-71
-4.3090374e-72
6.3371536e-72
-6.3748832e-73
4.9604153e-72
4.1902992e-73
1.2228651e-71
1.9475682e-72
4.4190622e-69
7.9709395e-70
7.8902947e-67
1.9765228e-67
1.1496645e-64
3.7232065e-65
1.4251995e-62
5.7447106e-63
1.5395322e-60
7.5457247e-61
1.4690033e-58
8.6579554e-59
1.2523653e-56
8.8099787e-57
9.5639245e-55
8.069733e-55
6.5787842e-53
6.6900936e-53
4.0745412e-51
5.0684974e-51
2.2653568e-49
3.5211953e-49
1.117091e-47
2.259412e-47
4.750474e-46
1.3358041e-45
1.6236176e-44
7.2391415e-44
3.6325295e-43
3.6448546e-42
-4.1270594e-42
1.8393144e-40
-1.777192e-39
1.0236395e-38
-1.929551e-37
5.4454995e-37
-9.8309148e-36
1.9740678e-35
-2.3628039e-34
4.040155e-34
-2.9389947e-33
4.7644967e-33
-2.2824971e-32
3.7030803e-32
-1.5890634e-31
2.4348651e-31
-1.6824933e-30
2.0581108e-30
-3.7684667e-29
3.4421637e-29
-1.6326011e-27
1.0314882e-27
-8.1574045e-26
3.9088873e-26
-2.0332536e-24
1.1287799e-24
-1.8949534e-23
1.7129377e-23
-1.018055e-22
1.5581429e-22
-1.2719473e-21
1.5331777e-21
-6.792259e-20
4.9193827e-20
-6.3598418e-19
1.5829724e-18
-7.5932872e-18
1.7182771e-17
0
1.3898359e-15
0
1.8290435e-13
0
1.5842235e-11
1.4886561e-08
-2.3644563e-09
4.4084557e-08
-5.7485834e-08
2.8079288e-08
-7.3181211e-09
3.4181539e-09
-6.7986247e-09
2.9324774e-09
-5.8273351e-09
4.6934136e-09
-1.0271148e-08
7.9910372e-09
-1.1912088e-08
2.5469408e-08
-3.0915238e-08
1.9998796e-07
-2.3062628e-07
4.4788841e-07
-3.7283357e-07
5.5116368e-07
-2.4168224e-07
5.6379086e-07
-7.7469377e-08
5.3211122e-07
5.2980554e-08
6.2521529e-08
9.8937681e-08
2.5054551e-08
2.5949824e-08
4.5921818e-09
9.5041622e-09
6.072864e-09
1.2086268e-08
1.7937635e-09
3.113594e-08
7.0636298e-10
1.3203741e-08
1.8923885e-11
2.184188e-09
3.3943662e-13
1.8299341e-11
5.3490305e-15
3.4303652e-13
6.0571511e-17
5.4239116e-15
7.1855277e-19
6.3742902e-17
2.7219283e-21
8.0516137e-19
5.0813019e-23
9.7427633e-21
1.1675458e-25
1.0145301e-22
2.0384905e-28
1.0248906e-24
-1.3420596e-29
1.3889997e-26
-3.5446227e-31
1.7622604e-28
-5.8286171e-33
1.9881616e-30
-7.4679592e-35
1.99405e-32
-7.9161975e-37
1.7733403e-34
-7.1033988e-39
1.3919325e-36
-5.4524302e-41
9.5958267e-39
-3.6220831e-43
5.7750444e-41
-2.1936138e-45
3.0335428e-43
-1.2222536e-47
1.4389058e-45
-6.6203503e-50
6.1580839e-48
-3.1927764e-52
2.4597831e-50
-1.1901712e-54
8.1194436e-53
-3.9519261e-57
1.8557282e-55
-3.3043726e-59
2.8493858e-58
-6.9206187e-59
-5.6664285e-61
-6.3208261e-57
-6.8934599e-58
-4.205667e-55
-9.1555026e-56
-1.9452311e-53
-6.5464086e-54
-6.4651984e-52
-3.0337656e-52
-1.5667098e-50
-9.7142649e-51
-2.7494016e-49
-2.1832152e-49
-3.3366294e-48
-3.3622806e-48
-2.4826971e-47
-3.3021913e-47
-9.4063688e-47
-1.810791e-46
-4.7373936e-46
1.051593e-71
-3.4647872e-71
1.7229773e-70
-1.6869412e-70
2.5913759e-69
-2.3639064e-69
4.4824685e-69
-4.4480608e-69
5.1399594e-69
-3.6392537e-69
3.0152415e-69
-1.8810027e-69
1.3320849e-69
-5.8636426e-70
7.3063809e-70
-8.6255508e-71
7.3910161e-70
4.8409116e-71
6.3125973e-67
6.9225232e-68
1.3748019e-64
2.554327e-65
2.2316865e-62
5.8962754e-63
2.976347e-60
1.0315317e-60
3.3952681e-58
1.4821876e-58
3.3885828e-56
1.817705e-56
2.9965684e-54
1.9513982e-54
2.3726046e-52
1.8615375e-52
1.6843851e-50
1.6030426e-50
1.0769223e-48
1.2507992e-48
6.1799414e-47
8.9256388e-47
3.1675627e-45
5.8479131e-45
1.4199311e-43
3.5197011e-43
5.3033007e-42
1.9437347e-41
1.5051868e-40
9.9858974e-40
1.596606e-39
5.078332e-38
-2.4959683e-37
2.6519535e-36
-2.9756059e-35
1.2746696e-34
-1.9615729e-33
4.8450813e-33
-7.8895853e-32
1.3294426e-31
-1.4733342e-30
2.2054655e-30
-1.1922772e-29
1.909585e-29
-5.6670385e-29
9.74402e-29
-2.8338016e-28
4.3903707e-28
-3.2847847e-27
3.5210399e-27
-1.299528e-25
8.3930865e-26
-7.9598215e-24
3.3467341e-24
-2.2530277e-22
1.0431393e-22
-1.8647402e-21
1.4950647e-21
-6.4919219e-21
1.0521754e-20
-2.8983715e-20
5.834846e-20
-3.5801322e-19
6.1403697e-19
-1.5406127e-18
8.8064327e-18
-1.5089097e-17
7.1078432e-17
-1.7208183e-14
4.0430119e-15
-1.3631582e-21
2.0237582e-13
1.5618481e-11
2.9219291e-13
3.9218684e-09
-1.1046454e-08
3.4580085e-09
-9.4435676e-09
2.447312e-09
-6.747078e-09
3.95675e-09
-7.408549e-09
8.7246799e-09
-1.0699681e-08
1.5197897e-08
-1.9489673e-08
2.2184875e-08
-2.1906556e-08
2.2209982e-07
-2.7263986e-07
4.4186633e-07
-4.9023081e-07
5.0252127e-07
-4.2828869e-07
5.0951517e-07
-2.472709e-07
4.9412248e-07
-6.0854769e-08
4.7501532e-07
7.3067592e-08
4.1820475e-07
1.5692593e-07
1.2408949e-08
7.7597941e-08
6.7568651e-09
1.205861e-08
1.004075e-08
6.7256068e-09
1.687879e-08
8.8933348e-08
1.6047947e-09
9.6337274e-08
1.0643654e-10
8.0069126e-09
2.9400634e-13
4.3706121e-11
2.9052537e-15
6.7932231e-13
2.4436225e-17
8.7840682e-15
5.2840003e-19
8.2766698e-17
4.7896919e-20
3.0230502e-18
2.1466966e-22
1.2667158e-19
-1.6558026e-25
7.5860934e-22
-1.1310593e-26
7.5755129e-24
-2.5338413e-28
1.00565e-25
-4.1806693e-30
1.2054427e-27
-5.7299067e-32
1.3119561e-29
-6.7438209e-34
1.298361e-31
-6.9244269e-36
1.1578589e-33
-6.2788909e-38
9.247944e-36
-5.1032469e-40
6.5908879e-38
-3.7032833e-42
4.1962129e-40
-2.0681233e-44
2.3358722e-42
-9.5511465e-47
1.0142571e-44
-3.6778226e-49
3.5795494e-47
-1.2232237e-51
1.0140857e-49
-3.8330329e-54
2.3059646e-52
-8.4316127e-57
4.2798581e-55
-4.0894418e-57
5.7405014e-58
-3.5597722e-56
-1.5172346e-57
-2.8392011e-54
-4.1809413e-55
-1.5554474e-52
-4.0473597e-53
-6.1540311e-51
-2.3653934e-51
-1.8013756e-49
-9.4348973e-50
-3.9386299e-48
-2.6864584e-48
-6.3517497e-47
-5.5007265e-47
-7.1739764e-46
-7.8523694e-46
-5.0716034e-45
-7.2368293e-45
-1.7754407e-44
-3.7862455e-44
-9.4292632e-44
1.5162168e-68
-6.1072511e-68
2.8173588e-68
-4.1901244e-68
4.9980306e-67
-5.7743315e-67
8.5990053e-67
-1.1082084e-66
9.733991e-67
-9.4125857e-67
5.7863404e-67
-5.2483498e-67
2.5065297e-67
-1.9112126e-67
6.5431435e-68
-4.3688151e-68
1.1315643e-68
-1.6611803e-69
5.0094091e-65
2.1212637e-66
1.7245985e-62
2.1161463e-63
3.3816905e-60
6.9100337e-61
5.0010657e-58
1.4472444e-58
6.1204178e-56
2.3265794e-56
6.4417023e-54
3.0906231e-54
5.9518205e-52
3.5237102e-52
4.882697e-50
3.5293849e-50
3.5951412e-48
3.1477308e-48
2.3732716e-46
2.541787e-46
1.4089352e-44
1.8626429e-44
7.4765368e-43
1.2491223e-42
3.4961707e-41
7.6645275e-41
1.4025487e-39
4.3089794e-39
4.5631701e-38
2.2607675e-37
9.94234e-37
1.1514945e-35
-1.5930882e-35
5.7107869e-34
-3.7991255e-33
2.5875309e-32
-3.572091e-31
1.0661279e-30
-2.3499333e-29
3.9440469e-29
-5.8909963e-28
8.6197433e-28
-4.8722751e-27
7.9152667e-27
-1.8731888e-26
3.4260241e-26
-5.8241635e-26
1.0404247e-25
-3.6122457e-25
4.4008741e-25
-1.496881e-23
8.2085205e-24
-1.1257529e-21
3.5959223e-22
-2.7458792e-20
9.8273311e-21
-1.5345371e-19
1.0146414e-19
-2.8862115e-19
4.8334935e-19
-4.0655258e-19
1.6210558e-18
-6.4268641e-19
6.4733774e-18
1.3742065e-18
4.0618954e-17
8.049641e-18
1.9693736e-16
-1.1276604e-16
4.2703146e-15
8.1409907e-14
1.0956444e-13
6.6560203e-13
-2.2616436e-13
8.501468e-09
-1.2945523e-08
1.0416927e-09
-4.4928114e-09
3.3368901e-09
-8.7487535e-09
2.1143768e-08
-2.6082333e-08
1.107161e-07
-2.7895564e-07
1.6641428e-07
-6.2597467e-07
1.2096127e-07
-1.3003765e-07
3.3167458e-07
-4.808783e-07
4.6043907e-07
-6.1157e-07
4.470701e-07
-4.3109651e-07
4.3348567e-07
-2.2131644e-07
4.044053e-07
-3.1445723e-08
3.9351329e-07
8.8998068e-08
1.2504537e-07
6.2189431e-08
1.790322e-09
1.4041618e-08
6.1876834e-09
6.0012312e-09
6.4063492e-09
5.2452293e-09
5.985193e-08
2.1671038e-07
4.3679643e-08
3.3347323e-07
3.3585873e-10
4.9389967e-08
3.0201557e-12
3.7469456e-10
2.4697923e-14
3.6457522e-12
3.6681991e-18
3.3381861e-14
8.386308e-19
2.6482849e-16
6.7464886e-21
1.1899315e-17
-1.9187478e-22
2.9153882e-19
-4.9571719e-24
2.340277e-21
-1.0868066e-25
2.7960475e-23
-1.8849536e-27
3.8597852e-25
-2.635468e-29
4.7995948e-27
-3.1425532e-31
5.0932153e-29
-3.2667519e-33
4.7343838e-31
-2.9639743e-35
3.8933907e-33
-2.3312992e-37
2.8086421e-35
-1.5798731e-39
1.7539446e-37
-9.1960642e-42
9.3584641e-40
-4.7194228e-44
4.242499e-42
-2.0583e-46
1.68232e-44
-7.6613302e-49
5.5844843e-47
-2.5092551e-51
1.588385e-49
-7.8089094e-54
3.6748531e-52
-9.1087877e-56
6.6421839e-55
-1.8733047e-55
4.1408901e-57
-1.5710829e-53
-1.2168815e-54
-1.0029356e-51
-1.8519654e-52
-4.6250918e-50
-1.3915797e-50
-1.591236e-48
-6.8289549e-49
-4.1551398e-47
-2.3838083e-47
-8.2689244e-46
-6.1070459e-46
-1.234228e-44
-1.1480059e-44
-1.3071197e-43
-1.5283337e-43
-8.7840537e-43
-1.3290258e-42
-2.8598898e-42
-6.641454e-42
-1.5806747e-41
1.6941693e-65
-7.8544817e-65
6.6977541e-66
-1.3859414e-65
8.4839514e-65
-1.1588683e-64
1.4726974e-64
-2.2916698e-64
1.6530746e-64
-1.9867875e-64
9.9440175e-65
-1.1576092e-64
4.2908827e-65
-4.4703606e-65
1.0959463e-65
-1.2380437e-65
1.3828592e-66
-1.8362588e-67
1.1917905e-63
-1.2082908e-64
7.8734341e-61
4.9311993e-62
2.023571e-58
2.9818883e-59
3.440398e-56
8.0641317e-57
4.6443599e-54
1.5120758e-54
5.2476091e-52
2.227399e-52
5.1315143e-50
2.7377302e-50
4.422623e-48
2.9121041e-48
3.3950234e-46
2.7327746e-46
2.3444149e-44
2.2955512e-44
1.4526553e-42
1.7514601e-42
8.0931596e-41
1.2163739e-40
4.0220987e-39
7.7640698e-39
1.7645675e-37
4.5657628e-37
6.5131694e-36
2.4819157e-35
1.7731261e-34
1.2294976e-33
1.64025e-33
5.6546692e-32
-2.4938053e-31
2.9086381e-30
-9.1370703e-29
2.3959801e-28
-1.2252743e-26
1.8661836e-26
-3.2771574e-25
4.9919175e-25
-2.1988519e-24
3.9547517e-24
-6.2617604e-24
1.2725776e-23
-1.3312351e-23
2.6035214e-23
-5.236608e-23
6.418924e-23
-2.8333006e-21
1.0556928e-21
-1.8500803e-19
4.2290004e-20
-2.450097e-18
5.9107382e-19
-5.9496541e-18
2.5374277e-18
-8.631198e-18
7.3391042e-18
1.5054937e-18
2.9135105e-17
1.3326093e-17
5.6902799e-17
3.3221785e-17
1.2450633e-16
4.1103494e-17
2.3531721e-16
2.0126249e-17
6.161295e-16
1.0747612e-13
1.9417296e-15
7.8540339e-10
-7.8552121e-10
4.9124442e-09
-1.7935959e-09
2.6580723e-09
-1.1863396e-09
3.4054185e-08
-4.4905895e-08
3.5143458e-07
-6.6845651e-07
4.6063554e-07
-7.3124214e-07
4.2728092e-07
-9.0171969e-07
3.5301776e-08
-4.4922661e-07
2.3089565e-07
-4.5524627e-07
1.5790918e-07
-2.0880465e-07
5.2170587e-08
-1.2685904e-08
4.1722645e-08
-2.0639944e-09
4.7209235e-08
-5.0448883e-10
4.2791741e-08
0
1.3584416e-08
1.8197444e-09
2.5076684e-09
3.0629983e-09
3.2115349e-09
4.3683983e-09
2.6373369e-09
4.675163e-09
7.8967204e-08
4.3881007e-07
4.7415866e-08
3.8413507e-07
2.0746719e-10
7.8572092e-08
0
5.7907743e-10
3.2891246e-16
4.1382728e-12
1.3409426e-17
2.8803545e-14
-1.8929131e-18
3.7025223e-16
-9.5661133e-20
1.9226637e-17
-1.4391941e-21
4.2533814e-19
-2.1900796e-23
4.4447323e-21
-3.7370198e-25
5.1237558e-23
-5.7968599e-27
6.4869959e-25
-7.5233179e-29
7.4263646e-27
-8.295409e-31
7.6641432e-29
-7.9092537e-33
6.9785867e-31
-6.5226428e-35
5.5382474e-33
-4.6423136e-37
3.8106518e-35
-2.8442855e-39
2.2595164e-37
-1.5112992e-41
1.1458368e-39
-7.1143395e-44
4.9771848e-42
-2.9477189e-46
1.9123824e-44
-1.1895576e-48
6.7768773e-47
-4.5758435e-51
2.1050885e-49
-1.2549464e-53
5.5609622e-52
-7.4621985e-54
1.3459521e-54
-7.2708217e-53
-7.2174088e-55
-5.3812568e-51
-6.013149e-52
-2.8415293e-49
-6.2750497e-50
-1.1239123e-47
-3.8142467e-48
-3.4107768e-46
-1.6057904e-46
-8.0324242e-45
-4.974998e-45
-1.4674124e-43
-1.1582318e-43
-2.0398431e-42
-2.0137923e-42
-2.0386404e-41
-2.5139531e-41
-1.3028349e-40
-2.0728978e-40
-3.9700653e-40
-9.9030819e-40
-2.2610592e-39
1.4962784e-62
-7.7255019e-62
2.7479411e-63
-8.4231454e-63
1.2192718e-62
-1.9587573e-62
2.2784113e-62
-4.0874617e-62
2.5433801e-62
-3.5967385e-62
1.549515e-62
-2.1533952e-62
6.7171977e-63
-9.635184e-63
1.650905e-63
-1.9529527e-62
6.4668006e-65
-1.4915686e-65
2.6041956e-62
-1.1355861e-63
2.328959e-59
1.2430329e-61
1.6183146e-56
1.5098899e-57
4.4630655e-54
8.1138836e-55
7.4240581e-52
2.0315708e-52
9.4014179e-50
3.4922691e-50
9.9199439e-48
4.7441434e-48
9.058937e-46
5.4058004e-46
7.2827976e-44
5.3544321e-44
5.2167291e-42
4.6806806e-42
3.35432e-40
3.6745829e-40
1.9315603e-38
2.6168385e-38
9.9597383e-37
1.695469e-36
4.5352246e-35
1.0066622e-34
1.7859595e-33
5.4998896e-33
5.6702583e-32
2.7623161e-31
1.1758807e-30
1.2904245e-29
-1.5532784e-29
6.439333e-28
-1.18475e-26
4.7231237e-26
-1.7477861e-24
3.3259101e-24
-5.3854917e-23
8.852656e-23
-4.070545e-22
7.2997826e-22
-1.0966989e-21
2.3085661e-21
-1.9697624e-21
3.9730292e-21
-5.19959e-21
6.5363981e-21
-2.0349924e-19
6.2100871e-20
-9.2867071e-18
1.5336446e-18
-7.7797004e-17
2.7684364e-18
-1.3412665e-16
-1.5235026e-16
-3.8960207e-17
-1.0384491e-16