/*--------------------------------*- C++ -*----------------------------------*\
  =========                 |
  \\      /  F ield         | OpenFOAM: The Open Source CFD Toolbox
   \\    /   O peration     | Website:  https://openfoam.org
    \\  /    A nd           | Version:  9
     \\/     M anipulation  |
\*---------------------------------------------------------------------------*/
FoamFile
{
    format      ascii;
    class       volScalarField;
    location    "0.83";
    object      p;
}
// * * * * * * * * * * * * * * * * * * * * * * * * * * * * * * * * * * * * * //

dimensions      [1 -1 -2 0 0 0 0];

internalField   nonuniform List<scalar> 
10000
(
0
0.0086087925
0.019833326
0.033927785
0.051949728
0.074778794
0.1026251
0.13567447
0.17407062
0.21790368
0.26722939
0.32208223
0.38246522
0.44835726
0.51971916
0.59647437
0.67852413
0.76573917
0.85794361
0.95491148
1.0564028
1.1621548
1.2721262
1.3860764
1.5036299
1.6244639
1.7480088
1.8736086
2.0005054
2.1278002
2.2544323
2.3791443
2.5004233
2.6164744
2.7252669
2.8245482
2.9118707
2.9846643
3.0404101
3.0769277
3.0926871
3.0871221
3.0609696
3.0165923
2.9590828
2.8997019
2.8562268
2.8293378
2.8176162
2.8094205
2.8101091
2.8874927
2.9432562
2.8977621
2.6531158
2.1223289
1.4278757
0.7581536
0.24880382
-0.11454381
-0.37268684
-0.55793216
-0.68763218
-0.79799855
-0.92000744
-1.0620661
-1.2228655
-1.4007864
-1.5938
-1.798829
-2.012789
-2.2330541
-2.4572108
-2.6830544
-2.9086326
-3.1322186
-3.3521955
-3.5671449
-3.7758253
-3.9770871
-4.1699118
-4.3533737
-4.5268372
-4.6895372
-4.840929
-4.9811655
-5.110278
-5.2282777
-5.335209
-5.4314069
-5.5168209
-5.5911304
-5.6541452
-5.7070975
-5.7511805
-5.7863371
-5.8128295
-5.8311515
-5.8416019
-5.8393257
0.018755573
0.018792417
0.02691361
0.039650091
0.056864122
0.079057665
0.10632064
0.13880291
0.17663237
0.21989179
0.26863753
0.32290357
0.38268849
0.44797565
0.51873121
0.5948732
0.67631195
0.76292621
0.85455334
0.95100783
1.0521043
1.1576023
1.2673027
1.3808529
1.4980015
1.618565
1.7419995
1.8676837
1.9949012
2.1228131
2.2504248
2.3765334
2.4996655
2.6180284
2.7294815
2.8315527
2.9214979
2.9963885
3.0532737
3.0894559
3.1028258
3.0922466
3.0580617
3.002337
2.9290752
2.8485927
2.7840975
2.7562103
2.7393828
2.6735273
2.5972088
2.6184026
2.6798236
2.6643874
2.5028918
1.8345989
1.0707961
0.34695372
-0.084667656
-0.42572519
-0.67080556
-0.84578284
-0.93557598
-1.0076035
-1.1043247
-1.2249724
-1.3660055
-1.5258322
-1.7019394
-1.8916371
-2.0923359
-2.3013562
-2.5160532
-2.7339968
-2.9529694
-3.170997
-3.3862901
-3.5972346
-3.8024251
-4.0006538
-4.1907989
-4.3719213
-4.543291
-4.7042414
-4.8543297
-4.9934166
-5.1214211
-5.2384375
-5.3444672
-5.4394844
-5.523613
-5.5972313
-5.6606009
-5.7141874
-5.7585848
-5.7939537
-5.8205226
-5.8387921
-5.8491324
-5.8467968
0.026593339
0.023816606
0.029668442
0.040969781
0.057218852
0.078661085
0.10528936
0.1371861
0.17444447
0.21713703
0.26531946
0.31900696
0.37822132
0.44293079
0.51309932
0.58869194
0.66960597
0.75573355
0.84693369
0.94304221
1.0438677
1.1492165
1.2588411
1.37234
1.4893893
1.6102171
1.7341781
1.8607041
1.9891731
2.1188611
2.2488937
2.378172
2.5052849
2.6284301
2.7453623
2.8533797
2.9493511
3.0298044
3.0910827
3.1296382
3.1423843
3.1271027
3.0830637
3.0111486
2.9118579
2.7904703
2.6865726
2.6531677
2.6628762
2.5106247
2.2012633
2.1867863
2.3641989
2.5133645
2.1153684
2.0137519
1.9871195
0.88398458
0.0044725817
-0.79646793
-0.97900202
-1.1545827
-1.1723036
-1.1883016
-1.256395
-1.3592648
-1.4847269
-1.630371
-1.7937692
-1.9722593
-2.1633962
-2.3643905
-2.5723786
-2.7847011
-2.998972
-3.2130565
-3.425019
-3.6331014
-3.8357575
-4.031675
-4.2197389
-4.3989974
-4.5687167
-4.7282907
-4.8772838
-5.0154839
-5.142731
-5.2590592
-5.3645093
-5.4591863
-5.5433011
-5.6171021
-5.680797
-5.7343879
-5.778491
-5.8135398
-5.8398204
-5.8578115
-5.8678569
-5.8650242
0.023734331
0.01988113
0.024455043
0.034690715
0.050119631
0.070898981
0.096946685
0.12831651
0.165075
0.20727844
0.25496794
0.30817951
0.36690817
0.43116721
0.50092706
0.57613332
0.65671258
0.74256341
0.83356065
0.92955695
1.0303811
1.1358376
1.2457328
1.3596783
1.4766867
1.5982756
1.7232732
1.8512096
1.9816152
2.1139386
2.2474851
2.3813231
2.5141589
2.6442243
2.76919
2.88609
2.991302
3.0806118
3.1493816
3.1928375
3.2064322
3.1861919
3.129636
3.0362496
2.8987619
2.6963372
2.4925258
2.4969238
2.8418157
2.7087785
2.690104
2.8465638
2.5347913
1.9378755
1.4351613
0.64093077
-0.27034079
-0.64444188
-1.2615006
-1.3216532
-1.2178716
-1.882421
-1.5995292
-1.4320391
-1.4309329
-1.5088163
-1.6145792
-1.739906
-1.8849713
-2.0494816
-2.2307609
-2.4246949
-2.6275878
-2.8362481
-3.047816
-3.2598055
-3.4700319
-3.6766126
-3.8778923
-4.0725011
-4.2593495
-4.4374683
-4.6060984
-4.7646717
-4.912746
-5.0500863
-5.1765516
-5.2921175
-5.3968363
-5.49081
-5.5742005
-5.6471552
-5.7100586
-5.7631601
-5.8067899
-5.8413466
-5.8671743
-5.8848059
-5.8944743
-5.8910848
0.015476728
0.011008501
0.014677327
0.024045415
0.038647153
0.058669326
0.084019884
0.11473443
0.15087246
0.19247422
0.23958133
0.29223089
0.35044836
0.41423941
0.48358583
0.55844653
0.63875282
0.72441364
0.81532346
0.91133756
1.012295
1.1180258
1.2284163
1.3434967
1.459911
1.5828837
1.7092765
1.8390153
1.9718677
2.1075206
2.2455378
2.3852474
2.5255757
2.6648772
2.8007822
2.9300651
3.048525
3.1509965
3.231521
3.2836848
3.3009798
3.2770376
3.2069327
3.0880983
2.9011003
2.5658182
2.1107317
2.359253
2.9589397
2.7451223
1.7803907
0.60103144
0.44140524
0.23774901
-0.23627386
-0.71191877
-1.1511845
-1.5968265
-3.372204
-2.9532475
-2.5155667
-2.7951905
-2.2544886
-1.8000657
-1.6634017
-1.692977
-1.7722272
-1.8733395
-1.9944051
-2.1400753
-2.3089345
-2.4947986
-2.6923785
-2.8975467
-3.1067813
-3.3171007
-3.526023
-3.7314891
-3.9317337
-4.1253529
-4.3111847
-4.488272
-4.6558553
-4.8133641
-4.9603617
-5.0966132
-5.2220109
-5.3364998
-5.4401387
-5.5330394
-5.6153599
-5.6874424
-5.7494567
-5.801698
-5.8445816
-5.8783824
-5.9034904
-5.9205196
-5.9296342
-5.9255825
0.0014035322
-0.0035433817
-0.00047614078
0.0080551328
0.021866989
0.041147911
0.065763438
0.095785762
0.13125245
0.17220212
0.21868511
0.27075352
0.32844819
0.39178368
0.46075001
0.53531024
0.61541872
0.7009977
0.79194199
0.88813392
0.98939504
1.0955336
1.20637
1.3216298
1.4405996
1.5640182
1.6917465
1.8234601
1.9590633
2.09852
2.2417414
2.3884395
2.5379183
2.6888376
2.8389469
2.9848281
3.1216606
3.2431171
3.3415203
3.4082858
3.4344385
3.4108639
3.3292029
3.1829011
2.9476099
2.4702519
1.6842893
2.734131
2.8205055
1.6543105
0.73720819
-0.20241122
-0.69781142
-1.3084363
-2.3291071
-3.7148591
-5.0491164
-5.880377
-6.2224415
-5.6987131
-5.2378272
-4.4429456
-3.2413959
-2.3892045
-2.0073704
-1.9227651
-1.947762
-2.0188582
-2.1140659
-2.2393488
-2.3952613
-2.5733134
-2.7660972
-2.9682868
-3.1756662
-3.3847288
-3.592733
-3.797386
-3.9968741
-4.1897055
-4.3746836
-4.5508648
-4.7174727
-4.873929
-5.0198276
-5.1549162
-5.2791089
-5.3923883
-5.4947767
-5.5864182
-5.6675163
-5.7383142
-5.7991052
-5.8501921
-5.8919845
-5.9247476
-5.9488691
-5.9650813
-5.9734059
-5.968497
-0.018347708
-0.023780864
-0.021325069
-0.01346257
-0.00038482512
0.018104976
0.042045903
0.071352141
0.10610047
0.14635066
0.19217046
0.24363012
0.30078552
0.36365851
0.43225027
0.50654637
0.5865196
0.67211171
0.76322505
0.85972865
0.9614374
1.0681616
1.1797169
1.295912
1.4164413
1.5406817
1.6699704
1.8037095
1.9421094
2.0855062
2.2342788
2.3887052
2.5487103
2.7135352
2.8813071
3.0485728
3.2099324
3.3577533
3.4822073
3.5718218
3.6146259
3.5989539
3.5136969
3.3503662
3.0943327
2.5631932
1.8392245
2.5316894
1.827436
1.1540585
0.12162706
-1.1351588
-2.0329394
-3.3870884
-5.3810938
-7.1949652
-8.036703
-8.9917229
-9.250656
-9.7452775
-8.5686212
-6.9571724
-5.0394134
-3.5027243
-2.5692921
-2.2092612
-2.1331309
-2.1616426
-2.2308343
-2.3385835
-2.4837854
-2.6560042
-2.8456176
-3.0461747
-3.2527243
-3.4614042
-3.6692006
-3.8736737
-4.0729215
-4.2654056
-4.4498891
-4.6254202
-4.7912147
-4.9466689
-5.091453
-5.2253487
-5.3482103
-5.4600712
-5.5609849
-5.6510878
-5.7306502
-5.7998884
-5.8591123
-5.9087046
-5.9490395
-5.9804663
-6.003343
-6.018434
-6.025776
-6.0198539
-0.043574423
-0.049510625
-0.047617029
-0.040403829
-0.028040711
-0.010298476
0.012808662
0.041342023
0.07535771
0.11487122
0.15998504
0.21079168
0.2673625
0.32974023
0.39794554
0.47199732
0.55189419
0.63758881
0.72898242
0.82592759
0.92825328
1.0357625
1.1482389
1.2654942
1.3872548
1.5131015
1.6435287
1.7790225
1.9198804
2.06687
2.2209817
2.3832946
2.5546772
2.7353429
2.9242286
3.1182506
3.3115831
3.4952224
3.6566728
3.7803734
3.8502761
3.8526685
3.7761224
3.6133779
3.41963
2.9076499
2.5491919
2.0311287
1.5358981
1.0204363
-0.24270779
-1.7877721
-3.2210365
-5.6075651
-7.7576855
-9.7078511
-11.947119
-12.879808
-12.711296
-11.664517
-12.123435
-10.012546
-7.3249103
-4.9770045
-3.2661487
-2.5416565
-2.3162719
-2.2908532
-2.3382266
-2.4344006
-2.5730301
-2.7424816
-2.9308569
-3.1314905
-3.3384105
-3.54769
-3.7561161
-3.9610991
-4.1606473
-4.3532053
-4.5375095
-4.7125674
-4.87764
-5.0321382
-5.1757359
-5.3082762
-5.4296291
-5.5398335
-5.639019
-5.7273301
-5.804992
-5.8722869
-5.9296128
-5.9773183
-6.015844
-6.0455801
-6.0669784
-6.0806878
-6.0867453
-6.0796107
-0.074123899
-0.080595055
-0.079259039
-0.072694517
-0.061051195
-0.04408451
-0.02180263
0.0058559092
0.038978234
0.077738701
0.12208054
0.17215033
0.22806113
0.28988507
0.357682
0.43149933
0.51135959
0.59723217
0.68901495
0.78655457
0.88966703
0.9981531
1.1117658
1.2302198
1.3533041
1.4808326
1.6118722
1.7486679
1.8911759
2.0407808
2.1992582
2.3687449
2.5514561
2.7491412
2.9622292
3.1887208
3.4228696
3.6542455
3.8671936
4.0401994
4.1501026
4.1807597
4.1197909
3.9505054
3.8113911
3.4241418
3.6007966
2.7102069
1.8114748
1.1977404
-0.24217148
-2.2390424
-4.2707368
-7.9006634
-10.396402
-13.445071
-16.101823
-16.775992
-16.059836
-14.907855
-15.154892
-12.654154
-9.4135377
-6.4125682
-3.2683826
-2.7911671
-2.4652845
-2.4018357
-2.4377957
-2.5283372
-2.6647759
-2.8344064
-3.0234624
-3.2253277
-3.4338766
-3.6447094
-3.8544893
-4.0605773
-4.2608971
-4.453852
-4.6381838
-4.8128842
-4.977254
-5.1307781
-5.2731262
-5.4041497
-5.5237996
-5.6321004
-5.7292344
-5.8153828
-5.8907794
-5.9557632
-6.0107627
-6.0562149
-6.0925341
-6.1202302
-6.1397264
-6.1517917
-6.1563384
-6.1476681
-0.10986946
-0.1169236
-0.11615806
-0.1102578
-0.099377959
-0.083252243
-0.061870865
-0.035165032
-0.0029790169
0.034827746
0.078360474
0.12757096
0.1827187
0.24391907
0.31126943
0.3848473
0.46469464
0.55080043
0.64308704
0.74139503
0.84551549
0.95520998
1.070186
1.1900319
1.3143779
1.4429767
1.5754792
1.7122217
1.8549057
2.0053343
2.1661496
2.3408107
2.5333973
2.747926
2.9872877
3.2516798
3.5366292
3.8303726
4.1138886
4.3587726
4.5245873
4.5942563
4.5579423
4.4184428
4.2610748
4.0805741
4.0001544
3.3548736
2.3822736
2.5077416
3.9608568
2.7691154
-5.2476179
-9.2202605
-13.506652
-17.46914
-19.861431
-21.058534
-20.818873
-19.653513
-17.674543
-14.619117
-10.978688
-6.5650763
-1.7281503
-2.7452252
-2.5692225
-2.5075803
-2.5381144
-2.6255732
-2.7626395
-2.9330449
-3.12447
-3.3288936
-3.5400072
-3.7532203
-3.965048
-4.1727794
-4.3742857
-4.5679355
-4.7524909
-4.9269701
-5.0906906
-5.2431985
-5.3842048
-5.5135292
-5.6312142
-5.7373168
-5.8320655
-5.915606
-5.9882673
-6.0505485
-6.1028011
-6.1455761
-6.1792583
-6.2044531
-6.221616
-6.2316818
-6.2345455
-6.223978
-0.15069691
-0.15836239
-0.15819878
-0.15301056
-0.14296496
-0.12777185
-0.10739785
-0.08174812
-0.050665607
-0.013968417
0.028777977
0.076894298
0.13116037
0.19165121
0.25848942
0.33179107
0.41162917
0.49802111
0.59091758
0.6901788
0.79555619
0.90674433
1.0233416
1.1448499
1.2706946
1.400526
1.5339201
1.6693123
1.8102952
1.9588029
2.1185057
2.294508
2.4933758
2.7223775
2.988193
3.2949102
3.6410501
4.0164964
4.3956934
4.749691
4.9848544
5.1056237
5.0849566
4.9157727
4.7114876
4.5299867
4.4529789
3.6128753
3.1132396
5.4410071
4.6144761
2.4991113
-4.033263
-9.6031268
-13.862974
-18.795493
-22.317717
-24.055482
-23.91452
-22.30268
-19.529534
-15.785573
-11.609386
-6.1686817
-2.2965817
-3.1423668
-2.8060301
-2.655825
-2.6553273
-2.7328311
-2.8683694
-3.0403446
-3.2349194
-3.4428637
-3.6575073
-3.87394
-4.0884853
-4.2984019
-4.5015317
-4.6962195
-4.8812175
-5.0555832
-5.2186764
-5.3700452
-5.5095187
-5.6369534
-5.7523742
-5.8559255
-5.9478667
-6.0284257
-6.0979224
-6.1569582
-6.2059792
-6.2455248
-6.276157
-6.2983494
-6.3127415
-6.3204064
-6.321195
-6.3082621
-0.19646621
-0.20478041
-0.20526117
-0.20085319
-0.19173391
-0.17758157
-0.15833987
-0.13389483
-0.10407333
-0.068712881
-0.027699029
0.019848414
0.073196173
0.13286025
0.1990832
0.27203076
0.35183211
0.43854877
0.5321593
0.63254504
0.73945741
0.85249149
0.97113369
1.094719
1.2223965
1.3534156
1.4870805
1.6219418
1.7573097
1.8998873
2.053231
2.224224
2.4223337
2.6593639
2.9477717
3.2983502
3.7155914
4.1953427
4.6984169
5.1705845
5.5449455
5.7446109
5.7298798
5.4722624
5.1237889
5.004245
4.5353838
3.6578413
3.4794173
6.4988419
4.9033399
1.5038733
-2.6477023
-9.426853
-14.094955
-19.014189
-22.731273
-24.714063
-24.706696
-22.980806
-19.826811
-15.648681
-11.015117
-6.354455
-2.656794
-3.7030544
-3.0421572
-2.8059163
-2.7745737
-2.844986
-2.9805595
-3.1558348
-3.3550076
-3.5677999
-3.7870532
-4.0076146
-4.2256517
-4.4383375
-4.6435319
-4.8395738
-5.0251975
-5.1994817
-5.3619175
-5.5120776
-5.6497967
-5.7750521
-5.887877
-5.9885035
-6.0771535
-6.1542384
-6.2201303
-6.2753929
-6.3206223
-6.3563779
-6.3833506
-6.4020451
-6.413147
-6.4180236
-6.4163319
-6.4006128
-0.24702666
-0.25603214
-0.25722451
-0.25367693
-0.24558385
-0.23259435
-0.21462983
-0.19155924
-0.16317292
-0.12925312
-0.089506431
-0.043373089
0.0086917976
0.067317095
0.1327402
0.20520491
0.28489137
0.37192822
0.46633985
0.56803589
0.67678287
0.79213725
0.9134254
1.039779
1.1700333
1.3028432
1.4370032
1.5714736
1.6964239
1.8284342
1.9681686
2.1244382
2.3100315
2.542136
2.8412045
3.2304555
3.7316046
4.3481007
5.0337702
5.7180844
6.2627621
6.5661504
6.5422486
6.1551259
5.5640026
5.0378532
4.5294528
3.94844
3.082669
6.1121157
2.8315564
2.1361319
-2.2607678
-7.8681381
-12.677648
-17.266427
-20.815535
-22.782446
-22.8035
-21.123017
-18.060363
-14.166629
-10.403697
-5.7453909
-3.2168902
-3.4047168
-3.044107
-2.8811308
-2.8686096
-2.9506032
-3.0949633
-3.2781016
-3.4845819
-3.7040936
-3.9292972
-4.1550102
-4.377403
-4.5935244
-4.8012157
-4.9988551
-5.1852656
-5.3595711
-5.5212924
-5.670097
-5.805831
-5.9285235
-6.0383512
-6.1356046
-6.2205077
-6.2935511
-6.3552701
-6.4062337
-6.4470025
-6.4783836
-6.5010616
-6.5156548
-6.5229422
-6.5245694
-6.5199009
-6.5008892
-0.30222602
-0.31197523
-0.31393704
-0.31134244
-0.30439416
-0.29270627
-0.27618979
-0.25469422
-0.22796914
-0.19575555
-0.15775326
-0.11369968
-0.062696647
-0.0053036503
0.059114112
0.13089205
0.21031127
0.29759278
0.39284603
0.49604251
0.60698181
0.72522849
0.85001823
0.98019968
1.1141782
1.2498444
1.3845141
1.5151776
1.6376072
1.7467998
1.8632481
1.9911622
2.1459214
2.3507453
2.6358069
3.0400305
3.6138137
4.4007473
5.3351599
6.3250272
7.1541279
7.6054189
7.5720817
7.0120487
6.2456568
5.2638118
4.8667212
4.7243252
4.0659982
3.4007431
3.7048109
1.9536678
-0.55506604
-5.5385147
-9.7543638
-13.818367
-16.866418
-18.662149
-18.672164
-17.121288
-14.634409
-11.351254
-7.5670044
-4.9819731
-3.610075
-3.1976311
-2.9642697
-2.9033369
-2.9393431
-3.0486907
-3.2106318
-3.4067135
-3.6236774
-3.8520636
-4.0848738
-4.3169914
-4.5446314
-4.7648665
-4.9755394
-5.1750856
-5.3624219
-5.5367838
-5.697707
-5.844905
-5.978355
-6.0981527
-6.2045708
-6.2979124
-6.3785612
-6.4469986
-6.5038693
-6.5498422
-6.5855643
-6.6118618
-6.6295602
-6.6393345
-6.6421853
-6.6399809
-6.6318141
-6.6090492
-0.36190983
-0.37244478
-0.37523651
-0.3736822
-0.36800293
-0.35778701
-0.34292646
-0.32323669
-0.29843221
-0.26819295
-0.23218716
-0.1900373
-0.14114982
-0.085265619
-0.022190563
0.048597165
0.1275033
0.21485734
0.31091715
0.41576932
0.52929291
0.65111523
0.78046651
0.9159895
1.05559
1.1962404
1.3338061
1.4637708
1.5837505
1.6544024
1.7409935
1.823378
1.922173
2.0656785
2.2927989
2.6526208
3.2336504
4.2404817
5.5681842
7.0254459
8.36583
9.0218623
8.9677361
8.2157324
7.0244839
6.061718
5.8523554
6.03253
5.7783521
5.2855349
4.6823116
3.7190749
1.4136751
-2.2803091
-6.5323437
-9.8176873
-12.201775
-13.078741
-13.387106
-12.766268
-10.574297
-7.8657337
-5.7379514
-4.2275834
-3.3665815
-3.0726304
-2.9366309
-2.9330374
-3.0086547
-3.1469977
-3.3300599
-3.5425141
-3.7728126
-4.0123241
-4.2545202
-4.4944236
-4.7283054
-4.9533769
-5.1675739
-5.3693868
-5.5577952
-5.7321445
-5.8921195
-6.0375117
-6.1683129
-6.2847922
-6.387315
-6.4762082
-6.5519759
-6.6151753
-6.666564
-6.7067746
-6.7366847
-6.7572007
-6.7691826
-6.7733836
-6.7710401
-6.7644424
-6.7521264
-6.7249
-0.42588932
-0.43723489
-0.44092371
-0.44049946
-0.43622509
-0.42767615
-0.41470447
-0.39709103
-0.37450798
-0.34660273
-0.31298253
-0.27322823
-0.22681332
-0.17290978
-0.1115938
-0.042207658
0.03580196
0.12294186
0.21963516
0.32618309
0.44264784
0.56876469
0.70390378
0.84669082
0.99466005
1.1437757
1.287759
1.417258
1.5206066
1.5833191
1.6128966
1.6253988
1.637082
1.6715563
1.7608906
1.9560231
2.4153177
3.7646381
5.6595842
7.845032
10.013015
10.968015
10.736809
9.6941161
8.2171966
7.3008637
7.1947825
7.4533242
7.1869571
6.4387907
5.4275125
4.449231
3.4950227
0.94413965
-1.5315397
-5.7498414
-7.8212798
-8.8215547
-8.836689
-8.0586578
-7.0434918
-6.2771604
-4.8047887
-3.7328847
-3.214428
-3.0011018
-2.9327656
-2.9708672
-3.0816663
-3.2487766
-3.454922
-3.6864392
-3.9327323
-4.1856656
-4.4390754
-4.6882324
-4.9295226
-5.1602442
-5.3784798
-5.5828508
-5.7724662
-5.9467742
-6.1055634
-6.2488178
-6.3766039
-6.4893113
-6.5874305
-6.6712581
-6.7414972
-6.7987779
-6.8438897
-6.8776381
-6.9009197
-6.9148134
-6.9202379
-6.9180978
-6.9097609
-6.897989
-6.8808366
-6.8485316
-0.49394169
-0.50609862
-0.51073383
-0.51154841
-0.50885317
-0.50217585
-0.49134609
-0.47611054
-0.45610385
-0.43094374
-0.40017968
-0.36329641
-0.31972639
-0.26884356
-0.20953215
-0.1421079
-0.065547538
0.020904995
0.11791324
0.22601379
0.34556456
0.47659886
0.61876985
0.77108161
0.93113382
1.0942458
1.2522206
1.3893495
1.483815
1.5179806
1.488893
1.4074674
1.2971243
1.1622766
0.96493459
0.74527654
1.1403708
2.3662111
4.9646924
8.3751232
11.420282
12.980373
13.03078
11.485354
9.4873278
8.4555517
8.4728891
8.7962851
8.2872549
7.0656372
5.9204189
4.5675113
4.4873842
1.9836443
-1.4868037
-3.5466961
-5.317054
-5.4478159
-5.9275012
-6.4079685
-5.8528543
-4.8876568
-4.0182558
-3.3982699
-3.0749874
-2.9397929
-2.9285113
-3.0080996
-3.1555102
-3.3533406
-3.5854457
-3.8390486
-4.1041695
-4.3730006
-4.6396331
-4.8995918
-5.1494645
-5.3866626
-5.609416
-5.8165945
-6.0074917
-6.1816872
-6.3390733
-6.4798086
-6.6041507
-6.7125805
-6.805622
-6.8838396
-6.9478718
-6.9985367
-7.036641
-7.0630799
-7.0789056
-7.085279
-7.0832641
-7.0737584
-7.0586238
-7.0410304
-7.0180558
-6.9798595
-0.5658042
-0.57874052
-0.58436795
-0.5865502
-0.58560121
-0.58102788
-0.57261816
-0.56009939
-0.54308036
-0.52113861
-0.49378431
-0.46041926
-0.42034152
-0.37266405
-0.3163375
-0.25170587
-0.1773887
-0.09231956
0.0044281311
0.11368803
0.23614637
0.37233917
0.52254385
0.68659508
0.86305512
1.0476956
1.2327446
1.3935628
1.488588
1.4882374
1.3839477
1.196087
0.91044011
0.50803563
-0.28113929
-1.6776495
-2.7403157
-2.0303123
1.2092176
6.6471131
11.772216
14.061177
13.7117
11.976964
14.379458
12.887841
11.309194
10.172729
9.1635262
7.8994815
6.2462316
5.0970204
3.492205
1.5169331
-0.54971582
-2.4611227
-4.0852148
-4.934999
-5.1863931
-5.0918028
-4.604029
-4.0258224
-3.5099201
-3.1360389
-2.9333341
-2.870271
-2.9135439
-3.0390424
-3.2269105
-3.4595261
-3.721627
-4.0009719
-4.2880882
-4.5755164
-4.8575557
-5.1299388
-5.3894985
-5.6339484
-5.8617158
-6.0719233
-6.2640893
-6.4379947
-6.5936953
-6.7315632
-6.8519937
-6.9555908
-7.0429864
-7.1148644
-7.1720188
-7.2152585
-7.2455616
-7.2638891
-7.2714352
-7.2693298
-7.2588568
-7.2409952
-7.218034
-7.1936706
-7.1639176
-7.1189055
-0.64117711
-0.65480047
-0.66149672
-0.66515861
-0.66613999
-0.6639072
-0.65822337
-0.6488042
-0.63524083
-0.6170754
-0.59376006
-0.56462607
-0.52885569
-0.48552996
-0.43384431
-0.37168792
-0.30066716
-0.21794889
-0.12232334
-0.012700321
0.11206146
0.25307833
0.41153834
0.58867161
0.78548149
0.99984778
1.2322792
1.4465545
1.5596083
1.5258237
1.333678
1.0093204
0.52453558
-0.27418891
-1.975242
-5.4081934
-9.0552531
-9.8227015
-6.3311636
1.6786141
9.5667416
13.338662
12.620419
10.247658
10.371672
12.665126
12.161576
10.774999
9.3690117
7.9969834
6.1930652
5.1766012
3.7096561
1.8620941
-0.035549852
-1.8028435
-3.2774752
-4.0729021
-4.2842636
-4.1730805
-3.8614553
-3.4795495
-3.1367432
-2.8926568
-2.7772515
-2.7805034
-2.8817367
-3.0594637
-3.2936706
-3.5667299
-3.8638643
-4.1733197
-4.4860281
-4.7948949
-5.0944915
-5.3808831
-5.6512285
-5.9036395
-6.1368291
-6.3501805
-6.5435269
-6.7169036
-6.8705758
-7.0051054
-7.1211444
-7.2193916
-7.3004644
-7.3653093
-7.4148325
-7.4499264
-7.4715964
-7.4809878
-7.479321
-7.4678677
-7.4478391
-7.4204023
-7.3886152
-7.3564059
-7.3185796
-7.2656801
-0.71973304
-0.73386316
-0.74170672
-0.74697767
-0.75005687
-0.75041806
-0.74779762
-0.74190517
-0.73231247
-0.71853052
-0.69995052
-0.67582734
-0.64524963
-0.6072008
-0.5603501
-0.50172613
-0.43645715
-0.3573262
-0.26400606
-0.15519884
-0.029351307
0.11530242
0.28091177
0.4704021
0.68924318
0.937342
1.2412312
1.5556259
1.7005027
1.6397443
1.3703725
0.92026747
0.24170122
-1.0737454
-3.5207933
-9.124806
-15.319552
-17.08204
-13.198779
-4.481034
4.6641373
9.3130776
8.4373842
6.3632895
5.6847842
8.7739406
11.184179
8.6998894
7.7719772
6.7545249
5.6967426
4.8052545
3.5859988
2.0360162
0.3886626
-1.5325689
-3.2863894
-4.0209094
-3.9383156
-3.6346207
-3.3771546
-3.0955665
-2.8108252
-2.6342766
-2.5890009
-2.6602917
-2.8277846
-3.0666116
-3.3551341
-3.6755561
-4.0136287
-4.3581018
-4.7002448
-5.0334251
-5.3526774
-5.6545525
-5.9366278
-6.1974773
-6.4362976
-6.6528114
-6.8471985
-7.0197352
-7.1709387
-7.3016007
-7.4126345
-7.5049114
-7.5790364
-7.6361673
-7.6773164
-7.7035277
-7.7157678
-7.7153683
-7.7036229
-7.6818357
-7.6512336
-7.6130782
-7.5711139
-7.5297709
-7.482235
-7.4201457
-0.80108038
-0.81541862
-0.82449798
-0.83151224
-0.83687592
-0.84010037
-0.84090419
-0.83899034
-0.83391162
-0.82515695
-0.81207354
-0.79385259
-0.76956708
-0.73821257
-0.69884431
-0.65121546
-0.58718375
-0.51192073
-0.42229014
-0.31598271
-0.19080375
-0.044560993
0.12542569
0.32313444
0.56116592
0.83809972
1.2243079
1.7125383
1.8856049
1.8162923
1.5206378
1.0130224
0.26577531
-1.2227533
-4.4359601
-10.723408
-17.554049
-19.850685
-17.105634
-10.413589
-3.5025884
-0.99306891
-2.4466518
-3.1367022
-1.2876711
1.9416381
6.8047276
5.0379502
5.0848079
4.6643121
4.3551637
3.7945059
2.8370691
1.649952
0.53884276
-1.4603864
-3.5951992
-4.3472516
-3.8898767
-3.2825226
-3.019935
-2.8009011
-2.4874715
-2.332392
-2.351782
-2.5009925
-2.7478819
-3.059627
-3.41242
-3.7884103
-4.1739955
-4.5586078
-4.9340571
-5.2943257
-5.635133
-5.953652
-6.2480819
-6.5176277
-6.7620622
-6.9815351
-7.1765438
-7.3477747
-7.4960291
-7.6222787
-7.7276192
-7.8130294
-7.8796871
-7.9285082
-7.9606075
-7.9771075
-7.9792541
-7.968305
-7.94563
-7.9125963
-7.8702617
-7.8201619
-7.7666735
-7.7146202
-7.6552338
-7.5822471
-0.88465579
-0.89889811
-0.90927054
-0.91818651
-0.92604387
-0.93242324
-0.93702292
-0.93953902
-0.9395297
-0.93647197
-0.92969271
-0.91835001
-0.90145053
-0.87784469
-0.8462024
-0.80485054
-0.75062936
-0.68217289
-0.59865354
-0.49705776
-0.37493115
-0.22995026
-0.059933143
0.13569169
0.37644402
0.65588842
1.0442353
1.7119805
1.7971716
1.8278558
1.6987206
1.3376237
0.70362539
-0.61446728
-3.4624456
-8.7663092
-14.392825
-17.824711
-17.411619
-15.696121
-16.067801
-19.83255
-23.043296
-19.686819
-12.42782
-7.601299
0.017033479
0.26686203
1.3203067
1.8528745
1.9326275
1.60964
0.77470201
-0.42529055
-1.072426
-1.8195963
-4.1171023
-5.05641
-4.2523362
-3.3364146
-2.9499588
-2.564977
-2.0692834
-1.9396267
-2.0447408
-2.294712
-2.6409447
-3.0402863
-3.4690332
-3.9097214
-4.3498288
-4.7797189
-5.1921315
-5.5818703
-5.9456164
-6.2814254
-6.5883933
-6.8665271
-7.1162292
-7.3381264
-7.5331516
-7.7024042
-7.8470278
-7.9682471
-8.0673059
-8.1453531
-8.2036659
-8.243433
-8.265818
-8.2719563
-8.2632233
-8.2410387
-8.2067101
-8.1615993
-8.1066837
-8.0434587
-7.9770507
-7.9122989
-7.8382046
-7.7519814
-0.96967563
-0.98365233
-0.99536482
-1.0063661
-1.0169429
-1.0267666
-1.0355238
-1.0429133
-1.0485317
-1.0518622
-1.05224
-1.0488211
-1.0405608
-1.0261575
-1.0040425
-0.97222759
-0.92815735
-0.8693571
-0.79476163
-0.70052589
-0.58403454
-0.44262695
-0.27535552
-0.093002511
0.11712641
0.23425016
1.1761578
4.4837552
1.9318239
1.7211242
1.7728132
1.8338791
1.6438665
0.93951228
-0.56488799
-4.1044574
-9.0931724
-12.584267
-15.203554
-19.566678
-29.574752
-27.308364
-38.975447
-39.243999
-26.075598
-18.558178
-8.1326654
-3.2984333
-2.7373108
-1.4374928
-1.3264177
-1.7592308
-2.6836904
-3.5686246
-2.0393835
-2.009718
-5.4755829
-7.8632403
-7.6309556
-5.5551184
-3.563328
-2.282138
-1.434507
-1.3807633
-1.6438022
-2.037231
-2.5095384
-3.0146394
-3.5315878
-4.0464655
-4.5481941
-5.0282684
-5.4806684
-5.9014202
-6.2886497
-6.6417014
-6.9607598
-7.2467227
-7.5008388
-7.7243517
-7.9185629
-8.0850473
-8.2252589
-8.3406616
-8.4327133
-8.5027306
-8.5520189
-8.5820585
-8.5940103
-8.5892006
-8.5691055
-8.5351276
-8.4886867
-8.430965
-8.3627392
-8.285467
-8.2048411
-8.1248836
-8.0321324
-7.929269
-1.055153
-1.0689643
-1.0820687
-1.0953527
-1.1089032
-1.1224348
-1.1356736
-1.1483469
-1.1601167
-1.1705339
-1.1789812
-1.1846304
-1.1864113
-1.1829502
-1.1724837
-1.15291
-1.1217927
-1.0766925
-1.0126421
-0.92872894
-0.82110491
-0.68633026
-0.52350638
-0.33892396
-0.11011881
0.24113534
7.1054255
8.2355584
4.8395189
1.8082802
1.9739908
2.573641
3.0735729
3.2373284
3.0762321
1.0976934
-2.1505598
-5.5317746
-9.1476566
-14.639856
-16.79249
9.7478974
-38.246259
-40.798571
-34.013111
-26.031555
-14.268731
-7.6862122
-6.2844342
-4.8918532
-4.5172131
-5.2062942
-6.0782873
-7.2236405
-6.156974
-4.9750382
-9.5302754
-16.504227
-18.576008
-13.98998
-6.334016
-1.9791474
-0.20889719
-0.5832931
-1.1556857
-1.7447215
-2.3672791
-2.9938433
-3.6100209
-4.2084797
-4.7788391
-5.3131824
-5.8074213
-6.259544
-6.669633
-7.0387541
-7.3685374
-7.6609759
-7.9181262
-8.1419731
-8.3342979
-8.4969562
-8.6318638
-8.7406165
-8.824823
-8.8861716
-8.9259524
-8.9455701
-8.9465457
-8.9303041
-8.8983837
-8.852269
-8.7934233
-8.7229853
-8.6412557
-8.5497067
-8.4540411
-8.3557399
-8.2383185
-8.1134698
-1.140054
-1.1540302
-1.168676
-1.1844109
-1.2011956
-1.2186667
-1.236632
-1.2549293
-1.2733239
-1.2914949
-1.3089365
-1.3248727
-1.3382351
-1.3476092
-1.3511361
-1.3464854
-1.3309393
-1.3013011
-1.2532289
-1.1836286
-1.0883045
-0.96197179
-0.79929509
-0.57545073
-0.20647195
0.53516962
6.9126468
7.834335
5.7102973
1.5633474
2.1580438
3.4905002
4.8311492
5.9742758
6.8761751
6.6793184
4.5187874
2.0206753
-0.51815835
-1.746395
28.234688
29.869528
-36.473705
-37.305197
-34.681452
-28.126489
-17.23574
-10.851282
-10.194049
-8.285979
-7.5794433
-8.2595419
-11.424325
-19.672807
-20.875808
-14.572303
-20.272571
-33.128213
-37.693023
-34.8672
-17.259256
-4.4810599
0.55182469
0.36390807
-0.67806919
-1.4479101
-2.227831
-2.9879331
-3.7163174
-4.4096379
-5.0552075
-5.6461716
-6.1821301
-6.6639303
-7.0944784
-7.477073
-7.8151612
-8.1118897
-8.3701639
-8.5925892
-8.7816011
-8.9393108
-9.0678632
-9.1691987
-9.2449519
-9.2969483
-9.3266841
-9.3354304
-9.3248262
-9.2966591
-9.2525436
-9.1941314
-9.1230815
-9.0403088
-8.9457077
-8.8410388
-8.7309401
-8.6107617
-8.4593342
-8.3045565
-1.2233607
-1.2379739
-1.2544395
-1.272847
-1.2930691
-1.3146276
-1.3374631
-1.3616004
-1.3869987
-1.4135131
-1.4408168
-1.4682669
-1.4948526
-1.5191551
-1.5392259
-1.5525888
-1.5561895
-1.5463847
-1.5189427
-1.4685971
-1.3918653
-1.2843186
-1.1470019
-0.95780118
-0.66948336
-0.25752658
3.1497454
8.0245147
2.3350816
1.6876892
2.6790806
4.5626313
6.6518462
8.7896663
10.750933
11.510913
9.821862
7.2337279
3.1052645
2.0662879
10.453133
30.083613
6.8100743
-34.693809
-32.125569
-26.875403
-20.626548
-15.535529
-13.18873
-10.676193
-10.028232
-10.549366
-18.656571
-39.369245
-41.049925
-31.142992
-33.663878
-52.902513
-27.983167
-59.736498
-30.327489
-8.5670094
-0.56196668
0.85140802
-0.35206274
-1.1743619
-2.1248419
-3.0181776
-3.8665524
-4.6681395
-5.3947976
-6.041946
-6.61643
-7.123216
-7.569529
-7.9612858
-8.3039078
-8.601821
-8.8586805
-9.0776982
-9.2617534
-9.4132552
-9.53443
-9.6275322
-9.6943418
-9.7367032
-9.755461
-9.7528812
-9.7304101
-9.6898737
-9.6332471
-9.5625141
-9.4797602
-9.3856369
-9.2797498
-9.1650549
-9.0445261
-8.8999885
-8.6990531
-8.5003149
-1.3040594
-1.3197698
-1.3385716
-1.3599707
-1.383799
-1.4094909
-1.4371547
-1.4671573
-1.4997539
-1.5350487
-1.5729682
-1.6131207
-1.6546106
-1.6960745
-1.7355597
-1.7704631
-1.7974283
-1.8123141
-1.8102722
-1.7860353
-1.7350427
-1.6550146
-1.5479443
-1.4054645
-1.1770492
-0.86906417
-0.39756668
1.4798661
1.6164273
2.2115356
3.5411396
5.6733668
8.255467
11.206581
14.122694
15.948094
14.88942
11.534199
-1.7878395
-13.755518
-21.07047
3.5975484
0.99078204
-40.17001
-33.114317
-27.857007
-23.721532
-17.654367
-13.283517
-11.301836
-9.9025439
-11.400669
-24.593311
-45.441635
-51.768828
-39.154284
-34.596282
-15.403857
29.955906
-22.802738
-23.781767
-9.1800196
-1.6077255
0.88739509
0.17571362
-0.89367274
-2.0047736
-3.0616303
-4.070271
-5.0132017
-5.8234387
-6.5193955
-7.1237951
-7.6464739
-8.1008162
-8.49541
-8.8376191
-9.1328133
-9.3852147
-9.5984815
-9.7757293
-9.9197118
-10.032697
-10.116732
-10.173849
-10.205428
-10.213951
-10.199819
-10.165074
-10.111684
-10.041989
-9.9588523
-9.8651131
-9.761366
-9.6469292
-9.5285031
-9.4110299
-9.2467551
-8.9638198
-8.6859923
-1.3808126
-1.3982822
-1.4203757
-1.4452965
-1.472796
-1.5024552
-1.5346787
-1.5702457
-1.6099111
-1.6541904
-1.7033446
-1.7572904
-1.8153726
-1.8763513
-1.9384002
-1.998819
-2.054003
-2.0993979
-2.1295163