/*--------------------------------*- C++ -*----------------------------------*\
  =========                 |
  \\      /  F ield         | OpenFOAM: The Open Source CFD Toolbox
   \\    /   O peration     | Website:  https://openfoam.org
    \\  /    A nd           | Version:  9
     \\/     M anipulation  |
\*---------------------------------------------------------------------------*/
FoamFile
{
    format      ascii;
    class       surfaceScalarField;
    location    "0.83";
    object      phi;
}
// * * * * * * * * * * * * * * * * * * * * * * * * * * * * * * * * * * * * * //

dimensions      [0 3 -1 0 0 0 0];

internalField   nonuniform List<scalar> 
19800
(
2.7204929e-05
4.9420932e-05
3.8594212e-05
5.0036051e-05
4.9651432e-05
5.1564893e-05
6.0320621e-05
5.3273335e-05
7.0375581e-05
5.5501494e-05
7.9734279e-05
5.7995144e-05
8.8247519e-05
6.0759418e-05
9.5777753e-05
6.3771622e-05
0.00010219152
6.6971873e-05
0.00010734749
7.0309669e-05
0.0001111212
7.3714578e-05
0.0001133632
7.7214652e-05
0.00011392768
8.0706272e-05
0.00011270574
8.4049678e-05
0.00010950293
8.7356898e-05
0.00010417578
9.0481239e-05
9.661041e-05
9.3316308e-05
8.6715676e-05
9.5790449e-05
7.4310871e-05
9.7974308e-05
5.9253154e-05
9.9707617e-05
4.1305654e-05
0.0001009613
2.0168975e-05
0.00010161536
-4.0605937e-06
0.0001021124
-3.0769684e-05
0.00010242432
-5.9779166e-05
0.0001028251
-9.0774904e-05
0.00010304354
-0.00012347571
0.00010301737
-0.00015762953
0.00010268603
-0.00019301513
0.00010204476
-0.00022942633
0.00010116755
-0.00026668164
0.00010026659
-0.00030464252
9.9657638e-05
-0.00034320065
9.9751234e-05
-0.00038230017
0.00010108984
-0.00042213957
0.00010420393
-0.00046332335
0.00010941492
-0.00050696056
0.00011691229
-0.00055470313
0.00012664788
-0.00060870187
0.00013825269
-0.00067140032
0.00015097335
-0.00074519752
0.00016344286
-0.00083189838
0.00017336733
-0.00093173923
0.00017699781
-0.0010422327
0.00016873785
-0.0011550925
0.00013872387
-0.0012418249
6.2341779e-05
-0.0012610132
-8.4708944e-05
-0.0011682016
-0.00031499067
-0.00094662435
-0.00057200325
-0.00058128429
-0.00083153143
-1.3811839e-05
-0.0011751688
0.00083054066
-0.0016492228
0.0019823308
-0.0021748181
0.0032963414
-0.0024712782
0.0045833601
-0.0024404155
0.0055288043
-0.0018833527
0.0060076906
-0.0011599394
0.0060932358
-0.0005519361
0.0059488978
-0.00013155734
0.0056699121
0.0001713798
0.0053026833
0.00041638157
0.0048752139
0.00061809516
0.004414793
0.00079918491
0.0039491486
0.00096048523
0.0035000404
0.0010740143
0.0030777152
0.0011334834
0.0026867081
0.0011590979
0.0023304157
0.0011661694
0.0020092988
0.0011579874
0.0017209363
0.0011344286
0.0014619162
0.0010963316
0.0012288771
0.0010451566
0.0010187162
0.00098278712
0.00082865871
0.00091191873
0.00065638438
0.00083602514
0.0005000857
0.0007587479
0.00035845238
0.00068311891
0.00023054766
0.00061113766
0.00011568487
0.00054381077
1.3435928e-05
0.00048155606
-7.6399594e-05
0.00042432576
-0.00015408605
0.00037197333
-0.00021967731
0.0003243725
-0.00027274753
0.0002809287
-0.00031446413
0.00024060839
-0.00034626975
0.00020278994
-0.00036895667
0.00016726468
-0.00038298261
0.00013386267
-0.00038848282
0.00010223625
-0.00038606327
7.2571886e-05
-0.00037715349
4.5182388e-05
-0.00036405237
2.0359234e-05
-0.00034897172
-1.2706146e-06
-0.00032824055
-2.1999816e-05
-0.00029943622
-3.7587587e-05
-0.00026412086
-5.0162894e-05
-0.00022349134
-6.0387564e-05
-0.00017833715
-6.8860999e-05
-0.00012975426
-7.518161e-05
-8.1366694e-05
2.8178941e-05
3.6977084e-05
4.0226193e-05
3.7979043e-05
5.1806169e-05
3.9980103e-05
6.2970458e-05
4.2107773e-05
7.3373193e-05
4.5099069e-05
8.302675e-05
4.8339626e-05
9.1765359e-05
5.2015649e-05
9.9459061e-05
5.6070344e-05
0.00010598769
6.0435387e-05
0.00011120413
6.5086785e-05
0.00011496089
6.9953486e-05
0.00011713839
7.5035255e-05
0.00011757666
8.0267861e-05
0.00011614932
8.5477382e-05
0.00011262312
9.0882603e-05
0.00010703447
9.6067584e-05
9.9127594e-05
0.00010121953
8.8751524e-05
0.00010616294
7.5815498e-05
0.00011090807
6.0184129e-05
0.00011533878
4.1572227e-05
0.00011957497
2.0155635e-05
0.00012303443
-4.2078466e-06
0.00012647684
-3.1187422e-05
0.00012940117
-6.0583144e-05
0.00013221384
-9.2064101e-05
0.00013451547
-0.00012529492
0.00013624123
-0.00015991979
0.00013730893
-0.00019557412
0.00013770126
-0.00023191188
0.00013750781
-0.00026860361
0.00013695792
-0.00030537587
0.00013642659
-0.00034210016
0.00013647225
-0.00037888326
0.00013787258
-0.00041614866
0.00014147153
-0.00045478222
0.00014804992
-0.00049622591
0.00015835486
-0.00054253835
0.00017295836
-0.00059643305
0.00019214661
-0.00066116504
0.00021570596
-0.00074043732
0.00024271562
-0.00083806546
0.00027099308
-0.00095736499
0.00029629238
-0.0011003932
0.00031176183
-0.0012661723
0.00030450045
-0.001443719
0.00023988652
-0.0015840291
5.5598208e-05
-0.0015722001
-0.00032682487
-0.0013042622
-0.00083994578
-0.00079319225
-0.0013426024
-2.2277433e-05
-0.0019460804
0.0010323288
-0.0027038245
0.0024123292
-0.003554815
0.003961786
-0.0040207321
0.0056552471
-0.004133872
0.0067940099
-0.0030221088
0.0072640327
-0.0016299583
0.007215679
-0.00050358178
0.0068405247
0.00024359579
0.0062759337
0.00073596941
0.0056507086
0.0010416049
0.0050751848
0.001193617
0.0045728985
0.0013014694
0.0040720154
0.0014613692
0.0035631633
0.0015828675
0.0030870939
0.0016095514
0.0026624897
0.0015836994
0.002285627
0.0015430323
0.0019508899
0.0014927283
0.001654344
0.0014309756
0.0013915662
0.0013591092
0.0011578398
0.0012788811
0.0009487743
0.0011918498
0.00076059412
0.0011000912
0.00059036011
0.0010062518
0.00043603084
0.00091307232
0.00029633602
0.00082280967
0.00017051686
0.00073695533
5.8038397e-05
0.00065628978
-4.1457658e-05
0.00058104934
-0.00012841121
0.00051127573
-0.00020314786
0.00044671198
-0.00026590725
0.00038713484
-0.00031704034
0.00033206294
-0.00035724505
0.00028081567
-0.00038738212
0.00023292681
-0.00040818721
0.00018807273
-0.00042035335
0.00014603338
-0.00042475533
0.00010664338
-0.00042209005
6.990766e-05
-0.00041288254
3.5978305e-05
-0.00039695399
4.4309543e-06
-0.00037464703
-2.3577147e-05
-0.00034790168
-4.8747021e-05
-0.00031528225
-7.0205728e-05
-0.00027702713
-8.8416323e-05
-0.00023380352
-0.00010359879
-0.00018633782
-0.00011628922
-0.00013561731
-0.0001258542
-0.00013533239
2.9444926e-05
2.3909598e-05
4.200846e-05
2.5409112e-05
5.4244477e-05
2.7741449e-05
6.5824807e-05
3.0527646e-05
7.6746452e-05
3.4177397e-05
8.6859199e-05
3.8225023e-05
9.6008561e-05
4.2862037e-05
0.00010404395
4.8029357e-05
0.00011085751
5.3616348e-05
0.00011633636
5.96036e-05
0.00012028213
6.6005354e-05
0.00012263015
7.2686704e-05
0.00012311165
7.978675e-05
0.00012156004
8.7029053e-05
0.00011818559
9.4255704e-05
0.00011249158
0.00010175892
0.00010438002
0.00010932811
9.3795991e-05
0.00011674467
8.0521552e-05
0.00012418143
6.4292852e-05
0.0001315677
4.567966e-05
0.00013818913
2.3957645e-05
0.0001447569
-5.8934542e-07
0.00015102213
-2.7877938e-05
0.00015668469
-5.7636458e-05
0.00016196448
-8.9516854e-05
0.00016638792
-0.00012317328
0.00016989287
-0.00015819362
0.00017232882
-0.00019411356
0.00017362321
-0.00023043335
0.00017382875
-0.0002666532
0.0001731762
-0.00030236592
0.00017213583
-0.00033735976
0.00017146295
-0.00037167297
0.00017218459
-0.0004057189
0.0001755179
-0.00044052711
0.00018285837
-0.00047774275
0.00019556971
-0.00051985459
0.00021506994
-0.0005700649
0.00024235769
-0.00063248861
0.00027812967
-0.00071208502
0.00032231027
-0.00081505299
0.00037395783
-0.00094813765
0.00042937404
-0.001118876
0.00048250003
-0.0013496932
0.00053531865
-0.0016740312
0.00056422314
-0.0019842676
0.00036583006
-0.0018865293
-0.00042456878
-0.0010941793
-0.0016322987
-0.00020366977
-0.0022331111
0.00071228082
-0.0028620287
0.0017678146
-0.003759357
0.0033031191
-0.0050901181
0.0050918091
-0.0058094192
0.0066955954
-0.0057376544
0.0082773323
-0.0046038423
0.0093402416
-0.0026928684
0.0096401612
-0.00080350399
0.009137626
0.00074612951
0.0081300492
0.0017435468
0.0068734516
0.002298203
0.0057041013
0.0023629655
0.004836607
0.0021689612
0.004179872
0.0021181019
0.003619355
0.002143384
0.0031112985
0.0021176047
0.0026520907
0.0020429043
0.0022448287
0.0019502949
0.0018875849
0.0018499748
0.001574425
0.0017441348
0.0012995812
0.0016339537
0.0010580842
0.0015203797
0.00084498906
0.001404939
0.00065572455
0.0012893469
0.00048663399
0.0011753351
0.00033513313
0.0010645692
0.00019954969
0.00095838679
7.874265e-05
0.00085775122
-2.8018859e-05
0.00076304909
-0.000121453
0.00067448822
-0.00020221049
0.00059203074
-0.00027089778
0.00051539737
-0.00032803553
0.00044427506
-0.00037417756
0.00037820408
-0.0004099451
0.00031658275
-0.00043606472
0.00025904555
-0.00045319546
0.00020520692
-0.00046198225
0.00015482537
-0.0004630642
0.00010772978
-0.00045698785
6.3827929e-05
-0.00044363731
2.2628399e-05
-0.00042426628
-1.4935304e-05
-0.00039910891
-4.8730848e-05
-0.0003685908
-7.9266549e-05
-0.00033260321
-0.00010619915
-0.00029154054
-0.00012948994
-0.00024587809
-0.00014928457
-0.00019606402
-0.00016611342
-0.00014299755
-0.00017890415
-0.00019173329
3.0905567e-05
1.021239e-05
4.4187847e-05
1.2122618e-05
5.6956537e-05
1.4971875e-05
6.9156283e-05
1.8328124e-05
8.0734408e-05
2.259909e-05
9.1354938e-05
2.760247e-05
0.00010102489
3.3188214e-05
0.00010955279
3.9496801e-05
0.00011681446
4.6350428e-05
0.00012265665
5.3758753e-05
0.00012702858
6.163249e-05
0.00012953854
7.017674e-05
0.00013048881
7.8836312e-05
0.00012933707
8.817956e-05
0.00012596541
9.7625181e-05
0.00012033102
0.00010739108
0.00011226267
0.00011739478
0.00010153569
0.00012747056
8.8162434e-05
0.00013755401
7.2187245e-05
0.00014754249
5.3034268e-05
0.00015734162
3.0973307e-05
0.00016681648
6.0505561e-06
0.00017594132
-2.1866746e-05
0.00018459559
-5.245891e-05
0.00019254864
-8.5314009e-05
0.0001992363
-0.00012010591
0.0002046818
-0.0001563668
0.00020859057
-0.00019350735
0.000210766
-0.00023086735
0.00021118912
-0.00026774861
0.0002100546
-0.00030349324
0.00020787597
-0.00033756449
0.0002055307
-0.00036970856
0.00020432744
-0.00040017521
0.00020598526
-0.00042985738
0.00021254171
-0.00046055911
0.00022627182
-0.00049499232
0.00024950339
-0.00053698763
0.00028435344
-0.00059145965
0.0003326006
-0.00066493884
0.00039578687
-0.00076581022
0.0004748273
-0.00090350634
0.0005670702
-0.0010999673
0.00067896333
-0.0014315016
0.00086685452
-0.0019693912
0.0011021098
-0.0023545184
0.00075095139
-0.0016642678
-0.0011148242
-0.00016425151
-0.0031323153
0.00062645458
-0.0030238152
0.0014632143
-0.0036987878
0.002747024
-0.0050431676
0.004295323
-0.0066384162
0.0062112111
-0.0077253037
0.0081378432
-0.0076642845
0.0095404331
-0.0060064338
0.010503181
-0.0036556202
0.010905851
-0.0012061759
0.010443917
0.0012080658
0.0094897784
0.0026976861
0.0082600844
0.0035278949
0.0068365542
0.0037864919
0.0053813407
0.0036241721
0.00420394
0.0032955002
0.0034739679
0.0028733535
0.0030021693
0.0025894005
0.0025831462
0.0024619243
0.0021730598
0.0023603796
0.0018003493
0.0022226891
0.0014752373
0.0020692499
0.0011919288
0.0019172613
0.00094448285
0.0017678261
0.00072815221
0.0016212686
0.00053846979
0.0014790236
0.0003715258
0.0013422727
0.00022421944
0.0012118678
9.4301459e-05
0.0010882994
-1.9795094e-05
0.00097184252
-0.00011951399
0.00086276707
-0.00020599593
0.0007609762
-0.0002801067
0.00066614022
-0.00034254885
0.00057783394
-0.00039403346
0.00049576161
-0.00043520715
0.0004193797
-0.00046654579
0.00034792266
-0.00048873152
0.00028123312
-0.00050223396
0.00021871199
-0.00050760171
0.00016019386
-0.00050532196
0.00010545337
-0.00049582207
5.4327777e-05
-0.00047998846
6.7927013e-06
-0.00045782695
-3.7097067e-05
-0.00042944581
-7.7109403e-05
-0.00039541498
-0.00011329824
-0.00035599786
-0.00014560866
-0.00031153916
-0.00017393764
-0.00026245323
-0.0001983683
-0.00020921453
-0.00021937171
-0.00015300729
-0.00023510554
-0.00025141149
3.279724e-05
-4.2816951e-06
4.6886648e-05
-1.9688872e-06
6.0484991e-05
1.373039e-06
7.3426685e-05
5.3866354e-06
8.560071e-05
1.0424227e-05
9.6929264e-05
1.6271193e-05
0.00010719332
2.292008e-05
0.00011638306
3.0302917e-05
0.00012424942
3.8481368e-05
0.0001306427
4.7364478e-05
0.00013536296
5.6911966e-05
0.00013858814
6.6950873e-05
0.00013966246
7.7760296e-05
0.0001389821
8.8857749e-05
0.00013593445
0.00010067133
0.00013063217
0.00011269285
0.00012273684
0.00012528995
0.0001121009
0.00013810602
9.8865461e-05
0.0001507886
8.246541e-05
0.00016394174
6.2961765e-05
0.00017684453
4.0311243e-05
0.00018946526
1.4541677e-05
0.00020170666
-1.3908772e-05
0.00021303921
-4.5338152e-05
0.00022397072
-7.9463364e-05
0.00023335681
-0.00011579666
0.00024101456
-0.0001537322
0.00024652842
-0.00019253662
0.00024957226
-0.00023131703
0.0002499681
-0.00026906922
0.0002478022
-0.00030475842
0.00024356049
-0.00033748678
0.00023825711
-0.00036666396
0.00023350523
-0.00039223623
0.00023155894
-0.00041489842
0.00023520522
-0.00043635215
0.00024772645
-0.00045954012
0.00027269216
-0.00048867736
0.00031349138
-0.0005292656
0.00037318765
-0.00058835803
0.00045487659
-0.00067393475
0.00056040354
-0.00079930679
0.00069244495
-0.0010169191
0.00089657901
-0.0014401319
0.0012900676
-0.0020226651
0.0016846388
-0.0021330111
0.00086129275
-0.00062679849
-0.0026210384
0.0010590649
-0.004818177
0.002210962
-0.004175711
0.0031363541
-0.0046241806
0.0040539899
-0.005960804
0.0057607545
-0.0083451793
0.0077442917
-0.009708839
0.0092932641
-0.0092132579
0.0104706
-0.0071837725
0.011217791
-0.0044028144
0.011298977
-0.0012873607
0.011164208
0.0013428349
0.01059874
0.0032631534
0.0096436318
0.0044829994
0.0083253114
0.0051048111
0.0064654822
0.0054840001
0.004598761
0.0051622208
0.0033431203
0.00412899
0.002751632
0.0031808852
0.0023984444
0.0028151134
0.0020321539
0.0027266722
0.0016640612
0.0025907837
0.0013349917
0.0023983227
0.0010503223
0.0022019354
0.00080365438
0.002014497
0.00058959281
0.0018353312
0.00040380842
0.0016648054
0.00024226626
0.0015038098
0.00010137708
0.0013527518
-2.1170635e-05
0.0012108476
-0.00012775755
0.0010784325
-0.00022011557
0.00095512429
-0.00029960778
0.00084046622
-0.00036721491
0.00073374829
-0.00042383609
0.00063445745
-0.00046993079
0.00054185837
-0.00050608476
0.00045553374
-0.00053295915
0.00037479857
-0.00055099606
0.00029927024
-0.00056064505
0.0002283605
-0.00056234154
0.00016188916
-0.00055653449
9.9645039e-05
-0.00054357639
4.1365213e-05
-0.00052393722
-1.2846762e-05
-0.00049787231
-6.3163706e-05
-0.0004657007
-0.00010928808
-0.00042776791
-0.00015123667
-0.00038435768
-0.00018902998
-0.00033586241
-0.00022242957
-0.00028298202
-0.00025124754
-0.00022590153
-0.00027646188
-0.00016576789
-0.00029524251
-0.00031508684
3.5044052e-05
-1.9717579e-05
5.0052664e-05
-1.6978588e-05
6.4472188e-05
-1.3046248e-05
7.8453714e-05
-8.5950175e-06
9.1448545e-05
-2.5725535e-06
0.00010358548
4.1304594e-06
0.00011468652
1.181479e-05
0.00012457832
2.0408432e-05
0.00013314121
2.9917909e-05
0.00014026101
4.0244893e-05
0.00014576431
5.1408009e-05
0.00014939421
6.3318811e-05
0.00015122845
7.5923506e-05
0.00015079723
8.9287795e-05
0.00014827805
0.00010319118
0.00014305825
0.00011791393
0.00013553191
0.00013281679
0.00012529564
0.00014834184
0.00011179714
0.00016428666
9.553086e-05
0.00018020835
7.6101294e-05
0.00019627442
5.3297641e-05
0.00021226719
2.7108232e-05
0.00022789113
-2.8131687e-06
0.00024295373
-3.5419793e-05
0.00025657165
-7.1201887e-05
0.0002691369
-0.00010957873
0.00027939286
-0.0001499016
0.00028685323
-0.00019126133
0.00029093127
-0.00023249844
0.00029120123
-0.00027223133
0.00028753017
-0.00030892914
0.00028025548
-0.00034107889
0.00027040707
-0.00036745087
0.00025987843
-0.00038739042
0.00025149913
-0.00040115759
0.00024897373
-0.00041026883
0.00025684058
-0.00041778898
0.000280215
-0.00042832887
0.00032403211
-0.00044771936
0.00039257646
-0.00048164769
0.00048880257
-0.00053426021
0.00061301722
-0.00062183036
0.00078001953
-0.00081309238
0.001087844
-0.0011566093
0.0016335836
-0.0013533432
0.0018813694
-0.00060767941
0.0001156281
0.0014539854
-0.0046827007
0.0027964731
-0.0061606624
0.0037353062
-0.0051145447
0.0041941654
-0.0050830423
0.0050797043
-0.0068463434
0.0069959048
-0.010261377
0.0091074129
-0.011820345
0.010840317
-0.010946163
0.012129781
-0.0084732386
0.012818613
-0.0050916484
0.013078944
-0.0015476911
0.013048421
0.0013733567
0.012828076
0.0034834966
0.01179885
0.0055122246
0.01009724
0.0068064242
0.0078663417
0.0077148991
0.0055108663
0.0075176949
0.0036142765
0.0060255793
0.0026118474
0.0041833155
0.0021648936
0.0032620703
0.0018254922
0.0030660756
0.001475216
0.0029410625
0.0011487026
0.0027248431
0.00086749995
0.0024831425
0.000627347
0.0022546511
0.00042119476
0.0020414819
0.00024426548
0.0018417364
9.1474695e-05
0.0016566022
-3.9563639e-05
0.0014837904
-0.00015285518
0.0013241412
-0.00025062478
0.0011762036
-0.00033470195
0.0010391992
-0.000406312
0.00091207358
-0.00046666591
0.00079410495
-0.00051651466
0.00068431065
-0.00055660759
0.0005819525
-0.0005872324
0.0004861527
-0.00060907897
0.00039664185
-0.00062227742
0.00031246828
-0.00062745971
0.00023354342
-0.00062494572
0.00015937102
-0.0006149473
8.9642109e-05
-0.00059791682
2.4332018e-05
-0.00057413011
-3.6633991e-05
-0.0005439217
-9.3372341e-05
-0.00050758371
-0.00014562614
-0.00046533221
-0.0001934902
-0.0004176583
-0.0002367128
-0.00036493268
-0.00027515964
-0.00030744901
-0.00030872718
-0.00024597138
-0.00033794995
-0.00018114338
-0.00036007252
-0.00038338201
3.7690443e-05
-3.6260867e-05
5.3771308e-05
-3.3058555e-05
6.9294655e-05
-2.8568533e-05
8.4064733e-05
-2.3365786e-05
9.8115857e-05
-1.6626903e-05
0.00011124031
-8.9984201e-06
0.0001232802
-2.279798e-07
0.00013408972
9.5988693e-06
0.00014354825
2.0460846e-05
0.0001514808
3.2312849e-05
0.00015778491
4.5102132e-05
0.00016228662
5.8814291e-05
0.00016475259
7.3456233e-05
0.00016513327
8.8908431e-05
0.00016311448
0.00010521254
0.00015886302
0.00012216711
0.00015162958
0.00014005047
0.00014163653
0.00015833487
0.0001286289
0.00017729543
0.00011247124
0.00019636799
9.2819965e-05
0.00021592626
6.9605041e-05
0.00023547924
4.2660954e-05
0.00025482934
1.2198005e-05
0.00027341059
-2.2197255e-05
0.00029096347
-6.012308e-05
0.00030706257
-0.00010123543
0.00032050621
-0.00014484022
0.00033045711
-0.00018988015
0.00033596731
-0.000234912
0.00033622819
-0.00027808174
0.00033069656
-0.00031721115
0.00031938373
-0.00034997871
0.00030317467
-0.00037422859
0.00028412861
-0.00038837953
0.00026565112
-0.00039184235
0.00025244026
-0.00038569278
0.00025069665
-0.00037313575
0.00026766117
-0.00035938754
0.00031028308
-0.00035052218
0.00038370919
-0.0003493716
0.00048765194
-0.00035518338
0.00061883199
-0.00038381482
0.00080865485
-0.00048129572
0.0011853264
-0.00055154169
0.0017038294
-0.00021662102
0.001546449
0.001353802
-0.0014547927
0.0028594207
-0.0061883166
0.0034690481
-0.0067702895
0.0042860414
-0.0059315398
0.0050175451
-0.0058145478
0.0059984951
-0.0078272926
0.0079550218
-0.012217901
0.009902096
-0.013767418
0.011183871
-0.01222794
0.011993741
-0.0092831093
0.012423533
-0.0055214418
0.012580414
-0.0017045711
0.012724331
0.0012294387
0.012510049
0.0036977796
0.011860546
0.0061617305
0.010479258
0.0081877157
0.0085805159
0.0096136445
0.0062630458
0.009835165
0.0041368777
0.0081517488
0.0027243221
0.0055958727
0.0020039611
0.003982433
0.0015940007
0.0034760398
0.0012395215
0.0032955433
0.00091679848
0.0030475703
0.00064347777
0.0027564655
0.00041495219
0.0024831776
0.00022171014
0.0022347245
5.7759126e-05
0.0020056931
-8.073888e-05
0.0017951045
-0.00019939453
0.0016024454
-0.00030104508
0.0014257895
-0.00038808274
0.0012632408
-0.00046224556
0.0011133597
-0.00052484008
0.00097466568
-0.0005770177
0.00084628387
-0.00061936615
0.00072665562
-0.00065258047
0.00061516172
-0.00067710696
0.00051067511
-0.00069321126
0.00041274746
-0.00070135724
0.00032061265
-0.00070171768
0.00023390094
-0.00069455451
0.00015220318
-0.00068016889
7.5250847e-05
-0.0006588011
2.9653227e-06
-0.00063066256
-6.4772829e-05
-0.00059605351
-0.00012798788
-0.0005551767
-0.00018649891
-0.00050841804
-0.00024025607
-0.00045600806
-0.000289122
-0.0003983883
-0.00033279467
-0.00033591987
-0.00037119415
-0.00026953603
-0.00040432935
-0.00019922803
-0.00043038247
-0.00045694145
4.0717031e-05
-5.4044402e-05
5.8023813e-05
-5.0362226e-05
7.4692836e-05
-4.523604e-05
9.0653769e-05
-3.9328412e-05
0.00010582057
-3.1797884e-05
0.00011999745
-2.317872e-05
0.00013306533
-1.3295993e-05
0.0001449656
-2.2988337e-06
0.00015544522
9.9836147e-06
0.00016437305
2.3384805e-05
0.00017163377
3.7839069e-05
0.0001770341
5.3412363e-05
0.00018050351
6.9988002e-05
0.00018173074
8.7684329e-05
0.00018062309
0.00010632288
0.00017687237
0.00012591875
0.00017067801
0.00014624491
0.0001611993
0.00016781465
0.00014868292
0.00018981424
0.00013259314
0.00021245967
0.00011309076
0.00023542766
8.9867334e-05
0.00025869839
6.2306797e-05
0.00028238425
3.0754759e-05
0.00030495836
-5.5628524e-06
0.00032727934
-4.575765e-05
0.00034725705
-9.0237249e-05
0.00036498465
-0.00013811455
0.0003783311
-0.00018824485
0.00038609297
-0.00023885968
0.0003868392
-0.00028757947
0.00037941429
-0.00033140567
0.00036320869
-0.00036690421
0.00033867254
-0.00039058258
0.0003078083
-0.00039945206
0.00027452455
-0.00039152124
0.00024451513
-0.00036709282
0.00022627359
-0.00032973776
0.00023030806
-0.0002856962
0.00026624015
-0.00024239341
0.00034040551
-0.00020082814
0.00044608787
-0.00016013242
0.00057813841
-0.00014163317
0.0007901577
-0.00017034081
0.0012140358
-5.8162343e-05
0.0015916537
0.00062489478
0.00086339523
0.0022928843
-0.00312278
0.0033535476
-0.0072489797
0.0041447527
-0.0075614963
0.005032342
-0.0068191299
0.0057160523
-0.0064982571
0.0065932312
-0.0087044699
0.00820254
-0.013827208
0.0095017809
-0.015066658
0.010478558
-0.013204717
0.011131766
-0.0099363176
0.011178426
-0.0055681023
0.010806919
-0.0013330646
0.010334597
0.0017017633
0.010271912
0.0037604684
0.010065101
0.0063685471
0.0093034615
0.0089493564
0.008005429
0.010911678
0.0061402757
0.011700319
0.0043080027
0.0099840248
0.0027805505
0.0071233262
0.0018625709
0.0049004118
0.0013341806
0.0040044322
0.00094893894
0.0036807901
0.00063272719
0.0033637835
0.0003755603
0.0030136312
0.00016469897
0.0026940437
-7.7735448e-06
0.0024072006
-0.00015169754
0.002149617
-0.0002734299
0.0019168353
-0.0003765164
0.0017055313
-0.00046407602
0.0015133459
-0.00053846631
0.0013376284
-0.00060134719
0.0011762396
-0.00065406755
0.0010273838
-0.00069696764
0.0008891813
-0.00073131037
0.00076099362
-0.00075722792
0.00064107595
-0.00077519462
0.00052864003
-0.0007853739
0.00042292589
-0.00078804003
0.00032327777
-0.00078331953
0.00022917811
-0.00077136621
0.00014024515
-0.00075237508
5.6258646e-05
-0.00072644866
-2.2961657e-05
-0.00069372814
-9.7496036e-05
-0.00065444592
-0.00016726936
-0.0006087925
-0.00023215892
-0.00055704289
-0.00029200584
-0.00049958831
-0.00034658028
-0.00043659262
-0.00039578993
-0.00036865606
-0.000439138
-0.00029676252
-0.00047622393
-0.00022024937
-0.00050689882
-0.00053644082
4.4184956e-05
-7.323009e-05
6.2831377e-05
-6.9004414e-05
8.0849462e-05
-6.3253474e-05
9.8071718e-05
-5.65538e-05
0.00011447837
-4.8208521e-05
0.00012984103
-3.8542703e-05
0.00014417653
-2.7629208e-05
0.00015710429
-1.5222967e-05
0.00016888722
-1.7975611e-06
0.00017893423
1.3336773e-05
0.00018730985
2.9461864e-05
0.00019387524
4.6847418e-05
0.00019837888
6.5487075e-05
0.00020072635
8.5339883e-05
0.00020064144
0.00010640933
0.00019792917
0.0001286312
0.00019220934
0.00015196512
0.00018398102
0.00017604452
0.00017203943
0.00020175764
0.00015658113
0.00022791821
0.00013710535
0.00025490123
0.00011349641
0.00028230349
8.5679278e-05
0.00031019763
5.2668805e-05
0.00033796644
1.5427626e-05
0.00036451945
-2.7209671e-05
0.00038989343
-7.5705978e-05
0.0004134791
-0.00012894594
0.00043156813
-0.0001858414
0.00044298519
-0.00024434961
0.00044534483
-0.00030148063
0.0004365439
-0.00035326583
0.00041499352
-0.00039490378
0.00038031164
-0.00042103333
0.00033394147
-0.00042648948
0.00027998562
-0.0004067309
0.00022476064
-0.00036065487
0.00018020078
-0.00029293595
0.0001625913
-0.00021124544
0.00018454962
-0.00012762522
0.00025678384
-4.5782491e-05
0.00036424397
2.4482563e-05
0.00050787358
4.1298748e-05
0.00077334371
2.3698292e-05
0.0012316391
0.00020943831
0.0014059164
0.0011319473
-5.9110536e-05
0.0023729908
-0.0043638212
0.0035541829
-0.0084301714
0.004162336
-0.008169651
0.0052315717
-0.0078883665
0.006008315
-0.0072749991
0.0068880761
-0.0095842302
0.0078154927
-0.014754623
0.0085336863
-0.015784852
0.0089786135
-0.013649645
0.0095004051
-0.01045811
0.0094436794
-0.0055113754
0.0092237633
-0.0011131469
0.0087581189
0.0021674092
0.0082945627
0.004224027
0.0078910718
0.0067720392
0.0072497719
0.0095906589
0.0064261225
0.011735328
0.0051649823
0.012961459
0.0037066808
0.011442326
0.0024526041
0.0083774023
0.0015493824
0.005803636
0.00096699094
0.0045868261
0.00057413155
0.0040736498
0.00028311965
0.0036547974
5.6601491e-05
0.0032401498
-0.00012098185
0.0028716297
-0.00026584381
0.0025520629
-0.00038556125
0.0022693312
-0.00048522704
0.0020165013
-0.00056917872
0.0017894872
-0.00064040682
0.0015845747
-0.00070042961
0.0013976463
-0.000750753
0.0012265577
-0.00079224401
0.0010688749
-0.00082586064
0.00092279938
-0.00085156277
0.00078669428
-0.00086987492
0.00065938465
-0.00088104623
0.00053981121
-0.0008851458
0.00042702457
-0.0008821812
0.00032031315
-0.00087229276
0.00021929356
-0.00085536498
0.00012332215
-0.00083153141
3.2427655e-05
-0.00080082409
-5.3671882e-05
-0.00076338046
-0.00013495155
-0.00071921604
-0.00021143982
-0.00066852133
-0.00028285765
-0.00061152227
-0.00034899884
-0.00054848493
-0.00040961227
-0.00047978686
-0.00046449281
-0.00040586558
-0.00051305921
-0.00032765455
-0.00055444459
-0.00024430822
-0.00059024137
-0.00062281091
4.8142914e-05
-9.3971854e-05
6.8260553e-05
-8.911912e-05
8.7714147e-05
-8.2708579e-05
0.00010639707
-7.5240717e-05
0.00012417019
-6.5984689e-05
0.00014091623
-5.5288495e-05
0.00015643122
-4.3141302e-05
0.00017087205
-2.9661077e-05
0.00018362259
-1.4547565e-05
0.00019512848
1.8299618e-06
0.00020487519
1.9714944e-05
0.00021272947
3.899472e-05
0.00021852816
5.9690964e-05
0.00022214152
8.1728554e-05
0.00022329318
0.00010525845
0.00022184362
0.00013008084
0.00021743161
0.00015637735
0.00020967933
0.00018379733
0.00019915905
0.00021227828
0.00018442256
0.00024265439
0.00016574675
0.00027357597
0.00014241599
0.00030563266
0.00011479523
0.00033781676
8.1594116e-05
0.00037116651
4.2137273e-05
0.00040397608
-4.0671487e-06
0.00043609792
-5.6325444e-05
0.0004657369
-0.00011589389
0.00049113522
-0.00018147419
0.00050856369
-0.00025074589
0.00051461531
-0.00032017721
0.00050597595
-0.00038455105
0.00047936994
-0.00043716944
0.00043293295
-0.00047033453
0.00036710925
-0.00047631512
0.00028596894
-0.00044630263
0.00019475096
-0.00037552132
0.00010942266
-0.00026993344
5.7005761e-05
-0.00013985854
5.4473552e-05
-5.4222094e-06
0.00012234372
0.00011217074
0.00024664877
0.00018023028
0.00043981509
0.00013564357
0.00081793296
3.053471e-05
0.0013367495
0.00031581857
0.0011206333
0.0012575007
-0.0010007902
0.001988261
-0.005094578
0.0026531534
-0.0090950627
0.0030434578
-0.0085599572
0.0044869951
-0.0093319062
0.0052783863
-0.0080663893
0.0066073642
-0.010913208
0.0073196975
-0.015466958
0.0071550694
-0.015620226
0.0069810692
-0.013475646
0.0066568103
-0.010133849
0.0070104139
-0.0058649778
0.0074095296
-0.0015122633
0.0073179413
0.0022589933
0.0063836009
0.0051583682
0.0053164387
0.0078392045
0.0044448954
0.010462204
0.0037699062
0.012410316
0.0028949715
0.013836393
0.0021684091
0.012168891
0.0015162688
0.0090295438
0.00088589859
0.006434004
0.0004105726
0.0050621525
8.6939633e-05
0.0043972843
-0.00013767164
0.0038794118
-0.00030735943
0.0034098405
-0.00044169616
0.0030059666
-0.00055012201
0.002660489
-0.00063900314
0.0023582139
-0.00071327049
0.0020907745
-0.0007757827
0.0018520014
-0.00082826529
0.0016370529
-0.00087235373
0.0014417313
-0.00090911777
0.0012633196
-0.00093888945
0.0010986458
-0.00096212253
0.00094603345
-0.00097903272
0.00080360211
-0.00098972147
0.00067006847
-0.00099399182
0.00054407959
-0.00099191291
0.00042494619
-0.00098334562
0.00031174951
-0.00096807122
0.00020401472
-0.0009461746
0.00010142858
-0.00091748333
3.7313098e-06
-0.00088205125
-8.9104914e-05
-0.00083964813
-0.00017734253
-0.00079044731
-0.00026064396
-0.00073449163
-0.00033880674
-0.00067195121
-0.00041154885
-0.00060304487
-0.00047851279
-0.00052810475
-0.00053944263
-0.00044762379
-0.00059354187
-0.00036228427
-0.00063979644
-0.00027156536
-0.0006809581
-0.00071692971
5.261302e-05
-0.00011641234
7.4452512e-05
-0.00011095865
9.5462583e-05
-0.00010372179
0.0001156392
-9.5421336e-05
0.00013485318
-8.5201e-05
0.00015309028
-7.3525241e-05
0.00017012747
-6.017673e-05
0.00018579838
-4.5330692e-05
0.0002001921
-2.8941057e-05
0.00021303277
-1.1010773e-05
0.00022427023
8.4781152e-06
0.00023357901
2.9687593e-05
0.00024091308
5.2359081e-05
0.00024597605
7.6667433e-05
0.00024861405
0.00010262128
0.00024851114
0.00013018347
0.0002456888
0.0001591988
0.00023937331
0.00019011224
0.00022961075
0.00022204132
0.00021655417
0.00025571236
0.00019885591
0.00029127547
0.00017680378
0.00032768501
0.00014917383
0.00036544625
0.00011585376
0.0004044866
7.5413035e-05
0.00044441781
2.752073e-05
0.00048399136
-3.002423e-05
0.00052328196
-9.6880866e-05
0.00055799105
-0.00017325536
0.00058493786
-0.00025689718
0.00059825863
-0.00034344672
0.00059252902
-0.00042618703
0.00056211393
-0.00049787153
0.00050461868
-0.00054765144
0.00041688908
-0.00056140434
0.00029972417
-0.00052430046
0.00015765186
-0.00042245418
7.5798642e-06
-0.00026197676
-0.00010347207
-6.2601713e-05
-0.00014490491
0.00013201719
-7.2278255e-05
0.00027970323
9.8962285e-05
0.00031804555
0.00040147351
0.00018807509
0.00094790352
1.8991493e-05
0.0015058339
0.00027177528
0.00086785145
0.00086278837
-0.0015918012
0.0012419519
-0.0054737408
0.0015930699
-0.0094461824
0.0025447239
-0.0095116134
0.0038794693
-0.010666653
0.0047289595
-0.0089158796
0.0057157515
-0.011900001
0.0055399801
-0.01529119
0.0049237368
-0.015003983
0.0039383525
-0.01249026
0.003267849