/*--------------------------------*- C++ -*----------------------------------*\
  =========                 |
  \\      /  F ield         | OpenFOAM: The Open Source CFD Toolbox
   \\    /   O peration     | Website:  https://openfoam.org
    \\  /    A nd           | Version:  9
     \\/     M anipulation  |
\*---------------------------------------------------------------------------*/
FoamFile
{
    format      ascii;
    class       surfaceScalarField;
    location    "0.2";
    object      alphaPhi0.phase1;
}
// * * * * * * * * * * * * * * * * * * * * * * * * * * * * * * * * * * * * * //

dimensions      [0 3 -1 0 0 0 0];

internalField   nonuniform List<scalar> 
8032
(
-4.61019e-306
8.15732e-313
-2.52824e-299
4.35961e-306
-7.42326e-293
1.15947e-299
-1.47768e-286
2.30347e-293
-2.2163e-280
3.03126e-287
-2.72282e-274
3.00754e-281
-2.90911e-268
2.19861e-275
-2.84348e-262
9.76694e-270
-2.36474e-256
-2.98457e-257
-1.04628e-250
-1.16238e-250
-1.99872e-245
-8.21879e-245
-1.01405e-240
-2.05061e-239
-6.27612e-237
-1.27892e-234
-2.33211e-234
-1.01531e-230
-2.81075e-233
-5.51892e-228
1.55e-234
-1.33947e-226
3.13734e-233
-1.34449e-226
2.49767e-234
-5.58435e-228
6.01995e-237
-9.30605e-231
4.87062e-241
-5.87915e-235
5.07964e-246
-4.70565e-240
2.09599e-251
-1.44471e-245
4.42921e-257
-1.94756e-251
5.57157e-263
-7.6655e-258
5.98002e-269
1.46535e-270
6.08678e-275
4.14104e-276
5.45046e-281
6.53709e-282
4.05028e-287
7.63122e-288
2.30056e-293
6.70521e-294
8.71422e-300
4.19535e-300
1.61826e-306
1.64466e-306
2.9729e-313
-1.75134e-298
6.8697e-305
-8.26618e-292
3.08644e-298
-2.00105e-285
7.01738e-292
-3.2778e-279
1.08109e-285
-4.14698e-273
1.18926e-279
-4.37048e-267
9.91157e-274
-4.06517e-261
6.1642e-268
-3.50074e-255
2.28087e-262
-2.49481e-249
-4.21335e-250
-9.42392e-244
-1.14837e-243
-1.52448e-238
-6.7999e-238
-6.53188e-234
-1.43123e-232
-3.53409e-230
-7.57443e-228
-1.20717e-227
-5.27328e-224
-1.40658e-226
-2.64051e-221
5.39142e-228
-6.1533e-220
1.51887e-226
-6.16669e-220
1.2642e-227
-2.65859e-221
3.30266e-230
-4.77138e-224
3.02885e-234
-3.40408e-228
3.48604e-239
-2.97345e-233
1.61648e-244
-1.02293e-238
3.86435e-250
-1.57163e-244
5.44034e-256
-7.02551e-251
6.46581e-262
3.03162e-263
7.27463e-268
9.49069e-269
7.19514e-274
1.65531e-274
5.90211e-280
2.13295e-280
3.69873e-286
2.06755e-286
1.54508e-292
1.42676e-292
3.16226e-299
6.16801e-299
1.2278e-305
-2.86526e-291
1.83397e-297
-1.17962e-284
7.25376e-291
-2.44321e-278
1.42269e-284
-3.4141e-272
1.81617e-278
-3.70334e-266
1.68561e-272
-3.37574e-260
1.19549e-266
-2.73859e-254
6.3543e-261
-2.07313e-248
1.95748e-255
-1.26752e-242
-2.61947e-243
-4.09101e-237
-5.39582e-237
-5.61831e-232
-2.69257e-231
-2.04876e-227
-4.8046e-226
-9.74383e-224
-2.17599e-221
-3.07646e-221
-1.33515e-217
-3.47546e-220
-6.18602e-215
6.43012e-222
-1.38614e-213
3.60822e-220
-1.38761e-213
3.14505e-221
-6.2066e-215
8.87448e-224
-1.19536e-217
9.20376e-228
-9.60476e-222
1.15686e-232
-9.04076e-227
6.0127e-238
-3.46033e-232
1.63772e-243
-6.09905e-238
2.60863e-249
-3.14368e-244
3.47138e-255
2.32038e-256
4.36621e-261
8.14063e-262
4.82355e-267
1.58657e-267
4.41565e-273
2.28169e-273
3.08601e-279
2.46622e-279
1.43696e-285
1.89671e-285
3.27663e-292
9.13614e-292
2.02542e-298
-2.69952e-284
2.46639e-290
-1.00097e-277
8.99891e-284
-1.81397e-271
1.54042e-277
-2.21318e-265
1.69632e-271
-2.09213e-259
1.35757e-265
-1.66363e-253
8.3041e-260
-1.18048e-247
3.80299e-254
-7.84714e-242
9.8713e-249
-4.13699e-236
-9.73292e-237
-1.14432e-230
-1.60866e-230
-1.34028e-225
-6.81833e-225
-4.19534e-221
-1.03772e-219
-1.7626e-217
-4.05311e-215
-5.16488e-215
-2.2005e-211
-5.65436e-214
-9.46174e-209
1.80527e-216
-2.04191e-207
5.69084e-214
-2.0426e-207
5.18441e-215
-9.47217e-209
1.57371e-217
-1.95394e-211
1.84024e-221
-1.76451e-215
2.49401e-226
-1.76752e-220
1.44241e-231
-7.4267e-226
4.50523e-237
-1.50573e-231
8.23764e-243
-9.06696e-238
1.24901e-248
1.04714e-249
1.78752e-254
4.19021e-255
2.24483e-260
9.28745e-261
2.33377e-266
1.51698e-266
1.85046e-272
1.86041e-272
9.76701e-279
1.62184e-278
2.52412e-285
8.84914e-285
2.2225e-291
-1.87318e-277
2.29264e-283
-6.13691e-271
7.50215e-277
-9.79453e-265
1.13368e-270
-1.04704e-258
1.08924e-264
-8.63539e-253
7.55973e-259
-5.98112e-247
3.99721e-253
-3.69925e-241
1.57878e-247
-2.14945e-235
3.48687e-242
-9.79557e-230
-2.49896e-230
-2.32803e-224
-3.43754e-224
-2.33617e-219
-1.2456e-218
-6.32165e-215
-1.62483e-213
-2.35413e-211
-5.49844e-209
-6.41429e-209
-2.64688e-205
-6.7929e-208
-1.05695e-202
-3.38485e-210
-2.20019e-201
6.72178e-208
-2.20003e-201
6.37537e-209
-1.05679e-202
2.07565e-211
-2.33587e-205
2.72968e-215
-2.36887e-209
3.93808e-220
-2.50332e-214
2.50033e-225
-1.1324e-219
8.97855e-231
-2.63357e-225
1.90961e-236
-1.86742e-231
3.36114e-242
3.27984e-243
5.57976e-248
1.52554e-248
8.12145e-254
3.92057e-254
9.77576e-260
7.41553e-260
8.96581e-266
1.05187e-265
5.46908e-272
1.05967e-271
1.63143e-278
6.67661e-278
1.93432e-284
-1.09244e-270
1.72983e-276
-3.09797e-264
4.94403e-270
-4.29015e-258
6.50653e-264
-3.97073e-252
5.40771e-258
-2.82897e-246
3.23067e-252
-1.69191e-240
1.46678e-246
-9.0512e-235
4.97103e-241
-4.56685e-229
9.37788e-236
-1.79923e-223
-4.82043e-224
-3.68064e-218
-5.63343e-218
-3.1749e-213
-1.75229e-212
-7.45554e-209
-1.96294e-207
-2.46443e-205
-5.75671e-203
-6.2423e-203
-2.45724e-199
-6.38812e-202
-9.09867e-197
-5.09351e-204
-1.82946e-195
6.28246e-202
-1.82896e-195
6.18233e-203
-9.09181e-197
2.15794e-205
-2.159e-199
3.18776e-209
-2.4607e-203
4.85209e-214
-2.73913e-208
3.31628e-219
-1.3032e-213
1.36531e-224
-3.44858e-219
3.40687e-230
-2.88338e-225
7.07359e-236
7.65151e-237
1.38599e-241
4.20754e-242
2.38003e-247
1.27613e-247
3.37721e-253
2.84559e-253
3.64764e-259
4.75382e-259
2.61756e-265
5.63398e-265
9.18177e-272
4.1723e-271
1.4205e-277
-5.60921e-264
1.12709e-269
-1.35273e-257
2.75381e-263
-1.59637e-251
3.09686e-257
-1.25972e-245
2.1934e-251
-7.65809e-240
1.11474e-245
-3.91663e-234
4.30573e-240
-1.79901e-228
1.24393e-234
-7.83807e-223
2.00506e-229
-2.66779e-217
-7.35229e-218
-4.7011e-212
-7.37603e-212
-3.48809e-207
-1.9711e-206
-7.10536e-203
-1.89247e-201
-2.08383e-199
-4.79119e-197
-4.89645e-197
-1.81074e-193
-4.84172e-196
-6.19866e-191
-3.93894e-198
-1.20532e-189
4.76009e-196
-1.20491e-189
4.84848e-197
-6.19273e-191
1.81834e-199
-1.58623e-193
3.0189e-203
-2.03579e-197
4.84011e-208
-2.40334e-202
3.47882e-213
-1.17473e-207
1.62895e-218
-3.49779e-213
4.77908e-224
-3.43015e-219
1.1835e-229
1.37297e-230
2.7742e-235
9.0434e-236
5.7013e-241
3.28339e-241
9.67778e-247
8.75929e-247
1.2495e-252
1.74907e-252
1.07097e-258
2.4756e-258
4.48123e-265
2.1878e-264
8.87835e-271
-2.5413e-257
6.40311e-263
-5.13251e-251
1.31373e-256
-5.08891e-245
1.24269e-250
-3.38386e-239
7.40683e-245
-1.73948e-233
3.17121e-239
-7.55878e-228
1.03467e-233
-2.96819e-222
2.53674e-228
-1.11315e-216
3.49333e-223
-3.26976e-211
-9.15046e-212
-4.95719e-206
-7.90538e-206
-3.15487e-201
-1.80935e-200
-5.55052e-197
-1.48061e-195
-1.44169e-193
-3.21489e-191
-3.13215e-191
-1.07348e-187
-2.99427e-190
-3.38565e-185
-2.14678e-192
-6.37339e-184
2.94983e-190
-6.37124e-184
3.1052e-191
-3.38248e-185
1.256e-193
-9.38547e-188
2.34799e-197
-1.35966e-191
3.99208e-202
-1.72475e-196
2.94741e-207
-8.48527e-202
1.55236e-212
-2.81331e-207
5.33022e-218
-3.20359e-213
1.58189e-223
1.92424e-224
4.47449e-229
1.53084e-229
1.11168e-234
6.72038e-235
2.2823e-240
2.16837e-240
3.5625e-246
5.2349e-246
3.68871e-252
8.95072e-252
1.86379e-258
9.54768e-258
4.67539e-264
-9.97579e-251
3.12769e-256
-1.67305e-244
5.33205e-250
-1.38259e-238
4.20055e-244
-7.69752e-233
2.09009e-238
-3.33197e-227
7.49666e-233
-1.22755e-221
2.05954e-227
-4.11667e-216
4.28053e-222
-1.32677e-210
5.04041e-217
-3.35531e-205
-9.46138e-206
-4.35811e-200
-7.02045e-200
-2.3646e-195
-1.3672e-194
-3.56864e-191
-9.4625e-190
-8.19018e-188
-1.74944e-185
-1.63925e-185
-5.15066e-182
-1.51632e-184
-1.49191e-179
-8.94564e-187
-2.72171e-178
1.49783e-184
-2.7209e-178
1.62773e-185
-1.4907e-179
7.13085e-188
-4.49749e-182
1.50458e-191
-7.37058e-186
2.74849e-196
-1.02049e-190
2.04221e-201
-4.9638e-196
1.19738e-206
-1.8216e-201
4.76637e-212
-2.38541e-207
1.69163e-217
2.12472e-218
5.79249e-223
2.04766e-223
1.74967e-228
1.09303e-228
4.37537e-234
4.29592e-234
8.32306e-240
1.26379e-239
1.05003e-245
2.6325e-245
6.45782e-252
3.41927e-251
2.03664e-257
-3.34006e-244
1.29524e-249
-4.62984e-238
1.82265e-243
-3.17897e-232
1.18973e-237
-1.47996e-226
4.92655e-232
-5.39633e-221
1.47874e-226
-1.68761e-215
3.42325e-221
-4.8358e-210
6.0415e-216
-1.33663e-204
6.08998e-211
-2.89577e-199
-8.19128e-200
-3.19963e-194
-5.18403e-194
-1.46831e-189
-8.51757e-189
-1.88686e-185
-4.94647e-184
-3.81821e-182
-7.73644e-180
-7.01753e-180
-2.0054e-176
-6.2873e-179
-5.32139e-174
-2.93683e-181
-9.41813e-173
6.22671e-179
-9.4158e-173
6.97896e-180
-5.318e-174
3.32373e-182
-1.74947e-176
7.93256e-186
-3.24847e-180
1.58151e-190
-4.98374e-185
1.16172e-195
-2.34951e-190
7.53761e-201
-9.52347e-196
3.44644e-206
-1.43223e-201
1.45027e-211
1.86135e-212
5.99504e-217
2.16662e-217
2.20352e-222
1.40743e-222
6.73422e-228
6.76006e-228
1.56852e-233
2.43506e-233
2.42406e-239
6.2136e-239
1.82653e-245
9.88453e-245
7.21017e-251
-9.41264e-238
4.49013e-243
-1.07871e-231
5.20669e-237
-6.16258e-226
2.81412e-231
-2.40528e-220
9.70671e-226
-7.41171e-215
2.44444e-220
-1.97222e-209
4.78441e-215
-4.82715e-204
7.18796e-210
-1.13932e-198
6.20056e-205
-2.09854e-193
-5.94009e-194
-1.95547e-188
-3.17698e-188
-7.52868e-184
-4.36651e-183
-8.18407e-180
-2.11328e-178
-1.458e-176
-2.78207e-174
-2.4545e-174
-6.34404e-171
-2.13239e-173
-1.53952e-168
-7.69441e-176
-2.64651e-167
2.11655e-173
-2.646e-167
2.44426e-174
-1.5388e-168
1.26908e-176
-5.53002e-171
3.43146e-180
-1.16447e-174
7.58017e-185
-2.0062e-179
5.39626e-190
-8.90395e-185
3.86669e-195
-3.95777e-190
2.02868e-200
-6.92341e-196
1.00027e-205
1.30263e-206
4.94756e-211
1.81491e-211
2.2032e-216
1.42844e-216
8.22172e-222
8.37785e-222
2.34846e-227
3.70059e-227
4.46004e-233
1.16028e-232
4.13094e-239
2.26963e-238
2.03494e-244
-2.21999e-231
1.29482e-236
-2.10953e-225
1.23841e-230
-1.00712e-219
5.55687e-225
-3.31186e-214
1.6033e-219
-8.65822e-209
3.4039e-214
-1.96236e-203
5.65474e-209
-4.08996e-198
7.23944e-204
-8.1858e-193
5.32656e-199
-1.27032e-187
-3.59322e-188
-9.89736e-183
-1.60902e-182
-3.17513e-178
-1.8366e-177
-2.90496e-174
-7.3703e-173
-4.55229e-171
-8.13787e-169
-7.00761e-169
-1.63208e-165
-5.9107e-168
-3.61825e-163
-1.61987e-170
-6.04918e-162
5.87745e-168
-6.04829e-162
6.9859e-169
-3.61713e-163
3.96176e-171
-1.42151e-165
1.21472e-174
-3.39563e-169
3.01315e-179
-6.6516e-174
2.01929e-184
-2.66246e-179
1.58653e-189
-1.25579e-184
9.67636e-195
-2.60307e-190
5.55348e-200
7.30351e-201
3.2447e-205
1.20227e-205
1.73438e-210
1.13588e-210
7.863e-216
8.09321e-216
2.74937e-221
4.37611e-221
6.41813e-227
1.68658e-226
7.32329e-233
4.06331e-232
4.49161e-238
-4.3723e-225
3.09588e-230
-3.46586e-219
2.45294e-224
-1.39147e-213
9.18796e-219
-3.87487e-208
2.23071e-213
-8.61229e-203
4.01237e-208
-1.65904e-197
5.66888e-203
-2.92653e-192
6.17096e-198
-4.92461e-187
3.84795e-193
-6.38187e-182
-1.80244e-182
-4.1277e-177
-6.70404e-177
-1.09781e-172
-6.32173e-172
-8.42327e-169
-2.09664e-167
-1.16084e-165
-1.93692e-163
-1.63228e-163
-3.41708e-160
-1.33851e-162
-6.91181e-158
-2.75335e-165
-1.1122e-156
1.33288e-162
-1.11208e-156
1.6286e-163
-6.91055e-158
1.00989e-165
-2.97347e-160
3.5124e-169
-8.05724e-164
9.90584e-174
-1.81898e-168
5.98685e-179
-6.26163e-174
4.99089e-184
-2.86914e-179
3.60546e-189
-6.95867e-185
2.43169e-194
3.2192e-195
1.66249e-199
6.20195e-200
1.05604e-204
6.96333e-205
5.77369e-210
5.98323e-210
2.4613e-215
3.94402e-215
7.05338e-221
1.86589e-220
9.91429e-227
5.5393e-226
7.55665e-232
-7.21224e-219
6.14752e-224
-4.80242e-213
4.06034e-218
-1.63104e-207
1.27833e-212
-3.85731e-202
2.6268e-207
-7.27821e-197
4.01403e-202
-1.18513e-191
4.81589e-197
-1.75531e-186
4.43276e-192
-2.4624e-181
2.32326e-187
-2.64496e-176
-7.45456e-177
-1.41278e-171
-2.28935e-171
-3.10491e-167
-1.77753e-166
-1.9931e-163
-4.86329e-162
-2.41507e-160
-3.75105e-158
-1.90382e-158
-3.4929e-155
-1.43326e-157
-1.56706e-155
-1.98924e-160
-5.15534e-155
1.42869e-157
-5.15498e-155
1.99983e-158
-1.56723e-155
2.10027e-160
-3.20616e-155
8.28722e-164
-1.55611e-158
2.6935e-168
-4.11843e-163
1.39995e-173
-1.18763e-168
1.13371e-178
-4.6645e-174
9.58011e-184
-1.23958e-179
7.7145e-189
1.02587e-189
6.21356e-194
2.32859e-194
4.69573e-199
3.11045e-199
3.09437e-204
3.22124e-204
1.6082e-209
2.58873e-209
5.66305e-215
1.50494e-214
9.8282e-221
5.51538e-220
9.31162e-226
-1.00082e-212
1.01776e-217
-5.6364e-207
5.64801e-212
-1.62503e-201
1.50438e-206
-3.26053e-196
2.62502e-201
-5.19617e-191
3.40415e-196
-7.0977e-186
3.45029e-191
-8.75521e-181
2.66476e-186
-1.01654e-175
1.16411e-181
-9.0009e-171
-2.52971e-171
-3.95752e-166
-6.38979e-166
-7.17423e-162
-4.07839e-161
-3.80459e-158
-9.10026e-157
-2.63261e-157
-2.09754e-155
-1.93573e-154
-2.38957e-153
-2.12587e-152
-4.60062e-151
-2.41689e-155
-6.98234e-150
2.12087e-152
-6.98202e-150
2.18118e-154
-4.60066e-151
7.4488e-157
-2.36083e-153
1.59325e-158
-4.8992e-155
6.07518e-163
-7.75928e-158
2.64506e-168
-2.02803e-163
1.83598e-173
-5.8648e-169
1.69966e-178
-1.50475e-174
1.63027e-183
2.17454e-184
1.56482e-188
5.88237e-189
1.4158e-193
9.40715e-194
1.12849e-198
1.17837e-198
7.17165e-204
1.15791e-203
3.11367e-209
8.29909e-209
6.69399e-215
3.76864e-214
7.9005e-220
-1.17484e-206
1.41405e-211
-5.6171e-201
6.63964e-206
-1.37376e-195
1.50182e-200
-2.32707e-190
2.22353e-195
-3.10906e-185
2.43488e-190
-3.53433e-180
2.06929e-185
-3.60561e-175
1.33031e-180
-3.44618e-170
4.80929e-176
-2.50654e-165
-7.01385e-166
-9.05762e-161
-1.45469e-160
-1.22737e-156
-6.93096e-156
-3.56931e-156
-4.3437e-155
-2.13699e-152
-2.55243e-151
-2.96448e-149
-3.14592e-148
-2.99692e-147
-5.57544e-146
-2.52747e-150
-8.13031e-145
2.99175e-147
-8.1301e-145
3.34736e-149
-5.57584e-146
7.72187e-152
-3.11468e-148
4.06003e-154
-3.58033e-150
1.14213e-157
-2.00555e-153
4.50514e-163
-3.82691e-158
2.30245e-168
-9.26899e-164
2.05775e-173
-1.99851e-169
2.27537e-178
3.04138e-179
2.59436e-183
9.77298e-184
2.7845e-188
1.85398e-188
2.65389e-193
2.77686e-193
2.04248e-198
3.30446e-198
1.08672e-203
2.90249e-203
2.88752e-209
1.62882e-208
4.24067e-214
-1.16964e-200
1.65836e-205
-4.74552e-195
6.61707e-200
-9.79711e-190
1.27024e-194
-1.39067e-184
1.5878e-189
-1.54532e-179
1.45722e-184
-1.45185e-174
1.03014e-179
-1.21841e-169
5.47421e-175
-9.55014e-165
1.62877e-170
-5.69795e-160
-1.57873e-160
-1.12349e-155
-1.80603e-155
-6.73855e-155
-3.38861e-154
-5.78854e-151
-5.99836e-150
-3.05947e-147
-3.13959e-146
-3.72894e-144
-3.40224e-143
-3.47e-142
-5.5511e-141
-2.17894e-145
-7.77786e-140
3.4656e-142
-7.77777e-140
4.27756e-144
-5.55174e-141
1.08948e-146
-3.42247e-143
6.16382e-149
-4.6812e-145
1.45007e-152
-3.00138e-148
8.48824e-158
-4.98165e-153
3.63262e-163
-1.77057e-158
2.72826e-168
-3.79455e-164
3.16435e-173
4.23587e-174
4.05189e-178
1.52853e-178
4.78143e-183
3.18804e-183
4.9717e-188
5.20933e-188
4.22232e-193
6.84038e-193
2.54253e-198
6.79975e-198
7.86606e-204
4.4439e-203
1.3801e-208
-9.85329e-195
1.64619e-199
-3.37454e-189
5.57762e-194
-5.83504e-184
9.03915e-189
-6.88361e-179
9.46488e-184
-6.31614e-174
7.21998e-179
-4.87697e-169
4.21496e-174
-3.35324e-164
1.84106e-169
-2.14921e-159
4.48987e-165
-4.03459e-155
-1.1272e-155
-7.90577e-154
-1.20096e-153
-9.99e-150
-4.87129e-149
-8.12062e-146
-7.16243e-145
-3.59823e-142
-3.17225e-141
-3.85326e-139
-3.02385e-138
-3.30043e-137
-4.54274e-136
-1.55501e-140
-6.11598e-135
3.29734e-137
-6.11597e-135
4.49403e-139
-4.5434e-136
1.26272e-141
-3.09325e-138
7.64449e-144
-5.02616e-140
2.11829e-147
-3.66738e-143
1.13706e-152
-7.44155e-148
6.93087e-158
-2.37775e-153
5.1746e-163
-7.27914e-159
6.60911e-168
8.85658e-169
9.83305e-173
3.71306e-173
1.3118e-177
8.75489e-178
1.49109e-182
1.5638e-182
1.34332e-187
2.17826e-187
8.45556e-193
2.26348e-192
2.75268e-198
1.55647e-197
5.2092e-203
-6.94708e-189
1.37538e-193
-1.99134e-183
3.93428e-188
-2.85818e-178
5.33667e-183
-2.78012e-173
4.63881e-178
-2.09315e-168
2.91787e-173
-1.32193e-163
1.39785e-168
-7.41822e-159
4.99487e-164
-6.03277e-155
1.16204e-159
-4.83166e-153
-1.30822e-153
-1.14763e-148
-1.71638e-148
-1.22017e-144
-5.74602e-144
-9.35277e-141
-7.0215e-140
-3.47675e-137
-2.63376e-136
-3.27134e-134
-2.20951e-133
-2.57896e-132
-3.05679e-131
-9.22651e-136
-3.95456e-130
2.57716e-132
-3.95458e-130
3.88166e-134
-3.0573e-131
1.20231e-136
-2.30006e-133
7.79029e-139
-4.43199e-135
2.53992e-142
-3.67895e-138
1.70701e-147
-9.126e-143
7.4573e-153
-3.58469e-148
9.91547e-158
-7.81854e-154
1.47578e-162
1.981e-163
2.65324e-167
1.00259e-167
4.24558e-172
2.83535e-172
5.71636e-177
5.999e-177
5.99141e-182
9.72129e-182
4.29439e-187
1.15025e-186
1.56051e-192
8.83026e-192
3.26105e-197
-4.06347e-183
9.64896e-188
-9.63916e-178
2.30178e-182
-1.13798e-172
2.58401e-177
-9.06492e-168
1.84763e-172
-5.57306e-163
9.51833e-168
-2.86764e-158
3.72494e-163
-4.49895e-155
1.16176e-158
-1.82991e-152
1.91889e-154
-6.94336e-148
-1.86275e-148
-1.37001e-143
-2.01249e-143
-1.22844e-139
-5.56225e-139
-8.84352e-136
-5.65244e-135
-2.76009e-132
-1.79731e-131
-2.28197e-129
-1.32775e-128
-1.65571e-127
-1.69191e-126
-4.56926e-131
-2.10338e-125
1.65483e-127
-2.10339e-125
2.75611e-129
-1.69221e-126
9.40527e-132
-1.40727e-128
6.52149e-134
-3.20975e-130
2.49991e-137
-3.03025e-133
2.10448e-142
-9.18901e-138
1.12554e-147
-4.44008e-143
4.16823e-153
-1.17975e-148
2.83896e-157
6.75486e-158
6.24998e-162
2.37068e-162
1.21872e-166
8.14288e-167
1.99326e-171
2.09273e-171
2.52384e-176
4.0968e-176
2.16753e-181
5.80829e-181
9.34051e-187
5.28747e-186
2.29077e-191
-1.96058e-177
5.63605e-182
-3.82359e-172
1.11082e-176
-3.69867e-167
1.02523e-171
-2.40924e-162
6.00676e-167
-1.20828e-157
2.53405e-162
-2.37966e-155
8.26716e-158
-6.48325e-152
2.16793e-153
-2.62104e-147
3.31795e-149
-8.19697e-143
-2.17582e-143
-1.34545e-138
-1.93602e-138
-1.01998e-134
-4.41925e-134
-6.86489e-131
-3.73736e-130
-1.80031e-127
-1.00837e-126
-1.30798e-124
-6.56385e-124
-8.73388e-123
-7.7056e-122
-1.8953e-126
-9.20613e-121
8.73032e-123
-9.20623e-121
1.60842e-124
-7.70702e-122
6.0448e-127
-7.08552e-124
4.48466e-129
-1.90927e-125
2.01975e-132
-2.0494e-128
2.13074e-137
-7.59695e-133
1.3959e-142
-4.51886e-138
6.29772e-148
-1.46258e-143
1.48994e-155
1.23622e-152
1.19311e-156
4.58959e-157
2.87867e-161
1.95037e-161
5.74053e-166
6.02898e-166
8.84255e-171
1.43578e-170
9.20254e-176
2.46666e-175
4.77707e-181
2.70525e-180
1.40148e-185
-7.83868e-172
2.73789e-176
-1.25512e-166
4.44171e-171
-9.95547e-162
3.36586e-166
-5.2839e-157
1.62684e-161
-1.29174e-155
5.61713e-157
-2.60947e-151
1.66588e-152
-9.2785e-147
3.73834e-148
-3.08354e-142
4.70371e-144
-7.95131e-138
-2.08483e-138
-1.08746e-133
-1.52815e-133
-6.98804e-130
-2.88215e-129
-4.37469e-126
-2.03004e-125
-9.64827e-123
-4.65255e-122
-6.16038e-120
-2.67035e-119
-3.78554e-118
-2.88874e-117
-6.60019e-122
-3.31698e-116
3.78432e-118
-3.31701e-116
7.7131e-120
-2.88929e-117
3.19194e-122
-2.93597e-119
2.53337e-124
-9.32794e-121
1.33949e-127
-1.13807e-123
1.77164e-132
-5.15691e-128
1.42287e-137
-3.77898e-133
7.80613e-143
-1.49016e-138
2.08015e-150
1.86615e-147
6.1848e-155
8.38521e-152
5.25132e-156
3.74097e-156
1.35955e-160
1.51229e-160
2.55348e-165
4.14706e-165
3.23204e-170
8.66519e-170
2.03226e-175
1.15109e-174
7.18047e-180
-2.5991e-166
1.10535e-170
-3.41352e-161
1.47294e-165
-2.16525e-156
9.37841e-161
-3.11463e-155
3.61267e-156
-1.13673e-150
1.16334e-151
-3.7302e-146
2.86509e-147
-1.09084e-141
5.28451e-143
-2.9801e-137
5.46648e-139
-6.33921e-133
-1.63865e-133
-7.23683e-129
-9.89756e-129
-4.17479e-125
-1.54318e-124
-2.28843e-121
-9.06045e-121
-4.24838e-118
-1.76587e-117
-2.38418e-115
-8.94334e-115
-1.3482e-113
-8.91776e-113
-1.93184e-117
-9.84209e-112
1.34784e-113
-9.84221e-112
3.0385e-115
-8.91944e-113
1.3848e-117
-1.00125e-114
1.17557e-119
-3.74303e-116
7.29174e-123
-5.1891e-119
1.20965e-127
-2.87412e-123
1.19206e-132
-2.59677e-128
7.95248e-138
-1.24774e-133
2.61164e-145
2.31599e-142
8.94989e-150
1.2658e-146
2.73439e-154
6.86279e-151
2.0303e-155
2.78721e-155
6.0597e-160
1.19195e-159
9.36338e-165
2.51074e-164
7.16669e-170
4.06023e-169
3.06933e-174
-7.09253e-161
3.68147e-165
-7.02395e-156
4.32982e-160
-1.24945e-154
2.04917e-155
-5.04448e-150
7.52072e-151
-1.62209e-145
1.99523e-146
-4.38066e-141
4.03874e-142
-1.05372e-136
6.12276e-138
-2.36651e-132
5.20726e-134
-4.15499e-128
-1.05648e-128
-3.96718e-124
-5.26054e-124
-2.18544e-120
-6.78444e-120
-9.82597e-117
-3.32359e-116
-1.53695e-113
-5.51532e-113
-7.58224e-111
-2.46675e-110
-3.94534e-109
-2.26796e-108
-4.75007e-113
-2.40606e-107
3.94449e-109
-2.40609e-107
9.82997e-111
-2.26838e-108
4.93602e-113
-2.81042e-110
4.4809e-115
-1.23358e-111
3.25808e-118
-1.9426e-114
6.78195e-123
-1.31512e-118
8.2084e-128
-1.46623e-123
6.65855e-133
-8.58613e-129
2.70217e-140
2.3631e-137
1.1258e-144
1.57085e-141
4.16193e-149
1.03619e-145
1.29433e-153
5.11901e-150
4.88827e-155
1.92961e-154
2.20516e-159
7.71431e-159
2.06412e-164
1.16959e-163
1.07798e-168
-1.34323e-155
1.14719e-159
-4.13036e-154
8.99089e-155
-2.09583e-149
4.26091e-150
-7.17934e-145
1.28601e-145
-1.90153e-140
2.80414e-141
-4.22735e-136
4.66531e-137
-8.36525e-132
5.81334e-133
-1.54454e-127
4.06517e-129
-2.23972e-123
-5.58737e-124
-1.79234e-119
-2.29466e-119
-9.37757e-116
-2.44956e-115
-3.46275e-112
-1.00231e-111
-4.56818e-109
-1.41803e-108
-1.98144e-106
-5.60579e-106
-9.48693e-105
-4.75397e-104
-9.79507e-109
-4.84858e-103
9.48518e-105
-4.84863e-103
2.61071e-106
-4.75485e-104
1.44549e-108
-6.49354e-106
1.40293e-110
-3.33885e-107
1.19484e-113
-5.97064e-110
3.12196e-118
-4.94016e-114
4.64558e-123
-6.80253e-119
4.58206e-128
-4.85562e-124
2.30511e-135
1.98245e-132
1.1674e-139
1.60264e-136
5.24256e-144
1.28616e-140
1.97939e-148
7.73068e-145
5.77848e-153
3.54535e-149
5.92885e-155
1.17468e-153
4.78167e-159
3.1486e-158
3.06208e-163
-8.42107e-154
2.24167e-154
-7.09774e-149
1.86414e-149
-2.9712e-144
7.26215e-145
-8.3922e-140
1.80152e-140
-1.83162e-135
3.22874e-136
-3.353e-131
4.41522e-132
-5.45947e-127
4.52226e-128
-8.28773e-123
2.60041e-124
-9.93279e-119
-2.424e-119
-6.67687e-115
-8.21575e-115
-3.29783e-111
-7.26507e-111
-1.00146e-107
-2.48587e-107
-1.11547e-104
-3.00251e-104
-4.25491e-102
-1.05014e-101
-1.87445e-100
-8.21774e-100
-1.68929e-104
-8.0584e-99
1.87415e-100
-8.05848e-99
5.69013e-102
-8.21922e-100
3.47767e-104
-1.23519e-101
3.60784e-106
-7.42155e-103
3.59625e-109
-1.50652e-105
1.17988e-113
-1.52335e-109
2.16092e-118
-2.59313e-114
2.59141e-123
-2.25661e-119
1.6221e-130
1.36749e-127
9.98389e-135
1.34424e-131
5.44486e-139
1.31244e-135
2.49478e-143
9.59759e-140
8.83272e-148
5.35512e-144
2.11005e-152
2.15871e-148
5.04841e-155
5.5412e-153
7.77841e-158
-1.43732e-148
4.63159e-149
-1.00064e-143
3.16586e-144
-3.45824e-139
1.01372e-139
-8.05903e-135
2.067e-135
-1.45008e-130
3.045e-131
-2.18662e-126
3.42266e-127
-2.93014e-122
2.88167e-123
-3.65742e-118
1.36276e-119
-3.62565e-114
-8.62704e-115
-2.05184e-110
-2.41487e-110
-9.50358e-107
-1.77046e-106
-2.37663e-103
-5.07225e-103
-2.23759e-100
-5.23811e-100
-7.50791e-98
-1.62256e-97
-3.04319e-96
-1.17213e-95
-2.42903e-100
-1.10528e-94
3.04276e-96
-1.10529e-94
1.0174e-97
-1.17234e-95
6.87356e-100
-1.93472e-97
7.62039e-102
-1.35467e-98
8.88297e-105
-3.12046e-101
3.66052e-109
-3.85568e-105
8.26119e-114
-8.12157e-110
1.20447e-118
-8.61811e-115
9.42166e-126
7.75665e-123
7.04617e-130
9.26996e-127
4.66501e-134
1.10104e-130
2.59266e-138
9.79554e-135
1.11256e-142
6.64937e-139
3.21925e-147
3.26103e-143
4.62423e-152
1.01843e-147
1.48994e-152
-2.0107e-143
7.83515e-144
-1.15738e-138
4.40198e-139
-3.30518e-134
1.1586e-134
-6.35936e-130
1.94192e-130
-9.43859e-126
2.35155e-126
-1.17285e-121
2.17274e-122
-1.29377e-117
1.50382e-118
-1.32796e-113
5.84957e-115
-1.08976e-109
-2.51903e-110
-5.20365e-106
-5.82859e-106
-2.24385e-102
-3.54625e-102
-4.62765e-99
-8.5184e-99
-3.68713e-96
-7.5333e-96
-1.08858e-93
-2.06894e-93
-4.05962e-92
-1.38042e-91
-2.90257e-96
-1.25189e-90
4.0591e-92
-1.2519e-90
1.49186e-93
-1.38066e-91
1.11603e-95
-2.49609e-93
1.32192e-97
-2.03039e-94
1.80055e-100
-5.30535e-97
9.3216e-105
-8.00941e-101
2.5956e-109
-2.08974e-105
4.60069e-114
-2.70451e-110
4.51987e-121
3.61818e-118
4.10631e-125
5.25602e-122
3.29909e-129
7.59409e-126
2.22281e-133
8.21907e-130
1.15528e-137
6.78736e-134
4.04549e-142
4.0495e-138
7.02834e-147
1.53855e-142
2.73851e-147
-2.30512e-138
1.08477e-138
-1.09837e-133
5.0097e-134
-2.59443e-129
1.0839e-129
-4.12471e-125
1.49344e-125
-5.05282e-121
1.48666e-121
-5.17612e-117
1.1292e-117
-4.7015e-113
6.42535e-114
-3.96876e-109
2.0562e-110
-2.69841e-105
-6.03526e-106
-1.20035e-101
-1.15548e-101
-4.33979e-98
-5.8405e-98
-7.39212e-95
-1.17804e-94
-4.99057e-92
-8.93646e-92
-1.29691e-89
-2.17859e-89
-4.44979e-88
-1.34321e-87
-2.874e-92
-1.17173e-86
4.44927e-88
-1.17174e-86
1.7935e-89
-1.34344e-87
1.48849e-91
-2.65349e-89
1.88325e-93
-2.49863e-90
2.99474e-96
-7.40323e-93
1.94817e-100
-1.36536e-96
6.70199e-105
-4.41718e-101
1.44408e-109
-6.97348e-106
1.79218e-116
1.38806e-113
1.97739e-120
2.45039e-117
1.92706e-124
4.3064e-121
1.57309e-128
5.66965e-125
9.89471e-133
5.69549e-129
4.18904e-137
4.13363e-133
8.79149e-142
1.91052e-137
4.13691e-142
-2.1655e-133
1.22872e-133
-8.55334e-129
4.6648e-129
-1.67298e-124
8.29731e-125
-2.19968e-120
9.39875e-121
-2.22552e-116
7.69182e-117
-1.88034e-112
4.80317e-113
-1.40671e-108
2.24715e-109
-9.76705e-105
5.91755e-106
-5.50683e-101
-1.18662e-101
-2.3165e-97
-1.88198e-97
-6.87429e-94
-7.91242e-94
-9.68562e-91
-1.34227e-90
-5.54798e-88
-8.74946e-88
-1.26958e-85
-1.8957e-85
-4.00761e-84
-1.08065e-83
-2.35202e-88
-9.06908e-83
4.00717e-84
-9.06912e-83
1.76728e-85
-1.08084e-83
1.63068e-87
-2.32533e-85
2.20322e-89
-2.5244e-86
4.08684e-92
-8.47803e-89
3.34111e-96
-1.90979e-92
1.42204e-100
-7.66925e-97
3.72453e-105
-1.47724e-101
5.87783e-112
4.38006e-109
7.87391e-116
9.39368e-113
9.30367e-120
2.00787e-116
9.19563e-124
3.21542e-120
6.99381e-128
3.92897e-124
3.57569e-132
3.46851e-128
9.05287e-137
1.95001e-132
5.1364e-137
-1.66683e-128
1.13819e-128
-5.46623e-124
3.55258e-124
-8.86446e-120
5.19537e-120
-9.64828e-116
4.83865e-116
-8.06782e-112
3.25581e-112
-5.62479e-108
1.67162e-108
-3.46689e-104
6.43088e-105
-1.98012e-100
1.39394e-101
-9.26552e-97
-1.91492e-97
-3.65773e-93
-2.51924e-93
-8.91617e-90
-8.82161e-90
-1.0408e-86
-1.26079e-86
-5.06531e-84
-7.07467e-84
-1.02116e-81
-1.36404e-81
-2.96561e-80
-7.19347e-80
-1.58769e-84
-5.80866e-79
2.96531e-80
-5.80868e-79
1.42712e-81
-7.19465e-80
1.46726e-83
-1.68069e-81
2.11652e-85
-2.09364e-82
4.57566e-88
-7.9668e-85
4.70128e-92
-2.19156e-88
2.47925e-96
-1.09361e-92
7.89262e-101
-2.57061e-97
1.59575e-107
1.13698e-104
2.59462e-111
2.96133e-108
3.71526e-115
7.69766e-112
4.44305e-119
1.49927e-115
4.0821e-123
2.22814e-119
2.51722e-127
2.3924e-123
7.6758e-132
1.63591e-127
5.24118e-132
-1.05115e-123
8.61863e-124
-2.86725e-119
2.21187e-119
-3.86044e-115
2.6598e-115
-3.48181e-111
2.03696e-111
-2.40802e-107
1.12705e-107
-1.38601e-103
4.75828e-104
-7.04039e-100
1.50546e-100
-3.30826e-96
2.68691e-97
-1.28569e-92
-2.53706e-93
-4.72403e-89
-2.77262e-89
-9.46714e-86
-8.09799e-86
-9.17099e-83
-9.76818e-83
-3.79771e-80
-4.72729e-80
-6.74838e-78
-8.12152e-78
-1.80309e-76
-3.96452e-76
-8.82593e-81
-3.08073e-75
1.80292e-76
-3.08073e-75
9.44293e-78
-3.96516e-76
1.08425e-79
-1.00246e-77
1.66943e-81
-1.42522e-78
4.20265e-84
-6.14232e-81
5.42662e-88
-2.06284e-84
3.55128e-92
-1.28058e-88
1.37399e-96
-3.67391e-93
3.58881e-103
2.42823e-100
7.0805e-107
7.67742e-104
1.22806e-110
2.4266e-107
1.77567e-114
5.74764e-111
1.96876e-118
1.03879e-114
1.46224e-122
1.35642e-118
5.36068e-127
1.12798e-122
4.3952e-127
-5.49495e-119
5.33213e-119
-1.23461e-114
1.12532e-114
-1.38214e-110
1.11286e-110
-1.03407e-106
7.00903e-107
-5.91927e-103
3.18934e-103
-2.81412e-99
1.10739e-99
-1.17841e-95
2.8819e-96
-4.55653e-92
4.23691e-93
-1.64042e-88
-2.76003e-89
-4.98875e-85
-2.50983e-85
-8.22698e-82
-6.12366e-82
-6.6251e-79
-6.24598e-79
-2.33796e-76
-2.6119e-76
-3.66409e-74
-4.00367e-74
-9.00704e-73
-1.81011e-72
-4.03562e-77
-1.35378e-71
9.00626e-73
-1.35378e-71
5.11933e-74
-1.8104e-72
6.57941e-76
-4.93707e-74
1.08107e-77
-7.96235e-75
3.16629e-80
-3.88485e-77
5.13749e-84
-1.59242e-80
4.17872e-88
-1.23113e-84
1.96466e-92
-4.3115e-89
6.69083e-99
4.26734e-96
1.60129e-102
1.63701e-99
3.36242e-106
6.29036e-103
5.87396e-110
1.81166e-106
7.85115e-114
3.98135e-110
7.01308e-118
6.32137e-114
3.10923e-122
6.39211e-118
3.02876e-122
-2.78425e-114
2.69399e-114
-4.86406e-110
4.67603e-110
-4.06901e-106
3.80338e-106
-2.52796e-102
1.97034e-102
-1.19856e-98
7.3746e-99
-4.70875e-95
2.1062e-95
-1.62595e-91
4.50947e-92
-5.1742e-88
5.46376e-89
-1.72495e-84
-2.46586e-85
-4.30616e-81
-1.86938e-81
-5.84957e-78
-3.81636e-78
-3.92291e-75
-3.29779e-75
-1.18168e-72
-1.19389e-72
-1.63445e-70
-1.63498e-70
-3.69654e-69
-6.85013e-69
-1.51646e-73
-4.93145e-68
3.69624e-69
-4.93145e-68
2.27388e-70
-6.85122e-69
3.27821e-72
-2.00874e-70
5.74698e-74
-3.65014e-71
1.95653e-76
-2.01529e-73
3.98835e-80
-1.00797e-76
4.03849e-84
-9.71533e-81
2.30693e-88
-4.15348e-85
1.03472e-94
6.17205e-92
3.00306e-98
2.87098e-95
7.63085e-102
1.34093e-98
1.60946e-105
4.69508e-102
2.59057e-109
1.25442e-105
3.08342e-113
2.42141e-109
1.76621e-117
2.97695e-113
1.7151e-117
-1.14809e-109
1.11078e-109
-1.64992e-105
1.586e-105
-1.1157e-101
1.06124e-101
-5.08756e-98
4.52269e-98
-1.99921e-94
1.39262e-94
-6.49316e-91
3.27223e-91
-1.84936e-87
5.76529e-88
-4.84417e-84
5.76016e-85
-1.48142e-80
-1.80945e-81
-3.03693e-77
-1.14603e-77
-3.40205e-74
-1.96096e-74
-1.90357e-71
-1.43835e-71
-4.90277e-69
-4.51662e-69
-5.98936e-67
-5.53338e-67
-1.2464e-65
-2.18334e-65
-4.6802e-70
-1.54585e-64
1.24631e-65
-1.54585e-64
8.27505e-67
-2.18368e-65
1.34098e-68
-6.75512e-67
2.50766e-70
-1.37281e-67
9.91479e-73
-8.57317e-70
2.53842e-76
-5.2304e-73
3.20492e-80
-6.29145e-77
2.22379e-84
-3.28335e-81
1.32798e-90
7.3484e-88
4.67274e-94
4.14169e-91
1.43622e-97
2.35073e-94
3.65484e-101
1.00044e-97
7.9693e-105
3.24901e-101
1.1799e-108
7.62362e-105
8.21618e-113
1.13933e-108
7.97939e-113
-3.86085e-105
3.73499e-105
-4.56527e-101
4.38787e-101