/*--------------------------------*- C++ -*----------------------------------*\
  =========                 |
  \\      /  F ield         | OpenFOAM: The Open Source CFD Toolbox
   \\    /   O peration     | Website:  https://openfoam.org
    \\  /    A nd           | Version:  9
     \\/     M anipulation  |
\*---------------------------------------------------------------------------*/
FoamFile
{
    format      ascii;
    class       volScalarField;
    location    "0.2";
    object      p_rgh;
}
// * * * * * * * * * * * * * * * * * * * * * * * * * * * * * * * * * * * * * //

dimensions      [1 -1 -2 0 0 0 0];

internalField   nonuniform List<scalar> 
4096
(
-3.29766
-3.29766
-3.29766
-3.29766
-3.29766
-3.29766
-3.29766
-3.29766
-3.29766
-3.29766
-3.29766
-3.29766
-3.29766
-3.29766
-3.29766
-3.29766
-3.29766
-3.29766
-3.29766
-3.29766
-3.29766
-3.29766
-3.29766
-3.29766
-3.29766
-3.29766
-3.29766
-3.29766
-3.29766
-3.29766
-3.29766
-3.29766
-3.29766
-3.29766
-3.29766
-3.29766
-3.29766
-3.29766
-3.29766
-3.29766
-3.29766
-3.29766
-3.29766
-3.29766
-3.29766
-3.29766
-3.29766
-3.29766
-3.29766
-3.29766
-3.29766
-3.29766
-3.29766
-3.29766
-3.29766
-3.29766
-3.29766
-3.29766
-3.29766
-3.29766
-3.29766
-3.29766
-3.29766
-3.29766
-3.29766
-3.29766
-3.29766
-3.29766
-3.29766
-3.29766
-3.29766
-3.29766
-3.29766
-3.29766
-3.29766
-3.29766
-3.29766
-3.29766
-3.29766
-3.29766
-3.29766
-3.29766
-3.29766
-3.29766
-3.29766
-3.29766
-3.29766
-3.29766
-3.29766
-3.29766
-3.29766
-3.29766
-3.29766
-3.29766
-3.29766
-3.29766
-3.29766
-3.29766
-3.29766
-3.29766
-3.29766
-3.29766
-3.29766
-3.29766
-3.29766
-3.29766
-3.29766
-3.29766
-3.29766
-3.29766
-3.29766
-3.29766
-3.29766
-3.29766
-3.29766
-3.29766
-3.29766
-3.29766
-3.29766
-3.29766
-3.29766
-3.29766
-3.29766
-3.29766
-3.29766
-3.29766
-3.29766
-3.29766
-3.29766
-3.29766
-3.29766
-3.29766
-3.29766
-3.29766
-3.29766
-3.29766
-3.29766
-3.29766
-3.29766
-3.29766
-3.29766
-3.29766
-3.29766
-3.29766
-3.29766
-3.29766
-3.29766
-3.29766
-3.29766
-3.29766
-3.29766
-3.29766
-3.29766
-3.29766
-3.29766
-3.29766
-3.29766
-3.29766
-3.29766
-3.29766
-3.29766
-3.29766
-3.29766
-3.29766
-3.29766
-3.29766
-3.29766
-3.29766
-3.29766
-3.29766
-3.29766
-3.29766
-3.29766
-3.29766
-3.29766
-3.29766
-3.29766
-3.29766
-3.29766
-3.29766
-3.29766
-3.29766
-3.29766
-3.29766
-3.29766
-3.29766
-3.29766
-3.29766
-3.29766
-3.29766
-3.29766
-3.29766
-3.29766
-3.29766
-3.29766
-3.29766
-3.29766
-3.29766
-3.29766
-3.29766
-3.29766
-3.29766
-3.29766
-3.29766
-3.29766
-3.29766
-3.29766
-3.29766
-3.29766
-3.29766
-3.29766
-3.29766
-3.29766
-3.29766
-3.29766
-3.29766
-3.29766
-3.29766
-3.29766
-3.29766
-3.29766
-3.29766
-3.29766
-3.29766
-3.29766
-3.29766
-3.29766
-3.29766
-3.29766
-3.29766
-3.29766
-3.29766
-3.29766
-3.29766
-3.29766
-3.29766
-3.29766
-3.29766
-3.29766
-3.29766
-3.29766
-3.29766
-3.29766
-3.29766
-3.29766
-3.29766
-3.29766
-3.29766
-3.29766
-3.29766
-3.29766
-3.29766
-3.29766
-3.29766
-3.29766
-3.29766
-3.29766
-3.29766
-3.29766
-3.29766
-3.29766
-3.29766
-3.29766
-3.29766
-3.29766
-3.29766
-3.29766
-3.29766
-3.29766
-3.29766
-3.29766
-3.29766
-3.29766
-3.29766
-3.29766
-3.29766
-3.29766
-3.29766
-3.29766
-3.29766
-3.29766
-3.29766
-3.29766
-3.29766
-3.29766
-3.29766
-3.29766
-3.29766
-3.29767
-3.29767
-3.29767
-3.29766
-3.29766
-3.29766
-3.29766
-3.29766
-3.29766
-3.29766
-3.29766
-3.29766
-3.29766
-3.29766
-3.29766
-3.29766
-3.29766
-3.29766
-3.29766
-3.29766
-3.29766
-3.29766
-3.29766
-3.29766
-3.29766
-3.29766
-3.29766
-3.29766
-3.29766
-3.29767
-3.29767
-3.29767
-3.29767
-3.29767
-3.29767
-3.29767
-3.29766
-3.29766
-3.29766
-3.29766
-3.29766
-3.29766
-3.29766
-3.29766
-3.29766
-3.29766
-3.29766
-3.29766
-3.29766
-3.29766
-3.29766
-3.29766
-3.29766
-3.29766
-3.29766
-3.29766
-3.29766
-3.29766
-3.29766
-3.29766
-3.29767
-3.29767
-3.29767
-3.29767
-3.29767
-3.29767
-3.29767
-3.29767
-3.29767
-3.29766
-3.29766
-3.29766
-3.29766
-3.29766
-3.29766
-3.29766
-3.29766
-3.29765
-3.29765
-3.29765
-3.29765
-3.29765
-3.29765
-3.29766
-3.29766
-3.29766
-3.29766
-3.29766
-3.29766
-3.29766
-3.29766
-3.29767
-3.29767
-3.29767
-3.29767
-3.29767
-3.29767
-3.29767
-3.29767
-3.29767
-3.29767
-3.29766
-3.29766
-3.29766
-3.29766
-3.29766
-3.29766
-3.29766
-3.29765
-3.29765
-3.29765
-3.29765
-3.29765
-3.29765
-3.29765
-3.29765
-3.29766
-3.29766
-3.29766
-3.29766
-3.29766
-3.29766
-3.29766
-3.29767
-3.29767
-3.29767
-3.29767
-3.29767
-3.29767
-3.29767
-3.29767
-3.29767
-3.29767
-3.29767
-3.29766
-3.29766
-3.29766
-3.29766
-3.29766
-3.29765
-3.29765
-3.29765
-3.29765
-3.29765
-3.29765
-3.29765
-3.29765
-3.29765
-3.29765
-3.29766
-3.29766
-3.29766
-3.29766
-3.29766
-3.29767
-3.29767
-3.29767
-3.29767
-3.29767
-3.29767
-3.29767
-3.29767
-3.29767
-3.29767
-3.29767
-3.29767
-3.29766
-3.29766
-3.29766
-3.29766
-3.29765
-3.29765
-3.29765
-3.29765
-3.29765
-3.29765
-3.29765
-3.29765
-3.29765
-3.29765
-3.29765
-3.29765
-3.29766
-3.29766
-3.29766
-3.29766
-3.29767
-3.29767
-3.29767
-3.29767
-3.29767
-3.29767
-3.29768
-3.29767
-3.29767
-3.29767
-3.29767
-3.29767
-3.29766
-3.29766
-3.29766
-3.29766
-3.29765
-3.29765
-3.29765
-3.29765
-3.29765
-3.29765
-3.29765
-3.29765
-3.29765
-3.29765
-3.29765
-3.29765
-3.29766
-3.29766
-3.29766
-3.29766
-3.29767
-3.29767
-3.29767
-3.29767
-3.29767
-3.29768
-3.29768
-3.29768
-3.29768
-3.29767
-3.29767
-3.29767
-3.29767
-3.29766
-3.29766
-3.29766
-3.29765
-3.29765
-3.29765
-3.29764
-3.29764
-3.29764
-3.29764
-3.29764
-3.29764
-3.29765
-3.29765
-3.29765
-3.29765
-3.29766
-3.29766
-3.29767
-3.29767
-3.29767
-3.29767
-3.29768
-3.29768
-3.29768
-3.29768
-3.29768
-3.29768
-3.29768
-3.29767
-3.29767
-3.29767
-3.29766
-3.29766
-3.29765
-3.29765
-3.29765
-3.29764
-3.29764
-3.29764
-3.29764
-3.29764
-3.29764
-3.29764
-3.29764
-3.29765
-3.29765
-3.29765
-3.29766
-3.29766
-3.29767
-3.29767
-3.29767
-3.29768
-3.29768
-3.29768
-3.29768
-3.29769
-3.29769
-3.29768
-3.29768
-3.29768
-3.29767
-3.29767
-3.29766
-3.29766
-3.29765
-3.29765
-3.29764
-3.29764
-3.29764
-3.29763
-3.29763
-3.29763
-3.29763
-3.29764
-3.29764
-3.29764
-3.29765
-3.29765
-3.29766
-3.29766
-3.29767
-3.29767
-3.29768
-3.29768
-3.29768
-3.29769
-3.29769
-3.29769
-3.29769
-3.29769
-3.29769
-3.29768
-3.29768
-3.29767
-3.29766
-3.29766
-3.29765
-3.29764
-3.29764
-3.29763
-3.29763
-3.29763
-3.29763
-3.29763
-3.29763
-3.29763
-3.29763
-3.29764
-3.29764
-3.29765
-3.29766
-3.29766
-3.29767
-3.29768
-3.29768
-3.29769
-3.29769
-3.29769
-3.29769
-3.2977
-3.2977
-3.2977
-3.29769
-3.29769
-3.29768
-3.29767
-3.29766
-3.29766
-3.29765
-3.29764
-3.29763
-3.29763
-3.29762
-3.29762
-3.29762
-3.29762
-3.29762
-3.29762
-3.29763
-3.29763
-3.29764
-3.29765
-3.29766
-3.29766
-3.29767
-3.29768
-3.29769
-3.29769
-3.2977
-3.2977
-3.2977
-3.29771
-3.29771
-3.2977
-3.2977
-3.29769
-3.29768
-3.29767
-3.29766
-3.29766
-3.29765
-3.29764
-3.29763
-3.29762
-3.29762
-3.29761
-3.29761
-3.29761
-3.29761
-3.29762
-3.29762
-3.29763
-3.29764
-3.29765
-3.29766
-3.29766
-3.29767
-3.29768
-3.29769
-3.2977
-3.2977
-3.29771
-3.29771
-3.29772
-3.29772
-3.29771
-3.29771
-3.2977
-3.29769
-3.29768
-3.29767
-3.29765
-3.29764
-3.29763
-3.29762
-3.29761
-3.29761
-3.2976
-3.2976
-3.2976
-3.2976
-3.29761
-3.29761
-3.29762
-3.29763
-3.29764
-3.29765
-3.29767
-3.29768
-3.29769
-3.2977
-3.29771
-3.29771
-3.29772
-3.29772
-3.29773
-3.29773
-3.29772
-3.29772
-3.29771
-3.29769
-3.29768
-3.29767
-3.29765
-3.29764
-3.29763
-3.29761
-3.2976
-3.2976
-3.29759
-3.29759
-3.29759
-3.29759
-3.2976
-3.2976
-3.29761
-3.29763
-3.29764
-3.29765
-3.29767
-3.29768
-3.29769
-3.29771
-3.29772
-3.29772
-3.29773
-3.29773
-3.29775
-3.29774
-3.29774
-3.29773
-3.29772
-3.2977
-3.29769
-3.29767
-3.29765
-3.29763
-3.29762
-3.2976
-3.29759
-3.29758
-3.29757
-3.29757
-3.29757
-3.29757
-3.29758
-3.29759
-3.2976
-3.29762
-3.29763
-3.29765
-3.29767
-3.29769
-3.2977
-3.29772
-3.29773
-3.29774
-3.29774
-3.29775
-3.29776
-3.29776
-3.29775
-3.29774
-3.29773
-3.29771
-3.29769
-3.29767
-3.29765
-3.29763
-3.29761
-3.29759
-3.29758
-3.29756
-3.29756
-3.29755
-3.29755
-3.29756
-3.29756
-3.29758
-3.29759
-3.29761
-3.29763
-3.29765
-3.29767
-3.29769
-3.29771
-3.29773
-3.29774
-3.29775
-3.29776
-3.29776
-3.29779
-3.29778
-3.29777
-3.29776
-3.29774
-3.29772
-3.2977
-3.29767
-3.29765
-3.29762
-3.2976
-3.29758
-3.29756
-3.29754
-3.29753
-3.29753
-3.29753
-3.29753
-3.29754
-3.29756
-3.29758
-3.2976
-3.29762
-3.29765
-3.29767
-3.2977
-3.29772
-3.29774
-3.29776
-3.29777
-3.29778
-3.29779
-3.29782
-3.29781
-3.2978
-3.29778
-3.29776
-3.29774
-3.29771
-3.29768
-3.29764
-3.29761
-3.29758
-3.29756
-3.29754
-3.29752
-3.29751
-3.2975
-3.2975
-3.29751
-3.29752
-3.29754
-3.29756
-3.29758
-3.29761
-3.29764
-3.29768
-3.29771
-3.29774
-3.29776
-3.29778
-3.2978
-3.29781
-3.29782
-3.29785
-3.29784
-3.29783
-3.29781
-3.29778
-3.29775
-3.29772
-3.29768
-3.29764
-3.2976
-3.29757
-3.29754
-3.29751
-3.29749
-3.29747
-3.29747
-3.29747
-3.29747
-3.29749
-3.29751
-3.29754
-3.29757
-3.2976
-3.29764
-3.29768
-3.29772
-3.29775
-3.29778
-3.29781
-3.29783
-3.29784
-3.29785
-3.29789
-3.29788
-3.29787
-3.29784
-3.29781
-3.29777
-3.29773
-3.29768
-3.29764
-3.29759
-3.29755
-3.29751
-3.29748
-3.29745
-3.29743
-3.29742
-3.29742
-3.29743
-3.29745
-3.29748
-3.29751
-3.29755
-3.29759
-3.29764
-3.29768
-3.29773
-3.29777
-3.29781
-3.29784
-3.29787
-3.29788
-3.29789
-3.29794
-3.29793
-3.29791
-3.29788
-3.29784
-3.2978
-3.29775
-3.29769
-3.29763
-3.29758
-3.29753
-3.29748
-3.29744
-3.29741
-3.29738
-3.29737
-3.29737
-3.29738
-3.29741
-3.29744
-3.29748
-3.29753
-3.29758
-3.29763
-3.29769
-3.29775
-3.2978
-3.29784
-3.29788
-3.29791
-3.29793
-3.29794
-3.298
-3.29799
-3.29797
-3.29793
-3.29788
-3.29783
-3.29776
-3.2977
-3.29763
-3.29756
-3.2975
-3.29744
-3.29739
-3.29735
-3.29733
-3.29731
-3.29731
-3.29733
-3.29735
-3.29739
-3.29744
-3.2975
-3.29756
-3.29763
-3.2977
-3.29776
-3.29783
-3.29788
-3.29793
-3.29797
-3.29799
-3.298
-3.29808
-3.29806
-3.29803
-3.29799
-3.29793
-3.29786
-3.29779
-3.29771
-3.29762
-3.29754
-3.29746
-3.29739
-3.29733
-3.29729
-3.29725
-3.29724
-3.29724
-3.29725
-3.29729
-3.29733
-3.29739
-3.29746
-3.29754
-3.29762
-3.29771
-3.29779
-3.29786
-3.29793
-3.29799
-3.29803
-3.29806
-3.29808
-3.29817
-3.29815
-3.29811
-3.29806
-3.29799
-3.29791
-3.29782
-3.29772
-3.29762
-3.29752
-3.29742
-3.29734
-3.29726
-3.29721
-3.29717
-3.29715
-3.29715
-3.29717
-3.29721
-3.29726
-3.29734
-3.29742
-3.29752
-3.29762
-3.29772
-3.29782
-3.29791
-3.29799
-3.29806
-3.29811
-3.29815
-3.29817
-3.29828
-3.29826
-3.29821
-3.29815
-3.29806
-3.29796
-3.29785
-3.29773
-3.29761
-3.29748
-3.29737
-3.29727
-3.29718
-3.29711
-3.29706
-3.29703
-3.29703
-3.29706
-3.29711
-3.29718
-3.29727
-3.29737
-3.29748
-3.29761
-3.29773
-3.29785
-3.29796
-3.29806
-3.29815
-3.29821
-3.29826
-3.29828
-3.29841
-3.29839
-3.29833
-3.29825
-3.29815
-3.29803
-3.29789
-3.29775
-3.2976
-3.29745
-3.29731
-3.29718
-3.29707
-3.29699
-3.29693
-3.2969
-3.2969
-3.29693
-3.29699
-3.29707
-3.29718
-3.29731
-3.29745
-3.2976
-3.29775
-3.29789
-3.29803
-3.29815
-3.29825
-3.29833
-3.29839
-3.29841
-3.29857
-3.29854
-3.29848
-3.29838
-3.29826
-3.29811
-3.29794
-3.29777
-3.29758
-3.2974
-3.29723
-3.29708
-3.29695
-3.29684
-3.29677
-3.29674
-3.29674
-3.29677
-3.29684
-3.29695
-3.29708
-3.29723
-3.2974
-3.29758
-3.29777
-3.29794
-3.29811
-3.29826
-3.29838
-3.29848
-3.29854
-3.29857
-3.29877
-3.29873
-3.29866
-3.29854
-3.29839
-3.29821
-3.29801
-3.29779
-3.29757
-3.29735
-3.29714
-3.29695
-3.29679
-3.29667
-3.29658
-3.29654
-3.29654
-3.29658
-3.29667
-3.29679
-3.29695
-3.29714
-3.29735
-3.29757
-3.29779
-3.29801
-3.29821
-3.29839
-3.29854
-3.29866
-3.29873
-3.29877
-3.29901
-3.29897
-3.29887
-3.29873
-3.29855
-3.29833
-3.29808
-3.29782
-3.29755
-3.29729
-3.29703
-3.2968
-3.29661
-3.29645
-3.29635
-3.29629
-3.29629
-3.29635
-3.29645
-3.29661
-3.2968
-3.29703
-3.29729
-3.29755
-3.29782
-3.29808
-3.29833
-3.29855
-3.29873
-3.29887
-3.29897
-3.29901
-3.29931
-3.29925
-3.29914
-3.29896
-3.29874
-3.29848
-3.29818
-3.29786
-3.29753
-3.29721
-3.2969
-3.29662
-3.29638
-3.29619
-3.29606
-3.296
-3.296
-3.29606
-3.29619
-3.29638
-3.29662
-3.2969
-3.29721
-3.29753
-3.29786
-3.29818
-3.29848
-3.29874
-3.29896
-3.29914
-3.29925
-3.2993
-3.29966
-3.29959
-3.29946
-3.29925
-3.29898
-3.29866
-3.2983
-3.29791
-3.29751
-3.29711
-3.29674
-3.2964
-3.29611
-3.29588
-3.29572
-3.29564
-3.29564
-3.29572
-3.29588
-3.29611
-3.2964
-3.29674
-3.29711
-3.29751
-3.29791
-3.2983
-3.29866
-3.29898
-3.29925
-3.29946
-3.29959
-3.29966
-3.30009
-3.30001
-3.29985
-3.29959
-3.29927
-3.29888
-3.29844
-3.29797
-3.29748
-3.297
-3.29654
-3.29613
-3.29577
-3.29549
-3.2953
-3.2952
-3.2952
-3.2953
-3.29549
-3.29577
-3.29613
-3.29654
-3.297
-3.29748
-3.29797
-3.29844
-3.29888
-3.29927
-3.29959
-3.29985
-3.30001
-3.30009
-3.30062
-3.30052
-3.30032
-3.30001
-3.29962
-3.29915
-3.29862
-3.29804
-3.29745
-3.29687
-3.29631
-3.2958
-3.29537
-3.29502
-3.29478
-3.29466
-3.29466
-3.29478
-3.29502
-3.29537
-3.2958
-3.29631
-3.29687
-3.29745
-3.29804
-3.29862
-3.29915
-3.29962
-3.30001
-3.30032
-3.30052
-3.30062
-3.30125
-3.30114
-3.30089
-3.30053
-3.30005
-3.29948
-3.29883
-3.29814
-3.29742
-3.29671
-3.29603
-3.29541
-3.29487
-3.29445
-3.29416
-3.29401
-3.29401
-3.29416
-3.29445
-3.29487
-3.29541
-3.29603
-3.29671
-3.29742
-3.29814
-3.29883
-3.29948
-3.30005
-3.30053
-3.30089
-3.30114
-3.30125
-3.30203
-3.30188
-3.30159
-3.30115
-3.30057
-3.29988
-3.2991
-3.29826
-3.29739
-3.29652
-3.29569
-3.29493
-3.29428
-3.29376
-3.29339
-3.29321
-3.29321
-3.29339
-3.29376
-3.29428
-3.29493
-3.29569
-3.29652
-3.29739
-3.29826
-3.2991
-3.29988
-3.30057
-3.30115
-3.30159
-3.30188
-3.30203
-3.30296
-3.30279
-3.30244
-3.30191
-3.30121
-3.30038
-3.29944
-3.29842
-3.29736
-3.2963
-3.29529
-3.29436
-3.29355
-3.29291
-3.29247
-3.29224
-3.29224
-3.29247
-3.29291
-3.29355
-3.29436
-3.29529
-3.2963
-3.29736
-3.29842
-3.29944
-3.30038
-3.30121
-3.30191
-3.30244
-3.30279
-3.30296
-3.3041
-3.30389
-3.30347
-3.30283
-3.302
-3.30099
-3.29986
-3.29862
-3.29734
-3.29605
-3.2948
-3.29366
-3.29267
-3.29188
-3.29133
-3.29105
-3.29105
-3.29133
-3.29188
-3.29267
-3.29366
-3.2948
-3.29605
-3.29734
-3.29862
-3.29986
-3.30099
-3.302
-3.30283
-3.30347
-3.30389
-3.3041
-3.30547
-3.30523
-3.30472
-3.30396
-3.30296
-3.30175
-3.30038
-3.29889
-3.29733
-3.29575
-3.29424
-3.29283
-3.29161
-3.29063
-3.28995
-3.2896
-3.2896
-3.28995
-3.29063
-3.29161
-3.29283
-3.29424
-3.29575
-3.29733
-3.29889
-3.30038
-3.30175
-3.30295
-3.30396
-3.30472
-3.30523
-3.30547
-3.30714
-3.30684
-3.30624
-3.30533
-3.30413
-3.30268
-3.30103
-3.29923
-3.29734
-3.29543
-3.29357
-3.29184
-3.29033
-3.28911
-3.28826
-3.28782
-3.28782
-3.28826
-3.28911
-3.29033
-3.29184
-3.29357
-3.29543
-3.29734
-3.29923
-3.30103
-3.30268
-3.30413
-3.30533
-3.30624
-3.30684
-3.30714
-3.30915
-3.3088
-3.30809
-3.30699
-3.30556
-3.30383
-3.30185
-3.29968
-3.29739
-3.29507
-3.29279
-3.29066
-3.28879
-3.28727
-3.2862
-3.28564
-3.28564
-3.2862
-3.28727
-3.28879
-3.29066
-3.29279
-3.29507
-3.29739
-3.29968
-3.30185
-3.30383
-3.30556
-3.30699
-3.30808
-3.3088
-3.30915
-3.31158
-3.31117
-3.31032
-3.30903
-3.30732
-3.30526
-3.30289
-3.30029
-3.29752
-3.29469
-3.2919
-3.28927
-3.28694
-3.28503
-3.28367
-3.28297
-3.28297
-3.28367
-3.28503
-3.28694
-3.28927
-3.2919
-3.29469
-3.29752
-3.30029
-3.30289
-3.30526
-3.30732
-3.30903
-3.31032
-3.31117
-3.31158
-3.31451
-3.31403
-3.31303
-3.3115
-3.30948
-3.30704
-3.30421
-3.30109
-3.29776
-3.29432
-3.2909
-3.28764
-3.28473
-3.28232
-3.28058
-3.27968
-3.27968
-3.28058
-3.28232
-3.28473
-3.28764
-3.2909
-3.29432
-3.29776
-3.30109
-3.30421
-3.30704
-3.30948
-3.3115
-3.31303
-3.31403
-3.31451
-3.31805
-3.31748
-3.3163
-3.31451
-3.31214
-3.30924
-3.3059
-3.30217
-3.29816
-3.29399
-3.28981
-3.28577
-3.28211
-3.27904
-3.2768
-3.27562
-3.27562
-3.2768
-3.27904
-3.28211
-3.28577
-3.28981
-3.29399
-3.29816
-3.30217
-3.3059
-3.30924
-3.31214
-3.31451
-3.3163
-3.31748
-3.31805
-3.3223
-3.32164
-3.32026
-3.31816
-3.31539
-3.31199
-3.30804
-3.30362
-3.29883
-3.29379
-3.28867
-3.28367
-3.27904
-3.2751
-3.27218
-3.27061
-3.27061
-3.27218
-3.2751
-3.27904
-3.28367
-3.28867
-3.29379
-3.29883
-3.30362
-3.30804
-3.31199
-3.31539
-3.31816
-3.32026
-3.32164
-3.3223
-3.32741
-3.32664
-3.32505
-3.32261
-3.31938
-3.31541
-3.31079
-3.30557
-3.29988
-3.29383
-3.28759
-3.28138
-3.27551
-3.27041
-3.26653
-3.2644
-3.2644
-3.26653
-3.27041
-3.27551
-3.28138
-3.28759
-3.29383
-3.29988
-3.30557
-3.31079
-3.31541
-3.31938
-3.32261
-3.32505
-3.32664
-3.32741
-3.33355
-3.33266
-3.33082
-3.328
-3.32427
-3.31968
-3.31429
-3.3082
-3.30149
-3.29428
-3.28672
-3.27903
-3.27157
-3.2649
-3.25963
-3.25666
-3.25666
-3.25963
-3.2649
-3.27157
-3.27903
-3.28672
-3.29428
-3.30149
-3.3082
-3.31429
-3.31968
-3.32427
-3.328
-3.33082
-3.33266
-3.33355
-3.3409
-3.33988
-3.33777
-3.33453
-3.33025
-3.32497
-3.31877
-3.31171
-3.30389
-3.2954
-3.28632
-3.27685
-3.26732
-3.25854
-3.2512
-3.24688
-3.24688
-3.2512
-3.25854
-3.26732
-3.27685
-3.28632
-3.2954
-3.30389
-3.31171
-3.31877
-3.32497
-3.33025
-3.33453
-3.33777
-3.33988
-3.3409
-3.3497
-3.34853
-3.34612
-3.34243
-3.33753
-3.33152
-3.32443
-3.31635
-3.30734
-3.29752
-3.28678
-3.27523
-3.26303
-3.25146
-3.24105
-3.2346
-3.2346
-3.24105
-3.25146
-3.26303
-3.27523
-3.28678
-3.29752
-3.30734
-3.31635
-3.32443
-3.33152
-3.33753
-3.34243
-3.34612
-3.34853
-3.3497
-3.36023
-3.3589
-3.35614
-3.35194
-3.34637
-3.33955
-3.33153
-3.32237
-3.31215
-3.30106
-3.28864
-3.27485
-3.2594
-3.24463
-3.23037
-3.22081
-3.22081
-3.23037
-3.24463
-3.2594
-3.27485
-3.28864
-3.30106
-3.31215
-3.32237
-3.33153
-3.33955
-3.34637
-3.35193
-3.35614
-3.3589
-3.36023
-3.37284
-3.37131
-3.36816
-3.36335
-3.35701
-3.3493
-3.34024
-3.32994
-3.3184
-3.30627
-3.29232
-3.27642
-3.25752
-3.24177
-3.2246
-3.23646
-3.23646
-3.2246
-3.24177
-3.25752
-3.27641
-3.29232
-3.30627
-3.3184
-3.32994
-3.34024
-3.3493
-3.35701
-3.36334
-3.36816
-3.37131
-3.37284
-3.38794
-3.38619
-3.38254
-3.37695
-3.36963
-3.3609
-3.35062
-3.33899
-3.32576
-3.31311
-3.29855
-3.28243
-3.25622
-3.2564
-3.69779
-3.90911
-3.90911
-3.69778
-3.25639
-3.25622
-3.28243
-3.29855
-3.31311
-3.32576
-3.33899
-3.35062
-3.3609
-3.36963
-3.37695
-3.38254
-3.38619
-3.38794
-3.40608
-3.40408
-3.39973
-3.39302
-3.38431
-3.37436
-3.36254
-3.34911
-3.33313
-3.32229
-3.30643
-3.31396
-3.48615
-3.55969
-4.06791
-4.08881
-4.08881
-4.0679
-3.55969
-3.48614
-3.31395
-3.30643
-3.32228
-3.33313
-3.34911
-3.36254
-3.37436
-3.38431
-3.39302
-3.39973
-3.40408
-3.40608
-3.42793
-3.42564
-3.42021
-3.41176
-3.40094
-3.38962
-3.37576
-3.36165
-3.33918
-3.33986
-3.50602
-3.63063
-3.83649
-3.8871
-3.92414
-3.92612
-3.92612
-3.92414
-3.8871
-3.83649
-3.63063
-3.50601
-3.33986
-3.33917
-3.36165
-3.37576
-3.38962
-3.40094
-3.41175
-3.42021
-3.42564
-3.42793
-3.45426
-3.45177
-3.44445
-3.43302
-3.41848
-3.40769
-3.39065
-3.3881
-3.4651
-3.47708
-3.61333
-3.67487
-3.7259
-3.75697
-3.77843
-3.78738
-3.78738
-3.77843
-3.75697
-3.7259
-3.67487
-3.61333
-3.47708
-3.4651
-3.3881
-3.39065
-3.40769
-3.41848
-3.43302
-3.44445
-3.45177
-3.45426
-3.48513
-3.48343
-3.47249
-3.45658
-3.43137
-3.4269
-3.38707
-3.33169
-3.39023
-3.45028
-3.5137
-3.56409
-3.60606
-3.63711
-3.65737
-3.66734
-3.66734
-3.65737
-3.63711
-3.60606
-3.56409
-3.5137
-3.45028
-3.39023
-3.33169
-3.38707
-3.4269
-3.43137
-3.45658
-3.47248
-3.48343
-3.48513
-3.52056
-3.52286
-3.48135
-3.4203
-3.24846
-3.22011
-3.20355
-3.24429
-3.31115
-3.36933
-3.4239
-3.47159
-3.50947
-3.53742
-3.55559
-3.56463
-3.56463
-3.55559
-3.53742
-3.50947
-3.47159
-3.4239
-3.36933
-3.31115
-3.24429
-3.20355
-3.22011
-3.24846
-3.4203
-3.48134
-3.52286
-3.52055
-3.55435
-3.56349
-3.27123
-2.93457
-2.94013
-3.02431
-3.10838
-3.18079
-3.2448
-3.30103
-3.35056
-3.39288
-3.42685
-3.4523
-3.46915
-3.47755
-3.47755
-3.46915
-3.4523
-3.42685
-3.39288
-3.35056
-3.30103
-3.2448
-3.18079
-3.10838
-3.02431
-2.94013
-2.93457
-3.27122
-3.56349
-3.55434
-3.26197
-3.24796
-2.84649
-2.81457
-2.90813
-2.9876
-3.06281
-3.13076
-3.1905
-3.24276
-3.28809
-3.32642
-3.35728
-3.38046
-3.39589
-3.40358
-3.40358
-3.39589
-3.38046
-3.35728
-3.32642
-3.28809
-3.24276
-3.1905
-3.13076
-3.06281
-2.9876
-2.90814
-2.81457
-2.84647
-3.24796
-3.26197
-2.61209
-2.64866
-2.72689
-2.81018
-2.89094
-2.96416
-3.03128
-3.09294
-3.14733
-3.19499
-3.23617
-3.27083
-3.29874
-3.31975
-3.33377
-3.34077
-3.34077
-3.33377
-3.31975
-3.29874
-3.27083
-3.23617
-3.19499
-3.14733
-3.09294
-3.03128
-2.96417
-2.89094
-2.81018
-2.72689
-2.64866
-2.61209
-2.66871
-2.69784
-2.75711
-2.82342
-2.89026
-2.95338
-3.01257
-3.06578
-3.11394
-3.15657
-3.19349
-3.22459
-3.24966
-3.26857
-3.28121
-3.28753
-3.28753
-3.28121
-3.26857
-3.24966
-3.22459
-3.19349
-3.15657
-3.11394
-3.06578
-3.01257
-2.95338
-2.89026
-2.82343
-2.75711
-2.69784
-2.66871
-2.73344
-2.75454
-2.7956
-2.8454
-2.89823
-2.95036
-3.00022
-3.04639
-3.08848
-3.12603
-3.15873
-3.18635
-3.20867
-3.22554
-3.23684
-3.2425
-3.2425
-3.23685
-3.22554
-3.20867
-3.18635
-3.15873
-3.12603
-3.08848
-3.04639
-3.00022
-2.95036
-2.89823
-2.8454
-2.7956
-2.75454
-2.73344
-2.78655
-2.80194
-2.83117
-2.86855
-2.90995
-2.95234
-2.99384
-3.0331
-3.06935
-3.10198
-3.13059
-3.15487
-3.17456
-3.18948
-3.19949
-3.20451
-3.20451
-3.19949
-3.18948
-3.17456
-3.15487
-3.13059
-3.10198
-3.06935
-3.03311
-2.99384
-2.95234
-2.90996
-2.86855
-2.83117
-2.80194
-2.78655
-2.82953
-2.8408
-2.86212
-2.89046
-2.9229
-2.95709
-2.9913
-3.02427
-3.0551
-3.08315
-3.10792
-3.12905
-3.14626
-3.15934
-3.16813
-3.17255
-3.17255
-3.16813
-3.15934
-3.14626
-3.12905
-3.10792
-3.08315
-3.0551
-3.02427
-2.99131
-2.95709
-2.9229
-2.89046
-2.86213
-2.84081
-2.82953
-2.86409
-2.87248
-2.88841
-2.91012
-2.9356
-2.96309
-2.99112
-3.01857
-3.04457
-3.06845
-3.0897
-3.10793
-3.12284
-3.13421
-3.14187
-3.14572
-3.14572
-3.14187
-3.13421
-3.12284
-3.10793
-3.0897
-3.06845
-3.04457
-3.01857
-2.99112
-2.96309
-2.93561
-2.91012
-2.88841
-2.87249
-2.8641
-2.89192
-2.89827
-2.91039
-2.9272
-2.94731
-2.9694
-2.9923
-3.01501
-3.03679
-3.05698
-3.07507
-3.09068
-3.1035
-3.11331
-3.11993
-3.12327
-3.12327
-3.11993
-3.11331
-3.1035
-3.09068
-3.07507
-3.05698
-3.03679
-3.01501
-2.9923
-2.9694
-2.94732
-2.9272
-2.91039
-2.89827
-2.89192
-2.91438
-2.91925
-2.92862
-2.94177
-2.95773
-2.9755
-2.99418
-3.01295
-3.03107
-3.04803
-3.06333
-3.07661
-3.08756
-3.09596
-3.10165
-3.10452
-3.10452
-3.10165
-3.09596
-3.08756
-3.07661
-3.06333
-3.04803
-3.03107
-3.01295
-2.99418
-2.97551
-2.95773
-2.94177
-2.92862
-2.91925
-2.91438
-2.93256
-2.93635
-2.94367
-2.95405
-2.96677
-2.98111
-2.99634
-3.01178
-3.02684
-3.04102
-3.0539
-3.06513
-3.07442
-3.08158
-3.08643
-3.08888
-3.08888
-3.08643
-3.08158
-3.07443
-3.06513
-3.0539
-3.04102
-3.02684
-3.01178
-2.99634
-2.98111
-2.96678
-2.95405
-2.94367
-2.93635
-2.93256
-2.94731
-2.95029
-2.95608
-2.96432
-2.97452
-2.98611
-2.99853
-3.01122
-3.02369
-3.03551
-3.04631
-3.05576
-3.06361
-3.06968
-3.0738
-3.07588
-3.07588
-3.0738
-3.06968
-3.06361
-3.05576
-3.04631
-3.03551
-3.02369
-3.01122
-2.99853
-2.98611
-2.97452
-2.96432
-2.95608
-2.9503
-2.94731
-2.95932
-2.96168
-2.96628
-2.97288
-2.98108
-2.99048
-3.00061
-3.01103
-3.02134
-3.03117
-3.04018
-3.04811
-3.05472
-3.05983
-3.06331
-3.06508
-3.06508
-3.06331
-3.05983
-3.05472
-3.04811
-3.04019
-3.03117
-3.02135
-3.01103
-3.00061
-2.99048
-2.98108
-2.97288
-2.96628
-2.96168
-2.95932
-2.9691
-2.97099
-2.97468
-2.97997
-2.9866
-2.99423
-3.00251
-3.01107
-3.01958
-3.02773
-3.03524
-3.04187
-3.04741
-3.0517
-3.05463
-3.05612
-3.05612
-3.05463
-3.0517
-3.04741
-3.04187
-3.03524
-3.02773
-3.01958
-3.01107
-3.00251
-2.99423
-2.9866
-2.97998
-2.97468
-2.97099
-2.9691
-2.97709
-2.97861
-2.98158
-2.98585
-2.99122
-2.99743
-3.00419
-3.01123
-3.01825
-3.025
-3.03124
-3.03676
-3.04139
-3.04499
-3.04744
-3.04869
-3.04869
-3.04744
-3.04499
-3.04139
-3.03676
-3.03124
-3.025
-3.01825
-3.01123
-3.00419
-2.99743
-2.99122
-2.98585
-2.98158
-2.97861
-2.9771
-2.98363
-2.98485
-2.98725
-2.99071
-2.99508
-3.00014
-3.00567
-3.01144
-3.01723
-3.02281
-3.02799
-3.03258
-3.03644
-3.03945
-3.0415
-3.04254
-3.04254
-3.0415
-3.03945
-3.03644
-3.03259
-3.02799
-3.02281
-3.01723
-3.01144
-3.00567
-3.00014
-2.99508
-2.99071
-2.98725
-2.98486
-2.98363
-2.98898
-2.98997
-2.99191
-2.99473
-2.99828
-3.00241
-3.00694
-3.01168
-3.01645
-3.02106
-3.02535
-3.02917
-3.03238
-3.03488
-3.03659
-3.03746
-3.03746
-3.03659
-3.03488
-3.03238
-3.02917
-3.02535
-3.02106
-3.01645
-3.01168
-3.00694
-3.00241
-2.99828
-2.99473
-2.99191
-2.98997
-2.98898
-2.99336
-2.99417
-2.99575
-2.99804
-3.00093
-3.00431
-3.00802
-3.01192
-3.01585
-3.01966
-3.0232
-3.02637
-3.02903
-3.03111
-3.03254
-3.03326
-3.03326
-3.03254
-3.03111
-3.02903
-3.02637
-3.0232
-3.01966
-3.01585
-3.01192
-3.00802
-3.00431
-3.00093
-2.99804
-2.99575
-2.99417
-2.99336
-2.99696
-2.99761
-2.9989
-3.00077
-3.00313
-3.0059
-3.00894
-3.01214
-3.01538
-3.01852
-3.02145
-3.02407
-3.02628
-3.02801
-3.02919
-3.02979
-3.02979
-3.02919
-3.02801
-3.02628
-3.02407
-3.02145
-3.01852
-3.01538
-3.01214
-3.00894
-3.0059
-3.00313
-3.00077
-2.9989
-2.99761
-2.99696
-2.99991
-3.00044
-3.00149
-3.00302
-3.00495
-3.00722
-3.00971
-3.01235
-3.01501
-3.0176
-3.02002
-3.02219
-3.02402
-3.02545
-3.02643
-3.02693
-3.02693
-3.02643
-3.02545
-3.02402
-3.02219
-3.02002
-3.0176
-3.01501
-3.01235
-3.00971
-3.00722
-3.00495
-3.00302
-3.00149
-3.00044
-2.99991
-3.00233
-3.00277
-3.00362
-3.00487
-3.00646
-3.00831
-3.01036
-3.01253
-3.01472
-3.01685
-3.01885
-3.02064
-3.02216
-3.02334
-3.02416
-3.02457
-3.02457
-3.02416
-3.02334
-3.02216
-3.02064
-3.01885
-3.01685
-3.01472
-3.01253
-3.01036
-3.00831
-3.00646
-3.00487
-3.00362
-3.00277
-3.00233
-3.00432
-3.00467
-3.00538
-3.0064
-3.0077
-3.00922
-3.0109
-3.01268
-3.01449
-3.01625
-3.0179
-3.01937
-3.02063
-3.02161
-3.02228
-3.02262
-3.02262
-3.02228
-3.02161
-3.02063
-3.01937
-3.0179
-3.01625
-3.01449
-3.01268
-3.0109
-3.00922
-3.0077
-3.0064
-3.00538
-3.00467
-3.00432
-3.00595
-3.00624
-3.00682
-3.00766
-3.00872
-3.00997
-3.01135
-3.01282
-3.0143
-3.01575
-3.01711
-3.01833
-3.01937
-3.02018
-3.02073
-3.02102
-3.02102
-3.02073
-3.02018
-3.01937
-3.01833
-3.01711
-3.01575
-3.0143
-3.01282
-3.01135
-3.00997
-3.00872
-3.00766
-3.00682
-3.00624
-3.00595
-3.00729
-3.00753
-3.008
-3.00869
-3.00957
-3.01059
-3.01173
-3.01293
-3.01415
-3.01535
-3.01647
-3.01748
-3.01833
-3.019
-3.01946
-3.01969
-3.01969
-3.01946
-3.019
-3.01833
-3.01748
-3.01647
-3.01535
-3.01415
-3.01293
-3.01173
-3.01059
-3.00957
-3.00869
-3.00801
-3.00753
-3.00729
-3.0084
-3.00859
-3.00898
-3.00954
-3.01026
-3.0111
-3.01204
-3.01303
-3.01404
-3.01502
-3.01594
-3.01677
-3.01748
-3.01803
-3.01841
-3.0186
-3.0186
-3.01841
-3.01803
-3.01748
-3.01677
-3.01594
-3.01502
-3.01404
-3.01303
-3.01204
-3.01111
-3.01026
-3.00954
-3.00898
-3.00859
-3.0084
-3.0093
-3.00947
-3.00978
-3.01025
-3.01084
-3.01153
-3.0123
-3.01311
-3.01394
-3.01475
-3.01551
-3.01619
-3.01678
-3.01723
-3.01754
-3.0177
-3.0177
-3.01754
-3.01723
-3.01678
-3.01619
-3.01551
-3.01475
-3.01394
-3.01311
-3.0123
-3.01153
-3.01084
-3.01025
-3.00978
-3.00947
-3.0093
-3.01005
-3.01018
-3.01044
-3.01082
-3.01131
-3.01188
-3.01251
-3.01318
-3.01386
-3.01453
-3.01516
-3.01572
-3.0162
-3.01657
-3.01683
-3.01696
-3.01696
-3.01683
-3.01657
-3.0162
-3.01572
-3.01516
-3.01453
-3.01386
-3.01318
-3.01251
-3.01188
-3.01131
-3.01082
-3.01044
-3.01018
-3.01005
-3.01066
-3.01077
-3.01099
-3.0113
-3.0117
-3.01217
-3.01269
-3.01324
-3.0138
-3.01435
-3.01486
-3.01533
-3.01572
-3.01603
-3.01625
-3.01635
-3.01635
-3.01625
-3.01603
-3.01572
-3.01533
-3.01486
-3.01435
-3.0138
-3.01324
-3.01269
-3.01217
-3.0117
-3.0113
-3.01099
-3.01077
-3.01066
-3.01117
-3.01126
-3.01143
-3.01169
-3.01202
-3.0124
-3.01283
-3.01328
-3.01375
-3.0142
-3.01462
-3.01501
-3.01533
-3.01559
-3.01576
-3.01585
-3.01585
-3.01576
-3.01559
-3.01533
-3.01501
-3.01462
-3.0142
-3.01375
-3.01328
-3.01283
-3.0124
-3.01202
-3.01169
-3.01144
-3.01126
-3.01117
-3.01158
-3.01166
-3.0118
-3.01201
-3.01228
-3.0126
-3.01295
-3.01332
-3.0137
-3.01408
-3.01443
-3.01474
-3.01501
-3.01522
-3.01536
-3.01544
-3.01544
-3.01536
-3.01522
-3.01501
-3.01474
-3.01443
-3.01408
-3.0137
-3.01332
-3.01295
-3.0126
-3.01228
-3.01201
-3.0118
-3.01166
-3.01158
-3.01193
-3.01199
-3.01211
-3.01228
-3.0125
-3.01276
-3.01305
-3.01336
-3.01367
-3.01398
-3.01426
-3.01452
-3.01474
-3.01492
-3.01504
-3.0151
-3.0151
-3.01504
-3.01492
-3.01474
-3.01452
-3.01426
-3.01398
-3.01367
-3.01336
-3.01305
-3.01276
-3.0125
-3.01228
-3.01211
-3.01199
-3.01193
-3.01221
-3.01226
-3.01235
-3.0125
-3.01268
-3.01289
-3.01313
-3.01338
-3.01364
-3.01389
-3.01413
-3.01435
-3.01453
-3.01467
-3.01477
-3.01482
-3.01482
-3.01477
-3.01467
-3.01453
-3.01435
-3.01413
-3.01389
-3.01364
-3.01338
-3.01313
-3.01289
-3.01268
-3.0125
-3.01236
-3.01226
-3.01221
-3.01244
-3.01248
-3.01256
-3.01268
-3.01283
-3.013
-3.0132
-3.01341
-3.01362
-3.01383
-3.01402
-3.0142
-3.01435
-3.01446
-3.01455
-3.01459
-3.01459
-3.01455
-3.01446
-3.01435
-3.0142
-3.01402
-3.01383
-3.01362
-3.01341
-3.0132
-3.013
-3.01283
-3.01268
-3.01256
-3.01248
-3.01244
-3.01263
-3.01266
-3.01273
-3.01282
-3.01295
-3.01309
-3.01325
-3.01343
-3.0136
-3.01377
-3.01393
-3.01408
-3.0142
-3.0143
-3.01436
-3.0144
-3.0144
-3.01436
-3.0143
-3.0142
-3.01408
-3.01393
-3.01377
-3.0136
-3.01343
-3.01325
-3.01309
-3.01295
-3.01283
-3.01273
-3.01266
-3.01263
-3.01278
-3.01281
-3.01287
-3.01295
-3.01305
-3.01317
-3.0133
-3.01344
-3.01358
-3.01372
-3.01386
-3.01398
-3.01408
-3.01416
-3.01421
-3.01424
-3.01424
-3.01421
-3.01416
-3.01408
-3.01398
-3.01386
-3.01372
-3.01358
-3.01344
-3.0133
-3.01317
-3.01305
-3.01295
-3.01287
-3.01281
-3.01279
-3.01291
-3.01294
-3.01298
-3.01305
-3.01313
-3.01323
-3.01334
-3.01345
-3.01357
-3.01369
-3.0138
-3.01389
-3.01398
-3.01404
-3.01409
-3.01411
-3.01411
-3.01409
-3.01404
-3.01398
-3.01389
-3.0138
-3.01369
-3.01357
-3.01345
-3.01334
-3.01323
-3.01313
-3.01305
-3.01298
-3.01294
-3.01291
-3.01302
-3.01304
-3.01308
-3.01313
-3.0132
-3.01328
-3.01337
-3.01346
-3.01356
-3.01366
-3.01375
-3.01383
-3.0139
-3.01395
-3.01399
-3.01401
-3.01401
-3.01399
-3.01395
-3.0139
-3.01383
-3.01375
-3.01366
-3.01356
-3.01346
-3.01337
-3.01328