/*--------------------------------*- C++ -*----------------------------------*\
  =========                 |
  \\      /  F ield         | OpenFOAM: The Open Source CFD Toolbox
   \\    /   O peration     | Website:  https://openfoam.org
    \\  /    A nd           | Version:  9
     \\/     M anipulation  |
\*---------------------------------------------------------------------------*/
FoamFile
{
    format      ascii;
    class       surfaceScalarField;
    location    "0.2";
    object      phi;
}
// * * * * * * * * * * * * * * * * * * * * * * * * * * * * * * * * * * * * * //

dimensions      [0 3 -1 0 0 0 0];

internalField   nonuniform List<scalar> 
8032
(
-3.22966e-09
3.20527e-09
-6.10262e-09
3.05555e-09
-8.90854e-09
2.7909e-09
-1.16572e-08
2.72904e-09
-1.40494e-08
2.37541e-09
-1.59504e-08
1.8887e-09
-1.72328e-08
1.27378e-09
-1.78073e-08
5.68406e-10
-1.76368e-08
-1.75102e-10
-1.67285e-08
-9.11989e-10
-1.51228e-08
-1.609e-09
-1.2889e-08
-2.23671e-09
-1.0121e-08
-2.77066e-09
-6.93263e-09
-3.19087e-09
-3.45338e-09
-3.48161e-09
1.76666e-10
-3.63229e-09
3.81204e-09
-3.6375e-09
7.30752e-09
-3.49753e-09
1.05237e-08
-3.21818e-09
1.33326e-08
-2.81077e-09
1.56223e-08
-2.29151e-09
1.73016e-08
-1.68105e-09
1.83034e-08
-1.00355e-09
1.85877e-08
-2.85953e-10
1.81428e-08
4.43251e-10
1.69867e-08
1.15436e-09
1.51674e-08
1.81767e-09
1.27629e-08
2.40281e-09
9.88344e-09
2.87802e-09
6.67281e-09
3.20921e-09
3.30998e-09
3.36072e-09
3.30929e-09
-3.70064e-09
6.91663e-09
-7.19339e-09
6.54723e-09
-1.05274e-08
6.1128e-09
-1.35021e-08
5.68765e-09
-1.60301e-08
4.88858e-09
-1.79714e-08
3.81855e-09
-1.9228e-08
2.52189e-09
-1.97338e-08
1.06785e-09
-1.94564e-08
-4.57488e-10
-1.83993e-08
-1.9731e-09
-1.66026e-08
-3.40931e-09
-1.4137e-08
-4.70548e-09
-1.11009e-08
-5.80982e-09
-7.6152e-09
-6.6793e-09
-3.81882e-09
-7.28061e-09
1.37333e-10
-7.59092e-09
4.09626e-09
-7.5988e-09
7.90091e-09
-7.30445e-09
1.14005e-08
-6.71997e-09
1.44564e-08
-5.86875e-09
1.69475e-08
-4.78463e-09
1.8775e-08
-3.51052e-09
1.98664e-08
-2.09688e-09
2.01782e-08
-5.99704e-10
1.96982e-08
9.21355e-10
1.8446e-08
2.40475e-09
1.64735e-08
3.78822e-09
1.38658e-08
5.00877e-09
1.07411e-08
6.00092e-09
7.25426e-09
6.69426e-09
3.59857e-09
7.01496e-09
6.90661e-09
-4.17664e-09
1.11018e-08
-8.25129e-09
1.06252e-08
-1.2113e-08
9.96938e-09
-1.54583e-08
9.02301e-09
-1.8219e-08
7.63869e-09
-2.02893e-08
5.87974e-09
-2.15879e-08
3.81311e-09
-2.20611e-08
1.53528e-09
-2.16838e-08
-8.39522e-10
-2.04632e-08
-3.19762e-09
-1.8442e-08
-5.43409e-09
-1.56957e-08
-7.45489e-09
-1.23304e-08
-9.17811e-09
-8.47715e-09
-1.05353e-08
-4.28718e-09
-1.14732e-08
7.473e-11
-1.19553e-08
4.43689e-09
-1.19633e-08
8.62734e-09
-1.14971e-08
1.24809e-08
-1.05757e-08
1.58456e-08
-9.23551e-09
1.85887e-08
-7.52972e-09
2.06019e-08
-5.52571e-09
2.18058e-08
-3.30268e-09
2.21528e-08
-9.48619e-10
2.16296e-08
1.44273e-09
2.02577e-08
3.77472e-09
1.80945e-08
5.94965e-09
1.52329e-08
7.86856e-09
1.18036e-08
9.42863e-09
7.97536e-09
1.0521e-08
3.95781e-09
1.103e-08
1.08639e-08
-4.60066e-09
1.57079e-08
-9.30406e-09
1.53315e-08
-1.36914e-08
1.4354e-08
-1.75058e-08
1.28308e-08
-2.06293e-08
1.07545e-08
-2.29514e-08
8.1946e-09
-2.43907e-08
5.24625e-09
-2.48958e-08
2.03519e-09
-2.44456e-08
-1.29408e-09
-2.30532e-08
-4.59377e-09
-2.07683e-08
-7.72243e-09
-1.76761e-08
-1.05502e-08
-1.3895e-08
-1.29621e-08
-9.57127e-09
-1.48616e-08
-4.87352e-09
-1.61734e-08
1.44635e-11
-1.68457e-08
4.90101e-09
-1.68521e-08
9.59424e-09
-1.61926e-08
1.39097e-08
-1.48932e-08
1.76777e-08
-1.30056e-08
2.07501e-08
-1.0604e-08
2.30058e-08
-7.78337e-09
2.43563e-08
-4.65498e-09
2.47484e-08
-1.34256e-09
2.41672e-08
2.02208e-09
2.26371e-08
5.30305e-09
2.0222e-08
8.36287e-09
1.70264e-08
1.10626e-08
1.31948e-08
1.32584e-08
8.91698e-09
1.47968e-08
4.42873e-09
1.55172e-08
1.52913e-08
-5.16023e-09
2.08744e-08
-1.04708e-08
2.06447e-08
-1.54719e-08
1.93539e-08
-1.98706e-08
1.72253e-08
-2.34828e-08
1.43614e-08
-2.61711e-08
1.08773e-08
-2.78395e-08
6.90951e-09
-2.84301e-08
2.62133e-09
-2.79225e-08
-1.80565e-09
-2.63355e-08
-6.18438e-09
-2.37283e-08
-1.03328e-08
-2.02003e-08
-1.40811e-08
-1.58873e-08
-1.72779e-08
-1.09565e-08
-1.9795e-08
-5.60013e-09
-2.15322e-08
-2.75642e-11
-2.24206e-08
5.54265e-09
-2.24246e-08
1.08923e-08
-2.15443e-08
1.58112e-08
-1.98143e-08
2.01064e-08
-1.73026e-08
2.36088e-08
-1.41084e-08
2.61811e-08
-1.03575e-08
2.77221e-08
-6.19778e-09
2.81715e-08
-1.79374e-09
2.75123e-08
2.67949e-09
2.57723e-08
7.04128e-09
2.30244e-08
1.11091e-08
1.9387e-08
1.46982e-08
1.50267e-08
1.76173e-08
1.01574e-08
1.96648e-08
5.04408e-09
2.06277e-08
2.0335e-08
-5.90921e-09
2.67843e-08
-1.19612e-08
2.66976e-08
-1.77174e-08
2.5109e-08
-2.28308e-08
2.23357e-08
-2.70552e-08
1.85818e-08
-3.02136e-08
1.40313e-08
-3.21856e-08
8.87723e-09
-3.29001e-08
3.33188e-09
-3.23332e-08
-2.37617e-09
-3.05083e-08
-8.01254e-09
-2.74965e-08
-1.33477e-08
-2.34144e-08
-1.8166e-08
-1.84208e-08
-2.22741e-08
-1.27103e-08
-2.5508e-08
-6.50611e-09
-2.77388e-08
-5.11933e-11
-2.88777e-08
6.40154e-09
-2.88794e-08
1.25988e-08
-2.77436e-08
1.82973e-08
-2.55148e-08
2.32733e-08
-2.22806e-08
2.73314e-08
-1.81683e-08
3.0312e-08
-1.33399e-08
3.20982e-08
-7.98577e-09
3.26202e-08
-2.31747e-09
3.18583e-08
3.43968e-09
2.98447e-08
9.05326e-09
2.66638e-08
1.42882e-08
2.24534e-08
1.8907e-08
1.74042e-08
2.26649e-08
1.17656e-08
2.53014e-08
5.8466e-09
2.65461e-08
2.61802e-08
-6.88347e-09
3.36707e-08
-1.39146e-08
3.37296e-08
-2.0628e-08
3.18216e-08
-2.66245e-08
2.83301e-08
-3.16025e-08
2.35567e-08
-3.53412e-08
1.77667e-08
-3.76894e-08
1.12219e-08
-3.85576e-08
4.19669e-09
-3.79153e-08
-3.02163e-09
-3.57901e-08
-1.01408e-08
-3.2266e-08
-1.68745e-08
-2.74815e-08
-2.29532e-08
-2.16237e-08
-2.81344e-08
-1.49222e-08
-3.22118e-08
-7.63963e-09
-3.50236e-08
-6.16343e-11
-3.64578e-08
7.51439e-09
-3.64575e-08
1.47909e-08
-3.50221e-08
2.14822e-08
-3.22079e-08
2.73252e-08
-2.81254e-08
3.20906e-08
-2.29354e-08
3.55909e-08
-1.6842e-08
3.76889e-08
-1.00854e-08
3.83025e-08
-2.93268e-09
3.74085e-08
4.33197e-09
3.50449e-08
1.14152e-08
3.13108e-08
1.80207e-08
2.63673e-08
2.38488e-08
2.04408e-08
2.85901e-08
1.38216e-08
3.19196e-08
6.86717e-09
3.34977e-08
3.30472e-08
-8.14269e-09
4.18122e-08
-1.64341e-08
4.20206e-08
-2.43559e-08
3.97424e-08
-3.14514e-08
3.54239e-08
-3.73595e-08
2.94623e-08
-4.18106e-08
2.2215e-08
-4.46177e-08
1.40261e-08
-4.56696e-08
5.24555e-09
-4.49268e-08
-3.76724e-09
-4.24209e-08
-1.26495e-08
-3.82517e-08
-2.10463e-08
-3.25836e-08
-2.86237e-08
-2.56396e-08
-3.50807e-08
-1.76925e-08
-4.01612e-08
-9.05438e-09
-4.36638e-08
-6.46167e-11
-4.54496e-08
8.92358e-09
-4.54476e-08
1.7557e-08
-4.36574e-08
2.54963e-08
-4.0149e-08
3.24294e-08
-3.50603e-08
3.80838e-08
-2.85915e-08
4.22374e-08
-2.09972e-08
4.47269e-08
-1.25766e-08
4.54551e-08
-3.66245e-09
4.43946e-08
5.39098e-09
4.159e-08
1.42182e-08
3.71594e-08
2.24497e-08
3.12948e-08
2.97121e-08
2.42617e-08
3.56216e-08
1.64065e-08
3.97727e-08
8.15653e-09
4.17474e-08
4.12023e-08
-9.72692e-09
5.15408e-08
-1.96132e-08
5.19071e-08
-2.90538e-08
4.91823e-08
-3.7516e-08
4.38846e-08
-4.4572e-08
3.65164e-08
-4.98975e-08
2.75382e-08
-5.32643e-08
1.73905e-08
-5.45353e-08
6.51397e-09
-5.36606e-08
-4.64442e-09
-5.06763e-08
-1.56362e-08
-4.57012e-08
-2.60239e-08
-3.89317e-08
-3.53954e-08
-3.06347e-08
-4.33799e-08
-2.11365e-08
-4.96614e-08
-1.08108e-08
-5.39915e-08
-6.36604e-11
-5.61987e-08
1.06824e-08
-5.61955e-08
2.10048e-08
-5.39815e-08
3.04976e-08
-4.96435e-08
3.87875e-08
-4.33519e-08
4.55486e-08
-3.53541e-08
5.0515e-08
-2.59652e-08
5.34918e-08
-1.55549e-08
5.43624e-08
-4.53453e-09
5.30941e-08
6.65781e-09
4.97405e-08
1.75703e-08
4.44426e-08
2.77461e-08
3.74291e-08
3.6724e-08
2.90208e-08
4.40288e-08
1.96288e-08
4.9164e-08
9.75705e-09
5.16161e-08
5.09593e-08
-1.17035e-08
6.32426e-08
-2.3574e-08
6.37766e-08
-3.48989e-08
6.05063e-08
-4.50519e-08
5.40364e-08
-5.35232e-08
4.49862e-08
-5.99225e-08
3.39356e-08
-6.39734e-08
2.14394e-08
-6.55082e-08
8.0465e-09
-6.44647e-08
-5.69007e-09
-6.08849e-08
-1.92182e-08
-5.49107e-08
-3.20002e-08
-4.67781e-08
-4.35301e-08
-3.68076e-08
-5.33524e-08
-2.53918e-08
-6.10791e-08
-1.298e-08
-6.64051e-08
-6.06632e-11
-6.91198e-08
1.2858e-08
-6.91159e-08
2.52677e-08
-6.63929e-08
3.66804e-08
-6.10577e-08
4.6647e-08
-5.332e-08
5.47756e-08
-4.34842e-08
6.07465e-08
-3.19375e-08
6.43253e-08
-1.9135e-08
6.53717e-08
-5.58237e-09
6.38465e-08
8.18163e-09
5.98141e-08
2.16013e-08
5.34442e-08
3.41146e-08
4.50128e-08
4.51543e-08
3.49018e-08
5.41384e-08
2.36077e-08
6.04561e-08
1.17409e-08
6.34831e-08
6.26988e-08
-1.41366e-08
7.73803e-08
-2.84588e-08
7.80988e-08
-4.21114e-08
7.41582e-08
-5.43475e-08
6.62715e-08
-6.45583e-08
5.51956e-08
-7.22747e-08
4.16504e-08
-7.71621e-08
2.6325e-08
-7.90164e-08
9.89893e-09
-7.77612e-08
-6.9472e-09
-7.34457e-08
-2.35357e-08
-6.62404e-08
-3.92075e-08
-5.64295e-08
-5.33429e-08
-4.43998e-08
-6.53839e-08
-3.0625e-08
-7.48556e-08
-1.56474e-08
-8.13843e-08
-5.66309e-11
-8.47123e-08
1.55338e-08
-8.4708e-08
3.05105e-08
-8.13711e-08
4.42839e-08
-7.48327e-08
5.63123e-08
-6.53498e-08
6.61224e-08
-5.32957e-08
7.33285e-08
-3.91449e-08
7.76473e-08
-2.34552e-08
7.89099e-08
-6.84623e-09
7.70687e-08
1.00215e-08
7.22016e-08
2.6467e-08
6.45135e-08
4.18015e-08
5.43363e-08
5.53301e-08
4.21347e-08
6.63389e-08
2.85048e-08
7.40857e-08
1.41745e-08
7.78104e-08
7.68735e-08
-1.7126e-08
9.45045e-08
-3.44562e-08
9.5428e-08
-5.09644e-08
9.06656e-08
-6.57567e-08
8.10628e-08
-7.81006e-08
6.75384e-08
-8.74301e-08
5.09786e-08
-9.33404e-08
3.22338e-08
-9.55836e-08
1.21405e-08
-9.4066e-08
-8.46641e-09
-8.88464e-08
-2.87571e-08
-8.01302e-08
-4.79254e-08
-6.82611e-08
-6.52137e-08
-5.37066e-08
-7.99401e-08
-3.70399e-08
-9.15239e-08
-1.89173e-08
-9.95085e-08
-5.2139e-11
-1.03579e-07
1.8813e-08
-1.03574e-07
3.69355e-08
-9.9495e-08
5.36022e-08
-9.15007e-08
6.81573e-08
-7.99062e-08
8.00281e-08
-6.51678e-08
8.87477e-08
-4.78657e-08
9.39734e-08
-2.86821e-08
9.55007e-08
-8.37473e-09
9.32722e-08
1.22489e-08
8.73821e-08
3.23559e-08
7.80784e-08
5.1104e-08
6.57641e-08
6.76434e-08
5.09973e-08
8.11045e-08
3.45015e-08
9.05796e-08
1.71632e-08
9.51493e-08
9.40353e-08
-2.07773e-08
1.15283e-07
-4.17907e-08
1.16441e-07
-6.1797e-08
1.10671e-07
-7.9718e-08
9.8983e-08
-9.46713e-08
8.24908e-08
-1.05973e-07
6.22792e-08
-1.13133e-07
3.93925e-08
-1.1585e-07
1.48561e-08
-1.1401e-07
-1.03079e-08
-1.07683e-07
-3.50854e-08
-9.71184e-08
-5.84918e-08
-8.27313e-08
-7.96023e-08
-6.50888e-08
-9.75841e-08
-4.48854e-08
-1.11729e-07
-2.29167e-08
-1.21479e-07
-4.75496e-11
-1.26449e-07
2.28218e-08
-1.26445e-07
4.4791e-08
-1.21466e-07
6.49955e-08
-1.11706e-07
8.26401e-08
-9.7552e-08
9.70304e-08
-7.95593e-08
1.076e-07
-5.84369e-08
1.13935e-07
-3.50176e-08
1.15786e-07
-1.02267e-08
1.13084e-07
1.495e-08
1.05943e-07
3.94957e-08
9.46637e-08
6.2382e-08
7.97339e-08
8.2572e-08
6.18344e-08
9.90032e-08
4.18382e-08
1.10576e-07
2.08104e-08
1.16174e-07
1.14846e-07
-2.52388e-08
1.4052e-07
-5.07479e-08
1.41949e-07
-7.50247e-08
1.34948e-07
-9.67676e-08
1.20725e-07
-1.14909e-07
1.00631e-07
-1.28619e-07
7.59888e-08
-1.37305e-07
4.8077e-08
-1.406e-07
1.81499e-08
-1.38365e-07
-1.25437e-08
-1.30686e-07
-4.27661e-08
-1.17863e-07
-7.13161e-08
-1.00401e-07
-9.70654e-08
-7.89873e-08
-1.18999e-07
-5.44656e-08
-1.36252e-07
-2.78009e-08
-1.48144e-07
-4.31051e-11
-1.54208e-07
2.7715e-08
-1.54204e-07
5.43807e-08
-1.48132e-07
7.89042e-08
-1.36231e-07
1.0032e-07
-1.18969e-07
1.17787e-07
-9.70265e-08
1.30616e-07
-7.1267e-08
1.38304e-07
-4.27065e-08
1.40549e-07
-1.24735e-08
1.37269e-07
1.82297e-08
1.28601e-07
4.81628e-08
1.1491e-07
7.60715e-08
9.67901e-08
1.00691e-07
7.50624e-08
1.2073e-07
5.07892e-08
1.34847e-07
2.52701e-08
1.41694e-07
1.40115e-07
-3.06743e-08
1.71195e-07
-6.16687e-08
1.72944e-07
-9.11578e-08
1.64436e-07
-1.17564e-07
1.4713e-07
-1.39593e-07
1.2266e-07
-1.56242e-07
9.26368e-08
-1.66789e-07
5.86225e-08
-1.70788e-07
2.21486e-08
-1.68072e-07
-1.52609e-08
-1.58743e-07
-5.20968e-08
-1.43165e-07
-8.68946e-08
-1.21953e-07
-1.18279e-07
-9.59402e-08
-1.45012e-07
-6.61514e-08
-1.66042e-07
-3.37592e-08
-1.80538e-07
-3.89714e-11
-1.8793e-07
3.36817e-08
-1.87926e-07
6.60752e-08
-1.80527e-07
9.58663e-08
-1.66023e-07
1.21882e-07
-1.44986e-07
1.431e-07
-1.18245e-07
1.58684e-07
-8.68519e-08
1.68022e-07
-5.20456e-08
1.70749e-07
-1.52014e-08
1.66763e-07
2.22152e-08
1.56232e-07
5.86925e-08
1.39601e-07
9.27022e-08
1.17587e-07
1.22704e-07
9.11949e-08
1.47122e-07
6.17102e-08
1.64332e-07
3.07008e-08
1.72701e-07
1.70816e-07
-3.73013e-08
2.08495e-07
-7.49784e-08
2.1062e-07
-1.10818e-07
2.00275e-07
-1.42908e-07
1.7922e-07
-1.69678e-07
1.49429e-07
-1.89909e-07
1.12867e-07
-2.02724e-07
7.14367e-08
-2.07583e-07
2.70068e-08
-2.0428e-07
-1.85647e-08
-1.9294e-07
-6.34383e-08
-1.74005e-07
-1.0583e-07
-1.48222e-07
-1.44063e-07
-1.16604e-07
-1.76632e-07
-8.03954e-08
-2.02251e-07
-4.10225e-08
-2.19912e-07
-3.52569e-11
-2.28918e-07
4.09525e-08
-2.28915e-07
8.03268e-08
-2.19902e-07
1.16538e-07
-2.02235e-07
1.4816e-07
-1.76609e-07
1.73948e-07
-1.44034e-07
1.92889e-07
-1.05794e-07
2.04239e-07
-6.33955e-08
2.07552e-07
-1.85156e-08
2.02705e-07
2.7061e-08
1.89904e-07
7.14926e-08
1.69689e-07
1.12917e-07
1.42934e-07
1.49458e-07
1.10853e-07
1.79202e-07
7.50129e-08
2.0017e-07
3.73269e-08
2.10388e-07
2.08142e-07
-4.53678e-08
2.53864e-07
-9.11868e-08
2.56439e-07
-1.34765e-07
2.43853e-07
-1.7378e-07
2.18234e-07
-2.06326e-07
1.81975e-07
-2.30921e-07
1.37462e-07
-2.465e-07
8.70153e-08
-2.52407e-07
3.29126e-08
-2.48389e-07
-2.25825e-08
-2.34599e-07
-7.72291e-08
-2.11576e-07
-1.28854e-07
-1.80224e-07
-1.75416e-07
-1.41777e-07
-2.15079e-07
-9.77489e-08
-2.4628e-07
-4.9872e-08
-2.67789e-07
-3.20309e-11
-2.78759e-07
4.98085e-08
-2.78756e-07
9.76869e-08
-2.67781e-07
1.41718e-07
-2.46267e-07
1.80169e-07
-2.15061e-07
2.11526e-07
-1.75392e-07
2.34556e-07
-1.28824e-07
2.48354e-07
-7.71943e-08
2.52381e-07
-2.25431e-08
2.46486e-07
3.29553e-08
2.3092e-07
8.70584e-08
2.06338e-07
1.37499e-07
1.73803e-07
1.81992e-07
1.34798e-07
2.18206e-07
9.12219e-08
2.43746e-07
4.53889e-08
2.56218e-07
2.53531e-07
-5.51933e-08
3.09055e-07
-1.10924e-07
3.12169e-07
-1.63923e-07
2.96852e-07
-2.11371e-07
2.65682e-07
-2.50951e-07
2.21554e-07
-2.80862e-07
1.67372e-07
-2.99808e-07
1.05961e-07
-3.06991e-07
4.0095e-08
-3.02105e-07
-2.7469e-08
-2.85333e-07
-9.40017e-08
-2.57331e-07
-1.56857e-07
-2.19198e-07
-2.13549e-07
-1.72436e-07
-2.61842e-07
-1.18884e-07
-2.99833e-07
-6.06505e-08
-3.26023e-07
-2.93303e-11
-3.3938e-07
6.05924e-08
-3.39378e-07
1.18827e-07
-3.26017e-07
1.72382e-07
-2.99822e-07
2.19149e-07
-2.61828e-07
2.57286e-07
-2.1353e-07
2.85295e-07
-1.56834e-07
3.02075e-07
-9.39747e-08
3.0697e-07
-2.74388e-08
2.99797e-07
4.01272e-08
2.80862e-07
1.05993e-07
2.50963e-07
1.67397e-07
2.11395e-07
2.2156e-07
1.63953e-07
2.65648e-07
1.10952e-07
2.96746e-07
5.52144e-08
3.11957e-07
3.08745e-07
-6.71491e-08
3.76205e-07
-1.34947e-07
3.79967e-07
-1.99418e-07
3.61323e-07
-2.57133e-07
3.23397e-07
-3.05277e-07
2.69698e-07
-3.41661e-07
2.03756e-07
-3.64708e-07
1.29008e-07
-3.73447e-07
4.88332e-08
-3.67505e-07
-3.34116e-08
-3.47103e-07
-1.14403e-07
-3.1304e-07
-1.9092e-07
-2.66653e-07
-2.59937e-07
-2.09766e-07
-3.1873e-07
-1.44618e-07
-3.64981e-07
-7.37753e-08
-3.96866e-07
-2.71752e-11
-4.13129e-07
7.37215e-08
-4.13127e-07
1.44566e-07
-3.96862e-07
2.09716e-07
-3.64973e-07
2.66607e-07
-3.18719e-07
3.12999e-07
-2.59923e-07
3.47069e-07
-1.90904e-07
3.67478e-07
-1.14384e-07
3.73429e-07
-3.339e-08
3.647e-07
4.88557e-08
3.41663e-07
1.29029e-07
3.0529e-07
2.0377e-07
2.57154e-07
2.69695e-07
1.99446e-07
3.23355e-07
1.34977e-07
3.61216e-07
6.7166e-08
3.79765e-07
3.75911e-07
-8.17046e-08
4.57909e-07
-1.64188e-07
4.6245e-07
-2.4262e-07
4.39754e-07
-3.12833e-07
3.93609e-07
-3.71403e-07
3.28269e-07
-4.15668e-07
2.4802e-07
-4.43709e-07
1.57049e-07
-4.54343e-07
5.94672e-08
-4.47117e-07
-4.06379e-08
-4.223e-07
-1.39221e-07
-3.80859e-07
-2.32361e-07
-3.24424e-07
-3.16373e-07
-2.55212e-07
-3.87942e-07
-1.75949e-07
-4.44245e-07
-8.97549e-08
-4.83061e-07
-2.55672e-11
-5.02859e-07
8.97043e-08
-5.02858e-07
1.759e-07
-4.83057e-07
2.55166e-07
-4.44239e-07
3.24381e-07
-3.87935e-07
3.80822e-07
-3.16364e-07
4.22268e-07
-2.3235e-07
4.47092e-07
-1.39209e-07
4.54326e-07
-4.06245e-08
4.43701e-07
5.94806e-08
4.1567e-07
1.5706e-07
3.71415e-07
2.48025e-07
3.12854e-07
3.28256e-07
2.42645e-07
3.93564e-07
1.64211e-07
4.39648e-07
8.17225e-08
4.62256e-07
4.57633e-07
-9.94137e-08
5.57324e-07
-1.99772e-07
5.62809e-07
-2.95197e-07
5.35179e-07
-3.80622e-07
4.79034e-07
-4.51883e-07
3.9953e-07
-5.05741e-07
3.01879e-07
-5.39863e-07
1.91171e-07
-5.52807e-07
7.24114e-08
-5.44022e-07
-4.94239e-08
-5.13831e-07
-1.69412e-07
-4.63414e-07
-2.82778e-07
-3.94748e-07
-3.85038e-07
-3.10535e-07
-4.72155e-07
-2.14089e-07
-5.40691e-07
-1.09208e-07
-5.87942e-07
-2.45036e-11
-6.12043e-07
1.0916e-07
-6.12042e-07
2.14042e-07
-5.8794e-07
3.10491e-07
-5.40688e-07
3.94708e-07
-4.72152e-07
4.63378e-07
-3.85034e-07
5.13801e-07
-2.82773e-07
5.43998e-07
-1.69406e-07
5.52791e-07
-4.94181e-08
5.39855e-07
7.24164e-08
5.05743e-07
1.91173e-07
4.51893e-07
3.01874e-07
3.80638e-07
3.9951e-07
2.9522e-07
4.78982e-07
1.99797e-07
5.35072e-07
9.94273e-08
5.62623e-07
5.57061e-07
-1.20968e-07
6.7829e-07
-2.43075e-07
6.84916e-07
-3.59177e-07
6.51282e-07
-4.63115e-07
5.82972e-07
-5.49823e-07
4.86239e-07
-6.1536e-07
3.67416e-07
-6.56886e-07
2.32696e-07
-6.72646e-07
8.81717e-08
-6.61966e-07
-6.0104e-08
-6.2524e-07
-2.06138e-07
-5.63899e-07
-3.44119e-07
-4.8035e-07
-4.68587e-07
-3.77878e-07
-5.74627e-07
-2.60517e-07
-6.58053e-07
-1.32889e-07
-7.1557e-07
-2.39754e-11
-7.44908e-07
1.32842e-07
-7.44908e-07
2.60471e-07
-7.1557e-07
3.77835e-07
-6.58052e-07
4.8031e-07
-5.74627e-07
5.63864e-07
-4.68587e-07
6.2521e-07
-3.4412e-07
6.61943e-07
-2.06139e-07
6.7263e-07
-6.01057e-08
6.56878e-07
8.81685e-08
6.1536e-07
2.3269e-07
5.49831e-07
3.67403e-07
4.63131e-07
4.8621e-07
3.59197e-07
5.82915e-07
2.43093e-07
6.51175e-07
1.20983e-07
6.84735e-07
6.78042e-07
-1.47189e-07
8.2548e-07
-2.95762e-07
8.3349e-07
-4.37029e-07
7.92549e-07
-5.63496e-07
7.09439e-07
-6.69004e-07
5.91747e-07
-7.48758e-07
4.4717e-07
-7.993e-07
2.83238e-07
-8.18493e-07
1.07365e-07
-8.05513e-07
-7.30835e-08
-7.60838e-07
-2.50814e-07
-6.86206e-07
-4.18751e-07
-5.84545e-07
-5.70249e-07
-4.59851e-07
-6.99321e-07
-3.17032e-07
-8.00871e-07
-1.61716e-07
-8.70886e-07
-2.39744e-11
-9.066e-07
1.61668e-07
-9.066e-07
3.16986e-07
-8.70888e-07
4.59807e-07
-8.00874e-07
5.84505e-07
-6.99325e-07
6.8617e-07
-5.70253e-07
7.60807e-07
-4.18757e-07
8.05489e-07
-2.50821e-07
8.18475e-07
-7.30923e-08
7.9929e-07
1.07354e-07
7.48756e-07
2.83224e-07
6.69011e-07
4.47148e-07
5.63508e-07
5.91713e-07
4.37047e-07
7.09376e-07
2.95783e-07
7.9244e-07
1.472e-07
8.33316e-07
8.25243e-07
-1.79097e-07
1.00458e-06
-3.59869e-07
1.01426e-06
-5.31753e-07
9.64432e-07
-6.85636e-07
8.63322e-07
-8.14025e-07
7.20137e-07
-9.11085e-07
5.44229e-07
-9.72606e-07
3.4476e-07
-9.95985e-07
1.30744e-07
-9.80215e-07
-8.88527e-08
-9.25874e-07
-3.05155e-07
-8.35073e-07
-5.09552e-07
-7.11371e-07
-6.9395e-07
-5.59631e-07
-8.51061e-07
-3.85827e-07
-9.74676e-07
-1.96807e-07
-1.05991e-06
-2.4491e-11
-1.10338e-06
1.96758e-07
-1.10338e-06
3.8578e-07
-1.05991e-06
5.59586e-07
-9.74681e-07
7.1133e-07
-8.51068e-07
8.35036e-07
-6.93959e-07
9.25842e-07
-5.09563e-07
9.8019e-07
-3.05168e-07
9.95966e-07
-8.88684e-08
9.72594e-07
1.30725e-07
9.11081e-07
3.44737e-07
8.14029e-07
5.442e-07
6.85648e-07
7.20094e-07
5.31768e-07
8.63256e-07
3.59884e-07
9.64323e-07
1.7911e-07
1.01409e-06
1.00435e-06
-2.17911e-07
1.22249e-06
-4.37862e-07
1.23421e-06
-6.47e-07
1.17357e-06
-8.34244e-07
1.05057e-06
-9.9048e-07
8.76374e-07
-1.10861e-06
6.62356e-07
-1.1835e-06
4.19652e-07
-1.21198e-06
1.5923e-07
-1.19283e-06
-1.08004e-07
-1.12674e-06
-3.7125e-07
-1.01627e-06
-6.20023e-07
-8.65746e-07
-8.44471e-07
-6.8109e-07
-1.03572e-06
-4.6957e-07
-1.1862e-06
-2.39524e-07
-1.28995e-06
-2.55199e-11
-1.34288e-06
2.39473e-07
-1.34288e-06
4.69521e-07
-1.28996e-06
6.81043e-07
-1.1862e-06
8.65702e-07
-1.03573e-06
1.01623e-06
-8.44484e-07
1.1267e-06
-6.20039e-07
1.1928e-06
-3.71269e-07
1.21196e-06
-1.08027e-07
1.18348e-06
1.59204e-07
1.1086e-06
4.19622e-07
9.90481e-07
6.62319e-07
8.34251e-07
8.76325e-07
6.47013e-07
1.05049e-06
4.37879e-07
1.17346e-06
2.1792e-07
1.23405e-06
1.22227e-06
-2.65135e-07
1.48762e-06
-5.32745e-07
1.50182e-06
-7.87206e-07
1.42803e-06
-1.01504e-06
1.27841e-06
-1.20517e-06
1.0665e-06
-1.34894e-06
8.06129e-07
-1.44012e-06
5.10832e-07
-1.47484e-06
1.93948e-07
-1.45159e-06
-1.31254e-07
-1.37121e-06
-4.51631e-07
-1.23681e-06
-7.54421e-07
-1.05366e-06
-1.02763e-06
-8.28943e-07
-1.26043e-06
-5.71515e-07
-1.44362e-06
-2.91526e-07
-1.56994e-06
-2.70575e-11
-1.63438e-06
2.91473e-07
-1.63438e-06
5.71463e-07
-1.56995e-06
8.28893e-07
-1.44363e-06
1.05361e-06
-1.26045e-06
1.23677e-06
-1.02764e-06
1.37117e-06
-7.54442e-07
1.45156e-06
-4.51656e-07
1.47482e-06
-1.31284e-07
1.44011e-06
1.93914e-07
1.34893e-06
5.10794e-07
1.20517e-06
8.06084e-07
1.01505e-06
1.06644e-06
7.87216e-07
1.27833e-06
5.32755e-07
1.42792e-06
2.65146e-07
1.50166e-06
1.48742e-06
-3.22575e-07
1.8102e-06
-6.48164e-07
1.82741e-06
-9.57768e-07
1.73764e-06
-1.235e-06
1.55564e-06
-1.46637e-06
1.29788e-06
-1.64137e-06
9.81126e-07
-1.75239e-06
6.21853e-07
-1.79472e-06
2.36276e-07
-1.76651e-06
-1.59464e-07
-1.66876e-06
-5.49374e-07
-1.50526e-06
-9.17919e-07
-1.2824e-06
-1.25049e-06
-1.00893e-06
-1.5339e-06
-6.95624e-07
-1.75693e-06
-3.54837e-07
-1.91073e-06
-2.91055e-11
-1.98919e-06
3.54779e-07
-1.98919e-06
6.95568e-07
-1.91074e-06
1.00888e-06
-1.75694e-06
1.28235e-06
-1.53392e-06
1.50522e-06
-1.25051e-06
1.66872e-06
-9.17946e-07
1.76647e-06
-5.49406e-07
1.79469e-06
-1.59501e-07
1.75237e-06
2.36235e-07
1.64136e-06
6.21807e-07
1.46637e-06
9.81073e-07
1.235e-06
1.29781e-06
9.57776e-07
1.55555e-06
6.48177e-07
1.73752e-06
3.22581e-07
1.82725e-06
1.81e-06
-3.92446e-07
2.20265e-06
-7.88557e-07
2.22352e-06
-1.16524e-06
2.11432e-06
-1.50257e-06
1.89297e-06
-1.78414e-06
1.57945e-06
-1.99715e-06
1.19414e-06
-2.13235e-06
7.57051e-07
-2.18398e-06
2.87903e-07
-2.14977e-06
-1.93672e-07
-2.03093e-06
-6.68213e-07
-1.83204e-06
-1.11681e-06
-1.56087e-06
-1.52166e-06
-1.22806e-06
-1.86671e-06
-8.46728e-07
-2.13826e-06
-4.3192e-07
-2.32554e-06
-3.16679e-11
-2.42107e-06
4.31857e-07
-2.42108e-06
8.46667e-07
-2.32555e-06
1.228e-06
-2.13828e-06
1.56081e-06
-1.86673e-06
1.83199e-06
-1.52168e-06
2.03088e-06
-1.11684e-06
2.14973e-06
-6.68251e-07
2.18394e-06
-1.93715e-07
2.13233e-06
2.87855e-07
1.99714e-06
7.56996e-07
1.78413e-06
1.19408e-06
1.50257e-06
1.57937e-06
1.16524e-06
1.89288e-06
7.88562e-07
2.1142e-06
3.92455e-07
2.22336e-06
2.20245e-06
-4.77419e-07
2.68007e-06
-9.59305e-07
2.70541e-06
-1.41759e-06
2.5726e-06
-1.82804e-06
2.30342e-06
-2.1707e-06
1.92212e-06
-2.43001e-06
1.45344e-06
-2.59467e-06
9.21715e-07
-2.65767e-06
3.50903e-07
-2.61622e-06
-2.3512e-07
-2.47176e-06
-8.12673e-07
-2.22984e-06
-1.35873e-06
-1.89989e-06
-1.85161e-06
-1.49486e-06
-2.27173e-06
-1.03072e-06
-2.60241e-06
-5.25782e-07
-2.83047e-06
-3.47547e-11
-2.94682e-06
5.25713e-07
-2.94682e-06
1.03065e-06
-2.83048e-06
1.4948e-06
-2.60243e-06
1.89983e-06
-2.27176e-06
2.22978e-06
-1.85164e-06
2.47171e-06
-1.35877e-06
2.61617e-06
-8.12717e-07
2.65763e-06
-2.35171e-07
2.59464e-06
3.50846e-07
2.42998e-06
9.21652e-07
2.17069e-06
1.45337e-06
1.82803e-06
1.92203e-06
1.41759e-06
2.30332e-06
9.59313e-07
2.57247e-06
4.77422e-07
2.70525e-06
2.67988e-06
-5.80756e-07
3.26082e-06
-1.16695e-06
3.29161e-06
-1.72448e-06
3.13013e-06
-2.22389e-06
2.80283e-06
-2.64091e-06
2.33914e-06
-2.95659e-06
1.76912e-06
-3.15718e-06
1.1223e-06
-3.2341e-06
4.27821e-07
-3.18392e-06
-2.85297e-07
-3.00835e-06
-9.88239e-07
-2.71411e-06
-1.65297e-06
-2.31266e-06
-2.25306e-06
-1.81973e-06
-2.76466e-06
-1.25477e-06
-3.16738e-06
-6.40088e-07
-3.44515e-06
-3.83797e-11
-3.58687e-06
6.40012e-07
-3.58687e-06
1.25469e-06
-3.44516e-06
1.81966e-06
-3.1674e-06
2.31259e-06
-2.76468e-06
2.71405e-06
-2.2531e-06
3.00829e-06
-1.65301e-06
3.18387e-06
-9.8829e-07
3.23405e-06
-2.85355e-07
3.15714e-06
4.27756e-07
2.95656e-06
1.12223e-06
2.64089e-06
1.76904e-06
2.22388e-06
2.33905e-06
1.72448e-06
2.80272e-06
1.16695e-06
3.13e-06
5.80761e-07
3.29145e-06
3.26064e-06
-7.06396e-07
3.96722e-06
-1.41944e-06
4.00465e-06
-2.09767e-06
3.80836e-06
-2.7053e-06
3.41046e-06
-3.21283e-06
2.84666e-06
-3.59716e-06
2.15346e-06
-3.84156e-06
1.3667e-06
-3.93554e-06
5.21797e-07
-3.87486e-06
-3.45973e-07
-3.66155e-06
-1.20155e-06
-3.30372e-06
-2.0108e-06
-2.81528e-06
-2.7415e-06
-2.21537e-06
-3.36456e-06
-1.52765e-06
-3.8551e-06
-7.79313e-07
-4.19348e-06
-4.25623e-11
-4.36614e-06
7.79228e-07
-4.36614e-06
1.52756e-06
-4.1935e-06
2.21529e-06
-3.85512e-06
2.8152e-06
-3.36459e-06
3.30365e-06
-2.74154e-06
3.66148e-06
-2.01084e-06
3.8748e-06
-1.20161e-06
3.93549e-06
-3.46038e-07
3.84152e-06
5.21724e-07
3.59713e-06
1.36662e-06
3.2128e-06
2.15337e-06
2.70529e-06
2.84656e-06
2.09766e-06
3.41035e-06
1.41944e-06
3.80822e-06
7.06396e-07
4.00449e-06
3.96703e-06
-8.59142e-07
4.82636e-06
-1.72639e-06
4.8719e-06
-2.55141e-06
4.63337e-06
-3.29069e-06
4.14975e-06
-3.90836e-06
3.46434e-06
-4.37634e-06
2.62143e-06
-4.6742e-06
1.66456e-06
-4.7891e-06
6.36704e-07
-4.71583e-06
-4.19245e-07
-4.45674e-06
-1.46064e-06
-4.02164e-06
-2.4459e-06
-3.42739e-06
-3.33575e-06
-2.69726e-06
-4.09469e-06
-1.86005e-06
-4.69231e-06
-9.48919e-07
-5.10462e-06
-4.73264e-11
-5.31501e-06
9.48825e-07
-5.31502e-06
1.85996e-06
-5.10463e-06
2.69717e-06
-4.69233e-06
3.4273e-06
-4.09472e-06
4.02156e-06
-3.3358e-06
4.45667e-06
-2.44595e-06
4.71576e-06
-1.4607e-06
4.78904e-06
-4.19318e-07
4.67414e-06
6.36622e-07
4.3763e-06
1.66447e-06
3.90833e-06
2.62133e-06
3.29067e-06
3.46423e-06
2.55139e-06
4.14962e-06
1.72639e-06
4.63323e-06
8.59144e-07
4.87173e-06
4.82618e-06
-1.04479e-06
5.87115e-06
-2.0995e-06
5.92661e-06
-3.10298e-06
5.63685e-06
-4.0024e-06
5.04917e-06
-4.75414e-06
4.21609e-06
-5.32402e-06
3.19131e-06
-5.68714e-06
2.02767e-06
-5.82777e-06
7.77336e-07
-5.73943e-06
-5.07581e-07
-5.42487e-06
-1.7752e-06
-4.8959e-06
-2.97487e-06
-4.17295e-06
-4.0587e-06
-3.28432e-06
-4.98332e-06
-2.26505e-06
-5.71157e-06
-1.15558e-06
-6.21409e-06
-5.27025e-11
-6.47054e-06
1.15548e-06
-6.47054e-06
2.26495e-06
-6.2141e-06
3.28421e-06
-5.7116e-06
4.17285e-06
-4.98336e-06
4.89581e-06
-4.05875e-06
5.42478e-06
-2.97493e-06
5.73935e-06
-1.77527e-06
5.8277e-06
-5.07663e-07
5.68708e-06
7.77243e-07
5.32397e-06
2.02757e-06
4.7541e-06
3.1912e-06
4.00237e-06
4.21597e-06
3.10296e-06
5.04903e-06
2.09949e-06
5.6367e-06
1.04478e-06
5.92644e-06
5.87096e-06
-1.27038e-06
7.14153e-06
-2.5529e-06
7.20913e-06
-3.77333e-06
6.85728e-06
-4.86752e-06
6.14336e-06
-5.78245e-06
5.13103e-06
-6.47653e-06
3.88539e-06
-6.91935e-06
2.47049e-06
-7.09165e-06
9.49642e-07
-6.98537e-06
-6.13863e-07
-6.60365e-06
-2.15692e-06
-5.96068e-06
-3.61783e-06
-5.08122e-06
-4.93816e-06
-3.99964e-06
-6.0649e-06
-2.75862e-06
-6.95259e-06
-1.40747e-06
-7.56524e-06
-5.87275e-11
-7.87794e-06
1.40735e-06
-7.87795e-06
2.75851e-06
-7.56526e-06
3.99953e-06
-6.95262e-06
5.08111e-06
-6.06494e-06
5.96058e-06
-4.93822e-06
6.60355e-06
-3.6179e-06
6.98528e-06
-2.157e-06
7.09157e-06
-6.13954e-07
6.91928e-06
9.4954e-07
6.47647e-06
2.47038e-06
5.78241e-06
3.88526e-06
4.86748e-06
5.13089e-06
3.7733e-06
6.14321e-06
2.55288e-06
6.85712e-06
1.27038e-06
7.20895e-06
7.14134e-06
-1.54442e-06
8.68596e-06
-3.10372e-06
8.76843e-06
-4.58783e-06
8.3414e-06
-5.91889e-06
7.47442e-06
-7.03247e-06
6.24461e-06
-7.87793e-06
4.73085e-06
-8.41818e-06
3.01074e-06
-8.62957e-06
1.16104e-06
-8.50202e-06
-7.41416e-07
-8.03907e-06
-2.61987e-06
-7.25774e-06
-4.39915e-06
-6.18797e-06
-6.00793e-06
-4.8715e-06
-7.38137e-06
-3.36032e-06
-8.46377e-06
-1.71457e-06
-9.211e-06
-6.54449e-11
-9.59244e-06
1.71444e-06
-9.59245e-06
3.36019e-06
-9.21102e-06
4.87138e-06
-8.4638e-06
6.18785e-06
-7.38142e-06
7.25763e-06
-6.00799e-06
8.03896e-06
-4.39923e-06
8.50192e-06
-2.61996e-06
8.62948e-06
-7.41517e-07
8.4181e-06
1.16092e-06
7.87786e-06
3.01062e-06
7.03241e-06
4.73072e-06
5.91884e-06
6.24446e-06
4.58781e-06
7.47425e-06
3.10371e-06
8.34122e-06
1.54442e-06
8.76824e-06
8.68576e-06
-1.87722e-06
1.05632e-05
-3.77269e-06
1.06639e-05
-5.57719e-06
1.01459e-05
-7.19626e-06
9.09348e-06
-8.55165e-06
7.6e-06
-9.58171e-06
5.76092e-06
-1.02412e-05
3.67019e-06
-1.05009e-05
1.42079e-06
-1.03483e-05
-8.94021e-07
-9.78724e-06
-3.18093e-06
-8.83807e-06
-5.34832e-06
-7.53693e-06
-7.30907e-06
-5.93451e-06
-8.98379e-06
-4.0941e-06
-1.03042e-05
-2.08914e-06
-1.1216e-05
-7.29051e-11
-1.16815e-05
2.08899e-06
-1.16815e-05
4.09396e-06
-1.1216e-05
5.93437e-06
-1.03042e-05
7.5368e-06
-8.98385e-06
8.83794e-06
-7.30913e-06
9.78712e-06
-5.3484e-06
1.03482e-05
-3.18103e-06
1.05008e-05
-8.94132e-07
1.02411e-05
1.42066e-06
9.58163e-06
3.67005e-06
8.55158e-06
5.76077e-06
7.19621e-06
7.59983e-06
5.57716e-06
9.09331e-06
3.77266e-06
1.01457e-05
1.87722e-06
1.06637e-05
1.0563e-05
-2.28119e-06
1.28444e-05
-4.5848e-06
1.29675e-05
-6.7785e-06
1.23396e-05
-8.74771e-06
1.10627e-05
-1.03975e-05
9.24974e-06
-1.16527e-05
7.01617e-06
-1.24581e-05
4.47559e-06
-1.27779e-05
1.74054e-06
-1.2596e-05
-1.07589e-06
-1.19166e-05
-3.86028e-06
-1.0764e-05
-6.50095e-06
-9.18165e-06
-8.89142e-06
-7.23107e-06
-1.09344e-05
-4.98937e-06
-1.25459e-05
-2.54622e-06
-1.36591e-05
-8.11656e-11
-1.42276e-05
2.54606e-06
-1.42276e-05
4.98921e-06
-1.36591e-05
7.23091e-06
-1.25459e-05
9.1815e-06
-1.09344e-05
1.07639e-05
-8.89149e-06
1.19165e-05
-6.50104e-06
1.25959e-05
-3.86038e-06
1.27777e-05
-1.07601e-06
1.2458e-05
1.7404e-06
1.16526e-05
4.47544e-06
1.03974e-05
7.01601e-06
8.74765e-06
9.24956e-06
6.77846e-06
1.10625e-05
4.58478e-06
1.23394e-05
2.28118e-06
1.29673e-05
1.28442e-05
-2.77133e-06
1.56157e-05
-5.57025e-06
1.57664e-05
-8.23651e-06
1.50059e-05
-1.06313e-05
1.34575e-05
-1.26394e-05
1.12578e-05
-1.41695e-05
8.54624e-06
-1.51538e-05
5.45993e-06
-1.55483e-05
2.13499e-06
-1.53326e-05
-1.29158e-06
-1.45109e-05
-4.68196e-06
-1.31118e-05
-7.90001e-06
-1.11878e-05
-1.08155e-05
-8.81327e-06
-1.33089e-05
-6.08225e-06
-1.52769e-05
-3.10432e-06
-1.6637e-05
-9.0293e-11
-1.73319e-05
3.10414e-06
-1.73319e-05
6.08207e-06
-1.66371e-05