/*--------------------------------*- C++ -*----------------------------------*\
  =========                 |
  \\      /  F ield         | OpenFOAM: The Open Source CFD Toolbox
   \\    /   O peration     | Website:  https://openfoam.org
    \\  /    A nd           | Version:  9
     \\/     M anipulation  |
\*---------------------------------------------------------------------------*/
FoamFile
{
    format      ascii;
    class       volVectorField;
    location    "0.2";
    object      U;
}
// * * * * * * * * * * * * * * * * * * * * * * * * * * * * * * * * * * * * * //

dimensions      [0 1 -1 0 0 0 0];

internalField   nonuniform List<vector> 
4096
(
(-5.23454e-07 4.57527e-07 0)
(-1.49663e-06 4.63363e-07 0)
(-2.47401e-06 3.92355e-07 0)
(-3.3615e-06 4.08256e-07 0)
(-4.11678e-06 3.68628e-07 0)
(-4.82438e-06 2.97136e-07 0)
(-5.35126e-06 2.02276e-07 0)
(-5.65611e-06 9.1868e-08 0)
(-5.72369e-06 -2.47127e-08 0)
(-5.55039e-06 -1.40525e-07 0)
(-5.14461e-06 -2.4978e-07 0)
(-4.52449e-06 -3.48071e-07 0)
(-3.71664e-06 -4.31578e-07 0)
(-2.75468e-06 -4.97292e-07 0)
(-1.67792e-06 -5.42747e-07 0)
(-5.29882e-07 -5.66362e-07 0)
(6.43334e-07 -5.67266e-07 0)
(1.79481e-06 -5.45551e-07 0)
(2.87858e-06 -5.02092e-07 0)
(3.85148e-06 -4.38688e-07 0)
(4.67477e-06 -3.57837e-07 0)
(5.31566e-06 -2.62785e-07 0)
(5.74859e-06 -1.57271e-07 0)
(5.95626e-06 -4.55102e-08 0)
(5.9303e-06 6.80536e-08 0)
(5.67172e-06 1.78817e-07 0)
(5.1911e-06 2.82144e-07 0)
(4.50845e-06 3.73282e-07 0)
(3.65327e-06 4.47334e-07 0)
(2.66668e-06 4.99012e-07 0)
(1.60408e-06 5.22156e-07 0)
(5.21855e-07 5.1362e-07 0)
(-5.39278e-07 1.51383e-06 0)
(-1.76271e-06 1.41655e-06 0)
(-2.95964e-06 1.31549e-06 0)
(-3.90576e-06 1.29546e-06 0)
(-4.74494e-06 1.14348e-06 0)
(-5.46997e-06 9.0864e-07 0)
(-5.99361e-06 6.09542e-07 0)
(-6.28323e-06 2.67743e-07 0)
(-6.32328e-06 -9.23676e-08 0)
(-6.10969e-06 -4.50289e-07 0)
(-5.64993e-06 -7.88926e-07 0)
(-4.96226e-06 -1.09411e-06 0)
(-4.07428e-06 -1.35386e-06 0)
(-3.02155e-06 -1.5583e-06 0)
(-1.84606e-06 -1.69974e-06 0)
(-5.94619e-07 -1.77294e-06 0)
(6.83067e-07 -1.77527e-06 0)
(1.9363e-06 -1.70682e-06 0)
(3.11539e-06 -1.57044e-06 0)
(4.1736e-06 -1.37163e-06 0)
(5.06902e-06 -1.1183e-06 0)
(5.76614e-06 -8.20506e-07 0)
(6.23731e-06 -4.90039e-07 0)
(6.4638e-06 -1.40009e-07 0)
(6.43662e-06 2.15621e-07 0)
(6.15691e-06 5.62464e-07 0)
(5.63614e-06 8.85968e-07 0)
(4.89603e-06 1.17137e-06 0)
(3.96869e-06 1.40326e-06 0)
(2.89799e-06 1.56506e-06 0)
(1.74499e-06 1.63986e-06 0)
(5.68763e-07 1.61288e-06 0)
(-6.38409e-07 2.84936e-06 0)
(-2.01965e-06 2.66659e-06 0)
(-3.34708e-06 2.52775e-06 0)
(-4.47158e-06 2.3218e-06 0)
(-5.4313e-06 1.98192e-06 0)
(-6.20555e-06 1.53922e-06 0)
(-6.75058e-06 1.00888e-06 0)
(-7.03923e-06 4.18307e-07 0)
(-7.05717e-06 -1.99816e-07 0)
(-6.80101e-06 -8.14041e-07 0)
(-6.27879e-06 -1.39642e-06 0)
(-5.50982e-06 -1.92233e-06 0)
(-4.52361e-06 -2.37062e-06 0)
(-3.35856e-06 -2.72362e-06 0)
(-2.06032e-06 -2.9677e-06 0)
(-6.79921e-07 -3.09344e-06 0)
(7.28305e-07 -3.09619e-06 0)
(2.10888e-06 -2.97596e-06 0)
(3.40736e-06 -2.73767e-06 0)
(4.57254e-06 -2.39082e-06 0)
(5.55848e-06 -1.94918e-06 0)
(6.32625e-06 -1.43023e-06 0)
(6.84555e-06 -8.5449e-07 0)
(7.09586e-06 -2.44762e-07 0)
(7.06734e-06 3.74658e-07 0)
(6.76131e-06 9.7873e-07 0)
(6.19041e-06 1.54212e-06 0)
(5.37842e-06 2.03919e-06 0)
(4.3604e-06 2.44327e-06 0)
(3.18573e-06 2.72605e-06 0)
(1.91892e-06 2.85714e-06 0)
(6.25173e-07 2.81282e-06 0)
(-7.19564e-07 4.26527e-06 0)
(-2.2532e-06 4.13642e-06 0)
(-3.74301e-06 3.86836e-06 0)
(-5.05448e-06 3.46383e-06 0)
(-6.15842e-06 2.91323e-06 0)
(-7.03009e-06 2.23018e-06 0)
(-7.63555e-06 1.43693e-06 0)
(-7.9502e-06 5.67843e-07 0)
(-7.96052e-06 -3.35966e-07 0)
(-7.66442e-06 -1.23283e-06 0)
(-7.07179e-06 -2.0835e-06 0)
(-6.20444e-06 -2.85235e-06 0)
(-5.09534e-06 -3.50812e-06 0)
(-3.7873e-06 -4.02462e-06 0)
(-2.33121e-06 -4.38145e-06 0)
(-7.83993e-07 -4.56462e-06 0)
(7.93767e-07 -4.56705e-06 0)
(2.34014e-06 -4.38872e-06 0)
(3.79433e-06 -4.03677e-06 0)
(5.09917e-06 -3.52517e-06 0)
(6.20335e-06 -2.87413e-06 0)
(7.06341e-06 -2.10938e-06 0)
(7.64549e-06 -1.2611e-06 0)
(7.92672e-06 -3.62877e-07 0)
(7.8961e-06 5.4955e-07 0)
(7.55514e-06 1.43931e-06 0)
(6.91795e-06 2.26912e-06 0)
(6.0112e-06 3.00128e-06 0)
(4.87444e-06 3.59671e-06 0)
(3.56114e-06 4.01366e-06 0)
(2.14612e-06 4.20874e-06 0)
(7.00293e-07 4.14518e-06 0)
(-8.09682e-07 5.8101e-06 0)
(-2.52383e-06 5.72089e-06 0)
(-4.20359e-06 5.35103e-06 0)
(-5.71829e-06 4.76479e-06 0)
(-7.00298e-06 3.97944e-06 0)
(-8.01401e-06 3.02159e-06 0)
(-8.71476e-06 1.92605e-06 0)
(-9.07907e-06 7.3788e-07 0)
(-9.09307e-06 -4.91409e-07 0)
(-8.75575e-06 -1.70869e-06 0)
(-8.0794e-06 -2.86257e-06 0)
(-7.08957e-06 -3.90542e-06 0)
(-5.82422e-06 -4.79494e-06 0)
(-4.33231e-06 -5.49545e-06 0)
(-2.67191e-06 -5.97908e-06 0)
(-9.07912e-07 -6.22665e-06 0)
(8.90703e-07 -6.22839e-06 0)
(2.65342e-06 -5.98425e-06 0)
(4.31097e-06 -5.50387e-06 0)
(5.79831e-06 -4.80623e-06 0)
(7.057e-06 -3.91883e-06 0)
(8.03758e-06 -2.87667e-06 0)
(8.70151e-06 -1.72087e-06 0)
(9.02273e-06 -4.97122e-07 0)
(8.98874e-06 7.45882e-07 0)
(8.60126e-06 1.95795e-06 0)
(7.87642e-06 3.08833e-06 0)
(6.84456e-06 4.08569e-06 0)
(5.55027e-06 4.89693e-06 0)
(4.05651e-06 5.46577e-06 0)
(2.44465e-06 5.73251e-06 0)
(7.96782e-07 5.64878e-06 0)
(-9.29204e-07 7.56489e-06 0)
(-2.87897e-06 7.51671e-06 0)
(-4.79551e-06 7.05532e-06 0)
(-6.55306e-06 6.2736e-06 0)
(-8.05727e-06 5.22213e-06 0)
(-9.24515e-06 3.94767e-06 0)
(-1.0071e-05 2.50153e-06 0)
(-1.05038e-05 9.42683e-07 0)
(-1.05277e-05 -6.64109e-07 0)
(-1.01419e-05 -2.2521e-06 0)
(-9.36156e-06 -3.75596e-06 0)
(-8.21678e-06 -5.11455e-06 0)
(-6.75203e-06 -6.2731e-06 0)
(-5.02435e-06 -7.18525e-06 0)
(-3.1012e-06 -7.81462e-06 0)
(-1.05786e-06 -8.13619e-06 0)
(1.02566e-06 -8.13713e-06 0)
(3.06762e-06 -7.81738e-06 0)
(4.98785e-06 -7.18948e-06 0)
(6.71094e-06 -6.27814e-06 0)
(8.16921e-06 -5.11926e-06 0)
(9.30538e-06 -3.75849e-06 0)
(1.00748e-05 -2.24949e-06 0)
(1.04473e-05 -6.51893e-07 0)
(1.04085e-05 9.70771e-07 0)
(9.96021e-06 2.553e-06 0)
(9.12117e-06 4.02854e-06 0)
(7.92661e-06 5.33046e-06 0)
(6.4288e-06 6.38959e-06 0)
(4.69791e-06 7.13251e-06 0)
(2.83227e-06 7.48293e-06 0)
(9.24603e-07 7.37604e-06 0)
(-1.08333e-06 9.59329e-06 0)
(-3.34606e-06 9.59106e-06 0)
(-5.57294e-06 9.03329e-06 0)
(-7.63042e-06 8.03647e-06 0)
(-9.4024e-06 6.68208e-06 0)
(-1.08076e-05 5.04135e-06 0)
(-1.17885e-05 3.1859e-06 0)
(-1.23068e-05 1.19249e-06 0)
(-1.2343e-05 -8.57325e-07 0)
(-1.18963e-05 -2.88014e-06 0)
(-1.09845e-05 -4.79416e-06 0)
(-9.64349e-06 -6.5224e-06 0)
(-7.92574e-06 -7.99572e-06 0)
(-5.89852e-06 -9.15536e-06 0)
(-3.64127e-06 -9.95515e-06 0)
(-1.24253e-06 -1.03633e-05 0)
(1.20363e-06 -1.03635e-05 0)
(3.60115e-06 -9.95568e-06 0)
(5.85585e-06 -9.15576e-06 0)
(7.87916e-06 -7.9952e-06 0)
(9.59158e-06 -6.51967e-06 0)
(1.09258e-05 -4.78728e-06 0)
(1.18295e-05 -2.86629e-06 0)
(1.22671e-05 -8.32626e-07 0)
(1.22217e-05 1.23289e-06 0)
(1.16955e-05 3.24687e-06 0)
(1.07106e-05 5.12501e-06 0)
(9.3083e-06 6.78213e-06 0)
(7.54924e-06 8.13034e-06 0)
(5.51882e-06 9.07686e-06 0)
(3.32716e-06 9.52446e-06 0)
(1.08488e-06 9.39239e-06 0)
(-1.28341e-06 1.19752e-05 0)
(-3.95206e-06 1.20207e-05 0)
(-6.57499e-06 1.13545e-05 0)
(-9.0072e-06 1.01134e-05 0)
(-1.11093e-05 8.40903e-06 0)
(-1.27813e-05 6.34032e-06 0)
(-1.3952e-05 4.00318e-06 0)
(-1.45741e-05 1.49629e-06 0)
(-1.46236e-05 -1.07797e-06 0)
(-1.40991e-05 -3.6158e-06 0)
(-1.30215e-05 -6.01556e-06 0)
(-1.14336e-05 -8.18149e-06 0)
(-9.39782e-06 -1.00274e-05 0)
(-6.99411e-06 -1.148e-05 0)
(-4.31692e-06 -1.24815e-05 0)
(-1.47143e-06 -1.29922e-05 0)
(1.4306e-06 -1.29918e-05 0)
(4.27513e-06 -1.24802e-05 0)
(6.95035e-06 -1.14773e-05 0)
(9.35109e-06 -1.00225e-05 0)
(1.1383e-05 -8.17316e-06 0)
(1.29662e-05 -6.00199e-06 0)
(1.40385e-05 -3.59457e-06 0)
(1.45578e-05 -1.04601e-06 0)
(1.4504e-05 1.5424e-06 0)
(1.38797e-05 4.06617e-06 0)
(1.27111e-05 6.41966e-06 0)
(1.10471e-05 8.49617e-06 0)
(8.96088e-06 1.01857e-05 0)
(6.54984e-06 1.13723e-05 0)
(3.95013e-06 1.19362e-05 0)
(1.29e-06 1.17746e-05 0)
(-1.5341e-06 1.48078e-05 0)
(-4.71688e-06 1.49031e-05 0)
(-7.8416e-06 1.41081e-05 0)
(-1.0741e-05 1.25811e-05 0)
(-1.32508e-05 1.04654e-05 0)
(-1.52505e-05 7.89096e-06 0)
(-1.66534e-05 4.98217e-06 0)
(-1.74016e-05 1.86417e-06 0)
(-1.74652e-05 -1.33523e-06 0)
(-1.6842e-05 -4.48747e-06 0)
(-1.55571e-05 -7.46691e-06 0)
(-1.36612e-05 -1.01552e-05 0)
(-1.12291e-05 -1.24458e-05 0)
(-8.35654e-06 -1.4248e-05 0)
(-5.15652e-06 -1.54903e-05 0)
(-1.75488e-06 -1.61237e-05 0)
(1.71464e-06 -1.61228e-05 0)
(5.1156e-06 -1.54877e-05 0)
(8.31424e-06 -1.4243e-05 0)
(1.11848e-05 -1.24378e-05 0)
(1.36144e-05 -1.01431e-05 0)
(1.55074e-05 -7.44919e-06 0)
(1.67896e-05 -4.46219e-06 0)
(1.74106e-05 -1.30013e-06 0)
(1.73461e-05 1.91132e-06 0)
(1.65996e-05 5.04251e-06 0)
(1.52022e-05 7.96236e-06 0)
(1.32126e-05 1.05385e-05 0)
(1.07171e-05 1.26347e-05 0)
(7.83622e-06 1.4108e-05 0)
(4.72591e-06 1.48101e-05 0)
(1.54172e-06 1.46154e-05 0)
(-1.84755e-06 1.82056e-05 0)
(-5.67159e-06 1.83534e-05 0)
(-9.41937e-06 1.74014e-05 0)
(-1.28977e-05 1.55335e-05 0)
(-1.59106e-05 1.29282e-05 0)
(-1.83132e-05 9.75057e-06 0)
(-2.00004e-05 6.15847e-06 0)
(-2.09018e-05 2.30875e-06 0)
(-2.09808e-05 -1.64007e-06 0)
(-2.02343e-05 -5.52935e-06 0)
(-1.86919e-05 -9.20443e-06 0)
(-1.64147e-05 -1.25197e-05 0)
(-1.34923e-05 -1.53442e-05 0)
(-1.004e-05 -1.75661e-05 0)
(-6.19368e-06 -1.90977e-05 0)
(-2.10462e-06 -1.98784e-05 0)
(2.06627e-06 -1.98772e-05 0)
(6.15491e-06 -1.90941e-05 0)
(1.00004e-05 -1.75597e-05 0)
(1.34516e-05 -1.53343e-05 0)
(1.63726e-05 -1.25055e-05 0)
(1.86486e-05 -9.18462e-06 0)
(2.019e-05 -5.50254e-06 0)
(2.09365e-05 -1.60469e-06 0)
(2.0859e-05 2.35396e-06 0)
(1.99614e-05 6.21363e-06 0)
(1.8281e-05 9.81269e-06 0)
(1.58888e-05 1.2988e-05 0)
(1.28895e-05 1.5572e-05 0)
(9.42344e-06 1.73888e-05 0)
(5.68476e-06 1.82583e-05 0)
(1.85696e-06 1.80244e-05 0)
(-2.2324e-06 2.23028e-05 0)
(-6.84819e-06 2.25076e-05 0)
(-1.13673e-05 2.13629e-05 0)
(-1.55594e-05 1.90846e-05 0)
(-1.91908e-05 1.58914e-05 0)
(-2.20877e-05 1.19894e-05 0)
(-2.41231e-05 7.57596e-06 0)
(-2.52115e-05 2.8459e-06 0)
(-2.5308e-05 -2.00519e-06 0)
(-2.44086e-05 -6.7823e-06 0)
(-2.25487e-05 -1.12956e-05 0)
(-1.98017e-05 -1.53666e-05 0)
(-1.62761e-05 -1.88345e-05 0)
(-1.21105e-05 -2.15625e-05 0)
(-7.46915e-06 -2.34429e-05 0)
(-2.53463e-06 -2.44013e-05 0)
(2.49882e-06 -2.44e-05 0)
(7.43314e-06 -2.34387e-05 0)
(1.20741e-05 -2.15553e-05 0)
(1.62392e-05 -1.88237e-05 0)
(1.97645e-05 -1.53515e-05 0)
(2.25113e-05 -1.12753e-05 0)
(2.43716e-05 -6.75573e-06 0)
(2.52724e-05 -1.97141e-06 0)
(2.51787e-05 2.88751e-06 0)
(2.40952e-05 7.62484e-06 0)
(2.20672e-05 1.20422e-05 0)
(1.918e-05 1.59394e-05 0)
(1.5559e-05 1.91109e-05 0)
(1.13782e-05 2.13422e-05 0)
(6.86391e-06 2.24133e-05 0)
(2.24012e-06 2.21342e-05 0)
(-2.70587e-06 2.72602e-05 0)
(-8.29379e-06 2.75281e-05 0)
(-1.37585e-05 2.61468e-05 0)
(-1.88267e-05 2.33716e-05 0)
(-2.32169e-05 1.94688e-05 0)
(-2.67195e-05 1.46929e-05 0)
(-2.91809e-05 9.28839e-06 0)
(-3.04974e-05 3.49545e-06 0)
(-3.06145e-05 -2.44547e-06 0)
(-2.95268e-05 -8.29531e-06 0)
(-2.72771e-05 -1.38217e-05 0)
(-2.3954e-05 -1.88061e-05 0)
(-1.96885e-05 -2.3052e-05 0)
(-1.46485e-05 -2.63918e-05 0)
(-9.0326e-06 -2.86938e-05 0)
(-3.06181e-06 -2.98673e-05 0)
(3.02884e-06 -2.98659e-05 0)
(8.99961e-06 -2.86895e-05 0)
(1.46155e-05 -2.63843e-05 0)
(1.96555e-05 -2.30409e-05 0)
(2.39213e-05 -1.8791e-05 0)
(2.72451e-05 -1.38019e-05 0)
(2.94961e-05 -8.27014e-06 0)
(3.05861e-05 -2.41436e-06 0)
(3.04725e-05 3.53265e-06 0)
(2.91612e-05 9.33075e-06 0)
(2.67068e-05 1.47371e-05 0)
(2.32129e-05 1.95067e-05 0)
(1.88324e-05 2.33884e-05 0)
(1.37705e-05 2.61205e-05 0)
(8.30884e-06 2.74367e-05 0)
(2.71456e-06 2.71037e-05 0)
(-3.28326e-06 3.32708e-05 0)
(-1.00605e-05 3.36101e-05 0)
(-1.66846e-05 3.19385e-05 0)
(-2.28252e-05 2.85604e-05 0)
(-2.81436e-05 2.37985e-05 0)
(-3.23868e-05 1.79652e-05 0)
(-3.53689e-05 1.13613e-05 0)
(-3.69639e-05 4.28187e-06 0)
(-3.71056e-05 -2.97847e-06 0)
(-3.57872e-05 -1.01273e-05 0)
(-3.30603e-05 -1.68806e-05 0)
(-2.90323e-05 -2.29714e-05 0)
(-2.38618e-05 -2.81596e-05 0)
(-1.77525e-05 -3.22407e-05 0)
(-1.09448e-05 -3.50537e-05 0)
(-3.70674e-06 -3.64878e-05 0)
(3.67666e-06 -3.64864e-05 0)
(1.09148e-05 -3.50494e-05 0)
(1.77227e-05 -3.22333e-05 0)
(2.38326e-05 -2.81489e-05 0)
(2.90038e-05 -2.2957e-05 0)
(3.3033e-05 -1.6862e-05 0)
(3.57617e-05 -1.01042e-05 0)
(3.70829e-05 -2.95062e-06 0)
(3.6945e-05 4.31439e-06 0)
(3.53552e-05 1.13974e-05 0)
(3.23797e-05 1.80016e-05 0)
(2.81441e-05 2.38279e-05 0)
(2.28324e-05 2.85698e-05 0)
(1.66989e-05 3.19089e-05 0)
(1.00756e-05 3.35221e-05 0)
(3.28938e-06 3.31258e-05 0)
(-3.98939e-06 4.05682e-05 0)
(-1.2219e-05 4.09896e-05 0)
(-2.02575e-05 3.89627e-05 0)
(-2.77082e-05 3.48518e-05 0)
(-3.41605e-05 2.90477e-05 0)
(-3.93083e-05 2.19325e-05 0)
(-4.2926e-05 1.38745e-05 0)
(-4.48608e-05 5.23517e-06 0)
(-4.50323e-05 -3.62517e-06 0)
(-4.34319e-05 -1.23494e-05 0)
(-4.01222e-05 -2.05908e-05 0)
(-3.52333e-05 -2.80238e-05 0)
(-2.89578e-05 -3.43552e-05 0)
(-2.15426e-05 -3.93355e-05 0)
(-1.32798e-05 -4.27685e-05 0)
(-4.49451e-06 -4.45188e-05 0)
(4.46724e-06 -4.45174e-05 0)
(1.32527e-05 -4.27644e-05 0)
(2.1516e-05 -3.93286e-05 0)
(2.89319e-05 -3.43452e-05 0)
(3.52085e-05 -2.80106e-05 0)
(4.00989e-05 -2.05741e-05 0)
(4.34108e-05 -1.23289e-05 0)
(4.50141e-05 -3.60081e-06 0)
(4.48465e-05 5.26305e-06 0)
(4.29166e-05 1.39047e-05 0)
(3.93047e-05 2.1962e-05 0)
(3.41634e-05 2.90701e-05 0)
(2.77179e-05 3.48554e-05 0)
(2.027e-05 3.89308e-05 0)
(1.22322e-05 4.09058e-05 0)
(3.99671e-06 4.04334e-05 0)
(-4.84881e-06 4.94351e-05 0)
(-1.48495e-05 4.99525e-05 0)
(-2.46152e-05 4.74911e-05 0)
(-3.36641e-05 4.24891e-05 0)
(-4.14998e-05 3.54194e-05 0)
(-4.7751e-05 2.67479e-05 0)
(-5.2144e-05 1.69248e-05 0)
(-5.44934e-05 6.39195e-06 0)
(-5.4701e-05 -4.41082e-06 0)
(-5.27566e-05 -1.50478e-05 0)
(-4.87359e-05 -2.50961e-05 0)
(-4.2797e-05 -3.41588e-05 0)
(-3.51736e-05 -4.18784e-05 0)
(-2.61658e-05 -4.79507e-05 0)
(-1.61281e-05 -5.21366e-05 0)
(-5.45573e-06 -5.42709e-05 0)
(5.43106e-06 -5.42697e-05 0)
(1.61037e-05 -5.21328e-05 0)
(2.61419e-05 -4.79444e-05 0)
(3.51507e-05 -4.18694e-05 0)
(4.27754e-05 -3.4147e-05 0)
(4.8716e-05 -2.50813e-05 0)
(5.27389e-05 -1.50299e-05 0)
(5.46863e-05 -4.38997e-06 0)
(5.44824e-05 6.41542e-06 0)
(5.21376e-05 1.69497e-05 0)
(4.77499e-05 2.67715e-05 0)
(4.15043e-05 3.54359e-05 0)
(3.36728e-05 4.24882e-05 0)
(2.46288e-05 4.74582e-05 0)
(1.48623e-05 4.98724e-05 0)
(4.85329e-06 4.93099e-05 0)
(-5.89732e-06 6.02152e-05 0)
(-1.80562e-05 6.08457e-05 0)
(-2.99253e-05 5.78538e-05 0)
(-4.09225e-05 5.17678e-05 0)
(-5.04445e-05 4.316e-05 0)
(-5.80409e-05 3.25977e-05 0)
(-6.33791e-05 2.06302e-05 0)
(-6.62337e-05 7.79685e-06 0)
(-6.64855e-05 -5.3659e-06 0)
(-6.41218e-05 -1.83269e-05 0)
(-5.92347e-05 -3.05708e-05 0)
(-5.20161e-05 -4.16137e-05 0)
(-4.27499e-05 -5.10203e-05 0)
(-3.18008e-05 -5.84197e-05 0)
(-1.96e-05 -6.35204e-05 0)
(-6.62766e-06 -6.61215e-05 0)
(6.60533e-06 -6.61204e-05 0)
(1.95779e-05 -6.35171e-05 0)
(3.17794e-05 -5.84141e-05 0)
(4.27295e-05 -5.10124e-05 0)
(5.1997e-05 -4.16035e-05 0)
(5.92175e-05 -3.05581e-05 0)
(6.41069e-05 -1.83117e-05 0)
(6.64735e-05 -5.34845e-06 0)
(6.62253e-05 7.81619e-06 0)
(6.33748e-05 2.06503e-05 0)
(5.80413e-05 3.26161e-05 0)
(5.04497e-05 4.31715e-05 0)
(4.09326e-05 5.17633e-05 0)
(2.99362e-05 5.782e-05 0)
(1.80672e-05 6.07697e-05 0)
(5.90349e-06 6.00982e-05 0)
(-7.17275e-06 7.33256e-05 0)
(-2.19602e-05 7.40906e-05 0)
(-3.63933e-05 7.04515e-05 0)
(-4.97638e-05 6.30466e-05 0)
(-6.13403e-05 5.25688e-05 0)
(-7.05755e-05 3.97079e-05 0)
(-7.70654e-05 2.51339e-05 0)
(-8.05357e-05 9.50422e-06 0)
(-8.08415e-05 -6.52731e-06 0)
(-7.79672e-05 -2.23135e-05 0)
(-7.20247e-05 -3.72265e-05 0)
(-6.32471e-05 -5.0677e-05 0)
(-5.19797e-05 -6.21344e-05 0)
(-3.86659e-05 -7.11473e-05 0)
(-2.38299e-05 -7.73604e-05 0)
(-8.05573e-06 -8.05289e-05 0)
(8.03543e-06 -8.0528e-05 0)
(2.38099e-05 -7.73576e-05 0)
(3.86467e-05 -7.11426e-05 0)
(5.19614e-05 -6.21278e-05 0)
(6.32302e-05 -5.06684e-05 0)
(7.20096e-05 -3.72159e-05 0)
(7.79545e-05 -2.2301e-05 0)
(8.08315e-05 -6.5131e-06 0)
(8.0529e-05 9.51973e-06 0)
(7.70625e-05 2.51497e-05 0)
(7.05769e-05 3.97218e-05 0)
(6.1346e-05 5.2576e-05 0)
(4.9772e-05 6.30391e-05 0)
(3.64053e-05 7.04175e-05 0)
(2.1971e-05 7.40179e-05 0)
(7.17591e-06 7.32162e-05 0)
(-8.72701e-06 8.92735e-05 0)
(-2.6715e-05 9.01994e-05 0)
(-4.42684e-05 8.57713e-05 0)
(-6.05292e-05 7.67617e-05 0)
(-7.46078e-05 6.40095e-05 0)
(-8.5839e-05 4.83537e-05 0)
(-9.37316e-05 3.06102e-05 0)
(-9.7952e-05 1.15802e-05 0)
(-9.83239e-05 -7.93981e-06 0)
(-9.48281e-05 -2.71616e-05 0)
(-8.76005e-05 -4.53206e-05 0)
(-7.69247e-05 -6.1699e-05 0)
(-6.32204e-05 -7.56508e-05 0)
(-4.70269e-05 -8.6626e-05 0)
(-2.89816e-05 -9.4192e-05 0)
(-9.79527e-06 -9.80507e-05 0)
(9.77667e-06 -9.80499e-05 0)
(2.89634e-05 -9.41897e-05 0)
(4.70093e-05 -8.66221e-05 0)
(6.32038e-05 -7.56453e-05 0)
(7.69096e-05 -6.1692e-05 0)
(8.75872e-05 -4.53121e-05 0)
(9.4817e-05 -2.71517e-05 0)
(9.83154e-05 -7.92865e-06 0)
(9.79466e-05 1.15922e-05 0)
(9.37296e-05 3.06221e-05 0)
(8.58408e-05 4.83635e-05 0)
(7.46133e-05 6.40131e-05 0)
(6.05385e-05 7.67517e-05 0)
(4.42775e-05 8.5737e-05 0)
(2.6724e-05 9.01302e-05 0)
(8.73235e-06 8.91707e-05 0)
(-1.06174e-05 0.000108676 0)
(-3.25013e-05 0.000109795 0)
(-5.38551e-05 0.000104405 0)
(-7.36347e-05 9.3443e-05 0)
(-9.07595e-05 7.79245e-05 0)
(-0.000104421 5.88694e-05 0)
(-0.000114022 3.72711e-05 0)
(-0.000119156 1.41054e-05 0)
(-0.000119609 -9.65768e-06 0)
(-0.000115357 -3.30584e-05 0)
(-0.000106565 -5.51658e-05 0)
(-9.35781e-05 -7.51059e-05 0)
(-7.69069e-05 -9.20921e-05 0)
(-5.72073e-05 -0.000105454 0)
(-3.52547e-05 -0.000114666 0)
(-1.19137e-05 -0.000119365 0)
(1.18964e-05 -0.000119364 0)
(3.52378e-05 -0.000114665 0)
(5.7191e-05 -0.000105451 0)
(7.68917e-05 -9.20879e-05 0)
(9.35643e-05 -7.51006e-05 0)
(0.000106553 -5.51594e-05 0)
(0.000115347 -3.30509e-05 0)
(0.000119601 -9.64938e-06 0)
(0.000119151 1.41142e-05 0)
(0.00011402 3.72795e-05 0)
(0.000104423 5.88756e-05 0)
(9.0765e-05 7.79248e-05 0)
(7.36417e-05 9.34309e-05 0)
(5.38656e-05 0.000104371 0)
(3.25104e-05 0.000109728 0)
(1.06196e-05 0.000108579 0)
(-1.29197e-05 0.000132283 0)
(-3.95454e-05 0.000133634 0)
(-6.55231e-05 0.000127073 0)
(-8.95858e-05 0.000113736 0)
(-0.000110419 9.48519e-05 0)
(-0.000127039 7.16619e-05 0)
(-0.00013872 4.53746e-05 0)
(-0.000144967 1.71781e-05 0)
(-0.000145519 -1.17468e-05 0)
(-0.000140347 -4.02314e-05 0)
(-0.000129652 -6.71426e-05 0)
(-0.000113852 -9.14162e-05 0)
(-9.35692e-05 -0.000112094 0)
(-6.96013e-05 -0.000128361 0)
(-4.28919e-05 -0.000139576 0)
(-1.4493e-05 -0.000145296 0)
(1.44768e-05 -0.000145295 0)
(4.2876e-05 -0.000139575 0)
(6.95861e-05 -0.000128359 0)
(9.3555e-05 -0.000112091 0)
(0.000113839 -9.14124e-05 0)
(0.00012964 -6.71381e-05 0)
(0.000140338 -4.02263e-05 0)
(0.000145512 -1.17412e-05 0)
(0.000144963 1.71838e-05 0)
(0.000138719 4.53798e-05 0)
(0.000127041 7.16649e-05 0)
(0.000110424 9.48493e-05 0)
(8.9594e-05 0.000113722 0)
(6.55305e-05 0.000127039 0)
(3.95529e-05 0.000133571 0)
(1.29245e-05 0.000132192 0)
(-1.57199e-05 0.000161007 0)
(-4.81162e-05 0.000162639 0)
(-7.97231e-05 0.000154652 0)
(-0.000108999 0.000138424 0)
(-0.000134346 0.000115446 0)
(-0.000154568 8.72263e-05 0)
(-0.000168781 5.52347e-05 0)
(-0.000176383 2.09178e-05 0)
(-0.000177056 -1.4287e-05 0)
(-0.000170766 -4.89573e-05 0)
(-0.000157754 -8.17135e-05 0)
(-0.000138531 -0.00011126 0)
(-0.000113852 -0.000136431 0)
(-8.46891e-05 -0.000156233 0)
(-5.21893e-05 -0.000169885 0)
(-1.76332e-05 -0.000176848 0)
(1.76176e-05 -0.000176847 0)
(5.2174e-05 -0.000169884 0)
(8.46745e-05 -0.000156231 0)
(0.000113839 -0.000136429 0)
(0.000138519 -0.000111258 0)
(0.000157743 -8.17109e-05 0)
(0.000170757 -4.89544e-05 0)
(0.00017705 -1.42839e-05 0)
(0.000176379 2.09208e-05 0)
(0.000168779 5.52369e-05 0)
(0.000154569 8.72262e-05 0)
(0.00013435 0.000115441 0)
(0.000109004 0.000138408 0)
(7.97322e-05 0.000154618 0)
(4.81239e-05 0.000162578 0)
(1.57213e-05 0.000160921 0)
(-1.91289e-05 0.000195957 0)
(-5.85471e-05 0.000197929 0)
(-9.70025e-05 0.000188206 0)
(-0.000132622 0.000168461 0)
(-0.000163463 0.000140504 0)
(-0.000188069 0.000106165 0)
(-0.000205365 6.72338e-05 0)
(-0.000214618 2.54706e-05 0)
(-0.000215441 -1.73752e-05 0)
(-0.00020779 -5.95722e-05 0)
(-0.00019196 -9.94412e-05 0)
(-0.000168571 -0.000135405 0)
(-0.000138542 -0.000166043 0)
(-0.000103055 -0.000190147 0)
(-6.3507e-05 -0.000206765 0)
(-2.14559e-05 -0.000215242 0)
(2.14407e-05 -0.000215242 0)
(6.34921e-05 -0.000206765 0)
(0.000103041 -0.000190147 0)
(0.000138529 -0.000166043 0)
(0.000168559 -0.000135404 0)
(0.000191949 -9.94404e-05 0)
(0.000207781 -5.95714e-05 0)
(0.000215434 -1.73746e-05 0)
(0.000214614 2.54708e-05 0)
(0.000205363 6.72331e-05 0)
(0.00018807 0.000106162 0)
(0.000163467 0.000140496 0)
(0.000132629 0.000168444 0)
(9.70083e-05 0.000188172 0)
(5.85534e-05 0.00019787 0)
(1.91333e-05 0.000195876 0)
(-2.32752e-05 0.000238485 0)
(-7.12376e-05 0.000240868 0)
(-0.000118028 0.000229032 0)
(-0.000161368 0.000205009 0)
(-0.000198894 0.000170994 0)
(-0.000228837 0.000129211 0)
(-0.000249886 8.18372e-05 0)
(-0.00026115 3.10143e-05 0)
(-0.000262156 -2.11288e-05 0)
(-0.000252851 -7.24849e-05 0)
(-0.000233593 -0.00012101 0)
(-0.000205135 -0.000164783 0)
(-0.000168595 -0.000202077 0)
(-0.000125411 -0.000231417 0)
(-7.72839e-05 -0.000251646 0)
(-2.61095e-05 -0.000261964 0)
(2.60942e-05 -0.000261965 0)
(7.72689e-05 -0.000251646 0)
(0.000125397 -0.000231418 0)
(0.000168582 -0.000202077 0)
(0.000205123 -0.000164784 0)
(0.000233582 -0.000121011 0)
(0.000252842 -7.24862e-05 0)
(0.00026215 -2.11305e-05 0)
(0.000261145 3.1012e-05 0)
(0.000249884 8.18339e-05 0)
(0.000228837 0.000129205 0)
(0.000198898 0.000170984 0)
(0.000161372 0.00020499 0)
(0.000118036 0.000228998 0)
(7.12442e-05 0.000240811 0)
(2.32759e-05 0.000238408 0)
(-2.83216e-05 0.000290232 0)
(-8.66796e-05 0.000293113 0)
(-0.00014361 0.000278707 0)
(-0.000196344 0.00024948 0)
(-0.000242007 0.000208096 0)
(-0.000278444 0.000157257 0)
(-0.000304063 9.96122e-05 0)
(-0.000317777 3.77663e-05 0)
(-0.00031901 -2.569e-05 0)
(-0.000307694 -8.8192e-05 0)
(-0.000284266 -0.000147252 0)
(-0.00024964 -0.000200531 0)
(-0.000205177 -0.000245925 0)
(-0.000152625 -0.00028164 0)
(-9.40543e-05 -0.000306265 0)
(-3.17744e-05 -0.000318825 0)
(3.17588e-05 -0.000318826 0)
(9.4039e-05 -0.000306265 0)
(0.00015261 -0.000281641 0)
(0.000205163 -0.000245927 0)
(0.000249628 -0.000200533 0)
(0.000284255 -0.000147254 0)
(0.000307685 -8.81952e-05 0)
(0.000319003 -2.56939e-05 0)
(0.000317772 3.77615e-05 0)
(0.00030406 9.96063e-05 0)
(0.000278444 0.000157249 0)
(0.000242009 0.000208083 0)
(0.00019635 0.000249459 0)
(0.000143614 0.000278672 0)
(8.66847e-05 0.000293058 0)
(2.83257e-05 0.000290158 0)
(-3.44594e-05 0.000353195 0)
(-0.000105465 0.000356681 0)
(-0.000174734 0.000339148 0)
(-0.000238899 0.000303592 0)
(-0.000294463 0.000253244 0)
(-0.000338806 0.00019139 0)
(-0.000369988 0.000121249 0)
(-0.000386687 4.59919e-05 0)
(-0.0003882 -3.12306e-05 0)
(-0.000374442 -0.000107297 0)
(-0.000345942 -0.000179179 0)
(-0.000303812 -0.000244029 0)
(-0.000249705 -0.000299285 0)
(-0.000185751 -0.00034276 0)
(-0.000114469 -0.000372737 0)
(-3.86705e-05 -0.000388028 0)
(3.86542e-05 -0.000388028 0)
(0.000114453 -0.000372738 0)
(0.000185736 -0.000342762 0)
(0.000249691 -0.000299287 0)
(0.000303798 -0.000244033 0)
(0.00034593 -0.000179183 0)
(0.000374432 -0.000107302 0)
(0.000388192 -3.12367e-05 0)
(0.000386682 4.59848e-05 0)
(0.000369985 0.000121241 0)
(0.000338805 0.000191379 0)
(0.000294465 0.000253229 0)
(0.000238901 0.000303569 0)
(0.000174741 0.000339113 0)
(0.00010547 0.000356627 0)
(3.44594e-05 0.000353125 0)
(-4.19279e-05 0.000429804 0)
(-0.000128319 0.000434025 0)
(-0.000212598 0.000412688 0)
(-0.000290671 0.000369435 0)
(-0.000358284 0.000308185 0)
(-0.00041225 0.000232932 0)
(-0.000450207 0.000147591 0)
(-0.000470544 5.60155e-05 0)
(-0.000472403 -3.79583e-05 0)
(-0.000455678 -0.000130533 0)
(-0.00042101 -0.000218021 0)
(-0.00036975 -0.000296958 0)
(-0.000303909 -0.00036422 0)
(-0.000226077 -0.000417145 0)
(-0.000139322 -0.000453638 0)
(-4.70658e-05 -0.000472254 0)
(4.70486e-05 -0.000472254 0)
(0.000139305 -0.000453639 0)
(0.000226061 -0.000417147 0)
(0.000303893 -0.000364223 0)
(0.000369736 -0.000296963 0)
(0.000420997 -0.000218027 0)
(0.000455667 -0.00013054 0)
(0.000472394 -3.79666e-05 0)
(0.000470537 5.6006e-05 0)
(0.000450202 0.00014758 0)
(0.000412248 0.000232919 0)
(0.000358285 0.000308168 0)
(0.000290675 0.000369411 0)
(0.000212601 0.000412652 0)
(0.000128323 0.000433972 0)
(4.19317e-05 0.000429736 0)
(-5.1011e-05 0.000523012 0)
(-0.000156118 0.000528127 0)
(-0.000258659 0.000502166 0)
(-0.000353653 0.000449552 0)
(-0.000435928 0.000375045 0)
(-0.000501607 0.000283495 0)
(-0.000547814 0.000179662 0)
(-0.000572586 6.8234e-05 0)
(-0.000574875 -4.61238e-05 0)
(-0.000554549 -0.00015879 0)
(-0.000512381 -0.000265276 0)
(-0.000450014 -0.000361362 0)
(-0.000369893 -0.000443242 0)
(-0.00027517 -0.000507674 0)
(-0.000169578 -0.000552104 0)
(-5.72869e-05 -0.000574769 0)
(5.72683e-05 -0.00057477 0)
(0.00016956 -0.000552106 0)
(0.000275152 -0.000507678 0)
(0.000369876 -0.000443247 0)
(0.000449998 -0.000361368 0)
(0.000512367 -0.000265284 0)
(0.000554536 -0.000158799 0)
(0.000574865 -4.61343e-05 0)
(0.000572578 6.82221e-05 0)
(0.000547808 0.000179648 0)
(0.000501604 0.000283479 0)
(0.000435928 0.000375025 0)
(0.000353653 0.000449526 0)
(0.000258664 0.00050213 0)
(0.000156123 0.000528075 0)
(5.10104e-05 0.000522947 0)
(-6.20608e-05 0.000636412 0)
(-0.000189933 0.000642614 0)
(-0.000314685 0.000611032 0)
(-0.000430266 0.000547038 0)
(-0.000530384 0.00045641 0)
(-0.00061032 0.00034504 0)
(-0.000666575 0.000218715 0)
(-0.000696756 8.31335e-05 0)
(-0.000699581 -5.60287e-05 0)
(-0.000674883 -0.000193148 0)
(-0.000623599 -0.000322761 0)
(-0.000547721 -0.000439727 0)
(-0.000450223 -0.00053941 0)
(-0.000334939 -0.000617857 0)
(-0.000206417 -0.000671954 0)
(-6.97316e-05 -0.000699552 0)
(6.97114e-05 -0.000699552 0)
(0.000206397 -0.000671957 0)
(0.00033492 -0.000617861 0)
(0.000450205 -0.000539416 0)
(0.000547704 -0.000439735 0)
(0.000623583 -0.00032277 0)
(0.000674869 -0.000193159 0)
(0.000699569 -5.60414e-05 0)
(0.000696746 8.31191e-05 0)
(0.000666568 0.000218698 0)
(0.000610316 0.000345022 0)
(0.000530382 0.000456388 0)
(0.000430268 0.00054701 0)
(0.000314686 0.000610994 0)
(0.000189936 0.000642563 0)
(6.20644e-05 0.000636349 0)
(-7.54978e-05 0.00077437 0)
(-0.000231057 0.000781896 0)
(-0.000382829 0.000743483 0)
(-0.000523453 0.000665656 0)
(-0.000645282 0.000555428 0)
(-0.000742575 0.000419958 0)
(-0.000811069 0.000266275 0)
(-0.000847849 0.00010131 0)
(-0.000851345 -6.80354e-05 0)
(-0.000821345 -0.000234918 0)
(-0.00075898 -0.000392687 0)
(-0.000666669 -0.000535079 0)
(-0.000548025 -0.000656445 0)
(-0.000407714 -0.000751965 0)
(-0.000251273 -0.000817839 0)
(-8.48854e-05 -0.000851447 0)
(8.48632e-05 -0.000851448 0)
(0.000251251 -0.000817843 0)
(0.000407693 -0.00075197 0)
(0.000548005 -0.000656452 0)
(0.00066665 -0.000535088 0)
(0.000758963 -0.000392698 0)
(0.00082133 -0.000234931 0)
(0.000851331 -6.80503e-05 0)
(0.000847837 0.000101293 0)
(0.00081106 0.000266256 0)
(0.000742569 0.000419936 0)
(0.000645279 0.000555404 0)
(0.000523451 0.000665626 0)
(0.000382832 0.000743445 0)
(0.00023106 0.000781845 0)
(7.54966e-05 0.000774309 0)
(-9.18398e-05 0.000942196 0)
(-0.000281069 0.000951335 0)
(-0.000465698 0.000904623 0)
(-0.000636787 0.000809985 0)
(-0.000785035 0.000675932 0)
(-0.000903458 0.000511159 0)
(-0.000986865 0.000324205 0)
(-0.0010317 0.000123496 0)
(-0.00103604 -8.25778e-05 0)
(-0.000999613 -0.000285689 0)
(-0.000923785 -0.000477738 0)
(-0.000811487 -0.000651097 0)
(-0.000667111 -0.000798877 0)
(-0.000496335 -0.000915198 0)
(-0.000305899 -0.000995426 0)
(-0.00010334 -0.00103636 0)
(0.000103316 -0.00103636 0)
(0.000305875 -0.00099543 0)
(0.000496311 -0.000915204 0)
(0.000667089 -0.000798885 0)
(0.000811466 -0.000651107 0)
(0.000923765 -0.000477751 0)
(0.000999595 -0.000285704 0)
(0.00103602 -8.25951e-05 0)
(0.00103169 0.000123476 0)
(0.000986854 0.000324184 0)
(0.00090345 0.000511134 0)
(0.000785031 0.000675905 0)
(0.000636787 0.000809953 0)
(0.000465697 0.000904583 0)
(0.00028107 0.000951284 0)
(9.18431e-05 0.000942136 0)
(-0.000111708 0.00114634 0)
(-0.000341875 0.00115745 0)
(-0.000566465 0.00110066 0)
(-0.000774609 0.000985594 0)
(-0.000955004 0.000822586 0)
(-0.00109915 0.000622191 0)
(-0.00120073 0.000394781 0)
(-0.0012554 0.000150591 0)
(-0.00126081 -0.000100174 0)
(-0.0012166 -0.000347384 0)
(-0.00112442 -0.000581177 0)
(-0.000987818 -0.000792256 0)
(-0.00081213 -0.00097222 0)
(-0.000604264 -0.00111389 0)
(-0.000372433 -0.00121162 0)
(-0.000125819 -0.00126148 0)
(0.000125791 -0.00126148 0)
(0.000372406 -0.00121162 0)
(0.000604238 -0.0011139 0)
(0.000812105 -0.00097223 0)
(0.000987794 -0.000792268 0)
(0.0011244 -0.000581192 0)
(0.00121658 -0.000347401 0)
(0.00126079 -0.000100194 0)
(0.00125539 0.000150569 0)
(0.00120072 0.000394756 0)
(0.00109914 0.000622163 0)
(0.000954998 0.000822556 0)
(0.000774604 0.000985558 0)
(0.000566466 0.00110061 0)
(0.000341877 0.00115739 0)
(0.000111706 0.00114628 0)
(-0.000135863 0.00139464 0)
(-0.000415799 0.00140814 0)
(-0.000688974 0.00133912 0)
(-0.000942186 0.00119925 0)
(-0.0011617 0.00100107 0)
(-0.00133716 0.000757378 0)
(-0.0014609 0.000480781 0)
(-0.00152759 0.000183707 0)
(-0.00153435 -0.000121439 0)
(-0.00148073 -0.000422333 0)
(-0.00136869 -0.000706963 0)
(-0.00120254 -0.000963998 0)
(-0.000988753 -0.00118319 0)
(-0.000735733 -0.00135577 0)
(-0.000453483 -0.00147483 0)
(-0.000153203 -0.00153558 0)
(0.000153173 -0.00153558 0)
(0.000453454 -0.00147483 0)
(0.000735704 -0.00135578 0)
(0.000988725 -0.0011832 0)
(0.00120252 -0.000964011 0)
(0.00136867 -0.00070698 0)
(0.00148071 -0.000422352 0)
(0.00153433 -0.000121461 0)
(0.00152757 0.000183682 0)
(0.00146088 0.000480753 0)
(0.00133715 0.000757348 0)
(0.00116169 0.00100103 0)
(0.000942182 0.00119922 0)