/*--------------------------------*- C++ -*----------------------------------*\
  =========                 |
  \\      /  F ield         | OpenFOAM: The Open Source CFD Toolbox
   \\    /   O peration     | Website:  https://openfoam.org
    \\  /    A nd           | Version:  9
     \\/     M anipulation  |
\*---------------------------------------------------------------------------*/
FoamFile
{
    format      ascii;
    class       surfaceScalarField;
    location    "0.52";
    object      alphaPhi0.phase1;
}
// * * * * * * * * * * * * * * * * * * * * * * * * * * * * * * * * * * * * * //

dimensions      [0 3 -1 0 0 0 0];

internalField   nonuniform List<scalar> 
19800
(
1.0888648e-91
-4.2011394e-89
1.2004079e-89
-5.5192205e-89
5.6437647e-88
-2.8475967e-87
1.9153128e-87
-9.5826776e-86
1.803585e-87
-1.5282358e-85
1.0110277e-87
-7.4282278e-86
7.5722765e-88
-3.2271729e-86
5.1909558e-88
-1.9126137e-86
3.2472407e-88
-1.9158274e-86
2.4927933e-86
-2.0573813e-87
1.1048467e-83
-5.7908491e-85
3.2473558e-81
-1.605461e-82
1.7502722e-79
-9.2887217e-81
2.1555519e-78
-1.1628227e-79
1.1159213e-77
-5.9992544e-79
3.8958343e-77
-2.0068749e-78
1.0625297e-76
-5.5242408e-78
2.4717872e-76
-1.5564967e-77
3.9920708e-75
-3.6322502e-75
3.775011e-73
-3.6474007e-73
3.4534533e-71
-3.2070325e-71
2.8838835e-69
-2.5259086e-69
2.2200757e-67
-1.7816845e-67
1.5967588e-65
-1.1279356e-65
1.1238425e-63
-6.6692116e-64
7.9405041e-62
-3.7189965e-62
6.5438205e-60
-2.4707348e-60
6.4541626e-58
-1.89301e-58
5.2351512e-56
-2.8361368e-57
5.6339231e-54
-1.0994537e-54
1.4232758e-50
-1.3883531e-50
1.0218601e-48
-6.1877656e-49
1.2931006e-46
-2.8929156e-48
1.9889307e-46
-3.2944527e-48
5.6342311e-46
-7.6506554e-48
3.1880244e-46
-2.8528804e-48
3.9505081e-47
7.9782129e-49
3.493086e-48
2.1065895e-49
3.049685e-48
1.0886389e-49
2.8473323e-48
1.5446878e-49
1.8522253e-47
8.0892592e-49
2.698002e-46
1.4082224e-47
3.2205921e-45
2.1344722e-46
3.1890069e-44
2.6278452e-45
2.5114276e-43
2.5285059e-44
1.547363e-42
1.871558e-43
7.6149103e-42
1.0875536e-42
3.0136412e-41
5.0219541e-42
9.3162819e-41
1.7801482e-41
1.9026637e-40
5.0771547e-41
1.8290203e-40
5.8714978e-41
8.9693483e-41
3.8291922e-41
1.9442533e-41
1.2624606e-41
3.080029e-42
2.4658454e-42
4.5082061e-43
3.6362144e-43
5.1751722e-44
4.002036e-44
3.71257e-45
2.7640581e-45
1.5414274e-45
8.4765953e-47
2.3677879e-46
1.6058114e-48
8.1656169e-43
-8.1684051e-43
4.8259283e-41
-6.4170281e-41
3.1854792e-40
-2.8408316e-41
6.0298404e-40
-4.4725279e-41
8.4943835e-41
-1.5510146e-41
7.6924425e-42
-2.013066e-42
4.4122483e-43
-8.2852533e-44
1.6263405e-44
2.365171e-45
1.2298402e-46
1.9953358e-46
2.8260255e-49
1.7949559e-48
1.5071286e-51
1.4517027e-50
8.4693995e-54
1.1314694e-52
5.6453634e-56
8.3913457e-55
1.3873878e-57
7.9760773e-57
6.2616462e-59
3.5652534e-58
3.0605759e-61
6.5600527e-60
7.9744837e-64
4.4953771e-62
3.0062616e-66
2.7646003e-64
8.8854216e-69
1.6876992e-66
4.3340527e-74
9.8186278e-69
-2.5936057e-73
5.3705407e-71
-2.7218432e-75
2.9003109e-73
-1.2269934e-76
1.5197688e-75
-5.5491664e-77
5.4877329e-77
-2.3728146e-77
1.9816146e-77
-9.1232968e-78
6.3810488e-78
-2.9636126e-78
1.8764217e-78
-7.201792e-79
4.5562406e-79
-8.2482608e-80
7.8602256e-80
-2.2515521e-81
5.9934595e-81
-9.8657963e-84
1.0026378e-82
-1.5318557e-86
1.9776522e-85
-3.5039407e-89
-1.710324e-89
-7.3573828e-92
-9.4865032e-91
-5.9106113e-92
-8.0924446e-90
-6.7582835e-92
-1.5282283e-89
-2.6351593e-92
-7.4973034e-90
-2.3216877e-93
-6.6057671e-91
-1.0810748e-94
-4.0801087e-92
-5.24618e-96
-4.5081375e-93
-4.3982965e-93
2.7609176e-89
-1.0938517e-88
1.1686498e-86
-1.3945019e-86
5.3134577e-85
-6.1712515e-85
1.0745583e-84
-1.292172e-84
7.4357163e-85
-9.2673044e-85
4.714714e-85
-5.5357471e-85
2.5693232e-85
-2.9671107e-85
1.0128404e-85
-1.1493708e-85
6.1829239e-86
-4.0123795e-86
2.6043793e-84
-2.5669531e-84
3.3100396e-82
-3.6478521e-82
1.5054822e-80
-3.1503594e-81
3.3153914e-79
-5.2394089e-80
3.6747638e-78
-5.3526927e-79
1.9527114e-77
-3.008417e-78
6.3851617e-77
-9.2523537e-78
5.0757793e-76
-4.963841e-76
4.559063e-74
-4.4850291e-74
4.8031482e-72
-4.7435549e-72
4.7851211e-70
-4.713542e-70
4.4044e-68
-4.3226892e-68
3.6909223e-66
-3.6049881e-66
2.8471115e-64
-2.7648707e-64
2.0488385e-62
-1.9756852e-62
1.4456707e-60
-1.3835571e-60
1.0267446e-58
-9.7173402e-59
8.6037544e-57
-8.0442658e-57
8.7066726e-55
-8.0705175e-55
6.7803759e-53
-6.23745e-53
8.3159891e-51
-7.7526672e-51
2.3981822e-47
-2.355254e-47
1.6926522e-45
-1.6100028e-45
6.9532186e-45
-6.7914002e-46
1.0050372e-45
-1.3442415e-46
8.216019e-46
-2.5509205e-47
2.4587616e-43
-3.856382e-45
1.0426927e-43
2.9911004e-45
2.5479012e-45
1.0647383e-45
1.9521224e-46
3.4014294e-47
1.8917612e-46
2.7696869e-47
4.039933e-45
4.3885698e-46
4.9693267e-44
7.0166931e-45
5.2151095e-43
9.326597e-44
4.5533541e-42
1.011846e-42
3.0267132e-41
8.3015138e-42
1.3861603e-40
4.7048155e-41
4.2201702e-40
1.7677899e-40
9.2314623e-40
4.6036375e-40
1.727917e-39
9.7070977e-40
2.5928141e-39
1.8558842e-39
2.4317246e-39
2.0139321e-39
1.5376432e-39
1.503816e-39
6.2374487e-40
7.4102552e-40
2.1830054e-40
2.736871e-40
5.9898678e-41
7.576066e-41
9.7097637e-42
1.2740414e-41
7.9276318e-43
1.0128078e-42
1.6930438e-43
2.4532106e-44
7.0561431e-42
-6.7896497e-42
4.411894e-39
-4.4221e-39
1.347913e-37
-1.2937423e-37
3.5617435e-37
-2.0390821e-37
1.2880545e-37
-4.9172774e-38
5.6627375e-38
-1.7869767e-38
5.0428138e-39
-2.1248743e-39
4.527367e-40
-6.4886748e-41
2.8657973e-41
1.3384677e-41
2.869117e-43
1.1400915e-42
5.3851942e-46
1.0829084e-44
2.8052806e-48
8.4188382e-47
1.5790994e-50
6.5642123e-49
9.4058785e-53
4.7756176e-51
1.5006929e-54
3.7784768e-53
6.3196266e-56
1.1168387e-54
7.4047404e-58
3.250773e-56
1.3426195e-60
2.3925987e-58
3.3832288e-63
1.1236618e-60
9.2666295e-66
5.8862735e-63
-3.4697266e-69
3.2058583e-65
-3.0305224e-70
1.6813979e-67
-2.8822888e-72
8.6819651e-70
-2.002577e-74
4.1311393e-72
-2.834404e-76
1.8496573e-74
-3.9551026e-77
1.7396076e-76
-1.1953682e-77
1.5354057e-77
-3.5233162e-78
3.3217287e-78
-7.8083764e-79
6.6605209e-79
-8.4128145e-80
9.2066939e-80
-2.3984732e-81
5.9373872e-81
-1.4127292e-83
8.4764886e-83
-4.3939027e-86
8.1301924e-86
-1.0544245e-88
-3.6841316e-87
-6.9463383e-89
-2.7400709e-89
-6.5509663e-89
-3.1141601e-89
-8.6115487e-89
-4.2911303e-89
-5.6216158e-89
-6.7714477e-89
-4.4580164e-90
-5.8054517e-89
-1.9298229e-91
-4.8601404e-90
-3.1893977e-93
-2.3186895e-91
-1.202889e-92
1.6944712e-86
-6.306823e-86
7.2299262e-84
-9.4079933e-84
3.3161437e-82
-4.1486028e-82
6.765125e-82
-1.061919e-81
4.7384362e-82
-7.6668266e-82
3.0455603e-82
-4.6348637e-82
1.6820485e-82
-2.5162916e-82
6.1037302e-83
-9.8571652e-83
4.1182869e-83
-3.1779879e-83
1.8049662e-81
-6.5422732e-82
2.3009933e-79
-7.4672912e-80
9.0180718e-78
-8.8528599e-78
1.2618597e-76
-1.1899706e-76
1.241811e-75
-1.1244055e-75
7.2651618e-75
-5.9615646e-75
2.4343955e-74
-7.0605064e-75
3.245077e-73
-2.9448062e-73
3.6115604e-71
-3.5701382e-71
3.8870046e-69
-3.8355287e-69
3.9304632e-67
-3.8641095e-67
3.6673381e-65
-3.588318e-65
3.1117457e-63
-3.0257627e-63
2.4320528e-61
-2.3475458e-61
1.7730663e-59
-1.6961707e-59
1.268884e-57
-1.2022447e-57
9.1671178e-56
-8.5624596e-56
7.8529444e-54
-7.2186669e-54
8.1962942e-52
-7.4566841e-52
6.657404e-50
-6.0217364e-50
8.6628068e-48
-7.9676859e-48
2.7190704e-44
-2.6725328e-44
2.086988e-42
-1.9702742e-42
6.592767e-42
-8.4429623e-43
7.7106884e-43
-1.6065933e-43
5.2901738e-43
-3.492164e-44
2.815584e-40
-7.1704717e-42
1.3137723e-40
3.7045265e-42
3.7586687e-42
1.6741623e-42
6.6016571e-44
6.3454667e-44
5.4980768e-44
9.9454183e-45
7.368622e-43
1.0130885e-43
8.6733283e-42
1.5257973e-42
8.629356e-41
1.9284032e-41
7.2038393e-40
2.0036715e-40
4.662352e-39
1.603555e-39
2.1238762e-38
9.067031e-39
6.505263e-38
3.4524436e-38
1.4195119e-37
9.1248352e-38
2.6084408e-37
1.9214369e-37
3.9395014e-37
3.7605437e-37
3.6462061e-37
4.1082721e-37
2.2561194e-37
3.0222411e-37
9.021692e-38
1.4577473e-37
3.1407454e-38
5.2707199e-38
8.5196761e-39
1.4071132e-38
1.3850712e-39
2.2209124e-39
1.1915888e-40
1.5313411e-40
2.9346418e-41
8.2380705e-43
4.0638244e-38
-4.0964582e-38
9.2323795e-36
-9.3053911e-36
2.0228369e-34
-1.9131989e-34
4.9407442e-34
-2.5857299e-34
1.5086875e-34
-9.5605096e-35
4.6289984e-35
-2.4722484e-35
3.4905339e-36
-2.3459245e-36
3.1488831e-37
-6.2612949e-38
2.1719964e-38
1.4143309e-38
2.7576791e-40
1.3430909e-39
5.2720118e-43
1.3840724e-41
2.7616362e-45
1.0864259e-43
1.6048674e-47
8.7590584e-46
9.8081848e-50
6.5236239e-48
1.4082447e-51
5.3269189e-50
4.5753877e-53
1.334861e-51
4.3596448e-55
3.0472342e-53
1.0765285e-57
2.3919125e-55
2.9443194e-60
1.258697e-57
7.2190002e-63
6.8076701e-60
-1.0514101e-65
3.7026318e-62
-3.1282087e-67
1.9348909e-64
-2.7746449e-69
9.8427686e-67
-1.8296349e-71
4.5752661e-69
-1.8242138e-73
1.9744616e-71
-1.2636225e-74
1.4414498e-73
-2.5562581e-75
8.0355097e-75
-4.9358078e-76
1.2612162e-75
-6.1745712e-77
1.7186477e-76
-5.1591225e-78
1.420434e-77
-3.2466357e-79
7.0164296e-79
-9.5709695e-81
1.7514221e-80
-8.424931e-83
-2.9113304e-82
-2.4915714e-85
-9.8223293e-84
-1.587307e-85
-8.2378992e-86
-1.1681367e-85
-9.3786478e-86
-1.1817479e-85
-9.2515489e-86
-7.061051e-86
-1.213634e-85
-5.1742723e-87
-8.0541473e-86
-2.157334e-88
-6.1306352e-87
-3.3740057e-90
-2.7799833e-88
-1.1916453e-89
7.6008058e-84
-3.4726426e-83
3.2774924e-81
-5.2388274e-81
1.5164152e-79
-2.2492888e-79
3.1129565e-79
-6.0112626e-79
2.2047794e-79
-4.3671343e-79
1.4355707e-79
-2.6696438e-79
8.0278467e-80
-1.4674077e-79
2.9435512e-80
-5.8077537e-80
1.9953764e-80
-1.8981598e-80
9.0430727e-79
-4.0285828e-79
1.1769165e-76
-4.7224222e-77
4.6945866e-75
-4.4590639e-75
6.6865737e-74
-6.3231123e-74
6.7932899e-73
-2.3570721e-73
4.3495862e-72
-1.5594561e-72
1.3666577e-71
-4.7393266e-72
1.856187e-70
-1.6677377e-70
2.1004789e-68
-2.0740298e-68
2.299277e-66
-2.2661592e-66
2.3623977e-64
-2.3186912e-64
2.2396757e-62
-2.1860046e-62
1.9306227e-60
-1.870667e-60
1.5303177e-58
-1.4699772e-58
1.1326045e-56
-1.0765466e-56
8.2438062e-55
-7.7486454e-55
6.0710332e-53
-5.6118581e-53
5.3204791e-51
-4.8268265e-51
5.7301778e-49
-5.140268e-49
4.8504165e-47
-4.3314372e-47
6.6878007e-45
-6.09254e-45
2.281187e-41
-2.2482211e-41
1.879429e-39
-1.7643889e-39
4.6940587e-39
-7.6759166e-40
1.0019948e-39
-1.530982e-40
1.1394198e-39
-9.6283117e-41
2.3477096e-37
-9.4390725e-39
1.242601e-37
2.3496061e-39
4.335811e-39
1.8264692e-39
3.224187e-41
8.426756e-41
1.6674063e-41
3.4970524e-42
1.009101e-40
1.7493979e-41
1.1504167e-39
2.4074098e-40
1.08382e-38
2.8969619e-39
8.6277191e-38
2.8889819e-38
5.409297e-37
2.2527256e-37
2.429219e-36
1.2634428e-36
7.4168632e-36
4.8346134e-36
1.6071837e-35
1.2863055e-35
2.8986459e-35
2.6917692e-35
4.3677022e-35
5.3283152e-35
3.9652629e-35
5.8436438e-35
2.3780777e-35
4.2542215e-35
9.3132775e-36
2.0269731e-35
3.2282933e-36
7.2706568e-36
8.7233711e-37
1.8926003e-36
1.4428563e-37
2.794803e-37
2.6864967e-38
1.5632943e-38
2.3604018e-38
-3.7050458e-39
8.2421374e-35
-8.4683637e-35
1.050761e-32
-1.069511e-32
1.8502987e-31
-1.73538e-31
4.4624747e-31
-2.723574e-31
1.2253923e-31
-1.1465762e-31
2.4404986e-32
-2.3376545e-32
1.8005734e-33
-1.8497503e-33
1.6539369e-34
-5.1402593e-35
1.2148355e-35
9.2069121e-36
1.9128588e-37
1.0249768e-36
3.9973172e-40
1.2172679e-38
2.1240053e-42
9.8915734e-41
1.3083148e-44
8.3923306e-43
8.6847984e-47
6.7038052e-45
1.1443314e-48
5.8632117e-47
2.9444812e-50
1.2847607e-48
2.5664839e-52
2.5435689e-50
6.7078311e-55
1.9373962e-52
1.8632618e-57
1.0526335e-54
3.7826602e-60
5.7615352e-57
-1.4763278e-62
3.1092664e-59
-2.5819943e-64
1.6271603e-61
-2.0937935e-66
8.123812e-64
-1.3088233e-68
3.6952927e-66
-1.0647561e-70
1.5348111e-68
-6.5276726e-72
9.1479576e-71
-1.4248321e-72
4.5490759e-72
-3.0471566e-73
7.6975975e-73
-4.7906236e-74
1.146617e-73
-4.7898695e-75
1.1484385e-74
-2.7621981e-76
6.1293777e-76
-7.1811844e-78
8.8868826e-78
-6.7443178e-80
-4.6975041e-79
-3.0194321e-82
-1.1035757e-80
-2.3948516e-82
-1.214246e-82
-1.4470691e-82
-1.7530267e-82
-1.2581804e-82
-1.3681682e-82
-6.7261059e-83
-1.5313888e-82
-4.3977452e-84
-8.1333183e-83
-1.7225898e-85
-5.5344447e-84
-2.5626481e-87
-2.5620652e-85
-1.0902388e-86
2.6893498e-81
-1.4495042e-80
1.170916e-78
-2.2114251e-78
5.4654225e-77
-9.5663591e-77
1.1282065e-76
-2.5781809e-76
8.0814485e-77
-1.8847167e-76
5.3301729e-77
-1.1651515e-76
3.0188533e-77
-6.4819356e-77
1.1166015e-77
-2.589747e-77
7.6058579e-78
-8.58014e-78
3.5013376e-76
-1.8567518e-76
4.6809215e-74
-2.2397192e-74
1.9272259e-72
-1.1511147e-72
2.7898858e-71
-2.5486695e-71
2.889318e-70
-1.1988464e-70
1.750807e-69
-7.4943681e-70
5.2693307e-69
-2.1716281e-69
8.3988631e-68
-7.2145105e-68
9.6300097e-66
-9.4695827e-66
1.0732338e-63
-1.055656e-63
1.1215338e-61
-1.0991289e-61
1.081489e-59
-1.0536781e-59
9.4728894e-58
-9.1558729e-58
7.6245854e-56
-7.2994905e-56
5.7337082e-54
-5.4261917e-54
4.242941e-52
-3.9666287e-52
3.1835192e-50
-2.9223253e-50
2.8528463e-48
-2.5661531e-48
3.1630824e-46
-2.8127401e-46
2.7839664e-44
-2.4681197e-44
4.0493641e-42
-3.6708404e-42
1.4909513e-38
-1.4749512e-38
1.3005208e-36
-1.2162558e-36
2.674583e-36
-5.4739233e-37
6.64801e-37
-1.2752186e-37
2.4676862e-36
-1.6485628e-36
1.5195254e-34
-9.4955638e-36
9.3369708e-35
2.550213e-37
4.2094278e-36
1.456487e-36
2.6467798e-38
8.7090074e-38
5.5772383e-39
2.061148e-39
1.0344176e-38
2.6117704e-39
1.1802321e-37
2.8509061e-38
1.0547022e-36
3.2603843e-37
7.9745964e-36
3.1160084e-36
4.8258978e-35
2.3659393e-35
2.1297592e-34
1.3161357e-34
6.4553809e-34
5.061987e-34
1.3843369e-33
1.3572107e-33
2.4395285e-33
2.8300525e-33
3.6212439e-33
5.6403532e-33
3.1931435e-33
6.2070117e-33
1.8336819e-33
4.4833889e-33
6.9427306e-34
2.1167387e-33
2.360378e-34
7.5594677e-34
6.2639418e-35
1.9173765e-34
1.0487098e-35
2.6267476e-35
2.8426395e-36
9.6266383e-37
1.179389e-34
-8.6154522e-35
8.4568283e-32
-8.8627028e-32
7.2873604e-30
-7.5283384e-30
1.1028809e-28
-1.0214214e-28
2.6723578e-28
-2.2773855e-28
6.9456277e-29
-9.1308261e-29
1.0293241e-29
-1.5844817e-29
7.2749676e-31
-1.1070028e-30
6.87221e-32
-3.3419409e-32
5.307286e-33
4.2904475e-33
1.0138485e-34
5.6885014e-34
2.4574881e-37
8.0479699e-36
1.3266403e-39
6.8881552e-38
8.7042877e-42
6.2210466e-40
6.1037567e-44
5.3433027e-42
7.2970261e-46
4.7987179e-44
1.6304865e-47
9.5540159e-46
1.2991471e-49
1.705441e-47
3.4967906e-52
1.2782247e-49
9.2998179e-55
7.0517879e-52
1.2431892e-57
3.861324e-54
-1.4069381e-59
2.0632481e-56
-1.7697497e-61
1.0835552e-58
-1.3146236e-63
5.2983466e-61
-7.6852961e-66
2.3402351e-63
-5.0115168e-68
9.3074485e-66
-2.4964349e-69
4.4788818e-68
-6.1339091e-70
1.838715e-69
-1.4336399e-70
3.5046431e-70
-2.5438403e-71
5.5754926e-71
-2.7756446e-72
6.0658468e-72
-1.562289e-73
3.1765876e-73
-3.8836025e-75
1.4277318e-75
-3.8092646e-77
-3.8299643e-76
-2.3995155e-79
-7.7985445e-78
-2.6645129e-79
-1.1477978e-79
-1.4558923e-79
-2.2976138e-79
-1.1069213e-79
-1.453554e-79
-4.8873673e-80
-1.4029748e-79
-2.8825861e-81
-6.1876812e-80
-1.063602e-82
-3.8095501e-81
-1.511356e-84
-1.8143252e-82
-7.3692938e-84
7.8530185e-79
-4.8531359e-78
3.4546137e-76
-7.4903743e-76
1.6247879e-74
-3.2627888e-74
3.3723556e-74
-8.8691253e-74
2.441947e-74
-6.5228748e-74
1.6320758e-74
-4.0788627e-74
9.3520208e-75
-2.2951779e-74
3.4931117e-75
-9.2652161e-75
2.3873113e-75
-3.1040202e-75
1.1012599e-73
-6.7279362e-74
1.5216322e-71
-8.2965052e-72
6.5340191e-70
-3.3521954e-70
9.629952e-69
-4.7536615e-69
9.9858773e-68
-4.8532308e-68
5.585542e-67
-2.8110442e-67
1.6000092e-66
-7.6690882e-67
3.1444016e-65
-1.3278889e-65
3.6466208e-63
-3.5007124e-63
4.1408308e-61
-4.0478079e-61
4.4042362e-59
-4.3058824e-59
4.3195543e-57
-4.2023048e-57
3.8456136e-55
-3.7111114e-55
3.1463401e-53
-3.006366e-53
2.4025429e-51
-2.2680099e-51
1.8062237e-49
-1.6835618e-49
1.3782548e-47
-1.2603316e-47
1.2596869e-45
-1.1278778e-45
1.4323008e-43
-1.2681391e-43
1.3039995e-41
-1.1525321e-41
1.9877468e-39
-1.7992952e-39
7.8400968e-36
-7.7805883e-36
7.1113801e-34
-6.6343167e-34
1.2498023e-33
-3.156489e-34
3.9186875e-34
-9.0978589e-35
3.0299278e-33
-2.4659427e-33
7.9211327e-32
-7.2721542e-33
5.8722171e-32
-1.3356462e-33
3.4035408e-33
8.4757915e-34
2.3292994e-35
7.0265352e-35
1.1792158e-36
1.7182764e-36
1.0545399e-36
3.7488948e-37
9.6984322e-36
2.6730244e-36
8.2175215e-35
2.8590482e-35
5.8645937e-34
2.6086123e-34
3.4065238e-33
1.9227014e-33
1.4710815e-32
1.0593861e-32
4.4057754e-32
4.0901055e-32
9.3029824e-32
1.1042591e-31
1.5916019e-31
2.2982156e-31
2.293792e-31
4.5981561e-31
1.9308604e-31
5.0783149e-31
1.0350831e-31
3.6389842e-31
3.6665136e-32
1.7088899e-31
1.1754954e-32
6.110643e-32
2.9750139e-33
1.5085839e-32
5.1158983e-34
1.8928602e-33
1.8181384e-34
1.7421371e-35
1.4775233e-31
-1.5434482e-31
4.9657533e-29
-5.0958592e-29
3.2759474e-27
-2.8876087e-27
4.5082105e-26
-3.7242452e-26
1.1035629e-25
-1.2791667e-25
2.8436715e-26
-4.9842824e-26
3.4756055e-27
-7.8052429e-27
2.4193332e-28
-5.0850752e-28
2.3218928e-29
-1.6366511e-29
1.8786345e-30
1.5436326e-30
4.3265575e-32
2.4471315e-31
1.3485543e-34
4.4108178e-33
7.2698759e-37
4.0237346e-35
5.0623414e-39
3.9074834e-37
3.743304e-41
3.5773956e-39
4.3118877e-43
3.4515599e-41
7.8225673e-45
6.203442e-43
5.5894601e-47
9.7981701e-45
1.461238e-49
6.9340186e-47
3.5982313e-52
3.8309659e-49
5.7481112e-56
2.1018706e-51
-9.9404063e-57
1.1098204e-53
-1.0027157e-58
5.8538586e-56
-6.7923594e-61
2.7845311e-58
-3.6811535e-63
1.1833716e-60
-1.9943371e-65
4.4542169e-63
-7.8578032e-67
1.7863221e-65
-2.1432584e-67
5.9265792e-67
-5.2955204e-68
1.2527251e-67
-1.018045e-68
2.0661517e-68
-1.204486e-69
2.3421426e-69
-6.7621292e-71
1.1735385e-70
-1.5777974e-72
-1.0949048e-72
-1.6112328e-74
-1.9948168e-73
-1.4627129e-76
-3.9580082e-75
-2.3077184e-76
-8.2376986e-77
-1.1274075e-76
-2.2655192e-76
-7.5063985e-77
-1.1809277e-76
-2.8368284e-77
-9.8978701e-77
-1.515976e-78
-3.7218756e-77
-5.2935362e-80
-2.1480988e-78
-7.1644015e-82
-1.0034595e-79
-3.8872917e-81
1.9507011e-76
-1.3526649e-75
8.6653309e-74
-2.1122866e-73
4.1071032e-72
-9.2664491e-72
8.5724033e-72
-2.5410957e-71
6.2765617e-72
-1.8800951e-71
4.2482911e-72
-1.1887505e-71
2.4652866e-72
-6.7711472e-72
9.2832923e-73
-2.760141e-72
6.3574118e-73
-9.318608e-73
2.8657544e-71
-1.9694535e-71
4.0927844e-69
-2.5187169e-69
1.8656115e-67
-1.0800224e-67
2.8449744e-66
-1.5835186e-66
2.8588336e-65
-1.558155e-65
1.4650024e-64
-8.341823e-65
4.2455638e-64
-2.1998536e-64
1.0080416e-62
-4.0168855e-63
1.1809285e-60
-6.8867322e-61
1.3626778e-58
-1.2648471e-58
1.4755691e-56
-1.4280956e-56
1.4731051e-54
-1.4291659e-54
1.3331503e-52
-1.2852169e-52
1.1081299e-50
-1.0580089e-50
8.5869186e-49
-8.0994135e-49
6.5479703e-47
-6.0981524e-47
5.0706541e-45
-4.6319352e-45
4.7072866e-43
-4.2095345e-43
5.4612677e-41
-4.8321254e-41
5.1106997e-39
-4.519051e-39
8.098186e-37
-7.3404696e-37
3.3855708e-33
-3.368478e-33
3.1269457e-31
-2.914849e-31
4.8466733e-31
-1.4951194e-31
1.987394e-31
-5.5786588e-32
2.5715686e-30
-2.2336865e-30
3.5163676e-29
-4.4401197e-30
2.8751539e-29
-1.6747134e-30
2.1673306e-30
3.0878496e-31
1.7510525e-32
4.3045442e-32
2.8997883e-34
1.248966e-33
1.9385271e-34
7.25942e-35
6.3148759e-34
2.160815e-34
5.2022358e-33
1.9998531e-33
3.4969934e-32
1.735042e-32
1.9360324e-31
1.235312e-31
8.1248036e-31
6.7150768e-31
2.38094e-30
2.5881607e-30
4.8679986e-30
6.9647903e-30
7.9359866e-30
1.4303288e-29
1.0904599e-29
2.8549814e-29
8.5342864e-30
3.1709458e-29
4.0539315e-30
2.2562666e-29
1.233471e-30
1.0648308e-29
3.2218922e-31
3.8689211e-30
6.5919016e-32
9.3875666e-31
1.6488691e-32
1.0566605e-31
1.7809489e-32
-1.1428512e-32
8.1200578e-29
-9.6716694e-29
1.7582003e-26
-2.2692387e-26
9.8151941e-25
-1.1904519e-24
1.2937619e-23
-1.5180622e-23
3.2285014e-23
-5.0825726e-23
8.5685369e-24
-1.9330834e-23
9.3461559e-25
-2.8234754e-24
6.6317639e-26
-1.7775214e-25
6.4708647e-27
-5.9525767e-27
5.4920935e-28
4.5312727e-28
1.5150901e-29
8.4511542e-29
6.4149867e-32
1.9822576e-30
3.4605e-34
1.9848368e-32
2.556315e-36
2.0714693e-34
2.0097954e-38
2.0438713e-36
2.1805682e-40
2.1149675e-38
3.0653194e-42
3.3394232e-40
1.9450129e-44
4.5558172e-42
5.0836565e-47
3.1295336e-44
1.0393314e-49
1.7270359e-46
-2.3192944e-52
9.4037861e-49
-5.4800551e-54
5.0162883e-51
-4.652515e-56
2.583663e-53
-2.8441452e-58
1.1805808e-55
-1.3868862e-60
4.7320227e-58
-6.2594794e-63
1.6400282e-60
-2.0689829e-64
5.5021715e-63
-6.1616819e-65
1.5606388e-64
-1.6073157e-65
3.5887409e-65
-3.3368188e-66
6.1288525e-66
-4.2174312e-67
7.1893992e-67
-2.3156051e-68
3.2454037e-68
-5.0371501e-70
-9.973197e-70
-5.3993899e-72
-8.0219761e-71
-8.0125695e-74
-1.5468171e-72
-1.6097753e-73
-5.6348333e-74
-7.0056845e-74
-1.7530165e-73
-4.0953681e-74
-7.6217853e-74
-1.3481741e-74
-5.5891664e-74
-6.58122e-76
-1.8202064e-74
-2.1817346e-77
-1.0138793e-75
-2.8132617e-79
-4.4884873e-77
-1.6571169e-78
4.2123208e-74
-3.2219736e-73
1.8894944e-71
-5.0912912e-71
9.026158e-70
-2.2503385e-69
1.8949058e-69
-6.2244059e-69
1.4021796e-69
-4.6340219e-69
9.6155558e-70
-2.9628973e-69
5.653145e-70
-1.7088577e-69
2.1443349e-70
-7.0316828e-70
1.4694005e-70
-2.3929917e-70
6.3010623e-69
-4.7360237e-69
9.465226e-67
-6.4289026e-67
4.6029803e-65
-2.9580681e-65
7.1724898e-64
-4.4500435e-64
6.7390635e-63
-4.109575e-63
3.1918666e-62
-2.0306499e-62
9.2952689e-62
-5.3044359e-62
2.787373e-60
-1.23555e-60
3.4027299e-58
-1.3967894e-58
3.9713585e-56
-1.5360056e-56
4.3218429e-54
-3.4962089e-54
4.386266e-52
-4.1641108e-52
4.0374439e-50
-3.8746682e-50
3.405305e-48
-3.2499167e-48
2.6752824e-46
-2.5250912e-46
2.066523e-44
-1.9266817e-44
1.6186785e-42
-1.4806028e-42
1.519997e-40
-1.3616694e-40
1.78791e-38
-1.5858586e-38
1.7062476e-36
-1.5137106e-36
2.782765e-34
-2.5317203e-34
1.2190127e-30
-1.2154235e-30
1.1133927e-28
-1.040711e-28
1.5663106e-28
-5.8599307e-29
8.6116124e-29
-2.9052792e-29
1.5882623e-27
-1.4191735e-27
1.2911378e-26
-2.2236339e-27
1.1448982e-26
-1.2064784e-27
1.0565263e-27
2.8605535e-29
1.0605819e-29
1.9070826e-29
1.2394257e-31
6.9412552e-31
2.8175221e-32
2.4412326e-32
3.8257136e-32
1.7692412e-32
2.6710714e-31
1.1324022e-31
1.7016389e-30
9.2459862e-31
8.8899513e-30
6.311652e-30
3.5838632e-29
3.3524039e-29
1.0150605e-28
1.2798079e-28
1.9707566e-28
3.3929503e-28
2.9750568e-28
6.7476336e-28
3.8209106e-28
1.3379451e-27
2.6469368e-28
1.5015799e-27
9.6656707e-29
1.063105e-27
1.4571303e-29
5.1338728e-28
-3.3543773e-30
1.9202079e-28
-1.6100476e-30
4.6012829e-29
-1.3009292e-30
4.8259407e-30
-4.0328568e-29
-6.8320058e-29
1.4633387e-26
-7.4895694e-26
3.6069143e-24
-9.5508409e-24
1.9794517e-22
-3.8291992e-22
2.6287608e-21
-4.4716927e-21
6.8850706e-21
-1.8205336e-20
1.895858e-21
-5.9284101e-21
1.9788426e-22
-8.0015268e-22
1.4907764e-23
-4.990693e-23
1.4980019e-24
-1.6887917e-24
1.3383129e-25
1.1345775e-25
4.4045385e-27
2.400179e-26
2.6238492e-29
7.3367836e-28
1.4412367e-31
8.358897e-30
1.1305715e-33
9.433388e-32
9.3501468e-36
1.0034273e-33
9.5424857e-38
1.1084196e-35
1.003758e-39
1.5266904e-37
5.3619257e-42
1.723354e-39
1.4077341e-44
1.1554804e-41
1.8817295e-47
6.4012307e-44
-1.7950816e-49
3.4433008e-46
-2.3614447e-51
1.8562893e-48
-1.7098334e-53
9.179898e-51
-9.1258516e-56
3.9383181e-53
-3.7184707e-58
1.427497e-55
-1.2318507e-60
4.1901287e-58
-4.4501709e-62
1.0395835e-60
-1.5057773e-62
3.3298989e-62
-4.1250779e-63
8.6181398e-63
-9.1324292e-64
1.4981956e-63
-1.2058352e-64
1.7814324e-64
-6.5703763e-66
6.4662369e-66
-1.3927875e-67
-4.6752457e-67
-1.4591036e-69
-2.6923426e-68
-4.471929e-71
-4.2765807e-70
-9.2183269e-71
-3.7732746e-71
-3.5749107e-71
-1.0936252e-70
-1.8435563e-71
-4.0082353e-71
-5.3573406e-72
-2.5892094e-71
-2.3995522e-73
-7.6473614e-72
-7.5820374e-75
-3.9500941e-73
-9.3220375e-77
-1.6627847e-74
-5.846751e-76
8.0426532e-72
-6.6864774e-71
3.6413023e-69
-1.0695351e-68
1.7536592e-67
-4.7643814e-67
3.701405e-67
-1.3291336e-66
2.7689953e-67
-9.961781e-67
1.9244316e-67
-6.4414225e-67
1.1459037e-67
-3.7617144e-67
4.3813661e-68
-1.5627906e-67
3.008739e-68
-5.4356938e-68
1.2048011e-66
-9.754624e-67
1.9103092e-64
-1.40441e-64
9.9684257e-63
-7.0294067e-63
1.5769764e-61
-1.0955932e-61
1.3670521e-60
-9.4359988e-61
5.9676099e-60
-4.2005096e-60
1.7481629e-59
-1.1024236e-59
6.6678852e-58
-3.2649062e-58
8.4862963e-56
-3.8558773e-56
1.0314627e-53
-4.4057919e-54
1.1590673e-51
-4.6733284e-52
1.1753461e-49
-4.498e-50
1.086953e-47
-9.3700335e-48
9.3014743e-46
-8.748324e-46
7.3984709e-44
-6.9751554e-44
5.7767135e-42
-5.3997272e-42
4.5621339e-40
-4.1886457e-40
4.3088845e-38
-3.8766066e-38
5.105886e-36
-4.5526526e-36
4.9219892e-34
-4.3918882e-34
8.1676253e-32
-7.4737071e-32
3.699108e-28
-3.6948782e-28
3.2009077e-26
-3.0044772e-26
4.2054178e-26
-1.8803134e-26
3.1266399e-26
-1.2533149e-26
7.3219955e-25
-6.6242313e-25
3.9283635e-24
-1.0078745e-24
3.6121043e-24
-6.1741185e-25
4.2262457e-25
-4.9211838e-26
5.3703103e-27
5.9171895e-27
6.1077202e-29
3.0216509e-28
3.5715393e-30
1.1220279e-29
2.9267285e-30
1.6125513e-30
1.1055662e-29
5.4079177e-30
6.7108521e-29
3.9326367e-29
3.2949334e-28
2.5585226e-28
1.2683145e-27
1.3212287e-27
3.5128279e-27
5.0468661e-27
6.6305472e-27
1.3574007e-26
9.3008435e-27
2.6679179e-26
1.0755811e-26
5.2621481e-26
5.8625521e-27
5.9539059e-26
6.5354065e-28
4.2572629e-26
-1.0181475e-27
2.1074685e-26
-6.9342987e-28
7.8347033e-27
-4.1653798e-28
1.8282891e-27
-8.4864597e-28
3.6844342e-28
-1.8769467e-25
-9.5037481e-26
-9.3344933e-24
-3.5224262e-23
3.2982502e-22
-2.7625843e-21
2.6846043e-20
-9.3600301e-20
3.8374089e-19
-8.669506e-19
1.0517743e-18
-2.3013472e-18
3.2980589e-19
-9.6870086e-19
3.3459424e-20
-1.5587209e-19
2.782508e-21
-1.1704842e-20
2.9262472e-22
-4.3721337e-22
2.7151919e-23
2.503245e-23
1.0659976e-24
5.6761373e-24
9.272465e-27
2.279354e-25
5.2610506e-29
3.0264283e-27
4.3331729e-31
3.6900441e-29
3.7259732e-33
4.2175127e-31
3.6245601e-35
4.9218421e-33
2.936976e-37
6.1133595e-35
1.2366153e-39
5.6332643e-37
2.9688289e-42
3.5656397e-39
2.8374933e-47
1.9412872e-41
-8.0876951e-47
1.0177539e-43
-7.7441125e-49
5.4936427e-46
-4.6499002e-51
2.5345795e-48
-1.9230055e-53
9.6455407e-51
-4.2702279e-56
2.7449702e-53
-6.6069667e-59
4.4814777e-56
-7.0529582e-60
5.525482e-59
-3.1305536e-60
5.4067643e-60
-9.2040892e-61
1.7781723e-60
-2.2002912e-61
3.1238556e-61
-3.0133327e-62
3.7528103e-62
-1.6008359e-63
8.4155391e-64
-3.3138375e-65
-1.5953977e-64
-3.1764289e-67
-7.4264994e-66
-2.3707949e-68
-1.0569076e-67
-4.4055789e-68
-2.2531693e-68
-1.5238699e-68
-5.61433e-68
-6.9666879e-69
-1.7496685e-68
-1.8059667e-69
-1.0014326e-68
-7.4428583e-71
-2.695827e-69
-2.2496435e-72
-1.2923429e-70
-2.6395488e-74
-5.1928021e-72
-1.7372591e-73
1.374221e-69
-1.2268617e-68
6.2841953e-67
-1.9877664e-66
3.0495297e-65
-8.9245556e-65
6.4748146e-65
-2.5122292e-64
4.8980674e-65
-1.895712e-64
3.4500719e-65
-1.2400479e-64
2.0813089e-65
-7.334668e-65
8.0313082e-66
-3.0767069e-65
5.5432675e-66
-1.0786951e-65
2.1044117e-64
-1.8753449e-64
3.4482771e-62
-2.7583571e-62
1.9204512e-60
-1.4745412e-60
3.0815142e-59
-2.3265741e-59
2.4375906e-58
-1.8364076e-58
9.7201578e-58
-7.4865748e-58
2.866318e-57
-2.0131669e-57
1.3796082e-55
-7.3844134e-56
1.832844e-53
-9.1827137e-54
2.3230383e-51
-1.0902982e-51
2.7258015e-49
-1.2017814e-49
2.8894776e-47
-1.2039502e-47
2.7431488e-45
-1.0885168e-45
2.3376894e-43
-8.9074413e-44
1.8465645e-41
-1.4641483e-41
1.4519454e-39
-1.3428872e-39
1.1510748e-37
-1.0613791e-37
1.0882219e-35
-9.8598024e-36
1.2885298e-33
-1.1577605e-33
1.2416062e-31
-1.1171501e-31
2.069084e-29
-1.9084452e-29
9.5426727e-26
-9.5471584e-26
7.2657583e-24
-6.8515642e-24
9.4688233e-24
-5.1728036e-24
1.0179291e-23
-4.4418758e-24
3.3927609e-22
-2.699971e-22
9.6831894e-22
-4.1586657e-22
8.8713317e-22
-2.3842436e-22
1.282039e-22
-3.7168109e-23
2.0536641e-24
8.445242e-25
2.4401722e-26
9.2482089e-26
6.8594564e-28
4.1501624e-27
2.7209136e-28
2.2211551e-28
3.9785127e-28
2.5722575e-28
2.0895822e-27
1.3245222e-27
9.860804e-27
8.2073832e-27
3.7070339e-26
4.2045984e-26
1.0485669e-25
1.6660147e-25
2.1024901e-25
4.8939907e-25
3.0381292e-25
1.0825224e-24
2.9482523e-25
2.1649817e-24
8.3496233e-26
2.4114879e-24
-7.5518324e-26
1.7645751e-24
-8.8515806e-26
8.5171258e-25
-3.7643412e-26
2.8771374e-25
-3.9975403e-26
6.8202166e-26
-8.7689254e-25
1.415891e-25
-1.2554433e-22
-5.2200804e-23
-5.7384674e-21
-1.0266088e-20
-4.6101435e-20
-5.7820253e-19
2.341579e-18
-1.127051e-17
3.7657894e-17
-4.0011906e-17
1.113373e-16
-8.3166029e-17
3.3001802e-17
-8.0191136e-18
4.4820767e-18
-1.2369286e-17
4.0927158e-19
-1.117854e-18
4.8072132e-20
-6.4546912e-20
4.7417692e-21
4.9232529e-21
2.1603299e-22
1.134596e-21
2.6687049e-24
5.7735103e-23
1.6442332e-26
9.2302997e-25
1.404871e-28
1.2146669e-26
1.2299754e-30
1.4894974e-28
1.0966577e-32
1.7752204e-30
7.179985e-35
1.9995242e-32
2.4199922e-37
1.580281e-34
4.3192405e-40
9.1255003e-37
-1.3066374e-42
4.6948539e-39
-2.4615129e-44
2.4775695e-41
-1.7798724e-46
1.2432955e-43
-7.9663747e-49
4.9702036e-46
-5.4837022e-52
9.5012481e-49
-1.5261952e-54
7.1693016e-52
-6.8061116e-57
1.5035363e-54
-5.5538879e-58
5.4013359e-57
-4.8903098e-58
5.2557056e-58
-1.8563173e-58
3.3144706e-58
-4.6153145e-59
5.7253422e-59
-6.444823e-60
6.5388897e-60
-3.3435503e-61
1.5924735e-63
-6.6521738e-63
-4.2274416e-62
-7.0557476e-65
-1.5530588e-63
-1.1027455e-65
-2.9457679e-65
-1.7744238e-65
-1.1344108e-65
-5.48576e-66
-2.4049407e-65
-2.2356209e-66
-6.426626e-66
-5.2166454e-67
-3.2760085e-66
-1.98486e-68
-8.0798454e-67
-5.7612803e-70
-3.597673e-68
-6.4392755e-72
-1.3849358e-69
-4.4053114e-71
2.1238695e-67
-2.0133415e-66
9.8100107e-65
-3.3069653e-64
4.795554e-63
-1.4966671e-62
1.0243394e-62
-4.252227e-62
7.8371578e-63
-3.2313219e-62
5.5986556e-63
-2.1393692e-62
3.4228311e-63
-1.282071e-62
1.3254934e-63
-5.43139e-63
9.0459725e-64
-1.8909059e-63
3.500017e-62
-3.5309074e-62
5.7503564e-60
-4.9429665e-60
3.317899e-58
-2.7559596e-58
5.2006349e-57
-4.2689759e-57
3.7214285e-56
-3.0565725e-56
1.3874393e-55
-1.1686927e-55
4.0411835e-55
-3.0014142e-55
2.4262785e-53
-1.3381708e-53
3.397184e-51
-1.8463144e-51
4.5205799e-49
-2.3334434e-49
5.5611907e-47
-2.6778288e-47
6.1655695e-45
-2.7871741e-45
6.1125015e-43
-2.6182415e-43
5.4496553e-41
-2.2300427e-41
4.4714132e-39
-1.7644091e-39
3.4645044e-37
-1.3373936e-37
2.6442012e-35
-2.0715531e-35
2.4814984e-33
-2.2576386e-33
2.9081004e-31
-2.63894e-31
2.7692228e-29
-2.516029e-29
4.5652562e-27
-4.2514625e-27
2.1080702e-23
-2.1154269e-23
1.5757947e-21