/*--------------------------------*- C++ -*----------------------------------*\
  =========                 |
  \\      /  F ield         | OpenFOAM: The Open Source CFD Toolbox
   \\    /   O peration     | Website:  https://openfoam.org
    \\  /    A nd           | Version:  9
     \\/     M anipulation  |
\*---------------------------------------------------------------------------*/
FoamFile
{
    format      ascii;
    class       volScalarField;
    location    "0.52";
    object      p;
}
// * * * * * * * * * * * * * * * * * * * * * * * * * * * * * * * * * * * * * //

dimensions      [1 -1 -2 0 0 0 0];

internalField   nonuniform List<scalar> 
10000
(
0
-0.0097589203
-0.012192833
-0.011302048
-0.0072272745
0.00042210763
0.011874633
0.027395971
0.047296228
0.071948921
0.10167429
0.13691117
0.17811713
0.22573364
0.28031009
0.34235857
0.41239026
0.49101637
0.57882352
0.67635983
0.78421721
0.90294201
1.0329847
1.1747971
1.3287868
1.4952062
1.6741814
1.8657475
2.069777
2.2859019
2.5135295
2.7518585
2.9998423
3.2561763
3.5191248
3.7859117
4.0531117
4.3200011
4.583152
4.8389187
5.0836509
5.3136489
5.5252116
5.7147358
5.8788572
6.0145314
6.1190618
6.1902499
6.2264116
6.2263986
6.1896919
6.1163452
6.0070595
5.8631914
5.686779
5.4806062
5.2483013
4.9943906
4.7241758
4.4439602
4.1590089
3.8758559
3.6005043
3.3394303
3.0998818
2.8866609
2.6944502
2.5124673
2.3645239
2.2462233
2.156159
2.0927369
2.0540346
2.0378683
2.0421241
2.0645908
2.102796
2.1541954
2.2162379
2.2930487
2.3709979
2.454638
2.5422336
2.6323094
2.7229882
2.8127651
2.9007142
2.9860401
3.067957
3.1455767
3.2183587
3.2878345
3.3589166
3.4242674
3.4815537
3.5312858
3.5735133
3.6081427
3.6352672
3.6581055
0.0040713089
-0.0058019346
-0.0083714116
-0.0077294685
-0.0038975038
0.0034405534
0.014546324
0.029629894
0.049067287
0.073118229
0.10218735
0.13671602
0.17709209
0.22383511
0.27746146
0.33844558
0.40738325
0.48487031
0.57146111
0.66776421
0.77438659
0.89184407
1.0206624
1.1613577
1.3143236
1.4798324
1.6581027
1.8492504
2.0531473
2.2694498
2.4976446
2.7369582
2.9862288
3.2439046
3.5081013
3.7767637
4.0479287
4.3181325
4.5844632
4.8434537
5.0913981
5.3245221
5.539097
5.7314824
5.8982427
6.0363118
6.1429724
6.2160001
6.2536823
6.2548242
6.2188457
6.145721
6.0360365
5.891051
5.7127206
5.5037561
5.2676798
5.008948
4.7329021
4.4454213
4.1527164
3.8612944
3.5775924
3.3079824
3.0581458
2.8315926
2.6307005
2.4530315
2.3051866
2.1874843
2.0990931
2.0384773
2.0036068
1.9922021
2.0016656
2.029356
2.0727615
2.1294497
2.1972019
2.2758893
2.3588909
2.4466724
2.5377573
2.6307151
2.7240799
2.8165869
2.907214
2.9951197
3.0796353
3.1603436
3.237072
3.3112796
3.379413
3.4427336
3.4994546
3.5491256
3.5914839
3.6262806
3.6535915
3.6765821
0.0018213818
-0.0082068327
-0.011103811
-0.010870646
-0.0075441718
-0.00076771969
0.0096658345
0.024038343
0.042592508
0.065680135
0.093712919
0.12704429
0.1661567
0.21156182
0.26370584
0.32315647
0.39051852
0.46635262
0.55125718
0.64588351
0.75082432
0.86665075
0.99396145
1.133303
1.2851029
1.4497312
1.6274942
1.8185299
2.0227851
2.2400241
2.469805
2.7113782
2.9636286
3.2251097
3.4940531
3.7683614
4.0457142
4.3227392
4.5962238
4.8626363
5.1181286
5.3587193
5.5804688
5.7795825
5.9524818
6.0959594
6.2072101
6.283903
6.3242552
6.3269847
6.2914266
6.2174658
6.1055764
5.9568641
5.7731236
5.5570135
5.3120093
5.0424969
4.754019
4.452539
4.1449591
3.8384042
3.5399353
3.2563183
2.9933231
2.7551665
2.5469481
2.3674468
2.2193042
2.103087
2.0179314
1.9620488
1.9330827
1.9283635
1.9450435
1.9802162
2.0311313
2.0952245
2.1701781
2.2540763
2.3432554
2.4366286
2.5326923
2.6300528
2.7273773
2.8235205
2.9175291
3.0086534
3.0963141
3.180171
3.2593483
3.3325092
3.4011105
3.4642992
3.5210868
3.570991
3.613675
3.6487398
3.6763165
3.6996188
-0.0033834899
-0.013698268
-0.016941047
-0.017227539
-0.014530793
-0.0085348636
0.0010467307
0.014371861
0.031750705
0.053561591
0.080124487
0.11187482
0.14930268
0.19284385
0.24302477
0.30044391
0.36565355
0.43925573
0.52191544
0.6142599
0.71691358
0.83056112
0.95585494
1.0933566
1.2435915
1.4070653
1.5841632
1.775101
1.9799537
2.1986227
2.430745
2.675654
2.9323615
3.1995259
3.4754078
3.757812
4.0438542
4.3306651
4.6147289
4.8921722
5.1588897
5.4106298
5.6431555
5.8524111
6.0345852
6.1862551
6.304438
6.3866575
6.4310267
6.4361644
6.4012651
6.3260842
6.2109216
6.0567198
5.8650808
5.6384932
5.3804195
5.095058
4.7881785
4.4663013
4.136966
3.8083197
3.4884825
3.1852503
2.9054504
2.6545239
2.4353277
2.2506399
2.1014445
1.9874212
1.9071204
1.8581704
1.837646
1.8423607
1.8690147
1.9143644
1.9753715
2.0492538
2.13366
2.2255337
2.3224713
2.4229205
2.5253449
2.6283509
2.7307034
2.8313235
2.9293011
3.0238765
3.1144122
3.2004265
3.2819744
3.3577135
3.4278277
3.4918829
3.5493686
3.599828
3.6430267
3.678568
3.7065495
3.7302836
-0.011867558
-0.022496481
-0.026195941
-0.027095326
-0.025211413
-0.020143677
-0.011715994
0.00028034622
0.016194713
0.036316569
0.061026553
0.090781148
0.12600199
0.16717919
0.21488694
0.26967709
0.33212802
0.40289984
0.48265531
0.57204696
0.67179795
0.78266667
0.90532851
1.040428
1.1886455
1.3506009
1.5267726
1.7175216
1.9230967
2.1435517
2.3786505
2.627859
2.8903406
3.1648582
3.4496604
3.7424951
4.0405793
4.340806
4.6392493
4.9317397
5.2137721
5.4806622
5.7277762
5.9507
6.145314
6.3079321
6.435366
6.5249599
6.5746941
6.5830875
6.549213
6.4726682
6.3535081
6.1923599
5.9905444
5.7501846
5.4743856
5.1677517
4.835769
4.486059
4.1270609
3.7683057
3.4194953
3.0898821
2.7875708
2.5188916
2.2880922
2.0975797
1.947691
1.8373238
1.7641449
1.7249508
1.7160221
1.7334391
1.7733168
1.8319367
1.905866
1.9920855
2.0888782
2.1911101
2.2976432
2.4068524
2.517147
2.6271569
2.7357267
2.8418386
2.9446699
3.0435153
3.1377777
3.2269841
3.310967
3.3889946
3.4608422
3.5262018
3.5846755
3.6359856
3.679875
3.7160153
3.7444968
3.7687979
-0.02344756
-0.034458278
-0.038688427
-0.040353841
-0.039393536
-0.035515705
-0.028496773
-0.018080993
-0.0040047053
0.014069446
0.03655511
0.063839045
0.096374103
0.13470442
0.17936324
0.2309086
0.28998873
0.35727222
0.4334202
0.51917733
0.61535636
0.72273107
0.84205623
0.97413104
1.1197628
1.2796846
1.4545403
1.6448923
1.8511755
2.0736228
2.3122084
2.566599
2.836128
3.1197056
3.415656
3.721753
4.0352187
4.3524055
4.6693221
4.9812463
5.2830804
5.5695818
5.835567
6.0761177
6.2867027
6.4633001
6.6024744
6.7014001
6.7579244
6.770504
6.7381288
6.6602174
6.5364998
6.3672333
6.1533343
5.8963163
5.59898
5.2649291
4.9007044
4.5144652
4.116306
3.7176791
3.330618
2.9665816
2.6354733
2.3449882
2.1002487
1.9033319
1.7537044
1.6491428
1.5861632
1.560338
1.5668751
1.6009153
1.6578004
1.7332105
1.8231993
1.9239492
2.0375024
2.1516163
2.2696098
2.389259
2.508883
2.6271636
2.7430225
2.8555338
2.9639647
3.067685
3.1661647
3.2590054
3.3458054
3.426314
3.5001766
3.5671731
3.6269493
3.6793331
3.7241177
3.7610012
3.7900888
3.8150358
-0.037948293
-0.04936984
-0.05424278
-0.056745629
-0.056929767
-0.054453937
-0.049046821
-0.040536195
-0.028619228
-0.012919324
0.006903838
0.031259759
0.060654375
0.095590715
0.1365954
0.18428935
0.23933852
0.30241234
0.37423495
0.45563272
0.54745383
0.65052268
0.76573057
0.89403607
1.0363537
1.1935624
1.3665431
1.5560932
1.7628598
1.987311
2.2296933
2.4899492
2.7676412
3.0618627
3.3711105
3.6932317
4.0253282
4.3636087
4.7035599
5.0398176
5.3664994
5.6775925
5.9671944
6.2297195
6.4601045
6.6539234
6.8074705
6.9177951
6.9826476
7.000462
6.9701879
6.8910948
6.7625389
6.5843627
6.3569947
6.080581
5.7568451
5.3901505
4.9855237
4.5528052
4.1041706
3.6539087
3.2173273
2.8090477
2.4416616
2.1246391
1.8638809
1.6607537
1.5134867
1.4182078
1.3697054
1.3619702
1.3887769
1.4440802
1.522328
1.6185643
1.7285923
1.8492311
1.9770972
2.1073025
2.2391346
2.3709797
2.5013693
2.6291355
2.7532773
2.873001
2.9876763
3.0967995
3.1999172
3.296636
3.386737
3.4699943
3.5461537
3.6150024
3.6763366
3.7300036
3.7758388
3.8135906
3.8434014
3.869059
-0.055112023
-0.06701981
-0.072561902
-0.076088272
-0.077579254
-0.076662111
-0.073146823
-0.066818611
-0.057340272
-0.044400897
-0.02765231
-0.0066432121
0.019095081
0.050050832
0.08681519
0.13002839
0.18033499
0.23845327
0.30519819
0.38141934
0.46799678
0.56587476
0.67608535
0.79970076
0.93778998
1.0914382
1.2617704
1.4498421
1.6565842
1.8827785
2.129005
2.3955424
2.682263
2.9885492
3.3131784
3.6541563
4.0085531
4.3723156
4.7404404
5.1065974
5.4638919
5.8052181
6.1236785
6.4128707
6.6671062
6.8815054
7.0521043
7.1758568
7.2505235
7.2745929
7.2471072
7.1672669
7.0341445
6.8469575
6.606238
6.308477
5.9550382
5.5498896
5.0952075
4.6037061
4.0904485
3.5736212
3.0731881
2.6083774
2.1956253
1.846789
1.5685211
1.360668
1.2193918
1.1386165
1.1105864
1.1271381
1.1802436
1.2624384
1.3670781
1.4884424
1.622002
1.7661325
1.9125369
2.0602011
2.2076338
2.3532796
2.4957836
2.6340999
2.7673944
2.8950426
3.0165502
3.1315353
3.239673
3.3405777
3.4342272
3.5204319
3.5990891
3.6700199
3.7330739
3.7881775
3.8351969
3.8739311
3.9045361
3.9309335
-0.074705547
-0.087099527
-0.09345946
-0.098121381
-0.10103124
-0.10190615
-0.1005138
-0.096600884
-0.089898722
-0.080094688
-0.066793873
-0.049594667
-0.028056092
-0.0016308083
0.030295946
0.068341982
0.11318019
0.16559091
0.22642011
0.29654884
0.37693594
0.46864417
0.57281567
0.69063942
0.82338325
0.97239007
1.139026
1.324637
1.5305256
1.7578675
2.007638
2.280519
2.5767957
2.8962979
3.2382337
3.6008769
3.9814165
4.3756863
4.7777727
5.180348
5.5749762
5.9530117
6.3062393
6.6272863
6.9097579
7.148297
7.3386575
7.4777311
7.5634236
7.5945608
7.5704906
7.4905255
7.3542287
7.1599129
6.9050681
6.5861579
6.2010958
5.7496139
5.2355745
4.6705437
4.0743967
3.4716239
2.8887973
2.351746
1.8825832
1.4963443
1.2002821
0.99133833
0.86225522
0.80346794
0.80408436
0.85304444
0.94002766
1.0558881
1.1927976
1.3440596
1.5035174
1.6784203
1.8448327
2.0119046
2.1767554
2.3376821
2.4934812
2.6432878
2.7864764
2.9226158
3.0514058
3.1726347
3.286164
3.3913886
3.4887365
3.578089
3.6593767
3.7324962
3.7973955
3.8540404
3.9023256
3.9421158
3.9736068
4.0007605
-0.096421405
-0.10939616
-0.11663289
-0.1224992
-0.12702102
-0.12987015
-0.13078515
-0.12957644
-0.12597299
-0.11963022
-0.11019794
-0.097303867
-0.08046346
-0.059104046
-0.0326513
-0.00047805574
0.03815968
0.084059378
0.13805833
0.20110981
0.27428042
0.35871801
0.45564718
0.56640215
0.69247668
0.83547309
0.99702659
1.1788522
1.3826782
1.6101487
1.8627152
2.1415601
2.447478
2.7809027
3.1416925
3.5285968
3.9391785
4.3693982
4.8125036
5.2594055
5.6993579
6.1216183
6.5163405
6.8750044
7.1904195
7.4567214
7.6693888
7.825325
7.9227729
7.9612166
7.9408084
7.8615839
7.7233664
7.5237406
7.2582453
6.9203001
6.5034221
6.001457
5.4154049
4.7580694
4.0546217
3.3398441
2.6500422
2.0204209
1.4813684
1.0522278
0.74098635
0.53769509
0.4305648
0.40490131
0.44533273
0.53715331
0.66734633
0.82498571
1.0011687
1.1888494
1.3830716
1.5807451
1.7743957
1.9640949
2.1483259
2.3259132
2.4960303
2.6580895
2.8117281
2.9567556
3.0930963
3.2207993
3.340271
3.4495537
3.5506904
3.6432689
3.7272965
3.802702
3.8695142
3.927747
3.9773725
4.0182681
4.0507027
4.0786054
-0.12001075
-0.13354847
-0.14170043
-0.14893029
-0.15519004
-0.16015313
-0.16362072
-0.16538817
-0.16515619
-0.162637
-0.15751808
-0.14937664
-0.1377099
-0.12199531
-0.10166256
-0.076039829
-0.044374285
-0.0058698575
0.040345688
0.095295024
0.16011959
0.23603007
0.32435587
0.4265946
0.54445021
0.67976215
0.83447745
1.010762
1.2108561
1.4369281
1.6909939
1.9748632
2.2898596
2.6372229
3.017741
3.4310252
3.8755612
4.3479301
4.8406079
5.3415756
5.8365678
6.3119073
6.7557416
7.1582746
7.5115208
7.8091238
8.0462903
8.2199857
8.3290254
8.3739608
8.3564226
8.2782039
8.139565
7.9383089
7.6679882
7.3172956
6.8730422
6.3183773
5.6472846
4.8723995
4.0272139
3.1649791
2.3348742
1.5865425
0.96168713
0.48465448
0.1656851
-0.01973237
-0.089467593
-0.065807383
0.029579868
0.17755635
0.36229513
0.57111057
0.79411285
1.0238211
1.2557425
1.48375
1.7055966
1.9196002
2.124659
2.3199892
2.5051717
2.6799954
2.844435
2.9985668
3.142509
3.2763481
3.3998012
3.5151207
3.6204884
3.7164175
3.8031894
3.8808834
3.9496342
4.0094717
4.0604416
4.1024944
4.135903
4.1645979
-0.14508856
-0.15914365
-0.16834295
-0.17701404
-0.18510742
-0.19238423
-0.19862307
-0.20358876
-0.20703918
-0.20872881
-0.20830778
-0.20533495
-0.19935672
-0.18986977
-0.17627986
-0.1579063
-0.13402164
-0.10382386
-0.06637964
-0.020621153
0.034622219
0.10062978
0.17885739
0.27094199
0.37874614
0.50436311
0.65011981
0.81864616
1.0127505
1.23526
1.4888581
1.7761722
2.0988014
2.4591414
2.8591779
3.2996396
3.7814892
4.3033666
4.8566574
5.4242044
5.9862657
6.5250233
7.0262976
7.4792083
7.8752224
8.2075085
8.4708671
8.6622262
8.7812358
8.8300594
8.8127666
8.7338211
8.5958744
8.3979206
8.1322396
7.7815118
7.3220149
6.717802
5.9475429
5.0209977
3.9828374
2.9249626
1.9092085
1.008187
0.28008699
-0.24719042
-0.55814295
-0.70364631
-0.71261506
-0.61731975
-0.44730411
-0.22649103
0.026370345
0.29700901
0.57510642
0.85345213
1.126045
1.3893575
1.6415658
1.8814336
2.1083726
2.3221363
2.5228195
2.7106634
2.8860243
3.0493037
3.2009016
3.3412016
3.4705224
3.589777
3.6988287
3.7979189
3.8873355
3.9672564
4.0378794
4.0993192
4.1516416
4.1948667
4.2292436
4.2588062
-0.17124752
-0.185826
-0.19611593
-0.20629204
-0.21637793
-0.22612884
-0.23530509
-0.24372712
-0.25118765
-0.25740544
-0.26203138
-0.2646724
-0.26489883
-0.26219042
-0.25596016
-0.24557497
-0.23031255
-0.2093324
-0.18167494
-0.14627103
-0.10191608
-0.047257042
0.019240555
0.099316504
0.1949776
0.30856504
0.44279866
0.60078331
0.7859431
1.0019798
1.2523713
1.5408405
1.8687223
2.2401195
2.6582143
3.1241869
3.6442181
4.224039
4.853175
5.5044304
6.148557
6.7624436
7.3297165
7.8393011
8.2828002
8.6529455
8.943669
9.151354
9.2764513
9.3235239
9.3001941
9.2156347
9.076864
8.8867542
8.6389757
8.3104034
7.8608384
7.2218791
6.3395681
5.212946
3.9060639
2.57486
1.3114885
0.21732268
-0.62950968
-1.2017852
-1.4665456
-1.5404462
-1.4547809
-1.2574977
-0.987491
-0.67345189
-0.33678546
0.0072806048
0.34875429
0.68222362
1.000129
1.3015652
1.5859436
1.8528144
2.1022728
2.3347775
2.5510369
2.7518016
2.9379078
3.110108
3.2691326
3.415686
3.5501777
3.6735198
3.7860334
3.8880762
3.9799674
4.0620007
4.1344244
4.1973902
4.2510282
4.2953971
4.3307346
4.3613004
-0.19809377
-0.21310449
-0.22454121
-0.23634971
-0.24853179
-0.26086814
-0.2731888
-0.28533449
-0.29706556
-0.30808962
-0.31812876
-0.3268243
-0.33372159
-0.33832699
-0.34010883
-0.33845789
-0.33264194
-0.32181041
-0.30500608
-0.28115416
-0.2490297
-0.20723861
-0.15422002
-0.088171585
-0.0069747852
0.091928247
0.21157579
0.35554477
0.52796512
0.73369394
0.97710803
1.2636707
1.5937199
1.9739635
2.4043181
2.8900127
3.4448925
4.0927907
4.8207963
5.5792586
6.324169
7.0258196
7.6665077
8.2377589
8.7330826
9.1444688
9.4634375
9.6846028
9.8089792
9.8442757
9.8028914
9.7011195
9.5535586
9.3715967
9.1563187
8.8838305
8.4909754
7.8557657
6.8561732
5.454435
3.7321608
2.0021207
0.40908841
-0.90934038
-1.8609118
-2.3551776
-2.6000601
-2.5606459
-2.3307727
-1.9913505
-1.5899469
-1.1587084
-0.72076842
-0.29109754
0.12167001
0.51724885
0.88319848
1.2251449
1.5429519
1.8373472
2.1094221
2.360462
2.5919241
2.8051599
3.0014819
3.1820951
3.3480684
3.5005515
3.6395569
3.7667022
3.8823971
3.9871207
4.0812732
4.1652224
4.2393047
4.3036873
4.3585885
4.4040529
4.4403229
4.4720442
-0.22510559
-0.24052124
-0.25317423
-0.26668521
-0.28103482
-0.29611708
-0.31178491
-0.32783658
-0.34405535
-0.36019926
-0.37600348
-0.39112363
-0.40513292
-0.41759298
-0.42803117
-0.43583962
-0.4402839
-0.44054931
-0.43568754
-0.42460336
-0.40607804
-0.37874534
-0.34103889
-0.29112556
-0.22685492
-0.14559745
-0.044102325
0.081634744
0.2364817
0.42678976
0.65792833
0.93903806
1.2654932
1.6558574
2.0819506
2.5639457
3.1470391
3.8847412
4.7505515
5.6489693
6.5162966
7.3158512
8.0329818
8.6677423
9.2189441
9.6766914
10.026227
10.257094
10.370062
10.377064
10.297202
10.155621
9.9782401
9.7913306
9.61571
9.4422839
9.1850884
8.6381214
7.5350917
5.7666538
3.5642529
1.5898357
-0.51540551
-2.4760694
-3.6087992
-4.0117626
-4.0840329
-3.808332
-3.3507684
-2.8177073
-2.2485421
-1.6730669
-1.1153716
-0.58795322
-0.09371986
0.36277039
0.78144844
1.1655257
1.5172074
1.8388937
2.1329802
2.4018012
2.6476021
2.872421
3.0781227
3.2662814
3.438298
3.5951896
3.7389439
3.8696293
3.9881477
4.0951919
4.1913131
4.2769576
4.3525011
4.4181589
4.4742423
4.5207475
4.5579196
4.5909769
-0.25176239
-0.26765817
-0.28147389
-0.29673902
-0.31339778
-0.33137108
-0.35051207
-0.37062346
-0.39155099
-0.41308669
-0.43495588
-0.4568432
-0.47840009
-0.49924692
-0.51892842
-0.53688317
-0.55241807
-0.56472348
-0.57287183
-0.57578665
-0.57227206
-0.56099754
-0.54042978
-0.50878417
-0.46399416
-0.40353196
-0.32417492
-0.22166861
-0.090465948
0.077578552
0.29037456
0.56150713
0.87513337
1.2883522
1.6986493
2.1305101
2.7016442
3.5618024
4.6264726
5.7120023
6.7308307
7.6308146
8.4118373
9.1066063
9.7211023
10.236837
10.623632
10.860599
10.948105
10.90286
10.751598
10.529659
10.277973
10.043558
9.8839656
9.8442051
9.8457228
9.5825305
8.5015595
6.4959341
3.8467649
0.48244299
-1.9987527
-3.7165784
-5.0151197
-6.0572753
-6.0164094
-5.2590655
-4.5092623
-3.7306504
-2.9521124
-2.2022121
-1.506796
-0.87225261
-0.29008639
0.23161924
0.7031131
1.1289968
1.5136755
1.8614474
2.1761611
2.4613159
2.7200673
2.9551588
3.1690186
3.3636955
3.5409667
3.702275
3.8491946
3.9826181
4.1034092
4.2123519
4.3100868
4.3971271
4.4738873
4.5406682
4.597829
4.6452854
4.6833355
4.7179633
-0.27753042
-0.29395733
-0.30889954
-0.32600935
-0.34509495
-0.36603255
-0.38875402
-0.41310381
-0.43893326
-0.46604526
-0.49422016
-0.52321186
-0.55273133
-0.58244316
-0.61192337
-0.64067752
-0.66809591
-0.69337175
-0.71559229
-0.73373177
-0.74663054
-0.75298127
-0.75131554
-0.73998742
-0.71717089
-0.68068694
-0.62772806
-0.55433861
-0.4547257
-0.31984405
-0.13260012
0.11681244
0.42494315
0.93812021
2.1155352
3.514555
2.6182713
3.0669032
4.3990706
5.7550273
6.965998
7.9502817
8.7555451
9.4972137
10.190754
10.794924
11.239831
11.484839
11.531568
11.401926
11.130865
10.76252
10.352729
9.9708857
9.7194437
9.7727981
10.175774
10.479081
9.3662743
6.0219031
1.1865162
-2.9512715
-5.8388122
-7.8875768
-8.6753142
-8.3589255
-7.3564793
-6.780942
-5.7712697
-4.7048313
-3.6815831
-2.7254093
-1.8767656
-1.125584
-0.45815578
0.13228626
0.65603347
1.1219511
1.5375092
1.9090132
2.242063
2.5414332
2.8111547
3.0547418
3.2752003
3.4750393
3.6563907
3.8209106
3.9702914
4.1057212
4.2281741
4.3385121
4.4374582
4.5255656
4.6032852
4.6709907
4.7290898
4.777398
4.8162686
4.8526798
-0.30179248
-0.3188521
-0.33497376
-0.35396547
-0.37552233
-0.39950134
-0.4259254
-0.45464414
-0.4854933
-0.51833489
-0.55303137
-0.58940915
-0.62723054
-0.6662074
-0.70600947
-0.74619682
-0.78623784
-0.82538194
-0.86273821
-0.89732001
-0.92799091
-0.95346569
-0.97236326
-0.98323109
-0.98461965
-0.97502546
-0.9526376
-0.91500679
-0.8583939
-0.77771617
-0.63959251
-0.46055154
-0.14089147
2.0774368
3.2158288
4.0824064
4.7145031
2.536921
4.0554744
5.7895859
7.2437105
8.2147287
8.9100731
9.6958757
10.534692
11.309525
11.861572
12.123535
12.110501
11.85718
11.401892
10.792576
10.089281
9.3571495
8.70088
8.5301212
9.3040404
10.22089
8.4633053
2.1550911
-5.0586451
-10.782931
-13.644754
-14.323764
-13.499892
-12.157194
-10.55973
-8.5302572
-6.9372571
-5.7984658
-4.4408452
-3.2234587
-2.2086429
-1.336171
-0.58016027
0.075994639
0.64852307
1.1508262
1.5935513
1.9853486
2.3335448
2.6442017
2.9223684
3.1722363
3.397372
3.6006896
3.7846007
3.9512315
4.1021736
4.2388143
4.3622619
4.4734586
4.5731708
4.6619775
4.7403713
4.8087769
4.8676768
4.9167256
4.9563273
4.9946566
-0.3239596
-0.34184303
-0.3591536
-0.3800247
-0.40411127
-0.43122646
-0.46141211
-0.49453668
-0.53049106
-0.56920397
-0.61057793
-0.65451008
-0.70086069
-0.74945253
-0.80001942
-0.85222526
-0.90559813
-0.95948708
-1.0130494
-1.0652866
-1.1150549
-1.1610953
-1.2020758
-1.2367478
-1.264068
-1.2835001
-1.2949492
-1.299075
-1.298588
-1.2912639
-1.2388213
-1.1955594
-0.60667915
2.4915375
2.523075
2.7576217
3.0393779
1.4794445
3.4826642
5.8153441
7.5487744
8.3251322
8.6629071
9.4015958
10.565665
11.709204
12.459696
12.768889
12.696179
12.281645
11.5647
10.582763
9.3786826
7.9620205
6.2592197
4.9245862
5.5186707
6.7554982
3.7497516
-5.6925279
-15.597962
-22.564707
-25.639563
-24.937864
-21.48362
-17.177343
-13.562733
-10.739158
-8.2199896
-6.9523287
-5.2323311
-3.668309
-2.4903338
-1.4855447
-0.64287545
0.073342208
0.6887032
1.2216736
1.6863146
2.0937412
2.4529746
2.7713595
3.0548292
3.3083383
3.5359282
3.7408737
3.92582
4.0931647
4.2445976
4.3815978
4.5053341
4.6168016
4.7168002
4.8059386
4.8847144
4.9535977
5.0131365
5.062811
5.1030827
5.143366
-0.34353295
-0.36237357
-0.38086651
-0.40366804
-0.43034884
-0.46062289
-0.49456493
-0.53210423
-0.57319227
-0.61781631
-0.66593921
-0.71750963
-0.77252196
-0.83095649
-0.89265177
-0.95736808
-1.024755
-1.094267
-1.1650903
-1.2362207
-1.3064697
-1.3745136
-1.4389902
-1.4987257
-1.5529818
-1.602151
-1.6483367
-1.6980492
-1.7630065
-1.8278248
-1.8679108
-1.9315068
-1.3034879
1.6879388
1.3212765
0.9504709
-0.4632346
-0.2179377
1.9540282
4.9684812
7.2090943
7.1707742
6.4897429
7.4599236
9.7493532
11.835817
13.002963
13.440808
13.335606
12.735041
11.68134
10.186795
8.2146232
5.5688469
1.7095426
-2.4180671
-3.2479789
-2.1115626
-5.3375072
-16.365954
-27.731806
-35.944552
-39.296956
-37.793662
-31.794653
-23.532384
-16.949985
-12.856051
-9.4132032
-7.5373457
-5.9567722
-4.0061414
-2.6482999
-1.5454671
-0.63099586
0.13482306
0.78414655
1.339976
1.8197396
2.2369703
2.6022403
2.9240416
3.2092113
3.4633146
3.6908171
3.8953468
4.0796294
4.2462747
4.3970751
4.5335303
4.6568373
4.7679931
4.8678058
4.9568976
5.035756
5.1049105
5.1649108
5.2150811
5.2559485
5.2982095
-0.36002674
-0.37990342
-0.39963267
-0.42441027
-0.45368805
-0.4870869
-0.52476338
-0.56670633
-0.61287441
-0.66330326
-0.71808842
-0.77731128
-0.8410574
-0.90943243
-0.98249042
-1.0601162
-1.1421144
-1.2280881
-1.3172556
-1.4085833
-1.5008233
-1.5924872
-1.6819777
-1.7678402
-1.8493734
-1.9277173
-2.0065981
-2.0969008
-2.2222573
-2.3496365
-2.4434696
-2.5524779
-2.7780119
-2.3470721
-2.5272765
-3.2489744
-4.0108234
-4.4107292
-3.5292455
0.91732497
2.9261702
0.85538327
0.58708551
2.7647553
7.7766139
11.662374
13.568039
14.254121
14.13801
13.342672
11.917944
9.8476722
6.8942522
2.4591068
-4.5935275
-13.363096
-17.587691
-18.332003
-20.960961
-28.481323
-38.381986
-46.095273
-50.025236
-49.029294
-41.755834
-29.973277
-20.223426
-14.483998
-10.414172
-7.8073253
-6.4208875
-4.2654305
-2.7117729
-1.5071504
-0.53292476
0.2697378
0.9415271
1.5104347
1.9970849
2.4170439
2.7824406
3.1027349
3.385537
3.6368455
3.8614716
4.0631477
4.24519
4.4097546
4.558795
4.6938148
4.8159985
4.9262829
5.0254632
5.1141472
5.1928127
5.2620341
5.32234
5.3728673
5.4142296
5.4584652
-0.37296686
-0.39401415
-0.41500672
-0.44173205
-0.47358459
-0.51009841
-0.55145615
-0.59768052
-0.64876852
-0.70483543
-0.7660798
-0.83275904
-0.90513109
-0.98344547
-1.0679438
-1.1587747
-1.2558712
-1.3590442
-1.4676833
-1.5806746
-1.6966598
-1.8139357
-1.9303912
-2.0438795
-2.1529442
-2.2586106
-2.365817
-2.4909214
-2.6643112
-2.8485075
-2.9717962
-3.0647724
-3.2058359
-3.1472806
-3.5778494
-5.1636368
-8.6410524
-12.012835
-13.360172
-7.7145991
-6.243648
-10.404376
-16.739535
-6.8816437
4.604068
11.145059
14.244715
15.38703
15.273102
14.284402
12.560554
10.031234
6.1563166
-0.35495162
-11.124519
-26.015261
-39.115062
-42.573322
-40.225546
-39.062087
-44.393346
-50.246904
-54.139521
-54.247752
-47.348852
-33.881621
-22.259461
-15.847129
-11.806449
-8.4891555
-6.5045264
-4.2592659
-2.6078008
-1.342184
-0.33335095
0.48750858
1.1669736
1.7368972
2.2205162
2.6351013
2.9938774
3.307193
3.5831357
3.8280309
4.0468993
4.2436375
4.4213972
4.5824505
4.7286455
4.8613997
4.9818124
5.0907352
5.1889009
5.2768564
5.3550751
5.4241641
5.4846471
5.5353827
5.5771283
5.6233666
-0.3819416
-0.40428448
-0.42650842
-0.45517002
-0.48960175
-0.52919124
-0.57410536
-0.62439783
-0.68013619
-0.74155078
-0.80894322
-0.88270354
-0.96331594
-1.0513136
-1.1471536
-1.251251
-1.3638297
-1.4848957
-1.6141576
-1.7505163
-1.8924141
-2.0378566
-2.1841108
-2.3279078
-2.4663218
-2.5986271
-2.729402
-2.8783823
-3.0833747
-3.3274552
-3.4969228
-3.5879586
-3.6195861
-3.4531639
-3.9209972
-6.6120453
-12.789481
-20.479804
-21.747795
-12.435125
-5.174145
32.226863
18.842495
-6.138974
3.3630446
11.361972
15.625998
17.147518
16.941795
15.774774
13.921758
11.278906
7.0412467
-1.018483
-15.384441
-36.211403
-57.844404
-42.317874
-46.130963
-40.479873
-44.180326
-49.194502
-52.384457
-52.298384
-45.91354
-33.918235
-22.952401
-16.315271
-12.187349
-8.9284652
-6.1906476
-3.9574868
-2.2985717
-1.0270505
-0.018561675
0.79611558
1.4650265
2.0218481
2.4911445
2.8911831
3.2359631
3.5363292
3.800569
4.0352318
4.2453395
4.4347725
4.6065105
4.7627734
4.905178
5.034958
5.1530599
5.2602327
5.3570944
5.4440906
5.5216506
5.5904288
5.6509471
5.7017657
5.7438298
5.7920902
-0.38649823
-0.41024115
-0.43374716
-0.46438274
-0.50139582
-0.54394563
-0.59221448
-0.64632417
-0.70637917
-0.77267088
-0.84564302
-0.92588872
-1.0141402
-1.111241
-1.2180084
-1.335178
-1.4633793
-1.6029578
-1.7539752
-1.9156175
-2.0861721
-2.2632655
-2.4435098
-2.6224146
-2.7949687
-2.957259
-3.1100415
-3.2686658
-3.4733187
-3.7322055
-3.9276197
-3.9903787
-3.884678
-3.5157967
-3.7348905
-6.5740194
-13.082423
-20.22433
-18.521045
-11.346077
-1.7624392
25.670211
20.118571
9.9195921
11.249358
15.872453
19.098712
20.09634
19.406304
17.957979
16.213202
14.206571
10.954647
1.8127939
-17.091281
-42.955577
-46.432898
-40.37945
-25.395735
-34.941959
-40.615615
-44.528548
-46.137488
-44.730448
-38.911362
-29.714775
-21.171609
-15.542065
-11.581546
-8.3013514
-5.533155
-3.3847174
-1.7843487
-0.55547825
0.41708046
1.1992548
1.8376924
2.3658788
2.8085567
3.1841997
3.5070694
3.7880759
4.0355643
4.2560154
4.454368
4.6342567
4.7983851
4.9487278
5.0865699
5.212855
5.3282953
5.4334726
5.528851
5.6147445
5.6915037
5.7598637
5.8203151
5.8711143
5.9134375
5.9636672
-0.38620611
-0.4115338
-0.43643447
-0.46907966
-0.508649
-0.55405498
-0.60548576
-0.66310379
-0.72701093
-0.79754035
-0.87529443
-0.96112404
-1.0560824
-1.1613626
-1.2782332
-1.4079308
-1.551598
-1.7100598
-1.8838373
-2.0727325
-2.2751719
-2.4885621
-2.7090379
-2.9309031
-3.1467889
-3.3486517
-3.5301262
-3.6930376
-3.8633467
-4.0700166
-4.2489314
-4.2469485
-3.9398581
-3.2861683
-2.8704997
-4.2283867
-8.3930313
-10.49972
-16.839768
-27.342541
-21.86809
-18.334969
8.6993432
5.9124433
16.439279
23.12056
25.158508
24.625496
22.73642
20.533876
19.109474
19.008591
18.449167
9.0583414
-25.149291
-76.560122
-48.335473
-33.872932
-26.244222
-33.853008
-33.254491
-35.873473
-36.989016
-34.864273
-30.151448
-23.913874
-18.103637
-13.728227
-10.215988
-7.1285337
-4.5412156
-2.5646359
-1.0786403
0.066814229
0.97140695
1.6958693
2.2838739
2.7675481
3.170798
3.511752
3.8043746
4.0593461
4.2848802
4.4871661
4.6708429
4.839111
4.9942652
5.1378033
5.2705885
5.3931539
5.5058525
5.6089876
5.7028303
5.7875768
5.8635191
5.9314239
5.9917262
6.0423833
6.0848674
6.1369733
-0.38074162
-0.40793843
-0.43435393
-0.46904484
-0.51118795
-0.55941311
-0.61383215
-0.67456865
-0.74170293
-0.81563965
-0.89716907
-0.98739514
-1.0877169
-1.1997625
-1.3254055
-1.4665254
-1.6249527
-1.8022248
-1.9996128
-2.2176389
-2.4554555
-2.7108186
-2.9797779
-3.2559427
-3.5302495
-3.7909413
-4.0246858
-4.219236
-4.391605
-4.584929
-4.7444266
-4.6662906
-4.085536
-2.9112027
-1.2940132
-0.1789734
-0.24905918
-1.9845904
-4.2069708
-36.250504
-16.319752
-55.221291
-24.908424
-19.875442
15.011122
28.508738
31.760363
30.305561
26.533544
21.934999
20.976829
25.565688
34.425733
37.38201
10.445421
-39.859767
37.896909
59.631161
22.749501
-19.113469
-20.14537
-26.095029
-28.41352
-26.948808
-23.393304
-19.12847
-15.089731
-11.510251
-8.3550637
-5.5690757
-3.2770564
-1.5257073
-0.19808057
0.8291548
1.6375873
2.2812604
2.7999217
3.2234795
3.5744604
3.8701231
4.1238259
4.3458897
4.544183
4.724496
4.8906882
5.0455585
5.1907434
5.3270389
5.4546935
5.5736604
5.6838213
5.7851192
5.8775853
5.9613
6.0364967
6.1039502
6.1640493
6.2144442
6.2569807
6.3108564
-0.3697573
-0.3992047
-0.4273444
-0.46423821
-0.5091019
-0.56016698
-0.61738511
-0.68080124
-0.75045149
-0.8267884
-0.91077752
-1.0037922
-1.1076217
-1.2244704
-1.3568543
-1.5075675
-1.6793456
-1.8747038
-2.0959467
-2.3447915
-2.6215434
-2.9249489
-3.2519129
-3.596471
-3.9494822
-4.2977948
-4.6245842
-4.9078834
-5.1677352
-5.4520748
-5.7052382
-5.6895218
-4.8415477
-3.1136509
0.19555115
4.6965089
8.9146856
11.918475
17.50607
-0.80708222
26.731383
43.503153
11.671008
-19.133334
41.019605
46.291091
42.903637
37.589995
30.826263
19.672102
16.929436
27.168083
41.049169
54.974937
62.531452
60.980191
7.1635613
-12.078955
15.666857
-13.622038
-11.597595
-18.756365
-21.552645
-21.872265
-19.473302
-15.923698
-12.424076
-9.1738765
-6.2916382
-3.8146321
-1.822851
-0.31359176
0.83246603
1.7162912
2.4055805
2.9482516
3.3801244
3.7286115
4.0146361
4.2542953
4.4601954
4.6421615
4.8080409
4.9625572
5.1088243
5.2489858
5.3837537
5.5129425
5.6359235
5.7518802
5.8600626
5.9600071
6.051508
6.1344901
6.209102
6.2761929
6.3361142
6.3862246
6.4287831
6.4843002
-0.35292255
-0.38509758
-0.41534962
-0.45479562
-0.5027054
-0.55676214
-0.61665878
-0.6823361
-0.75374307
-0.83127984
-0.91601607
-1.0096513
-1.1144753
-1.2334269
-1.3698437
-1.5274844
-1.7102998
-1.9221223
-2.1665526
-2.4470565
-2.765718
-3.1228568
-3.5174612
-3.9454056
-4.3987325
-4.8650953
-5.331387
-5.7639533
-6.1803543
-6.6193004
-7.0347915
-7.0696301
-5.8135018
-3.2432384
0.83213399
5.7781902
12.519368
22.29547
44.618872
80.039189
18.729645
25.186072
15.760163
-20.152674
2.2441996
53.971578
44.819438
219.223
430.36059
741.60456
902.71998
651.26301
374.11864
148.72642
34.173931
33.15219
-16.430267
-20.022187
9.4163972
-20.407398
-10.23971
-9.7716821
-14.252302
-17.105954
-16.650025
-13.398329
-9.7860317
-6.7124364
-4.1150972
-1.9397049
-0.23636745
1.0331542
1.9863871
2.71059
3.2632541
3.6879054
4.017293
4.2766231
4.4852469
4.6581939