/*--------------------------------*- C++ -*----------------------------------*\
  =========                 |
  \\      /  F ield         | OpenFOAM: The Open Source CFD Toolbox
   \\    /   O peration     | Website:  https://openfoam.org
    \\  /    A nd           | Version:  9
     \\/     M anipulation  |
\*---------------------------------------------------------------------------*/
FoamFile
{
    format      ascii;
    class       volVectorField;
    location    "0.52";
    object      U;
}
// * * * * * * * * * * * * * * * * * * * * * * * * * * * * * * * * * * * * * //

dimensions      [0 1 -1 0 0 0 0];

internalField   nonuniform List<vector> 
10000
(
(0.0068789392 -0.0045296718 0)
(0.01348467 -0.0044780049 0)
(0.018251634 -0.0044425458 0)
(0.022581691 -0.0043720459 0)
(0.027389845 -0.0043098109 0)
(0.031964822 -0.0042235588 0)
(0.036501101 -0.0041371693 0)
(0.040987114 -0.0040419023 0)
(0.045413631 -0.0039446724 0)
(0.049767748 -0.0038450347 0)
(0.054051411 -0.0037447494 0)
(0.05825554 -0.0036478639 0)
(0.06238779 -0.0035482919 0)
(0.066449094 -0.0034656811 0)
(0.070424004 -0.0033902306 0)
(0.074316327 -0.0033256682 0)
(0.07812744 -0.0032741513 0)
(0.081852906 -0.0032376048 0)
(0.08549371 -0.0032138972 0)
(0.089054433 -0.0032063066 0)
(0.092525375 -0.0032199528 0)
(0.095899448 -0.0032464768 0)
(0.099191933 -0.0032778025 0)
(0.10239514 -0.0033208387 0)
(0.10549574 -0.0033668703 0)
(0.10848631 -0.0034075669 0)
(0.11135578 -0.0034239 0)
(0.11410362 -0.0034023888 0)
(0.11670379 -0.0033376259 0)
(0.11912506 -0.0032121095 0)
(0.12133988 -0.0030168827 0)
(0.12330075 -0.0027412434 0)
(0.12495277 -0.002382497 0)
(0.12620474 -0.0019127855 0)
(0.12697699 -0.0013010333 0)
(0.12720132 -0.00050920967 0)
(0.12688872 0.00046832461 0)
(0.12599429 0.0015690628 0)
(0.12442778 0.0028376014 0)
(0.1221731 0.0042371873 0)
(0.11919872 0.005752504 0)
(0.11552561 0.0073636886 0)
(0.1111918 0.0090110025 0)
(0.1062775 0.010633399 0)
(0.10088804 0.012142784 0)
(0.095129913 0.013448803 0)
(0.089131778 0.014466374 0)
(0.083041902 0.015138171 0)
(0.077023823 0.015413121 0)
(0.071278473 0.015270434 0)
(0.065971467 0.01469663 0)
(0.061248557 0.013724312 0)
(0.057262959 0.012386706 0)
(0.054141778 0.010755813 0)
(0.05194316 0.0089187667 0)
(0.050693669 0.0069793512 0)
(0.050359617 0.005037761 0)
(0.050838228 0.0032006212 0)
(0.051975256 0.0015538968 0)
(0.053482721 0.00014669008 0)
(0.05520438 -0.00082177761 0)
(0.057029072 -0.0013926878 0)
(0.05869048 -0.0016053167 0)
(0.059877849 -0.0015077531 0)
(0.060328993 -0.0011035092 0)
(0.05993795 -0.00041025013 0)
(0.058881789 0.00053487789 0)
(0.057116609 0.0014618135 0)
(0.054411552 0.0023882012 0)
(0.050835373 0.0032820529 0)
(0.046503624 0.0041255245 0)
(0.041540179 0.0049020283 0)
(0.036086911 0.0055990892 0)
(0.030322563 0.0062202317 0)
(0.024435749 0.0067249191 0)
(0.018546266 0.0070696716 0)
(0.012729766 0.0072603316 0)
(0.0070906419 0.0073196051 0)
(0.0016847264 0.0072557033 0)
(-0.0033257531 0.0070991224 0)
(-0.0078743201 0.0068353865 0)
(-0.011975818 0.0064879708 0)
(-0.015548003 0.0060854557 0)
(-0.018530399 0.0056409665 0)
(-0.020877431 0.0051337989 0)
(-0.022643156 0.0045582002 0)
(-0.023876069 0.003932151 0)
(-0.024602513 0.0032657254 0)
(-0.024838069 0.0025801819 0)
(-0.024602805 0.0018741441 0)
(-0.023938929 0.0011322325 0)
(-0.02302289 0.00034478779 0)
(-0.021932788 -0.00031936482 0)
(-0.020500762 -0.00085714522 0)
(-0.018679332 -0.0013049195 0)
(-0.016522621 -0.0016888773 0)
(-0.013933241 -0.0019877131 0)
(-0.011638817 -0.0022334673 0)
(-0.0082206063 -0.002416546 0)
(-0.0045944007 -0.0025696912 0)
(0.0069289989 -0.011146176 0)
(0.013571499 -0.011040013 0)
(0.018356639 -0.010973683 0)
(0.022708941 -0.010848386 0)
(0.027530161 -0.010736018 0)
(0.032126231 -0.01059575 0)
(0.036669408 -0.010447559 0)
(0.041163713 -0.010285193 0)
(0.045593255 -0.010117164 0)
(0.049949938 -0.0099458219 0)
(0.054231234 -0.0097666321 0)
(0.058436408 -0.0095947234 0)
(0.062557688 -0.0094079653 0)
(0.066600313 -0.0092395625 0)
(0.070564072 -0.0090689116 0)
(0.074441772 -0.0089109838 0)
(0.078235461 -0.0087582881 0)
(0.081943404 -0.0086151595 0)
(0.085565383 -0.0084865243 0)
(0.089099878 -0.0083669779 0)
(0.092547526 -0.0082574147 0)
(0.095912395 -0.0081536118 0)
(0.099193634 -0.0080559547 0)
(0.10238439 -0.0079614078 0)
(0.10548504 -0.0078548273 0)
(0.1084985 -0.0077315639 0)
(0.11141753 -0.0075726435 0)
(0.11422794 -0.0073588468 0)
(0.1169105 -0.0070791587 0)
(0.11944496 -0.0067013649 0)
(0.12180207 -0.0062022515 0)
(0.1239261 -0.0055596417 0)
(0.12577555 -0.0047449038 0)
(0.12728364 -0.0037141547 0)
(0.1283778 -0.002432249 0)
(0.12895698 -0.00085395957 0)
(0.12892276 0.0010235003 0)
(0.12826313 0.0031185505 0)
(0.12692335 0.0054465382 0)
(0.12482852 0.0079647227 0)
(0.12195572 0.010612657 0)
(0.11829564 0.013299243 0)
(0.11386374 0.015935337 0)
(0.10872817 0.01841648 0)
(0.1029802 0.02061234 0)
(0.096745149 0.02241054 0)
(0.09018403 0.023703636 0)
(0.083475288 0.024387013 0)
(0.076811619 0.02441707 0)
(0.070410745 0.023757227 0)
(0.064469342 0.022406176 0)
(0.059164261 0.02040608 0)
(0.054684709 0.017832225 0)
(0.051192098 0.014802403 0)
(0.048760006 0.011454387 0)
(0.047427018 0.0079870626 0)
(0.047177316 0.0045813621 0)
(0.047899947 0.0014409818 0)
(0.049405733 -0.0012455033 0)
(0.051522396 -0.0033297674 0)
(0.053992609 -0.0045969608 0)
(0.056492874 -0.0050765606 0)
(0.05874709 -0.004818747 0)
(0.060486054 -0.0039260268 0)
(0.061480735 -0.0024636706 0)
(0.061599259 -0.00051132549 0)
(0.060764044 0.0017986368 0)
(0.058980098 0.0041168961 0)
(0.056242749 0.0063372117 0)
(0.052574843 0.0084094371 0)
(0.048108985 0.010279853 0)
(0.042979007 0.011891123 0)
(0.037348383 0.013222889 0)
(0.031369572 0.014270873 0)
(0.025190042 0.015020348 0)
(0.01897998 0.015435743 0)
(0.012880374 0.015534661 0)
(0.0069962134 0.015355454 0)
(0.0013896399 0.014929776 0)
(-0.0038014339 0.014322159 0)
(-0.0085189742 0.013514236 0)
(-0.012737344 0.012583038 0)
(-0.016388546 0.011549854 0)
(-0.019462162 0.010443022 0)
(-0.021929129 0.0092461702 0)
(-0.023803965 0.0079575365 0)
(-0.025120055 0.0065966324 0)
(-0.025902678 0.0051870786 0)
(-0.026177491 0.0037515725 0)
(-0.026000803 0.0022838718 0)
(-0.025421666 0.00078386059 0)
(-0.024433144 -0.0006732489 0)
(-0.023098993 -0.0019591736 0)
(-0.021457052 -0.0030276511 0)
(-0.019487787 -0.0039349035 0)
(-0.01718687 -0.0047031221 0)
(-0.014464558 -0.0053347544 0)
(-0.012061863 -0.0058604149 0)
(-0.008551822 -0.0062606424 0)
(-0.0047518057 -0.0065905084 0)
(0.0069973313 -0.015626586 0)
(0.013658654 -0.015492975 0)
(0.018461696 -0.015384429 0)
(0.022840196 -0.015224121 0)
(0.027670156 -0.015059737 0)
(0.032287577 -0.01486245 0)
(0.036849727 -0.014653881 0)
(0.041358662 -0.014429322 0)
(0.045797354 -0.014186151 0)
(0.050165583 -0.013936115 0)
(0.054451682 -0.013676904 0)
(0.058665138 -0.013412332 0)
(0.062793683 -0.01314228 0)
(0.066838806 -0.012876438 0)
(0.070801339 -0.012611036 0)
(0.074672778 -0.012356447 0)
(0.078464567 -0.012104233 0)
(0.08216073 -0.011862158 0)
(0.085772553 -0.011633197 0)
(0.089308059 -0.011419853 0)
(0.092757011 -0.011216283 0)
(0.096113882 -0.011025592 0)
(0.099392073 -0.010839173 0)
(0.10260003 -0.010654141 0)
(0.10572695 -0.010456151 0)
(0.10877049 -0.010232113 0)
(0.11173467 -0.0099652691 0)
(0.11461255 -0.0096352829 0)
(0.11739258 -0.009211176 0)
(0.12005528 -0.0086587008 0)
(0.12256117 -0.0079428978 0)
(0.12486661 -0.007036916 0)
(0.12694059 -0.0058958094 0)
(0.12870069 -0.0044761216 0)
(0.13007182 -0.0027715378 0)
(0.13095538 -0.000755334 0)
(0.13123604 0.0015906256 0)
(0.1308778 0.0043006368 0)
(0.12982517 0.0073133307 0)
(0.12797762 0.010577102 0)
(0.12525444 0.014024674 0)
(0.12163768 0.017541572 0)
(0.11713713 0.020996769 0)
(0.11178645 0.024246414 0)
(0.10567504 0.027135781 0)
(0.098929847 0.029484795 0)
(0.091696306 0.0311576 0)
(0.08419125 0.032029228 0)
(0.076660663 0.032022755 0)
(0.069357053 0.031090343 0)
(0.062541079 0.029239106 0)
(0.056437243 0.026519939 0)
(0.051276815 0.023034261 0)
(0.047253794 0.018966515 0)
(0.04451815 0.014487558 0)
(0.043133956 0.0098776424 0)
(0.043073766 0.0053921537 0)
(0.044228305 0.0013432025 0)
(0.046401915 -0.0020258727 0)
(0.049358478 -0.0044870664 0)
(0.052749 -0.0059756697 0)
(0.056180572 -0.0064199074 0)
(0.059296745 -0.0058421478 0)
(0.06177372 -0.0043596823 0)
(0.06336404 -0.0021350069 0)
(0.063892268 0.00063286216 0)
(0.063264511 0.0037165822 0)
(0.061463783 0.0069038675 0)
(0.058560288 0.0099730669 0)
(0.054672362 0.012796474 0)
(0.049911281 0.015271515 0)
(0.04443604 0.017334638 0)
(0.038443175 0.018939986 0)
(0.032115952 0.020065562 0)
(0.025607604 0.020738793 0)
(0.019068568 0.020993694 0)
(0.01265038 0.020850169 0)
(0.0064738787 0.020342267 0)
(0.00062356902 0.019513101 0)
(-0.0047856947 0.01842459 0)
(-0.0096735675 0.017111327 0)
(-0.014015034 0.015620779 0)
(-0.017774756 0.013999765 0)
(-0.020930327 0.012276752 0)
(-0.023466361 0.010479786 0)
(-0.025400741 0.0086209727 0)
(-0.026755672 0.0067286523 0)
(-0.027553841 0.0048325632 0)
(-0.027841597 0.0029506918 0)
(-0.02766302 0.0011119389 0)
(-0.026979247 -0.00064406789 0)
(-0.02584051 -0.0023009736 0)
(-0.024353172 -0.0038417796 0)
(-0.022535495 -0.0052094873 0)
(-0.020406695 -0.0064053483 0)
(-0.01796415 -0.0074295939 0)
(-0.015126123 -0.0083005591 0)
(-0.012594266 -0.0090147233 0)
(-0.0089599871 -0.0095450409 0)
(-0.0049545897 -0.0099939097 0)
(0.0070776374 -0.020409703 0)
(0.013787157 -0.020236855 0)
(0.018618105 -0.020090265 0)
(0.023021797 -0.019883141 0)
(0.027879789 -0.019660762 0)
(0.032521893 -0.019398395 0)
(0.037092586 -0.019122122 0)
(0.041621367 -0.018821046 0)
(0.046077301 -0.018506224 0)
(0.050451688 -0.018175196 0)
(0.054748754 -0.017838732 0)
(0.058967469 -0.017488893 0)
(0.063093696 -0.017141574 0)
(0.067136461 -0.016794365 0)
(0.071094474 -0.016454006 0)
(0.07496491 -0.016111671 0)
(0.078752123 -0.015781146 0)
(0.082443746 -0.015465265 0)
(0.086044676 -0.015153054 0)
(0.089561534 -0.014864132 0)
(0.092994537 -0.014590415 0)
(0.096350301 -0.014325077 0)
(0.099632469 -0.01407342 0)
(0.10284044 -0.013823613 0)
(0.10598378 -0.013569367 0)
(0.10906738 -0.013292432 0)
(0.11209 -0.01297042 0)
(0.11505114 -0.012574979 0)
(0.11794557 -0.012069008 0)
(0.1207606 -0.011418828 0)
(0.12346312 -0.010576337 0)
(0.12600744 -0.0094941883 0)
(0.12836606 -0.00811599 0)
(0.13043344 -0.0063977786 0)
(0.13212046 -0.0043043515 0)
(0.13333428 -0.0018047595 0)
(0.13398362 0.0011295306 0)
(0.13397931 0.0044883402 0)
(0.13318906 0.00824059 0)
(0.13153682 0.012311406 0)
(0.12894158 0.016591148 0)
(0.12532845 0.02096722 0)
(0.12067874 0.025276382 0)
(0.11502764 0.029325893 0)
(0.10842396 0.032917558 0)
(0.10100271 0.035834307 0)
(0.092968781 0.037873335 0)
(0.084549959 0.03889724 0)
(0.076019415 0.038770812 0)
(0.067688108 0.037437718 0)
(0.059866339 0.034920416 0)
(0.052843261 0.031274813 0)
(0.046948572 0.026630225 0)
(0.042411896 0.021171743 0)
(0.039417042 0.015247534 0)
(0.038087954 0.0091846118 0)
(0.038444011 0.0033789656 0)
(0.040356218 -0.0018214028 0)
(0.043520738 -0.0060804954 0)
(0.047546694 -0.0091369355 0)
(0.052046904 -0.010770159 0)
(0.056621787 -0.010933713 0)
(0.060804965 -0.0097090217 0)
(0.064188235 -0.0072617662 0)
(0.066463762 -0.0038504032 0)
(0.067439173 0.00021830349 0)
(0.067024113 0.0046402034 0)
(0.06522378 0.0091172922 0)
(0.062116616 0.013410762 0)
(0.05783863 0.017311391 0)
(0.052590925 0.020667367 0)
(0.046572115 0.023412661 0)
(0.039986868 0.025507023 0)
(0.033062394 0.026928753 0)
(0.026006401 0.027690817 0)
(0.018981836 0.027854867 0)
(0.012126755 0.027477453 0)
(0.0055677537 0.026619413 0)
(-0.00060725026 0.025341981 0)
(-0.006269836 0.023740443 0)
(-0.011376896 0.021866272 0)
(-0.015889627 0.019779665 0)
(-0.019761557 0.017539653 0)
(-0.023001361 0.015172558 0)
(-0.025594901 0.012750431 0)
(-0.027557315 0.010286865 0)
(-0.028903415 0.0078151263 0)
(-0.029668593 0.0053751868 0)
(-0.029881365 0.0029957619 0)
(-0.02957551 0.00071787152 0)
(-0.028813059 -0.0014283652 0)
(-0.027609807 -0.0034781007 0)
(-0.025987972 -0.0053957061 0)
(-0.02400348 -0.0071320294 0)
(-0.021693295 -0.0086645615 0)
(-0.019066654 -0.010003537 0)
(-0.016038733 -0.011144716 0)
(-0.013300964 -0.012070732 0)
(-0.0095061857 -0.012747911 0)
(-0.0052275651 -0.013366646 0)
(0.0071915797 -0.025231072 0)
(0.013950539 -0.025012304 0)
(0.018811099 -0.024836331 0)
(0.023259421 -0.024576571 0)
(0.028144111 -0.024298756 0)
(0.032817309 -0.023990041 0)
(0.037418044 -0.023648442 0)
(0.04196523 -0.023281629 0)
(0.046434798 -0.022895986 0)
(0.050825064 -0.022490951 0)
(0.055132161 -0.022071845 0)
(0.059358773 -0.021644858 0)
(0.063488021 -0.021216531 0)
(0.067529257 -0.020781717 0)
(0.071490847 -0.020348407 0)
(0.075357366 -0.019916759 0)
(0.079128175 -0.019501433 0)
(0.082811167 -0.019093427 0)
(0.086401231 -0.018705885 0)
(0.089904377 -0.018325556 0)
(0.093334776 -0.017963403 0)
(0.096673749 -0.017615632 0)
(0.099939482 -0.017292135 0)
(0.10315155 -0.016977075 0)
(0.10630548 -0.016663747 0)
(0.10941489 -0.016334265 0)
(0.11249387 -0.015970449 0)
(0.11555156 -0.015533754 0)
(0.11858444 -0.014981912 0)
(0.12158743 -0.014264736 0)
(0.12453386 -0.013316262 0)
(0.12738643 -0.012085554 0)
(0.13010856 -0.010481463 0)
(0.13259738 -0.0084566616 0)
(0.13476442 -0.0059383769 0)
(0.13650286 -0.0028884824 0)
(0.13764801 0.00073765988 0)
(0.13809497 0.0048955649 0)
(0.13772807 0.0095563262 0)
(0.13637386 0.014645038 0)
(0.133916 0.020024374 0)
(0.13028733 0.025535903 0)
(0.12542432 0.03098215 0)
(0.11933076 0.036122332 0)
(0.11207361 0.040686669 0)
(0.10377829 0.044420911 0)
(0.0946659 0.047050257 0)
(0.085020598 0.048382624 0)
(0.075156962 0.04824899 0)
(0.065484843 0.04657585 0)
(0.056378497 0.043375524 0)
(0.048180757 0.038718198 0)
(0.041246741 0.032721926 0)
(0.035975544 0.025666897 0)
(0.03266007 0.018015484 0)
(0.031392319 0.010136122 0)
(0.032170041 0.0026021267 0)
(0.034811756 -0.0042195828 0)
(0.039086744 -0.0098148637 0)
(0.044640941 -0.013814161 0)
(0.050898476 -0.015908427 0)
(0.057167924 -0.015943515 0)
(0.06287735 -0.014060195 0)
(0.06752823 -0.010532408 0)
(0.070738271 -0.0057488981 0)
(0.072284773 -0.00014712595 0)
(0.072080571 0.0058301885 0)
(0.070171197 0.01177662 0)
(0.066712828 0.017371667 0)
(0.061901715 0.022369376 0)
(0.055987253 0.026635859 0)
(0.049245883 0.030060872 0)
(0.041924837 0.032608491 0)
(0.034262157 0.034289444 0)
(0.026491336 0.035136864 0)
(0.018807501 0.0352048 0)
(0.011364144 0.034579267 0)
(0.0042878229 0.033354784 0)
(-0.0023033452 0.03158784 0)
(-0.008304078 0.029455641 0)
(-0.013671328 0.02696994 0)
(-0.018372651 0.024261988 0)
(-0.022406632 0.021355637 0)
(-0.025736892 0.018340031 0)
(-0.028364354 0.015257146 0)
(-0.030343323 0.012158162 0)
(-0.031668995 0.0090605989 0)
(-0.032370986 0.0060371075 0)
(-0.032493641 0.0031012181 0)
(-0.032079882 0.00027757805 0)
(-0.031166886 -0.002400422 0)
(-0.029797508 -0.0048871556 0)
(-0.027995954 -0.0071911178 0)
(-0.025794597 -0.0092738189 0)
(-0.023270686 -0.011124546 0)
(-0.020433418 -0.012743121 0)
(-0.017185616 -0.01411556 0)
(-0.01419628 -0.015267037 0)
(-0.010228589 -0.016092973 0)
(-0.0056060034 -0.016862109 0)
(0.007330908 -0.0302228 0)
(0.01415776 -0.029950726 0)
(0.019060465 -0.029737874 0)
(0.023559423 -0.029414485 0)
(0.028466639 -0.029080853 0)
(0.03317616 -0.028703907 0)
(0.037805214 -0.028290445 0)
(0.042378442 -0.027851916 0)
(0.046874912 -0.027381208 0)
(0.051284309 -0.026894539 0)
(0.055604818 -0.026390232 0)
(0.059834821 -0.025873644 0)
(0.063971519 -0.025353493 0)
(0.068022569 -0.024822762 0)
(0.071980659 -0.024294995 0)
(0.0758366 -0.023780393 0)
(0.079603569 -0.023268619 0)
(0.083271294 -0.022764597 0)
(0.086849237 -0.022290385 0)
(0.090344569 -0.02182105 0)
(0.093749173 -0.021380107 0)
(0.097070593 -0.020971225 0)
(0.10032421 -0.020579827 0)
(0.10352447 -0.020209661 0)
(0.10668374 -0.019863596 0)
(0.10981928 -0.019507948 0)
(0.11295051 -0.019125817 0)
(0.11610086 -0.018678884 0)
(0.11927897 -0.018119251 0)
(0.12249769 -0.017382086 0)
(0.12572437 -0.016398062 0)
(0.12893791 -0.015072278 0)
(0.13210225 -0.013312559 0)
(0.13509741 -0.011039566 0)
(0.13782904 -0.0081567446 0)
(0.1401758 -0.0046168602 0)
(0.14195752 -0.00038210428 0)
(0.14300618 0.0045553178 0)
(0.14315487 0.010151275 0)
(0.14222591 0.016299151 0)
(0.1400545 0.022891016 0)
(0.13650312 0.029740983 0)
(0.1314654 0.036578776 0)
(0.12490284 0.043095546 0)
(0.11685791 0.048941752 0)
(0.10746811 0.053758474 0)
(0.096996017 0.057213784 0)
(0.085782084 0.059018647 0)
(0.074208487 0.05897368 0)
(0.062772707 0.056957454 0)
(0.051936387 0.052961416 0)
(0.042105306 0.047057054 0)
(0.033788572 0.039343233 0)
(0.027571662 0.030298955 0)
(0.023728559 0.02037431 0)
(0.0224907 0.010112062 0)
(0.023885539 0.00020476608 0)
(0.027736867 -0.0086765466 0)
(0.033729678 -0.015866443 0)
(0.041250327 -0.02080019 0)
(0.049706291 -0.023219507 0)
(0.05825743 -0.022979156 0)
(0.066011368 -0.020114971 0)
(0.072304456 -0.015088875 0)
(0.076673567 -0.0084778975 0)
(0.078867873 -0.00091153102 0)
(0.0788248 0.0070031272 0)
(0.076666452 0.014739566 0)
(0.072630713 0.021911078 0)
(0.067036069 0.028204427 0)
(0.060217771 0.033473925 0)
(0.052480069 0.037616179 0)
(0.044151497 0.040592564 0)
(0.035529886 0.042442694 0)
(0.026863906 0.043246033 0)
(0.018368965 0.043092868 0)
(0.01022247 0.042097685 0)
(0.0025220809 0.040382182 0)
(-0.0045591661 0.03805966 0)
(-0.010938685 0.0352861 0)
(-0.016618753 0.032117579 0)
(-0.021548473 0.028698995 0)
(-0.025724475 0.025059039 0)
(-0.029136945 0.021345327 0)
(-0.031810335 0.017556052 0)
(-0.033784094 0.013771373 0)
(-0.035051405 0.01002112 0)
(-0.035651022 0.0063775503 0)
(-0.035661181 0.0028570615 0)
(-0.035095176 -0.00050812882 0)
(-0.033993502 -0.003688298 0)
(-0.032414149 -0.006644691 0)
(-0.030386309 -0.0093612593 0)
(-0.027947267 -0.011833156 0)
(-0.02517211 -0.014035202 0)
(-0.022062292 -0.015956963 0)
(-0.018568852 -0.017584001 0)
(-0.015289309 -0.018963982 0)
(-0.011079029 -0.019941587 0)
(-0.0060445154 -0.020864924 0)
(0.0075022701 -0.035190788 0)
(0.014404502 -0.034864871 0)
(0.019351601 -0.034617834 0)
(0.023912269 -0.034236706 0)
(0.028850282 -0.033845306 0)
(0.033606313 -0.033397423 0)
(0.038268566 -0.032914813 0)
(0.042873756 -0.032392326 0)
(0.047393351 -0.031842224 0)
(0.051819145 -0.031265743 0)
(0.056158753 -0.030679775 0)
(0.06040513 -0.030072922 0)
(0.064553283 -0.029457949 0)
(0.06860657 -0.028831817 0)
(0.072556796 -0.028215124 0)
(0.076413481 -0.027602362 0)
(0.080180549 -0.026996085 0)
(0.083832393 -0.026400675 0)
(0.087394764 -0.025823982 0)
(0.090871689 -0.025270756 0)
(0.094249077 -0.024745945 0)
(0.09754547 -0.024256827 0)
(0.10077868 -0.023807719 0)
(0.10395083 -0.023388815 0)
(0.10709475 -0.023011051 0)
(0.11024298 -0.022651829 0)
(0.11341399 -0.022290968 0)
(0.11664717 -0.021890414 0)
(0.119969 -0.021387135 0)
(0.1233986 -0.020709489 0)
(0.12694133 -0.01977645 0)
(0.13057984 -0.018451874 0)
(0.13425981 -0.016631094 0)
(0.13788237 -0.014195545 0)
(0.14133239 -0.011014945 0)
(0.14444642 -0.0070023028 0)
(0.14701145 -0.002112119 0)
(0.14883304 0.0036662589 0)
(0.14968006 0.010284732 0)
(0.14932125 0.017661312 0)
(0.14756258 0.025666202 0)
(0.1441795 0.034079559 0)
(0.13898394 0.042583391 0)
(0.13189349 0.050770866 0)
(0.12292408 0.058193063 0)
(0.11221948 0.064373168 0)
(0.10007286 0.068897435 0)
(0.086893029 0.071367246 0)
(0.073155634 0.071529912 0)
(0.05946534 0.069173743 0)
(0.046408938 0.064303392 0)
(0.034451449 0.056920696 0)
(0.024344892 0.047247793 0)
(0.016861977 0.035824634 0)
(0.012305956 0.023109098 0)
(0.011040392 0.0099223185 0)
(0.013174041 -0.0029330671 0)
(0.018523665 -0.014491004 0)
(0.026734305 -0.023873289 0)
(0.037057738 -0.030254409 0)
(0.048496119 -0.033130286 0)
(0.060055696 -0.032410083 0)
(0.070554332 -0.028222342 0)
(0.078969139 -0.021162865 0)
(0.084742484 -0.012127225 0)
(0.087621275 -0.0020243429 0)
(0.087615103 0.0083229026 0)
(0.084983728 0.018234971 0)
(0.080098492 0.027239446 0)
(0.073393641 0.035057421 0)
(0.065325415 0.041424638 0)
(0.05628459 0.046295443 0)
(0.046665692 0.049684706 0)
(0.036827439 0.051658611 0)
(0.027053334 0.052330844 0)
(0.017572883 0.051845617 0)
(0.0085712236 0.050357154 0)
(0.00017239945 0.048007886 0)
(-0.0074709907 0.04501342 0)
(-0.014311142 0.041481714 0)
(-0.020316193 0.037517118 0)
(-0.025482677 0.033293575 0)
(-0.029804989 0.028879606 0)
(-0.033277539 0.024365368 0)
(-0.035969821 0.019819344 0)
(-0.037902964 0.015297037 0)
(-0.039079955 0.010875541 0)
(-0.039547246 0.0065733411 0)
(-0.039387346 0.0024442006 0)
(-0.038629855 -0.0014765968 0)
(-0.037304973 -0.0051655457 0)
(-0.03546959 -0.0085970487 0)
(-0.033180747 -0.011751441 0)
(-0.030465169 -0.014611551 0)
(-0.027390774 -0.017154607 0)
(-0.023973638 -0.019379697 0)
(-0.020187288 -0.021280624 0)
(-0.016556846 -0.02287744 0)
(-0.012093857 -0.023990599 0)
(-0.0065786363 -0.025113858 0)
(0.007702114 -0.040231963 0)
(0.014697378 -0.039845185 0)
(0.019694125 -0.03955345 0)
(0.024329414 -0.039113482 0)
(0.029302783 -0.038647527 0)
(0.034106917 -0.03812973 0)
(0.038811285 -0.037568684 0)
(0.043451738 -0.036961921 0)
(0.048004364 -0.03632615 0)
(0.052452155 -0.035657151 0)
(0.056806728 -0.034971258 0)
(0.061069735 -0.034269526 0)
(0.065230868 -0.033559574 0)
(0.069289097 -0.032844122 0)
(0.07324014 -0.03212729 0)
(0.077091974 -0.031410635 0)
(0.080848965 -0.030706991 0)
(0.084494791 -0.030016846 0)
(0.088039001 -0.02933846 0)
(0.091490529 -0.02869068 0)
(0.094838845 -0.028083367 0)
(0.098092664 -0.027522616 0)
(0.10128307 -0.027005177 0)
(0.10441711 -0.02655365 0)
(0.10752147 -0.026153253 0)
(0.11064331 -0.025816846 0)
(0.11381802 -0.025527588 0)
(0.11711122 -0.025229078 0)
(0.12056804 -0.024862603 0)
(0.12422299 -0.024342874 0)
(0.12810983 -0.02355903 0)
(0.13222339 -0.0223654 0)
(0.13651046 -0.020594076 0)
(0.14088071 -0.018089285 0)
(0.1452087 -0.014687501 0)
(0.14928713 -0.010264392 0)
(0.15285695 -0.0047265031 0)
(0.15565019 0.0019329708 0)
(0.15740471 0.009661859 0)
(0.15785894 0.01841225 0)
(0.15671452 0.028065694 0)
(0.15365224 0.038365372 0)
(0.148378 0.048922 0)
(0.14072254 0.059237874 0)
(0.1306602 0.068701023 0)
(0.11835651 0.076697285 0)
(0.10415744 0.082663522 0)
(0.088546807 0.086086714 0)
(0.072091716 0.086612737 0)
(0.055538977 0.083995775 0)
(0.039603031 0.078180625 0)
(0.024901589 0.069072844 0)
(0.012531802 0.05710592 0)
(0.0032545547 0.042684832 0)
(-0.0023784646 0.026408021 0)
(-0.0037792721 0.0093185653 0)
(-0.0007722804 -0.0074231992 0)
(0.0065620514 -0.022561899 0)
(0.017732119 -0.034790715 0)
(0.031751356 -0.0430929 0)
(0.04731379 -0.04661311 0)
(0.062928228 -0.045143522 0)
(0.077021998 -0.039063986 0)
(0.088178128 -0.029136901 0)
(0.095615386 -0.016796819 0)
(0.099150342 -0.0033748029 0)
(0.098945429 0.010036695 0)
(0.095467846 0.022610492 0)
(0.089358012 0.033774099 0)
(0.081139452 0.043229505 0)
(0.071374448 0.050806438 0)
(0.060653187 0.05643413 0)
(0.049422243 0.060172728 0)
(0.038081257 0.062157791 0)
(0.026956077 0.062564138 0)
(0.016301295 0.061598161 0)
(0.0062933729 0.059476934 0)
(-0.0029087896 0.056329234 0)
(-0.01116662 0.052498951 0)
(-0.018509678 0.048089496 0)
(-0.024872933 0.043247307 0)
(-0.030244216 0.038116971 0)
(-0.034702186 0.03283951 0)
(-0.038238131 0.027460777 0)
(-0.040911813 0.022093951 0)
(-0.042753751 0.016778638 0)
(-0.043793786 0.011630426 0)
(-0.044096036 0.0066403615 0)
(-0.043720196 0.0018690892 0)
(-0.042710299 -0.0026447795 0)
(-0.041116447 -0.0068704448 0)
(-0.039000862 -0.010799265 0)
(-0.03639939 -0.014402978 0)
(-0.033349278 -0.017662434 0)
(-0.02993879 -0.020566661 0)
(-0.026181786 -0.023102885 0)
(-0.022063193 -0.025260511 0)
(-0.018005705 -0.027110668 0)
(-0.013277303 -0.028348038 0)
(-0.0072250073 -0.029688781 0)
(0.0079412901 -0.045353766 0)
(0.01504648 -0.044894497 0)
(0.020089302 -0.044560481 0)
(0.024816292 -0.044047809 0)
(0.029831602 -0.043511673 0)
(0.034686974 -0.042912694 0)
(0.039439083 -0.042263588 0)
(0.044118968 -0.041570563 0)
(0.048703056 -0.040839028 0)
(0.053182674 -0.040083016 0)
(0.057558462 -0.039289393 0)
(0.061833734 -0.038492071 0)
(0.066001094 -0.037679545 0)
(0.070067502 -0.036863516 0)
(0.07402618 -0.036047563 0)
(0.077876975 -0.035227428 0)
(0.081625747 -0.034410346 0)
(0.085261196 -0.033620271 0)
(0.088791057 -0.032841838 0)
(0.092207172 -0.032095152 0)
(0.095507053 -0.031388308 0)
(0.098722368 -0.030740295 0)
(0.10185526 -0.030146807 0)
(0.10491845 -0.029665896 0)
(0.10795389 -0.029259198 0)
(0.11099716 -0.028968564 0)
(0.11413403 -0.028768945 0)
(0.11744646 -0.028629881 0)
(0.12099368 -0.028492992 0)
(0.12485067 -0.028252515 0)
(0.1290863 -0.027761906 0)
(0.13372832 -0.026842102 0)
(0.13873088 -0.025273217 0)
(0.14399922 -0.022853915 0)
(0.14938513 -0.019364955 0)
(0.15465854 -0.014614024 0)
(0.15948524 -0.0084364293 0)
(0.16352388 -0.00086761162 0)
(0.16647877 0.0080604585 0)
(0.1680422 0.018339786 0)
(0.16781889 0.029887238 0)
(0.16532063 0.042453174 0)
(0.1601198 0.055567417 0)
(0.15191534 0.068578314 0)
(0.14060899 0.080682368 0)
(0.12638773 0.091061283 0)
(0.10964911 0.098954813 0)
(0.090993292 0.10370908 0)
(0.071148459 0.10484275 0)
(0.051013992 0.10205018 0)
(0.031374268 0.095235238 0)
(0.013189013 0.084218598 0)
(-0.0022185558 0.069475059 0)
(-0.014049407 0.051275659 0)
(-0.021286498 0.030539921 0)
(-0.023035539 0.0084511553 0)
(-0.018966079 -0.013446241 0)
(-0.0091151342 -0.033418554 0)
(0.0059308461 -0.049596797 0)
(0.024957115 -0.060469821 0)
(0.046160592 -0.064894775 0)
(0.067316679 -0.062392497 0)
(0.086295945 -0.05345921 0)
(0.10097949 -0.039405038 0)
(0.11029057 -0.022514265 0)
(0.11427555 -0.0047078697 0)
(0.11344838 0.012571525 0)
(0.10859424 0.028366459 0)
(0.10061295 0.042049516 0)
(0.09033248 0.053305801 0)
(0.078435538 0.062103343 0)
(0.065551143 0.068431613 0)
(0.052284762 0.072392879 0)
(0.039112205 0.074207375 0)
(0.02638733 0.074143894 0)
(0.014380985 0.072481641 0)
(0.0032008881 0.069495463 0)
(-0.0069012514 0.065431128 0)
(-0.015799644 0.060559107 0)
(-0.023645554 0.055105965 0)
(-0.030362957 0.049270443 0)
(-0.035955736 0.043125297 0)
(-0.040517119 0.036857516 0)
(-0.044070036 0.030544856 0)
(-0.046690137 0.024281939 0)
(-0.048396483 0.01814683 0)
(-0.049242138 0.012202913 0)
(-0.049327179 0.0064855124 0)
(-0.048686453 0.0010361124 0)
(-0.047378539 -0.0040962608 0)
(-0.045465441 -0.0088954966 0)
(-0.04300524 -0.013343028 0)
(-0.040043749 -0.017403929 0)
(-0.036628205 -0.021083338 0)
(-0.032829972 -0.024355589 0)
(-0.028662217 -0.027216411 0)
(-0.02419064 -0.029625716 0)
(-0.019652485 -0.031743176 0)
(-0.014630935 -0.033100486 0)
(-0.0079849922 -0.03464672 0)
(0.0082212942 -0.050562787 0)
(0.01544976 -0.05001798 0)
(0.020546565 -0.049642667 0)
(0.025375581 -0.049045247 0)
(0.030435383 -0.048432157 0)
(0.035357014 -0.047748056 0)
(0.040156517 -0.047004198 0)
(0.044880458 -0.046214417 0)
(0.049497431 -0.045379627 0)
(0.05401196 -0.044519061 0)
(0.058411802 -0.04362914 0)
(0.062699184 -0.042722485 0)
(0.066885229 -0.041806177 0)
(0.070954095 -0.040879693 0)
(0.074917542 -0.039957376 0)
(0.078779384 -0.03903591 0)
(0.082516429 -0.038118083 0)
(0.086134514 -0.037206768 0)
(0.08964626 -0.036324549 0)
(0.093037746 -0.03546914 0)
(0.096299599 -0.034648944 0)
(0.099451999 -0.033887982 0)
(0.10248634 -0.033217124 0)
(0.10544529 -0.032677304 0)
(0.1083686 -0.032261152 0)
(0.11129165 -0.032030393 0)
(0.11432094 -0.031967104 0)
(0.11755675 -0.032056906 0)
(0.12112239 -0.032250596 0)
(0.12514593 -0.032431288 0)
(0.1297364 -0.032413698 0)
(0.13495054 -0.031970665 0)
(0.14075382 -0.030799088 0)
(0.14706077 -0.028669726 0)
(0.153737 -0.025286373 0)
(0.16052135 -0.020282199 0)
(0.16693478 -0.013510414 0)
(0.17251671 -0.0050201269 0)
(0.17701158 0.005137648 0)
(0.18009112 0.017057752 0)
(0.18122082 0.030784056 0)
(0.1796983 0.046094842 0)
(0.17483841 0.062427494 0)
(0.1661435 0.078890138 0)
(0.15342524 0.094417487 0)
(0.13688454 0.10789657 0)
(0.11702888 0.11833254 0)
(0.09461311 0.12490013 0)
(0.070532391 0.12699727 0)
(0.045904391 0.12419304 0)
(0.021617219 0.11631234 0)
(-0.0010573258 0.10324828 0)
(-0.020622262 0.085116155 0)
(-0.035933697 0.062338772 0)
(-0.045484452 0.035936991 0)
(-0.04807069 0.0073590931 0)
(-0.042941334 -0.021411245 0)
(-0.02989656 -0.047956323 0)
(-0.0096375706 -0.069605496 0)
(0.01614873 -0.084052733 0)
(0.045085227 -0.089669402 0)
(0.074041202 -0.085680757 0)
(0.099692482 -0.07259182 0)
(0.11882697 -0.052386385 0)
(0.13009796 -0.029153794 0)
(0.13406267 -0.0055815312 0)
(0.13186684 0.016520595 0)
(0.12481069 0.035955091 0)
(0.11418074 0.052473923 0)
(0.10109064 0.065801856 0)
(0.086397458 0.075847146 0)
(0.070830732 0.082716534 0)
(0.055079276 0.086691902 0)
(0.039710839 0.088102328 0)
(0.025109666 0.087304417 0)
(0.01153498 0.084672462 0)
(-0.00086986564 0.080547348 0)
(-0.011951007 0.075308856 0)
(-0.021590751 0.069254681 0)
(-0.029889916 0.062556643 0)
(-0.036935204 0.055542308 0)
(-0.042728197 0.048266035 0)
(-0.04734337 0.040904395 0)
(-0.050864397 0.033570839 0)
(-0.053351557 0.026340641 0)
(-0.054865018 0.019325851 0)
(-0.055480899 0.012539459 0)
(-0.055282666 0.0060542534 0)
(-0.054316231 -9.1872024e-05 0)
(-0.052651078 -0.0058809753 0)
(-0.050368634 -0.011273635 0)
(-0.047511342 -0.01625944 0)
(-0.044137859 -0.020801828 0)
(-0.040299154 -0.024909108 0)
(-0.036068217 -0.028550931 0)
(-0.031445743 -0.031744512 0)
(-0.026581335 -0.034426056 0)
(-0.021486608 -0.036793282 0)
(-0.016135464 -0.038277853 0)
(-0.008848034 -0.040028449 0)
(0.0085536368 -0.055870477 0)
(0.015919743 -0.055220164 0)
(0.021067441 -0.054801744 0)
(0.026022846 -0.054119257 0)
(0.031125523 -0.053411829 0)
(0.036116814 -0.052637614 0)
(0.04097577 -0.051791524 0)
(0.045748202 -0.05089714 0)
(0.050405709 -0.049951271 0)
(0.054944784 -0.048982673 0)
(0.059371709 -0.047987063 0)
(0.063678934 -0.046970484 0)
(0.067873194 -0.045942581 0)
(0.071954037 -0.044909495 0)
(0.07591723 -0.04387714 0)
(0.079774097 -0.042841824 0)
(0.083524159 -0.041812989 0)
(0.087136873 -0.040787949 0)
(0.09062494 -0.039786533 0)
(0.093993428 -0.038801448 0)
(0.097213631 -0.037859455 0)