/*--------------------------------*- C++ -*----------------------------------*\
  =========                 |
  \\      /  F ield         | OpenFOAM: The Open Source CFD Toolbox
   \\    /   O peration     | Website:  https://openfoam.org
    \\  /    A nd           | Version:  9
     \\/     M anipulation  |
\*---------------------------------------------------------------------------*/
FoamFile
{
    format      ascii;
    class       volScalarField;
    location    "8";
    object      gradTx;
}
// * * * * * * * * * * * * * * * * * * * * * * * * * * * * * * * * * * * * * //

dimensions      [0 -1 0 1 0 0 0];

internalField   nonuniform List<scalar> 10(-8.5804199e-08 -1.1840797e-06 -0 0.00014505389 0.00036272092 0.0018818681 0.042559281 0.12725792 1.2041779 -0);

boundaryField
{
    inlet
    {
        type            calculated;
        value           uniform -8.5804199e-08;
    }
    outlet
    {
        type            calculated;
        value           uniform -24.989402;
    }
    bottom
    {
        type            calculated;
        value           nonuniform List<scalar> 10(-8.5804199e-08 -1.1840797e-06 0 0.00014505389 0.00036272092 0.0018818681 0.042559281 0.12725792 1.2041779 0);
    }
    top
    {
        type            calculated;
        value           nonuniform List<scalar> 10(-8.5804199e-08 -1.1840797e-06 0 0.00014505389 0.00036272092 0.0018818681 0.042559281 0.12725792 1.2041779 0);
    }
    frontAndBack
    {
        type            empty;
    }
}


// ************************************************************************* //
