/*--------------------------------*- C++ -*----------------------------------*\
  =========                 |
  \\      /  F ield         | OpenFOAM: The Open Source CFD Toolbox
   \\    /   O peration     | Website:  https://openfoam.org
    \\  /    A nd           | Version:  9
     \\/     M anipulation  |
\*---------------------------------------------------------------------------*/
FoamFile
{
    format      ascii;
    class       volVectorField;
    location    "8";
    object      gradT;
}
// * * * * * * * * * * * * * * * * * * * * * * * * * * * * * * * * * * * * * //

dimensions      [0 -1 0 1 0 0 0];

internalField   nonuniform List<vector> 10((-8.5804199e-08 0 0) (-1.1840797e-06 0 0) (-0 -0 -0) (0.00014505389 0 0) (0.00036272092 0 0) (0.0018818681 0 0) (0.042559281 0 0) (0.12725792 0 0) (1.2041779 0 0) (-0 0 0));

boundaryField
{
    inlet
    {
        type            extrapolatedCalculated;
        value           uniform (-8.5804199e-08 0 0);
    }
    outlet
    {
        type            extrapolatedCalculated;
        value           uniform (-24.989402 0 0);
    }
    bottom
    {
        type            extrapolatedCalculated;
        value           nonuniform List<vector> 10((-8.5804199e-08 0 0) (-1.1840797e-06 0 0) (0 0 -0) (0.00014505389 0 0) (0.00036272092 0 0) (0.0018818681 0 0) (0.042559281 0 0) (0.12725792 0 0) (1.2041779 0 0) (0 0 0));
    }
    top
    {
        type            extrapolatedCalculated;
        value           nonuniform List<vector> 10((-8.5804199e-08 0 0) (-1.1840797e-06 0 0) (0 0 0) (0.00014505389 0 0) (0.00036272092 0 0) (0.0018818681 0 0) (0.042559281 0 0) (0.12725792 0 0) (1.2041779 0 0) (0 0 0));
    }
    frontAndBack
    {
        type            empty;
    }
}


// ************************************************************************* //
