/*--------------------------------*- C++ -*----------------------------------*\
  =========                 |
  \\      /  F ield         | OpenFOAM: The Open Source CFD Toolbox
   \\    /   O peration     | Website:  https://openfoam.org
    \\  /    A nd           | Version:  9
     \\/     M anipulation  |
\*---------------------------------------------------------------------------*/
FoamFile
{
    format      ascii;
    class       volScalarField;
    location    "0.61";
    object      alpha.phase1;
}
// * * * * * * * * * * * * * * * * * * * * * * * * * * * * * * * * * * * * * //

dimensions      [0 0 0 0 0 0 0];

internalField   nonuniform List<scalar> 
10000
(
4.6711773e-84
4.6711754e-84
7.7690852e-83
3.4818017e-81
5.7244274e-81
3.0493533e-81
9.060033e-82
2.5050275e-82
2.1556051e-82
2.1560198e-82
5.5472802e-81
1.5134344e-78
7.9604503e-77
1.0549419e-75
6.126701e-75
2.324346e-74
6.8078952e-74
1.502632e-73
2.0232812e-73
3.4651022e-72
4.8732681e-70
7.3760363e-68
1.1649314e-65
1.8888752e-63
3.0232728e-61
4.6323817e-59
6.7050375e-57
9.175537e-55
1.1840644e-52
1.5662851e-50
7.0563818e-48
2.3416399e-45
4.826228e-44
1.3643868e-43
3.4808001e-43
3.2317475e-43
1.3401304e-43
2.0687533e-44
2.0798478e-44
1.4585403e-43
9.0948189e-42
4.5570167e-40
1.7240247e-38
4.3076667e-37
1.0227031e-35
1.276325e-34
8.5099662e-34
1.5079955e-32
5.1807035e-31
1.9548001e-29
7.1700901e-28
2.4326886e-26
7.5393029e-25
2.3152398e-23
2.0831329e-22
3.1396409e-22
7.6123007e-23
9.7362562e-24
4.7640714e-25
1.0561872e-26
4.2605642e-28
1.9487919e-29
2.8413154e-30
1.3377158e-31
4.7353373e-33
1.6838829e-34
5.6376394e-36
1.7470986e-37
4.9749926e-39
1.2939082e-40
3.0563896e-42
6.5195732e-44
1.2487477e-45
2.1357525e-47
3.2433507e-49
4.34766e-51
5.1122855e-53
5.2374388e-55
4.6397159e-57
3.5238215e-59
2.2720992e-61
1.2292514e-63
5.5026399e-66
2.0021046e-68
5.8011749e-71
1.527025e-73
6.5449928e-75
1.2602902e-75
1.2018924e-76
3.0177418e-78
1.3220399e-80
4.8425212e-83
4.8450357e-83
7.027789e-83
2.8915291e-82
1.650164e-81
5.9455452e-81
6.5526953e-81
6.6686713e-81
6.7147585e-81
5.2336765e-84
7.866344e-83
2.7651463e-81
4.1381045e-80
7.4268846e-80
6.60082e-80
4.8608314e-80
2.3616462e-80
4.9867373e-81
3.8912084e-82
4.5469173e-81
9.6607231e-79
6.0253376e-77
8.4163574e-76
5.6616324e-75
2.2054112e-74
6.3434666e-74
1.330762e-73
4.2446264e-73
9.358705e-71
1.9378075e-68
3.7233227e-66
7.0420678e-64
1.2730348e-61
2.1544944e-59
3.4011185e-57
5.020637e-55
6.9454143e-53
9.0275531e-51
1.4176224e-48
1.34319e-45
2.2281016e-43
1.7346381e-42
1.6003163e-42
1.8539144e-41
1.1268719e-40
1.0939514e-40
3.3340896e-41
2.8210548e-42
8.0832668e-41
4.894913e-39
2.4184068e-37
9.2151297e-36
1.7804789e-34
1.0667833e-33
5.9721405e-33
1.0150666e-31
2.614663e-30
6.3237396e-29
1.0562554e-27
2.5038087e-26
7.7357488e-25
2.3919591e-23
2.1196065e-22
9.5376545e-22
3.2716429e-21
6.3757706e-21
2.3936787e-21
1.7589199e-22
8.9651105e-25
1.0561129e-26
4.3967676e-27
8.2718138e-28
3.3365197e-29
1.1224523e-30
3.8761678e-32
1.2579788e-33
3.7724993e-35
1.0358074e-36
2.5856587e-38
5.8491943e-40
1.1928613e-41
2.1790015e-43
3.543013e-45
5.0960152e-47
6.442295e-49
7.1074418e-51
6.7924778e-53
5.569979e-55
3.8749064e-57
2.2620884e-59
1.0881439e-61
4.2347836e-64
1.2975009e-66
3.0342874e-69
5.4765479e-72
1.1469249e-74
1.2451659e-75
1.1268934e-76
2.9593429e-78
1.7288314e-80
4.3530763e-82
3.3413842e-81
1.5213175e-80
6.3560914e-80
1.3435617e-79
8.8594737e-80
4.5245438e-80
6.9526041e-81
7.2270387e-81
6.4867228e-81
1.2480312e-79
4.569099e-78
4.1283568e-77
6.0113408e-77
5.0645056e-77
3.4958889e-77
1.6382186e-77
3.6063544e-78
3.3908825e-79
2.5842023e-80
8.1086432e-79
4.9108743e-77
3.5518738e-76
2.8576963e-75
3.9821969e-73
7.5645933e-73
6.7052152e-73
1.5423592e-70
9.3956175e-68
1.5225256e-65
2.734328e-63
5.04735e-61
9.1649046e-59
1.571965e-56
2.5211073e-54
3.7780515e-52
5.2950678e-50
6.964449e-48
1.1272609e-45
1.1493077e-42
1.9145599e-40
1.4868302e-39
1.3522258e-39
1.8936336e-38
1.2024068e-37
1.2195645e-37
3.943434e-38
2.9742607e-39
2.5758579e-38
1.5372423e-36
7.4334047e-35
2.7577711e-33
5.0477013e-32
2.7324744e-31
1.3073174e-30
2.0943638e-29
5.5039951e-28
1.4199181e-26
3.3790706e-25
6.2025301e-24
1.264165e-22
3.7564255e-21
3.2376536e-20
2.4496627e-19
5.554109e-19
7.7894385e-19
3.1371383e-19
3.0991505e-20
4.1004246e-22
2.4359132e-24
8.9948158e-25
1.4098785e-25
5.4532088e-27
1.8788662e-28
6.4868587e-30
2.0935329e-31
6.226188e-33
1.6810565e-34
4.0743756e-36
8.8994372e-38
1.7478959e-39
3.0621667e-41
4.7505501e-43
6.4820349e-45
7.7234889e-47
7.9677716e-49
7.057638e-51
5.296709e-53
3.3392224e-55
1.7849219e-57
8.4102806e-60
3.2010395e-62
9.5834072e-65
2.1790151e-67
3.585907e-70
7.3904655e-73
7.5861927e-74
6.1680551e-75
3.7523619e-76
1.0862058e-77
8.718641e-79
5.3487193e-78
2.0388967e-77
7.5227819e-77
1.4604371e-76
1.188766e-76
6.3779138e-77
1.6168583e-77
1.2005678e-77
3.5535682e-78
1.0866933e-76
4.1247417e-75
2.4532924e-74
3.1720893e-74
2.6423259e-74
1.7809353e-74
8.178792e-75
1.7945741e-75
2.4647267e-76
1.3141496e-77
1.0374075e-78
5.062756e-77
1.1081642e-73
1.8217478e-70
1.8537597e-69
9.4218215e-70
2.2669097e-70
6.3226762e-68
3.8355458e-65
8.4923015e-63
1.4406343e-60
2.5797354e-58
4.6907023e-56
8.173526e-54
1.3362868e-51
2.0413903e-49
2.9098263e-47
3.8844576e-45
6.5235903e-43
7.1973064e-40
1.2016002e-37
9.3136654e-37
8.4658046e-37
1.3915149e-35
9.2545211e-35
9.9241415e-35
3.4592256e-35
2.8057752e-36
5.8406747e-36
3.4908484e-34
1.6562921e-32
5.9972803e-31
1.0279358e-29
4.7844871e-29
1.8895275e-28
2.8228742e-27
7.4450746e-26
1.8353308e-24
4.5557817e-23
1.0143175e-21
1.8309132e-20
3.6236082e-19
3.2265275e-18
2.9260584e-17
6.0704053e-17
6.7476294e-17
2.8881031e-17
3.6510425e-18
7.2874918e-20
3.5987301e-22
1.3227083e-22
1.8558434e-23
6.8126638e-25
2.3883032e-26
8.2780871e-28
2.671894e-29
7.9343967e-31
2.106547e-32
4.8581164e-34
9.9763718e-36
1.8455212e-37
3.0324359e-39
4.3742141e-41
5.4909086e-43
5.9494062e-45
5.6836139e-47
5.3857934e-49
4.0719078e-51
2.5722348e-53
1.3443235e-55
5.7020296e-58
1.916262e-60
4.9419885e-63
9.321121e-66
1.2640395e-68
3.4776262e-70
5.420225e-71
5.1355093e-72
2.8439695e-73
7.6682027e-75
1.106704e-75
5.9828034e-75
1.9803402e-74
6.4878357e-74
1.1526927e-73
1.0218866e-73
5.4640435e-74
1.5729654e-74
8.9862679e-75
1.4830156e-75
5.6004853e-74
2.1627124e-72
1.0699851e-71
1.2850846e-71
1.0659443e-71
7.0769345e-72
3.2082046e-72
7.0439424e-73
1.2607106e-73
4.1673909e-75
3.1009929e-76
1.4581123e-75
1.1061548e-70
1.3748592e-67
9.7058443e-67
4.2569103e-67
6.0367909e-68
1.7894875e-65
5.9218666e-63
3.2213579e-60
5.6663491e-58
9.8228253e-56
1.7895751e-53
3.182127e-51
5.3371398e-49
8.3564127e-47
1.2167358e-44
1.6535597e-42
2.9087302e-40
3.527657e-37
5.9340103e-35
4.5937054e-34
4.13763e-34
7.4986088e-33
5.3925787e-32
6.2736628e-32
2.3822537e-32
2.1792871e-33
1.0068394e-33
6.1858233e-32
2.8946679e-30
1.027398e-28
1.6420623e-27
6.3239224e-27
2.014712e-26
2.7360566e-25
7.1203798e-24
1.6762416e-22
3.9958052e-21
9.1292835e-20
1.8883167e-18
3.9557885e-17
3.4114787e-16
1.8781839e-15
3.5494184e-15
4.1765809e-15
1.9818767e-15
3.1321659e-16
8.4911792e-18
7.3695751e-20
2.1132755e-20
1.989962e-21
6.917892e-23
2.4583581e-24
8.6855638e-26
2.8598685e-27
8.6298677e-29
2.2687447e-30
4.7823356e-32
8.6320634e-34
1.4294501e-35
2.1059752e-37
2.6871032e-39
3.5120047e-41
4.7902649e-43
4.6298122e-45
3.7650746e-47
2.576371e-49
1.4588071e-51
6.713167e-54
2.4526479e-56
6.8931238e-59
1.4200321e-61
1.9999628e-64
5.8220969e-67
1.5598799e-67
2.5524471e-68
2.6188014e-69
1.4141781e-70
4.0482025e-72
1.1329851e-72
5.1122736e-72
1.4832478e-71
4.3268006e-71
7.1564853e-71
6.5558472e-71
3.4345616e-71
1.0359344e-71
5.0681153e-72
5.0133897e-73
2.1092204e-71
8.2024061e-70
3.6835907e-69
4.2211337e-69
3.4965238e-69
2.3010134e-69
1.0347514e-69
2.2882153e-70
4.8321564e-71
2.1276315e-71
9.5782065e-73
1.9533147e-70
1.9092305e-66
6.6773184e-65
3.5150822e-64
1.1286946e-64
1.8508905e-65
5.1301197e-63
1.3368539e-60
4.5574834e-58
1.7223468e-55
3.1959376e-53
5.1836285e-51
9.4211307e-49
1.6291452e-46
2.6376739e-44
3.9563964e-42
5.5218775e-40
1.0337715e-37
1.407261e-34
2.395307e-32
1.8513657e-31
1.6409378e-31
3.0987548e-30
2.4550057e-29
3.1435911e-29
1.3017641e-29
1.3633805e-30
1.4764569e-31
9.0338075e-30
4.1988004e-28
1.4755314e-26
2.1783574e-25
6.6759468e-25
1.6824445e-24
1.9941709e-23
5.1230214e-22
1.1862231e-20
2.6047607e-19
5.7903641e-18
1.2903812e-16
2.3962392e-15
1.2455262e-14
3.4956471e-14
4.5785525e-14
1.1496955e-13
8.3459853e-14
1.986994e-14
1.0269859e-15
1.5412707e-17
2.3766397e-18
1.4313502e-19
5.640646e-21
2.1504303e-22
8.2201637e-24
2.9323933e-25
9.0685918e-27
2.3532682e-28
4.2446032e-30
5.6295677e-32
7.2803439e-34
1.2744398e-35
2.185711e-37
2.9452775e-39
3.0262947e-41
2.6282031e-43
1.9142538e-45
1.1513556e-47
5.6165177e-50
2.1704584e-52
6.4263458e-55
1.3880605e-57
2.0202187e-60
2.0335621e-63
2.0868627e-64
5.0104173e-65
8.9156161e-66
9.8625653e-67
5.2562597e-68
1.6751211e-69
9.8213363e-70
3.4698984e-69
8.9588711e-69
2.3326071e-68
3.6004754e-68
3.3269029e-68
1.6888412e-68
5.1612956e-69
2.2727538e-69
1.4319337e-70
6.3441285e-69
2.4707545e-67
1.0477295e-66
1.1653699e-66
9.6529777e-67
6.323674e-67
2.8346611e-67
6.3410424e-68
1.4472975e-68
5.1542281e-68
2.2955149e-69
3.2641615e-67
1.6459721e-63
2.4062831e-62
1.0096241e-61
2.1750499e-62
5.4131426e-63
1.2257213e-60
3.8882203e-58
1.0040792e-55
2.3021712e-53
5.7501837e-51
1.1339262e-48
2.0724924e-46
3.7631981e-44
6.3815892e-42
9.9616041e-40
1.4473735e-37
2.930606e-35
4.6214815e-32
8.069684e-30
6.2446741e-29
5.3076492e-29
1.0313169e-27
8.9650245e-27
1.2560903e-26
5.6892548e-27
6.8366548e-28
2.8138695e-29
1.1278824e-27
5.2658735e-26
1.8630892e-24
2.5053802e-23
5.8184339e-23
1.1435234e-22
1.1250121e-21
2.8714493e-20
6.5232005e-19
1.3759148e-17
2.9379124e-16
5.7814175e-15
4.967635e-14
3.8800484e-13
1.1750897e-12
1.5020899e-12
2.2016193e-12
1.9521358e-12
7.2080295e-13
7.7948782e-14
2.0537227e-15
1.6746203e-16
9.2909117e-18
4.0654863e-19
1.7858754e-20
8.8573019e-22
3.7034581e-23
1.0719227e-24
2.5619477e-26
3.6710343e-28
2.8170913e-30
5.7476603e-32
1.0777368e-33
1.5407494e-35
1.6701643e-37
1.522527e-39
1.1586424e-41
7.2449908e-44
3.6550531e-46
1.4509153e-48
4.3742714e-51
9.4930704e-54
1.3556999e-56
1.1197218e-59
1.2872951e-61
5.3152911e-62
1.3053076e-62
2.5252433e-63
2.9481676e-64
1.5194323e-65
5.935047e-67
6.9121774e-67
1.9200302e-66
4.4666355e-66
1.0443478e-65
1.5028028e-65
1.3819505e-65
6.7540244e-66
2.0585564e-66
8.3854849e-67
3.5690388e-68
1.5977531e-66
6.2058503e-65
2.5402389e-64
2.7718261e-64
2.2999116e-64
1.5046439e-64
6.7459439e-65
1.5340379e-65
3.5412079e-66
2.8439463e-65
1.2494172e-66
2.4392436e-63
5.7989229e-61
6.3270909e-60
2.2950075e-59
2.2179412e-59
1.8987628e-60
2.1531037e-58
7.2147436e-56
2.1340496e-53
5.5685743e-51
1.1634265e-48
2.1461273e-46
3.7829116e-44
6.8210935e-42
1.2010126e-39
1.9511032e-37
2.9535748e-35
6.6637533e-33
1.2692084e-29
2.3135418e-27
1.8050109e-26
1.4519243e-26
2.8950424e-25
2.6876919e-24
4.0213606e-24
1.9806825e-24
2.7124024e-25
9.4728058e-27
1.225764e-25
5.897042e-24
2.1661723e-22
2.5645514e-21
4.2462705e-21
6.5282401e-21
4.9724085e-20
1.2633733e-18
2.8393401e-17
6.1131462e-16
1.2274239e-14
1.0316724e-13
1.4042256e-12
1.0923257e-11
3.4834329e-11
4.7359861e-11
4.9066959e-11
5.3199619e-11
2.4396903e-11
3.617128e-12
1.8885036e-13
1.0186015e-14
5.4579848e-16
2.6862657e-17
1.6322925e-18
1.2221563e-19
5.6415943e-21
1.2971201e-22
2.5789179e-24
2.6525514e-26
2.3181853e-28
4.5801512e-30
7.2839986e-32
8.2528846e-34
7.7573661e-36
6.0423834e-38
3.8317013e-40
1.9419042e-42
7.6546624e-45
2.257496e-47
4.728023e-50
6.8406912e-53
1.0363535e-55
4.7724164e-58
3.0252054e-59
1.1069414e-59
2.850457e-60
5.9141141e-61
7.1146566e-62
3.6357491e-63
2.0116124e-64
3.9389427e-64
8.8325547e-64
1.8676579e-63
3.9505852e-63
5.3012236e-63
4.8088329e-63
2.2545464e-63
6.8015779e-64
2.6057457e-64
7.9776728e-66
3.4744072e-64
1.3401391e-62
5.368768e-62
5.7886161e-62
4.8190198e-62
3.1555516e-62
1.4183432e-62
3.2893382e-63
7.1600696e-64
5.6455373e-63
5.7232569e-62
5.2633679e-60
1.657887e-58
1.3731918e-57
4.3123751e-57
2.1344241e-56
1.3442217e-54
4.0415253e-53
2.2585558e-53
3.2542239e-51
9.0219149e-49
2.2219678e-46
4.8492663e-44
8.4731014e-42
1.321323e-39
1.9642383e-37
3.0793118e-35
4.7753732e-33
1.2016059e-30
2.9075811e-27
5.6522551e-25
4.4957191e-24
3.3028667e-24
7.4142435e-23
6.8191551e-22
1.0345335e-21
5.4074855e-22
8.3360572e-23
3.1878058e-24
1.1746743e-23
6.0571517e-22
2.3434027e-20
2.2811242e-19
2.613553e-19
3.3753919e-19
1.6859164e-18
4.3994183e-17
1.0126984e-15
2.2659522e-14
2.3380312e-13
1.4859007e-12
3.0790669e-11
2.6806995e-10
8.457048e-10
1.1865298e-09
9.2374706e-10
1.211824e-09
7.0817513e-10
1.4911721e-10
3.0778713e-12
1.928081e-13
2.2053528e-14
1.4493935e-15
1.3711606e-16
1.743947e-17
1.0550347e-18
1.8974841e-20
1.8836104e-22
9.9074359e-25
1.8070227e-26
3.2121277e-28
3.7810102e-30
3.5913003e-32
2.7933951e-34
1.7462198e-36
8.6036881e-39
3.2558331e-41
9.4163258e-44
2.4230519e-46
9.1107949e-49
5.7783879e-51
1.2841058e-53
2.4401345e-56
4.5606351e-57
2.0397344e-57
5.4299036e-58
1.2171315e-58
1.4866381e-59
7.5349773e-61
7.0645603e-62
1.8195091e-61
3.42548e-61
6.6366937e-61
1.2796231e-60
1.600085e-60
1.4264769e-60
6.3999263e-61
1.9049234e-61
6.9360433e-62
1.6392291e-63
6.6703493e-62
2.5420698e-60
1.0059474e-59
1.0774858e-59
9.0098441e-60
5.9147874e-60
2.6709638e-60
6.3031055e-61
1.3406003e-61
8.6250244e-61
5.2743495e-59
2.3807617e-57
4.089385e-56
2.5922289e-55
8.0106511e-55
8.0630527e-54
7.567798e-52
6.5951278e-50
6.0280069e-48
2.431524e-46
2.3160496e-46
2.6639166e-44
6.2159615e-42
1.3008558e-39
2.4488289e-37
3.9150062e-35
5.2964981e-33
6.6262795e-31
1.5077817e-28
4.4723495e-25
1.0255547e-22
1.0428169e-21
1.6341709e-21
4.2957389e-20
1.6961179e-19
2.1746631e-19
1.1423063e-19
1.9050506e-20
8.3335939e-22
1.0198305e-21
5.8232435e-20
2.0773535e-18
1.61508e-17
1.5147463e-17
1.6383453e-17
4.2067873e-17
1.2445549e-15
2.8517166e-14
3.7017859e-13
1.8135534e-12
3.1932548e-11
6.182036e-10
5.3566966e-09
1.63897e-08
2.3324666e-08
1.8315883e-08
2.3032775e-08
4.3099429e-08
6.6390172e-09
2.249952e-11
1.8494191e-12
1.8237652e-13
4.5573062e-14
8.0235176e-15
1.016306e-15
6.7285602e-17
1.4752283e-18
1.4944736e-20
7.2882634e-23
8.595027e-25
1.0188006e-26
9.632995e-29
7.3017378e-31
4.5310399e-33
2.3018636e-35
1.2004151e-37
8.9680132e-40
8.3656788e-42
4.8988719e-44
2.6328056e-46
1.2441896e-49
3.2327427e-52
1.8835747e-54
5.266144e-55
3.8089854e-55
9.1851569e-56
2.1563065e-56
2.639415e-57
1.3842221e-58
2.5179521e-59
6.9609628e-59
1.1355323e-58
2.0195028e-58
3.5861317e-58
4.1762104e-58
3.6494732e-58
1.5669355e-58
4.5949588e-59
1.6023615e-59
3.1676687e-61
1.1503125e-59
4.3033881e-58
1.6933483e-57
1.8088472e-57
1.5206569e-57
1.0020911e-57
4.5541626e-58
1.086679e-58
2.5708319e-59
1.5941601e-58
1.8355621e-56
6.272899e-55
7.8007776e-54
4.2682335e-53
1.2501122e-52
1.7570887e-51
2.3869116e-49
2.5568055e-47
2.2490787e-45
1.7570683e-43
1.2417312e-41
7.9580502e-40
4.2348198e-38
7.9264861e-37
3.5654256e-35
6.0146156e-33
8.6648974e-31
1.0991551e-28
1.8278243e-26
8.3694247e-23
2.2461339e-20
2.0767426e-19
1.7611886e-19
5.013712e-18
2.628693e-17
3.3480072e-17
1.7785104e-17
3.2061551e-18
1.6357974e-19
8.6912883e-20
5.5200645e-18
1.6670347e-16
1.0560252e-15
7.6334937e-16
4.1215884e-16
8.5808165e-16
2.8333303e-14
4.035799e-13
1.9378038e-12
3.2294856e-11
6.1746252e-10
1.0907325e-08
8.699399e-08
2.5032571e-07
5.4272872e-07
2.4173846e-06
2.7966505e-06
8.5916087e-07
7.3441913e-09
6.3830156e-10
5.4816125e-11
4.9050063e-12
3.6027929e-13
3.7069159e-14
3.3929921e-14
1.1153115e-14
5.4083908e-16
1.9623443e-18
5.4867224e-21
5.764607e-23
5.4056855e-25
3.7842703e-27
2.2856717e-29
1.9354966e-31
2.0610518e-33
2.7149419e-35
2.0273448e-37
1.077611e-39
6.9158278e-42
4.6901622e-46
4.0226153e-48
3.0783072e-50
1.6155134e-52
4.8342078e-53
6.9566161e-53
1.4747189e-53
3.3664257e-54
3.9785002e-55
2.3703029e-56
8.5909389e-57
2.244283e-56
3.2544655e-56
5.289685e-56
8.7102437e-56
9.6332948e-56
8.0582284e-56
3.3480659e-56
9.6597816e-57
3.2473516e-57
5.8710031e-59
1.8077925e-57
6.5816495e-56
2.5883756e-55
2.7657724e-55
2.3394587e-55
1.5486171e-55
7.0903116e-56
1.705179e-56
4.883661e-57
3.9400469e-56
4.6275801e-54
1.2753634e-52
1.2589574e-51
6.3521581e-51
1.4279879e-50
2.0722501e-49
4.3369304e-47
6.2961582e-45
6.5242296e-43
5.7385108e-41
4.6600337e-39
3.528071e-37
2.4883846e-35
8.4706065e-34
1.5777945e-32
1.0243192e-30
1.781068e-28
9.9167736e-24
1.6948105e-20
6.9561602e-19
3.2636949e-18
3.374139e-17
1.8511125e-17
1.0264009e-16
1.4659655e-15
3.0476377e-15
1.6886523e-15
3.7433798e-16
2.5063348e-17
8.9028636e-18
5.7862638e-16
1.1795358e-14
5.2027741e-14
1.4176777e-14
8.9882989e-15
1.3631447e-14
3.4272228e-13
2.869357e-12
2.3847183e-11
4.6285744e-10
8.6305824e-09
1.3008381e-07
7.791597e-06
3.8360667e-05
5.1285893e-05
3.8475709e-05
8.6530929e-06
3.594776e-07
4.7741377e-08
5.6759125e-09
5.3131896e-10
4.6133496e-11
9.2472188e-12
1.7711266e-11
8.3624662e-12
9.6301626e-13
1.475702e-14
3.2211327e-17
3.0563176e-18
7.0431647e-21
7.7159319e-24
3.7223707e-26
2.9111151e-27
4.5811569e-29
3.7483582e-31
2.6858123e-33
3.80839e-35
6.0403087e-38
9.1767133e-42
1.2115224e-44
3.0924566e-46
2.5587311e-48
1.7897619e-50
7.9665981e-51
1.0037236e-50
2.1074424e-51
4.6209987e-52
5.2560913e-53
3.9131035e-54
2.7723422e-54
6.1519133e-54
8.1231747e-54
1.2008165e-53
1.8379904e-53
1.9868104e-53
1.5453504e-53
6.2985989e-54
1.786275e-54
5.8232946e-55
1.0585998e-56
2.6224723e-55
9.1873865e-54
3.6249847e-53
3.88385e-53
3.3072463e-53
2.199913e-53
1.0151138e-53
2.4790986e-54
7.9278511e-55
1.3016708e-53
9.4181342e-52
2.0495283e-50
1.7000003e-49
8.0293064e-49
1.3395581e-48
1.9413164e-47
4.6878038e-45
9.57361e-43
1.3204105e-40
1.3269231e-38
1.1592769e-36
9.3094052e-35
6.4449317e-33
3.9262011e-31
4.2168159e-29
6.5288354e-27
1.0606738e-24
5.4643029e-21
7.8648585e-18
1.5626515e-16
3.2718521e-18
5.2395935e-15
3.1514784e-15
1.4709284e-15
6.2184502e-15
3.0477583e-15
9.1946135e-14
3.4470006e-14
2.17943e-15
1.5638354e-15
6.8314141e-14
7.6585626e-13
2.5581881e-12
6.8223461e-13
3.4630797e-13
1.2019159e-13
2.1986921e-12
3.1846021e-11
4.8812261e-10
8.0800908e-09
9.4645497e-08
3.2037047e-05
8.6032138e-05
9.2966068e-05
9.0796942e-05
4.7998221e-05
2.0193033e-06
8.6404522e-07
1.0399795e-07
1.1118444e-08
1.1336782e-09
5.8807372e-11
1.003917e-11
7.1788507e-12
7.0126065e-12
2.0090407e-12
9.1036576e-14
1.1671072e-14
1.0367889e-15
4.8954415e-18
2.0085326e-22
4.5704568e-25
2.8569357e-25
2.5355109e-27
6.1979838e-29
2.4873059e-31
5.2880274e-35
1.3204569e-37
2.3994499e-40
1.9109448e-42
3.4290055e-44
2.3175828e-46
1.9068126e-48
1.1182011e-48
1.1892132e-48
2.435364e-49
5.3560717e-50
6.2912396e-51
5.9320014e-52
7.8569093e-52
1.4426421e-51
1.776639e-51
2.3877069e-51
3.4116086e-51
3.6206895e-51
2.6211979e-51
1.0505061e-51
2.9268006e-52
9.3015284e-53
1.8699333e-54
3.5527835e-53
1.1810201e-51
4.6864056e-51
5.0435649e-51
4.3261756e-51
2.8911811e-51
1.3444462e-51
3.3651257e-52
1.1037184e-52
3.2182832e-51
1.5939852e-49
2.663998e-48
1.8958533e-47
7.6919251e-47
1.6773121e-46
5.4337044e-45
5.2372245e-43
9.5024829e-41
1.7226253e-38
2.237944e-36
2.1998324e-34
1.8949684e-32
1.488241e-30
9.622615e-29
6.7684778e-27
9.7223278e-25
1.9550526e-22
3.8720685e-20
1.1332243e-16
1.7003921e-13
3.3952304e-12
2.3891542e-12
3.7787015e-13
2.8328335e-14
1.8154556e-12
9.1112539e-12
3.1189138e-12
4.6465388e-14
1.5947947e-13
1.2889185e-13
6.1363451e-12
5.5124534e-11
1.2452817e-10
3.1834884e-11
1.2562216e-11
1.1059466e-12
1.379716e-11
2.7359852e-10
4.9388535e-09
1.0268651e-07
1.1027698e-05
0.00010140758
0.00010191779
9.3843006e-05
4.2584008e-05
8.8344324e-07
9.4565812e-07
8.7781623e-07
2.8769105e-07
8.7218924e-09
1.1084781e-09
1.1318366e-10
5.8809898e-11
5.7825466e-10
1.4365143e-10
1.7127949e-12
1.1840222e-13
2.3026181e-13
6.0071183e-14
1.7768518e-15
8.9802732e-20
5.2664386e-22
9.8335767e-24
1.8879954e-25
8.9448868e-29
3.6362815e-31
3.7968229e-34
3.8754892e-36
2.5915462e-38
3.7532662e-40
3.0941842e-42
1.7157043e-44
1.9667318e-46
1.2809225e-46
1.1918335e-46
2.3256075e-47
5.3223245e-48
7.0704763e-49
9.0887474e-50
1.8653121e-49
2.9208742e-49
3.4082849e-49
4.1865893e-49
5.6192242e-49
5.8241709e-49
3.9674621e-49
1.561191e-49
4.2735037e-50
1.3301091e-50
3.2359898e-52
4.5436184e-51
1.4103521e-49
5.6282002e-49
6.0928632e-49
5.2680944e-49
3.53449e-49
1.6555593e-49
4.2851839e-50
1.2982655e-50
4.7989859e-49
2.1441206e-47
2.9383453e-46
1.8813282e-45
6.4525753e-45
2.2670822e-44
1.4080421e-42
1.1920392e-40
1.0844714e-38
1.5956238e-36
2.5580569e-34
3.0684785e-32
2.8889598e-30
2.4813191e-28
1.9505532e-26
1.3129055e-24
8.1247529e-23
1.0147684e-20
8.0120664e-19
1.0202678e-15
3.2172761e-12
9.3742178e-11
5.2418857e-11
3.1496128e-12
4.8535569e-13
6.3748527e-11
3.2119966e-10
4.4329377e-13
4.7071947e-14
1.5731482e-13
4.4800674e-13
1.0815071e-10
3.5881464e-09
4.9188616e-09
1.3163555e-09
3.6912758e-10
1.8366858e-11
1.0256275e-10
9.8022951e-10
2.0412959e-08
2.4265855e-06
7.6495267e-05
0.00010211959
8.0457131e-05
4.7170842e-06
5.2628007e-07
7.1550756e-07
8.986052e-07
9.6813732e-07
5.21428e-07
1.3239058e-08
1.34233e-09
7.5072182e-10
7.8234209e-09
2.8794057e-09
5.782968e-11
8.8373246e-13
1.460654e-13
3.7993184e-13
1.6528127e-13
4.1974224e-15
3.1963642e-17
1.1234114e-18
1.1224898e-21
3.9394215e-25
1.7722898e-28
2.1619498e-30
2.855352e-32
2.2116629e-34
2.6602201e-36
3.4663315e-38
2.4642051e-40
1.1735176e-42
1.6123641e-44
1.2407984e-44
1.0072203e-44
1.9183368e-45
4.7691626e-46
7.579006e-47
1.7309138e-47
3.756805e-47
5.134262e-47
5.7373063e-47
6.4932015e-47
8.2220702e-47
8.3309104e-47
5.3765465e-47
2.0754595e-47
5.5861068e-48
1.7098394e-48
5.4600721e-50
5.5396056e-49
1.5766049e-47
6.3103992e-47
6.8862508e-47
6.0034494e-47
4.0386568e-47
1.9039655e-47
5.1105272e-48
1.3533115e-48
5.0918525e-47
2.2408205e-45
2.7746271e-44
1.6754911e-43
5.2080208e-43
2.1500474e-42
1.824999e-40
1.7950344e-38
1.7163419e-36
1.6548292e-34
2.1009957e-32
2.7820862e-30
2.9123796e-28
2.5011151e-26
1.8588395e-24
1.3546382e-22
1.9701254e-20
3.8722495e-18
1.6110074e-16
2.2707799e-15
4.0467369e-12
1.6505347e-10
9.4498906e-11
3.8547264e-12
3.6738236e-13
6.7870865e-12
1.4013393e-10
2.8698308e-10
5.2998795e-10
7.1407717e-13
1.8703944e-11
2.2627678e-10
1.1317579e-07
1.1655568e-07
4.6456283e-08
9.0536179e-09
4.0775475e-10
4.6990719e-10
1.4761375e-09
4.1064084e-08
1.8807577e-05
0.00010224255
0.00010224111
4.4370961e-07
4.525397e-07
5.0052998e-07
6.2716215e-07
4.0028681e-06
2.804165e-06
4.7103458e-07
3.9337415e-07
1.5560418e-08
1.3187833e-09
1.688637e-08
1.8160429e-09
1.9412083e-13
2.933711e-13
1.3106227e-13
3.2383554e-13
1.1977787e-13
3.6969252e-15
1.1446433e-16
8.8822526e-18
9.3835781e-20
3.4803311e-24
4.4031527e-27
8.5704064e-29
1.0346938e-30
7.4508395e-33
1.620593e-34
1.7686726e-36
8.4405113e-39
3.2199719e-41
1.0932267e-42
1.0314511e-42
7.3787285e-43
1.4513876e-43
4.3590326e-44
8.5951659e-45
3.0446299e-45
6.5804913e-45
7.9477676e-45
8.4315242e-45
8.9516822e-45
1.0731578e-44
1.0639525e-44
6.5439392e-45
2.4781313e-45
6.5657642e-46
1.9827898e-46
8.9205708e-48
6.4937452e-47
1.6593888e-45
6.6293467e-45
7.3273817e-45
6.4287013e-45
4.3292535e-45
2.0525376e-45
5.7052921e-46
1.3043353e-46
4.2701026e-45
1.9558315e-43
2.2820838e-42
1.3232798e-41
4.2530259e-41
1.3383131e-40
1.0621043e-38
1.2594149e-36
1.3327498e-34
1.2798159e-32
1.2299271e-30
1.4541239e-28
1.6362402e-26
1.3790964e-24
1.0900229e-22
1.6110963e-20
3.3325377e-18
2.0442303e-16
6.9593903e-15
2.8485158e-13
7.112475e-12
6.2673732e-11
4.5149246e-11
4.0766112e-12
3.6738236e-13
4.6937759e-13
2.1270087e-09
1.2964767e-08
6.1753926e-10
2.7763204e-11
8.1413258e-10
1.2175718e-05
2.7605491e-05
3.5776592e-05
3.5270232e-05
4.632229e-06
1.9922733e-09
1.1602067e-09
2.9982943e-09
5.7991926e-08
3.983161e-05
0.00010232426
6.8679128e-05
4.4277901e-07
4.425838e-07
4.525397e-07
2.7817291e-06
5.5837147e-06
5.5915856e-06
4.4805085e-06
3.3513596e-07
1.1230532e-08
1.5064838e-08
9.5026538e-09
3.0936457e-12
3.5219697e-14
2.4107316e-14
1.4416877e-14
4.3550235e-15
1.5176839e-15
1.4992564e-15
1.0265748e-16
1.0635906e-17
2.0006299e-19
1.853376e-23
2.0388811e-25
3.8630236e-27
3.253437e-29
6.7759255e-31
6.267334e-33
4.1948601e-35
1.705825e-37
8.6085487e-40
1.1820136e-40
8.8130629e-41
3.3134548e-41
1.1619059e-41
4.7373793e-42
1.3011431e-42
4.3129695e-43
1.0040696e-42
1.1155047e-42
1.0761915e-42
1.1041457e-42
1.2551039e-42
1.2164825e-42
7.1735883e-43
2.6660378e-43
6.9629096e-44
2.0804714e-44
1.4014865e-45
7.3696996e-45
1.6514405e-43
6.5493247e-43
7.3737447e-43
6.4930522e-43
4.3684585e-43
2.0808769e-43
5.9697711e-44
1.1962203e-44
2.9835473e-43
1.4730971e-41
1.65862e-40
9.3410682e-40
3.4703379e-39
7.3517469e-39
3.0681135e-37
4.8623049e-35
4.6276816e-33
4.3740024e-31
4.0759515e-29
4.4777886e-27
5.325491e-25
5.3844579e-23
7.4629087e-21
1.7316812e-18
1.2378642e-16
2.1513942e-15
3.8502231e-14
6.4275963e-12
6.8401828e-11
4.2726374e-11
2.7037061e-11
4.0862815e-12
1.0254038e-05
4.0160536e-05
7.5186044e-10
7.3427016e-10
1.116593e-09
3.1551779e-09
6.0066883e-08
9.8502916e-06
8.656165e-05
0.00010217676
0.00010217632
8.3514576e-05
2.0487461e-06
2.5883492e-09
2.0413272e-08
2.3664368e-07
5.5891598e-05
0.00010184991
1.6775788e-05
4.4277901e-07
4.525397e-07
5.0689395e-07
2.9000933e-06
5.5858139e-06
5.5742747e-06
4.8954345e-06
5.2224836e-09
2.9860377e-09
1.4998205e-09
9.8792936e-12
8.8973114e-13
3.9025234e-13
3.3437616e-14
7.2830708e-10
6.7349715e-09
8.8082735e-09
4.5077766e-33
-9.4893544e-17
-1.5667728e-16
2.4570379e-19
5.1210114e-22
9.7117439e-24
1.0006826e-25
1.2393895e-27
1.5745261e-29
1.0668278e-31
6.0586785e-34
3.3317058e-36
2.225874e-38
8.4225521e-39
5.6754631e-39
2.070268e-39
1.1053064e-39
6.3959497e-40
2.1389367e-40
5.1910833e-41
1.3293523e-40
1.4002641e-40
1.2279992e-40
1.2177663e-40
1.3201444e-40
1.2472413e-40
7.1018561e-41
2.5917555e-41
6.6788007e-42
1.98038e-42
2.1049661e-43
8.138731e-43
1.5594261e-41
6.1061316e-41
7.0385427e-41
6.2036746e-41
4.161976e-41
1.9895106e-41
5.8696357e-42
1.0578993e-42
1.8427702e-41
9.7805718e-40
1.0766289e-38
5.9427825e-38
2.4562033e-37
4.1399431e-37
5.121578e-36
9.6775859e-34
1.0234455e-31
1.0106282e-29
1.0010128e-27
1.1495981e-25
1.6209029e-23
3.7163623e-21
6.4260212e-19
4.2891023e-17
9.4594282e-16
1.2425294e-14
1.3675788e-14
2.5867987e-11
2.655559e-10
1.5803627e-10
2.7667318e-11
4.2031634e-12
6.1641533e-05
7.8761312e-05
5.0455214e-05
1.0160858e-09
3.0445987e-09
9.7195781e-09
9.6547004e-08
4.2029533e-07
9.826101e-06
6.8884704e-05
0.00010160237
0.000101108
7.1734717e-05
5.175246e-07
7.6490109e-08
1.1801063e-06
6.6094767e-05
9.9243728e-05
2.7029443e-05
4.5184454e-07
5.0653179e-07
1.3588454e-06
2.6349148e-06
4.9550769e-06
1.4188818e-06
2.1218409e-07
1.0461568e-08
5.1937681e-09
2.0562537e-09
1.9875045e-07
1.0226712e-06
8.9129736e-13
1.6100743e-12
1.3280801e-09
1.0860416e-08
1.2018189e-08
-1.3526474e-16
-3.5464489e-16
-3.1391363e-16
2.9627821e-19
3.655306e-20
1.6745518e-22
1.9848522e-24
1.783476e-26
1.7725757e-28
2.3260916e-30
1.3772994e-32
5.9892922e-35
8.4330837e-37
5.0245085e-37
3.2592116e-37
1.6394995e-37
1.2932712e-37
1.0336426e-37
3.3388096e-38
6.3371869e-39
1.5351353e-38
1.5615375e-38
1.264963e-38
1.2041043e-38
1.2507645e-38
1.1513202e-38
6.3650173e-39
2.2826904e-39
5.8103635e-40
1.7141485e-40
3.0082533e-41
8.7743736e-41
1.4013905e-39
5.3915414e-39
6.3795885e-39
5.6225197e-39
3.7542522e-39
1.7982199e-39
5.4382145e-40
9.0390426e-41
1.0675929e-39
5.8141102e-38
6.2823208e-37
3.3960629e-36
1.3290301e-35
2.6722668e-35
8.6177422e-35
8.3187315e-33
1.5701682e-30
2.0468473e-28
2.4654015e-26
2.9244378e-24
4.1306432e-22
1.0577003e-19
1.2449954e-17
3.030731e-16
2.5879373e-15
2.2339472e-14
1.3782172e-14
6.7501782e-13
8.3826292e-10
6.9885121e-10
4.6883837e-11
2.0593276e-11
6.7025873e-05
7.9017691e-05
7.9027113e-05
2.3400777e-05
3.4710259e-09
1.8530178e-08
1.3218606e-07
4.5573598e-07
9.174622e-08
5.8759972e-08
1.1588645e-06
7.8538951e-05
0.00010134256
2.1095139e-05
1.3498719e-07
2.2545216e-06
7.3193022e-05
9.6356358e-05
5.3634431e-05
5.1063316e-07
6.6377464e-07
6.4082684e-06
1.3756411e-05
3.464745e-06
2.0113598e-07
1.1253327e-07
1.847236e-08
2.4457353e-08
1.0685364e-05
1.7392253e-05
1.3888405e-05
6.3671729e-08
3.1222451e-11
6.7054981e-10
5.6584936e-09
5.1574441e-09
-1.8601736e-16
-2.5229353e-16
-1.0180259e-16
8.9612318e-17
2.3073191e-18
7.6210302e-20
7.3229243e-22
6.6809134e-24
4.7709967e-26
2.3969319e-28
8.5646744e-31
3.2462357e-33
4.5738661e-35
2.6145061e-35
1.9167619e-35
1.7061624e-35
1.8759476e-35
1.4937527e-35
4.551019e-36
6.85862e-37
1.5689967e-36
1.5449735e-36
1.1671094e-36
1.0709087e-36
1.0690951e-36
9.5962977e-37
5.1765119e-37
1.8260007e-37
4.595548e-38
1.3520053e-38
4.0750012e-39
9.2368753e-39
1.2008754e-37
4.519839e-37
5.4949479e-37
4.8426339e-37
3.2134179e-37
1.5397224e-37
4.7613468e-38
7.4670945e-39
5.9252315e-38
3.1224181e-36
3.3019017e-35
1.7451597e-34
6.3195493e-34
1.7286415e-33
2.9143779e-33
4.4305255e-32
1.281672e-29
2.0432142e-27
2.5489069e-25
2.809139e-23
3.2362201e-21
5.2744049e-19
4.6271555e-17
1.0666155e-15
8.5272716e-15
5.6278209e-14
2.6847616e-14
2.6968235e-14
5.4084637e-09
8.071414e-09
1.9400499e-09
1.525284e-09
2.3708807e-05
7.902699e-05
7.9062732e-05
7.9101719e-05
9.7849532e-06
2.7880907e-08
2.5087154e-07
1.0957031e-06
3.2143916e-07
5.5870231e-08
5.4985831e-08
5.6087665e-08
0.0001009661
4.6600731e-05
3.4718917e-07
2.6332795e-06
7.4291077e-05
9.7704577e-05
6.9072269e-05
7.003223e-07
5.8023257e-07
7.3439988e-06
1.6020159e-05
1.6172932e-05
1.5742677e-05
6.7729488e-06
9.3021647e-06
1.6883206e-05
1.7392253e-05
1.7473209e-05
1.7554165e-05
1.168468e-05
4.7647634e-11
1.0261489e-08
7.5636551e-08
7.5058328e-10
0
1.3944443e-15
1.6628772e-15
5.2025659e-16
2.1548388e-17
6.3659935e-19
5.0754448e-21
4.8085673e-23
3.7032185e-25
2.1171877e-27
8.8407986e-30
1.8958901e-32
2.0744908e-33
1.6786521e-33
1.6930363e-33
2.3094456e-33
2.5778562e-33
1.9095923e-33
5.1528048e-34
6.7317604e-35
1.4251964e-34
1.3566163e-34
9.6544684e-35
8.5748973e-35
8.3088072e-35
7.2177277e-35
3.8292206e-35
1.3296637e-35
3.311369e-36
9.7359002e-37
5.2155992e-37
9.4661956e-37
9.8262971e-36
3.6032916e-35
4.4993101e-35
3.9672551e-35
2.6149629e-35
1.2519416e-35
3.9481961e-36