/*--------------------------------*- C++ -*----------------------------------*\
  =========                 |
  \\      /  F ield         | OpenFOAM: The Open Source CFD Toolbox
   \\    /   O peration     | Website:  https://openfoam.org
    \\  /    A nd           | Version:  9
     \\/     M anipulation  |
\*---------------------------------------------------------------------------*/
FoamFile
{
    format      ascii;
    class       surfaceScalarField;
    location    "0.61";
    object      alphaPhi0.phase1;
}
// * * * * * * * * * * * * * * * * * * * * * * * * * * * * * * * * * * * * * //

dimensions      [0 3 -1 0 0 0 0];

internalField   nonuniform List<scalar> 
19800
(
2.1963095e-88
3.565274e-89
1.7222766e-88
4.1775705e-89
3.9177884e-87
8.2499674e-88
7.2721581e-86
4.3425719e-86
1.7373571e-86
8.3369473e-86
-1.3885962e-86
5.1450775e-86
-6.8661472e-87
1.7317728e-86
-8.5573498e-87
5.3958672e-87
-1.2629957e-86
5.2061935e-87
-1.8362749e-86
5.911145e-87
-3.5040962e-84
1.9777402e-85
-8.5822582e-82
5.1685531e-83
-3.2858203e-80
2.8985047e-81
-3.5963738e-79
4.1614163e-80
-2.0412018e-78
2.6193299e-79
-8.3687664e-78
1.0716489e-78
-2.374375e-77
3.3725251e-78
-4.2135938e-77
8.0434935e-78
-2.7783636e-76
2.9943729e-77
-5.4588835e-74
4.6398398e-75
-1.2153174e-71
9.9156786e-73
-2.463718e-69
1.927364e-70
-4.5508041e-67
3.4293813e-68
-7.6761151e-65
5.5661437e-66
-1.1857428e-62
8.291047e-64
-1.6824845e-60
1.1321037e-61
-2.2003457e-58
1.4224528e-59
-2.6583848e-56
1.6487164e-57
-2.9501931e-54
1.7642802e-55
-3.3401268e-52
1.7531564e-53
-1.1896135e-49
1.8243522e-51
-1.5305638e-47
2.0856894e-49
-6.4604118e-47
3.8272691e-48
-3.1452209e-46
9.8905306e-48
-3.2065153e-46
2.2306871e-47
-1.943748e-46
1.6935891e-47
-1.9695468e-47
5.0038411e-48
-1.0482304e-46
3.527217e-49
-1.9586956e-46
-1.3818961e-48
-6.8700437e-45
-3.1968914e-46
-3.9736132e-43
-3.5003948e-44
-1.8475156e-41
-2.4765766e-42
-6.4632869e-40
-1.1963896e-40
-1.2358177e-38
-6.6550147e-39
-7.1597539e-38
-3.5471896e-37
-5.2905275e-37
-4.4592077e-36
-1.8525089e-36
-3.1771014e-35
1.2712613e-34
-7.0752224e-34
1.1836725e-32
-3.1227232e-32
7.1089111e-31
-1.415305e-30
3.4000261e-29
-5.879197e-29
1.3754432e-27
-2.1794556e-27
5.0879765e-26
-7.5024217e-26
4.910337e-25
-1.1787928e-24
1.4535909e-24
-6.7578262e-24
1.7102146e-24
-8.8099587e-24
3.3056377e-25
-8.1814227e-25
4.084816e-26
-4.0771321e-26
4.2200339e-27
-2.9209914e-27
2.3074384e-28
-6.1872349e-28
3.5615049e-30
-1.1981577e-29
1.061837e-31
3.4985798e-32
5.1117241e-33
2.7950116e-33
1.860893e-34
1.7888576e-34
6.7910577e-36
9.1926488e-36
2.3310491e-37
4.1157277e-37
7.4051688e-39
1.6401582e-38
2.1627618e-40
5.8649156e-40
5.7717589e-42
1.886443e-41
1.3992701e-43
5.4567795e-43
3.0644149e-45
1.4172402e-44
6.0289658e-47
3.2963574e-46
1.0597007e-48
6.8444368e-48
1.6547151e-50
1.2642509e-49
2.2819864e-52
2.0689648e-51
2.7620472e-54
2.9846402e-53
2.9140313e-56
3.7754834e-55
2.6596905e-58
4.1623797e-57
2.0822508e-60
3.9702391e-59
1.3842673e-62
3.2634134e-61
7.7278492e-65
2.274482e-63
3.570619e-67
1.3410784e-65
1.3419464e-69
6.5574088e-68
4.0149647e-72
2.626738e-70
9.304462e-75
8.4357471e-73
1.7046133e-77
2.1250773e-75
1.7101233e-79
4.6010804e-78
1.7660608e-80
1.0149887e-79
6.1697606e-82
7.6386447e-81
1.6295878e-84
1.5734501e-82
-2.5703158e-88
5.5437232e-85
-1.1843246e-87
1.5041425e-87
-1.9897087e-87
1.084756e-87
-5.0716259e-87
1.0363353e-87
-3.6273636e-86
2.1386993e-87
-3.5008089e-85
1.9652804e-87
-4.3965375e-85
-1.6965731e-86
-4.5866678e-85
-4.4401949e-86
-4.5872713e-85
-6.609786e-86
-8.7505863e-86
2.5435151e-88
9.701315e-89
5.8156044e-87
2.8722035e-87
1.5036446e-85
1.1369645e-85
1.0349148e-84
1.8594854e-84
4.0953563e-85
3.7900321e-84
-4.252228e-85
3.8168248e-84
-7.3032663e-85
3.194856e-84
-3.1816975e-85
1.7336348e-84
-2.0845014e-86
3.9675843e-85
-2.9573819e-86
2.5374136e-86
-1.9804839e-84
2.573857e-85
-5.8637065e-82
4.737098e-83
-2.2840438e-80
3.1326214e-81
-3.0701566e-79
4.4136453e-80
-1.8901009e-78
3.5979593e-79
-6.8476211e-78
1.6161283e-78
-1.6565417e-77
5.0093379e-78
-9.6900389e-77
2.802808e-77
-1.7852841e-74
4.9440855e-75
-4.5872194e-72
1.2187294e-72
-1.0556524e-69
2.6855094e-70
-2.1913592e-67
5.3432436e-68
-4.122169e-65
9.6526575e-66
-7.0554224e-63
1.5870007e-63
-1.1030431e-60
2.3821549e-61
-1.5818683e-58
3.2789238e-59
-2.0883723e-56
4.1422885e-57
-2.541454e-54
4.824927e-55
-2.8521489e-52
5.1815912e-53
-3.8240426e-50
5.1848005e-51
-2.4062773e-47
6.2146967e-49
-1.438154e-45
5.5146294e-47
-1.4649732e-45
4.0325665e-46
-3.8528922e-45
3.4763459e-46
-1.059738e-43
3.3722721e-45
-1.0810969e-43
1.6351265e-44
-4.335421e-44
1.0380264e-44
-1.8158988e-44
1.1390867e-45
-5.576314e-44
-1.0852021e-45
-3.5937109e-42
-2.6199704e-43
-1.9917231e-40
-2.6037498e-41
-8.9851512e-39
-1.7286996e-39
-3.1230852e-37
-7.8174106e-38
-5.0970388e-36
-2.1303311e-36
-1.8870088e-35
-2.7251882e-35
-7.6011596e-35
-1.7314275e-34
-5.2764737e-34
-3.2553937e-33
2.0814427e-32
-1.1324725e-31
2.1039003e-30
-4.2369233e-30
1.2048519e-28
-1.540773e-28
5.4791204e-27
-6.1931749e-27
2.1375475e-25
-2.3380569e-25
7.7815948e-24
-8.379549e-24
6.7584802e-23
-6.6780508e-23
1.5245583e-22
-1.1967476e-22
1.7807585e-22
-1.1996199e-22
7.0706548e-23
-6.0014647e-23
9.9836329e-24
-1.2554674e-23
9.008709e-25
-9.700388e-25
4.912745e-26
-5.3611253e-26
8.7147253e-28
-2.2094789e-27
3.2182762e-29
2.3974194e-29
1.3820112e-30
2.2124499e-30
5.0045018e-32
1.4227001e-31
1.8363574e-33
7.3258393e-33
6.3010658e-35
3.27462e-34
1.9915258e-36
1.2978709e-35
5.7637663e-38
4.6000469e-37
1.5183621e-39
1.4621106e-38
3.6208347e-41
4.1670899e-40
7.7759147e-43
1.063522e-41
1.4957154e-44
2.425016e-43
2.5627019e-46
4.924323e-45
3.8888857e-48
8.8728412e-47
5.1957216e-50
1.412534e-48
6.0725621e-52
1.9770524e-50
6.1644492e-54
2.4200107e-52
5.3938012e-56
2.5727103e-54
4.0287763e-58
2.3624168e-56
2.5422475e-60
1.8578409e-58
1.3369607e-62
1.2375884e-60
5.7712888e-65
6.908988e-63
2.0059474e-67
3.1836809e-65
5.4720367e-70
1.191243e-67
1.1634652e-72
3.5351989e-70
1.6916723e-75
8.0877648e-73
1.8076043e-78
1.3649472e-75
1.0330611e-80
1.7330629e-78
2.4590092e-82
1.1444313e-80
3.5145725e-85
2.306226e-82
-7.6890429e-87
1.3149985e-84
-3.5422778e-86
3.9989767e-86
-2.7689754e-85
2.3850247e-85
-2.0549785e-84
7.6063848e-85
-8.9448499e-84
1.8974003e-84
-7.8868402e-84
1.5897863e-84
-5.0476581e-84
-1.6734405e-85
-6.3288477e-85
-8.6647431e-85
-6.4774056e-85
-3.225062e-85
-4.582998e-85
3.2666943e-85
3.289322e-85
9.8410437e-84
7.0328252e-84
2.6386525e-82
2.823801e-82
1.0867059e-81
2.8166958e-81
5.2659832e-82
4.5638652e-81
-1.6949279e-82
4.2756841e-81
-4.239524e-82
3.2803663e-81
-2.0358703e-82
1.7014742e-81
-3.0743369e-83
4.1125027e-82
-1.7651304e-84
4.2514382e-83
-3.4372677e-84
3.256391e-84
-7.9305374e-82
6.2748147e-83
-1.0466209e-80
3.9835816e-81
-5.7746195e-80
3.122883e-80
-2.9972261e-77
2.8989269e-79
-1.0311801e-76
7.7932801e-77
-3.0913102e-76
2.1195437e-76
-4.4989634e-74
1.8333144e-74
-1.3453155e-71
5.1645679e-72
-3.5268201e-69
1.3024291e-69
-8.2402765e-67
2.901782e-67
-1.7371288e-64
5.8465204e-65
-3.3161752e-62
1.0703631e-62
-5.7533523e-60
1.7788963e-60
-9.1102972e-58
2.7018931e-58
-1.3212587e-55
3.7518796e-56
-1.7617647e-53
4.7806104e-54
-2.1619489e-51
5.6018214e-52
-2.4448861e-49
6.0439288e-50
-3.2944427e-47
6.0642065e-48
-2.0833121e-44
7.2851007e-46
-1.2366682e-42
6.4713646e-44
-1.2626827e-42
4.7652484e-43
-3.7088618e-42
4.2128267e-43
-1.1399275e-40
4.7157744e-42
-1.2000397e-40
2.3604999e-41
-6.0661113e-41
1.5563517e-41
-1.1306179e-41
1.7356273e-42
-2.0295659e-41
-5.8676785e-43
-1.1043354e-39
-1.0204349e-40
-5.9235126e-38
-9.6766264e-39
-2.5867563e-36
-6.1418388e-37
-8.705522e-35
-2.6163468e-35
-1.3229923e-33
-6.5472974e-34
-4.1333366e-33
-7.2896082e-33
-1.4637227e-32
-3.7694717e-32
-1.2324299e-31
-6.3011755e-31
1.4434645e-30
-2.0270899e-29
2.1294961e-28
-6.7710725e-28
1.217029e-26
-2.2699437e-26
5.3383731e-25
-7.1532561e-25
2.0255844e-23
-2.3658616e-23
7.3261954e-22
-8.3330819e-22
6.4995436e-21
-6.6854993e-21
1.6054781e-20
-1.6244112e-20
1.9072204e-20
-1.7333524e-20
8.4034123e-21
-9.1127439e-21
1.3500562e-21
-2.0792675e-21
1.1714757e-22
-1.8001701e-22
6.7490554e-24
-8.7802659e-24
1.2542035e-25
-2.4909149e-25
5.5203162e-27
4.8537375e-27
2.3282549e-28
5.1351011e-28
8.7795173e-30
3.3318589e-29
3.2686515e-31
1.7354628e-30
1.1288328e-32
7.8141811e-32
3.5719009e-34
3.1060943e-33
1.0294044e-35
1.0994809e-34
2.6851279e-37
3.4733888e-36
6.3065646e-39
9.7918529e-38
1.3278869e-40
2.4611421e-39
2.4936451e-42
5.5040488e-41
4.1539596e-44
1.0919328e-42
6.1038347e-46
1.9150143e-44
7.8630418e-48
2.9566701e-46
8.8209404e-50
3.9979447e-48
8.5524554e-52
4.7090134e-50
7.1070364e-54
4.7956767e-52
5.009012e-56
4.200244e-54
2.9811223e-58
3.1278703e-56
1.516972e-60
1.9657886e-58
6.2988903e-63
1.0258139e-60
2.0880845e-65
4.3807211e-63
5.3771465e-68
1.4997365e-65
1.0342261e-70
4.009931e-68
1.2166045e-73
8.064226e-71
7.9990484e-77
1.1590023e-73
4.2349779e-79
1.3172632e-76
8.9458201e-81
1.5648357e-78
-2.0905213e-82
7.6225059e-80
-2.6526665e-83
1.7896855e-81
-8.865271e-83
1.1313894e-82
-5.0994844e-82
5.2030195e-82
-3.0341479e-81
1.3938372e-81
-1.0901963e-80
3.1800852e-81
-1.072939e-80
2.8588565e-81
-7.335229e-81
3.0264905e-83
-1.7370143e-81
-1.2707215e-81
-1.0362016e-81
-6.5267331e-82
-6.8177746e-82
1.8651674e-82
2.37129e-82
9.2397388e-81
8.0151883e-81
2.5717324e-79
3.3208651e-79
7.1749957e-79
2.17897e-78
4.0641099e-79
3.1178803e-78
1.1302529e-80
2.8794892e-78
-1.5566018e-79
2.1480491e-78
-8.3894903e-80
1.0879285e-78
-1.9672513e-80
2.6250806e-79
-1.477979e-81
3.9514021e-80
-1.3173088e-82
2.2966707e-81
-2.4540308e-82
2.3200106e-82
-1.2822172e-79
8.6904575e-80
-2.6545345e-75
6.2430469e-77
-3.1892396e-73
4.3306279e-74
-2.4920789e-73
4.7184932e-73
-2.1560868e-73
2.9250625e-73
-2.3080645e-71
1.2200041e-71
-7.0858231e-69
3.5259703e-69
-1.9162029e-66
9.0980973e-67
-4.5934463e-64
2.0814409e-64
-9.8883088e-62
4.2776882e-62
-1.9232632e-59
7.9484126e-60
-3.3963808e-57
1.3442969e-57
-5.4631989e-55
2.0695502e-55
-8.0389287e-53
2.9140198e-53
-1.0856866e-50
3.756328e-51
-1.347229e-48
4.4482261e-49
-1.5381125e-46
4.8357626e-47
-2.0844668e-44
4.872701e-45
-1.319576e-41
5.8778243e-43
-7.7395466e-40
5.2312575e-41
-8.0431817e-40
3.8652109e-40
-2.613576e-39
3.4911335e-40
-8.5374977e-38
4.5713129e-39
-1.0110658e-37
2.4276167e-38
-5.7625094e-38
1.7514121e-38
-5.1818995e-39
2.4459597e-39
-7.1746152e-39
-2.7567701e-40
-2.4710997e-37
-2.4323913e-38
-1.2893252e-35
-2.3246478e-36
-5.4876911e-34
-1.4292532e-34
-1.7993486e-32
-5.7918612e-33
-2.5442345e-31
-1.3349972e-31
-6.7193838e-31
-1.2914052e-30
-2.0588546e-30
-5.3852516e-30
-1.9717336e-29
-7.8967307e-29
-5.1889809e-29
-2.421703e-27
1.3050988e-26
-7.146956e-26
8.1675343e-25
-2.2074896e-24
3.5800232e-23
-6.5393458e-23
1.3365371e-21
-1.8449804e-21
4.8089396e-20
-5.8178842e-20
4.3662932e-19
-4.7917877e-19
1.1691294e-18
-1.5066601e-18
1.4240421e-18
-1.8259025e-18
7.0227233e-19
-9.6138048e-19
1.2939253e-19
-2.3160912e-19
1.0826599e-20
-2.2198108e-20
6.557707e-22
-9.2086019e-22
1.2857433e-23
-1.5920321e-23
7.2844315e-25
7.7489025e-25
3.0116896e-26
8.594372e-26
1.1772548e-27
5.637924e-27
4.4612852e-29
2.980863e-28
1.5533422e-30
1.3561702e-29
4.9204735e-32
5.4172965e-31
1.4097222e-33
1.9161741e-32
3.6266378e-35
6.0103626e-34
8.3364851e-37
1.6700798e-35
1.708085e-38
4.1124144e-37
3.1043734e-40
8.9632924e-39
4.9761377e-42
1.7238944e-40
6.9956082e-44
2.9152432e-42
8.5733985e-46
4.3167436e-44
9.0975686e-48
5.5697586e-46
8.7926764e-50
6.2260911e-48
7.1033857e-52
5.9924977e-50
4.8339366e-54
4.9250544e-52
2.7385855e-56
3.4190675e-54
1.2726578e-58
1.9789443e-56
4.754814e-61
9.4212892e-59
1.3913859e-63
3.6181703e-61
3.0823659e-66
1.0927355e-63
4.8686485e-69
2.5135569e-66
2.6600438e-72
4.1759806e-69
4.2882942e-75
4.8166633e-72
1.8992259e-76
2.2461814e-74
-3.6370614e-78
1.5480345e-75
-4.1778221e-79
7.0934911e-77
-5.3573914e-80
1.5494904e-78
-1.4990262e-79
1.7601421e-79
-6.830364e-79
7.1374158e-79
-3.3518595e-78
1.6559303e-78
-9.9341149e-78
3.340259e-78
-9.9059807e-78
2.7095362e-78
-6.8922268e-78
-1.0733281e-79
-1.9972737e-78
-1.4020541e-78
-8.274635e-79
-7.6723291e-79
-6.3806208e-79
8.2033815e-80
1.205434e-79
5.1541076e-78
5.0348732e-78
1.4808666e-76
2.1186116e-76
3.5684982e-76
1.1568546e-75
2.3202343e-76
1.5362352e-75
5.8067738e-77
1.4121914e-75
-3.1736076e-77
1.0360175e-75
-2.4766115e-77
5.1851135e-76
-8.3563374e-78
1.2511914e-76
-4.0868675e-79
2.4535608e-77
-4.9744543e-80
8.8494632e-79
-1.0654007e-79
1.5754558e-79
-8.6682006e-77
7.0398844e-77
-2.7174289e-72
6.0880416e-74
-1.5890953e-70
3.9562346e-71
-1.1021647e-70
2.9861618e-70
-8.1270336e-71
1.5627856e-70
-8.7036357e-69
5.7398435e-69
-2.7634043e-66
1.7183512e-66
-7.7711363e-64
4.5590727e-64
-1.9279853e-61
1.0808425e-61
-4.2681811e-59
2.2794966e-59
-8.523535e-57
4.3449486e-57
-1.5411323e-54
7.5049472e-55
-2.5340679e-52
1.1799866e-52
-3.8007641e-50
1.6916293e-50
-5.2148805e-48
2.2133862e-48
-6.5542711e-46
2.6498315e-46
-7.5707059e-44
2.9124346e-44
-1.0328897e-41
2.9577366e-42
-6.5751293e-39
3.5943286e-40
-3.8428229e-37
3.2190195e-38
-4.0277305e-37
2.3968856e-37
-1.3501069e-36
2.1962626e-37
-4.7475305e-35
3.1909653e-36
-6.6555737e-35
1.8706729e-35
-4.1340984e-35
1.5423728e-35
-3.2380027e-36
2.8296078e-36
-2.9217927e-36
-9.244018e-38
-4.3319041e-35
-3.9903492e-36
-2.2125811e-33
-4.0393155e-34
-9.2414676e-32
-2.4494174e-32
-2.9676962e-30
-9.5368939e-31
-3.9175281e-29
-2.0278433e-29
-8.65964e-29
-1.7044642e-28
-2.2169413e-28
-5.6618344e-28
-2.2408182e-27
-7.0607092e-27
-2.1318579e-26
-2.0829472e-25
4.2549522e-25
-5.6005701e-24
3.8358231e-23
-1.5720971e-22
1.7551683e-21
-4.3669214e-21
6.5960272e-20
-1.1836386e-19
2.3843731e-18
-3.5190543e-18
2.218155e-17
-2.845724e-17
6.2478028e-17
-8.4389744e-17
7.8599811e-17
-9.5434274e-17
4.3725243e-17
-6.0629028e-17
9.3657994e-18
-1.7989236e-17
7.7529347e-19
-2.0174224e-18
4.8815931e-20
-7.135014e-20
1.1377205e-21
-5.4078401e-22
7.3091751e-23
1.0607207e-22
3.1887802e-24
1.1443411e-23
1.2895952e-25
7.5599545e-25
4.9893255e-27
4.0610965e-26
1.7548706e-28
1.8707329e-27
5.5663079e-30
7.5218682e-29
1.5822929e-31
2.659485e-30
3.993604e-33
8.2677887e-32
8.9015329e-35
2.251797e-33
1.755979e-36
5.3887147e-35
3.0542574e-38
1.1342372e-36
4.6529192e-40
2.0933933e-38
6.3655644e-42
3.3748574e-40
8.0823827e-44
4.7400957e-42
8.3275275e-46
5.7686449e-44
7.2990465e-48
6.0205335e-46
5.4020824e-50
5.3669978e-48
3.3338154e-52
4.0414113e-50
1.6899007e-54
2.5421296e-52
6.9019093e-57
1.3165387e-54
2.2139468e-59
5.5105612e-57
5.3884378e-62
1.8184932e-59
9.4181068e-65
4.5789791e-62
9.0471948e-68
8.3435199e-65
3.5161163e-71
1.0168167e-67
1.0361546e-72
1.5232318e-70
-3.361623e-74
1.0671098e-71
-8.7975868e-75
9.2076659e-73
-3.6776599e-76
4.1155973e-74
-7.9359006e-77
9.5257938e-76
-1.8936999e-76
2.0900225e-76
-6.9654823e-76
7.0244712e-76
-2.8344253e-75
1.4103782e-75
-7.173298e-75
2.4665798e-75
-7.0921078e-75
1.6825375e-75
-4.8941846e-75
-4.1186148e-76
-1.5060097e-75
-1.2338449e-75
-5.0907519e-76
-6.4777838e-76
-4.5880072e-76
2.944192e-77
4.7148141e-77
2.1187492e-75
2.2010226e-75
6.2770522e-74
9.3424993e-74
1.4243859e-73
4.6408011e-73
1.0297857e-73
5.8884837e-73
4.0271164e-74
5.4085947e-73
1.1845544e-75
3.9409965e-73
-4.939802e-75
1.956725e-73
-2.0446775e-75
4.7618871e-74
-1.4602241e-75
1.1020123e-74
-1.7950647e-76
5.307252e-75
-4.4270153e-76
7.6292319e-76
-6.2138748e-72
4.8542025e-73
-1.7971551e-69
6.1672308e-70
-5.4034447e-68
2.2530023e-68
-2.8390715e-68
1.2671738e-67
-2.1632202e-68
4.8921054e-68
-3.0317204e-66
2.012445e-66
-9.2296847e-64
6.296389e-64
-2.4373467e-61
1.7341698e-61
-6.3021617e-59
4.2506002e-59
-1.4498278e-56
9.3157221e-57
-2.9855573e-54
1.8293639e-54
-5.5540638e-52
3.2456574e-52
-9.3634985e-50
5.2246336e-50
-1.4361516e-47
7.648749e-48
-2.0125318e-45
1.0216169e-45
-2.5786184e-43
1.2467945e-43
-3.0275118e-41
1.3907335e-41
-4.1656197e-39
1.4284744e-39
-2.6780882e-36
1.7483937e-37
-1.5711109e-34
1.5858917e-35
-1.6457868e-34
1.1894802e-34
-5.3789716e-34
1.0983671e-34
-2.0464585e-32
1.6876514e-33
-3.4930707e-32
1.116807e-32
-2.343087e-32
1.0716108e-32
-2.3187963e-33
2.5565017e-33
-1.038395e-33
2.0354363e-35
-6.3018357e-33
-4.6771508e-34
-3.1552664e-31
-5.4212021e-32
-1.3028835e-29
-3.3082476e-30
-4.1373142e-28
-1.2509578e-28
-5.0654865e-27
-2.4666457e-27
-9.2727944e-27
-1.7939183e-26
-1.9174711e-26
-4.6926426e-26
-1.8448545e-25
-4.7577425e-25
-2.4629325e-24
-1.355377e-23
-5.833307e-24
-3.493321e-22
1.1985024e-21
-8.7176568e-21
6.4026593e-20
-2.2574912e-19
2.493575e-18
-6.0933683e-18
9.0998689e-17
-1.5379432e-16
8.4487443e-16
-9.4984094e-16
2.4081986e-15
-2.2265924e-15
3.08424e-15
-1.2639338e-15
1.8915512e-15
-4.011019e-16
5.5048323e-16
-5.6812286e-16
5.438834e-17
-1.116569e-16
2.8838202e-18
-5.24983e-18
9.2312002e-20
3.4363913e-21
5.8513316e-21
1.2103593e-20
2.7546155e-22
1.2271633e-21
1.1876919e-23
8.2953305e-23
4.7011903e-25
4.550978e-24
1.6811854e-26
2.1363729e-25
5.3558013e-28
8.6988494e-27
1.5051865e-29
3.0773578e-28
3.6990112e-31
9.4599097e-30
7.886769e-33
2.5041625e-31
1.4755953e-34
5.7528861e-33
2.5743354e-36
1.1555349e-34
4.0397254e-38
2.0274647e-36
5.378256e-40
3.0846883e-38
5.9553816e-42
4.0426019e-40
5.6041163e-44
4.5361136e-42
4.4467667e-46
4.330778e-44
2.9360914e-48
3.4902232e-46
1.5899607e-50
2.344465e-48
6.9226664e-53
1.29469e-50
2.3622414e-55
5.7656886e-53
6.0803934e-58
2.0208203e-55
1.1142151e-60
5.3728075e-58
1.2923309e-63
1.0259225e-60
2.8674117e-67
1.2694869e-63
1.1825122e-69
1.1151878e-66
-1.8353572e-70
2.7960864e-68
-7.2276689e-71
4.2119922e-69
-6.3171669e-72
3.9185209e-70
-1.9147013e-73
1.7238048e-71
-9.3983273e-74
4.4218831e-73
-1.8662503e-73
2.0175813e-73
-5.6333517e-73
5.2412317e-73
-1.9309362e-72
9.1484273e-73
-4.2117092e-72
1.3556714e-72
-4.1078102e-72
6.9264776e-73
-2.7636232e-72
-5.5288665e-73
-8.5804205e-73
-8.7040879e-73
-2.5197608e-73
-4.2506964e-73
-2.6451002e-73
8.9865598e-75
1.5003481e-74
6.9956806e-73
7.415071e-73
2.1316887e-71
3.1634144e-71
4.7386522e-71
1.4888363e-70
3.7209764e-71
1.8399431e-70
1.8012939e-71
1.6941628e-70
4.4160517e-72
1.2321356e-70
-3.8632395e-73
6.1085941e-71
-2.6937286e-73
1.5069036e-71
-1.805971e-72
3.7721697e-72
-1.8838331e-73
1.4704275e-71
-3.9092369e-73
1.1000017e-72
-1.0899444e-68
4.605806e-70
-7.8670001e-67
5.989357e-67
-1.4340689e-65
9.3002133e-66
-5.0616005e-66
4.167571e-65
-4.4137131e-66
1.0960479e-65
-8.367065e-64
5.2600388e-64
-2.4582007e-61
1.7360887e-61
-7.228381e-59
5.0245928e-59
-1.8169766e-56
1.2848676e-56
-3.8895139e-54
2.9267678e-54
-8.254498e-52
5.9791263e-52
-1.5926894e-49
1.0996397e-49
-2.7780387e-47
1.8281189e-47
-4.3966153e-45
2.758203e-45
-6.329681e-43
3.7809051e-43
-8.2967462e-41
4.7182025e-41
-9.9340805e-39
5.3575976e-39
-1.3797533e-36
5.5933432e-37
-9.0564538e-34
6.9120596e-35
-5.4339672e-32
6.4126414e-33
-5.5603325e-32
4.8771011e-32
-1.7405377e-31
4.4216626e-32
-7.1412504e-30
7.1183962e-31
-1.467168e-29
5.3014518e-30
-1.0612591e-29
5.8848061e-30
-1.3848177e-30
1.7490366e-30
-3.5992741e-31
6.8939114e-32
-7.9903145e-31
-3.771788e-32
-3.8781115e-29
-5.7678272e-30
-1.5951721e-27
-3.6809319e-28
-5.0762114e-26
-1.3727568e-26
-5.702923e-25
-2.5190129e-25
-8.5033115e-25
-1.5774721e-24
-1.3848782e-24
-3.2136622e-24
-1.146645e-23
-2.4914659e-23
-1.8363082e-22
-6.8589917e-22
-1.7602535e-21
-1.7162201e-20
1.609298e-20
-3.9986773e-19
1.6830687e-18
-9.7349039e-18
7.2672774e-17
-2.1393337e-16
2.6347331e-15
-3.7873882e-15
2.5593699e-14
-3.2600243e-14
7.9095304e-14
-8.080865e-14
1.059039e-13
-5.7896654e-14
6.7242775e-14
-2.4302569e-15
2.2046284e-14
0
2.9275517e-15
-2.7572058e-16
1.5774395e-16
-1.8122073e-16
6.7362406e-18
3.1680987e-18
4.2022469e-19
1.1672575e-18
2.133651e-20
1.1448823e-19
9.6456134e-22
7.9077266e-21
3.9851076e-23
4.4709633e-22
1.4925925e-24
2.1925271e-23
4.808169e-26
9.2225987e-25
1.3137575e-27
3.2539672e-26
3.0996699e-29
9.8133858e-28
6.4830357e-31
2.4903894e-29
1.2578879e-32
5.408178e-31
2.1235785e-34
1.0298658e-32
2.9974246e-36
1.6879245e-34
3.5374831e-38
2.3675507e-36
3.5314606e-40
2.8269551e-38
2.9580134e-42
2.8568412e-40
2.0532775e-44
2.4251902e-42
1.1626155e-46
1.7094455e-44
5.2645856e-49
9.8529204e-47
1.852221e-51
4.557333e-49
4.8553482e-54
1.6453922e-51
8.8175566e-57
4.4572134e-54
9.2241742e-60
8.4697322e-57
1.6017672e-63
9.6032132e-60
8.5069563e-67
5.4886431e-63
-4.7171861e-67
3.8540747e-65
-2.2748144e-67
7.999599e-66
-4.1916802e-68
1.3186397e-66
-2.8314664e-69
1.2898494e-67
-6.7230821e-71
5.4641731e-69
-7.5147469e-71
1.7059159e-70
-1.452228e-70
1.5289805e-70
-3.6841325e-70
3.0681097e-70
-1.08563e-69
4.6513366e-70
-2.0496168e-69
5.6633033e-70
-1.9685861e-69
1.5033185e-70
-1.2826054e-69
-4.5033631e-70
-3.9293016e-70
-4.9682829e-70
-1.0380295e-70
-2.2458046e-70
-1.2560128e-70
2.4077463e-72
4.0370091e-72
1.9438024e-70
2.0317532e-70
6.0739892e-69
8.6903823e-69
1.3484507e-68
3.9678635e-68
1.1282952e-68
4.8366144e-68
6.2131955e-69
4.4786549e-68
2.1848837e-69
3.2633797e-68
2.5563937e-70
1.6233457e-68
-2.522244e-71
4.082215e-69
-6.5650627e-70
1.0348523e-69
-1.0406808e-70
9.0984874e-69
-9.3896112e-70
8.9057704e-70
-4.5466376e-66
1.0371347e-66
-2.1407514e-64
2.3666648e-64
-2.9364001e-63
2.7519071e-63
-3.5506164e-63
1.0664384e-62
-2.4230827e-63
1.1280838e-62
-1.307381e-61
1.0499597e-61
-4.9417775e-59
3.6710231e-59
-1.5398138e-56
1.1230311e-56
-4.2126319e-54
3.0287216e-54
-1.018911e-51
7.2439424e-52
-2.1038258e-49
1.5477542e-49
-3.8669797e-47
2.9667135e-47
-6.6776316e-45
5.1267887e-45
-1.0957615e-42
8.0115056e-43
-1.6301169e-40
1.1345999e-40
-2.2007597e-38
1.4562121e-38
-2.7065099e-36
1.6981162e-36
-3.8050311e-34
1.8088535e-34
-2.5784639e-31
2.2726948e-32
-1.6183563e-29
2.1804288e-30
-1.5978515e-29
1.6933917e-29
-4.8305484e-29
1.4891938e-29
-2.0951983e-27
2.507483e-28
-4.9452614e-27
2.0472645e-27
-3.8355555e-27
2.5547764e-27
-6.7525365e-28
9.1758089e-28
-4.8108859e-29
6.3056469e-29
-9.6171404e-29
-1.6766872e-30
-4.1863458e-27
-4.8657707e-28
-1.7457955e-25
-3.4448835e-26
-5.6950223e-24
-1.3107336e-24
-5.7166743e-23
-2.2434488e-23
-6.8480859e-23
-1.1941511e-22
-8.6371249e-23
-1.8973054e-22
-5.537908e-22
-1.0277155e-21
-9.6780844e-21
-2.7341983e-20
-1.2889355e-19
-6.6906855e-19
-8.4745077e-19
-1.5870479e-17
2.6548484e-17
-3.271023e-16
1.8274609e-15
-3.3626881e-15
7.096209e-14
-1.0814337e-13
6.5650963e-13
-8.5688409e-13
2.0682064e-12
-2.2469438e-12
2.8523741e-12
-1.7906966e-12
2.0044333e-12
0
7.4971783e-13
0
1.2187977e-13
0
8.2396787e-15
0
4.3353689e-16
7.4591381e-16
2.6948249e-17
1.0359856e-16
1.4516918e-18
9.3141259e-18
6.9681588e-20
6.5586668e-19
3.1837006e-21
3.9366742e-20
1.3444096e-22
2.1554485e-21
4.309967e-24
9.6769641e-23
1.0878146e-25
3.3172495e-24
2.4037672e-27
9.5973526e-26
5.4405052e-29
2.2848923e-27
9.825223e-31
4.6613959e-29
1.476699e-32
8.2063898e-31
1.8421644e-34
1.2257479e-32
1.9292419e-36
1.543552e-34
1.6806335e-38
1.6316722e-36
1.2031926e-40
1.4366843e-38
6.9577017e-43
1.0421476e-40
3.1814353e-45
6.1239725e-43
1.1125065e-47
2.8578032e-45
2.8162354e-50
1.0263042e-47
4.5798936e-53
2.6991229e-50
2.208741e-56
4.7061164e-53
4.6600517e-60
3.295949e-56
-5.7058654e-65
1.7863445e-59
-6.5298986e-64
2.2447962e-62
-3.2730537e-64
8.5605535e-63
-9.8952814e-65
1.8981872e-63
-1.5628102e-65
3.3444399e-64
-9.4437802e-67
3.3582664e-65
-3.0112464e-68
1.4008662e-66
-4.0525403e-68
6.1417183e-68
-9.0983874e-68
9.1024869e-68
-1.9788729e-67
1.4386714e-67
-5.0927638e-67
1.8806347e-67
-8.432947e-67
1.7700439e-67
-8.0065459e-67
-2.7478823e-68
-4.993452e-67
-2.6585007e-67
-1.4961546e-67
-2.322869e-67
-3.6318738e-68
-9.7916875e-68
-5.0003668e-68
5.816965e-70
9.468029e-70
4.6818593e-68
4.6876169e-68
1.4931737e-66
2.0041767e-66
3.3432189e-66
9.0252114e-66
2.9410805e-66
1.0941836e-65
1.7686422e-66
1.0220152e-65
7.313893e-67
7.4893001e-66
1.4781364e-67
3.749845e-66
7.3002895e-69
9.6475709e-67
-1.0764057e-68
2.3136782e-67
-1.6539472e-67
1.9992837e-66
-1.0355342e-65
2.2811037e-65
-1.6156107e-63
2.2337299e-63
-4.6104858e-62
7.4958106e-62
-2.0210553e-61
6.6426919e-61
-6.3944227e-61
2.2353312e-60
-1.0022348e-59
1.2681122e-59
-4.1628319e-57
8.0277465e-58
-1.3473444e-56
3.0942288e-56
-3.0060683e-54
1.9310063e-54
-7.3687982e-52
5.5259106e-52
-1.8867224e-49
1.3976039e-49
-4.293213e-47
3.1500461e-47
-8.6951922e-45
6.3574145e-45
-1.5028199e-42
1.1512933e-42
-2.3635139e-40
1.8791954e-40
-3.4378089e-38
2.7686938e-38
-4.8201262e-36
3.6881592e-36
-6.1289524e-34
4.4420061e-34
-8.7505755e-32
4.8620976e-32
-6.1596457e-29
6.2296149e-30
-4.0809191e-27
6.2372298e-28
-3.7904557e-27
5.0184936e-27
-1.2456199e-26
4.1854361e-27
-5.4541905e-25
7.9571186e-26
-1.3383136e-24
6.6234173e-25
-1.0937191e-24
8.7886282e-25
-2.2831687e-25
3.6436114e-25
-8.3734814e-27
3.5463514e-26
-1.3050465e-26
4.9808622e-28
-4.0529162e-25
-2.99248e-26
-1.7433869e-23
-2.7293008e-24
-6.0098451e-22
-1.0863258e-22
-5.2206663e-21
-1.7163483e-21
-4.9661948e-21
-8.0334194e-21
-4.832535e-21
-1.033752e-20
-2.0879056e-20
-3.2904932e-20
-3.8264153e-19
-8.6426974e-19
-6.3763726e-18
-2.1371064e-17
-6.6317624e-17
-5.0494133e-16
-6.4936721e-17
-4.621016e-15
5.0040773e-14
-8.767662e-14
1.4431579e-12
-2.2065716e-12
1.2572854e-11
-1.7603708e-11
4.1958729e-11
-4.9263837e-11
6.2259961e-11
-4.475482e-11
4.9533542e-11
-2.8981236e-12
2.1126349e-11
0
4.0494753e-12
0
2.1428567e-13
-6.3675736e-13
1.4389488e-14
1.36107e-13
1.2168146e-15
1.1493364e-14
7.6842402e-17
6.0532865e-16
3.8400018e-18
4.0352593e-17
2.2337392e-19
2.7029621e-18
1.3548317e-20
1.9711713e-19
4.5095679e-22
1.0975974e-20
8.9775174e-24
3.5121921e-22
2.0779728e-25
8.9632334e-24
4.154712e-27
1.941662e-25
6.6334387e-29
3.6598633e-27
8.6522071e-31
5.7872486e-29
9.3753233e-33
7.6093389e-31
8.3388678e-35
8.287009e-33
6.004691e-37
7.4232293e-35
3.4364561e-39
5.4004467e-37
1.5184583e-41
3.1367804e-39
4.9255077e-44
1.4164566e-41
1.0461251e-46
4.7726699e-44
9.5190089e-50
1.1129225e-46
3.1805085e-53
1.6427275e-49
5.719004e-57
1.1242229e-52
-1.0778357e-60
4.0985671e-56
-4.2996409e-61
2.0078437e-59
-2.8768266e-61
4.3485131e-60
-1.0877981e-61
1.6922144e-60
-3.0614356e-62
3.8649243e-61
-4.5460966e-63
7.3257807e-62
-2.5336525e-64
7.4301577e-63
-1.3430425e-65
3.0489379e-64
-2.274107e-65
2.2393511e-65
-4.6546366e-65
4.2746392e-65
-8.8716354e-65
5.472796e-65
-2.0107953e-64
6.0475323e-65
-3.0105313e-64
3.74321e-65
-2.8102385e-64
-4.4963898e-65
-1.6556977e-64
-1.2314507e-64
-4.8414321e-65
-9.0176192e-65
-1.0945405e-65
-3.5909945e-65
-1.6930808e-65
1.2971864e-67
1.9856043e-67
9.9816192e-66
9.3208145e-66
3.2276547e-64
3.9726662e-64
7.3428477e-64
1.7847202e-63
6.7213973e-64
2.1677815e-63
4.3083503e-64
2.0487736e-63
1.9576912e-64
1.5141748e-63
4.8155943e-65
7.6565195e-64
4.8324878e-66
2.0117611e-64
7.9440717e-67
4.7309873e-65
-2.2029375e-65
3.3536659e-64
-5.5412594e-63
2.2561311e-62
-4.1068421e-61
1.0991676e-60
-7.4886807e-60
2.0277505e-59
-2.8423972e-59
1.3773697e-58
-1.0868708e-58
4.5873495e-58
-2.7949843e-57
5.4945162e-57
-3.1112556e-55
5.5578489e-55
-4.2399728e-53
5.1961682e-53
-1.9918882e-50
4.6670703e-51
-1.193682e-49
2.5325395e-49
-2.9194932e-47
1.8697413e-47
-5.8654511e-45
4.470033e-45
-1.2619386e-42
9.5549686e-43
-2.4287082e-40
1.8321092e-40
-4.1913455e-38
3.1623203e-38
-6.3031232e-36
4.9027403e-36
-8.389731e-34
6.8399024e-34
-1.0261453e-31
8.5844689e-32
-1.4665643e-29
9.7287787e-30
-9.1261552e-27
1.2476019e-27
-5.5726808e-25
1.3441127e-25
-1.069511e-24
1.3766302e-24
-1.3345876e-23
2.465392e-24
-1.660441e-22
5.5449848e-23
-2.9496682e-22
2.0793597e-22
-2.4507053e-22
2.4330917e-22
-5.6367377e-23
1.0866076e-22
-1.7611726e-24
1.3220078e-23
-2.2034257e-24
3.2159489e-25
-3.6147889e-23
-9.9874676e-25
-1.603609e-21
-1.8294128e-22
-5.1335726e-20
-8.0353349e-21
-3.5316898e-19
-1.197539e-19
-2.6973771e-19
-5.1667752e-19
-2.527508e-19
-4.8939339e-19
-6.1417371e-19
-8.2206213e-19
-1.2121782e-17
-2.2251106e-17
-2.1249409e-16
-5.0959986e-16
-1.3906854e-15
-6.5441606e-15
-5.7144428e-15
-4.0211962e-14
-7.0210241e-15
-8.135694e-13
1.6360257e-11
-3.1984444e-11
1.9682042e-10
-3.0533234e-10
7.6222715e-10
-9.4353346e-10
1.2246724e-09
-9.3523404e-10
1.1035082e-09
-2.6465469e-10
5.579288e-10
0
2.2295673e-10
-8.7097923e-10
5.0327781e-12
-2.0183386e-12
6.0220492e-13
3.953264e-12
3.6449569e-14
5.283402e-13
2.4907074e-15
3.1399664e-14
1.7278535e-16
1.8759926e-15
1.1328573e-17
1.3892439e-16
7.1956663e-19
1.1538489e-17
2.5278231e-20
7.0624384e-19
4.6382633e-22
2.3006876e-20
1.0380109e-23
5.366345e-22
1.8435975e-25
1.0290451e-23
2.5062599e-27
1.7009421e-25
2.7608109e-29
2.3093045e-27
2.4466787e-31
2.5532171e-29
1.707171e-33
2.2812822e-31
9.1723812e-36
1.6245315e-33
3.4839483e-38
9.054069e-36
6.2011561e-41
3.8360477e-38
6.0462243e-44
1.1893202e-40
6.9769649e-47
2.6228513e-43
3.9489336e-50
3.994332e-46
-2.7786078e-54
3.8389897e-49
-3.6792115e-56
1.3763021e-52
-3.1347008e-58
3.8731342e-55
-8.624255e-59
2.1695277e-57
-7.6404264e-59
5.3131702e-58
-2.727924e-59
3.341592e-58
-7.4044047e-60
6.8874822e-59
-1.0557872e-60
1.3605e-59
-5.6280508e-62
1.3729384e-60
-5.9027459e-63
5.7747613e-62
-1.1240007e-62
8.1055419e-63
-1.9805642e-62
1.6162857e-62
-3.3482147e-62
1.7035329e-62
-6.8033632e-62
1.511958e-62
-9.2526376e-62
2.5555155e-63
-8.5268541e-62
-2.4782335e-62
-4.7330455e-62
-4.6199111e-62
-1.3507299e-62
-2.956248e-62
-2.8730763e-63
-1.1237291e-62
-4.9362737e-63
2.7311023e-65
3.8033023e-65
1.9148092e-63
1.6244663e-63
6.2279758e-62
6.8809957e-62
1.4452368e-61
3.112494e-61
1.3649311e-61
3.8124893e-61
9.2011734e-62
3.654634e-61
4.4506987e-62
2.7321436e-61
1.2189384e-62
1.3988401e-61
1.5746279e-63
3.7351316e-62
5.9743828e-64
9.8177663e-63
1.9767656e-63
6.7006739e-62
-7.7232153e-61
8.4689539e-60
-5.9402118e-59
3.1400951e-58
-9.7971113e-58
4.206206e-57
-3.6201873e-57
2.4697606e-56
-1.4519548e-56
7.8115767e-56
-5.9911759e-55
1.3436776e-54
-9.5699849e-53
1.92777e-52
-1.1594485e-50
2.1856846e-50
-1.1634192e-48
2.0608359e-48
-1.0350197e-46
1.768492e-46
-9.2945144e-45
1.4932372e-44
-1.2091276e-42
1.4413414e-42
-1.3186488e-40
1.8518929e-40
-2.4833471e-38
3.0042599e-38
-6.9425171e-36
5.3937016e-36
-1.1293952e-33
8.9226815e-34
-1.5881361e-31
1.3223905e-31
-2.0259944e-29
1.7564193e-29
-2.6522909e-27
2.0876686e-27
-2.0325016e-24
2.7681729e-25
-1.7367796e-22
3.3054078e-23
-1.9239168e-22
3.1903358e-22
-1.2408045e-21