/*--------------------------------*- C++ -*----------------------------------*\
  =========                 |
  \\      /  F ield         | OpenFOAM: The Open Source CFD Toolbox
   \\    /   O peration     | Website:  https://openfoam.org
    \\  /    A nd           | Version:  9
     \\/     M anipulation  |
\*---------------------------------------------------------------------------*/
FoamFile
{
    format      ascii;
    class       volScalarField;
    location    "0.61";
    object      p;
}
// * * * * * * * * * * * * * * * * * * * * * * * * * * * * * * * * * * * * * //

dimensions      [1 -1 -2 0 0 0 0];

internalField   nonuniform List<scalar> 
10000
(
0
0.02223673
0.056719309
0.10193002
0.15882136
0.22859225
0.31437739
0.41343089
0.52612401
0.65250957
0.79254668
0.94615352
1.1133065
1.2939485
1.4879988
1.6953389
1.9158103
2.149188
2.3951816
2.653424
2.9234475
3.2046495
3.4963613
3.7977735
4.1079815
4.4259468
4.7505175
5.0804162
5.4142546
5.7505263
6.0876355
6.423923
6.757634
7.0868831
7.4095606
7.7228866
8.0244685
8.313843
8.5915142
8.8628632
9.1164485
9.3494046
9.5593387
9.7434976
9.8988647
10.022136
10.109684
10.158325
10.164331
10.12441
10.035936
9.897105
9.7073981
9.4679679
9.1820104
8.8549742
8.4943176
8.1089394
7.7082392
7.3012214
6.8955897
6.4964096
6.1065544
5.724947
5.3506793
4.982317
4.6182935
4.2573832
3.8987825
3.542209
3.1877919
2.8360209
2.4876155
2.1434024
1.8043444
1.4714463
1.1457264
0.82813573
0.51950743
0.22065713
-0.067626089
-0.34462809
-0.60984275
-0.86272738
-1.1028839
-1.3299082
-1.543427
-1.7430922
-1.9286428
-2.1000165
-2.2571821
-2.3999514
-2.5282609
-2.6417139
-2.7375925
-2.8224209
-2.8921687
-2.9476971
-2.9878873
-3.0104151
-0.03119027
-0.0086785619
0.026574648
0.072579038
0.13081129
0.20219513
0.28762923
0.38665032
0.49921619
0.62541304
0.7652226
0.91863415
1.0856372
1.2661961
1.4602376
1.6676935
1.8884009
2.1221462
2.3686711
2.6275973
2.8984595
3.1807122
3.4736498
3.776486
4.0883018
4.4080914
4.7346864
5.0668169
5.4030871
5.7419926
6.0819453
6.4212822
6.7582423
7.090956
7.4174307
7.7355673
8.0435635
8.3404387
8.6261459
8.8994977
9.1558504
9.3923022
9.6059841
9.7938962
9.9529001
10.079568
10.170141
10.221232
10.229395
10.19081
10.10257
9.9624773
9.7696757
9.525109
9.231948
8.8958823
8.5248446
8.1283918
7.7166355
7.2991443
6.8837424
6.4754327
6.0772447
5.6889259
5.3095165
4.937544
4.5713202
4.2094037
3.8508158
3.49501
3.1418958
2.7917587
2.4451542
2.1028402
1.7656656
1.4345489
1.1104532
0.79429165
0.48693344
0.18918674
-0.098145727
-0.37444196
-0.63905864
-0.89149498
-1.1313094
-1.3581019
-1.5714958
-1.7712459
-1.9571614
-2.1289845
-2.286351
-2.4292343
-2.5574563
-2.6708852
-2.7692003
-2.8544808
-2.9237706
-2.9777881
-3.0168525
-3.0384545
-0.071939138
-0.049324628
-0.013624
0.032930715
0.09192641
0.16399124
0.24943811
0.34832503
0.46073181
0.58670229
0.72629455
0.87954607
1.0464632
1.2270361
1.42125
1.6290141
1.8502103
2.0846814
2.332153
2.5922897
2.8646576
3.1486984
3.4437462
3.749015
4.0636054
4.3864761
4.716477
5.0523138
5.3925865
5.7357792
6.0802866
6.4244153
6.7663882
7.1043552
7.4364351
7.7607174
8.0754753
8.3792567
8.6705783
8.9482424
9.2091206
9.4502815
9.6688754
9.8617983
10.025673
10.15692
10.251706
10.306176
10.316742
10.279059
10.19002
10.046882
9.8483111
9.5950289
9.2903313
8.9405252
8.5545172
8.1429342
7.7168884
7.2868012
6.8611957
6.4457795
6.0423762
5.650795
5.2696511
4.8969298
4.5305988
4.1688811
3.8106454
3.4552526
3.1025305
2.7527586
2.4064525
2.064356
1.7273278
1.3962799
1.0721951
0.75598183
0.44847487
0.15053953
-0.1370252
-0.41357874
-0.67851082
-0.93131727
-1.1715207
-1.3987003
-1.6124911
-1.8126137
-1.9988149
-2.1708356
-2.3284148
-2.4714636
-2.5998544
-2.7134906
-2.8123588
-2.8969815
-2.9673498
-3.0198696
-3.0584004
-3.0796945
-0.12446214
-0.1018837
-0.066061759
-0.019245931
0.040066396
0.11234239
0.19773929
0.29644486
0.40860085
0.53428728
0.67361323
0.82665755
0.99346916
1.1740848
1.3685011
1.5766734
1.7985317
2.0339309
2.2826524
2.5443944
2.8187437
3.1051735
3.4030397
3.7115771
4.0298747
4.3569001
4.6915017
5.0323795
5.3781136
5.7271638
6.077895
6.428579
6.7774174
7.1225476
7.4620905
7.7941772
8.117035
8.428997
8.7284389
9.0135401
9.2816972
9.5301804
9.756164
9.9564572
10.127491
10.265497
10.366443
10.425946
10.440297
10.404702
10.315277
10.16844
9.9619756
9.6960843
9.3742502
9.0038252
8.5953291
8.1611728
7.7141736
7.2661461
6.8264425
6.4008361
5.9909112
5.5960195
5.2138357
4.8413912
4.4759705
4.1154206
3.7583251
3.4039225
3.0519886
2.702728
2.3567095
2.0147103
1.677601
1.3463724
1.0220152
0.70542502
0.3974844
0.099097071
-0.18897107
-0.46604588
-0.731531
-0.98491116
-1.225678
-1.4533896
-1.6677032
-1.868309
-2.0549163
-2.2272443
-2.3851706
-2.5284792
-2.6570672
-2.7708509
-2.8697783
-2.9538454
-3.0227651
-3.075643
-3.1141103
-3.1352007
-0.18895384
-0.16654008
-0.13082494
-0.084032114
-0.024717936
0.04746408
0.13266618
0.23103737
0.34281221
0.46811356
0.60707984
0.75984105
0.92650236
1.1071285
1.3017594
1.5104125
1.7330566
1.9695945
2.2198595
2.4835861
2.7604011
3.0498221
3.3512378
3.6638974
3.9869014
4.3192207
4.6597019
5.0070268
5.3597572
5.7163259
6.0750376
6.434117
6.7917265
7.1459484
7.4948663
7.8365828
8.1692257
8.4909606
8.8000564
9.0947402
9.3723473
9.6303392
9.8658813
10.075701
10.256053
10.402839
10.51178
10.578269
10.597725
10.565207
10.475282
10.32347
10.105967
9.8218873
9.4749699
9.0745773
8.6340374
8.1686071
7.6933526
7.2217901
6.7646548
6.3292821
5.9145065
5.5185748
5.1377759
4.7678188
4.4051442
4.0472053
3.6923871
3.3398164
2.9892407
2.6408817
2.295343
1.9534764
1.616242
1.2846928
0.95985398
0.64266488
0.3340642
0.034964623
-0.2538393
-0.53168328
-0.79795838
-1.0521143
-1.2936328
-1.5220839
-1.73711
-1.9383619
-2.1255013
-2.2983528
-2.4567054
-2.600344
-2.7291603
-2.8430627
-2.9419582
-3.025727
-3.0940539
-3.1469248
-3.1851775
-3.2059209
-0.26547459
-0.24334676
-0.20793044
-0.16136774
-0.1023216
-0.030470669
0.054329865
0.15215377
0.26340384
0.38817231
0.52665067
0.67902296
0.84543282
1.0259965
1.2208201
1.4299785
1.6534969
1.8913415
2.1433953
2.4094449
2.6891783
2.9821667
3.2878335
3.6054591
3.9341714
4.2729373
4.6205881
4.9757949
5.3370815
5.7028576
6.0713388
6.4406904
6.8089857
7.1742436
7.5344702
7.8876925
8.2318945
8.5651217
8.8850302
9.1914683
9.4805067
9.7500938
9.9974114
10.219022
10.410897
10.568662
10.687645
10.762931
10.789157
10.761368
10.671431
10.513542
10.281364
9.9718446
9.588585
9.145065
8.6596334
8.1520533
7.6405162
7.1404149
6.662027
6.2202695
5.8043551
5.4119631
5.0370482
4.6734816
4.3167931
3.9640072
3.6133028
3.2638351
2.9154065
2.5683795
2.2235241
1.8818086
1.5443303
1.2122516
0.8866303
0.56847181
0.25885219
-0.041314564
-0.33124144
-0.6102137
-0.87759088
-1.1328197
-1.3753808
-1.6048177
-1.820747
-2.0228169
-2.2107208
-2.3842166
-2.5431241
-2.687225
-2.8163684
-2.9304378
-3.0293402
-3.1129675
-3.1810912
-3.2337637
-3.2717529
-3.2920322
-0.3540742
-0.33235974
-0.29738336
-0.251255
-0.19269473
-0.12141827
-0.037289649
0.059887136
0.170378
0.29442139
0.43223924
0.58405155
0.75005522
0.93044033
1.1253772
1.3350066
1.5594289
1.7986772
2.0526989
2.3213563
2.6044117
2.9014955
3.2120869
3.5355076
3.8709091
4.2172628
4.5733861
4.9379255
5.3093595
5.6860482
6.0661298
6.447642
6.828587
7.2068595
7.5803443
7.9469282
8.3044974
8.6510188
8.9848393
9.3032488
9.6052082
9.8881686
10.149353
10.385123
10.590977
10.762012
10.893191
10.979196
11.014381
10.992313
10.904169
10.739699
10.487928
10.141473
9.7031377
9.1964243
8.6474517
8.0838569
7.5273562
6.9958363
6.5059368
6.0542385
5.644263
5.2644438
4.903394
4.5527012
4.207038
3.863178
3.5193229
3.1748075
2.8297394
2.4847945
2.1409622
1.7994582
1.461632
1.1287655
0.80201368
0.48258168
0.1716113
-0.12999566
-0.42140705
-0.70184861
-0.97065628
-1.2272432
-1.4710897
-1.7017323
-1.9187799
-2.1218604
-2.310668
-2.4849553
-2.6445239
-2.7891949
-2.9187986
-3.0331852
-3.132227
-3.215813
-3.2838614
-3.3363379
-3.3740055
-3.3937522
-0.45473443
-0.43353762
-0.39915005
-0.35362757
-0.29577083
-0.22530424
-0.14205749
-0.045804853
0.063723276
0.18681392
0.32373342
0.47475347
0.64014551
0.82016893
1.0150652
1.2250565
1.450327
1.690991
1.9470877
2.2185737
2.5052936
2.8069572
3.1231178
3.4531473
3.796212
4.1512913
4.5172012
4.8925584
5.275783
5.665132
6.058695
6.4543381
6.8499329
7.2432801
7.6320399
8.013877
8.3865224
8.7477846
9.0956686
9.428274
9.7447891
10.042826
10.319981
10.572447
10.794985
10.981873
11.127441
11.226058
11.271862
11.257754
11.174098
11.004341
10.727372
10.326235
9.8020667
9.1982831
8.5523277
7.9124882
7.3035723
6.7383343
6.2354761
5.7963297
5.4113571
5.0607975
4.7268274
4.3988832
4.0715648
3.7419572
3.408716
3.0717121
2.7316301
2.3896863
2.047346
1.7062153
1.3679273
1.034003
0.70582417
0.38480389
0.072107162
-0.23131059
-0.52455059
-0.80679557
-1.0773277
-1.3355235
-1.5809215
-1.8129956
-2.0313666
-2.235643
-2.4255213
-2.6007602
-2.7611422
-2.9064869
-3.0366161
-3.1513711
-3.2506549
-3.3343145
-3.4022887
-3.4546347
-3.4920075
-3.5112468
-0.56736534
-0.54680037
-0.51312106
-0.46839189
-0.41145602
-0.34202314
-0.25990406
-0.16484719
-0.056551407
0.065293819
0.20101893
0.35096238
0.51546505
0.69485659
0.88946747
1.0996168
1.3255832
1.5675882
1.8257831
2.1002324
2.3908857
2.6975609
3.0198986
3.3573133
3.7090013
4.0739574
4.4509886
4.8386745
5.2353604
5.6392039
6.0481881
6.4600162
6.8723676
7.2829025
7.68903
8.088147
8.4776461
8.8549612
9.2179957
9.5650807
9.8969524
10.211262
10.506454
10.778485
11.021004
11.226866
11.389254
11.502115
11.559911
11.556283
11.47982
11.311575
11.009392
10.537321
9.873674
9.1157301
8.3173603
7.5685338
6.890541
6.2928455
5.7975278
5.3975963
5.0720404
4.7806231
4.4948849
4.2044793
3.9060826
3.5981451
3.2804944
2.9541767
2.6210117
2.283148
1.9427967
1.602159
1.2632853
0.9280447
0.59813859
0.27515295
-0.039691284
-0.34534577
-0.64077756
-0.92516211
-1.1977198
-1.4578336
-1.7050134
-1.938773
-2.1586587
-2.3643092
-2.5554479
-2.7318067
-2.8931383
-3.0392457
-3.1699997
-3.2852499
-3.3848284
-3.4686473
-3.5366308
-3.5888554
-3.6259262
-3.6446395
-0.69183491
-0.67198852
-0.63916702
-0.59541772
-0.53961263
-0.47145642
-0.39073668
-0.29717461
-0.19044701
-0.07019271
0.063988032
0.21249934
0.37574353
0.55413759
0.74811594
0.9581099
1.1845177
1.4276856
1.6878942
1.9653426
2.2601221
2.5721658
2.9012068
3.2467271
3.6079771
3.9839749
4.3735011
4.7750602
5.1869326
5.6071913
6.033641
6.46382
6.8951311
7.325062
7.7508689
8.169511
8.5777399
8.9723692
9.3511406
9.713116
10.058378
10.389074
10.704254
10.999569
11.266675
11.495728
11.677729
11.805835
11.875704
11.88377
11.821429
11.661335
11.346505
10.779594
9.8445679
8.8378611
7.8005286
6.9039834
6.1412497
5.4903202
5.0602434
4.7756059
4.5791109
4.3972533
4.1928769
3.9617522
3.7069138
3.4303096
3.1343393
2.8224086
2.4982776
2.1655835
1.8276734
1.4875413
1.1478469
0.81098966
0.47902175
0.15361655
-0.16381398
-0.47222822
-0.77018544
-1.05712
-1.3319876
-1.5943319
-1.8435829
-2.0792408
-2.3008797
-2.5081318
-2.7006834
-2.8782697
-3.0406909
-3.1877372
-3.3191877
-3.4349624
-3.5349296
-3.6189744
-3.6870137
-3.739127
-3.7759137
-3.7940696
-0.82794996
-0.80893488
-0.77712644
-0.73453322
-0.68008428
-0.61346868
-0.53444908
-0.44273056
-0.33794873
-0.21967644
-0.087455605
0.059174921
0.22069642
0.39762732
0.59051811
0.79992986
1.0264004
1.2704207
1.5324301
1.8127992
2.1117819
2.429442
2.7656123
3.1198937
3.4916268
3.8798395
4.2832567
4.7003082
5.1291725
5.5678186
6.0139269
6.4647498
6.917399
7.3691256
7.8170411
8.2577069
8.6867792
9.0998349
9.4936551
9.867602
10.223157
10.569238
10.906026
11.22994
11.528923
11.787865
11.993647
12.137477
12.215991
12.231964
12.19106
12.067974
11.756361
10.979562
9.5384245
8.0504949
6.3959722
5.375178
4.5307871
3.9967749
3.7487438
3.7813809
3.8664947
3.8781916
3.804083
3.6635127
3.4720354
3.2387014
2.9712692
2.6775415
2.3644647
2.0378827
1.7026519
1.3628339
1.0219238
0.68302834
0.34849417
0.020048204
-0.30022111
-0.61233231
-0.91310503
-1.2027669
-1.4803629
-1.7452505
-1.9968498
-2.2346604
-2.4582658
-2.6673042
-2.8614555
-3.0404473
-3.2040364
-3.3521073
-3.4844023
-3.6007884
-3.7011703
-3.7854756
-3.8536097
-3.9056562
-3.942183
-3.9597909
-0.97551217
-0.95743968
-0.92679101
-0.88554942
-0.83269441
-0.76790506
-0.69093096
-0.60143987
-0.49900886
-0.38316235
-0.25339999
-0.10918998
0.050045792
0.22493996
0.41617206
0.62444347
0.85044791
1.0948544
1.3583006
1.6413547
1.9444452
2.2678087
2.6114455
2.9750969
3.3581983
3.7597925
4.1785347
4.6127836
5.0605723
5.5196578
5.9877041
6.4617434
6.9383173
7.4143214
7.8869343
8.3525803
8.8052224
9.2378259
9.6448971
10.026335
10.388043
10.739259
11.099023
11.459332
11.802567
12.104261
12.342478
12.502643
12.580266
12.58778
12.558644
12.499738
12.310417
11.105549
8.6722122
7.7121158
5.2648074
1.5144873
0.38424203
0.33330353
1.0716054
2.0794462
2.8214748
3.1929134
3.3178754
3.3063225
3.2027297
3.0262503
2.7941104
2.521992
2.221555
1.9014572
1.5687263
1.2288597
0.88597025
0.5444019
0.2066221
-0.12588488
-0.44991399
-0.76498773
-1.069416
-1.3623837
-1.6430792
-1.9108517
-2.1650754
-2.4052699
-2.6310526
-2.8420763
-3.0379885
-3.218531
-3.3834593
-3.5326223
-3.6658114
-3.7829067
-3.883781
-3.9683761
-4.0365946
-4.0886372
-4.1249333
-4.1419853
-1.1342797
-1.1172506
-1.0879274
-1.048234
-0.99722992
-0.93459069
-0.86003236
-0.77317022
-0.67354173
-0.56063969
-0.4339118
-0.29274704
-0.13646185
0.035705487
0.22456929
0.43098274
0.65582188
0.89997091
1.1642945
1.4495794
1.7564757
2.085462
2.4367815
2.8103477
3.2056731
3.6218169
4.0573932
4.510624
4.9793734
5.461082
5.9534876
6.4536866
6.9570142
7.4595604
7.9592499
8.4538681
8.933836
9.3875585
9.8045925
10.184002
10.535373
10.871987
11.261309
11.67023
12.081424
12.451676
12.739905
12.919164
12.979358
12.931009
12.858406
12.860986
12.806228
11.846806
11.306813
8.0331649
-0.51117615
-5.8330009
-7.3070978
-6.4717915
-3.8670682
-0.88090863
1.2252662
2.2930406
2.733779
2.8973321
2.9076736
2.8011414
2.6087741
2.3600711
2.0728201
1.7584405
1.427416
1.0868731
0.74013769
0.39497537
0.05296316
-0.28351048
-0.61204266
-0.93120455
-1.2396228
-1.5363114
-1.8204434
-2.091392
-2.3485304
-2.591375
-2.8195592
-3.0327362
-3.2305834
-3.4127828
-3.5791858
-3.7295632
-3.8637252
-3.9815604
-4.0829776
-4.1679219
-4.2362417
-4.2882791
-4.324395
-4.3408303
-1.3039481
-1.2880765
-1.2602357
-1.2223054
-1.1734437
-1.1132946
-1.0415317
-0.95773837
-0.8614295
-0.75206052
-0.62901909
-0.49160927
-0.33904007
-0.17042646
0.01519444
0.21885438
0.44163465
0.68466177
0.94904962
1.2358523
1.5460339
1.8803868
2.2394381
2.6233217
3.0316905
3.4636354
3.9176759
4.3917756
4.8835603
5.390131
5.9093996
6.4392882
6.9728089
7.5031036
8.0303129
8.5598394
9.0749433
9.5538135
9.9751797
10.335862
10.656413
10.989974
11.367279
11.838631
12.35932
12.843961
13.215825
13.427204
13.447506
13.230191
12.910964
13.004483
13.153022
11.313268
5.3009325
-3.1243151
-10.688753
-15.721354
-17.538295
-15.722085
-10.850279
-5.1328188
-0.95789444
1.1899697
2.0785676
2.4650332
2.6089916
2.5786507
2.4234205
2.1977176
1.9230839
1.6112635
1.2797498
0.9362334
0.58631643
0.23584754
-0.11170869
-0.45346328
-0.78713451
-1.1110797
-1.4239913
-1.7248627
-2.0128346
-2.2872561
-2.5475732
-2.793337
-3.0241561
-3.239664
-3.4395761
-3.6235922
-3.7915671
-3.9432255
-4.0784051
-4.1969905
-4.2990037
-4.3843156
-4.4528102
-4.5048384
-4.5408043
-4.5565999
-1.4841532
-1.4695576
-1.4433574
-1.4074399
-1.3610227
-1.3037071
-1.2351511
-1.1549227
-1.0625103
-0.95732453
-0.83869146
-0.70583503
-0.55786369
-0.39377314
-0.21244472
-0.01264387
0.20695325
0.44771857
0.71107008
0.99840261
1.3110798
1.6502772
2.0168763
2.4113235
2.833507
3.2825849
3.756914
4.2540424
4.7710321
5.3045675
5.8528357
6.4163358
6.9857011
7.5460181
8.0993403
8.6763211
9.2326019
9.7425731
10.160003
10.469104
10.707468
10.959697
11.329144
11.856767
12.548905
13.266213
13.811264
14.107152
14.086018
13.579686
12.717492
13.141314
12.605968
5.1732491
-1.3426368
-10.365643
-19.224784
-25.266452
-26.99606
-24.375581
-17.739109
-9.5570163
-3.2682064
0.078626376
1.4465309
2.0674534
2.3401116
2.3827949
2.246062
2.041013
1.7737778
1.4642744
1.129381
0.78004913
0.42381619
0.066475039
-0.28782149
-0.63592838
-0.97555013
-1.3049706
-1.6229042
-1.9283587
-2.2205453
-2.4987935
-2.7625855
-3.0115274
-3.2451717
-3.4631983
-3.6652988
-3.8512602
-4.020924
-4.1740118
-4.3102646
-4.429607
-4.5322214
-4.6178896
-4.6865665
-4.7386204
-4.7744209
-4.7895691
-1.6744653
-1.66129
-1.6368995
-1.6032483
-1.5595777
-1.5054658
-1.4405735
-1.3644512
-1.2765562
-1.1762561
-1.0628225
-0.93541263
-0.79304503
-0.63459023
-0.45877327
-0.26417286
-0.049199924
0.1878568
0.44878777
0.73532389
1.0493172
1.3924491
1.7660964
2.1711595
2.6078712
3.0755087
3.572252
4.0951124
4.63983
5.2017847
5.779943
6.3808309
6.9954065
7.5923189
8.1356427
8.7978868
9.4084542
9.9663687
10.367232
10.561409
10.612781
10.562258
10.813573
11.430092
12.429574
13.696661
14.634749
15.109251
15.124999
14.493386
13.045945
18.106937
12.085456
4.3670134
-5.2350966
-15.545196
-25.245034
-31.442113
-33.015947
-29.854836
-22.18679
-12.544065
-4.9163059
-0.74942122
0.97426087
1.7832175
2.1364739
2.2127062
2.1078782
1.9045553
1.6343322
1.3192961
0.97650185
0.61817938
0.25286728
-0.1132631
-0.47572395
-0.83130768
-1.1777329
-1.5132912
-1.8367716
-2.1472383
-2.4439826
-2.7263928
-2.9939432
-3.2462922
-3.4829848
-3.7037229
-3.9082049
-4.0962342
-4.2676996
-4.4223818
-4.5594639
-4.6796991
-4.7829149
-4.8689618
-4.937766
-4.9898565
-5.025496
-5.0399645
-1.8744259
-1.8628361
-1.8404143
-1.8092692
-1.7686673
-1.7181645
-1.6574237
-1.5859774
-1.503251
-1.4085825
-1.3012083
-1.1802315
-1.0445848
-0.89302261
-0.72413112
-0.53631467
-0.32774944
-0.096244238
0.16061281
0.44452182
0.75814737
1.1038263
1.4836044
1.8990111
2.3508074
2.8385615
3.3603294
3.9128824
4.4889099
5.0790415
5.6854069
6.3229413
6.9955294
7.6854283
8.1402747
8.9170519
9.5630408
10.212227
10.599066
10.525163
10.280047
10.692361
11.474659
11.41155
12.467466
14.376033
15.982695
16.564396
16.781183
16.535066
16.026246
20.404384
11.162393
2.7908032
-6.7577575
-17.248849
-27.133607
-33.189095
-34.369998
-30.905999
-23.098268
-13.226756
-5.4194473
-1.0690655
0.85059074
1.6922624
2.0428848
2.1107745
2.0014214
1.7885147
1.5062039
1.1779582
0.82174318
0.45048472
0.073162958
-0.30385396
-0.67601799
-1.0401681
-1.3941651
-1.7364914
-2.066045
-2.3819538
-2.6835642
-2.970437
-3.2420843
-3.498091
-3.7380538
-3.9616772
-4.1687049
-4.3588993
-4.5322453
-4.6891845
-4.8266691
-4.9476617
-5.0514542
-5.1378627
-5.2067716
-5.2588738
-5.2943553
-5.3080994
-2.083566
-2.0736831
-2.0533894
-2.0249884
-1.9877991
-1.9413323
-1.8852476
-1.8190618
-1.742177
-1.6539237
-1.5535262
-1.4400416
-1.3123318
-1.1690719
-1.0087332
-0.82953667
-0.62941396
-0.40603263
-0.15492801
0.1237561
0.4346711
0.78086839
1.1652638
1.5902293
2.0574238
2.5669607
3.1165243
3.7054765
4.3206158
4.9351364
5.5645297
6.2178314
6.908688
7.5692471
8.201473
10.436285
9.7299505
10.627581
10.962652
10.494205
9.8517769
10.310646
15.929077
19.694133
20.016803
17.784268
17.910692
18.197275
18.838769
19.084135
19.515758
22.330784
11.978749
3.5804861
-5.4630091
-15.362464
-24.738443
-30.34922
-31.223475
-27.647424
-20.297311
-11.3908
-4.4786029
-0.62834126
1.1022827
1.8203894
2.0751686
2.0812789
1.9349921
1.6960391
1.3897787
1.040091
0.66441732
0.27594129
-0.11638444
-0.50630072
-0.88955539
-1.2632895
-1.6255863
-1.9751813
-2.31118
-2.6329045
-2.939772
-3.2314119
-3.5074149
-3.767359
-4.0108559
-4.2375808
-4.4472767
-4.6396544
-4.8143687
-4.9706858
-5.1114266
-5.2337561
-5.3382555
-5.4249523
-5.4939061
-5.5459839
-5.5812534
-5.5942843
-2.3012846
-2.2932392
-2.2752415
-2.2498342
-2.2164152
-2.174423
-2.1235013
-2.0631618
-1.9928084
-1.9117873
-1.8193193
-1.7144343
-1.595971
-1.4625682
-1.312593
-1.1440644
-0.95459338
-0.74131683
-0.50071086
-0.22956685
0.075766689
0.419666
0.80633673
1.2392813
1.7214693
2.2548445
2.8319123
3.4696984
4.1453255
4.7716093
5.4380867
6.1157378
6.8516404
7.4108258
11.000587
13.175918
11.506494
11.428812
11.368945
10.116032
8.1537864
7.6532743
9.132468
13.293835
17.499364
20.070239
19.677939
19.325028
21.066181
21.573979
22.054227
23.770679
13.065796
5.9037899
-1.9766491
-10.482291
-18.344656
-23.376315
-23.861736
-20.529501
-14.436888
-7.521007
-2.324142
0.49482251
1.7346427
2.1753627
2.2317276
2.1199625
1.9071603
1.6258703
1.2837516
0.90384594
0.5024097
0.092491851
-0.31763081
-0.72217601
-1.1175855
-1.5015896
-1.8726892
-2.229953
-2.5727332
-2.900533
-3.212963
-3.5097292
-3.7904269
-4.0546232
-4.3019422
-4.5320008
-4.7445698
-4.939409
-5.1162824
-5.2747674
-5.4158605
-5.5388632
-5.6438491
-5.7306978
-5.7995649
-5.8515422
-5.8864939
-5.8987533
-2.5269331
-2.5208153
-2.5053058
-2.4831672
-2.4538899
-2.4168126
-2.3715553
-2.3176504
-2.2545292
-2.1815627
-2.0979807
-2.0028349
-1.8949958
-1.7731031
-1.6354572
-1.4799245
-1.3038822
-1.1041531
-0.8769515
-0.61764332
-0.32187451
0.015852842
0.40106128
0.83898162
1.3354534
1.9034852
2.5237665
3.1984753
3.913846
4.6100864
5.3152579
6.0255056
6.8128534
7.1634205
10.30426
12.67516
13.299696
11.764251
11.302185
9.5812558
6.0789184
4.8034754
6.1827448
9.525892
13.731493
17.324091
25.900576
20.139672
23.905823
24.046525
24.073435
24.390982
15.488205
9.0075739
2.6904261
-3.8367462
-9.2027447
-13.656021
-14.039911
-11.822698
-7.5125752
-2.8675618
0.48397629
2.6974109
3.0581652
2.7388405
2.4761126
2.2102027
1.9147249
1.575311
1.1848225
0.76474772
0.33156049
-0.10337164
-0.53331808
-0.9536193
-1.3617629
-1.7562783
-2.1363057
-2.501358
-2.8511075
-3.1852324
-3.5035602
-3.8058283
-4.0915949
-4.3603931
-4.6118377
-4.8455628
-5.0612539
-5.2586681
-5.4374994
-5.5978259
-5.7398116
-5.8634078
-5.9686786
-6.0555348
-6.1241889
-6.1759067
-6.2103846
-6.2216955
-2.7597833
-2.7556646
-2.7428483
-2.7242878
-2.6995355
-2.6678104
-2.6287221
-2.5818472
-2.5266458
-2.4625177
-2.3887509
-2.3044787
-2.2086488
-2.0999544
-1.9767075
-1.8367321
-1.6772574
-1.4948038
-1.2850483
-1.0427027
-0.76176056
-0.43550258
-0.056632849
0.38189015
0.88663667
1.500142
2.155661
2.8854228
3.6645635
4.4458378
5.2250175
6.0458253
6.9638507
7.6383639
9.0650459
12.13011
13.715839
14.245045
10.650494
9.2341298
6.1730345
4.434956
5.1905708
8.2001147
11.907501
17.199224
27.217965
23.723673
27.034824
26.146026
25.541231
25.506078
18.291878
12.447524
7.2449302
2.316288
-0.87034238
-3.6648212
-4.7271037
-3.7424613
-1.5210059
1.3182839
3.1790116
3.9778746
3.8582578
3.3840896
2.6788639
2.3071806
1.9506639
1.532406
1.0820455
0.61359673
0.14465344
-0.31716838
-0.76744896
-1.2033577
-1.6238613
-2.0284979
-2.4171695
-2.7898615
-3.1466319
-3.4873644
-3.81194
-4.1201008
-4.4113459
-4.6851868
-4.9411415
-5.178846
-5.3979631
-5.5982639
-5.7790421
-5.9409612
-6.083888
-6.2079853
-6.313373
-6.3999949
-6.4682081
-6.5194709
-6.5532118
-6.5633233
-2.9989789
-2.9969485
-2.9870781
-2.9724305
-2.9526169
-2.9266957
-2.8942964
-2.8550302
-2.8083846
-2.753819
-2.6907298
-2.618382
-2.5358704
-2.4420247
-2.3352966
-2.2136002
-2.0741301
-1.9131996
-1.7260153
-1.5065339
-1.2472958
-0.93957034
-0.57348639
-0.13882523
0.37363759
1.0127287
1.7134716
2.5120648
3.380848
4.2665928
5.1404826
6.0505305
7.0076543
7.9553504
9.1308975
10.536055
10.506924
15.123448
14.997346
9.9692072
8.0122725
6.5305545
6.9882054
9.0055691
12.352017
17.755681
23.961286
26.413704
28.63883
27.226649
25.7038
26.172067
20.049842
15.087089
10.624485
7.1272863
4.8093482
3.1083749
2.2235718
2.4508709
3.5881341
4.3115188
4.3849681
4.3837092
4.5092243
4.1355648
3.0006415
2.3434709
1.9349949
1.4629107
0.95086951
0.43422905
-0.069304115
-0.55624794
-1.0248159
-1.4744438
-1.9057177
-2.3192524
-2.7157842
-3.0957603
-3.4594398
-3.8069644
-4.1382151
-4.4527518
-4.7500563
-5.0295168
-5.2905406
-5.5326352
-5.7555073
-5.9592458
-6.1417758
-6.3050911
-6.448865
-6.5732718
-6.6785438
-6.7646407
-6.8320963
-6.882648
-6.9153293
-6.9239142
-3.243441
-3.2437268
-3.2371409
-3.226784
-3.2123448
-3.19276
-3.1675721
-3.1364474
-3.0989236
-3.0545538
-3.0028691
-2.9433279
-2.8752689
-2.797794
-2.7096437
-2.6089752
-2.493136
-2.3584313
-2.1997939
-2.0105481
-1.7816398
-1.5021013
-1.1587379
-0.73634896
-0.21791335
0.41835041
1.1726117
2.0508184
3.0349281
4.0541533
5.047643
6.029935
7.026223
8.0268322
9.0724063
9.9753895
10.27757
10.570871
12.016706
12.859141
10.422595
9.1588919
9.2770579
10.566609
13.345876
18.712631
24.609082
26.360299
28.507779
27.113995
24.180861
24.694798
20.449164
15.38326
12.583817
10.526132
8.6390633
7.0014865
6.0671016
5.6772905
5.1828521
5.3049881
5.4013244
4.8934947
4.8770859
4.35849
2.8478907
2.3229946
1.8650495
1.3317839
0.7650405
0.20841158
-0.3227868
-0.82876303
-1.3104774
-1.7697872
-2.2088034
-2.6291653
-3.0322124
-3.4187972
-3.7893482
-4.1439536
-4.4824008
-4.8040561
-5.1082095
-5.3940783
-5.6608959
-5.9078981
-6.1345882
-6.3401452
-6.5261832
-6.6911802
-6.8356812
-6.9601306
-7.0649246
-7.1501096
-7.2164278
-7.2658883
-7.297104
-7.3037439
-3.4918456
-3.4949687
-3.4921492
-3.4865638
-3.47806
-3.4653574
-3.4478744
-3.4253688
-3.3974426
-3.3637497
-3.3239824
-3.2778784
-3.2251359
-3.1652854
-3.0975152
-3.0204485
-2.9318753
-2.8283967
-2.7050279
-2.5548299
-2.3672479
-2.1289848
-1.823488
-1.4302432
-0.92606214
-0.28763548
0.50072926
1.4781416
2.5913856
3.7720053
4.9009794
5.9448104
6.9376617
7.8976302
8.844019
9.7218887
10.335655
10.980224
11.740144
11.95397
11.894968
11.108405
11.198134
12.119799
14.369085
18.161435
24.742203
26.341254
26.181498
26.01858
22.360901
21.251985
19.436319
14.5555
13.480915
12.848715
11.271313
9.6568004
8.283998
7.3081293
6.6909887
6.2961219
5.7452085
5.1607342
4.2598344
3.4955898
2.8423824
2.2976652
1.7222313
1.1114648
0.50046027
-0.081260142
-0.62746446
-1.1420759
-1.6287682
-2.0915553
-2.5338096
-2.9580438
-3.3658886
-3.7582787
-4.1356755
-4.497925
-4.8443932
-5.1742414
-5.486439
-5.779812
-6.0533349
-6.3061104
-6.5374583
-6.7466807
-6.934531
-7.1006668
-7.2454729
-7.3695419
-7.4733644
-7.5571037
-7.6217884
-7.6696916
-7.6989214
-7.7031349
-3.7430329
-3.7496825
-3.7512651
-3.7510514
-3.7491022
-3.7438615
-3.7346223
-3.7211699
-3.7031954
-3.6804484
-3.6528377
-3.6204657
-3.5834973
-3.5420442
-3.4959657
-3.4446485
-3.3867015
-3.3194607
-3.238439
-3.1376605
-3.0044475
-2.8243944
-2.5774185
-2.237278
-1.7725504
-1.1481646
-0.33035163
0.70342596
1.9670944
3.3355923
4.6079622
5.6712843
6.629589
7.5731684
8.5458005
9.509829
10.373427
11.199462
11.977113
12.406645
12.340909
12.264269
12.438686
13.524331
16.26832
21.240402
34.510072
31.497062
24.657037
24.436082
21.23117
18.692427
18.12887
13.490962
14.751251
14.965713
13.478663
11.539257
9.7930041
8.4597679
7.5112232
6.7736596
5.9638747
5.0924239
4.315992
3.5547086
2.8097055
2.1147458
1.433247
0.76469153
0.13461786
-0.45051079
-0.99354498
-1.5020069
-1.9823633
-2.4404051
-2.8802285
-3.304708
-3.715429
-4.1129733
-4.49742
-4.8681419
-5.224002
-5.5635902
-5.8853851
-6.1877632
-6.4692633
-6.7288491
-6.9656903
-7.1783706
-7.3680477
-7.5349491
-7.6795481
-7.8026236
-7.9048175
-7.9864166
-8.0488188
-8.0946013
-8.121237
-8.1224363
-3.9959241
-4.0069677
-4.0137661
-4.0196542
-4.0249701
-4.0278261
-4.0274702
-4.0234411
-4.0156094
-4.003832
-3.9882871
-3.9694881
-3.9481725
-3.9251985
-3.9013575
-3.8771659
-3.852504
-3.8260238
-3.7944696
-3.753864
-3.6901427
-3.5891804
-3.4275821
-3.1735408
-2.7862608
-2.2174213
-1.4133432
-0.313802
1.0633463
2.6512216
4.1198515
5.1923115
6.0966057
6.9949306
8.0696919
9.2106391
10.255389
11.30649
12.321074
12.995338
13.208582
13.204297
13.524868
15.260915
19.589757
27.462485
33.763179
33.846733
25.633929
24.787488
22.505118
18.03744
15.415329
14.616974
17.89518
19.28167
16.53968
13.513661
11.025101
9.2495479
8.0249814
7.1414186
6.251634
5.3447698
4.4413501
3.5043637
2.5710038
1.7176023
0.95966318
0.28051609
-0.34439437
-0.91111916
-1.4284583
-1.9120578
-2.3718632
-2.8151647
-3.2460458
-3.6668714
-4.0785174
-4.4808606
-4.8730856
-5.2537671
-5.6209811
-5.9725858
-6.3061862
-6.6195069
-6.9105854
-7.1781755
-7.4216087
-7.6372662
-7.8285323
-7.9956939
-8.139435
-8.2607349
-8.3604377
-8.439035
-8.498317
-8.5411842
-8.5644671
-8.5618793
-4.2494923
-4.2660315
-4.2790756
-4.2919666
-4.3054376
-4.3172823
-4.3264483
-4.3320432
-4.3343966
-4.3333877
-4.3294262
-4.3234698
-4.3169263
-4.3115558
-4.3093641
-4.3123929
-4.3223387
-4.3399818
-4.3643981
-4.3937144
-4.4163663
-4.41855
-4.3758276
-4.2514805
-3.9953201
-3.5469294
-2.8429646
-1.7132041
-0.18702398
1.4913566
3.7104136
6.8185444
7.2930165
6.7479687
7.6171266
8.8722432
10.220706
11.660835
13.091258
13.921534
14.039418
13.998333
14.852803
17.951527
23.378386
33.317588
35.275003
35.402046
27.908737
27.540407
26.308234
23.409267
20.704813
19.848027
20.746425
24.24323
20.767408
16.046886
12.043162
9.5640789
8.0336956
7.1723199
6.3281269
5.4212139
4.3869368
3.2878019
2.1109148
1.0574885
0.24100297
-0.40254711
-0.97195179
-1.4797537
-1.9374863
-2.3725889
-2.7947553
-3.2123142
-3.6273604
-4.0408454
-4.4519871
-4.8593634
-5.2608976
-5.6539208
-6.0353901
-6.402076
-6.7504945
-7.0773094
-7.3798605
-7.6565463
-7.9076856
-8.1256503
-8.3182974
-8.4850903
-8.6270276
-8.7454655
-8.8415169
-8.9159936
-8.9711033
-9.0100829
-9.029055
-9.0217032
-4.5027657
-4.5262247
-4.5468282
-4.5678289
-4.5905043
-4.61228
-4.6320201
-4.6472906
-4.6598215
-4.6691228
-4.6757951
-4.6812512
-4.6876266
-4.6977435
-4.7150725
-4.7435484
-4.7872863
-4.8500924
-4.9347056
-5.0424614
-5.1675501
-5.2992165
-5.4146636
-5.47468
-5.4219443
-5.1802612
-4.6289001
-3.7287008
-2.3002489
-0.29966123
2.6332449
6.6628558
7.3841464
7.9489119
7.2707522
8.7688137
10.532851
12.453396
14.536804
15.73194
15.655677
15.897049
17.891178
22.513537
25.116656
37.704258
38.317558
32.451673
31.145527
31.674637
31.081803
29.144541
26.862797
25.449509
25.585401
25.820505
23.776701
17.155836
10.884565
8.6893735
7.0539953
6.6002478
6.1235515
5.4467172
4.4100509
3.1074971
1.4448289
0.011280381
-0.82796618
-1.3167028
-1.7717883
-2.1674205
-2.5192436
-2.8789803
-3.2464567
-3.6259987
-4.0186619
-4.4218382
-4.8319638
-5.2455441
-5.6588874
-6.0678083
-6.467688
-6.8536808
-7.2208875
-7.5645399
-7.8807883
-8.1666779
-8.4194475
-8.6458529
-8.8403586
-9.0059052
-9.1446855
-9.2587475
-9.3496468
-9.4185179
-9.468047
-9.50193