/*--------------------------------*- C++ -*----------------------------------*\
  =========                 |
  \\      /  F ield         | OpenFOAM: The Open Source CFD Toolbox
   \\    /   O peration     | Website:  https://openfoam.org
    \\  /    A nd           | Version:  9
     \\/     M anipulation  |
\*---------------------------------------------------------------------------*/
FoamFile
{
    format      ascii;
    class       volVectorField;
    location    "0.61";
    object      U;
}
// * * * * * * * * * * * * * * * * * * * * * * * * * * * * * * * * * * * * * //

dimensions      [0 1 -1 0 0 0 0];

internalField   nonuniform List<vector> 
10000
(
(0.0045524018 0.00028308376 0)
(0.00433813 0.00035887547 0)
(0.0025725366 0.0004439274 0)
(0.0012291807 0.00056084134 0)
(3.0135381e-05 0.00067530641 0)
(-0.0014245316 0.00080053118 0)
(-0.0030141098 0.00094613071 0)
(-0.0046962811 0.0011049052 0)
(-0.0065016329 0.0012690191 0)
(-0.0084429348 0.0014494704 0)
(-0.010523182 0.001634716 0)
(-0.012754445 0.00182356 0)
(-0.015132842 0.0020245611 0)
(-0.017656139 0.0022288974 0)
(-0.020332884 0.0024320973 0)
(-0.0231745 0.0026382037 0)
(-0.026174159 0.0028504612 0)
(-0.02932848 0.0030569798 0)
(-0.032647826 0.0032602903 0)
(-0.036124181 0.0034601626 0)
(-0.039737785 0.0036578816 0)
(-0.043527787 0.0038277486 0)
(-0.04748232 0.0040066184 0)
(-0.051569105 0.0041668989 0)
(-0.055794004 0.0043286821 0)
(-0.060124878 0.0044648494 0)
(-0.06454914 0.0045871727 0)
(-0.069026776 0.0046873125 0)
(-0.073508934 0.0047544708 0)
(-0.07794649 0.0047862824 0)
(-0.082261887 0.0047617961 0)
(-0.086364534 0.0046658438 0)
(-0.090151119 0.0044727611 0)
(-0.093518373 0.0041727272 0)
(-0.096269433 0.0037612093 0)
(-0.098214123 0.0031872724 0)
(-0.099193699 0.002445156 0)
(-0.098995913 0.0014688656 0)
(-0.097689745 0.00024621361 0)
(-0.095183577 -0.0010824399 0)
(-0.090938288 -0.0024334606 0)
(-0.084580089 -0.0038582314 0)
(-0.075941625 -0.0053758534 0)
(-0.064921381 -0.0070125675 0)
(-0.051405619 -0.0088080538 0)
(-0.035286476 -0.010626854 0)
(-0.0167138 -0.012602427 0)
(0.0046343545 -0.014610488 0)
(0.028614492 -0.016756425 0)
(0.054676213 -0.018818618 0)
(0.08265414 -0.020704387 0)
(0.11211396 -0.022251469 0)
(0.14246443 -0.023269669 0)
(0.1729654 -0.023573203 0)
(0.20271033 -0.023001255 0)
(0.23066817 -0.021437342 0)
(0.25575732 -0.018851376 0)
(0.27693996 -0.015321056 0)
(0.29333106 -0.011034276 0)
(0.30432065 -0.0062645582 0)
(0.30954452 -0.0013170373 0)
(0.30925528 0.0036683177 0)
(0.3043547 0.0084746737 0)
(0.2956588 0.012822536 0)
(0.2838262 0.016546728 0)
(0.26959842 0.019560094 0)
(0.25369506 0.021832547 0)
(0.23674461 0.023380569 0)
(0.2192744 0.024258085 0)
(0.20171048 0.024549584 0)
(0.1843903 0.024353461 0)
(0.16756272 0.023768859 0)
(0.1514027 0.022892134 0)
(0.13603817 0.02181264 0)
(0.12156564 0.020598972 0)
(0.10803453 0.019292447 0)
(0.095440878 0.01793442 0)
(0.083763628 0.016562919 0)
(0.072988178 0.015179066 0)
(0.063209771 0.013885149 0)
(0.054287982 0.012565595 0)
(0.04616125 0.01133868 0)
(0.038840011 0.010136944 0)
(0.032208433 0.009004004 0)
(0.026277894 0.0079226663 0)
(0.020994206 0.006907277 0)
(0.016332808 0.0059483679 0)
(0.012251448 0.0050183215 0)
(0.0086600166 0.0041082689 0)
(0.0054771086 0.0032522189 0)
(0.0027092416 0.0025073713 0)
(0.00038139523 0.0018681472 0)
(-0.0015219696 0.0013097787 0)
(-0.0030394915 0.00082225393 0)
(-0.004229827 0.00038706286 0)
(-0.0051200368 -1.6720525e-05 0)
(-0.0056851083 -0.00035734913 0)
(-0.0063425817 -0.00064012795 0)
(-0.0069578043 -0.00085796245 0)
(-0.0055527335 -0.0010638642 0)
(0.0046508921 0.001704411 0)
(0.0045094389 0.0018659715 0)
(0.0027697468 0.0020467732 0)
(0.0014480516 0.0022729863 0)
(0.00025368521 0.0025021214 0)
(-0.0011732702 0.0027630842 0)
(-0.0027310332 0.0030511618 0)
(-0.0043972068 0.0033641803 0)
(-0.0061824983 0.0036973525 0)
(-0.0081033853 0.0040446325 0)
(-0.010175344 0.0044228232 0)
(-0.012389645 0.0048042211 0)
(-0.014749874 0.0052124175 0)
(-0.017266167 0.0056210708 0)
(-0.019935305 0.0060483196 0)
(-0.022759844 0.0064779576 0)
(-0.025749295 0.0069175544 0)
(-0.028902456 0.0073711762 0)
(-0.032218604 0.0078327654 0)
(-0.035689702 0.0082932258 0)
(-0.039322255 0.0087558988 0)
(-0.043121605 0.0091948476 0)
(-0.047079786 0.0096448832 0)
(-0.051180498 0.010066524 0)
(-0.055430552 0.010472663 0)
(-0.059806334 0.010836952 0)
(-0.064277873 0.011141708 0)
(-0.068827972 0.011376113 0)
(-0.073399593 0.011500029 0)
(-0.07794766 0.011496307 0)
(-0.082400713 0.011320182 0)
(-0.086672513 0.010929616 0)
(-0.090658493 0.010282443 0)
(-0.094238566 0.0093354271 0)
(-0.097261445 0.0080557851 0)
(-0.099545974 0.0063502874 0)
(-0.10096129 0.0041478409 0)
(-0.1013071 0.001379337 0)
(-0.10043528 -0.0020186906 0)
(-0.098146163 -0.0058246052 0)
(-0.094094899 -0.0099758295 0)
(-0.087998143 -0.014471017 0)
(-0.079645663 -0.019323657 0)
(-0.068928861 -0.024424617 0)
(-0.055582178 -0.029765367 0)
(-0.039569963 -0.0352621 0)
(-0.021056195 -0.040817735 0)
(0.00028668866 -0.046213307 0)
(0.02440443 -0.051588962 0)
(0.050902107 -0.056434422 0)
(0.079551358 -0.060558831 0)
(0.10998193 -0.063626743 0)
(0.14162467 -0.065250359 0)
(0.17371395 -0.06503709 0)
(0.20527725 -0.062652343 0)
(0.2351633 -0.05786895 0)
(0.26212132 -0.050658714 0)
(0.28492088 -0.041241805 0)
(0.30250642 -0.030095188 0)
(0.31416724 -0.017873509 0)
(0.31966586 -0.0052999496 0)
(0.31922764 0.0069794093 0)
(0.31356452 0.01829951 0)
(0.30362494 0.028066585 0)
(0.2903239 0.035997871 0)
(0.27456646 0.042045516 0)
(0.25718637 0.046303523 0)
(0.23889047 0.048956019 0)
(0.22025354 0.050228139 0)
(0.20171683 0.050355646 0)
(0.18360938 0.049572075 0)
(0.16616824 0.04808733 0)
(0.14955548 0.046085834 0)
(0.13387444 0.043729197 0)
(0.11918498 0.041147807 0)
(0.1055182 0.038427467 0)
(0.092867756 0.035647826 0)
(0.08117114 0.032857313 0)
(0.070474153 0.030105473 0)
(0.060765518 0.02749089 0)
(0.051912811 0.024896376 0)
(0.043904489 0.022478262 0)
(0.036668971 0.020136018 0)
(0.030146709 0.017928407 0)
(0.024321781 0.015829816 0)
(0.019148468 0.013868283 0)
(0.014558796 0.012009262 0)
(0.010510367 0.01025366 0)
(0.006975587 0.0085922504 0)
(0.0039425369 0.0070664017 0)
(0.0013852854 0.0057029456 0)
(-0.00076086271 0.0044922767 0)
(-0.0025177694 0.0034180952 0)
(-0.0039184538 0.0024537798 0)
(-0.0050302256 0.0015953252 0)
(-0.0058309442 0.00082348886 0)
(-0.0062851081 0.0001608185 0)
(-0.0068292277 -0.00040789182 0)
(-0.0073548811 -0.00085556395 0)
(-0.0057710037 -0.0012956274 0)
(0.0047795789 0.0029295591 0)
(0.0047134402 0.0031547763 0)
(0.0029983625 0.0033997524 0)
(0.0016994332 0.0037018463 0)
(0.00053933991 0.0040257619 0)
(-0.00084993479 0.0043974768 0)
(-0.002383167 0.0047925799 0)
(-0.0040168839 0.0052221882 0)
(-0.0057843417 0.0056923981 0)
(-0.0076773062 0.0061769744 0)
(-0.0097214958 0.0066866885 0)
(-0.011920278 0.0072234332 0)
(-0.01427071 0.0077764641 0)
(-0.016774557 0.0083345888 0)
(-0.019431343 0.0089080698 0)
(-0.022262377 0.0094792757 0)
(-0.025241396 0.010063523 0)
(-0.028377456 0.010646573 0)
(-0.031693966 0.01123006 0)
(-0.035173839 0.011815825 0)
(-0.038814051 0.01239179 0)
(-0.042620321 0.01295416 0)
(-0.046595851 0.013514309 0)
(-0.050729691 0.014033565 0)
(-0.05501386 0.01451699 0)
(-0.059445847 0.014944952 0)
(-0.063996316 0.015290756 0)
(-0.068647633 0.015541075 0)
(-0.073354826 0.015648139 0)
(-0.078073568 0.015577168 0)
(-0.082752769 0.015276439 0)
(-0.087300564 0.014682545 0)
(-0.091613976 0.013732515 0)
(-0.095576381 0.012363917 0)
(-0.099038666 0.010495374 0)
(-0.10184492 0.0080499799 0)
(-0.1038097 0.0049438144 0)
(-0.10471406 0.0011735921 0)
(-0.1043449 -0.0033147586 0)
(-0.10249948 -0.0084761596 0)
(-0.098866676 -0.014212982 0)
(-0.093155131 -0.020565143 0)
(-0.085102753 -0.027433634 0)
(-0.074588406 -0.034691397 0)
(-0.0615191 -0.042273555 0)
(-0.045702089 -0.050187616 0)
(-0.027142337 -0.058154543 0)
(-0.0057532942 -0.066037803 0)
(0.018649137 -0.073821017 0)
(0.045816628 -0.080937239 0)
(0.075453648 -0.087078519 0)
(0.10731004 -0.091734141 0)
(0.14085978 -0.094317051 0)
(0.17530807 -0.094208028 0)
(0.20958548 -0.090847615 0)
(0.24234759 -0.083841359 0)
(0.27206013 -0.073108728 0)
(0.29716811 -0.058977863 0)
(0.31633745 -0.042236982 0)
(0.32870592 -0.024034489 0)
(0.33391794 -0.0056526235 0)
(0.33240566 0.011672509 0)
(0.32517992 0.027143855 0)
(0.31332837 0.040214465 0)
(0.29796585 0.050618594 0)
(0.28017526 0.058360476 0)
(0.26090727 0.063624891 0)
(0.24093992 0.066703151 0)
(0.22087806 0.067934883 0)
(0.20117522 0.067664393 0)
(0.18215677 0.066220128 0)
(0.16403293 0.063899118 0)
(0.1469379 0.060950649 0)
(0.1309474 0.057577699 0)
(0.11607662 0.05394951 0)
(0.10231976 0.050197478 0)
(0.089638322 0.046425112 0)
(0.077974725 0.042660984 0)
(0.067381329 0.039035849 0)
(0.057765575 0.035529529 0)
(0.049040564 0.03218693 0)
(0.041177091 0.02899867 0)
(0.034076889 0.025971768 0)
(0.027702477 0.023125126 0)
(0.022029991 0.020446445 0)
(0.016999961 0.017943955 0)
(0.012562034 0.015606165 0)
(0.0086994564 0.013444784 0)
(0.0053588143 0.011458195 0)
(0.0024926387 0.0096380954 0)
(5.4800081e-05 0.0079593612 0)
(-0.0019739469 0.0064133966 0)
(-0.0036225619 0.0050151321 0)
(-0.0049182837 0.0037437361 0)
(-0.0059083602 0.0026083904 0)
(-0.0065915066 0.001610267 0)
(-0.0069532614 0.00075196623 0)
(-0.0073901391 3.1519258e-05 0)
(-0.0078252987 -0.00054352954 0)
(-0.0060505094 -0.0011334085 0)
(0.00493069 0.0037469173 0)
(0.0049665355 0.0040477072 0)
(0.0033080245 0.0043525039 0)
(0.0020578098 0.0047360773 0)
(0.00092925863 0.0051648629 0)
(-0.00042534669 0.0056412788 0)
(-0.0019244601 0.0061591738 0)
(-0.0035156962 0.0067218839 0)
(-0.0052450442 0.007320493 0)
(-0.0071245929 0.0079554857 0)
(-0.0091433208 0.008603373 0)
(-0.01131224 0.0092873056 0)
(-0.013647368 0.0099905363 0)
(-0.016138658 0.010709902 0)
(-0.018789651 0.011435069 0)
(-0.021597947 0.012177095 0)
(-0.024569905 0.012933224 0)
(-0.027716929 0.013682576 0)
(-0.031022825 0.014434807 0)
(-0.034493864 0.015196337 0)
(-0.038141962 0.015947689 0)
(-0.041949135 0.016694244 0)
(-0.045943956 0.017419989 0)
(-0.050116018 0.018118434 0)
(-0.054453581 0.018771674 0)
(-0.058965553 0.019357166 0)
(-0.063615771 0.019844724 0)
(-0.068409392 0.020214485 0)
(-0.073310254 0.020394817 0)
(-0.078274689 0.020342217 0)
(-0.083256677 0.019998381 0)
(-0.08817962 0.019269087 0)
(-0.09294021 0.018079589 0)
(-0.097437528 0.01633179 0)
(-0.10153415 0.013923653 0)
(-0.10505584 0.010757035 0)
(-0.10779799 0.0067435025 0)
(-0.10953242 0.0018036145 0)
(-0.11005273 -0.0040887038 0)
(-0.10900049 -0.010958042 0)
(-0.10611137 -0.018721818 0)
(-0.1011006 -0.02732718 0)
(-0.093602824 -0.036691031 0)
(-0.083552017 -0.046685745 0)
(-0.070813412 -0.057110155 0)
(-0.055168531 -0.067923321 0)
(-0.036620674 -0.078890279 0)
(-0.015111509 -0.089863455 0)
(0.0097529806 -0.10058855 0)
(0.037842008 -0.11077321 0)
(0.068922699 -0.11970223 0)
(0.10287753 -0.12673196 0)
(0.13926023 -0.13100375 0)
(0.17727066 -0.13157624 0)
(0.21570694 -0.12752632 0)
(0.252937 -0.11819471 0)
(0.28698874 -0.10334729 0)
(0.31576424 -0.083419593 0)
(0.33740118 -0.05960045 0)
(0.35069173 -0.033702082 0)
(0.35533102 -0.0077475752 0)
(0.35202796 0.016426795 0)
(0.34208785 0.037582387 0)
(0.32702586 0.05496602 0)
(0.30836142 0.068342717 0)
(0.28746316 0.07789549 0)
(0.26544474 0.084039581 0)
(0.24315443 0.087285939 0)
(0.22120662 0.088166467 0)
(0.20002215 0.087190163 0)
(0.17987956 0.084806957 0)
(0.16093997 0.08140515 0)
(0.14327651 0.077310302 0)
(0.12691588 0.07277145 0)
(0.11184722 0.067981951 0)
(0.098035743 0.063100807 0)
(0.085373581 0.058243472 0)
(0.07382138 0.053454697 0)
(0.06339241 0.048889708 0)
(0.053959783 0.044488711 0)
(0.045426219 0.040322897 0)
(0.037734033 0.036353549 0)
(0.030839895 0.032614551 0)
(0.024665082 0.029087649 0)
(0.019184855 0.025800672 0)
(0.014351837 0.022709797 0)
(0.010102091 0.019834187 0)
(0.00640169 0.017149183 0)
(0.0032001106 0.014649625 0)
(0.00046839578 0.012314984 0)
(-0.00181769 0.010155827 0)
(-0.0036836539 0.0081780169 0)
(-0.0051670186 0.0063711853 0)
(-0.0063068187 0.0047485482 0)
(-0.0071463813 0.0032957229 0)
(-0.0076672666 0.0020050565 0)
(-0.0078557564 0.00088952698 0)
(-0.0081219741 -2.5832301e-05 0)
(-0.0084546985 -0.00076121403 0)
(-0.0064264112 -0.0015503415 0)
(0.0051379246 0.0047691338 0)
(0.0052939734 0.0051562139 0)
(0.0036828718 0.0055310267 0)
(0.0024993923 0.0059946745 0)
(0.0014271948 0.0065214623 0)
(0.00012835385 0.0071072906 0)
(-0.0013186901 0.0077529743 0)
(-0.0028725909 0.0084466214 0)
(-0.0045664037 0.0091797556 0)
(-0.0064092539 0.0099548196 0)
(-0.0084029943 0.010763364 0)
(-0.010545342 0.01159661 0)
(-0.012857332 0.012452042 0)
(-0.015335927 0.013329063 0)
(-0.017966731 0.014221287 0)
(-0.02076262 0.015129879 0)
(-0.023729289 0.016041424 0)
(-0.026864014 0.016966563 0)
(-0.030162445 0.017896191 0)
(-0.0336368 0.018829685 0)
(-0.037285971 0.019759469 0)
(-0.04111232 0.020684014 0)
(-0.045131312 0.021582228 0)
(-0.049334621 0.022462613 0)
(-0.053730407 0.023297448 0)
(-0.058328941 0.024071881 0)
(-0.063097358 0.024722082 0)
(-0.068060069 0.025227924 0)
(-0.07319308 0.025533402 0)
(-0.078434472 0.025553204 0)
(-0.08378422 0.025258798 0)
(-0.089167537 0.024466987 0)
(-0.094488156 0.02314457 0)
(-0.099656329 0.021112278 0)
(-0.10452373 0.018271464 0)
(-0.10892207 0.014488079 0)
(-0.1126537 0.0096396808 0)
(-0.11544754 0.0035746369 0)
(-0.11703195 -0.0037244498 0)
(-0.11708582 -0.012232244 0)
(-0.11522553 -0.02205865 0)
(-0.11114211 -0.032951525 0)
(-0.10449756 -0.044834733 0)
(-0.095061474 -0.057546413 0)
(-0.082801491 -0.070861696 0)
(-0.067510058 -0.084676121 0)
(-0.049093405 -0.098809677 0)
(-0.02742124 -0.11301255 0)
(-0.0021988515 -0.12701023 0)
(0.026803197 -0.14064425 0)
(0.059626137 -0.15301393 0)
(0.096187919 -0.16316298 0)
(0.13623151 -0.16994867 0)
(0.17904247 -0.17195778 0)
(0.22325902 -0.16773362 0)
(0.2668535 -0.15615465 0)
(0.30717393 -0.13667678 0)
(0.34123617 -0.10976269 0)
(0.3663347 -0.077174956 0)
(0.3807973 -0.041743314 0)
(0.38419554 -0.0065994767 0)
(0.37779761 0.025389599 0)
(0.36373707 0.052604463 0)
(0.34409958 0.074272106 0)
(0.32090588 0.090350649 0)
(0.2958816 0.10130605 0)
(0.27031152 0.10785635 0)
(0.24509289 0.1107857 0)
(0.22082628 0.1108516 0)
(0.19787508 0.10873729 0)
(0.17643406 0.10503395 0)
(0.15658895 0.10022773 0)
(0.13833971 0.094709557 0)
(0.12163564 0.088781133 0)
(0.10640471 0.082663973 0)
(0.092566714 0.076525292 0)
(0.079966702 0.070447674 0)
(0.068597689 0.064568144 0)
(0.058403411 0.058958245 0)
(0.049184508 0.053602175 0)
(0.040891898 0.048511804 0)
(0.0334563 0.043712469 0)
(0.026800468 0.039191984 0)
(0.020880106 0.034943432 0)
(0.015643278 0.030977768 0)
(0.011025289 0.027253352 0)
(0.0069953361 0.023768167 0)
(0.0035108033 0.020524948 0)
(0.00052389529 0.017507635 0)
(-0.0019965004 0.014718773 0)
(-0.0040748941 0.012154229 0)
(-0.0057493165 0.0098028058 0)
(-0.0070425072 0.0076511382 0)
(-0.0079869288 0.0057086472 0)
(-0.0086455202 0.0039682235 0)
(-0.0089856881 0.002424257 0)
(-0.008984163 0.0010834348 0)
(-0.009047769 -5.2839962e-05 0)
(-0.0092664811 -0.00095218988 0)
(-0.0069277844 -0.0019217067 0)
(0.0053873405 0.0055764473 0)
(0.0056950499 0.0060497661 0)
(0.0041516139 0.0065002576 0)
(0.0030444868 0.0070659577 0)
(0.0020331762 0.0076973114 0)
(0.00080045448 0.0084035024 0)
(-0.00059052682 0.0091782155 0)
(-0.0020946818 0.010008121 0)
(-0.0037404785 0.010892755 0)
(-0.0055421265 0.01182174 0)
(-0.0075008226 0.012786219 0)
(-0.0096212552 0.013783441 0)
(-0.011910092 0.014799799 0)
(-0.014360926 0.015845227 0)
(-0.016976716 0.01690629 0)
(-0.01976197 0.017974248 0)
(-0.022713823 0.019058652 0)
(-0.025839097 0.020156109 0)
(-0.029131241 0.021258838 0)
(-0.032597054 0.022366861 0)
(-0.036249177 0.023479175 0)
(-0.040082736 0.02458408 0)
(-0.044116761 0.025680453 0)
(-0.048348646 0.02676261 0)
(-0.052789923 0.027799327 0)
(-0.057485311 0.028771105 0)
(-0.062402533 0.029633245 0)
(-0.067539286 0.030341935 0)
(-0.072925028 0.030850584 0)
(-0.078482164 0.031029247 0)
(-0.08426643 0.030853806 0)
(-0.090202254 0.030123957 0)
(-0.096189797 0.028752082 0)
(-0.1021893 0.026572906 0)
(-0.10801556 0.023424658 0)
(-0.11351741 0.019128131 0)
(-0.11851413 0.013518011 0)
(-0.1226804 0.0064251019 0)
(-0.12563064 -0.0022900758 0)
(-0.12709328 -0.012609034 0)
(-0.12657964 -0.024507001 0)
(-0.12362224 -0.037864121 0)
(-0.1179542 -0.052469911 0)
(-0.10935632 -0.068057069 0)
(-0.097739476 -0.084459586 0)
(-0.082920911 -0.10145539 0)
(-0.064773231 -0.1189159 0)
(-0.043129958 -0.1366843 0)
(-0.017710903 -0.15455928 0)
(0.012014254 -0.17214747 0)
(0.046569259 -0.18893122 0)
(0.086125519 -0.20348527 0)
(0.13068122 -0.21417218 0)
(0.17978289 -0.21891124 0)
(0.23194082 -0.21547831 0)
(0.28450999 -0.2020296 0)
(0.33385922 -0.17737628 0)
(0.3756324 -0.14184362 0)
(0.40564863 -0.097964556 0)
(0.42136163 -0.050188902 0)
(0.4224879 -0.0036405766 0)
(0.41130428 0.038047685 0)
(0.39105479 0.072373025 0)
(0.36483926 0.098569234 0)
(0.33544541 0.11706003 0)
(0.30500892 0.12883868 0)
(0.27496339 0.13509007 0)
(0.24619475 0.13698007 0)
(0.21921311 0.13556494 0)
(0.19426758 0.13173567 0)
(0.17143116 0.12622937 0)
(0.15066395 0.11963092 0)
(0.13186157 0.11238206 0)
(0.11488716 0.10481673 0)
(0.099593531 0.097176325 0)
(0.085807379 0.089636452 0)
(0.07338611 0.082261804 0)
(0.062311835 0.075247514 0)
(0.052403009 0.068550845 0)
(0.043482427 0.062212834 0)
(0.035504117 0.056222692 0)
(0.028382804 0.050599574 0)
(0.022038968 0.045310606 0)
(0.016423018 0.040376967 0)
(0.011467688 0.035752404 0)
(0.0071173087 0.031429683 0)
(0.0033515809 0.027384581 0)
(0.00012250033 0.023623482 0)
(-0.0026223595 0.020124863 0)
(-0.0048973546 0.016885945 0)
(-0.0067436394 0.013889638 0)
(-0.0081939854 0.011138215 0)
(-0.0092662211 0.0086240944 0)
(-0.0099940557 0.0063387016 0)
(-0.010431744 0.0042890031 0)
(-0.010546744 0.0024736328 0)
(-0.010338795 0.00089064221 0)
(-0.010171956 -0.00046187543 0)
(-0.010222022 -0.0015335228 0)
(-0.0075130762 -0.0026814779 0)
(0.0056870568 0.0063581096 0)
(0.0061689563 0.0069209166 0)
(0.0047027975 0.0074465606 0)
(0.0036893538 0.0081108393 0)
(0.0027518991 0.0088530389 0)
(0.0015984723 0.0096830331 0)
(0.00027503255 0.010589171 0)
(-0.0011692159 0.011565764 0)
(-0.0027621665 0.012601556 0)
(-0.0045227283 0.013690276 0)
(-0.0064452047 0.014815049 0)
(-0.0085321752 0.015973023 0)
(-0.01079174 0.017159428 0)
(-0.013220972 0.018372305 0)
(-0.015824127 0.019598889 0)
(-0.018590668 0.020841325 0)
(-0.021521429 0.022091455 0)
(-0.024631507 0.023358652 0)
(-0.027912261 0.024634285 0)
(-0.03136913 0.02592178 0)
(-0.035013629 0.027221712 0)
(-0.038848039 0.028533551 0)
(-0.042882712 0.029835952 0)
(-0.047139346 0.031138875 0)
(-0.051639809 0.032404763 0)
(-0.056409304 0.033614381 0)
(-0.061439542 0.034741438 0)
(-0.066755438 0.035734065 0)
(-0.072420725 0.036496289 0)
(-0.078343326 0.036955866 0)
(-0.084594336 0.036971016 0)
(-0.091162019 0.036461789 0)
(-0.097919091 0.0351827 0)
(-0.1048503 0.033027803 0)
(-0.11181602 0.029753863 0)
(-0.11864902 0.025128079 0)
(-0.12514834 0.018920084 0)
(-0.13102474 0.010927723 0)
(-0.13582437 0.00091076906 0)
(-0.13905602 -0.011252283 0)
(-0.14022381 -0.025371578 0)
(-0.13883548 -0.041369389 0)
(-0.13440941 -0.05897952 0)
(-0.12676851 -0.077725477 0)
(-0.11591143 -0.097373236 0)
(-0.10167003 -0.11773914 0)
(-0.084006983 -0.13872399 0)
(-0.062737588 -0.16030734 0)
(-0.037350987 -0.18245363 0)
(-0.0072888501 -0.20486899 0)
(0.02858611 -0.22701033 0)
(0.071226683 -0.24762962 0)
(0.1212381 -0.2642772 0)
(0.17852768 -0.27389234 0)
(0.24117623 -0.27280479 0)
(0.30567062 -0.25804195 0)
(0.36766188 -0.22733157 0)
(0.42088214 -0.18062792 0)
(0.45842081 -0.12154378 0)
(0.47560094 -0.057059449 0)
(0.47271316 0.0046743352 0)
(0.45397928 0.058028748 0)
(0.424382 0.10002617 0)
(0.38888473 0.13036598 0)
(0.35125702 0.15034446 0)
(0.31398672 0.16181593 0)
(0.27853073 0.1666395 0)
(0.24565183 0.16646547 0)
(0.21566967 0.16268306 0)
(0.18862416 0.15641639 0)
(0.16440362 0.14853176 0)
(0.14279686 0.13968725 0)
(0.12355695 0.13036884 0)
(0.10644226 0.12092079 0)
(0.091223555 0.11157981 0)
(0.077641188 0.10249595 0)
(0.065560631 0.093778436 0)
(0.054887027 0.085559898 0)
(0.045359696 0.077757389 0)
(0.036842401 0.070432574 0)
(0.029263633 0.063543782 0)
(0.022527888 0.057111242 0)
(0.016564139 0.051088903 0)
(0.011309588 0.045469285 0)
(0.0066841001 0.040215075 0)
(0.0026503306 0.035307888 0)
(-0.00081224421 0.030733857 0)
(-0.0037500013 0.026467443 0)
(-0.0062154252 0.022503848 0)
(-0.0082306404 0.018820642 0)
(-0.0098180983 0.015413619 0)
(-0.011007675 0.012276153 0)
(-0.011832531 0.0094030247 0)
(-0.01231382 0.0067942553 0)
(-0.012499513 0.0044507141 0)
(-0.012366943 0.002366578 0)
(-0.011916953 0.0005354871 0)
(-0.011483301 -0.0010208024 0)
(-0.01135197 -0.0022576856 0)
(-0.0082145922 -0.0036122908 0)
(0.00603649 0.0070159313 0)
(0.0067234573 0.0076747208 0)
(0.0053466364 0.0082865277 0)
(0.004445289 0.0090546258 0)
(0.0035938984 0.0099210671 0)
(0.0025273955 0.010881927 0)
(0.001283625 0.011930507 0)
(-9.2107052e-05 0.013060544 0)
(-0.0016243248 0.014254853 0)
(-0.0033341521 0.015506277 0)
(-0.0052192945 0.016804609 0)
(-0.0072736776 0.018135413 0)
(-0.0095028904 0.019494031 0)
(-0.011908594 0.02087419 0)
(-0.014488343 0.022271035 0)
(-0.017243053 0.023686087 0)
(-0.020162855 0.025107635 0)
(-0.023255022 0.026542227 0)
(-0.02651894 0.027990943 0)
(-0.029951715 0.029457092 0)
(-0.033570201 0.030947687 0)
(-0.037392032 0.032452523 0)
(-0.041426565 0.033980929 0)
(-0.045688046 0.035522636 0)
(-0.050216299 0.03705528 0)
(-0.055046043 0.038561704 0)
(-0.060177268 0.040002503 0)
(-0.065677465 0.041313464 0)
(-0.071594467 0.042429534 0)
(-0.077894613 0.043262658 0)
(-0.084634091 0.043634376 0)
(-0.091852278 0.043499504 0)
(-0.099471158 0.04252802 0)
(-0.10744874 0.040579786 0)
(-0.11572356 0.037397994 0)
(-0.12413285 0.032668633 0)
(-0.13246725 0.026094253 0)
(-0.1404219 0.017330111 0)
(-0.14753093 0.006046683 0)
(-0.15308079 -0.007937703 0)
(-0.15639531 -0.024468002 0)
(-0.15692669 -0.043407046 0)
(-0.153994 -0.064222413 0)
(-0.14744809 -0.086436404 0)
(-0.1374361 -0.10955752 0)
(-0.12391791 -0.1333716 0)
(-0.10696 -0.1579381 0)
(-0.086461379 -0.1834176 0)
(-0.061859816 -0.21013877 0)
(-0.03214615 -0.23826648 0)
(0.0042427857 -0.26720835 0)
(0.049461984 -0.29611275 0)
(0.105482 -0.32201857 0)
(0.17204998 -0.34011286 0)
(0.24603046 -0.34339928 0)
(0.32546698 -0.32877273 0)
(0.40612474 -0.29230079 0)
(0.47725873 -0.2314818 0)
(0.52701326 -0.15055778 0)
(0.5474896 -0.061714123 0)
(0.53829923 0.020741689 0)
(0.50733218 0.088503946 0)
(0.46387785 0.13861754 0)
(0.41550825 0.17211933 0)
(0.36715571 0.1920116 0)
(0.32150166 0.20147401 0)
(0.27977604 0.20327019 0)
(0.24238807 0.19965696 0)
(0.20930409 0.19238817 0)
(0.18024065 0.18280082 0)
(0.15480407 0.17187267 0)
(0.13257385 0.16029496 0)
(0.11313381 0.1485547 0)
(0.096107399 0.13697678 0)
(0.081159037 0.12576637 0)
(0.067983791 0.11504767 0)
(0.056442618 0.10494328 0)
(0.046284898 0.095449573 0)
(0.037259706 0.086544991 0)
(0.029250977 0.078236114 0)
(0.022167298 0.070473382 0)
(0.015911187 0.063247009 0)
(0.010386088 0.056516086 0)
(0.0055387924 0.05023124 0)
(0.0012975631 0.044368671 0)
(-0.002369124 0.038890727 0)
(-0.0054891309 0.033797363 0)
(-0.0081097454 0.02903733 0)
(-0.010271579 0.024608363 0)
(-0.011988568 0.020490224 0)
(-0.013286517 0.016681548 0)
(-0.014200644 0.013163082 0)
(-0.014742142 0.0099378534 0)
(-0.014942198 0.0070029507 0)
(-0.014852126 0.0043578285 0)
(-0.014447658 0.0020078112 0)
(-0.01372527 -5.8784069e-05 0)
(-0.012984961 -0.0018396838 0)
(-0.012651486 -0.0032356426 0)
(-0.0090411623 -0.0047983528 0)
(0.0064444254 0.0075426148 0)
(0.0073663974 0.0083058431 0)
(0.0060882056 0.0090065659 0)
(0.0053181947 0.0098921685 0)
(0.0045676721 0.010885853 0)
(0.00359965 0.011988813 0)
(0.0024459932 0.01319337 0)
(0.0011462057 0.014484388 0)
(-0.0003241601 0.015850025 0)
(-0.0019768472 0.017271618 0)
(-0.0038158298 0.018749305 0)
(-0.0058372047 0.020259828 0)
(-0.0080415036 0.021796722 0)
(-0.010426733 0.023353636 0)
(-0.012988304 0.024921682 0)
(-0.015722186 0.026503944 0)
(-0.018624801 0.028101913 0)
(-0.021698595 0.029703674 0)
(-0.024938718 0.031329119 0)
(-0.028343321 0.032972271 0)
(-0.031938223 0.034645011 0)
(-0.035724365 0.0363506 0)
(-0.039713039 0.038100856 0)
(-0.043955954 0.03990593 0)
(-0.048483267 0.041722629 0)
(-0.053336925 0.043561576 0)
(-0.058557337 0.045376738 0)
(-0.064194997 0.047092918 0)
(-0.070333571 0.04867444 0)
(-0.076993401 0.049984472 0)
(-0.084194629 0.050943103 0)
(-0.092088253 0.051289077 0)
(-0.10064235 0.050891239 0)
(-0.10976627 0.049402646 0)
(-0.11949118 0.046565812 0)
(-0.12968626 0.042054698 0)
(-0.14018666 0.035450423 0)
(-0.15074173 0.026212773 0)
(-0.16074013 0.013807788 0)
(-0.16920254 -0.0019800107 0)
(-0.17531932 -0.021188383 0)
(-0.17821753 -0.043518272 0)
(-0.17706498 -0.068037996 0)
(-0.17173899 -0.094108916 0)
(-0.16246655 -0.12098722 0)
(-0.14962841 -0.14830043 0)
(-0.13358622 -0.17626472 0)
(-0.11442558 -0.20546645 0)
(-0.091647944 -0.23676949 0)
(-0.063762967 -0.27101326 0)
(-0.028470457 -0.30855417 0)
(0.017708932 -0.3487205 0)
(0.077390216 -0.38726715 0)
(0.15050489 -0.41605485 0)
(0.23884008 -0.4255578 0)
(0.34661996 -0.41747059 0)
(0.46267243 -0.37832767 0)
(0.56286158 -0.30037367 0)
(0.6257697 -0.18925353 0)
(0.64406703 -0.063526893 0)
(0.62279024 0.048970271 0)
(0.5731382 0.13491983 0)
(0.50920718 0.19283335 0)
(0.44306684 0.22717075 0)
(0.3811392 0.24411658 0)
(0.32563457 0.24893087 0)
(0.27701745 0.24549466 0)
(0.23502296 0.23667991 0)
(0.19902956 0.22457772 0)
(0.16829082 0.21066521 0)
(0.14204067 0.19596557 0)
(0.119577 0.18114914 0)
(0.10029304 0.16664673 0)
(0.083670712 0.15269237 0)
(0.069290467 0.13948106 0)
(0.056805309 0.12706655 0)
(0.04597127 0.11553348 0)
(0.036479102 0.10475145 0)
(0.028124877 0.094750324 0)
(0.020745971 0.085489598 0)
(0.014254306 0.076892695 0)
(0.0085494683 0.06890187 0)
(0.0035308165 0.061483833 0)
(-0.00085427002 0.054570113 0)
(-0.0046689204 0.04812716 0)
(-0.0079287877 0.042115733 0)
(-0.01067171 0.036508567 0)
(-0.012945944 0.031270619 0)
(-0.014767588 0.026387441 0)
(-0.016160926 0.02185049 0)
(-0.017145759 0.017637908 0)
(-0.017748448 0.013744297 0)
(-0.017986193 0.010172081 0)
(-0.017887615 0.0069092181 0)
(-0.017485364 0.0039652644 0)
(-0.016769883 0.0013455675 0)
(-0.015758587 -0.00095550852 0)
(-0.01468516 -0.0029627091 0)
(-0.014114806 -0.0045198181 0)
(-0.0099908953 -0.0062787226 0)
(0.0069128222 0.0079202309 0)
(0.0080990671 0.0087973243 0)
(0.0069383826 0.009593777 0)
(0.006317207 0.010607906 0)
(0.0056784584 0.011742124 0)
(0.0048261483 0.012996441 0)
(0.0037711381 0.014368554 0)
(0.0025560926 0.015835003 0)
(0.0011553991 0.017385877 0)
(-0.00043838526 0.018997155 0)
(-0.0022300827 0.02065905 0)
(-0.0042193741 0.02235733 0)
(-0.0063956091 0.024081265 0)
(-0.0087626518 0.025820718 0)
(-0.011309461 0.027567596 0)
(-0.014025964 0.029318523 0)
(-0.016915793 0.031075976 0)
(-0.019968734 0.032848153 0)
(-0.023179817 0.034633422 0)
(-0.026553497 0.036447733 0)
(-0.030097376 0.038297121 0)
(-0.033828708 0.04021937 0)
(-0.037751137 0.042200163 0)
(-0.041934141 0.044245379 0)
(-0.046417601 0.046373856 0)
(-0.051238654 0.048593422 0)
(-0.056484611 0.0508209 0)
(-0.062211267 0.053041094 0)
(-0.068529491 0.055178687 0)
(-0.075438151 0.057121957 0)
(-0.083120957 0.05878687 0)
(-0.09166809 0.059850185 0)
(-0.10110273 0.060299714 0)
(-0.11150066 0.059611426 0)
(-0.12277613 0.057419701 0)
(-0.13492316 0.05352268 0)
(-0.14794373 0.047362832 0)
(-0.16165768 0.038100187 0)
(-0.17527707 0.024934026 0)
(-0.1876146 0.0072934076 0)
(-0.19746422 -0.015015139 0)
(-0.20329493 -0.041174134 0)
(-0.20413668 -0.070229233 0)
(-0.19995184 -0.10080689 0)
(-0.1911587 -0.13177868 0)
(-0.17867748 -0.1625337 0)
(-0.16353074 -0.19342394 0)
(-0.14628718 -0.22563533 0)
(-0.12663899 -0.26082064 0)
(-0.10293651 -0.30105092 0)
(-0.072043998 -0.34840996 0)
(-0.029677655 -0.40187936 0)
(0.027623924 -0.45449319 0)
(0.11823017 -0.5007809 0)
(0.25880916 -0.53348596 0)
(0.43510261 -0.5449628 0)
(0.61189735 -0.49469548 0)
(0.7501535 -0.3799197 0)
(0.81757691 -0.21993941 0)
(0.80307763 -0.051726184 0)
(0.73782031 0.098350682 0)
(0.65140606 0.20588869 0)
(0.55810668 0.26910802 0)
(0.46866712 0.29954564 0)
(0.39004502 0.30891982 0)
(0.32359512 0.30519209 0)
(0.26805492 0.29348446 0)
(0.22188447 0.27725968 0)
(0.18361804 0.25877886 0)
(0.15189108 0.23949076 0)
(0.12548978 0.22031802 0)
(0.10339162 0.20179135 0)
(0.084751596 0.18421749 0)
(0.068975673 0.16773828 0)
(0.055548974 0.15243723 0)
(0.044050743 0.1383035 0)
(0.034140652 0.12531293 0)
(0.025496787 0.11328751 0)
(0.017982373 0.10226073 0)
(0.011370064 0.092070029 0)
(0.0055607372 0.082686822 0)
(0.00048344982 0.073989068 0)
(-0.0039620909 0.065930614 0)
(-0.0078314737 0.058433969 0)
(-0.011166839 0.051448879 0)
(-0.01399114 0.044938335 0)
(-0.016338654 0.038845974 0)
(-0.018237443 0.033155945 0)
(-0.019696392 0.027842508 0)
(-0.020740752 0.022887754 0)
(-0.021391081 0.018279545 0)
(-0.021660223 0.014011778 0)
(-0.021567643 0.010088691 0)
(-0.02114009 0.0065019405 0)
(-0.020402485 0.0032601424 0)
(-0.019352978 0.00036553702 0)
(-0.018018861 -0.0021843838 0)
(-0.016575667 -0.0043982135 0)
(-0.015733979 -0.0061312846 0)
(-0.011062387 -0.0080830239 0)
(0.0074517479 0.0081265024 0)
(0.0089336474 0.0091314448 0)
(0.0079038843 0.010032823 0)
(0.0074566068 0.011182914 0)
(0.0069429167 0.01247557 0)
(0.0062165194 0.013895515 0)
(0.005275625 0.015449074 0)
(0.0041544369 0.017106952 0)
(0.0028309267 0.018856775 0)
(0.0012932298 0.020669254 0)
(-0.00045355209 0.022531023 0)
(-0.0024069249 0.024430232 0)
(-0.0045627409 0.026345768 0)
(-0.0069163901 0.02826998 0)
(-0.0094569846 0.030193751 0)
(-0.01217039 0.032114609 0)
(-0.01504073 0.034035064 0)
(-0.018073605 0.035962069 0)
(-0.021256782 0.03789643 0)
(-0.024582342 0.039868102 0)
(-0.028053424 0.041897809 0)
(-0.031692958 0.044002516 0)
(-0.035543674 0.046212651 0)