/*--------------------------------*- C++ -*----------------------------------*\
  =========                 |
  \\      /  F ield         | OpenFOAM: The Open Source CFD Toolbox
   \\    /   O peration     | Website:  https://openfoam.org
    \\  /    A nd           | Version:  9
     \\/     M anipulation  |
\*---------------------------------------------------------------------------*/
FoamFile
{
    format      ascii;
    class       volScalarField;
    location    "28";
    object      p;
}
// * * * * * * * * * * * * * * * * * * * * * * * * * * * * * * * * * * * * * //

dimensions      [0 2 -2 0 0 0 0];

internalField   nonuniform List<scalar> 
400
(
1.9463942e-07
-0.00067265691
-0.001385132
-0.0019424887
-0.0022197806
-0.0021562765
-0.0017275713
-0.00092598037
0.00023563993
0.0017076236
0.0033875021
0.0051124089
0.0066736886
0.0078493131
0.0084586037
0.0084239053
0.0078136257
0.00684475
0.0058615308
0.0052991733
0.00065805686
-4.0307445e-05
-0.00056944092
-0.00094040595
-0.0011106427
-0.0010396996
-0.00070556817
-9.5322778e-05
0.00078932053
0.0019164061
0.0032098034
0.0045549203
0.0057821779
0.0067164733
0.0072146446
0.0072147536
0.0067701816
0.0060529954
0.0053107538
0.0047387132
0.0014239153
0.00044086707
-0.00011638224
-0.00045302474
-0.00061458927
-0.0005845912
-0.00034635951
0.00011996399
0.00082867995
0.0017701267
0.0028945125
0.0040983866
0.0052284611
0.0061111923
0.0065940866
0.0065978824
0.0061559561
0.0054217298
0.0045939673
0.0037484586
0.00201441
0.00068190119
1.6985857e-05
-0.00035863575
-0.00057133124
-0.00062634118
-0.00050986347
-0.00019041079
0.00036872232
0.0011846067
0.0022301355
0.0034176509
0.0045915882
0.0055571593
0.00612377
0.0061667769
0.0056838377
0.0048172691
0.0037475143
0.0024738235
0.0021674806
0.00049633074
-0.00029604448
-0.00074848896
-0.0010580355
-0.001245052
-0.0012925303
-0.0011510839
-0.00075483293
-5.2883803e-05
0.00095724173
0.0022105019
0.0035449294
0.0047328828
0.0055220617
0.0057101009
0.005229503
0.0042018226
0.0028064059
0.00098418544
0.0016541718
-0.00031426712
-0.0012385739
-0.0017990851
-0.0022524438
-0.0026276898
-0.0028984021
-0.0029908657
-0.0028023229
-0.0022374649
-0.0012508834
0.00013110732
0.0017448656
0.0033273321
0.0045418648
0.0050659959
0.0047177099
0.0035664145
0.0017898132
-0.00072569962
0.00028723506
-0.001919358
-0.0029727846
-0.0036711664
-0.0043200771
-0.0049529777
-0.0055298968
-0.0059477323
-0.0060587857
-0.0057071655
-0.0047754998
-0.0032584788
-0.00126629
0.00090739935
0.0028233483
0.0039870544
0.0040253093
0.0028879234
0.00071559759
-0.0026802793
-0.0020762182
-0.0044509783
-0.0056265891
-0.006492106
-0.0073926997
-0.0083655364
-0.0093566894
-0.01023155
-0.010790742
-0.010804617
-0.010063138
-0.008461539
-0.006040545
-0.0030829953
-0.00012608582
0.0021128414
0.0029640428
0.0021357974
-0.00036581585
-0.0048723898
-0.0055239539
-0.0079918991
-0.0092777047
-0.010333571
-0.011537778
-0.01293519
-0.014462472
-0.015956077
-0.017162225
-0.017765802
-0.017437855
-0.015919248
-0.013122733
-0.0092515338
-0.0048987843
-0.0010297952
0.0012696279
0.0012779813
-0.0013337391
-0.0072014565
-0.010076696
-0.012564879
-0.013936448
-0.015183785
-0.01671816
-0.018602401
-0.020773969
-0.023048525
-0.025121444
-0.026586117
-0.026969121
-0.025812715
-0.022845449
-0.01807422
-0.012050864
-0.0059517291
-0.0013705182
0.00030081348
-0.001946983
-0.0093820034
-0.015684767
-0.018132195
-0.019537339
-0.020926589
-0.02275752
-0.025129659
-0.027996788
-0.031166175
-0.034291233
-0.036876612
-0.038293942
-0.03784405
-0.035065626
-0.029601238
-0.021822267
-0.012985349
-0.0051847517
-0.00071552918
-0.0017639787
-0.010792033
-0.022243378
-0.024612816
-0.025945372
-0.027334738
-0.029323943
-0.032079009
-0.035588725
-0.039664432
-0.043927045
-0.047801067
-0.050529952
-0.051236248
-0.048956648
-0.043143317
-0.033768786
-0.021926115
-0.010036658
-0.0014152215
-9.6460684e-06
-0.010225398
-0.029640999
-0.031923674
-0.032978519
-0.034079646
-0.035939294
-0.038831294
-0.04279539
-0.047651364
-0.052990313
-0.058163359
-0.062284014
-0.064265298
-0.062874927
-0.057111958
-0.046476515
-0.031648861
-0.015037637
-0.00086416743
0.004646984
-0.0055213174
-0.037865795
-0.040048298
-0.040439907
-0.040752285
-0.042014832
-0.044652848
-0.048757965
-0.054143831
-0.060355809
-0.066665123
-0.072060461
-0.075268054
-0.074811135
-0.069269041
-0.057628084
-0.039961287
-0.01824775
0.0027892584
0.014445376
0.0069077653
-0.047230382
-0.049134154
-0.048140358
-0.046882061
-0.04690528
-0.048798482
-0.052668075
-0.05827579
-0.065075876
-0.072231772
-0.078595544
-0.082712098
-0.082879988
-0.077309172
-0.064523722
-0.04393474
-0.016747773
0.012503163
0.032939
0.032409168
-0.058896585
-0.059639681
-0.055883708
-0.05194083
-0.049972093
-0.050629663
-0.05392844
-0.059495131
-0.066611642
-0.074285075
-0.081190947
-0.085679186
-0.085831582
-0.079521983
-0.064875891
-0.04068906
-0.0072407128
0.032139581
0.064981661
0.077749391
-0.076226311
-0.072613523
-0.063515985
-0.055435179
-0.050724806
-0.049781379
-0.052312127
-0.057664155
-0.064891607
-0.072774755
-0.079779149
-0.084036533
-0.083391445
-0.075348756
-0.057602472
-0.02837494
0.012933529
0.06539668
0.11555171
0.15150643
-0.10809205
-0.08955613
-0.071233639
-0.057232821
-0.049071939
-0.046330012
-0.048077056
-0.053202396
-0.060434411
-0.068295652
-0.075027181
-0.078526704
-0.076388801
-0.065809474
-0.043865283
-0.0078182525
0.044393866
0.11299835
0.18838063
0.27186097
-0.17684536
-0.10828949
-0.076202277
-0.054651045
-0.04299219
-0.038997836
-0.040570311
-0.045927839
-0.053441329
-0.061438148
-0.068027375
-0.070962351
-0.06755093
-0.054739636
-0.029148618
0.013563795
0.078147152
0.17006455
0.28949566
0.47421842
-0.37208339
-0.12470833
-0.054972888
-0.031962327
-0.022063365
-0.020300329
-0.024359261
-0.031957799
-0.041261355
-0.050640679
-0.058316693
-0.062187257
-0.05978235
-0.048056611
-0.022658332
0.021474402
0.092818916
0.21015296
0.40288862
0.77640948
)
;

boundaryField
{
    movingWall
    {
        type            zeroGradient;
    }
    fixedWalls
    {
        type            zeroGradient;
    }
    frontAndBack
    {
        type            empty;
    }
}


// ************************************************************************* //
