/*--------------------------------*- C++ -*----------------------------------*\
  =========                 |
  \\      /  F ield         | OpenFOAM: The Open Source CFD Toolbox
   \\    /   O peration     | Website:  https://openfoam.org
    \\  /    A nd           | Version:  9
     \\/     M anipulation  |
\*---------------------------------------------------------------------------*/
FoamFile
{
    format      ascii;
    class       surfaceScalarField;
    location    "28";
    object      phi;
}
// * * * * * * * * * * * * * * * * * * * * * * * * * * * * * * * * * * * * * //

dimensions      [0 3 -1 0 0 0 0];

internalField   nonuniform List<scalar> 
760
(
1.2702029e-05
-1.270429e-05
-2.8723604e-05
4.1425635e-05
-0.0001222922
9.3568603e-05
-0.00025039692
0.00012810472
-0.00039607647
0.00014567956
-0.0005453935
0.00014931703
-0.00068627489
0.0001408814
-0.00080689623
0.00012062135
-0.00089495708
8.806085e-05
-0.00093839531
4.3438233e-05
-0.00092727888
-1.1116425e-05
-0.00085686551
-7.0413372e-05
-0.00073043175
-0.00012643375
-0.00056134314
-0.00016908861
-0.00037276093
-0.00018858221
-0.00019447414
-0.00017828677
-5.6521875e-05
-0.00013795225
1.9614509e-05
-7.6136377e-05
3.041134e-05
-1.0796833e-05
3.0411332e-05
-4.3183278e-05
3.047899e-05
-0.00020456694
0.00020280931
-0.00046832592
0.00035732759
-0.00080070991
0.00046048871
-0.0011673535
0.00051232316
-0.0015364533
0.00051841686
-0.0018782322
0.0004826603
-0.0021636873
0.0004060764
-0.0023645496
0.00028892316
-0.0024553564
0.00013424508
-0.0024181491
-4.8323774e-05
-0.0022453639
-0.00024319852
-0.0019475609
-0.00042423676
-0.0015544721
-0.00056217737
-0.0011143229
-0.0006287314
-0.0006874754
-0.00060513428
-0.00033452573
-0.00049090192
-0.00010089668
-0.00030976542
-1.5519027e-06
-0.00011014162
2.8859429e-05
-0.00011002764
0.00014050663
-0.00040303345
0.00049581513
-0.00083139214
0.00078568628
-0.0013456237
0.00097472029
-0.0018986075
0.001065307
-0.0024465918
0.0010664012
-0.0029480451
0.00098411358
-0.0033626324
0.00082066369
-0.0036519046
0.00057819537
-0.003782331
0.00026467155
-0.0037298356
-0.00010081924
-0.0034858219
-0.00048721221
-0.0030632811
-0.00084677752
-0.0024999976
-0.0011254609
-0.0018582367
-0.0012704924
-0.0012181452
-0.0012452257
-0.00066373701
-0.0010453101
-0.0002630897
-0.00071041272
-4.7956329e-05
-0.00032527499
-1.9096897e-05
-0.0001734405
0.00031394713
-0.00059329558
0.00091567022
-0.0011777018
0.0013700925
-0.0018583804
0.0016553989
-0.0025769228
0.0017838494
-0.0032813251
0.0017708034
-0.0039228126
0.0016256011
-0.0044541559
0.001352007
-0.0048302789
0.00095431833
-0.0050112513
0.00044564404
-0.004967268
-0.00014480259
-0.0046844429
-0.00077003729
-0.0041723561
-0.0013588643
-0.0034691311
-0.0018286859
-0.0026440119
-0.0020956115
-0.0017932022
-0.0020960355
-0.0010258511
-0.0018126611
-0.00044021512
-0.0012960487
-9.6723893e-05
-0.00066876621
-0.00011582079
-0.00022979676
0.00054374389
-0.00076507881
0.0014509523
-0.0014914934
0.0020965071
-0.0023225598
0.0024864653
-0.0031901569
0.0026514465
-0.0040368423
0.0026174888
-0.0048100589
0.0023988178
-0.0054589882
0.0020009363
-0.0059342053
0.0014295354
-0.0061898355
0.00070127427
-0.0061884149
-0.00014622314
-0.0059055841
-0.0010528681
-0.0053404195
-0.0019240289
-0.0045231178
-0.0026459875
-0.0035229777
-0.0030957517
-0.0024498055
-0.0031692077
-0.0014425397
-0.0028199269
-0.00064123136
-0.0020973571
-0.00014883692
-0.0011611606
-0.00026465771
-0.00027729923
0.00082104313
-0.00091155156
0.0020852046
-0.0017607388
0.0029456944
-0.0027228214
0.0034485479
-0.0037222279
0.003650853
-0.0046987145
0.0035939754
-0.0055989133
0.0032990166
-0.0063712145
0.0027732375
-0.0069637522
0.002022073
-0.0073248595
0.0010623816
-0.0074074808
-6.3601795e-05
-0.0071717111
-0.0012886378
-0.0065988992
-0.0024968408
-0.0057016862
-0.0035432005
-0.0045400225
-0.0042574154
-0.0032318439
-0.0044773862
-0.0019490213
-0.0041027495
-0.0008872878
-0.0031590906
-0.00021159423
-0.0018368542
-0.00047625193
-0.00031411674
0.0011351599
-0.0010263415
0.0027974293
-0.0019735124
0.0038928653
-0.0030417608
0.0045167963
-0.0041507252
0.0047598174
-0.0052399539
0.0046832041
-0.0062580845
0.0043171472
-0.0071555375
0.0036706905
-0.0078803794
0.0027469149
-0.0083768539
0.0015588561
-0.0085854001
0.00014494443
-0.008451329
-0.0014227089
-0.0079295068
-0.003018663
-0.0070049691
-0.0044677382
-0.0057150472
-0.0055473373
-0.004173583
-0.0060188504
-0.0025818453
-0.0056944871
-0.0012041049
-0.004536831
-0.00029450406
-0.002746455
-0.00077075598
-0.0003382487
0.0014734086
-0.0011031697
0.0035623504
-0.002117635
0.0049073306
-0.0032598909
0.0056590521
-0.0044474083
0.0059473349
-0.005621963
0.0058577588
-0.0067369496
0.0054321338
-0.0077479671
0.004681708
-0.0086063741
0.0036053219
-0.0092552499
0.0022077319
-0.0096270133
0.0005167078
-0.0096492045
-0.0014005177
-0.0092489793
-0.0034188882
-0.0083739422
-0.0053427752
-0.007022072
-0.0068992076
-0.0052818134
-0.0077591089
-0.0033676667
-0.0076086339
-0.0016173633
-0.0062871344
-0.00040826891
-0.0039555494
-0.0011790249
-0.00034815618
0.0018215648
-0.001137215
0.0043514092
-0.0021827885
0.0059529041
-0.0033586197
0.0068348834
-0.0045822421
0.0071709573
-0.0057998215
0.0070753382
-0.0069721937
0.006604506
-0.0080636667
0.0057731809
-0.0090334401
0.0045750953
-0.0098289919
0.0030032838
-0.010381273
0.0010689885
-0.010604524
-0.0011772663
-0.010400776
-0.003622636
-0.0096748943
-0.0060686571
-0.0083686742
-0.0082054278
-0.0065156851
-0.009612098
-0.0043098846
-0.0098144344
-0.0021483234
-0.0084486956
-0.00056492533
-0.0055389475
-0.0017439502
-0.0003439348
0.0021654996
-0.0011278596
0.005135334
-0.0021647098
0.0069897543
-0.003325902
0.0079960756
-0.0045308025
0.0083758577
-0.0057319442
0.0082764799
-0.0069002211
0.007772783
-0.0080123809
0.0068853407
-0.0090408253
0.0056035397
-0.0099449659
0.0039074244
-0.010663394
0.0017874163
-0.011106744
-0.00073391551
-0.011163419
-0.0035659613
-0.010697127
-0.0065349493
-0.0095825985
-0.0093199562
-0.0077667767
-0.01142792
-0.005371501
-0.01220971
-0.0028071787
-0.011013018
-0.00077836897
-0.0075677572
-0.0025223192
-0.00032890792
0.0024944075
-0.0010824214
0.0058888475
-0.0020707771
0.00797811
-0.003163613
0.0090889115
-0.004283902
0.0094961468
-0.0053928535
0.0093854314
-0.0064741405
0.00885407
-0.0075205481
0.0079317484
-0.008522918
0.0066059096
-0.0094603447
0.0048448511
-0.010291332
0.0026184036
-0.010933227
-9.2020589e-05
-0.011283212
-0.0032159763
-0.011173633
-0.0066445281
-0.010415714
-0.010077876
-0.008846736
-0.012996897
-0.0064557538
-0.014600692
-0.0035815269
-0.013887245
-0.0010642229
-0.010085061
-0.003586542
-0.00031178417
0.0028061917
-0.001020679
0.0065977424
-0.0019261002
0.0088835312
-0.0028949494
0.010057761
-0.0038568834
0.010458081
-0.0047855642
0.010314112
-0.0056807673
0.0097492731
-0.0065544567
0.0088054378
-0.0074198904
0.0074713433
-0.008281826
0.0057067867
-0.0091251564
0.003461734
-0.0099086405
0.00069146351
-0.010527257
-0.0025973596
-0.010827014
-0.006344771
-0.010573628
-0.010331261
-0.0094932087
-0.014077317
-0.0073911389
-0.016702762
-0.0044189146
-0.016859469
-0.0014372116
-0.013066764
-0.0050237536
-0.00031004278
0.0031162344
-0.00098036471
0.0072680643
-0.0017790488
0.0096822153
-0.0025693662
0.010848078
-0.0032945961
0.011183311
-0.0039478973
0.010967413
-0.0045499709
0.010351347
-0.0051347863
0.0093902532
-0.005739921
0.0080764779
-0.0063985253
0.006365391
-0.0071301278
0.0041933366
-0.0079302597
0.0014915954
-0.0087388063
-0.0017888131
-0.0094303592
-0.0056532181
-0.0097685814
-0.0099930393
-0.0094003438
-0.014445555
-0.0079305795
-0.018172526
-0.0052061613
-0.019583887
-0.001902612
-0.016370314
-0.0069263656
-0.00035604011
0.0034722746
-0.0010239969
0.0079360211
-0.0017042299
0.010362448
-0.0022607981
0.011404646
-0.0026657213
0.011588234
-0.0029440092
0.011245701
-0.0031442484
0.010551586
-0.0033248662
0.009570871
-0.0035471916
0.0082988034
-0.0038710446
0.006689244
-0.0043491698
0.0046714618
-0.0050183793
0.0021608049
-0.0058766123
-0.00093058007
-0.0068578349
-0.0046719955
-0.0077762881
-0.0090745861
-0.0082658352
-0.013956007
-0.00776874
-0.018669622
-0.0057510994
-0.021601528
-0.0024366711
-0.019684742
-0.0093630367
-0.00050826095
0.0039805355
-0.001245631
0.0086733912
-0.0017958832
0.0109127
-0.0020479983
0.011656761
-0.002032505
0.011572741
-0.001825425
0.011038621
-0.0015121915
0.010238352
-0.0011778593
0.0092365389
-0.00090471293
0.008025657
-0.00077372045
0.0065582515
-0.00086349084
0.0047612322
-0.0012473587
0.0025446728
-0.001982833
-0.00019510572
-0.0030818692
-0.0035729593
-0.0044600324
-0.0076964229
-0.0058274874
-0.012588552
-0.0065661639
-0.017930945
-0.0057684469
-0.022399245
-0.0029512249
-0.022501964
-0.012314262
-0.00086855318
0.0048490887
-0.0017629826
0.0095678207
-0.0021213536
0.011271071
-0.0019368421
0.01147225
-0.0013509169
0.010986815
-0.00051618636
0.010203891
0.00043704837
0.0092851177
0.0013996214
0.0082739658
0.0022723849
0.0071528935
0.0029609232
0.0058697132
0.0033691577
0.0043529977
0.0033968054
0.0025170251
0.0029385503
0.00026314938
0.0019096144
-0.0025440234
0.00026968722
-0.0060564958
-0.0018541618
-0.010464703
-0.0039515949
-0.015833512
-0.0048608338
-0.021490006
-0.0032547032
-0.024108094
-0.015568965
-0.0015910838
0.0064401725
-0.002610852
0.010587589
-0.0025131342
0.011173354
-0.0015899023
0.010549018
-0.00017216454
0.0095690777
0.0014928084
0.0085389178
0.003232906
0.0075450201
0.0049232459
0.006583626
0.0064630048
0.0056131347
0.0077575087
0.0045752092
0.0087075136
0.0034029928
0.0092015007
0.002023038
0.0091033446
0.00036130552
0.0082750926
-0.0017157714
0.0065654617
-0.0043468648
0.0039042358
-0.0078034774
0.00055895463
-0.012488231
-0.0024680541
-0.018462997
-0.0030273166
-0.023548832
-0.018596281
-0.0027183595
0.009158532
-0.0031498651
0.011019095
-0.001802997
0.0098264856
0.00046670436
0.0082793166
0.0030894278
0.0069463542
0.0057738165
0.0058545292
0.0083629042
0.0049559324
0.010760402
0.0041861281
0.012893497
0.0034800395
0.014690665
0.0027780414
0.016068349
0.0020253087
0.016923287
0.0011681001
0.017119715
0.00016487804
0.01649083
-0.001086887
0.01481684
-0.0026728749
0.011846657
-0.0048332943
0.0074354924
-0.0080770661
0.0022629295
-0.013290434
-0.0012724664
-0.020013436
-0.019868748
-0.0024132793
0.011571811
2.8056917e-05
0.0085777584
0.0042551384
0.005599404
0.0084161229
0.0041183322
0.012231485
0.0031309916
0.015656265
0.0024297499
0.018686548
0.0019256489
0.021329192
0.0015434848
0.023583492
0.0012257393
0.025429226
0.00093230682
0.026820169
0.00063436574
0.02767718
0.00031108917
0.027900204
-5.8145656e-05
0.027347224
-0.00053390742
0.025771632
-0.0010972821
0.022843047
-0.0019047095
0.01805477
-0.0032887893
0.011113587
-0.0063492511
0.0033886754
-0.012288525
-0.016480072
0.011571811
0.02014957
0.025748974
0.029867306
0.032998297
0.035428047
0.037353696
0.038897181
0.04012292
0.041055227
0.041689593
0.042000682
0.041942536
0.041408629
0.040311347
0.038406637
0.035117848
0.028768597
0.016480072
)
;

boundaryField
{
    movingWall
    {
        type            calculated;
        value           uniform 0;
    }
    fixedWalls
    {
        type            calculated;
        value           uniform 0;
    }
    frontAndBack
    {
        type            empty;
        value           nonuniform List<scalar> 0();
    }
}


// ************************************************************************* //
