/*--------------------------------*- C++ -*----------------------------------*\
  =========                 |
  \\      /  F ield         | OpenFOAM: The Open Source CFD Toolbox
   \\    /   O peration     | Website:  https://openfoam.org
    \\  /    A nd           | Version:  9
     \\/     M anipulation  |
\*---------------------------------------------------------------------------*/
FoamFile
{
    format      ascii;
    class       volVectorField;
    location    "28";
    object      U_0;
}
// * * * * * * * * * * * * * * * * * * * * * * * * * * * * * * * * * * * * * //

dimensions      [0 1 -1 0 0 0 0];

internalField   nonuniform List<vector> 
400
(
(0.00028443706 -0.00028140296 0)
(0.00011068581 7.9963361e-05 0)
(-0.0013271987 0.00047803236 0)
(-0.0036219078 0.00073593297 0)
(-0.0064236739 0.00086752504 0)
(-0.0094315178 0.0009072745 0)
(-0.012388059 0.00087487214 0)
(-0.015056519 0.00077153571 0)
(-0.017194639 0.00058849293 0)
(-0.018552949 0.00032008548 0)
(-0.018902714 -2.4813005e-05 0)
(-0.018086226 -0.00041826975 0)
(-0.016079954 -0.00079972588 0)
(-0.01304898 -0.0010930866 0)
(-0.0093664085 -0.001221215 0)
(-0.0055776631 -0.0011294823 0)
(-0.0023003389 -0.00081287179 0)
(-8.2951197e-05 -0.00033798296 0)
(0.00076015129 0.00015229425 0)
(0.00040944159 0.00038933853 0)
(-8.6064925e-05 -0.00012359393 0)
(-0.0018692687 0.001787256 0)
(-0.0063065489 0.0036260729 0)
(-0.012452743 0.0048625221 0)
(-0.019600752 0.0054985607 0)
(-0.027107106 0.0056207038 0)
(-0.034359096 0.0052860604 0)
(-0.04076912 0.0045044021 0)
(-0.045758441 0.003266232 0)
(-0.048776184 0.0015896538 0)
(-0.049366936 -0.0004354782 0)
(-0.047254106 -0.002618208 0)
(-0.042452233 -0.0046645686 0)
(-0.035361669 -0.0062189524 0)
(-0.026778728 -0.0069376234 0)
(-0.017827322 -0.0065922981 0)
(-0.0097755579 -0.0051797984 0)
(-0.0037462994 -0.0029994434 0)
(-0.00038875177 -0.00066553687 0)
(0.00028989527 0.00078354876 0)
(-0.00058808227 0.0014336293 0)
(-0.0042428233 0.0063775431 0)
(-0.011758628 0.010640648 0)
(-0.021468827 0.013483695 0)
(-0.032366406 0.014898399 0)
(-0.0435883 0.015017476 0)
(-0.054287769 0.013936236 0)
(-0.063642966 0.011684291 0)
(-0.070856292 0.008281386 0)
(-0.075188832 0.0038286517 0)
(-0.07604001 -0.0014059332 0)
(-0.073058179 -0.0069357024 0)
(-0.06626701 -0.012071825 0)
(-0.056169609 -0.016000347 0)
(-0.043780985 -0.017942838 0)
(-0.030569288 -0.017380031 0)
(-0.018250702 -0.014290027 0)
(-0.0084179871 -0.0093123246 0)
(-0.0021511229 -0.0037618393 0)
(-1.9700222e-06 0.00031696816 0)
(-0.0010530692 0.0043003963 0)
(-0.006514891 0.013565805 0)
(-0.016999219 0.020864208 0)
(-0.030031077 0.025561386 0)
(-0.044300864 0.027761608 0)
(-0.058784668 0.027688097 0)
(-0.072487987 0.025487747 0)
(-0.084447426 0.021218493 0)
(-0.093729472 0.014945152 0)
(-0.099464752 0.0068783777 0)
(-0.10093065 -0.0025013182 0)
(-0.09766328 -0.012378514 0)
(-0.089593425 -0.021605521 0)
(-0.077182481 -0.028824923 0)
(-0.061505264 -0.032706206 0)
(-0.044253749 -0.032300043 0)
(-0.027562275 -0.027445984 0)
(-0.01358178 -0.019080748 0)
(-0.0040263564 -0.0092707094 0)
(-0.00026772041 -0.0011081904 0)
(-0.0014558694 0.008365056 0)
(-0.0085490922 0.023181313 0)
(-0.021746299 0.034051774 0)
(-0.037792587 0.04076321 0)
(-0.055097091 0.043701881 0)
(-0.072519806 0.043259141 0)
(-0.088984695 0.039661561 0)
(-0.10345876 0.033001414 0)
(-0.11493254 0.023384264 0)
(-0.12243722 0.011116749 0)
(-0.12511561 -0.0031289685 0)
(-0.12232014 -0.018219438 0)
(-0.11376174 -0.032541702 0)
(-0.099698426 -0.044132734 0)
(-0.081100626 -0.0509664 0)
(-0.059776413 -0.051441336 0)
(-0.038291233 -0.045013719 0)
(-0.019520477 -0.032755596 0)
(-0.0060923467 -0.017491871 0)
(-0.00051102254 -0.0035220298 0)
(-0.0017889383 0.013475482 0)
(-0.010269741 0.034960941 0)
(-0.025805569 0.049908751 0)
(-0.044466868 0.05879493 0)
(-0.064427867 0.0624585 0)
(-0.084477745 0.061551018 0)
(-0.1035168 0.056416136 0)
(-0.12050378 0.047182271 0)
(-0.13440423 0.033970382 0)
(-0.1441742 0.017132369 0)
(-0.14880373 -0.0025359436 0)
(-0.14739355 -0.023636479 0)
(-0.13931136 -0.044142729 0)
(-0.12443576 -0.061442273 0)
(-0.10343179 -0.072642477 0)
(-0.078056011 -0.07517407 0)
(-0.051260989 -0.067706874 0)
(-0.026809484 -0.051124257 0)
(-0.0086123103 -0.028965692 0)
(-0.00078707368 -0.0070521586 0)
(-0.0020420383 0.019436558 0)
(-0.011605671 0.048529014 0)
(-0.028995845 0.067998468 0)
(-0.049757811 0.079226166 0)
(-0.071891741 0.08365754 0)
(-0.094162216 0.082297859 0)
(-0.1155002 0.075649788 0)
(-0.13491518 0.063876972 0)
(-0.15140344 0.047076018 0)
(-0.16388493 0.025567777 0)
(-0.17119254 0.00016301547 0)
(-0.17215472 -0.027610675 0)
(-0.16571582 -0.055396402 0)
(-0.15119212 -0.079945839 0)
(-0.12870072 -0.097351311 0)
(-0.099670103 -0.1036987 0)
(-0.067241901 -0.096286223 0)
(-0.036119158 -0.075220297 0)
(-0.011929743 -0.044539866 0)
(-0.0011708186 -0.012001496 0)
(-0.0022012902 0.026013406 0)
(-0.012484735 0.063419668 0)
(-0.031139955 0.087764575 0)
(-0.053354633 0.10149037 0)
(-0.07701781 0.10677724 0)
(-0.10091217 0.10507385 0)
(-0.12405019 0.097088257 0)
(-0.14555186 0.083021424 0)
(-0.16450973 0.062902216 0)
(-0.17987604 0.036930821 0)
(-0.19039932 0.0057955114 0)
(-0.19465577 -0.029033449 0)
(-0.19113639 -0.065018152 0)
(-0.17848985 -0.098391166 0)
(-0.15602499 -0.12417758 0)
(-0.12444498 -0.13676292 0)
(-0.086646678 -0.13132919 0)
(-0.048063787 -0.10623293 0)
(-0.016429377 -0.065393285 0)
(-0.0017537939 -0.018878431 0)
(-0.0022557097 0.032933285 0)
(-0.012853722 0.079088557 0)
(-0.032098947 0.10853509 0)
(-0.054981882 0.12486435 0)
(-0.079334918 0.13109296 0)
(-0.10399427 0.12919935 0)
(-0.12810039 0.12015139 0)
(-0.15094514 0.1042015 0)
(-0.17179736 0.081278356 0)
(-0.18974475 0.05137558 0)
(-0.20357627 0.0149154 0)
(-0.2117291 -0.026876131 0)
(-0.21232519 -0.071532384 0)
(-0.20333819 -0.11502613 0)
(-0.18306283 -0.15144716 0)
(-0.15101793 -0.17328516 0)
(-0.10916562 -0.17282196 0)
(-0.06302639 -0.14524391 0)
(-0.022524978 -0.092978111 0)
(-0.0026589632 -0.028422202 0)
(-0.0022086333 0.039904529 0)
(-0.012717082 0.094944262 0)
(-0.031841302 0.12954021 0)
(-0.054496829 0.14845856 0)
(-0.078500093 0.15563552 0)
(-0.10277101 0.15366646 0)
(-0.12662143 0.14384605 0)
(-0.14957659 0.12651337 0)
(-0.17117092 0.10149251 0)
(-0.19075574 0.068517122 0)
(-0.20732708 0.027627555 0)
(-0.2193777 -0.020394268 0)
(-0.22488777 -0.073461962 0)
(-0.22130656 -0.12768883 0)
(-0.20585478 -0.17662062 0)
(-0.17647625 -0.21099206 0)
(-0.13334656 -0.21961318 0)
(-0.080899167 -0.19275395 0)
(-0.030641896 -0.12885262 0)
(-0.0040700727 -0.041637048 0)
(-0.0020933492 0.046663294 0)
(-0.012189726 0.11041857 0)
(-0.030536213 0.14996582 0)
(-0.052017593 0.17124302 0)
(-0.074465005 0.17919253 0)
(-0.096919914 0.17712111 0)
(-0.11891406 0.16672979 0)
(-0.14026651 0.14850277 0)
(-0.16086208 0.12219246 0)
(-0.18044322 0.087272644 0)
(-0.19840292 0.043352598 0)
(-0.21353681 -0.0093896675 0)
(-0.2240146 -0.069676682 0)
(-0.22708287 -0.13413348 0)
(-0.21908958 -0.19645334 0)
(-0.19626648 -0.24625224 0)
(-0.15621927 -0.26886035 0)
(-0.10070624 -0.24798811 0)
(-0.041146014 -0.17433504 0)
(-0.0062706197 -0.05983394 0)
(-0.0019963294 0.053057471 0)
(-0.011565503 0.12508352 0)
(-0.028660959 0.16904519 0)
(-0.048056623 0.19210915 0)
(-0.067638447 0.20035668 0)
(-0.086643897 0.19791284 0)
(-0.10489591 0.18696725 0)
(-0.12256944 0.1682186 0)
(-0.139964 0.14140912 0)
(-0.15729759 0.10579906 0)
(-0.17451559 0.060571811 0)
(-0.1910837 0.0052257508 0)
(-0.20560159 -0.059922438 0)
(-0.21550586 -0.13260793 0)
(-0.21690136 -0.20752792 0)
(-0.20457805 -0.27431819 0)
(-0.17317489 -0.31571785 0)
(-0.12017097 -0.30807985 0)
(-0.054147485 -0.22988378 0)
(-0.0096749039 -0.084653161 0)
(-0.0020996027 0.05918428 0)
(-0.011414862 0.13881589 0)
(-0.027115378 0.18617341 0)
(-0.043624852 0.20994714 0)
(-0.058981232 0.21760157 0)
(-0.072777826 0.21419779 0)
(-0.085249961 0.20247365 0)
(-0.097001159 0.18339417 0)
(-0.1087886 0.15675622 0)
(-0.1213503 0.12168631 0)
(-0.13525396 0.077015441 0)
(-0.15070276 0.021618225 0)
(-0.16712206 -0.045110755 0)
(-0.18274004 -0.12251609 0)
(-0.19405357 -0.2071262 0)
(-0.19523506 -0.29011477 0)
(-0.17829426 -0.35358514 0)
(-0.13540546 -0.36743814 0)
(-0.06908902 -0.29415298 0)
(-0.014795028 -0.11798448 0)
(-0.0027676967 0.065619964 0)
(-0.01274099 0.15199858 0)
(-0.027329968 0.2009973 0)
(-0.040244499 0.22368371 0)
(-0.049928539 0.22933091 0)
(-0.056643333 0.22403756 0)
(-0.061232457 0.21108063 0)
(-0.064815849 0.19168179 0)
(-0.068620525 0.16572046 0)
(-0.073874813 0.13227355 0)
(-0.081728009 0.089960273 0)
(-0.093119922 0.037200146 0)
(-0.10846911 -0.027479084 0)
(-0.12721369 -0.1049764 0)
(-0.14705414 -0.19422077 0)
(-0.16280341 -0.28948646 0)
(-0.16509072 -0.37509941 0)
(-0.14090147 -0.41772698 0)
(-0.084061564 -0.36281403 0)
(-0.022011633 -0.16157408 0)
(-0.0047195838 0.073834768 0)
(-0.017222412 0.16572641 0)
(-0.031284292 0.21337837 0)
(-0.039683103 0.23217425 0)
(-0.041883318 0.23380252 0)
(-0.039350877 0.22539468 0)
(-0.033812306 0.21061256 0)
(-0.027000108 0.19081085 0)
(-0.020591747 0.16589803 0)
(-0.016215161 0.13493927 0)
(-0.015476112 0.096470909 0)
(-0.019925332 0.048690018 0)
(-0.030918426 -0.01041272 0)
(-0.049234105 -0.082920502 0)
(-0.074398963 -0.17014316 0)
(-0.10327655 -0.27050258 0)
(-0.12725451 -0.37369536 0)
(-0.12973495 -0.4486878 0)
(-0.094914804 -0.42750697 0)
(-0.030930663 -0.21612805 0)
(-0.0092999999 0.086952158 0)
(-0.027432076 0.18185343 0)
(-0.040981558 0.22303363 0)
(-0.042679285 0.23378971 0)
(-0.034405128 0.22880243 0)
(-0.019622242 0.21592312 0)
(-0.0012379675 0.19878016 0)
(0.018346043 0.17856484 0)
(0.037072039 0.15508363 0)
(0.053056247 0.1273594 0)
(0.064422118 0.093936264 0)
(0.069231444 0.053014528 0)
(0.065415511 0.0024625371 0)
(0.051047754 -0.060339417 0)
(0.024643211 -0.13837669 0)
(-0.013701798 -0.23417148 0)
(-0.058753725 -0.34517036 0)
(-0.093510894 -0.44954 0)
(-0.094469907 -0.47558827 0)
(-0.039216115 -0.28048284 0)
(-0.018580314 0.11087148 0)
(-0.046039627 0.20177657 0)
(-0.055229944 0.22793171 0)
(-0.043984617 0.22501776 0)
(-0.019372116 0.21061308 0)
(0.01233387 0.19228018 0)
(0.046993661 0.17278508 0)
(0.081754793 0.15265407 0)
(0.11443853 0.13135289 0)
(0.14315384 0.10779555 0)
(0.16601736 0.080591577 0)
(0.18098161 0.048112089 0)
(0.18557642 0.0084491784 0)
(0.17716596 -0.040817627 0)
(0.15275963 -0.10317633 0)
(0.10948891 -0.18390632 0)
(0.047240597 -0.28855475 0)
(-0.021439245 -0.41051046 0)
(-0.072252936 -0.49101706 0)
(-0.041147485 -0.35054297 0)
(-0.033352244 0.15561543 0)
(-0.068601628 0.22040443 0)
(-0.055187269 0.21729227 0)
(-0.016078516 0.19532447 0)
(0.03451137 0.17092358 0)
(0.088508087 0.14849474 0)
(0.14176893 0.1286127 0)
(0.19196943 0.11057766 0)
(0.23754111 0.09329764 0)
(0.27712058 0.075575089 0)
(0.30921854 0.056181449 0)
(0.33204364 0.03382326 0)
(0.34317593 0.0070271923 0)
(0.33982905 -0.025910558 0)
(0.31813263 -0.067741843 0)
(0.27327733 -0.12410802 0)
(0.2004473 -0.20584716 0)
(0.10213982 -0.32506915 0)
(-0.012387261 -0.45457171 0)
(-0.023756654 -0.40864072 0)
(-0.033081118 0.23907316 0)
(-0.042647158 0.2179201 0)
(0.042207224 0.16426629 0)
(0.12760462 0.1278358 0)
(0.20769804 0.10143553 0)
(0.2802817 0.081658197 0)
(0.34487324 0.066648166 0)
(0.40158319 0.054703073 0)
(0.45055082 0.044399494 0)
(0.49162059 0.034639938 0)
(0.52416202 0.02455059 0)
(0.5469862 0.013381696 0)
(0.55822247 0.00039972879 0)
(0.55570949 -0.015137347 0)
(0.53552627 -0.034969198 0)
(0.49244661 -0.062488205 0)
(0.41797273 -0.10694763 0)
(0.30410595 -0.19317544 0)
(0.12313782 -0.33691905 0)
(0.052374207 -0.39437913 0)
(0.24299926 0.15257479 0)
(0.30529618 0.11854287 0)
(0.45481215 0.07610814 0)
(0.56000885 0.050840196 0)
(0.63223324 0.03512609 0)
(0.68654919 0.024812313 0)
(0.72943833 0.017960105 0)
(0.76379641 0.01325593 0)
(0.79127939 0.0097622049 0)
(0.81275156 0.0068543624 0)
(0.82841146 0.0041185188 0)
(0.83794403 0.0012768554 0)
(0.84057078 -0.0018442009 0)
(0.83497559 -0.0053262606 0)
(0.81886698 -0.0098289655 0)
(0.78942866 -0.016232749 0)
(0.73784287 -0.026935706 0)
(0.65316763 -0.05128655 0)
(0.45609767 -0.11374603 0)
(0.31788988 -0.17206002 0)
)
;

boundaryField
{
    movingWall
    {
        type            fixedValue;
        value           uniform (1 0 0);
    }
    fixedWalls
    {
        type            fixedValue;
        value           uniform (0 0 0);
    }
    frontAndBack
    {
        type            empty;
    }
}


// ************************************************************************* //
