/*--------------------------------*- C++ -*----------------------------------*\
  =========                 |
  \\      /  F ield         | OpenFOAM: The Open Source CFD Toolbox
   \\    /   O peration     | Website:  https://openfoam.org
    \\  /    A nd           | Version:  9
     \\/     M anipulation  |
\*---------------------------------------------------------------------------*/
FoamFile
{
    format      ascii;
    class       volScalarField;
    location    "11";
    object      p;
}
// * * * * * * * * * * * * * * * * * * * * * * * * * * * * * * * * * * * * * //

dimensions      [0 2 -2 0 0 0 0];

internalField   nonuniform List<scalar> 
400
(
-2.1076918e-08
-0.00066946453
-0.0013765081
-0.0019280677
-0.0021998502
-0.0021315745
-0.0016991849
-0.00089541262
0.00026661504
0.0017373122
0.0034146898
0.0051368243
0.0066962174
0.0078719301
0.0084839457
0.0084545044
0.0078510971
0.0068894055
0.0059108881
0.0053501945
0.00065382512
-4.070258e-05
-0.00056554354
-0.00093177044
-0.0010970403
-0.0010211952
-0.00068257891
-6.872399e-05
0.00081825711
0.0019463027
0.0032395044
0.0045838604
0.0058106963
0.0067458039
0.0072465875
0.007251082
0.0068119839
0.0061001978
0.0053617102
0.0047915258
0.001413279
0.00043621417
-0.00011648473
-0.00044845771
-0.00060479054
-0.00056913584
-0.00032522667
0.0001462094
0.00085889881
0.001802823
0.0029282047
0.0041321572
0.0052621892
0.0061457045
0.0066309018
0.0066386565
0.006201814
0.0054727482
0.0046490224
0.0038058419
0.0019977852
0.00067354555
1.3904303e-05
-0.00035652166
-0.00056306476
-0.00061102858
-0.00048711486
-0.00016062169
0.0004043326
0.0012241913
0.0022716426
0.003459522
0.0046330837
0.0055986855
0.0061666995
0.0062129205
0.0057347151
0.0048734485
0.0038084834
0.0025387314
0.0021473727
0.00048645426
-0.00029977554
-0.00074608409
-0.0010479737
-0.0012258736
-0.0012634581
-0.0011124068
-0.00070800592
-3.367653e-07
0.0010125858
0.0022662339
0.0035993652
0.0047857455
0.005574455
0.0057640621
0.0052872088
0.0042647006
0.0028748596
0.0010584712
0.0016351314
-0.00032181426
-0.0012391428
-0.0017922227
-0.0022358433
-0.0025992007
-0.0028568346
-0.0029364462
-0.0027368613
-0.0021641978
-0.0011740192
0.00020848292
0.0018195392
0.0033978885
0.0046088173
0.005131507
0.0047847944
0.0036377634
0.0018671972
-0.00064050448
0.00027522753
-0.0019195708
-0.0029653183
-0.0036546849
-0.0042912795
-0.0049088941
-0.0054688708
-0.0058699391
-0.0059664434
-0.0056041874
-0.0046665584
-0.0031499771
-0.0011624719
0.0010037023
0.0029115811
0.0040691713
0.004105144
0.0029697749
0.00080318517
-0.0025830801
-0.0020746591
-0.0044384373
-0.0056058755
-0.0064606206
-0.0073460023
-0.0082997578
-0.0092696576
-0.010123352
-0.010663974
-0.010664133
-0.0099153487
-0.008313461
-0.0058987974
-0.0029524981
-9.0773324e-06
0.0022174986
0.0030606388
0.0022303308
-0.00026711436
-0.0047627969
-0.0055027666
-0.0079616648
-0.0092391142
-0.010282507
-0.011468602
-0.012843116
-0.014344794
-0.015812776
-0.016996236
-0.017582808
-0.017245528
-0.01572609
-0.012937143
-0.0090805469
-0.0047467525
-0.00089713036
0.0013868881
0.0013871352
-0.0012237062
-0.0070802759
-0.01003133
-0.012513438
-0.013876928
-0.015110487
-0.01662432
-0.018482373
-0.020624547
-0.022869617
-0.024916357
-0.026361319
-0.026733228
-0.025575004
-0.0226164
-0.017862329
-0.011862271
-0.005788738
-0.0012304855
0.00042540668
-0.0018266181
-0.0092519056
-0.01561304
-0.018058242
-0.019456267
-0.02083128
-0.022640279
-0.024984098
-0.027819267
-0.030956618
-0.034053391
-0.036617682
-0.038022972
-0.037569252
-0.034802676
-0.029357471
-0.021604129
-0.012796486
-0.0050243894
-0.00057739876
-0.0016362622
-0.010658264
-0.022146033
-0.024517722
-0.025845047
-0.027221034
-0.029188484
-0.031914758
-0.035391648
-0.039434563
-0.043668699
-0.047522243
-0.050241648
-0.050952256
-0.048681252
-0.042887295
-0.033538606
-0.021725342
-0.0098657867
-0.001270216
0.00011953486
-0.010096197
-0.029521857
-0.031811524
-0.032864144
-0.033954454
-0.035794385
-0.038658883
-0.04259091
-0.047414905
-0.052726883
-0.057882055
-0.061996469
-0.063983679
-0.062609062
-0.056868743
-0.04625933
-0.031458811
-0.014874326
-0.00072515233
0.004768005
-0.0054076042
-0.037731556
-0.039925588
-0.040319174
-0.040625149
-0.041871769
-0.04448489
-0.048559625
-0.053915057
-0.060102309
-0.066397373
-0.07179157
-0.075011069
-0.074576221
-0.069061777
-0.057448875
-0.039807203
-0.01811486
0.0029042032
0.014545031
0.0069940939
-0.047090355
-0.049009434
-0.048022921
-0.04676423
-0.046776408
-0.048647647
-0.052488203
-0.058066539
-0.064843407
-0.071987924
-0.078355027
-0.082489591
-0.082686696
-0.077150446
-0.064397965
-0.043834939
-0.016665279
0.012575343
0.033002745
0.03245827
-0.05876252
-0.059523458
-0.055780844
-0.051844281
-0.049869231
-0.050506678
-0.053775862
-0.059312799
-0.066405503
-0.074068458
-0.080980532
-0.085491435
-0.08567904
-0.079410969
-0.06480451
-0.040647681
-0.0072176525
0.032158312
0.064999205
0.077756646
-0.076111766
-0.072517852
-0.063439696
-0.055370976
-0.050657212
-0.049692633
-0.052192239
-0.057511241
-0.064712778
-0.072584397
-0.07959534
-0.083877207
-0.083270564
-0.075274314
-0.057573253
-0.028382126
0.012902951
0.06536811
0.11552386
0.15147307
-0.10800735
-0.089490373
-0.071191621
-0.057205735
-0.04904104
-0.046275968
-0.047988259
-0.053077059
-0.060280338
-0.068127858
-0.074864442
-0.078387637
-0.076287772
-0.065755676
-0.043859233
-0.0078518955
0.044335146
0.1129333
0.18831882
0.271796
-0.17678922
-0.10824721
-0.076189433
-0.054653081
-0.042989112
-0.038969926
-0.040505566
-0.045824463
-0.053306971
-0.061287496
-0.067878975
-0.070835233
-0.067461935
-0.054691816
-0.029146109
0.013526427
0.078082734
0.16998784
0.28941789
0.47414339
-0.37202789
-0.12467237
-0.054966022
-0.031974473
-0.022073797
-0.020288532
-0.024312011
-0.031871654
-0.041142139
-0.05050133
-0.05817413
-0.062058683
-0.059682421
-0.048000728
-0.022646796
0.021447397
0.092763454
0.21008296
0.40281551
0.77633792
)
;

boundaryField
{
    movingWall
    {
        type            zeroGradient;
    }
    fixedWalls
    {
        type            zeroGradient;
    }
    frontAndBack
    {
        type            empty;
    }
}


// ************************************************************************* //
