/*--------------------------------*- C++ -*----------------------------------*\
  =========                 |
  \\      /  F ield         | OpenFOAM: The Open Source CFD Toolbox
   \\    /   O peration     | Website:  https://openfoam.org
    \\  /    A nd           | Version:  9
     \\/     M anipulation  |
\*---------------------------------------------------------------------------*/
FoamFile
{
    format      ascii;
    class       surfaceScalarField;
    location    "11";
    object      phi;
}
// * * * * * * * * * * * * * * * * * * * * * * * * * * * * * * * * * * * * * //

dimensions      [0 3 -1 0 0 0 0];

internalField   nonuniform List<scalar> 
760
(
1.2540095e-05
-1.2539883e-05
-2.8775652e-05
4.1315719e-05
-0.0001219458
9.3170251e-05
-0.00024944766
0.00012750179
-0.00039441343
0.00014496571
-0.00054298546
0.00014857193
-0.00068316419
0.00014017861
-0.00080320254
0.00012003831
-0.00089088123
8.7678652e-05
-0.00093421038
4.332924e-05
-0.00092330495
-1.09054e-05
-0.00085341982
-6.9885212e-05
-0.00072777237
-0.00012564746
-0.00055961055
-0.00016816178
-0.00037193751
-0.00018767304
-0.00019437774
-0.00017755979
-5.6846842e-05
-0.00013753092
1.9205358e-05
-7.6052178e-05
3.0186315e-05
-1.098092e-05
3.0186307e-05
-4.3040921e-05
3.0500961e-05
-0.00020366379
0.0002019388
-0.0004660694
0.00035557542
-0.00079670701
0.00045813967
-0.0011614211
0.00050968005
-0.0015286063
0.00051575722
-0.0018686757
0.0004802479
-0.002152811
0.00040417369
-0.0023529123
0.00028777995
-0.0024436415
0.00013405841
-0.0024070922
-4.7454762e-05
-0.0022356579
-0.00024131953
-0.0019397463
-0.00042155908
-0.0015488414
-0.00055906666
-0.0011108585
-0.00062565597
-0.00068584533
-0.00060257302
-0.00033415293
-0.00048922337
-0.00010109673
-0.0003091084
-1.7476194e-06
-0.00011032999
2.8438693e-05
-0.00010943914
0.0001399402
-0.00040080747
0.00049330705
-0.00082676585
0.00078153367
-0.0013381514
0.00096952532
-0.0018881487
0.0010596772
-0.0024332889
0.0010608973
-0.0029323058
0.00097926474
-0.0033451069
0.00081697493
-0.0036334428
0.00057611587
-0.0037639101
0.00026452572
-0.0037124669
-9.8898175e-05
-0.0034704208
-0.00048336562
-0.0030505621
-0.00084141776
-0.0024903699
-0.0011192588
-0.0018517358
-0.00126429
-0.0012144184
-0.0012398904
-0.00066210489
-0.0010415369
-0.00026269868
-0.00070851457
-4.8010646e-05
-0.00032501799
-1.9571927e-05
-0.00017238439
0.00031232429
-0.00058973549
0.00091065853
-0.001170752
0.0013625502
-0.0018476191
0.0016463922
-0.0025623177
0.0017743757
-0.003263182
0.0017617616
-0.0039017373
0.0016178201
-0.0044310105
0.0013462481
-0.0048061166
0.00095122192
-0.0049872294
0.00044563847
-0.0049445488
-0.00014157875
-0.0046640665
-0.00076384798
-0.0041551569
-0.0013503273
-0.0034556409
-0.0018187747
-0.0026343837
-0.0020855473
-0.001787167
-0.0020871071
-0.0010227402
-0.0018059637
-0.00043907989
-0.0012921748
-9.6558261e-05
-0.00066753958
-0.00011613016
-0.00022834521
0.00054066939
-0.00076040785
0.0014427213
-0.001482648
0.0020847903
-0.0023091805
0.0024729247
-0.0031723395
0.0026375348
-0.004015048
0.0026044701
-0.0047850493
0.0023878215
-0.0054317598
0.0019929586
-0.0059059102
0.0014253722
-0.0061616928
0.00070142105
-0.0061616378
-0.00014163381
-0.005881246
-0.0010442397
-0.005319434
-0.0019121393
-0.0045061489
-0.0026320598
-0.0035103549
-0.0030813413
-0.0024414393
-0.0031560226
-0.0014378741
-0.002809529
-0.0006392955
-0.0020907534
-0.00014843699
-0.001158398
-0.00026456707
-0.00027559088
0.00081626029
-0.00090617646
0.0020733067
-0.0017507258
0.0029293396
-0.0027078862
0.003430085
-0.0037025805
0.0036322292
-0.0046749325
0.0035768221
-0.005571849
0.003284738
-0.0063419103
0.0027630199
-0.0069333542
0.002016816
-0.007294524
0.0010625908
-0.0073784024
-5.7755411e-05
-0.0071448722
-0.0012777698
-0.0065752468
-0.0024817647
-0.0056819953
-0.0035253114
-0.0045248272
-0.0042385094
-0.0032213142
-0.0044595357
-0.0019428254
-0.0040880179
-0.00088453331
-0.0031490455
-0.00021095162
-0.0018319797
-0.0004755187
-0.00031233745
0.0011285977
-0.0010207993
0.0027817684
-0.0019632724
0.0038718127
-0.0030266094
0.004493422
-0.0041309526
0.0047365725
-0.0052162011
0.0046620705
-0.0062312259
0.0042997628
-0.0071265801
0.003658374
-0.0078503742
0.0027406101
-0.0083468458
0.0015590624
-0.0085562611
0.00015165991
-0.0084240484
-0.0014099825
-0.0079049162
-0.003000897
-0.0069838688
-0.0044463587
-0.0056981425
-0.0055242357
-0.0041613442
-0.005996334
-0.0025742823
-0.0056750799
-0.0012005526
-0.0045227752
-0.00029360858
-0.0027389236
-0.00076912729
-0.00033661051
0.0014652081
-0.0010980681
0.003543226
-0.0021082223
0.0048819668
-0.00324601
0.0056312098
-0.0044293875
0.0059199499
-0.005600451
0.0058331339
-0.0067127805
0.0054120923
-0.0077220453
0.0046676388
-0.0085795819
0.0035981468
-0.0092283835
0.0022078641
-0.0096007714
0.00052404784
-0.0096242198
-0.0013865341
-0.009225891
-0.0033992259
-0.0083534404
-0.0053188093
-0.0070049213
-0.0068727548
-0.0052687524
-0.0077325028
-0.0033591356
-0.0075846966
-0.0016131149
-0.0062687958
-0.0004071182
-0.0039449203
-0.0011762455
-0.00034687211
0.0018120803
-0.0011331638
0.0043295176
-0.0021752586
0.0059240617
-0.0033474942
0.0068034454
-0.004567843
0.0071402987
-0.0057827549
0.0070480459
-0.006953205
0.0065825423
-0.0080435133
0.005757947
-0.0090127933
0.0045674268
-0.0098083787
0.0030034495
-0.010361067
0.001076736
-0.010584984
-0.0011626167
-0.010382175
-0.0036020353
-0.0096576302
-0.0060433539
-0.00835338
-0.0081770049
-0.0065032282
-0.0095826547
-0.0043011333
-0.0097867914
-0.002143628
-0.0084263011
-0.00056354391
-0.0055250044
-0.0017397894
-0.00034319076
0.002155271
-0.0011253973
0.0051117242
-0.00216
0.0069586642
-0.0033188503
0.0079622956
-0.004521681
0.0083431293
-0.0057212674
0.0082476323
-0.0068886029
0.0077498778
-0.0080004016
0.0068697458
-0.0090289279
0.0055959532
-0.0099333956
0.0039079173
-0.010652178
0.0017955184
-0.011095649
-0.00071914528
-0.011152331
-0.0035453542
-0.010685991
-0.0065096931
-0.0095716864
-0.0092913098
-0.0077568408
-0.0113975
-0.0053636852
-0.012179947
-0.0028025011
-0.010987485
-0.00077683335
-0.0075506724
-0.0025166228
-0.00032883703
0.002484108
-0.0010819462
0.0058648332
-0.0020695911
0.007946309
-0.0031616276
0.0090543321
-0.0042812921
0.0094627937
-0.0053899839
0.0093563241
-0.0064714416
0.0088313355
-0.0075183893
0.0079166936
-0.0085215031
0.006599067
-0.0094596477
0.0048460619
-0.010291162
0.0026270323
-0.010932608
-7.7698599e-05
-0.011281956
-0.0031960064
-0.011171067
-0.0066205815
-0.010411583
-0.010050794
-0.0088414091
-0.012967674
-0.0064503459
-0.01457101
-0.0035775783
-0.013860253
-0.0010626881
-0.010065563
-0.0035793109
-0.0003124497
0.0027965576
-0.0010223968
0.0065747802
-0.0019288181
0.0088527303
-0.0028985694
0.010024083
-0.0038614301
0.010425654
-0.0047911788
0.010286073
-0.0056876195
0.0097277763
-0.006562641
0.0087917152
-0.0074293405
0.0074657665
-0.0082922504
0.0057089717
-0.0091359055
0.0034706873
-0.009919458
0.00070585383
-0.010536659
-0.002578805
-0.010834151
-0.0063230901
-0.010577757
-0.010307188
-0.0094941414
-0.01405129
-0.0073896015
-0.01667555
-0.0044165826
-0.016833272
-0.0014359281
-0.013046217
-0.0050152389
-0.00031143224
0.0031079897
-0.00098426201
0.0072476099
-0.0017856741
0.0096541423
-0.0025786031
0.010817012
-0.0033062696
0.011153321
-0.003961845
0.010941648
-0.004566015
0.010331946
-0.0051526813
0.0093783815
-0.0057593058
0.0080723909
-0.0064188921
0.0063685578
-0.0071508186
0.0042026138
-0.0079504715
0.0015055068
-0.0087574771
-0.0017717994
-0.009446355
-0.0056342121
-0.0097808026
-0.0099727402
-0.0094080435
-0.014424049
-0.0079338376
-0.018149756
-0.0052062842
-0.019560825
-0.0019019101
-0.016350591
-0.0069171491
-0.00035806282
0.0034660524
-0.0010298231
0.0079193702
-0.0017143546
0.010338674
-0.0022750922
0.01137775
-0.002683782
0.011562011
-0.0029653072
0.011223174
-0.0031681793
0.010534818
-0.0033507801
0.0095609822
-0.0035743973
0.0082960081
-0.0038988281
0.0066929886
-0.0043768002
0.0046805859
-0.005045089
0.0021737956
-0.0059015409
-0.00091534737
-0.0068800152
-0.0046557378
-0.0077946088
-0.0090581464
-0.0082792363
-0.013939421
-0.0077766601
-0.018652332
-0.0057541062
-0.021583379
-0.0024368812
-0.019667816
-0.0093540304
-0.00051072802
0.0039767804
-0.0012528468
0.008661489
-0.0018086086
0.010894436
-0.0020661232
0.011635265
-0.0020554204
0.011551308
-0.0018522353
0.011019988
-0.0015418338
0.010224417
-0.0012092793
0.0092284276
-0.00093686417
0.0080235929
-0.00080568615
0.0065618105
-0.00089453086
0.0047694306
-0.0012768676
0.0025561324
-0.002010233
-0.00018198192
-0.0031065394
-0.0035594312
-0.0044811807
-0.0076835051
-0.0058441179
-0.012576484
-0.0065773751
-0.017919075
-0.005774016
-0.022386738
-0.0029525129
-0.022489319
-0.012306543
-0.00087110502
0.0048478855
-0.0017706141
0.009560998
-0.0021350766
0.011258898
-0.0019566426
0.011456831
-0.0013761021
0.010970767
-0.00054558951
0.010189476
0.00040470197
0.0092741253
0.0013657791
0.0082673503
0.0022383215
0.0071510505
0.0029277282
0.0058724039
0.0033376749
0.0043594839
0.0033676087
0.0025261986
0.0029120057
0.00027362106
0.0018859377
-0.0025333632
0.00024921062
-0.006046778
-0.0018709408
-0.010456333
-0.0039639124
-0.015826103
-0.0048677828
-0.021482867
-0.0032568487
-0.024100253
-0.015563392
-0.0015930628
0.0064409482
-0.0026173098
0.010585245
-0.0025252868
0.011166875
-0.0016079885
0.010539532
-0.00019562282
0.0095584016
0.0014649797
0.0085288732
0.0032021285
0.0075369765
0.0048909736
0.0065785052
0.0064306582
0.0056113659
0.0077263178
0.0045767443
0.0086784302
0.0034073715
0.0091751567
0.0020294721
0.0090800903
0.00036868747
0.0082549208
-0.0017081935
0.0065483332
-0.0043401902
0.0038902719
-0.0077982713
0.00054870265
-0.012484534
-0.0024746574
-0.018459507
-0.0030298015
-0.023545109
-0.018593193
-0.0027191177
0.009160066
-0.0031532049
0.011019332
-0.0018105295
0.0098241997
0.00045425815
0.0082747446
0.0030720942
0.0069405655
0.0057522644
0.0058487029
0.0083382017
0.004951039
0.010733863
0.0041828436
0.012866508
0.0034787207
0.014664529
0.0027787237
0.016044151
0.0020277496
0.016901773
0.0011718499
0.017101351
0.00016910904
0.016475645
-0.0010824877
0.014804614
-0.0026691584
0.011836987
-0.0048306448
0.0074280327
-0.0080755793
0.0022580199
-0.013289494
-0.0012747219
-0.020012367
-0.019867915
-0.0024126417
0.011572708
2.8239932e-05
0.0085784503
0.0042533995
0.0055990401
0.0084111612
0.0041169829
0.0122227
0.0031290264
0.015643749
0.0024276544
0.018670941
0.0019238468
0.021311508
0.0015422771
0.023564945
0.0012252831
0.025411056
0.00093261312
0.026803497
0.00063530904
0.027662916
0.00031243033
0.027888316
-5.629054e-05
0.027338278
-0.0005324493
0.025765229
-0.00109611
0.022838575
-0.0019039905
0.01805162
-0.0032886247
0.011111504
-0.0063493777
0.0033877956
-0.012288659
-0.01648012
0.011572708
0.020151158
0.025750198
0.029867181
0.032996207
0.035423862
0.037347709
0.038889986
0.040115269
0.041047882
0.041683191
0.041995621
0.041939331
0.041406881
0.040310771
0.038406781
0.035118156
0.028768779
0.01648012
)
;

boundaryField
{
    movingWall
    {
        type            calculated;
        value           uniform 0;
    }
    fixedWalls
    {
        type            calculated;
        value           uniform 0;
    }
    frontAndBack
    {
        type            empty;
        value           nonuniform List<scalar> 0();
    }
}


// ************************************************************************* //
