/*--------------------------------*- C++ -*----------------------------------*\
  =========                 |
  \\      /  F ield         | OpenFOAM: The Open Source CFD Toolbox
   \\    /   O peration     | Website:  https://openfoam.org
    \\  /    A nd           | Version:  9
     \\/     M anipulation  |
\*---------------------------------------------------------------------------*/
FoamFile
{
    format      ascii;
    class       surfaceScalarField;
    location    "11";
    object      phi_0;
}
// * * * * * * * * * * * * * * * * * * * * * * * * * * * * * * * * * * * * * //

dimensions      [0 3 -1 0 0 0 0];

internalField   nonuniform List<scalar> 
760
(
1.2538994e-05
-1.2539263e-05
-2.8775939e-05
4.1315026e-05
-0.00012194373
9.3168031e-05
-0.00024944236
0.00012749851
-0.00039440428
0.00014496192
-0.00054297203
0.00014856805
-0.00068314689
0.00014017491
-0.0008031822
0.00012003522
-0.00089085884
8.7676602e-05
-0.00093418749
4.3328621e-05
-0.00092328325
-1.090428e-05
-0.00085340097
-6.9882367e-05
-0.00072775786
-0.00012564323
-0.00055960115
-0.00016815678
-0.00037193307
-0.00018766813
-0.00019437726
-0.00017755588
-5.6848647e-05
-0.00013752869
1.9203096e-05
-7.6051783e-05
3.0185058e-05
-1.0981953e-05
3.0185102e-05
-4.3040162e-05
3.0500905e-05
-0.00020365877
0.00020193411
-0.00046605687
0.00035556587
-0.00079668506
0.00045812679
-0.0011613887
0.00050966558
-0.0015285634
0.00051574278
-0.0018686235
0.00048023486
-0.0021527518
0.00040416339
-0.002352849
0.00028777375
-0.0024435778
0.00013405736
-0.0024070321
-4.745012e-05
-0.0022356051
-0.00024130936
-0.0019397039
-0.00042154455
-0.0015488109
-0.00055904979
-0.0011108398
-0.00062563933
-0.00068583655
-0.00060255919
-0.00033415096
-0.0004892143
-0.00010109782
-0.00030910485
-1.748646e-06
-0.00011033099
2.8436469e-05
-0.00010943587
0.00013993703
-0.00040079535
0.00049329347
-0.00082674059
0.00078151109
-0.0013381107
0.00096949707
-0.0018880917
0.0010596467
-0.0024332164
0.0010608675
-0.0029322201
0.00097923844
-0.0033450117
0.00081695484
-0.0036333425
0.0005761045
-0.0037638101
0.0002645249
-0.0037123725
-9.8887768e-05
-0.0034703372
-0.00048334479
-0.0030504931
-0.00084138875
-0.0024903177
-0.0011192252
-0.0018517007
-0.0012642565
-0.0012143983
-0.0012398616
-0.00066209607
-0.0010415165
-0.00026269653
-0.0007085043
-4.8010897e-05
-0.00032501654
-1.9574419e-05
-0.00017237854
0.00031231533
-0.00058971623
0.00091063116
-0.0011707142
0.0013625093
-0.0018475605
0.0016463434
-0.0025622382
0.0017743244
-0.0032630833
0.0017617126
-0.0039016228
0.0016177779
-0.0044308848
0.0013462168
-0.0048059854
0.00095120506
-0.004987099
0.00044563839
-0.0049444255
-0.00014156129
-0.0046639559
-0.00076381446
-0.0041550636
-0.0013502811
-0.0034555678
-0.0018187211
-0.0026343316
-0.0020854929
-0.0017871343
-0.0020870588
-0.0010227233
-0.0018059275
-0.00043907365
-0.0012921538
-9.6557298e-05
-0.00066753286
-0.00011613175
-0.0002283373
0.00054065263
-0.00076038242
0.0014426766
-0.0014825998
0.0020847268
-0.0023091077
0.0024728513
-0.0031722427
0.0026374593
-0.0040149296
0.0026043994
-0.0047849135
0.0023877617
-0.005431612
0.0019929152
-0.0059057565
0.0014253496
-0.00616154
0.00070142181
-0.0061614924
-0.00014160897
-0.005881114
-0.001044193
-0.0053193202
-0.001912075
-0.0045060569
-0.0026319844
-0.0035102865
-0.0030812633
-0.002441394
-0.0031559512
-0.0014378487
-0.0028094726
-0.00063928486
-0.0020907176
-0.00014843474
-0.001158383
-0.00026456658
-0.00027558164
0.00081623428
-0.00090614714
0.0020732422
-0.0017506713
0.0029292509
-0.002707805
0.0034299849
-0.0037024737
0.0036321281
-0.0046748033
0.003576729
-0.005571702
0.0032846605
-0.0063417511
0.0027629644
-0.0069331891
0.0020167875
-0.0072943593
0.0010625919
-0.0073782445
-5.7723734e-05
-0.0071447266
-0.001277711
-0.0065751185
-0.0024816831
-0.0056818885
-0.0035252145
-0.0045247449
-0.0042384069
-0.0032212571
-0.0044594389
-0.0019427916
-0.004087938
-0.00088451824
-0.003148991
-0.00021094808
-0.0018319533
-0.00047551475
-0.00031232777
0.0011285621
-0.001020769
0.0027816835
-0.0019632167
0.0038716985
-0.003026527
0.0044932952
-0.0041308452
0.0047364463
-0.005216072
0.0046619558
-0.0062310799
0.0042996685
-0.0071264227
0.0036583072
-0.0078502112
0.0027405759
-0.0083466828
0.0015590635
-0.0085561029
0.00015169624
-0.0084239003
-0.0014099136
-0.0079047827
-0.0030008007
-0.0069837544
-0.0044462428
-0.0056980508
-0.0055241104
-0.0041612778
-0.0059962119
-0.0025742411
-0.0056749745
-0.0012005332
-0.0045226989
-0.00029360372
-0.0027388828
-0.00076911849
-0.00033660161
0.0014651636
-0.0010980403
0.0035431222
-0.002108171
0.0048818292
-0.0032459346
0.0056310588
-0.0044292894
0.0059198013
-0.005600334
0.0058330004
-0.0067126491
0.0054119836
-0.0077219043
0.0046675624
-0.0085794362
0.0035981078
-0.0092282375
0.0022078646
-0.0096006288
0.0005240875
-0.0096240841
-0.0013864584
-0.0092257656
-0.0033991193
-0.0083533291
-0.0053186793
-0.0070048281
-0.0068726113
-0.0052686814
-0.0077323585
-0.0033590892
-0.0075845667
-0.0016130918
-0.0062686964
-0.00040711198
-0.0039448627
-0.0011762304
-0.00034686516
0.0018120287
-0.0011331417
0.0043293989
-0.0021752176
0.0059239052
-0.0033474336
0.0068032749
-0.0045677645
0.0071401324
-0.005782662
0.0070478979
-0.0069531016
0.0065824232
-0.0080434035
0.0057578643
-0.0090126809
0.0045673851
-0.0098082666
0.0030034502
-0.010360957
0.0010767778
-0.010584878
-0.0011625374
-0.010382074
-0.0036019237
-0.0096575363
-0.0060432167
-0.0083532969
-0.0081768508
-0.0065031604
-0.009582495
-0.0043010857
-0.0097866415
-0.0021436026
-0.0084261796
-0.00056353641
-0.0055249288
-0.0017397668
-0.00034318671
0.0021552154
-0.0011253839
0.0051115962
-0.0021599742
0.0069584957
-0.0033188118
0.0079621125
-0.0045216311
0.0083429518
-0.0057212092
0.0082474758
-0.0068885395
0.0077497535
-0.0080003362
0.006869661
-0.009028863
0.0055959118
-0.0099333326
0.0039079197
-0.010652117
0.0017955621
-0.011095589
-0.00071906537
-0.01115227
-0.0035452425
-0.010685931
-0.0065095561
-0.0095716269
-0.0092911544
-0.0077567868
-0.011397335
-0.0053636427
-0.012179786
-0.0028024758
-0.010987347
-0.00077682494
-0.0075505796
-0.0025165917
-0.00032883657
0.0024840521
-0.0010819434
0.0058647031
-0.0020695844
0.0079461366
-0.0031616165
0.0090541446
-0.0042812775
0.0094626129
-0.005389968
0.0093561662
-0.0064714266
0.0088312121
-0.0075183772
0.0079166117
-0.0085214951
0.0065990296
-0.0094596436
0.0048460682
-0.01029116
0.0026270789
-0.010932604
-7.7621256e-05
-0.011281949
-0.0031958981
-0.011171053
-0.0066204516
-0.01041156
-0.010050647
-0.0088413801
-0.012967515
-0.0064503164
-0.014570849
-0.0035775569
-0.013860106
-0.0010626797
-0.010065457
-0.0035792715
-0.00031245317
0.0027965053
-0.0010224059
0.0065746558
-0.0019288326
0.0088525633
-0.0028985888
0.010023901
-0.0038614544
0.010425478
-0.0047912089
0.010285921
-0.0056876563
0.0097276595
-0.0065626851
0.0087916405
-0.0074293914
0.007465736
-0.0082923066
0.0057089833
-0.0091359633
0.0034707357
-0.0099195163
0.00070593174
-0.01053671
-0.0025787044
-0.010834189
-0.0063229724
-0.01057778
-0.010307057
-0.0094941463
-0.014051148
-0.0073895928
-0.016675402
-0.0044165698
-0.016833129
-0.0014359211
-0.013046106
-0.0050151927
-0.0003114396
0.003107945
-0.00098428298
0.007247499
-0.0017857098
0.0096539901
-0.0025786529
0.010816844
-0.0033063327
0.011153158
-0.0039619204
0.010941509
-0.0045661018
0.010331841
-0.0051527781
0.0093783169
-0.0057594106
0.0080723685
-0.0064190022
0.0063685749
-0.0071509304
0.004202664
-0.0079505808
0.0015055821
-0.008757578
-0.0017717072
-0.0094464415
-0.005634109
-0.0097808687
-0.0099726301
-0.0094080851
-0.014423932
-0.0079338549
-0.018149632
-0.0052062848
-0.0195607
-0.0019019063
-0.016350484
-0.006917099
-0.00035807363
0.0034660187
-0.0010298546
0.0079192799
-0.0017144094
0.010338545
-0.0022751695
0.011377604
-0.0026838797
0.011561869
-0.0029654225
0.011223051
-0.0031683088
0.010534727
-0.0033509203
0.0095609285
-0.0035745445
0.0082959928
-0.0038989784
0.0066930088
-0.0043769497
0.0046806352
-0.0050452335
0.0021738659
-0.0059016758
-0.00091526495
-0.0068801352
-0.0046556497
-0.0077947081
-0.0090580573
-0.0082793088
-0.013939331
-0.0077767026
-0.018652238
-0.0057541225
-0.02158328
-0.0024368823
-0.019667724
-0.0093539813
-0.00051074129
0.00397676
-0.0012528859
0.0086614244
-0.0018086775
0.010894337
-0.0020662213
0.011635148
-0.0020555444
0.011551192
-0.0018523804
0.011019887
-0.0015419943
0.010224341
-0.0012094493
0.0092283835
-0.00093703824
0.0080235816
-0.00080585919
0.0065618297
-0.00089469888
0.0047694749
-0.0012770273
0.0025561944
-0.0020103813
-0.0001819109
-0.0031066729
-0.0035593579
-0.0044812952
-0.007683435
-0.0058442079
-0.012576418
-0.0065774355
-0.017919011
-0.0057740461
-0.02238667
-0.0029525198
-0.02248925
-0.012306501
-0.00087111878
0.0048478789
-0.0017706554
0.009560961
-0.0021351509
0.011258832
-0.0019567498
0.011456747
-0.0013762384
0.01097068
-0.00054574862
0.010189398
0.00040452687
0.0092740657
0.001365596
0.0082673144
0.0022381372
0.0071510404
0.0029275485
0.0058724184
0.0033375045
0.004359519
0.0033674507
0.0025262482
0.0029118621
0.0002736778
0.0018858096
-0.0025333054
0.00024909985
-0.0060467253
-0.0018710315
-0.010456287
-0.003963979
-0.015826063
-0.0048678203
-0.021482828
-0.0032568603
-0.02410021
-0.015563362
-0.0015930735
0.0064409525
-0.0026173447
0.010585232
-0.0025253526
0.01116684
-0.0016080865
0.010539481
-0.00019574975
0.0095583439
0.0014648292
0.0085288188
0.003201962
0.0075369329
0.004890799
0.0065784773
0.0064304832
0.0056113562
0.0077261491
0.0045767525
0.008678273
0.0034073951
0.0091750143
0.0020295069
0.0090799647
0.00036872742
0.0082548118
-0.0017081526
0.0065482406
-0.004340154
0.0038901965
-0.0077982429
0.0005486472
-0.012484514
-0.0024746929
-0.018459488
-0.003029815
-0.023545088
-0.018593177
-0.0027191219
0.0091600744
-0.0031532228
0.011019333
-0.0018105701
0.0098241872
0.00045419086
0.0082747198
0.0030720005
0.0069405342
0.0057521478
0.0058486714
0.0083380682
0.0049510126
0.01073372
0.0041828259
0.012866362
0.0034787137
0.014664388
0.0027787275
0.01604402
0.0020277629
0.016901657
0.0011718702
0.017101252
0.00016913198
0.016475564
-0.0010824639
0.014804548
-0.0026691383
0.011836935
-0.0048306305
0.0074279924
-0.0080755714
0.0022579935
-0.013289489
-0.0012747341
-0.020012361
-0.019867911
-0.0024126384
0.011572713
2.8241011e-05
0.0085784542
0.0042533902
0.0055990382
0.0084111346
0.0041169756
0.012222653
0.0031290158
0.015643681
0.0024276431
0.018670857
0.0019238371
0.021311412
0.0015422706
0.023564845
0.0012252806
0.025410958
0.00093261471
0.026803407
0.00063531416
0.027662839
0.00031243763
0.027888252
-5.6280422e-05
0.02733823
-0.00053244136
0.025765195
-0.0010961037
0.022838551
-0.0019039866
0.018051603
-0.0032886238
0.011111493
-0.0063493784
0.0033877909
-0.01228866
-0.01648012
0.011572712
0.020151167
0.025750205
0.029867181
0.032996196
0.035423839
0.037347676
0.038889947
0.040115228
0.041047843
0.041683157
0.041995594
0.041939314
0.041406872
0.040310769
0.038406782
0.035118158
0.02876878
0.01648012
)
;

boundaryField
{
    movingWall
    {
        type            calculated;
        value           uniform 0;
    }
    fixedWalls
    {
        type            calculated;
        value           uniform 0;
    }
    frontAndBack
    {
        type            empty;
        value           nonuniform List<scalar> 0();
    }
}


// ************************************************************************* //
