/*--------------------------------*- C++ -*----------------------------------*\
  =========                 |
  \\      /  F ield         | OpenFOAM: The Open Source CFD Toolbox
   \\    /   O peration     | Website:  https://openfoam.org
    \\  /    A nd           | Version:  9
     \\/     M anipulation  |
\*---------------------------------------------------------------------------*/
FoamFile
{
    format      ascii;
    class       volVectorField;
    location    "11";
    object      U;
}
// * * * * * * * * * * * * * * * * * * * * * * * * * * * * * * * * * * * * * //

dimensions      [0 1 -1 0 0 0 0];

internalField   nonuniform List<vector> 
400
(
(0.00028217947 -0.00027908315 0)
(0.0001072119 8.0720288e-05 0)
(-0.001325382 0.00047666445 0)
(-0.0036095953 0.00073301986 0)
(-0.0063977922 0.0008637037 0)
(-0.0093906808 0.00090301796 0)
(-0.012332388 0.00087058766 0)
(-0.014987643 0.00076769388 0)
(-0.017115804 0.00058566007 0)
(-0.018468996 0.0003188395 0)
(-0.018819741 -2.4031577e-05 0)
(-0.018010818 -0.00041532409 0)
(-0.016018085 -0.00079493972 0)
(-0.013004805 -0.0010872716 0)
(-0.009341225 -0.0012155451 0)
(-0.0055694523 -0.0011252147 0)
(-0.0023041279 -0.00081093491 0)
(-9.153617e-05 -0.00033853498 0)
(0.00075323031 0.00014974364 0)
(0.00040699318 0.0003869662 0)
(-8.6536665e-05 -0.0001199708 0)
(-0.0018622338 0.0017814233 0)
(-0.0062774158 0.0036098735 0)
(-0.012391488 0.0048389917 0)
(-0.019501703 0.0054710704 0)
(-0.026968622 0.0055922476 0)
(-0.034183421 0.0052594615 0)
(-0.040562297 0.0044825831 0)
(-0.04553014 0.0032521554 0)
(-0.048539137 0.0015858904 0)
(-0.049135767 -0.00042741521 0)
(-0.047043574 -0.0025985396 0)
(-0.042275101 -0.0046355574 0)
(-0.035226585 -0.0061848628 0)
(-0.026688564 -0.0069040906 0)
(-0.017778468 -0.0065651346 0)
(-0.0097584946 -0.0051633942 0)
(-0.0037475894 -0.0029951524 0)
(-0.00039538628 -0.00067100418 0)
(0.00028665664 0.0007766535 0)
(-0.0005852 0.0014302358 0)
(-0.0042198684 0.0063478529 0)
(-0.011693418 0.010586599 0)
(-0.021349271 0.013413362 0)
(-0.032186978 0.014820363 0)
(-0.043349124 0.014939725 0)
(-0.053994466 0.013866396 0)
(-0.063306333 0.011629834 0)
(-0.070491675 0.0082492302 0)
(-0.074814984 0.0038241282 0)
(-0.07567738 -0.0013804109 0)
(-0.072726578 -0.0068818004 0)
(-0.065983184 -0.011995589 0)
(-0.055945122 -0.015911918 0)
(-0.043620444 -0.01785506 0)
(-0.030469446 -0.01730603 0)
(-0.018200812 -0.014240025 0)
(-0.008401862 -0.0092903925 0)
(-0.0021512611 -0.0037635079 0)
(-3.9915957e-06 0.00030714775 0)
(-0.0010465777 0.0042802462 0)
(-0.0064754691 0.013494187 0)
(-0.016897884 0.020751356 0)
(-0.029855086 0.025423222 0)
(-0.04404637 0.027613779 0)
(-0.058454644 0.027544987 0)
(-0.072091786 0.025362854 0)
(-0.084000079 0.02112451 0)
(-0.093250599 0.0148931 0)
(-0.098977012 0.0068760067 0)
(-0.10045783 -0.002451342 0)
(-0.097227871 -0.012280029 0)
(-0.08921452 -0.021468951 0)
(-0.076874044 -0.028666796 0)
(-0.061274368 -0.032547194 0)
(-0.044099314 -0.032161576 0)
(-0.027474697 -0.027345582 0)
(-0.013544251 -0.019026874 0)
(-0.004018268 -0.0092586092 0)
(-0.00026834692 -0.0011171256 0)
(-0.001446298 0.0083193417 0)
(-0.0084958146 0.023051458 0)
(-0.02161508 0.033861996 0)
(-0.037570961 0.040540193 0)
(-0.054783509 0.043469857 0)
(-0.072120259 0.04303967 0)
(-0.088511783 0.039474295 0)
(-0.10293053 0.032864094 0)
(-0.11437101 0.023311485 0)
(-0.12186664 0.01111798 0)
(-0.12456081 -0.0030513295 0)
(-0.12180432 -0.018071608 0)
(-0.11330494 -0.032338118 0)
(-0.099316689 -0.043895689 0)
(-0.080804196 -0.05072394 0)
(-0.059568007 -0.05122348 0)
(-0.038164512 -0.044846695 0)
(-0.019459936 -0.032654666 0)
(-0.0060753744 -0.017454833 0)
(-0.00051023064 -0.0035253142 0)
(-0.0017773427 0.013397508 0)
(-0.010207563 0.034760815 0)
(-0.025655605 0.049629172 0)
(-0.044217484 0.058475683 0)
(-0.06407974 0.062133471 0)
(-0.084039363 0.06124921 0)
(-0.10300298 0.056163059 0)
(-0.11993402 0.046999999 0)
(-0.13380093 0.033876119 0)
(-0.14356097 0.017136312 0)
(-0.14820428 -0.0024322732 0)
(-0.14682979 -0.023440265 0)
(-0.13880272 -0.043871753 0)
(-0.12399953 -0.061123281 0)
(-0.10308142 -0.07230955 0)
(-0.077799102 -0.074865361 0)
(-0.051096502 -0.067458503 0)
(-0.026725564 -0.050961209 0)
(-0.0085860667 -0.028892112 0)
(-0.00078480424 -0.0070450236 0)
(-0.0020298456 0.019322926 0)
(-0.011541211 0.048252941 0)
(-0.028841739 0.067623627 0)
(-0.049503556 0.078806757 0)
(-0.071539715 0.083237595 0)
(-0.093722508 0.08191365 0)
(-0.11498859 0.075331975 0)
(-0.13435113 0.063650905 0)
(-0.15080813 0.04696042 0)
(-0.16327955 0.02557291 0)
(-0.17059648 0.00028952244 0)
(-0.17158662 -0.027371697 0)
(-0.16519361 -0.055064322 0)
(-0.15073215 -0.079549546 0)
(-0.12831826 -0.096928504 0)
(-0.099377573 -0.10329396 0)
(-0.067045185 -0.09594574 0)
(-0.036012995 -0.074981637 0)
(-0.011893926 -0.044418233 0)
(-0.0011668688 -0.011978935 0)
(-0.0021901357 0.025864779 0)
(-0.012425519 0.06306961 0)
(-0.030998179 0.087297689 0)
(-0.053121062 0.10097533 0)
(-0.076695765 0.10626811 0)
(-0.10051231 0.10461368 0)
(-0.1235881 0.096711923 0)
(-0.14504559 0.082756325 0)
(-0.1639777 0.062767365 0)
(-0.17933538 0.036935666 0)
(-0.18986493 0.0059393501 0)
(-0.19414074 -0.028761724 0)
(-0.19065312 -0.064637882 0)
(-0.17805129 -0.09793098 0)
(-0.15564561 -0.12367556 0)
(-0.12414034 -0.13626673 0)
(-0.086429989 -0.13089333 0)
(-0.047939389 -0.1059092 0)
(-0.016384153 -0.065213214 0)
(-0.0017478533 -0.018835236 0)
(-0.0022472273 0.032754664 0)
(-0.0128073 0.078674561 0)
(-0.031986026 0.10798846 0)
(-0.054794569 0.12426695 0)
(-0.079076648 0.13050823 0)
(-0.10367526 0.12867642 0)
(-0.12773499 0.11972834 0)
(-0.1505491 0.10390654 0)
(-0.17138552 0.081129372 0)
(-0.18932944 0.051379715 0)
(-0.2031665 0.015069311 0)
(-0.2113307 -0.026584781 0)
(-0.21194289 -0.07112222 0)
(-0.20297815 -0.11452399 0)
(-0.18273479 -0.15088812 0)
(-0.15073695 -0.17271513 0)
(-0.10895043 -0.17229919 0)
(-0.062892598 -0.14483337 0)
(-0.022471737 -0.092732233 0)
(-0.0026507243 -0.028353294 0)
(-0.0022042136 0.039704991 0)
(-0.01269006 0.094484031 0)
(-0.031771882 0.12893472 0)
(-0.054378521 0.1478003 0)
(-0.078335604 0.15499612 0)
(-0.1025691 0.15310031 0)
(-0.12639426 0.14339357 0)
(-0.14933686 0.12620245 0)
(-0.17092946 0.10133869 0)
(-0.19051994 0.068523956 0)
(-0.20709964 0.027787909 0)
(-0.21915573 -0.020095374 0)
(-0.22466722 -0.073042224 0)
(-0.22108506 -0.12717273 0)
(-0.20563327 -0.17603725 0)
(-0.17626436 -0.21038002 0)
(-0.13316404 -0.2190273 0)
(-0.08077136 -0.19226696 0)
(-0.030584219 -0.12853951 0)
(-0.0040594219 -0.041538265 0)
(-0.0020939238 0.046455186 0)
(-0.012186876 0.10993614 0)
(-0.030521234 0.14932958 0)
(-0.051985473 0.17055225 0)
(-0.074416868 0.1785253 0)
(-0.096861908 0.17653617 0)
(-0.118855 0.16626917 0)
(-0.14021517 0.14819328 0)
(-0.16082487 0.12204651 0)
(-0.18042266 0.087289527 0)
(-0.19839612 0.043521446 0)
(-0.21353201 -0.0090864931 0)
(-0.22400001 -0.069264834 0)
(-0.22704779 -0.13363267 0)
(-0.21902379 -0.19588417 0)
(-0.19616976 -0.24564137 0)
(-0.15610623 -0.26825093 0)
(-0.10060631 -0.24745073 0)
(-0.041090619 -0.17396291 0)
(-0.0062579369 -0.0597034 0)
(-0.0020022488 0.052855167 0)
(-0.011589141 0.12460713 0)
(-0.028706264 0.16841125 0)
(-0.048120143 0.19141885 0)
(-0.067718875 0.19969207 0)
(-0.0867434 0.19733584 0)
(-0.10501839 0.1865208 0)
(-0.12271833 0.16792804 0)
(-0.14014017 0.14128334 0)
(-0.15749756 0.10583253 0)
(-0.17473087 0.060748136 0)
(-0.19130437 0.0055216841 0)
(-0.20580947 -0.059534813 0)
(-0.21567685 -0.13214746 0)
(-0.21701766 -0.20700912 0)
(-0.20462876 -0.27375462 0)
(-0.17316411 -0.31513475 0)
(-0.12012369 -0.30753361 0)
(-0.054104555 -0.22947363 0)
(-0.0096614744 -0.084493123 0)
(-0.0021106292 0.059002696 0)
(-0.011464582 0.13837534 0)
(-0.027220904 0.18557691 0)
(-0.043784427 0.20929204 0)
(-0.059190443 0.21697075 0)
(-0.073033466 0.21365456 0)
(-0.085549265 0.20206115 0)
(-0.097340536 0.18313622 0)
(-0.1091625 0.15665869 0)
(-0.12175026 0.12173939 0)
(-0.13566839 0.077197011 0)
(-0.15111746 0.021899284 0)
(-0.16751768 -0.044755779 0)
(-0.18309349 -0.12211025 0)
(-0.19434139 -0.20668201 0)
(-0.19543691 -0.28963558 0)
(-0.17840143 -0.35307674 0)
(-0.13543058 -0.36693317 0)
(-0.069070881 -0.29373896 0)
(-0.014783434 -0.11780331 0)
(-0.002783017 0.065473065 0)
(-0.012813522 0.15162227 0)
(-0.027489195 0.20047216 0)
(-0.04049062 0.22309728 0)
(-0.050253827 0.22876283 0)
(-0.057038234 0.22355023 0)
(-0.061686028 0.21071638 0)
(-0.065315986 0.19146337 0)
(-0.069154146 0.16565208 0)
(-0.074428024 0.13234363 0)
(-0.082286416 0.090144854 0)
(-0.093668678 0.03746839 0)
(-0.10899166 -0.027157824 0)
(-0.12769154 -0.10462786 0)
(-0.14746567 -0.19385856 0)
(-0.16312519 -0.28910957 0)
(-0.16530428 -0.37469872 0)
(-0.1410039 -0.41730904 0)
(-0.084078666 -0.36243826 0)
(-0.022005704 -0.16138732 0)
(-0.0047376129 0.073733934 0)
(-0.017310958 0.16543792 0)
(-0.031482927 0.21295358 0)
(-0.039994434 0.23168532 0)
(-0.04229704 0.23332135 0)
(-0.039851332 0.22497965 0)
(-0.034380101 0.21030386 0)
(-0.027614483 0.19063087 0)
(-0.021232119 0.16585089 0)
(-0.016862103 0.13501455 0)
(-0.016112563 0.096646333 0)
(-0.020536953 0.048935722 0)
(-0.031492919 -0.010128723 0)
(-0.049760327 -0.082626386 0)
(-0.074862956 -0.16985645 0)
(-0.10365932 -0.27022459 0)
(-0.12753543 -0.37341113 0)
(-0.12989875 -0.44838464 0)
(-0.0949693 -0.42720818 0)
(-0.030934159 -0.21595677 0)
(-0.0093177139 0.086903507 0)
(-0.027524281 0.18166678 0)
(-0.041193999 0.22272827 0)
(-0.043017756 0.23341818 0)
(-0.034859182 0.22842467 0)
(-0.020172824 0.21559007 0)
(-0.0018594173 0.19852923 0)
(0.017680691 0.17841721 0)
(0.036388836 0.15504542 0)
(0.0523796 0.12742371 0)
(0.063771581 0.094085414 0)
(0.068621217 0.053223 0)
(0.064855251 0.0027010595 0)
(0.05054247 -0.060098751 0)
(0.024197837 -0.13815483 0)
(-0.014077859 -0.23397539 0)
(-0.059047478 -0.34498898 0)
(-0.093701979 -0.44935322 0)
(-0.094550173 -0.47538794 0)
(-0.039229609 -0.2803479 0)
(-0.018592485 0.11087062 0)
(-0.04611493 0.20168863 0)
(-0.055414712 0.22774734 0)
(-0.044289523 0.22476846 0)
(-0.01979191 0.21034389 0)
(0.011816146 0.19203283 0)
(0.046403281 0.17259185 0)
(0.08111964 0.15253432 0)
(0.11378735 0.13131513 0)
(0.14251355 0.10783715 0)
(0.16541008 0.08070062 0)
(0.18042332 0.048269519 0)
(0.18507755 0.0086315975 0)
(0.17672923 -0.040634811 0)
(0.15238494 -0.10301368 0)
(0.10917585 -0.18377531 0)
(0.04698752 -0.28845237 0)
(-0.021615845 -0.41041465 0)
(-0.072335548 -0.49091031 0)
(-0.041165806 -0.35045807 0)
(-0.033352765 0.15564361 0)
(-0.068634729 0.22038901 0)
(-0.055294083 0.21720983 0)
(-0.016277905 0.19518667 0)
(0.03421326 0.17075943 0)
(0.088117581 0.1483347 0)
(0.14130343 0.12848078 0)
(0.19145281 0.1104902 0)
(0.2370007 0.093263108 0)
(0.27658381 0.075593857 0)
(0.3087098 0.056246906 0)
(0.33158185 0.033923442 0)
(0.34277403 0.0071471578 0)
(0.33949113 -0.025791202 0)
(0.31785791 -0.06763839 0)
(0.27305894 -0.12403141 0)
(0.20027623 -0.20580019 0)
(0.1020163 -0.32503383 0)
(-0.012451152 -0.45453348 0)
(-0.023772994 -0.40860672 0)
(-0.033072399 0.23910141 0)
(-0.042632272 0.21793878 0)
(0.042197844 0.16425037 0)
(0.12754106 0.12778665 0)
(0.20756333 0.10136627 0)
(0.28006978 0.081584995 0)
(0.34459093 0.066584907 0)
(0.40124718 0.054659738 0)
(0.45018393 0.044381528 0)
(0.49124807 0.034648169 0)
(0.52380803 0.024581661 0)
(0.54667192 0.013428883 0)
(0.55795758 0.00045364465 0)
(0.55549956 -0.015083106 0)
(0.53537246 -0.034922669 0)
(0.49233978 -0.062456244 0)
(0.41789956 -0.10693235 0)
(0.30405538 -0.1931705 0)
(0.12310851 -0.33691593 0)
(0.052364604 -0.39437624 0)
(0.24300926 0.15258459 0)
(0.30532319 0.11855653 0)
(0.45484247 0.076113611 0)
(0.56002298 0.050836155 0)
(0.63221421 0.035114827 0)
(0.6864883 0.02479795 0)
(0.72933676 0.017946786 0)
(0.7636632 0.013246856 0)
(0.79112842 0.0097592047 0)
(0.8125985 0.0068578216 0)
(0.82827084 0.0041273758 0)
(0.83782729 0.0012890258 0)
(0.84048548 -0.0018337077 0)
(0.83492504 -0.0053153334 0)
(0.81884459 -0.0098193288 0)
(0.78942589 -0.016226849 0)
(0.73784959 -0.026933998 0)
(0.65317433 -0.051287742 0)
(0.45610044 -0.11374839 0)
(0.31788997 -0.17206204 0)
)
;

boundaryField
{
    movingWall
    {
        type            fixedValue;
        value           uniform (1 0 0);
    }
    fixedWalls
    {
        type            fixedValue;
        value           uniform (0 0 0);
    }
    frontAndBack
    {
        type            empty;
    }
}


// ************************************************************************* //
