/*--------------------------------*- C++ -*----------------------------------*\
  =========                 |
  \\      /  F ield         | OpenFOAM: The Open Source CFD Toolbox
   \\    /   O peration     | Website:  https://openfoam.org
    \\  /    A nd           | Version:  9
     \\/     M anipulation  |
\*---------------------------------------------------------------------------*/
FoamFile
{
    format      ascii;
    class       volVectorField;
    location    "11";
    object      U_0;
}
// * * * * * * * * * * * * * * * * * * * * * * * * * * * * * * * * * * * * * //

dimensions      [0 1 -1 0 0 0 0];

internalField   nonuniform List<vector> 
400
(
(0.0002821662 -0.00027907243 0)
(0.00010719117 8.0723787e-05 0)
(-0.0013253696 0.00047665666 0)
(-0.003609525 0.00073300423 0)
(-0.0063976491 0.00086368387 0)
(-0.0093904544 0.00090299642 0)
(-0.012332078 0.00087056552 0)
(-0.014987262 0.00076767373 0)
(-0.017115371 0.00058564493 0)
(-0.018468536 0.00031883245 0)
(-0.018819287 -2.4027568e-05 0)
(-0.018010406 -0.00041530828 0)
(-0.016017747 -0.0007949141 0)
(-0.013004565 -0.0010872403 0)
(-0.0093410886 -0.0012155145 0)
(-0.0055694084 -0.0011251918 0)
(-0.0023041492 -0.00081092482 0)
(-9.1583512e-05 -0.00033853849 0)
(0.00075319201 0.00014972957 0)
(0.00040697957 0.00038695352 0)
(-8.6539008e-05 -0.00011995559 0)
(-0.0018621945 0.0017813909 0)
(-0.0062772533 0.0036097846 0)
(-0.01239115 0.0048388627 0)
(-0.019501161 0.0054709207 0)
(-0.026967866 0.0055920946 0)
(-0.034182462 0.0052593187 0)
(-0.040561169 0.0044824656 0)
(-0.045528897 0.0032520792 0)
(-0.048537848 0.0015858693 0)
(-0.049134511 -0.00042737242 0)
(-0.04704243 -0.0025984333 0)
(-0.042274139 -0.0046354003 0)
(-0.035225851 -0.0061846782 0)
(-0.026688076 -0.0069039093 0)
(-0.017778204 -0.0065649881 0)
(-0.0097584031 -0.0051633061 0)
(-0.0037475969 -0.0029951299 0)
(-0.00039542219 -0.00067103388 0)
(0.00028663921 0.00077661685 0)
(-0.00058518344 0.0014302153 0)
(-0.0042197427 0.0063476926 0)
(-0.011693062 0.010586305 0)
(-0.021348619 0.013412978 0)
(-0.032186 0.014819938 0)
(-0.043347821 0.014939304 0)
(-0.053992869 0.013866017 0)
(-0.063304503 0.011629538 0)
(-0.070489695 0.0082490549 0)
(-0.074812954 0.003824103 0)
(-0.075675411 -0.0013802733 0)
(-0.072724777 -0.0068815086 0)
(-0.065981643 -0.011995176 0)
(-0.055943904 -0.015911439 0)
(-0.043619575 -0.017854586 0)
(-0.030468906 -0.01730563 0)
(-0.018200542 -0.014239755 0)
(-0.0084017747 -0.0092902739 0)
(-0.0021512612 -0.0037635163 0)
(-4.0021654e-06 0.00030709589 0)
(-0.001046541 0.0042801344 0)
(-0.0064752544 0.013493797 0)
(-0.016897333 0.020750743 0)
(-0.029854128 0.025422473 0)
(-0.044044984 0.027612978 0)
(-0.058452849 0.027544211 0)
(-0.072089633 0.025362176 0)
(-0.083997649 0.021123998 0)
(-0.093247998 0.014892817 0)
(-0.098974364 0.0068759931 0)
(-0.10045526 -0.0024510714 0)
(-0.097225507 -0.012279496 0)
(-0.089212463 -0.021468212 0)
(-0.076872372 -0.02866594 0)
(-0.061273117 -0.032546334 0)
(-0.044098478 -0.032160828 0)
(-0.027474222 -0.027345039 0)
(-0.013544046 -0.019026582 0)
(-0.0040182227 -0.0092585424 0)
(-0.00026834971 -0.0011171724 0)
(-0.0014462456 0.0083190912 0)
(-0.0084955241 0.023050751 0)
(-0.021614366 0.033860966 0)
(-0.037569755 0.040538985 0)
(-0.054781804 0.043468599 0)
(-0.072118088 0.043038479 0)
(-0.088509214 0.039473278 0)
(-0.10292766 0.032863347 0)
(-0.11436796 0.023311089 0)
(-0.12186354 0.011117986 0)
(-0.1245578 -0.0030509092 0)
(-0.12180152 -0.018070807 0)
(-0.11330246 -0.032337016 0)
(-0.099314619 -0.043894406 0)
(-0.08080259 -0.050722628 0)
(-0.059566877 -0.051222301 0)
(-0.038163824 -0.044845791 0)
(-0.019459605 -0.032654119 0)
(-0.0060752802 -0.017454631 0)
(-0.00051022556 -0.0035253312 0)
(-0.0017772799 0.013397084 0)
(-0.010207224 0.034759729 0)
(-0.025654788 0.049627656 0)
(-0.044216128 0.058473952 0)
(-0.064077848 0.062131707 0)
(-0.084036982 0.061247572 0)
(-0.10300018 0.056161685 0)
(-0.11993092 0.046999009 0)
(-0.13379765 0.033875607 0)
(-0.14355764 0.017136332 0)
(-0.14820102 -0.0024317122 0)
(-0.14682673 -0.023439203 0)
(-0.13879996 -0.043870286 0)
(-0.12399717 -0.061121554 0)
(-0.10307952 -0.072307747 0)
(-0.077797709 -0.074863689 0)
(-0.051095608 -0.067457156 0)
(-0.026725106 -0.050960324 0)
(-0.0085859224 -0.028891712 0)
(-0.00078479137 -0.0070449851 0)
(-0.0020297792 0.019322309 0)
(-0.01154086 0.048251444 0)
(-0.028840899 0.067621594 0)
(-0.049502174 0.078804482 0)
(-0.071537802 0.083235316 0)
(-0.093720118 0.081911566 0)
(-0.11498581 0.07533025 0)
(-0.13434806 0.063649678 0)
(-0.15080489 0.046959793 0)
(-0.16327626 0.025572937 0)
(-0.17059324 0.00029020682 0)
(-0.17158353 -0.027370403 0)
(-0.16519078 -0.055062523 0)
(-0.15072966 -0.079547399 0)
(-0.12831618 -0.096926212 0)
(-0.099375986 -0.10329176 0)
(-0.067044116 -0.095943893 0)
(-0.036012417 -0.074980342 0)
(-0.011893731 -0.044417573 0)
(-0.0011668473 -0.011978813 0)
(-0.0021900751 0.025863972 0)
(-0.012425197 0.063067711 0)
(-0.030997406 0.087295156 0)
(-0.053119791 0.10097254 0)
(-0.076694014 0.10626535 0)
(-0.10051013 0.10461119 0)
(-0.12358558 0.096709882 0)
(-0.14504284 0.082754887 0)
(-0.16397481 0.062766633 0)
(-0.17933244 0.036935691 0)
(-0.18986203 0.0059401278 0)
(-0.19413794 -0.028760253 0)
(-0.1906505 -0.064635822 0)
(-0.1780489 -0.097928486 0)
(-0.15564355 -0.12367284 0)
(-0.12413868 -0.13626404 0)
(-0.086428811 -0.13089097 0)
(-0.047938713 -0.10590745 0)
(-0.016383908 -0.065212238 0)
(-0.0017478211 -0.018835002 0)
(-0.0022471814 0.032753694 0)
(-0.012807047 0.078672316 0)
(-0.031985411 0.10798549 0)
(-0.054793549 0.12426371 0)
(-0.079075241 0.13050506 0)
(-0.10367353 0.12867358 0)
(-0.127733 0.11972605 0)
(-0.15054694 0.10390493 0)
(-0.17138328 0.081128561 0)
(-0.18932718 0.051379734 0)
(-0.20316427 0.015070142 0)
(-0.21132853 -0.026583205 0)
(-0.21194081 -0.071119998 0)
(-0.2029762 -0.11452127 0)
(-0.18273301 -0.15088509 0)
(-0.15073543 -0.17271203 0)
(-0.10894926 -0.17229635 0)
(-0.062891872 -0.14483114 0)
(-0.022471448 -0.0927309 0)
(-0.0026506794 -0.02835292 0)
(-0.0022041894 0.039703906 0)
(-0.012689912 0.094481535 0)
(-0.031771502 0.12893144 0)
(-0.054377874 0.14779673 0)
(-0.078334705 0.15499265 0)
(-0.102568 0.15309724 0)
(-0.12639302 0.14339111 0)
(-0.14933555 0.12620076 0)
(-0.17092815 0.10133785 0)
(-0.19051865 0.068523989 0)
(-0.2070984 0.027788774 0)
(-0.21915452 -0.020093757 0)
(-0.22466602 -0.07303995 0)
(-0.22108385 -0.12716993 0)
(-0.20563206 -0.17603408 0)
(-0.1762632 -0.2103767 0)
(-0.13316304 -0.21902413 0)
(-0.080770666 -0.19226432 0)
(-0.030583905 -0.12853781 0)
(-0.0040593633 -0.041537728 0)
(-0.0020939262 0.046454056 0)
(-0.012186858 0.10993352 0)
(-0.030521149 0.14932613 0)
(-0.051985293 0.17054851 0)
(-0.074416599 0.17852169 0)
(-0.096861585 0.176533 0)
(-0.11885467 0.16626667 0)
(-0.14021489 0.1481916 0)
(-0.16082466 0.12204571 0)
(-0.18042254 0.087289613 0)
(-0.19839608 0.043522358 0)
(-0.21353198 -0.0090848501 0)
(-0.22399992 -0.069262601 0)
(-0.22704759 -0.13362996 0)
(-0.21902342 -0.19588108 0)
(-0.19616923 -0.24563805 0)
(-0.15610561 -0.26824762 0)
(-0.10060577 -0.24744781 0)
(-0.041090317 -0.17396089 0)
(-0.0062578671 -0.059702689 0)
(-0.0020022795 0.05285407 0)
(-0.011589266 0.12460454 0)
(-0.028706506 0.16840782 0)
(-0.048120482 0.1914151 0)
(-0.067719305 0.19968847 0)
(-0.086743932 0.19733271 0)
(-0.10501905 0.18651837 0)
(-0.12271913 0.16792646 0)
(-0.14014112 0.14128265 0)
(-0.15749863 0.10583271 0)
(-0.17473203 0.060749089 0)
(-0.19130556 0.0055232883 0)
(-0.20581059 -0.059532711 0)
(-0.21567777 -0.13214496 0)
(-0.21701828 -0.2070063 0)
(-0.20462903 -0.27375156 0)
(-0.17316405 -0.31513158 0)
(-0.12012343 -0.30753065 0)
(-0.054104321 -0.22947141 0)
(-0.0096614008 -0.084492253 0)
(-0.0021106872 0.059001712 0)
(-0.011464848 0.13837296 0)
(-0.027221472 0.18557367 0)
(-0.043785287 0.20928849 0)
(-0.059191572 0.21696732 0)
(-0.073034848 0.21365161 0)
(-0.085550883 0.20205891 0)
(-0.097342371 0.18313481 0)
(-0.10916452 0.15665815 0)
(-0.12175243 0.12173968 0)
(-0.13567063 0.077197992 0)
(-0.1511197 0.021900805 0)
(-0.16751982 -0.044753855 0)
(-0.1830954 -0.12210805 0)
(-0.19434295 -0.2066796 0)
(-0.195438 -0.28963298 0)
(-0.17840201 -0.35307398 0)
(-0.13543071 -0.36693043 0)
(-0.069070781 -0.29373672 0)
(-0.01478337 -0.11780232 0)
(-0.0027830985 0.065472268 0)
(-0.012813913 0.15162023 0)
(-0.027490056 0.20046931 0)
(-0.040491951 0.2230941 0)
(-0.050255587 0.22875975 0)
(-0.057040371 0.22354759 0)
(-0.061688483 0.2107144 0)
(-0.065318693 0.19146218 0)
(-0.069157034 0.1656517 0)
(-0.074431017 0.132344 0)
(-0.082289437 0.090145852 0)
(-0.093671647 0.037469841 0)
(-0.10899448 -0.027156084 0)
(-0.12769412 -0.10462597 0)
(-0.1474679 -0.19385659 0)
(-0.16312694 -0.28910752 0)
(-0.16530543 -0.37469655 0)
(-0.14100445 -0.41730677 0)
(-0.084078758 -0.36243622 0)
(-0.022005671 -0.1613863 0)
(-0.0047377095 0.073733387 0)
(-0.017311437 0.16543636 0)
(-0.031484003 0.21295128 0)
(-0.03999612 0.23168267 0)
(-0.042299279 0.23331874 0)
(-0.03985404 0.2249774 0)
(-0.034383174 0.21030219 0)
(-0.027617808 0.19062989 0)
(-0.021235586 0.16585064 0)
(-0.016865605 0.13501496 0)
(-0.016116007 0.096647281 0)
(-0.020540264 0.048937051 0)
(-0.031496029 -0.010127185 0)
(-0.049763175 -0.082624793 0)
(-0.074865468 -0.16985489 0)
(-0.10366139 -0.27022308 0)
(-0.12753695 -0.37340959 0)
(-0.12989963 -0.44838299 0)
(-0.094969593 -0.42720656 0)
(-0.030934177 -0.21595584 0)
(-0.0093178091 0.086903243 0)
(-0.027524779 0.18166577 0)
(-0.041195148 0.22272661 0)
(-0.043019589 0.23341617 0)
(-0.03486164 0.22842262 0)
(-0.020175803 0.21558827 0)
(-0.0018627805 0.19852787 0)
(0.017677089 0.17841641 0)
(0.036385139 0.15504521 0)
(0.052375938 0.12742405 0)
(0.06376806 0.09408622 0)
(0.068617915 0.053224128 0)
(0.06485222 0.0027023511 0)
(0.050539737 -0.060097447 0)
(0.024195427 -0.13815363 0)
(-0.014079893 -0.23397433 0)
(-0.059049066 -0.34498799 0)
(-0.093703012 -0.44935221 0)
(-0.094550606 -0.47538685 0)
(-0.039229682 -0.28034716 0)
(-0.01859255 0.11087062 0)
(-0.046115337 0.20168815 0)
(-0.055415711 0.22774635 0)
(-0.044291174 0.22476711 0)
(-0.019794182 0.21034243 0)
(0.011813346 0.19203149 0)
(0.046400088 0.1725908 0)
(0.081116204 0.15253367 0)
(0.11378383 0.13131492 0)
(0.14251009 0.10783737 0)
(0.1654068 0.080701209 0)
(0.1804203 0.048270371 0)
(0.18507485 0.0086325852 0)
(0.17672687 -0.040633821 0)
(0.15238292 -0.1030128 0)
(0.10917416 -0.1837746 0)
(0.046986152 -0.28845181 0)
(-0.021616799 -0.41041413 0)
(-0.072335993 -0.49090973 0)
(-0.041165905 -0.3504576 0)
(-0.033352768 0.15564376 0)
(-0.068634907 0.22038893 0)
(-0.055294659 0.21720939 0)
(-0.016278982 0.19518592 0)
(0.034211648 0.17075854 0)
(0.088115469 0.14833383 0)
(0.14130091 0.12848006 0)
(0.19145002 0.11048973 0)
(0.23699778 0.09326292 0)
(0.27658091 0.075593958 0)
(0.30870705 0.05624726 0)
(0.33157936 0.033923984 0)
(0.34277186 0.0071478072 0)
(0.33948931 -0.025790557 0)
(0.31785643 -0.067637831 0)
(0.27305776 -0.12403099 0)
(0.20027531 -0.20579994 0)
(0.10201563 -0.32503364 0)
(-0.012451496 -0.45453327 0)
(-0.023773083 -0.40860653 0)
(-0.033072353 0.23910156 0)
(-0.042632191 0.21793888 0)
(0.042197795 0.16425029 0)
(0.12754072 0.12778639 0)
(0.20756261 0.10136589 0)
(0.28006864 0.081584599 0)
(0.3445894 0.066584566 0)
(0.40124537 0.054659504 0)
(0.45018195 0.044381431 0)
(0.49124606 0.034648214 0)
(0.52380612 0.02458183 0)
(0.54667023 0.013429139 0)
(0.55795615 0.00045393682 0)
(0.55549843 -0.015082812 0)
(0.53537164 -0.034922419 0)
(0.49233921 -0.062456071 0)
(0.41789917 -0.10693227 0)
(0.30405511 -0.19317047 0)
(0.12310835 -0.33691592 0)
(0.052364552 -0.39437623 0)
(0.24300931 0.15258464 0)
(0.30532333 0.1185566 0)
(0.45484264 0.076113641 0)
(0.56002306 0.050836134 0)
(0.63221411 0.035114766 0)
(0.68648798 0.024797872 0)
(0.72933621 0.017946714 0)
(0.76366248 0.013246806 0)
(0.7911276 0.0097591878 0)
(0.81259768 0.0068578399 0)
(0.82827008 0.0041274239 0)
(0.83782666 0.001289092 0)
(0.84048503 -0.0018336507 0)
(0.83492477 -0.005315274 0)
(0.81884447 -0.009819277 0)
(0.78942588 -0.016226817 0)
(0.73784963 -0.026933989 0)
(0.65317437 -0.051287748 0)
(0.45610045 -0.11374841 0)
(0.31788997 -0.17206205 0)
)
;

boundaryField
{
    movingWall
    {
        type            fixedValue;
        value           uniform (1 0 0);
    }
    fixedWalls
    {
        type            fixedValue;
        value           uniform (0 0 0);
    }
    frontAndBack
    {
        type            empty;
    }
}


// ************************************************************************* //
