/*--------------------------------*- C++ -*----------------------------------*\
  =========                 |
  \\      /  F ield         | OpenFOAM: The Open Source CFD Toolbox
   \\    /   O peration     | Website:  https://openfoam.org
    \\  /    A nd           | Version:  9
     \\/     M anipulation  |
\*---------------------------------------------------------------------------*/
FoamFile
{
    format      ascii;
    class       surfaceScalarField;
    location    "0.007";
    object      phi;
}
// * * * * * * * * * * * * * * * * * * * * * * * * * * * * * * * * * * * * * //

dimensions      [1 0 -1 0 0 0 0];

internalField   nonuniform List<scalar> 
9999
(
1.47793e-12
2.16005e-12
2.04636e-12
2.10321e-12
2.33058e-12
1.93268e-12
1.93268e-12
1.93268e-12
2.16005e-12
2.16005e-12
2.84217e-12
3.29692e-12
3.29692e-12
4.03588e-12
4.54747e-12
4.83169e-12
4.37694e-12
3.80851e-12
2.78533e-12
2.38742e-12
1.76215e-12
1.25056e-12
1.08002e-12
9.09495e-13
2.84217e-13
5.68434e-13
-7.95808e-13
-1.13687e-12
-1.08002e-12
-2.04636e-12
-2.67164e-12
-3.0127e-12
-3.18323e-12
-2.95586e-12
-3.0127e-12
-2.84217e-12
-2.16005e-12
-1.47793e-12
-1.36424e-12
-1.53477e-12
-6.82121e-13
-6.82121e-13
-1.53477e-12
-2.44427e-12
-2.33058e-12
-1.87583e-12
-1.81899e-12
-1.42109e-12
-1.7053e-12
-2.10321e-12
-2.21689e-12
-2.44427e-12
-2.84217e-12
-3.63798e-12
-3.41061e-12
-3.24007e-12
-3.29692e-12
-2.72848e-12
-2.21689e-12
-2.72848e-12
-2.95586e-12
-2.89901e-12
-2.78533e-12
-3.18323e-12
-2.6148e-12
-2.78533e-12
-2.50111e-12
-2.72848e-12
-2.50111e-12
-2.6148e-12
-2.89901e-12
-3.12639e-12
-2.72848e-12
-2.55795e-12
-2.72848e-12
-3.06954e-12
-2.84217e-12
-2.84217e-12
-2.95586e-12
-3.12639e-12
-3.80851e-12
-3.97904e-12
-3.75167e-12
-4.09273e-12
-3.52429e-12
-3.29692e-12
-2.95586e-12
-3.24007e-12
-3.46745e-12
-3.29692e-12
-3.18323e-12
-3.06954e-12
-3.18323e-12
-2.33058e-12
-2.72848e-12
-2.95586e-12
-2.55795e-12
-2.44427e-12
-2.50111e-12
-2.78533e-12
-2.72848e-12
-2.44427e-12
-2.84217e-12
-3.52429e-12
-3.29692e-12
-2.95586e-12
-3.75167e-12
-3.46745e-12
-3.9222e-12
-4.03588e-12
-4.718e-12
-4.66116e-12
-4.83169e-12
-5.17275e-12
-5.05906e-12
-5.6275e-12
-5.6275e-12
-5.51381e-12
-5.85487e-12
-5.68434e-12
-5.51381e-12
-4.77485e-12
-5.40012e-12
-5.22959e-12
-5.22959e-12
-4.83169e-12
-5.17275e-12
-5.22959e-12
-5.00222e-12
-3.69482e-12
-3.41061e-12
-2.72848e-12
-1.81899e-12
-1.19371e-12
-6.25278e-13
5.68434e-14
-1.13687e-13
0
-2.27374e-13
-1.3074e-12
-9.66338e-13
-1.76215e-12
-2.84217e-12
-3.46745e-12
-4.20641e-12
-5.05906e-12
-5.91172e-12
-7.10543e-12
-7.95808e-12
-8.29914e-12
-8.46967e-12
-8.46967e-12
-8.81073e-12
-9.0381e-12
-9.32232e-12
-9.0381e-12
-8.29914e-12
-8.46967e-12
-8.29914e-12
-7.84439e-12
-7.56017e-12
-7.50333e-12
-6.87805e-12
-6.99174e-12
-7.38964e-12
-7.04858e-12
-6.99174e-12
-6.70752e-12
-6.59384e-12
-7.16227e-12
-6.87805e-12
-7.44649e-12
-7.61702e-12
-6.87805e-12
-7.04858e-12
-7.21911e-12
-6.82121e-12
-6.59384e-12
-6.48015e-12
-5.96856e-12
-5.34328e-12
-5.28644e-12
-5.00222e-12
-3.97904e-12
-3.58114e-12
-2.04636e-12
-9.09495e-13
-1.13687e-13
2.27374e-13
1.47793e-12
2.78533e-12
3.52429e-12
4.66116e-12
5.79803e-12
6.65068e-12
7.67386e-12
8.2423e-12
8.18545e-12
8.92442e-12
8.86757e-12
8.75389e-12
8.92442e-12
8.35598e-12
7.27596e-12
6.99174e-12
6.36646e-12
6.99174e-12
6.59384e-12
6.42331e-12
5.6275e-12
6.13909e-12
6.76437e-12
6.82121e-12
6.99174e-12
7.38964e-12
8.2423e-12
8.46967e-12
8.52651e-12
8.12861e-12
8.07177e-12
8.35598e-12
7.84439e-12
7.56017e-12
6.9349e-12
5.91172e-12
5.22959e-12
4.77485e-12
4.88853e-12
4.26326e-12
3.58114e-12
2.50111e-12
1.76215e-12
9.66338e-13
6.82121e-13
1.7053e-13
0
-3.41061e-13
-9.09495e-13
-1.53477e-12
-1.81899e-12
-1.64846e-12
-2.38742e-12
-2.78533e-12
-2.50111e-12
-2.27374e-12
-2.78533e-12
-3.12639e-12
-2.38742e-12
-1.98952e-12
-2.6148e-12
-2.50111e-12
-1.98952e-12
-1.81899e-12
-1.25056e-12
-9.66338e-13
-4.54747e-13
3.41061e-13
7.95808e-13
1.08002e-12
2.27374e-12
2.6148e-12
3.18323e-12
3.18323e-12
4.14957e-12
4.03588e-12
3.97904e-12
5.28644e-12
5.6275e-12
5.00222e-12
4.49063e-12
3.46745e-12
3.18323e-12
2.84217e-12
2.33058e-12
1.93268e-12
1.25056e-12
1.36424e-12
3.97904e-13
4.54747e-13
0
-3.97904e-13
-1.02318e-12
-1.53477e-12
-2.38742e-12
-2.50111e-12
-3.75167e-12
-4.14957e-12
-5.11591e-12
-5.17275e-12
-5.68434e-12
-5.79803e-12
-6.36646e-12
-6.76437e-12
-7.04858e-12
-7.56017e-12
-7.38964e-12
-7.44649e-12
-7.67386e-12
-7.04858e-12
-6.70752e-12
-6.99174e-12
-7.16227e-12
-7.10543e-12
-7.04858e-12
-6.65068e-12
-6.59384e-12
-6.99174e-12
-7.27596e-12
-8.01492e-12
-8.46967e-12
-8.35598e-12
-8.41283e-12
-9.32232e-12
-9.26548e-12
-9.32232e-12
-9.26548e-12
-8.69704e-12
-8.52651e-12
-8.58336e-12
-9.0381e-12
-8.86757e-12
-8.2423e-12
-7.95808e-12
-7.61702e-12
-7.27596e-12
-6.82121e-12
-5.74119e-12
-4.718e-12
-4.26326e-12
-3.75167e-12
-2.84217e-12
-1.98952e-12
-1.87583e-12
-1.93268e-12
-2.33058e-12
-1.76215e-12
-1.59162e-12
-4.54747e-13
2.27374e-13
1.08002e-12
1.76215e-12
2.10321e-12
2.27374e-12
2.78533e-12
3.46745e-12
3.29692e-12
3.58114e-12
3.46745e-12
3.35376e-12
3.41061e-12
2.78533e-12
3.18323e-12
4.09273e-12
5.00222e-12
5.45697e-12
6.13909e-12
7.7307e-12
8.6402e-12
9.43601e-12
1.0175e-11
1.03455e-11
1.05729e-11
1.10276e-11
1.08571e-11
1.14255e-11
1.17666e-11
1.22213e-11
1.33014e-11
1.36424e-11
1.43245e-11
1.47793e-11
1.50067e-11
1.5973e-11
1.56319e-11
1.54614e-11
1.53477e-11
1.53477e-11
1.54046e-11
1.54614e-11
1.50067e-11
1.53477e-11
1.48361e-11
1.34719e-11
1.3415e-11
1.31877e-11
1.15961e-11
1.10276e-11
9.60654e-12
8.29914e-12
7.78755e-12
6.48015e-12
5.96856e-12
5.91172e-12
4.83169e-12
3.69482e-12
2.89901e-12
2.50111e-12
2.10321e-12
1.64846e-12
8.52651e-13
1.13687e-13
-2.84217e-13
-1.25056e-12
-1.98952e-12
-2.38742e-12
-2.44427e-12
-3.06954e-12
-3.9222e-12
-5.17275e-12
-6.42331e-12
-7.3328e-12
-7.67386e-12
-8.2423e-12
-8.46967e-12
-9.60654e-12
-1.06866e-11
-1.0516e-11
-1.1255e-11
-1.11982e-11
-1.15392e-11
-1.08002e-11
-1.10845e-11
-1.09708e-11
-1.10276e-11
-1.18234e-11
-1.13687e-11
-1.15392e-11
-1.21645e-11
-1.1994e-11
-1.21076e-11
-1.33014e-11
-1.27898e-11
-1.29603e-11
-1.31877e-11
-1.31877e-11
-1.33014e-11
-1.27898e-11
-1.28466e-11
-1.29035e-11
-1.22213e-11
-1.22213e-11
-1.18234e-11
-1.1994e-11
-1.1255e-11
-1.13118e-11
-1.09708e-11
-1.0175e-11
-9.54969e-12
-9.43601e-12
-8.46967e-12
-7.38964e-12
-6.87805e-12
-5.68434e-12
-5.51381e-12
-5.68434e-12
-4.66116e-12
-4.66116e-12
-4.3201e-12
-2.95586e-12
-2.04636e-12
-8.52651e-13
-1.13687e-13
6.82121e-13
2.04636e-12
2.38742e-12
2.33058e-12
2.10321e-12
2.16005e-12
1.64846e-12
1.59162e-12
2.04636e-12
2.04636e-12
1.87583e-12
1.93268e-12
1.42109e-12
8.52651e-13
7.95808e-13
8.52651e-13
3.41061e-13
4.54747e-13
2.27374e-13
1.13687e-13
-5.68434e-14
-5.68434e-13
-3.41061e-13
-1.02318e-12
-1.7053e-12
-1.7053e-12
-3.29692e-12
-3.29692e-12
-3.80851e-12
-4.66116e-12
-5.51381e-12
-6.08225e-12
-7.56017e-12
-8.35598e-12
-8.41283e-12
-8.12861e-12
-8.29914e-12
-8.58336e-12
-8.69704e-12
-9.9476e-12
-9.83391e-12
-1.01181e-11
-9.9476e-12
-9.9476e-12
-9.54969e-12
-1.00044e-11
-1.00613e-11
-8.98126e-12
-9.60654e-12
-8.98126e-12
-8.2423e-12
-7.95808e-12
-7.67386e-12
-7.04858e-12
-6.76437e-12
-6.08225e-12
-5.85487e-12
-5.68434e-12
-4.88853e-12
-4.37694e-12
-3.52429e-12
-3.58114e-12
-3.41061e-12
-2.78533e-12
-2.6148e-12
-3.06954e-12
-2.6148e-12
-2.16005e-12
-1.76215e-12
-1.42109e-12
-4.54747e-13
5.68434e-13
1.64846e-12
2.55795e-12
3.06954e-12
3.12639e-12
3.06954e-12
2.84217e-12
3.29692e-12
3.06954e-12
3.0127e-12
3.80851e-12
3.9222e-12
4.3201e-12
3.97904e-12
3.75167e-12
4.3201e-12
3.86535e-12
3.86535e-12
4.54747e-12
4.3201e-12
3.80851e-12
3.86535e-12
4.03588e-12
4.60432e-12
4.88853e-12
5.05906e-12
5.05906e-12
5.05906e-12
4.03588e-12
3.52429e-12
3.69482e-12
4.26326e-12
3.80851e-12
4.66116e-12
4.49063e-12
4.26326e-12
4.43379e-12
4.54747e-12
5.57066e-12
6.25278e-12
6.19593e-12
6.59384e-12
7.61702e-12
8.29914e-12
8.12861e-12
7.7307e-12
7.16227e-12
6.53699e-12
5.85487e-12
5.68434e-12
4.37694e-12
3.24007e-12
2.10321e-12
1.08002e-12
-3.97904e-13
-1.76215e-12
-3.18323e-12
-4.3201e-12
-5.34328e-12
-6.59384e-12
-7.04858e-12
-6.9349e-12
-7.38964e-12
-7.3328e-12
-7.44649e-12
-7.10543e-12
-6.87805e-12
-6.9349e-12
-6.87805e-12
-7.10543e-12
-6.65068e-12
-6.48015e-12
-6.0254e-12
-5.40012e-12
-5.00222e-12
-5.28644e-12
-5.17275e-12
-5.00222e-12
-4.94538e-12
-5.34328e-12
-5.91172e-12
-6.30962e-12
-6.25278e-12
-6.53699e-12
-6.82121e-12
-6.65068e-12
-6.82121e-12
-7.3328e-12
-8.18545e-12
-8.92442e-12
-9.60654e-12
-9.26548e-12
-9.09495e-12
-9.0381e-12
-9.32232e-12
-9.66338e-12
-1.03455e-11
-1.09708e-11
-1.08002e-11
-1.15392e-11
-1.11982e-11
-1.16529e-11
-1.18803e-11
-1.3074e-11
-1.37561e-11
-1.34719e-11
-1.36424e-11
-1.42109e-11
-1.45519e-11
-1.40972e-11
-1.42677e-11
-1.39835e-11
-1.38698e-11
-1.31877e-11
-1.29035e-11
-1.33014e-11
-1.31308e-11
-1.26192e-11
-1.29035e-11
-1.25056e-11
-1.2335e-11
-1.17097e-11
-1.17666e-11
-1.23919e-11
-1.1994e-11
-1.18803e-11
-1.17097e-11
-1.10845e-11
-1.08002e-11
-1.04592e-11
-9.77707e-12
-1.01181e-11
-9.77707e-12
-9.60654e-12
-8.81073e-12
-8.46967e-12
-8.69704e-12
-8.35598e-12
-8.29914e-12
-8.35598e-12
-7.95808e-12
-8.75389e-12
-7.84439e-12
-7.10543e-12
-6.08225e-12
-6.30962e-12
-5.79803e-12
-4.54747e-12
-3.69482e-12
-2.95586e-12
-1.36424e-12
-5.68434e-14
1.19371e-12
2.78533e-12
4.43379e-12
5.00222e-12
6.25278e-12
7.84439e-12
8.35598e-12
9.9476e-12
1.09708e-11
1.1255e-11
1.24487e-11
1.18803e-11
1.22213e-11
1.26192e-11
1.28466e-11
1.33014e-11
1.31308e-11
1.28466e-11
1.27898e-11
1.22213e-11
1.16529e-11
1.08002e-11
1.00044e-11
9.54969e-12
8.92442e-12
8.41283e-12
7.04858e-12
6.48015e-12
5.51381e-12
4.83169e-12
4.3201e-12
3.69482e-12
3.52429e-12
2.55795e-12
2.27374e-12
1.47793e-12
8.52651e-13
-1.13687e-13
-3.97904e-13
-8.52651e-13
-8.52651e-13
-8.52651e-13
-3.41061e-13
-3.41061e-13
-7.38964e-13
-5.68434e-13
-8.52651e-13
-1.19371e-12
-1.08002e-12
-1.64846e-12
-1.87583e-12
-1.87583e-12
-2.33058e-12
-3.24007e-12
-3.9222e-12
-5.17275e-12
-5.22959e-12
-5.74119e-12
-6.48015e-12
-7.3328e-12
-7.95808e-12
-8.98126e-12
-1.0175e-11
-1.13687e-11
-1.18234e-11
-1.39835e-11
-1.49498e-11
-1.58593e-11
-1.76783e-11
-1.87015e-11
-1.93836e-11
-1.94973e-11
-1.9952e-11
-2.02931e-11
-2.01226e-11
-2.03499e-11
-2.05205e-11
-2.09752e-11
-2.09752e-11
-2.12594e-11
-2.16005e-11
-2.09752e-11
-2.0691e-11
-2.05205e-11
-2.04068e-11
-1.9611e-11
-1.90994e-11
-1.8531e-11
-1.8531e-11
-1.79625e-11
-1.75646e-11
-1.6712e-11
-1.64846e-11
-1.65983e-11
-1.62572e-11
-1.53477e-11
-1.47793e-11
-1.47793e-11
-1.44382e-11
-1.27329e-11
-1.16529e-11
-1.13118e-11
-1.0175e-11
-9.43601e-12
-9.43601e-12
-8.69704e-12
-8.46967e-12
-8.41283e-12
-7.3328e-12
-6.48015e-12
-5.6275e-12
-4.718e-12
-4.03588e-12
-3.29692e-12
-2.72848e-12
-1.93268e-12
-2.21689e-12
-2.16005e-12
-2.6148e-12
-2.72848e-12
-3.18323e-12
-4.03588e-12
-4.03588e-12
-3.9222e-12
-3.46745e-12
-3.41061e-12
-3.35376e-12
-2.89901e-12
-3.41061e-12
-3.75167e-12
-4.14957e-12
-4.09273e-12
-4.60432e-12
-5.00222e-12
-5.74119e-12
-5.74119e-12
-6.0254e-12
-6.36646e-12
-6.65068e-12
-6.99174e-12
-7.7307e-12
-8.07177e-12
-7.7307e-12
-8.29914e-12
-9.09495e-12
-8.86757e-12
-8.75389e-12
-8.81073e-12
-9.26548e-12
-9.66338e-12
-9.54969e-12
-8.69704e-12
-9.83391e-12
-9.89075e-12
-1.00613e-11
-1.07434e-11
-1.11982e-11
-1.16529e-11
-1.11413e-11
-1.11413e-11
-1.25056e-11
-1.31877e-11
-1.47224e-11
-1.56888e-11
-1.71099e-11
-1.75646e-11
-1.84741e-11
-1.97247e-11
-2.01794e-11
-2.10321e-11
-2.21121e-11
-2.29647e-11
-2.34763e-11
-2.39311e-11
-2.40448e-11
-2.467e-11
-2.467e-11
-2.467e-11
-2.48974e-11
-2.48406e-11
-2.4329e-11
-2.467e-11
-2.52385e-11
-2.47837e-11
-2.45564e-11
-2.41016e-11
-2.27942e-11
-2.251e-11
-2.20552e-11
-2.23395e-11
-2.18279e-11
-2.22258e-11
-2.26237e-11
-2.21121e-11
-2.17142e-11
-2.12026e-11
-2.05773e-11
-1.9611e-11
-1.84173e-11
-1.80762e-11
-1.68257e-11
-1.64277e-11
-1.55183e-11
-1.47793e-11
-1.39835e-11
-1.31308e-11
-1.24487e-11
-1.09708e-11
-1.02318e-11
-9.89075e-12
-8.46967e-12
-8.35598e-12
-9.15179e-12
-8.75389e-12
-8.35598e-12
-7.67386e-12
-7.10543e-12
-8.01492e-12
-8.81073e-12
-9.49285e-12
-1.00613e-11
-1.07434e-11
-1.02887e-11
-1.04023e-11
-1.14255e-11
-1.2335e-11
-1.30171e-11
-1.39266e-11
-1.44951e-11
-1.56888e-11
-1.63141e-11
-1.63709e-11
-1.71099e-11
-1.80762e-11
-1.84741e-11
-1.86446e-11
-1.96678e-11
-2.03499e-11
-2.12026e-11
-2.30784e-11
-2.3249e-11
-2.38174e-11
-2.48406e-11
-2.57501e-11
-2.70006e-11
-2.84786e-11
-3.04681e-11
-3.15481e-11
-3.18892e-11
-3.32534e-11
-3.40492e-11
-3.3765e-11
-3.41629e-11
-3.52429e-11
-3.6664e-11
-3.67777e-11
-3.78009e-11
-3.79714e-11
-3.83693e-11
-3.83693e-11
-3.80282e-11
-3.80282e-11
-3.80282e-11
-3.78009e-11
-3.78577e-11
-3.83693e-11
-3.81419e-11
-3.84262e-11
-3.91651e-11
-3.91083e-11
-3.90514e-11
-3.87672e-11
-3.78009e-11
-3.76303e-11
-3.75735e-11
-3.70619e-11
-3.6664e-11
-3.61524e-11
-3.56408e-11
-3.51292e-11
-3.36513e-11
-3.27418e-11
-3.21165e-11
-3.1207e-11
-3.09797e-11
-3.00702e-11
-2.96154e-11
-2.88196e-11
-2.78533e-11
-2.69438e-11
-2.75122e-11
-2.80806e-11
-2.79101e-11
-2.76827e-11
-2.79101e-11
-2.91607e-11
-2.95017e-11
-3.00702e-11
-3.14344e-11
-3.21734e-11
-3.3026e-11
-3.39355e-11
-3.45608e-11
-3.41629e-11
-3.39924e-11
-3.46176e-11
-3.46176e-11
-3.50724e-11
-3.47882e-11
-3.46176e-11
-3.49019e-11
-3.4504e-11
-3.43903e-11
-3.3765e-11
-3.43903e-11
-3.3765e-11
-3.34239e-11
-3.30829e-11
-3.27987e-11
-3.31397e-11
-3.35945e-11
-3.31966e-11
-3.34808e-11
-3.3026e-11
-3.29123e-11
-3.25144e-11
-3.20028e-11
-3.24576e-11
-3.29692e-11
-3.32534e-11
-3.37081e-11
-3.31397e-11
-3.29123e-11
-3.30829e-11
-3.22302e-11
-3.21165e-11
-3.1946e-11
-3.17186e-11
-3.12639e-11
-3.12639e-11
-3.14344e-11
-2.96154e-11
-2.81375e-11
-2.75691e-11
-2.70575e-11
-2.62617e-11
-2.58638e-11
-2.52385e-11
-2.48406e-11
-2.41585e-11
-2.44427e-11
-2.35332e-11
-2.36469e-11
-2.42721e-11
-2.34763e-11
-2.25668e-11
-2.26805e-11
-2.27942e-11
-2.27374e-11
-2.27942e-11
-2.26805e-11
-2.251e-11
-2.18847e-11
-2.16573e-11
-2.13163e-11
-2.04068e-11
-1.96678e-11
-1.94404e-11
-1.92699e-11
-1.93268e-11
-1.87583e-11
-1.80762e-11
-1.68825e-11
-1.62572e-11
-1.57456e-11
-1.52909e-11
-1.4893e-11
-1.45519e-11
-1.40972e-11
-1.3074e-11
-1.29035e-11
-1.21076e-11
-1.15961e-11
-1.14824e-11
-1.1994e-11
-1.23919e-11
-1.23919e-11
-1.27898e-11
-1.26192e-11
-1.34719e-11
-1.36424e-11
-1.4154e-11
-1.45519e-11
-1.50067e-11
-1.43814e-11
-1.45519e-11
-1.47793e-11
-1.51772e-11
-1.56888e-11
-1.51203e-11
-1.54046e-11
-1.51203e-11
-1.54046e-11
-1.56319e-11
-1.56319e-11
-1.62572e-11
-1.60867e-11
-1.64846e-11
-1.67688e-11
-1.77351e-11
-1.76215e-11
-1.80194e-11
-1.83604e-11
-1.80762e-11
-1.79625e-11
-1.84173e-11
-1.93836e-11
-1.97815e-11
-2.08615e-11
-2.23963e-11
-2.27374e-11
-2.31353e-11
-2.38742e-11
-2.44427e-11
-2.52953e-11
-2.56932e-11
-2.60911e-11
-2.60343e-11
-2.71712e-11
-2.79101e-11
-2.82512e-11
-2.84217e-11
-3.05818e-11
-3.17755e-11
-3.34239e-11
-3.38218e-11
-3.44471e-11
-3.49587e-11
-3.59819e-11
-3.68345e-11
-3.72324e-11
-3.70619e-11
-3.71188e-11
-3.62093e-11
-3.54703e-11
-3.51292e-11
-3.49587e-11
-3.43334e-11
-3.37081e-11
-3.37081e-11
-3.31966e-11
-3.25713e-11
-3.21734e-11
-3.12639e-11
-3.06954e-11
-3.04112e-11
-3.04112e-11
-2.97291e-11
-2.91038e-11
-2.85922e-11
-2.76259e-11
-2.68301e-11
-2.55795e-11
-2.42721e-11
-2.28511e-11
-2.17142e-11
-2.08047e-11
-1.98384e-11
-1.90425e-11
-1.78488e-11
-1.64846e-11
-1.54046e-11
-1.47793e-11
-1.42109e-11
-1.35287e-11
-1.31308e-11
-1.3074e-11
-1.29035e-11
-1.27898e-11
-1.2335e-11
-1.31308e-11
-1.33014e-11
-1.39266e-11
-1.34719e-11
-1.39266e-11
-1.44951e-11
-1.42109e-11
-1.52909e-11
-1.55183e-11
-1.58025e-11
-1.64846e-11
-1.73941e-11
-1.75646e-11
-1.87583e-11
-1.92699e-11
-1.98384e-11
-2.03499e-11
-2.09752e-11
-2.19416e-11
-2.13731e-11
-2.16573e-11
-2.25668e-11
-2.42153e-11
-2.5409e-11
-2.68869e-11
-2.81943e-11
-2.95586e-11
-3.02407e-11
-3.10934e-11
-3.22302e-11
-3.42197e-11
-3.49019e-11
-3.58682e-11
-3.63229e-11
-3.74598e-11
-3.86535e-11
-3.93925e-11
-3.87672e-11
-3.96199e-11
-4.04725e-11
-4.02451e-11
-3.97335e-11
-3.99609e-11
-4.05862e-11
-4.06999e-11
-4.10978e-11
-4.09841e-11
-4.07567e-11
-4.10978e-11
-4.12683e-11
-4.11546e-11
-4.09841e-11
-4.0302e-11
-4.10409e-11
-4.07567e-11
-4.09273e-11
-4.08704e-11
-4.10978e-11
-3.98472e-11
-3.87672e-11
-3.83125e-11
-3.82556e-11
-3.79714e-11
-3.72893e-11
-3.6664e-11
-3.61524e-11
-3.59819e-11
-3.55271e-11
-3.56408e-11
-3.54703e-11
-3.52998e-11
-3.47313e-11
-3.49019e-11
-3.46745e-11
-3.45608e-11
-3.4845e-11
-3.51861e-11
-3.52998e-11
-3.49019e-11
-3.47882e-11
-3.54134e-11
-3.50724e-11
-3.47313e-11
-3.43334e-11
-3.40492e-11
-3.41629e-11
-3.39355e-11
-3.39355e-11
-3.47882e-11
-3.52429e-11
-3.53566e-11
-3.56408e-11
-3.60387e-11
-3.56408e-11
-3.58114e-11
-3.54134e-11
-3.51861e-11
-3.4504e-11
-3.47313e-11
-3.3765e-11
-3.31397e-11
-3.28555e-11
-3.28555e-11
-3.25713e-11
-3.27418e-11
-3.27418e-11
-3.29692e-11
-3.30829e-11
-3.27987e-11
-3.27987e-11
-3.23439e-11
-3.16618e-11
-3.10365e-11
-3.06954e-11
-2.9388e-11
-2.83649e-11
-2.73417e-11
-2.74554e-11
-2.58069e-11
-2.51248e-11
-2.48974e-11
-2.467e-11
-2.47269e-11
-2.4329e-11
-2.42153e-11
-2.4329e-11
-2.38742e-11
-2.28511e-11
-2.19984e-11
-2.15437e-11
-2.09752e-11
-2.10321e-11
-2.06342e-11
-1.98384e-11
-1.88152e-11
-1.8531e-11
-1.77351e-11
-1.69962e-11
-1.57456e-11
-1.43245e-11
-1.3813e-11
-1.27898e-11
-1.20508e-11
-1.09139e-11
-9.77707e-12
-8.2423e-12
-7.7307e-12
-7.7307e-12
-7.27596e-12
-7.38964e-12
-7.38964e-12
-7.7307e-12
-7.95808e-12
-7.7307e-12
-7.7307e-12
-7.7307e-12
-8.29914e-12
-8.81073e-12
-8.46967e-12
-9.26548e-12
-1.02887e-11
-1.11413e-11
-1.1255e-11
-1.17666e-11
-1.20508e-11
-1.25624e-11
-1.24487e-11
-1.17666e-11
-1.1994e-11
-1.21645e-11
-1.20508e-11
-1.19371e-11
-1.21076e-11
-1.31308e-11
-1.39835e-11
-1.47224e-11
-1.48361e-11
-1.49498e-11
-1.52909e-11
-1.60867e-11
-1.7053e-11
-1.74509e-11
-1.82467e-11
-1.82467e-11
-1.9611e-11
-1.9611e-11
-2.02363e-11
-2.09184e-11
-2.09184e-11
-2.10889e-11
-2.17142e-11
-2.20552e-11
-2.23963e-11
-2.25668e-11
-2.20552e-11
-2.23963e-11
-2.143e-11
-2.12026e-11
-2.11458e-11
-2.05773e-11
-1.98952e-11
-1.97815e-11
-2.01226e-11
-1.93268e-11
-1.88152e-11
-1.84741e-11
-1.76215e-11
-1.71099e-11
-1.60298e-11
-1.5234e-11
-1.54046e-11
-1.45519e-11
-1.39266e-11
-1.3813e-11
-1.3074e-11
-1.24487e-11
-1.17666e-11
-1.08002e-11
-9.83391e-12
-8.86757e-12
-7.84439e-12
-7.04858e-12
-6.19593e-12
-5.79803e-12
-4.77485e-12
-4.718e-12
-4.54747e-12
-3.86535e-12
-3.80851e-12
-4.09273e-12
-4.20641e-12
-4.66116e-12
-5.68434e-12
-6.36646e-12
-6.87805e-12
-7.27596e-12
-8.29914e-12
-8.58336e-12
-9.54969e-12
-1.08571e-11
-1.14255e-11
-1.1994e-11
-1.24487e-11
-1.31877e-11
-1.36424e-11
-1.3074e-11
-1.35856e-11
-1.37561e-11
-1.46656e-11
-1.50635e-11
-1.55183e-11
-1.57456e-11
-1.62004e-11
-1.6712e-11
-1.65414e-11
-1.73372e-11
-1.81899e-11
-1.92699e-11
-2.02931e-11
-2.16573e-11
-2.22258e-11
-2.34195e-11
-2.39311e-11
-2.50679e-11
-2.58638e-11
-2.66027e-11
-2.73417e-11
-2.74554e-11
-2.82512e-11
-2.79101e-11
-2.80806e-11
-2.88765e-11
-2.94449e-11
-2.92175e-11
-2.94449e-11
-2.84786e-11
-2.86491e-11
-2.87059e-11
-2.92175e-11
-2.88765e-11
-2.92744e-11
-2.88765e-11
-2.88765e-11
-2.81375e-11
-2.67733e-11
-2.58069e-11
-2.57501e-11
-2.51816e-11
-2.49543e-11
-2.42153e-11
-2.40448e-11
-2.35332e-11
-2.30216e-11
-2.28511e-11
-2.22258e-11
-2.19416e-11
-2.08047e-11
-1.96678e-11
-1.87583e-11
-1.82467e-11
-1.68257e-11
-1.64277e-11
-1.46656e-11
-1.43814e-11
-1.32445e-11
-1.26192e-11
-1.1994e-11
-1.20508e-11
-1.15961e-11
-1.10845e-11
-1.06866e-11
-1.04023e-11
-1.08571e-11
-1.04023e-11
-9.72022e-12
-9.43601e-12
-8.6402e-12
-8.69704e-12
-8.41283e-12
-7.7307e-12
-7.56017e-12
-7.61702e-12
-7.27596e-12
-6.82121e-12
-6.53699e-12
-6.59384e-12
-6.36646e-12
-6.30962e-12
-6.13909e-12
-6.42331e-12
-7.27596e-12
-6.99174e-12
-7.10543e-12
-6.99174e-12
-6.53699e-12
-7.38964e-12
-7.27596e-12
-7.84439e-12
-8.29914e-12
-8.6402e-12
-8.12861e-12
-8.12861e-12
-8.2423e-12
-8.75389e-12
-8.86757e-12
-8.75389e-12
-8.81073e-12
-8.86757e-12
-9.66338e-12
-1.04592e-11
-9.9476e-12
-1.00613e-11
-1.08002e-11
-1.17097e-11
-1.15392e-11
-1.14824e-11
-1.17097e-11
-1.33014e-11
-1.3813e-11
-1.51203e-11
-1.51772e-11
-1.54614e-11
-1.58025e-11
-1.63709e-11
-1.68257e-11
-1.74509e-11
-1.83036e-11
-1.94973e-11
-2.02363e-11
-2.10889e-11
-2.12594e-11
-2.13731e-11
-2.143e-11
-2.15437e-11
-2.04636e-11
-1.98952e-11
-1.93268e-11
-1.82467e-11
-1.78488e-11
-1.76215e-11
-1.65414e-11
-1.61435e-11
-1.57456e-11
-1.51772e-11
-1.4893e-11
-1.46656e-11
-1.48361e-11
-1.36993e-11
-1.32445e-11
-1.30171e-11
-1.1994e-11
-1.13118e-11
-1.09708e-11
-1.05729e-11
-1.0175e-11
-9.54969e-12
-9.09495e-12
-9.72022e-12
-9.83391e-12
-1.0175e-11
-1.06866e-11
-1.06297e-11
-1.00044e-11
-1.03455e-11
-1.06297e-11
-1.16529e-11
-1.22213e-11
-1.29603e-11
-1.35856e-11
-1.43245e-11
-1.52909e-11
-1.60867e-11
-1.7053e-11
-1.68257e-11
-1.63709e-11
-1.72236e-11
-1.80194e-11
-1.8872e-11
-1.93268e-11
-2.01794e-11
-2.143e-11
-2.13731e-11
-2.20552e-11
-2.24532e-11
-2.33058e-11
-2.41585e-11
-2.46132e-11
-2.52953e-11
-2.54659e-11
-2.63753e-11
-2.69438e-11
-2.71143e-11
-2.69438e-11
-2.60343e-11
-2.6148e-11
-2.60343e-11
-2.53522e-11
-2.50679e-11
-2.48406e-11
-2.44427e-11
-2.44995e-11
-2.36469e-11
-2.30784e-11
-2.29079e-11
-2.27374e-11
-2.23395e-11
-2.16573e-11
-2.10321e-11
-2.13731e-11
-2.09184e-11
-2.16573e-11
-2.12026e-11
-2.14868e-11
-2.13731e-11
-2.13731e-11
-2.08047e-11
-2.01226e-11
-1.9952e-11
-1.97247e-11
-1.90425e-11
-1.8531e-11
-1.7792e-11
-1.76783e-11
-1.83036e-11
-1.87015e-11
-1.87583e-11
-1.87015e-11
-1.8531e-11
-1.83604e-11
-1.79625e-11
-1.74509e-11
-1.75078e-11
-1.73372e-11
-1.63709e-11
-1.60298e-11
-1.52909e-11
-1.39835e-11
-1.27329e-11
-1.20508e-11
-1.07434e-11
-9.72022e-12
-9.15179e-12
-8.52651e-12
-7.56017e-12
-6.70752e-12
-5.17275e-12
-3.80851e-12
-1.87583e-12
-7.95808e-13
-5.11591e-13
3.97904e-13
1.19371e-12
1.59162e-12
1.19371e-12
1.19371e-12
1.3074e-12
1.47793e-12
1.13687e-12
9.09495e-13
8.52651e-13
4.54747e-13
2.27374e-13
0
-5.68434e-13
-8.52651e-13
-1.53477e-12
-1.93268e-12
-2.95586e-12
-3.41061e-12
-4.03588e-12
-4.77485e-12
-5.85487e-12
-6.13909e-12
-6.70752e-12
-7.61702e-12
-8.86757e-12
-9.20863e-12
-1.00044e-11
-1.14255e-11
-1.25056e-11
-1.30171e-11
-1.42109e-11
-1.54614e-11
-1.68257e-11
-1.71667e-11
-1.69393e-11
-1.72804e-11
-1.76783e-11
-1.84741e-11
-1.90425e-11
-1.97247e-11
-2.05773e-11
-2.15437e-11
-2.1771e-11
-2.29079e-11
-2.37037e-11
-2.48974e-11
-2.6489e-11
-2.77396e-11
-2.94449e-11
-3.09797e-11
-3.16618e-11
-3.29123e-11
-3.34239e-11
-3.44471e-11
-3.56977e-11
-3.71188e-11
-3.75167e-11
-3.81988e-11
-3.87672e-11
-3.94493e-11
-3.93356e-11
-3.9222e-11
-3.93925e-11
-3.94493e-11
-3.97335e-11
-4.01883e-11
-4.01883e-11
-3.93356e-11
-3.89946e-11
-3.88241e-11
-3.81988e-11
-3.72324e-11
-3.63229e-11
-3.62093e-11
-3.62093e-11
-3.6664e-11
-3.68345e-11
-3.75735e-11
-3.71188e-11
-3.67777e-11
-3.64935e-11
-3.56977e-11
-3.47882e-11
-3.46176e-11
-3.33671e-11
-3.27987e-11
-3.14344e-11
-3.0127e-11
-2.92175e-11
-2.80806e-11
-2.65459e-11
-2.5409e-11
-2.38174e-11
-2.30216e-11
-2.25668e-11
-2.11458e-11
-2.03499e-11
-1.93836e-11
-1.83604e-11
-1.69393e-11
-1.52909e-11
-1.4154e-11
-1.27898e-11
-1.10845e-11
-9.77707e-12
-8.75389e-12
-8.12861e-12
-7.61702e-12
-6.99174e-12
-6.48015e-12
-6.13909e-12
-6.59384e-12
-6.30962e-12
-6.82121e-12
-7.16227e-12
-7.38964e-12
-7.67386e-12
-8.35598e-12
-8.58336e-12
-9.15179e-12
-9.54969e-12
-1.04023e-11
-1.10845e-11
-1.1994e-11
-1.28466e-11
-1.32445e-11
-1.43245e-11
-1.46088e-11
-1.5234e-11
-1.60298e-11
-1.63141e-11
-1.76215e-11
-1.86446e-11
-1.89857e-11
-1.97247e-11
-1.98952e-11
-1.9952e-11
-2.04068e-11
-1.98384e-11
-1.97815e-11
-1.96678e-11
-1.91562e-11
-1.8872e-11
-1.81331e-11
-1.84173e-11
-1.76783e-11
-1.77351e-11
-1.64846e-11
-1.5973e-11
-1.5973e-11
-1.54614e-11
-1.45519e-11
-1.43245e-11
-1.37561e-11
-1.30171e-11
-1.21645e-11
-1.17666e-11
-1.18803e-11
-1.13687e-11
-1.15961e-11
-1.14824e-11
-1.10845e-11
-1.15392e-11
-1.10276e-11
-1.0175e-11
-1.02887e-11
-1.01181e-11
-1.03455e-11
-1.01181e-11
-9.54969e-12
-9.20863e-12
-8.58336e-12
-7.3328e-12
-6.9349e-12
-7.04858e-12
-6.13909e-12
-5.34328e-12
-4.88853e-12
-4.3201e-12
-3.63798e-12
-3.12639e-12
-2.50111e-12
-1.59162e-12
-3.97904e-13
4.54747e-13
9.09495e-13
8.52651e-13
1.64846e-12
2.38742e-12
1.7053e-12
1.3074e-12
3.41061e-13
5.68434e-13
3.41061e-13
2.27374e-13
-2.84217e-13
-6.25278e-13
-7.95808e-13
-9.66338e-13
-1.19371e-12
-1.76215e-12
-2.38742e-12
-2.38742e-12
-2.89901e-12
-3.18323e-12
-3.18323e-12
-3.86535e-12
-4.66116e-12
-4.37694e-12
-5.00222e-12
-5.34328e-12
-6.65068e-12
-7.10543e-12
-7.3328e-12
-8.2423e-12
-9.09495e-12
-9.9476e-12
-1.03455e-11
-1.11982e-11
-1.17666e-11
-1.19371e-11
-1.27329e-11
-1.31308e-11
-1.33582e-11
-1.32445e-11
-1.29035e-11
-1.36424e-11
-1.48361e-11
-1.55183e-11
-1.61435e-11
-1.68825e-11
-1.72804e-11
-1.80762e-11
-1.89289e-11
-2.00089e-11
-2.12026e-11
-2.14868e-11
-2.34195e-11
-2.45564e-11
-2.48406e-11
-2.48974e-11
-2.57501e-11
-2.66027e-11
-2.70006e-11
-2.79101e-11
-2.88765e-11
-2.92175e-11
-2.94449e-11
-3.02975e-11
-3.18892e-11
-3.2685e-11
-3.38218e-11
-3.46745e-11
-3.61524e-11
-3.66072e-11
-3.63798e-11
-3.73461e-11
-3.75167e-11
-3.71756e-11
-3.66072e-11
-3.61524e-11
-3.65503e-11
-3.58682e-11
-3.55271e-11
-3.58114e-11
-3.55271e-11
-3.46745e-11
-3.43903e-11
-3.2685e-11
-3.31397e-11
-3.22871e-11
-3.21165e-11
-3.13776e-11
-3.06954e-11
-3.0127e-11
-2.96154e-11
-2.89333e-11
-2.83649e-11
-2.75122e-11
-2.66027e-11
-2.54659e-11
-2.48974e-11
-2.42721e-11
-2.29079e-11
-2.23395e-11
-2.16573e-11
-2.08047e-11
-1.96678e-11
-1.97815e-11
-2.02931e-11
-2.05205e-11
-2.09752e-11
-2.21121e-11
-2.28511e-11
-2.33626e-11
-2.33058e-11
-2.30216e-11
-2.33626e-11
-2.42153e-11
-2.4329e-11
-2.48406e-11
-2.58638e-11
-2.6148e-11
-2.67164e-11
-2.75691e-11
-2.81375e-11
-2.85354e-11
-2.9388e-11
-3.08091e-11
-3.12639e-11
-3.29123e-11
-3.43334e-11
-3.56977e-11
-3.70051e-11
-3.76303e-11
-3.83125e-11
-4.05862e-11
-4.13252e-11
-4.27463e-11
-4.43379e-11
-4.50768e-11
-4.56453e-11
-4.66684e-11
-4.61569e-11
-4.58158e-11
-4.56453e-11
-4.54179e-11
-4.54747e-11
-4.50768e-11
-4.49063e-11
-4.48495e-11
-4.49063e-11
-4.502e-11
-4.51337e-11
-4.51337e-11
-4.41673e-11
-4.37126e-11
-4.33715e-11
-4.22347e-11
-4.10409e-11
-4.05294e-11
-3.97335e-11
-4.02451e-11
-3.98472e-11
-3.9563e-11
-3.91083e-11
-3.86535e-11
-3.85398e-11
-3.76303e-11
-3.67777e-11
-3.54134e-11
-3.54134e-11
-3.49019e-11
-3.39355e-11
-3.31966e-11
-3.29692e-11
-3.17186e-11
-3.14913e-11
-3.10365e-11
-2.96723e-11
-2.88765e-11
-2.77396e-11
-2.7228e-11
-2.67164e-11
-2.59206e-11
-2.5409e-11
-2.44427e-11
-2.359e-11
-2.22826e-11
-2.12026e-11
-2.08615e-11
-2.03499e-11
-1.84741e-11
-1.81899e-11
-1.81331e-11
-1.87583e-11
-1.92131e-11
-1.97247e-11
-1.97815e-11
-1.9952e-11
-2.07478e-11
-2.10889e-11
-2.19984e-11
-2.24532e-11
-2.33058e-11
-2.36469e-11
-2.39879e-11
-2.4329e-11
-2.5409e-11
-2.58069e-11
-2.66027e-11
-2.71143e-11
-2.77964e-11
-2.88765e-11
-3.0127e-11
-3.04681e-11
-3.10934e-11
-3.18323e-11
-3.20597e-11
-3.1946e-11
-3.17186e-11
-3.26281e-11
-3.27987e-11
-3.33671e-11
-3.34808e-11
-3.26281e-11
-3.22871e-11
-3.1946e-11
-3.14344e-11
-3.11502e-11
-3.13776e-11
-3.09797e-11
-3.10365e-11
-3.0866e-11
-3.02975e-11
-3.00702e-11
-2.96723e-11
-2.98996e-11
-2.95586e-11
-2.88196e-11
-2.81943e-11
-2.74554e-11
-2.69438e-11
-2.77396e-11
-2.69438e-11
-2.60911e-11
-2.56932e-11
-2.6148e-11
-2.5409e-11
-2.44427e-11
-2.38174e-11
-2.33058e-11
-2.23395e-11
-2.08615e-11
-2.01794e-11
-1.88152e-11
-1.79625e-11
-1.74509e-11
-1.66551e-11
-1.58025e-11
-1.52909e-11
-1.37561e-11
-1.21076e-11
-1.11413e-11
-1.04023e-11
-9.89075e-12
-9.66338e-12
-8.98126e-12
-8.86757e-12
-8.98126e-12
-8.69704e-12
-8.29914e-12
-8.2423e-12
-9.0381e-12
-9.60654e-12
-1.00613e-11
-1.09708e-11
-1.21076e-11
-1.31308e-11
-1.40403e-11
-1.44951e-11
-1.52909e-11
-1.64277e-11
-1.79057e-11
-1.92131e-11
-1.98384e-11
-1.98384e-11
-2.02931e-11
-2.02931e-11
-2.03499e-11
-2.01794e-11
-1.97247e-11
-1.89857e-11
-1.75646e-11
-1.64846e-11
-1.44951e-11
-1.24487e-11
-9.49285e-12
-5.68434e-12
-9.09495e-13
4.60432e-12
1.14255e-11
1.98952e-11
2.96154e-11
4.19504e-11
5.59908e-11
7.35554e-11
9.43601e-11
1.19996e-10
1.51033e-10
1.88948e-10
2.34081e-10
2.89845e-10
3.57204e-10
4.38547e-10
5.37398e-10
6.56598e-10
8.00412e-10
9.74694e-10
1.18479e-09
1.43751e-09
1.74299e-09
2.11008e-09
2.55238e-09
3.08484e-09
3.7241e-09
4.49285e-09
5.4153e-09
6.52102e-09
7.84678e-09
9.43379e-09
1.1333e-08
1.36033e-08
1.63157e-08
1.95523e-08
2.34132e-08
2.80154e-08
3.3497e-08
4.00202e-08
4.77767e-08
5.69917e-08
6.79329e-08
8.09137e-08
9.62999e-08
1.14523e-07
1.36092e-07
1.61597e-07
1.91736e-07
2.27322e-07
2.69304e-07
3.18795e-07
3.77092e-07
4.45704e-07
5.26395e-07
6.21213e-07
7.32543e-07
8.63156e-07
1.01627e-06
1.19561e-06
1.40551e-06
1.65098e-06
1.9378e-06
2.27267e-06
2.66333e-06
3.1187e-06
3.64906e-06
4.26627e-06
4.98395e-06
5.81778e-06
6.78575e-06
7.90853e-06
9.20981e-06
1.07167e-05
1.24603e-05
1.4476e-05
1.68045e-05
1.94919e-05
2.25912e-05
2.61623e-05
3.02737e-05
3.50032e-05
4.04391e-05
4.66816e-05
5.38445e-05
6.20565e-05
7.14632e-05
8.22295e-05
9.45411e-05
0.000108608
0.000124667
0.000142984
0.00016386
0.00018763
0.000214673
0.000245413
0.000280325
0.000319942
0.000364859
0.000415739
0.000473325
0.000538444
0.000612017
0.000695068
0.000788736
0.000894285
0.00101312
0.00114679
0.00129702
0.0014657
0.00165494
0.00186705
0.00210459
0.00237036
0.00266746
0.00299926
0.00336951
0.00378227
0.00424202
0.00475362
0.00532243
0.00595425
0.00665542
0.00743284
0.00829402
0.0092471
0.0103009
0.011465
0.0127498
0.0141664
0.0157269
0.0174443
0.0193326
0.021407
0.0236836
0.0261796
0.0289138
0.031906
0.0351775
0.0387508
0.0426502
0.0469014
0.0515316
0.0565698
0.0620467
0.0679948
0.0744485
0.0814439
0.0890191
0.0972145
0.106072
0.115636
0.125953
0.137071
0.149041
0.161916
0.17575
0.190601
0.206527
0.223591
0.241856
0.261386
0.282251
0.304518
0.32826
0.353549
0.380461
0.409072
0.439461
0.471705
0.505887
0.542088
0.580391
0.620879
0.663637
0.70875
0.756303
0.806381
0.859069
0.914453
0.972617
1.03365
1.09762
1.16463
1.23474
1.30804
1.38462
1.46453
1.54787
1.63469
1.72508
1.81909
1.91679
2.01825
2.12351
2.23265
2.3457
2.46273