/*--------------------------------*- C++ -*----------------------------------*\
  =========                 |
  \\      /  F ield         | OpenFOAM: The Open Source CFD Toolbox
   \\    /   O peration     | Website:  https://openfoam.org
    \\  /    A nd           | Version:  9
     \\/     M anipulation  |
\*---------------------------------------------------------------------------*/
FoamFile
{
    format      ascii;
    class       volScalarField;
    location    "0.007";
    object      rho;
}
// * * * * * * * * * * * * * * * * * * * * * * * * * * * * * * * * * * * * * //

dimensions      [1 -3 0 0 0 0 0];

internalField   nonuniform List<scalar> 
10000
(
0.997574
0.997574
0.997574
0.997574
0.997574
0.997574
0.997574
0.997574
0.997574
0.997574
0.997574
0.997574
0.997574
0.997574
0.997574
0.997574
0.997574
0.997574
0.997574
0.997574
0.997574
0.997574
0.997574
0.997574
0.997574
0.997574
0.997574
0.997574
0.997574
0.997574
0.997574
0.997574
0.997574
0.997574
0.997574
0.997574
0.997574
0.997574
0.997574
0.997574
0.997574
0.997574
0.997574
0.997574
0.997574
0.997574
0.997574
0.997574
0.997574
0.997574
0.997574
0.997574
0.997574
0.997574
0.997574
0.997574
0.997574
0.997574
0.997574
0.997574
0.997574
0.997574
0.997574
0.997574
0.997574
0.997574
0.997574
0.997574
0.997574
0.997574
0.997574
0.997574
0.997574
0.997574
0.997574
0.997574
0.997574
0.997574
0.997574
0.997574
0.997574
0.997574
0.997574
0.997574
0.997574
0.997574
0.997574
0.997574
0.997574
0.997574
0.997574
0.997574
0.997574
0.997574
0.997574
0.997574
0.997574
0.997574
0.997574
0.997574
0.997574
0.997574
0.997574
0.997574
0.997574
0.997574
0.997574
0.997574
0.997574
0.997574
0.997574
0.997574
0.997574
0.997574
0.997574
0.997574
0.997574
0.997574
0.997574
0.997574
0.997574
0.997574
0.997574
0.997574
0.997574
0.997574
0.997574
0.997574
0.997574
0.997574
0.997574
0.997574
0.997574
0.997574
0.997574
0.997574
0.997574
0.997574
0.997574
0.997574
0.997574
0.997574
0.997574
0.997574
0.997574
0.997574
0.997574
0.997574
0.997574
0.997574
0.997574
0.997574
0.997574
0.997574
0.997574
0.997574
0.997574
0.997574
0.997574
0.997574
0.997574
0.997574
0.997574
0.997574
0.997574
0.997574
0.997574
0.997574
0.997574
0.997574
0.997574
0.997574
0.997574
0.997574
0.997574
0.997574
0.997574
0.997574
0.997574
0.997574
0.997574
0.997574
0.997574
0.997574
0.997574
0.997574
0.997574
0.997574
0.997574
0.997574
0.997574
0.997574
0.997574
0.997574
0.997574
0.997574
0.997574
0.997574
0.997574
0.997574
0.997574
0.997574
0.997574
0.997574
0.997574
0.997574
0.997574
0.997574
0.997574
0.997574
0.997574
0.997574
0.997574
0.997574
0.997574
0.997574
0.997574
0.997574
0.997574
0.997574
0.997574
0.997574
0.997574
0.997574
0.997574
0.997574
0.997574
0.997574
0.997574
0.997574
0.997574
0.997574
0.997574
0.997574
0.997574
0.997574
0.997574
0.997574
0.997574
0.997574
0.997574
0.997574
0.997574
0.997574
0.997574
0.997574
0.997574
0.997574
0.997574
0.997574
0.997574
0.997574
0.997574
0.997574
0.997574
0.997574
0.997574
0.997574
0.997574
0.997574
0.997574
0.997574
0.997574
0.997574
0.997574
0.997574
0.997574
0.997574
0.997574
0.997574
0.997574
0.997574
0.997574
0.997574
0.997574
0.997574
0.997574
0.997574
0.997574
0.997574
0.997574
0.997574
0.997574
0.997574
0.997574
0.997574
0.997574
0.997574
0.997574
0.997574
0.997574
0.997574
0.997574
0.997574
0.997574
0.997574
0.997574
0.997574
0.997574
0.997574
0.997574
0.997574
0.997574
0.997574
0.997574
0.997574
0.997574
0.997574
0.997574
0.997574
0.997574
0.997574
0.997574
0.997574
0.997574
0.997574
0.997574
0.997574
0.997574
0.997574
0.997574
0.997574
0.997574
0.997574
0.997574
0.997574
0.997574
0.997574
0.997574
0.997574
0.997574
0.997574
0.997574
0.997574
0.997574
0.997574
0.997574
0.997574
0.997574
0.997574
0.997574
0.997574
0.997574
0.997574
0.997574
0.997574
0.997574
0.997574
0.997574
0.997574
0.997574
0.997574
0.997574
0.997574
0.997574
0.997574
0.997574
0.997574
0.997574
0.997574
0.997574
0.997574
0.997574
0.997574
0.997574
0.997574
0.997574
0.997574
0.997574
0.997574
0.997574
0.997574
0.997574
0.997574
0.997574
0.997574
0.997574
0.997574
0.997574
0.997574
0.997574
0.997574
0.997574
0.997574
0.997574
0.997574
0.997574
0.997574
0.997574
0.997574
0.997574
0.997574
0.997574
0.997574
0.997574
0.997574
0.997574
0.997574
0.997574
0.997574
0.997574
0.997574
0.997574
0.997574
0.997574
0.997574
0.997574
0.997574
0.997574
0.997574
0.997574
0.997574
0.997574
0.997574
0.997574
0.997574
0.997574
0.997574
0.997574
0.997574
0.997574
0.997574
0.997574
0.997574
0.997574
0.997574
0.997574
0.997574
0.997574
0.997574
0.997574
0.997574
0.997574
0.997574
0.997574
0.997574
0.997574
0.997574
0.997574
0.997574
0.997574
0.997574
0.997574
0.997574
0.997574
0.997574
0.997574
0.997574
0.997574
0.997574
0.997574
0.997574
0.997574
0.997574
0.997574
0.997574
0.997574
0.997574
0.997574
0.997574
0.997574
0.997574
0.997574
0.997574
0.997574
0.997574
0.997574
0.997574
0.997574
0.997574
0.997574
0.997574
0.997574
0.997574
0.997574
0.997574
0.997574
0.997574
0.997574
0.997574
0.997574
0.997574
0.997574
0.997574
0.997574
0.997574
0.997574
0.997574
0.997574
0.997574
0.997574
0.997574
0.997574
0.997574
0.997574
0.997574
0.997574
0.997574
0.997574
0.997574
0.997574
0.997574
0.997574
0.997574
0.997574
0.997574
0.997574
0.997574
0.997574
0.997574
0.997574
0.997574
0.997574
0.997574
0.997574
0.997574
0.997574
0.997574
0.997574
0.997574
0.997574
0.997574
0.997574
0.997574
0.997574
0.997574
0.997574
0.997574
0.997574
0.997574
0.997574
0.997574
0.997574
0.997574
0.997574
0.997574
0.997574
0.997574
0.997574
0.997574
0.997574
0.997574
0.997574
0.997574
0.997574
0.997574
0.997574
0.997574
0.997574
0.997574
0.997574
0.997574
0.997574
0.997574
0.997574
0.997574
0.997574
0.997574
0.997574
0.997574
0.997574
0.997574
0.997574
0.997574
0.997574
0.997574
0.997574
0.997574
0.997574
0.997574
0.997574
0.997574
0.997574
0.997574
0.997574
0.997574
0.997574
0.997574
0.997574
0.997574
0.997574
0.997574
0.997574
0.997574
0.997574
0.997574
0.997574
0.997574
0.997574
0.997574
0.997574
0.997574
0.997574
0.997574
0.997574
0.997574
0.997574
0.997574
0.997574
0.997574
0.997574
0.997574
0.997574
0.997574
0.997574
0.997574
0.997574
0.997574
0.997574
0.997574
0.997574
0.997574
0.997574
0.997574
0.997574
0.997574
0.997574
0.997574
0.997574
0.997574
0.997574
0.997574
0.997574
0.997574
0.997574
0.997574
0.997574
0.997574
0.997574
0.997574
0.997574
0.997574
0.997574
0.997574
0.997574
0.997574
0.997574
0.997574
0.997574
0.997574
0.997574
0.997574
0.997574
0.997574
0.997574
0.997574
0.997574
0.997574
0.997574
0.997574
0.997574
0.997574
0.997574
0.997574
0.997574
0.997574
0.997574
0.997574
0.997574
0.997574
0.997574
0.997574
0.997574
0.997574
0.997574
0.997574
0.997574
0.997574
0.997574
0.997574
0.997574
0.997574
0.997574
0.997574
0.997574
0.997574
0.997574
0.997574
0.997574
0.997574
0.997574
0.997574
0.997574
0.997574
0.997574
0.997574
0.997574
0.997574
0.997574
0.997574
0.997574
0.997574
0.997574
0.997574
0.997574
0.997574
0.997574
0.997574
0.997574
0.997574
0.997574
0.997574
0.997574
0.997574
0.997574
0.997574
0.997574
0.997574
0.997574
0.997574
0.997574
0.997574
0.997574
0.997574
0.997574
0.997574
0.997574
0.997574
0.997574
0.997574
0.997574
0.997574
0.997574
0.997574
0.997574
0.997574
0.997574
0.997574
0.997574
0.997574
0.997574
0.997574
0.997574
0.997574
0.997574
0.997574
0.997574
0.997574
0.997574
0.997574
0.997574
0.997574
0.997574
0.997574
0.997574
0.997574
0.997574
0.997574
0.997574
0.997574
0.997574
0.997574
0.997574
0.997574
0.997574
0.997574
0.997574
0.997574
0.997574
0.997574
0.997574
0.997574
0.997574
0.997574
0.997574
0.997574
0.997574
0.997574
0.997574
0.997574
0.997574
0.997574
0.997574
0.997574
0.997574
0.997574
0.997574
0.997574
0.997574
0.997574
0.997574
0.997574
0.997574
0.997574
0.997574
0.997574
0.997574
0.997574
0.997574
0.997574
0.997574
0.997574
0.997574
0.997574
0.997574
0.997574
0.997574
0.997574
0.997574
0.997574
0.997574
0.997574
0.997574
0.997574
0.997574
0.997574
0.997574
0.997574
0.997574
0.997574
0.997574
0.997574
0.997574
0.997574
0.997574
0.997574
0.997574
0.997574
0.997574
0.997574
0.997574
0.997574
0.997574
0.997574
0.997574
0.997574
0.997574
0.997574
0.997574
0.997574
0.997574
0.997574
0.997574
0.997574
0.997574
0.997574
0.997574
0.997574
0.997574
0.997574
0.997574
0.997574
0.997574
0.997574
0.997574
0.997574
0.997574
0.997574
0.997574
0.997574
0.997574
0.997574
0.997574
0.997574
0.997574
0.997574
0.997574
0.997574
0.997574
0.997574
0.997574
0.997574
0.997574
0.997574
0.997574
0.997574
0.997574
0.997574
0.997574
0.997574
0.997574
0.997574
0.997574
0.997574
0.997574
0.997574
0.997574
0.997574
0.997574
0.997574
0.997574
0.997574
0.997574
0.997574
0.997574
0.997574
0.997574
0.997574
0.997574
0.997574
0.997574
0.997574
0.997574
0.997574
0.997574
0.997574
0.997574
0.997574
0.997574
0.997574
0.997574
0.997574
0.997574
0.997574
0.997574
0.997574
0.997574
0.997574
0.997574
0.997574
0.997574
0.997574
0.997574
0.997574
0.997574
0.997574
0.997574
0.997574
0.997574
0.997574
0.997574
0.997574
0.997574
0.997574
0.997574
0.997574
0.997574
0.997574
0.997574
0.997574
0.997574
0.997574
0.997574
0.997574
0.997574
0.997574
0.997574
0.997574
0.997574
0.997574
0.997574
0.997574
0.997574
0.997574
0.997574
0.997574
0.997574
0.997574
0.997574
0.997574
0.997574
0.997574
0.997574
0.997574
0.997574
0.997574
0.997574
0.997574
0.997574
0.997574
0.997574
0.997574
0.997574
0.997574
0.997574
0.997574
0.997574
0.997574
0.997574
0.997574
0.997574
0.997574
0.997574
0.997574
0.997574
0.997574
0.997574
0.997574
0.997574
0.997574
0.997574
0.997574
0.997574
0.997574
0.997574
0.997574
0.997574
0.997574
0.997574
0.997574
0.997574
0.997574
0.997574
0.997574
0.997574
0.997574
0.997574
0.997574
0.997574
0.997574
0.997574
0.997574
0.997574
0.997574
0.997574
0.997574
0.997574
0.997574
0.997574
0.997574
0.997574
0.997574
0.997574
0.997574
0.997574
0.997574
0.997574
0.997574
0.997574
0.997574
0.997574
0.997574
0.997574
0.997574
0.997574
0.997574
0.997574
0.997574
0.997574
0.997574
0.997574
0.997574
0.997574
0.997574
0.997574
0.997574
0.997574
0.997574
0.997574
0.997574
0.997574
0.997574
0.997574
0.997574
0.997574
0.997574
0.997574
0.997574
0.997574
0.997574
0.997574
0.997574
0.997574
0.997574
0.997574
0.997574
0.997574
0.997574
0.997574
0.997574
0.997574
0.997574
0.997574
0.997574
0.997574
0.997574
0.997574
0.997574
0.997574
0.997574
0.997574
0.997574
0.997574
0.997574
0.997574
0.997574
0.997574
0.997574
0.997574
0.997574
0.997574
0.997574
0.997574
0.997574
0.997574
0.997574
0.997574
0.997574
0.997574
0.997574
0.997574
0.997574
0.997574
0.997574
0.997574
0.997574
0.997574
0.997574
0.997574
0.997574
0.997574
0.997574
0.997574
0.997574
0.997574
0.997574
0.997574
0.997574
0.997574
0.997574
0.997574
0.997574
0.997574
0.997574
0.997574
0.997574
0.997574
0.997574
0.997574
0.997574
0.997574
0.997574
0.997574
0.997574
0.997574
0.997574
0.997574
0.997574
0.997574
0.997574
0.997574
0.997574
0.997574
0.997574
0.997574
0.997574
0.997574
0.997574
0.997574
0.997574
0.997574
0.997574
0.997574
0.997574
0.997574
0.997574
0.997574
0.997574
0.997574
0.997574
0.997574
0.997574
0.997574
0.997574
0.997574
0.997574
0.997574
0.997574
0.997574
0.997574
0.997574
0.997574
0.997574
0.997574
0.997574
0.997574
0.997574
0.997574
0.997574
0.997574
0.997574
0.997574
0.997574
0.997574
0.997574
0.997574
0.997574
0.997574
0.997574
0.997574
0.997574
0.997574
0.997574
0.997574
0.997574
0.997574
0.997574
0.997574
0.997574
0.997574
0.997574
0.997574
0.997574
0.997574
0.997574
0.997574
0.997574
0.997574
0.997574
0.997574
0.997574
0.997574
0.997574
0.997574
0.997574
0.997574
0.997574
0.997574
0.997574
0.997574
0.997574
0.997574
0.997574
0.997574
0.997574
0.997574
0.997574
0.997574
0.997574
0.997574
0.997574
0.997574
0.997574
0.997574
0.997574
0.997574
0.997574
0.997574
0.997574
0.997574
0.997574
0.997574
0.997574
0.997574
0.997574
0.997574
0.997574
0.997574
0.997574
0.997574
0.997574
0.997574
0.997574
0.997574
0.997574
0.997574
0.997574
0.997574
0.997574
0.997574
0.997574
0.997574
0.997574
0.997574
0.997574
0.997574
0.997574
0.997574
0.997574
0.997574
0.997574
0.997574
0.997574
0.997574
0.997574
0.997574
0.997574
0.997574
0.997574
0.997574
0.997574
0.997574
0.997574
0.997574
0.997574
0.997574
0.997574
0.997574
0.997574
0.997574
0.997574
0.997574
0.997574
0.997574
0.997574
0.997574
0.997574
0.997574
0.997574
0.997574
0.997574
0.997574
0.997574
0.997574
0.997574
0.997574
0.997574
0.997574
0.997574
0.997574
0.997574
0.997574
0.997574
0.997574
0.997574
0.997574
0.997574
0.997574
0.997574
0.997574
0.997574
0.997574
0.997574
0.997574
0.997574
0.997574
0.997574
0.997574
0.997574
0.997574
0.997574
0.997574
0.997574
0.997574
0.997574
0.997574
0.997574
0.997574
0.997574
0.997574
0.997574
0.997574
0.997574
0.997574
0.997574
0.997574
0.997574
0.997574
0.997574
0.997574
0.997574
0.997574
0.997574
0.997574
0.997574
0.997574
0.997574
0.997574
0.997574
0.997574
0.997574
0.997574
0.997574
0.997574
0.997574
0.997574
0.997574
0.997574
0.997574
0.997574
0.997574
0.997574
0.997574
0.997574
0.997574
0.997574
0.997574
0.997574
0.997574
0.997574
0.997574
0.997574
0.997574
0.997574
0.997574
0.997574
0.997574
0.997574
0.997574
0.997574
0.997574
0.997574
0.997574
0.997574
0.997574
0.997574
0.997574
0.997574
0.997574
0.997574
0.997574
0.997574
0.997574
0.997574
0.997574
0.997574
0.997574
0.997574
0.997574
0.997574
0.997574
0.997574
0.997574
0.997574
0.997574
0.997574
0.997574
0.997574
0.997574
0.997574
0.997574
0.997574
0.997574
0.997574
0.997574
0.997574
0.997574
0.997574
0.997574
0.997574
0.997574
0.997574
0.997574
0.997574
0.997574
0.997574
0.997574
0.997574
0.997574
0.997574
0.997574
0.997574
0.997574
0.997574
0.997574
0.997574
0.997574
0.997574
0.997574
0.997574
0.997574
0.997574
0.997574
0.997574
0.997574
0.997574
0.997574
0.997574
0.997574
0.997574
0.997574
0.997574
0.997574
0.997574
0.997574
0.997574
0.997574
0.997574
0.997574
0.997574
0.997574
0.997574
0.997574
0.997574
0.997574
0.997574
0.997574
0.997574
0.997574
0.997574
0.997574
0.997574
0.997574
0.997574
0.997574
0.997574
0.997574
0.997574
0.997574
0.997574
0.997574
0.997574
0.997574
0.997574
0.997574
0.997574
0.997574
0.997574
0.997574
0.997574
0.997574
0.997574
0.997574
0.997574
0.997574
0.997574
0.997574
0.997574
0.997574
0.997574
0.997574
0.997574
0.997574
0.997574
0.997574
0.997574
0.997574
0.997574
0.997574
0.997574
0.997574
0.997574
0.997574
0.997574
0.997574
0.997574
0.997574
0.997574
0.997574
0.997574
0.997574
0.997574
0.997574
0.997574
0.997574
0.997574
0.997574
0.997574
0.997574
0.997574
0.997574
0.997574
0.997574
0.997574
0.997574
0.997574
0.997574
0.997574
0.997574
0.997574
0.997574
0.997574
0.997574
0.997574
0.997574
0.997574
0.997574
0.997574
0.997574
0.997574
0.997574
0.997574
0.997574
0.997574
0.997574
0.997574
0.997574
0.997574
0.997574
0.997574
0.997574
0.997574
0.997574
0.997574
0.997574
0.997574
0.997574
0.997574
0.997574
0.997574
0.997574
0.997574
0.997574
0.997574
0.997574
0.997574
0.997574
0.997574
0.997574
0.997574
0.997574
0.997574
0.997574
0.997574
0.997574
0.997574
0.997574
0.997574
0.997574
0.997574
0.997574
0.997574
0.997574
0.997574
0.997574
0.997574
0.997574
0.997574
0.997574
0.997574
0.997574
0.997574
0.997574
0.997574
0.997574
0.997574
0.997574
0.997574
0.997574
0.997574
0.997574
0.997574
0.997574
0.997574
0.997574
0.997574
0.997574
0.997574
0.997574
0.997574
0.997574
0.997574
0.997574
0.997574
0.997574
0.997574
0.997574
0.997574
0.997574
0.997574
0.997574
0.997574
0.997574
0.997574
0.997574
0.997574
0.997574
0.997574
0.997574
0.997574
0.997574
0.997574
0.997574
0.997574
0.997574
0.997574
0.997574
0.997574
0.997574
0.997574
0.997574
0.997574
0.997574
0.997574
0.997574
0.997574
0.997574
0.997574
0.997574
0.997574
0.997574
0.997574
0.997574
0.997574
0.997574
0.997574
0.997574
0.997574
0.997574
0.997574
0.997574
0.997574
0.997574
0.997574
0.997574
0.997574
0.997574
0.997574
0.997574
0.997574
0.997574
0.997574
0.997574
0.997574
0.997574
0.997574
0.997574
0.997574
0.997574
0.997574
0.997574
0.997574
0.997574
0.997574
0.997574
0.997574
0.997574
0.997574
0.997574
0.997574
0.997574
0.997574
0.997574
0.997574
0.997574
0.997574
0.997574
0.997574
0.997574
0.997574
0.997574
0.997574
0.997574
0.997574
0.997574
0.997574
0.997574
0.997574
0.997574
0.997574
0.997574
0.997574
0.997574
0.997574
0.997574
0.997574
0.997574
0.997574
0.997574
0.997574
0.997574
0.997574
0.997574
0.997574
0.997574
0.997574
0.997574
0.997574
0.997574
0.997574
0.997574
0.997574
0.997574
0.997574
0.997574
0.997574
0.997574
0.997574
0.997574
0.997574
0.997574
0.997574
0.997574
0.997574
0.997574
0.997574
0.997574
0.997574
0.997574
0.997574
0.997574
0.997574
0.997574
0.997574
0.997574
0.997574
0.997574
0.997574
0.997574
0.997574
0.997574
0.997574
0.997574
0.997574
0.997574
0.997574
0.997574
0.997574
0.997574
0.997574
0.997574
0.997574
0.997574
0.997574
0.997574
0.997574
0.997574
0.997574
0.997574
0.997574
0.997574
0.997574
0.997574
0.997574
0.997574
0.997574
0.997574
0.997574
0.997574
0.997574
0.997574
0.997574
0.997574
0.997574
0.997574
0.997574
0.997574
0.997574
0.997574
0.997574
0.997574
0.997574
0.997574
0.997574
0.997574
0.997574
0.997574
0.997574
0.997574
0.997574
0.997574
0.997574
0.997574
0.997574
0.997574
0.997574
0.997574
0.997574
0.997574
0.997574
0.997574
0.997574
0.997574
0.997574
0.997574
0.997574
0.997574
0.997574
0.997574
0.997574
0.997574
0.997574
0.997574
0.997574
0.997574
0.997574
0.997574
0.997574
0.997574
0.997574
0.997574
0.997574
0.997574
0.997574
0.997574
0.997574
0.997574
0.997574
0.997574
0.997574
0.997574
0.997574
0.997574
0.997574
0.997574
0.997574
0.997574
0.997574
0.997574
0.997574
0.997574
0.997574
0.997574
0.997574
0.997574
0.997574
0.997574
0.997574
0.997574
0.997574
0.997574
0.997574
0.997574
0.997574
0.997574
0.997574
0.997574
0.997574
0.997574
0.997574
0.997574
0.997574
0.997574
0.997574
0.997574
0.997574
0.997574
0.997574
0.997574
0.997574
0.997574
0.997574
0.997574
0.997574
0.997574
0.997574
0.997574
0.997574
0.997574
0.997574
0.997574
0.997574
0.997574
0.997574
0.997574
0.997574
0.997574
0.997574
0.997574
0.997574
0.997574
0.997574
0.997574
0.997574
0.997574
0.997574
0.997574
0.997574
0.997574
0.997574
0.997574
0.997574
0.997574
0.997574
0.997574
0.997574
0.997574
0.997574
0.997574
0.997574
0.997574
0.997574
0.997574
0.997574
0.997574
0.997574
0.997574
0.997574
0.997574
0.997574
0.997574
0.997574
0.997574
0.997574
0.997574
0.997574
0.997574
0.997574
0.997574
0.997574
0.997574
0.997574
0.997574
0.997574
0.997574
0.997574
0.997574
0.997574
0.997574
0.997574
0.997574
0.997574
0.997574
0.997574
0.997574
0.997574
0.997574
0.997574
0.997574
0.997574
0.997574
0.997574
0.997574
0.997574
0.997574
0.997574
0.997574
0.997574
0.997574
0.997574
0.997574
0.997574
0.997574
0.997574
0.997574
0.997574
0.997574
0.997574
0.997574
0.997574
0.997574
0.997574
0.997574
0.997574
0.997574
0.997574
0.997574
0.997574
0.997574
0.997574
0.997574
0.997574
0.997574
0.997574
0.997574
0.997574
0.997574
0.997574
0.997574
0.997574
0.997574
0.997574
0.997574
0.997574
0.997574
0.997574
0.997574
0.997574
0.997574
0.997574
0.997574
0.997574
0.997574
0.997574
0.997574
0.997574
0.997574
0.997574
0.997574
0.997574
0.997574
0.997574
0.997574
0.997574
0.997574
0.997574
0.997574
0.997574
0.997574
0.997574
0.997574
0.997574
0.997574
0.997574
0.997574
0.997574
0.997574
0.997574
0.997574
0.997574
0.997574
0.997574
0.997574
0.997574
0.997574
0.997574
0.997574
0.997574
0.997574
0.997574
0.997574
0.997574
0.997574
0.997574
0.997574
0.997574
0.997574
0.997574
0.997574
0.997574
0.997574
0.997574
0.997574
0.997574
0.997574
0.997574
0.997574
0.997574
0.997574
0.997574
0.997574
0.997574
0.997574
0.997574
0.997574
0.997574
0.997574
0.997574
0.997574
0.997574
0.997574
0.997574
0.997574
0.997574
0.997574
0.997574
0.997574
0.997574
0.997574
0.997574
0.997574
0.997574
0.997574
0.997574
0.997574
0.997574
0.997574
0.997574
0.997574
0.997574
0.997574
0.997574
0.997574
0.997574
0.997574
0.997574
0.997574
0.997574
0.997574
0.997574
0.997574
0.997574
0.997574
0.997574
0.997574
0.997574
0.997574
0.997574
0.997574
0.997574
0.997574
0.997574
0.997574
0.997574
0.997574
0.997574
0.997574
0.997574
0.997574
0.997574
0.997574
0.997574
0.997574
0.997574
0.997574
0.997574
0.997574
0.997574
0.997574
0.997574
0.997574
0.997574
0.997574
0.997574
0.997574
0.997574
0.997574
0.997574
0.997574
0.997574
0.997574
0.997574
0.997574
0.997574
0.997574
0.997574
0.997574
0.997574
0.997574
0.997574
0.997574
0.997574
0.997574
0.997574
0.997574
0.997574
0.997574
0.997574
0.997574
0.997574
0.997574
0.997574
0.997574
0.997574
0.997574
0.997574
0.997574
0.997574
0.997574
0.997574
0.997574
0.997574
0.997574
0.997574
0.997574
0.997574
0.997574
0.997574
0.997574
0.997574
0.997574
0.997574
0.997574
0.997574
0.997574
0.997574
0.997574
0.997574
0.997574
0.997574
0.997574
0.997574
0.997574
0.997574
0.997574
0.997574
0.997574
0.997574
0.997574
0.997574
0.997574
0.997574
0.997574
0.997574
0.997574
0.997574
0.997574
0.997574
0.997574
0.997574
0.997574
0.997574
0.997574
0.997573
0.997573
0.997573
0.997573
0.997573
0.997573
0.997573
0.997572
0.997572
0.997572
0.997572
0.997571
0.997571
0.997571
0.99757
0.99757
0.997569
0.997568
0.997568
0.997567
0.997566
0.997565
0.997564
0.997563
0.997562
0.997561
0.997559
0.997558
0.997556
0.997554
0.997552
0.99755
0.997547
0.997544
0.997541
0.997538
0.997535
0.997531
0.997527
0.997522
0.997517
0.997512
0.997507
0.9975
0.997494
0.997487
0.997479
0.997471
0.997462
0.997452
0.997442
0.997431
0.997419
0.997407
0.997393
0.997379
0.997363
0.997347
0.99733
0.997311
0.997291
0.99727
0.997248
0.997225
0.9972
0.997174
0.997146
0.997117
0.997086
0.997053
0.997019
0.996983
0.996945
0.996905
0.996863
0.99682
0.996774
0.996726
0.996676
0.996624
0.996569
0.996512
0.996453
0.996392
0.996328
0.996261
0.996192
0.99612
0.996046
0.995969
0.99589
0.995807
0.995722
0.995635
0.995544
0.995451
0.995355
0.995256
0.995154
0.995049
0.994941
0.994831
0.994718
0.994601
0.994482
0.99436
0.994235
0.994108
0.993977
0.993843
0.993707
0.993568
0.993426
0.993281
0.993134
0.992984
0.992831
0.992675
0.992517
0.992356
0.992192
0.992026
0.991857
0.991686
0.991512
0.991335
0.991157
0.990976
0.990792
0.990606
0.990418
0.990228
0.990035
0.98984
0.989643
0.989444
0.989243
0.98904
0.988835
0.988628
0.988419
0.988208
0.987995
0.98778
0.987564
0.987345
0.987125
0.986904
0.98668
0.986455
0.986229
0.986001
0.985771
0.98554
0.985307
0.985073
0.984838
0.984601
0.984363
0.984124
0.983883
0.983641
0.983398
0.983154
0.982908
0.982661
0.982414
0.982165
0.981915
0.981664
0.981412
0.981159
0.980905
0.98065
0.980394
0.980137
0.979879
0.979621
0.979361
0.979101
0.97884
0.978578
0.978315
0.978052
0.977788
0.977523
0.977258
0.976991
0.976724
0.976457
0.976189
0.97592
0.97565
0.97538
0.97511
0.974839
0.974567
0.974294
0.974022
0.973748
0.973474
0.9732
0.972925
0.97265
0.972374
0.972098
0.971821
0.971544
0.971266
0.970989
0.97071
0.970431
0.970152
0.969873
0.969593
0.969313
0.969032
0.968751
0.96847
0.968188
0.967906
0.967624
0.967342
0.967059
0.966776
0.966492
0.966209
0.965925
0.965641
0.965356
0.965071
0.964787
0.964501
0.964216
0.96393
0.963644
0.963358
0.963072
0.962785
0.962499
0.962212
0.961925
0.961637
0.96135
0.961062
0.960774
0.960486
0.960198
0.95991
0.959621
0.959332
0.959044
0.958755
0.958465
0.958176
0.957887
0.957597
0.957308
0.957018
0.956728
0.956438
0.956148
0.955857
0.955567
0.955276
0.954986
0.954695
0.954404
0.954113
0.953822
0.953531
0.95324
0.952949
0.952657
0.952366
0.952075
0.951783
0.951491
0.9512
0.950908
0.950616
0.950324
0.950032
0.94974
0.949448
0.949156
0.948863
0.948571
0.948279
0.947986
0.947694
0.947401
0.947109
0.946816
0.946524
0.946231
0.945938
0.945645
0.945353
0.94506
0.944767
0.944474
0.944181
0.943888
0.943595
0.943302
0.943009
0.942716
0.942423
0.94213
0.941837
0.941544
0.941251
0.940958
0.940665
0.940372
0.940078
0.939785
0.939492
0.939199
0.938906
0.938613
0.938319
0.938026
0.937733
0.93744
0.937146
0.936853
0.93656
0.936267
0.935974
0.935681
0.935387
0.935094
0.934801
0.934508
0.934215
0.933922
0.933628
0.933335
0.933042
0.932749
0.932456
0.932163
0.93187
0.931577
0.931284
0.930991
0.930698
0.930405
0.930112
0.929819
0.929526
0.929233
0.92894
0.928647
0.928355
0.928062
0.927769
0.927476
0.927184
0.926891
0.926598
0.926306
0.926013
0.92572
0.925428
0.925135
0.924843
0.92455
0.924258
0.923966
0.923673
0.923381
0.923089
0.922796
0.922504
0.922212
0.92192
0.921628
0.921335
0.921043
0.920751
0.920459
0.920167
0.919876
0.919584
0.919292
0.919
0.918708
0.918417
0.918125
0.917833
0.917542
0.91725
0.916958
0.916667
0.916376
0.916084
0.915793
0.915502
0.91521
0.914919
0.914628
0.914337
0.914046
0.913755
0.913464
0.913173
0.912882
0.912591
0.9123
0.912009
0.911719
0.911428
0.911137
0.910847
0.910556
0.910266
0.909975
0.909685
0.909394
0.909104
0.908814
0.908524
0.908234
0.907943
0.907653
0.907363
0.907073
0.906784
0.906494
0.906204
0.905914
0.905624
0.905335
0.905045
0.904756
0.904466
0.904177
0.903887
0.903598
0.903309
0.90302
0.90273
0.902441
0.902152
0.901863
0.901574
0.901285
0.900997
0.900708
0.900419
0.90013
0.899842
0.899553
0.899265
0.898976
0.898688
0.898399
0.898111
0.897823
0.897535
0.897247
0.896959
0.896671
0.896383
0.896095
0.895807
0.895519
0.895231
0.894944
0.894656
0.894369
0.894081
0.893794
0.893506
0.893219
0.892932
0.892644
0.892357
0.89207
0.891783
0.891496
0.891209
0.890922
0.890636
0.890349
0.890062
0.889776
0.889489
0.889203
0.888916
0.88863
0.888344
0.888057
0.887771
0.887485
0.887199
0.886913
0.886627
0.886341
0.886055
0.88577
0.885484
0.885198
0.884913
0.884627
0.884342
0.884056
0.883771
0.883486
0.8832
0.882915
0.88263
0.882345
0.88206
0.881775
0.88149
0.881206
0.880921
0.880636
0.880352
0.880067
0.879783
0.879498
0.879214
0.87893
0.878646
0.878361
0.878077
0.877793
0.877509
0.877225
0.876942
0.876658
0.876374
0.876091
0.875807
0.875523
0.87524
0.874957
0.874673
0.87439
0.874107
0.873824
0.873541
0.873258
0.872975
0.872692
0.872409
0.872126
0.871844
0.871561
0.871278
0.870996
0.870714
0.870431
0.870149
0.869867
0.869584
0.869302
0.86902
0.868738
0.868456
0.868175
0.867893
0.867611
0.86733
0.867048
0.866766
0.866485
0.866204
0.865922
0.865641
0.86536
0.865079
0.864798
0.864517
0.864236
0.863955
0.863674
0.863393
0.863113
0.862832
0.862552
0.862271
0.861991
0.86171
0.86143
0.86115
0.86087
0.86059
0.86031
0.86003
0.85975
0.85947
0.85919
0.858911
0.858631
0.858352
0.858072
0.857793
0.857513
0.857234
0.856955
0.856676
0.856397
0.856118
0.855839
0.85556
0.855281
0.855002
0.854724
0.854445
0.854167
0.853888
0.85361
0.853331
0.853053
0.852775
0.852497
0.852219
0.851941
0.851663
0.851385
0.851107
0.850829
0.850552
0.850274
0.849996
0.849719
0.849442
0.849164
0.848887
0.84861
0.848333
0.848056
0.847779
0.847502
0.847225
0.846948
0.846671
0.846395
0.846118
0.845841
0.845565
0.845289
0.845012
0.844736
0.84446
0.844184
0.843908
0.843632
0.843356
0.84308
0.842804
0.842528
0.842253
0.841977
0.841702
0.841426
0.841151
0.840876
0.8406
0.840325
0.84005
0.839775
0.8395
0.839225
0.83895
0.838675
0.838401
0.838126
0.837852
0.837577
0.837303
0.837028
0.836754
0.83648
0.836206
0.835932
0.835657
0.835384
0.83511
0.834836
0.834562
0.834288
0.834015
0.833741
0.833468
0.833194
0.832921
0.832648
0.832375
0.832101
0.831828
0.831555
0.831282
0.831009
0.830737
0.830464
0.830191
0.829919
0.829646
0.829374
0.829101
0.828829
0.828557
0.828285
0.828012
0.82774
0.827468
0.827196
0.826925
0.826653
0.826381
0.826109
0.825838
0.825566
0.825295
0.825024
0.824752
0.824481
0.82421
0.823939
0.823668
0.823397
0.823126
0.822855
0.822584
0.822314
0.822043
0.821772
0.821502
0.821232
0.820961
0.820691
0.820421
0.820151
0.81988
0.81961
0.819341
0.819071
0.818801
0.818531
0.818261
0.817992
0.817722
0.817453
0.817183
0.816914
0.816645
0.816376
0.816107
0.815838
0.815569
0.8153
0.815031
0.814762
0.814493
0.814225
0.813956
0.813688
0.813419
0.813151
0.812882
0.812614
0.812346
0.812078
0.81181
0.811542
0.811274
0.811006
0.810738
0.810471
0.810203
0.809936
0.809668
0.809401
0.809133
0.808866
0.808599
0.808332
0.808065
0.807798
0.807531
0.807264
0.806997
0.80673
0.806464
0.806197
0.805931
0.805664
0.805398
0.805131
0.804865
0.804599
0.804333
0.804067
0.803801
0.803535
0.803269
0.803003
0.802738
0.802472
0.802206
0.801941
0.801675
0.80141
0.801145
0.800879
0.800614
0.800349
0.800084
0.799819
0.799554
0.79929
0.799025
0.79876
0.798495
0.798231
0.797966
0.797702
0.797438
0.797173
0.796909
0.796645
0.796381
0.796117
0.795853
0.795589
0.795325
0.795062
0.794798
0.794534
0.794271
0.794007
0.793744
0.793481
0.793217
0.792954
0.792691
0.792428
0.792165
0.791902
0.791639
0.791377
0.791114
0.790851
0.790589
0.790326
0.790064
0.789801
0.789539
0.789277
0.789015
0.788752
0.78849
0.788228
0.787967
0.787705
0.787443
0.787181
0.78692
0.786658
0.786397
0.786135
0.785874
0.785613
0.785351
0.78509
0.784829
0.784568
0.784307
0.784046
0.783786
0.783525
0.783264
0.783004
0.782743
0.782483
0.782222
0.781962
0.781702
0.781441
0.781181
0.780921
0.780661
0.780401
0.780141
0.779882
0.779622
0.779362
0.779103
0.778843
0.778584
0.778324
0.778065
0.777806
0.777546
0.777287
0.777028
0.776769
0.77651
0.776252
0.775993
0.775734
0.775475
0.775217
0.774958
0.7747
0.774442
0.774183
0.773925
0.773667
0.773409
0.773151
0.772893
0.772635
0.772377
0.772119
0.771862
0.771604
0.771346
0.771089
0.770832
0.770574
0.770317
0.77006
0.769803
0.769545
0.769288
0.769031
0.768775
0.768518
0.768261
0.768004
0.767748
0.767491
0.767235
0.766978
0.766722
0.766466
0.76621
0.765953
0.765697
0.765441
0.765185
0.764929
0.764674
0.764418
0.764162
0.763907
0.763651
0.763396
0.76314
0.762885
0.76263
0.762375
0.762119
0.761864
0.761609
0.761354
0.7611
0.760845
0.76059
0.760335
0.760081
0.759826
0.759572
0.759317
0.759063
0.758809
0.758555
0.758301
0.758046
0.757792
0.757539
0.757285
0.757031
0.756777
0.756524
0.75627
0.756016
0.755763
0.75551
0.755256
0.755003
0.75475
0.754497
0.754244
0.753991
0.753738
0.753485
0.753232
0.752979
0.752727
0.752474
0.752222
0.751969
0.751717
0.751465
0.751212
0.75096
0.750708
0.750456
0.750204
0.749952
0.7497
0.749449
0.749197
0.748945
0.748694
0.748442
0.748191
0.747939
0.747688
0.747437
0.747186
0.746934
0.746683
0.746432
0.746182
0.745931
0.74568
0.745429
0.745179
0.744928