/*--------------------------------*- C++ -*----------------------------------*\
  =========                 |
  \\      /  F ield         | OpenFOAM: The Open Source CFD Toolbox
   \\    /   O peration     | Website:  https://openfoam.org
    \\  /    A nd           | Version:  9
     \\/     M anipulation  |
\*---------------------------------------------------------------------------*/
FoamFile
{
    format      ascii;
    class       volScalarField;
    location    "0.007";
    object      T;
}
// * * * * * * * * * * * * * * * * * * * * * * * * * * * * * * * * * * * * * //

dimensions      [0 0 0 1 0 0 0];

internalField   nonuniform List<scalar> 
10000
(
348.432
348.432
348.432
348.432
348.432
348.432
348.432
348.432
348.432
348.432
348.432
348.432
348.432
348.432
348.432
348.432
348.432
348.432
348.432
348.432
348.432
348.432
348.432
348.432
348.432
348.432
348.432
348.432
348.432
348.432
348.432
348.432
348.432
348.432
348.432
348.432
348.432
348.432
348.432
348.432
348.432
348.432
348.432
348.432
348.432
348.432
348.432
348.432
348.432
348.432
348.432
348.432
348.432
348.432
348.432
348.432
348.432
348.432
348.432
348.432
348.432
348.432
348.432
348.432
348.432
348.432
348.432
348.432
348.432
348.432
348.432
348.432
348.432
348.432
348.432
348.432
348.432
348.432
348.432
348.432
348.432
348.432
348.432
348.432
348.432
348.432
348.432
348.432
348.432
348.432
348.432
348.432
348.432
348.432
348.432
348.432
348.432
348.432
348.432
348.432
348.432
348.432
348.432
348.432
348.432
348.432
348.432
348.432
348.432
348.432
348.432
348.432
348.432
348.432
348.432
348.432
348.432
348.432
348.432
348.432
348.432
348.432
348.432
348.432
348.432
348.432
348.432
348.432
348.432
348.432
348.432
348.432
348.432
348.432
348.432
348.432
348.432
348.432
348.432
348.432
348.432
348.432
348.432
348.432
348.432
348.432
348.432
348.432
348.432
348.432
348.432
348.432
348.432
348.432
348.432
348.432
348.432
348.432
348.432
348.432
348.432
348.432
348.432
348.432
348.432
348.432
348.432
348.432
348.432
348.432
348.432
348.432
348.432
348.432
348.432
348.432
348.432
348.432
348.432
348.432
348.432
348.432
348.432
348.432
348.432
348.432
348.432
348.432
348.432
348.432
348.432
348.432
348.432
348.432
348.432
348.432
348.432
348.432
348.432
348.432
348.432
348.432
348.432
348.432
348.432
348.432
348.432
348.432
348.432
348.432
348.432
348.432
348.432
348.432
348.432
348.432
348.432
348.432
348.432
348.432
348.432
348.432
348.432
348.432
348.432
348.432
348.432
348.432
348.432
348.432
348.432
348.432
348.432
348.432
348.432
348.432
348.432
348.432
348.432
348.432
348.432
348.432
348.432
348.432
348.432
348.432
348.432
348.432
348.432
348.432
348.432
348.432
348.432
348.432
348.432
348.432
348.432
348.432
348.432
348.432
348.432
348.432
348.432
348.432
348.432
348.432
348.432
348.432
348.432
348.432
348.432
348.432
348.432
348.432
348.432
348.432
348.432
348.432
348.432
348.432
348.432
348.432
348.432
348.432
348.432
348.432
348.432
348.432
348.432
348.432
348.432
348.432
348.432
348.432
348.432
348.432
348.432
348.432
348.432
348.432
348.432
348.432
348.432
348.432
348.432
348.432
348.432
348.432
348.432
348.432
348.432
348.432
348.432
348.432
348.432
348.432
348.432
348.432
348.432
348.432
348.432
348.432
348.432
348.432
348.432
348.432
348.432
348.432
348.432
348.432
348.432
348.432
348.432
348.432
348.432
348.432
348.432
348.432
348.432
348.432
348.432
348.432
348.432
348.432
348.432
348.432
348.432
348.432
348.432
348.432
348.432
348.432
348.432
348.432
348.432
348.432
348.432
348.432
348.432
348.432
348.432
348.432
348.432
348.432
348.432
348.432
348.432
348.432
348.432
348.432
348.432
348.432
348.432
348.432
348.432
348.432
348.432
348.432
348.432
348.432
348.432
348.432
348.432
348.432
348.432
348.432
348.432
348.432
348.432
348.432
348.432
348.432
348.432
348.432
348.432
348.432
348.432
348.432
348.432
348.432
348.432
348.432
348.432
348.432
348.432
348.432
348.432
348.432
348.432
348.432
348.432
348.432
348.432
348.432
348.432
348.432
348.432
348.432
348.432
348.432
348.432
348.432
348.432
348.432
348.432
348.432
348.432
348.432
348.432
348.432
348.432
348.432
348.432
348.432
348.432
348.432
348.432
348.432
348.432
348.432
348.432
348.432
348.432
348.432
348.432
348.432
348.432
348.432
348.432
348.432
348.432
348.432
348.432
348.432
348.432
348.432
348.432
348.432
348.432
348.432
348.432
348.432
348.432
348.432
348.432
348.432
348.432
348.432
348.432
348.432
348.432
348.432
348.432
348.432
348.432
348.432
348.432
348.432
348.432
348.432
348.432
348.432
348.432
348.432
348.432
348.432
348.432
348.432
348.432
348.432
348.432
348.432
348.432
348.432
348.432
348.432
348.432
348.432
348.432
348.432
348.432
348.432
348.432
348.432
348.432
348.432
348.432
348.432
348.432
348.432
348.432
348.432
348.432
348.432
348.432
348.432
348.432
348.432
348.432
348.432
348.432
348.432
348.432
348.432
348.432
348.432
348.432
348.432
348.432
348.432
348.432
348.432
348.432
348.432
348.432
348.432
348.432
348.432
348.432
348.432
348.432
348.432
348.432
348.432
348.432
348.432
348.432
348.432
348.432
348.432
348.432
348.432
348.432
348.432
348.432
348.432
348.432
348.432
348.432
348.432
348.432
348.432
348.432
348.432
348.432
348.432
348.432
348.432
348.432
348.432
348.432
348.432
348.432
348.432
348.432
348.432
348.432
348.432
348.432
348.432
348.432
348.432
348.432
348.432
348.432
348.432
348.432
348.432
348.432
348.432
348.432
348.432
348.432
348.432
348.432
348.432
348.432
348.432
348.432
348.432
348.432
348.432
348.432
348.432
348.432
348.432
348.432
348.432
348.432
348.432
348.432
348.432
348.432
348.432
348.432
348.432
348.432
348.432
348.432
348.432
348.432
348.432
348.432
348.432
348.432
348.432
348.432
348.432
348.432
348.432
348.432
348.432
348.432
348.432
348.432
348.432
348.432
348.432
348.432
348.432
348.432
348.432
348.432
348.432
348.432
348.432
348.432
348.432
348.432
348.432
348.432
348.432
348.432
348.432
348.432
348.432
348.432
348.432
348.432
348.432
348.432
348.432
348.432
348.432
348.432
348.432
348.432
348.432
348.432
348.432
348.432
348.432
348.432
348.432
348.432
348.432
348.432
348.432
348.432
348.432
348.432
348.432
348.432
348.432
348.432
348.432
348.432
348.432
348.432
348.432
348.432
348.432
348.432
348.432
348.432
348.432
348.432
348.432
348.432
348.432
348.432
348.432
348.432
348.432
348.432
348.432
348.432
348.432
348.432
348.432
348.432
348.432
348.432
348.432
348.432
348.432
348.432
348.432
348.432
348.432
348.432
348.432
348.432
348.432
348.432
348.432
348.432
348.432
348.432
348.432
348.432
348.432
348.432
348.432
348.432
348.432
348.432
348.432
348.432
348.432
348.432
348.432
348.432
348.432
348.432
348.432
348.432
348.432
348.432
348.432
348.432
348.432
348.432
348.432
348.432
348.432
348.432
348.432
348.432
348.432
348.432
348.432
348.432
348.432
348.432
348.432
348.432
348.432
348.432
348.432
348.432
348.432
348.432
348.432
348.432
348.432
348.432
348.432
348.432
348.432
348.432
348.432
348.432
348.432
348.432
348.432
348.432
348.432
348.432
348.432
348.432
348.432
348.432
348.432
348.432
348.432
348.432
348.432
348.432
348.432
348.432
348.432
348.432
348.432
348.432
348.432
348.432
348.432
348.432
348.432
348.432
348.432
348.432
348.432
348.432
348.432
348.432
348.432
348.432
348.432
348.432
348.432
348.432
348.432
348.432
348.432
348.432
348.432
348.432
348.432
348.432
348.432
348.432
348.432
348.432
348.432
348.432
348.432
348.432
348.432
348.432
348.432
348.432
348.432
348.432
348.432
348.432
348.432
348.432
348.432
348.432
348.432
348.432
348.432
348.432
348.432
348.432
348.432
348.432
348.432
348.432
348.432
348.432
348.432
348.432
348.432
348.432
348.432
348.432
348.432
348.432
348.432
348.432
348.432
348.432
348.432
348.432
348.432
348.432
348.432
348.432
348.432
348.432
348.432
348.432
348.432
348.432
348.432
348.432
348.432
348.432
348.432
348.432
348.432
348.432
348.432
348.432
348.432
348.432
348.432
348.432
348.432
348.432
348.432
348.432
348.432
348.432
348.432
348.432
348.432
348.432
348.432
348.432
348.432
348.432
348.432
348.432
348.432
348.432
348.432
348.432
348.432
348.432
348.432
348.432
348.432
348.432
348.432
348.432
348.432
348.432
348.432
348.432
348.432
348.432
348.432
348.432
348.432
348.432
348.432
348.432
348.432
348.432
348.432
348.432
348.432
348.432
348.432
348.432
348.432
348.432
348.432
348.432
348.432
348.432
348.432
348.432
348.432
348.432
348.432
348.432
348.432
348.432
348.432
348.432
348.432
348.432
348.432
348.432
348.432
348.432
348.432
348.432
348.432
348.432
348.432
348.432
348.432
348.432
348.432
348.432
348.432
348.432
348.432
348.432
348.432
348.432
348.432
348.432
348.432
348.432
348.432
348.432
348.432
348.432
348.432
348.432
348.432
348.432
348.432
348.432
348.432
348.432
348.432
348.432
348.432
348.432
348.432
348.432
348.432
348.432
348.432
348.432
348.432
348.432
348.432
348.432
348.432
348.432
348.432
348.432
348.432
348.432
348.432
348.432
348.432
348.432
348.432
348.432
348.432
348.432
348.432
348.432
348.432
348.432
348.432
348.432
348.432
348.432
348.432
348.432
348.432
348.432
348.432
348.432
348.432
348.432
348.432
348.432
348.432
348.432
348.432
348.432
348.432
348.432
348.432
348.432
348.432
348.432
348.432
348.432
348.432
348.432
348.432
348.432
348.432
348.432
348.432
348.432
348.432
348.432
348.432
348.432
348.432
348.432
348.432
348.432
348.432
348.432
348.432
348.432
348.432
348.432
348.432
348.432
348.432
348.432
348.432
348.432
348.432
348.432
348.432
348.432
348.432
348.432
348.432
348.432
348.432
348.432
348.432
348.432
348.432
348.432
348.432
348.432
348.432
348.432
348.432
348.432
348.432
348.432
348.432
348.432
348.432
348.432
348.432
348.432
348.432
348.432
348.432
348.432
348.432
348.432
348.432
348.432
348.432
348.432
348.432
348.432
348.432
348.432
348.432
348.432
348.432
348.432
348.432
348.432
348.432
348.432
348.432
348.432
348.432
348.432
348.432
348.432
348.432
348.432
348.432
348.432
348.432
348.432
348.432
348.432
348.432
348.432
348.432
348.432
348.432
348.432
348.432
348.432
348.432
348.432
348.432
348.432
348.432
348.432
348.432
348.432
348.432
348.432
348.432
348.432
348.432
348.432
348.432
348.432
348.432
348.432
348.432
348.432
348.432
348.432
348.432
348.432
348.432
348.432
348.432
348.432
348.432
348.432
348.432
348.432
348.432
348.432
348.432
348.432
348.432
348.432
348.432
348.432
348.432
348.432
348.432
348.432
348.432
348.432
348.432
348.432
348.432
348.432
348.432
348.432
348.432
348.432
348.432
348.432
348.432
348.432
348.432
348.432
348.432
348.432
348.432
348.432
348.432
348.432
348.432
348.432
348.432
348.432
348.432
348.432
348.432
348.432
348.432
348.432
348.432
348.432
348.432
348.432
348.432
348.432
348.432
348.432
348.432
348.432
348.432
348.432
348.432
348.432
348.432
348.432
348.432
348.432
348.432
348.432
348.432
348.432
348.432
348.432
348.432
348.432
348.432
348.432
348.432
348.432
348.432
348.432
348.432
348.432
348.432
348.432
348.432
348.432
348.432
348.432
348.432
348.432
348.432
348.432
348.432
348.432
348.432
348.432
348.432
348.432
348.432
348.432
348.432
348.432
348.432
348.432
348.432
348.432
348.432
348.432
348.432
348.432
348.432
348.432
348.432
348.432
348.432
348.432
348.432
348.432
348.432
348.432
348.432
348.432
348.432
348.432
348.432
348.432
348.432
348.432
348.432
348.432
348.432
348.432
348.432
348.432
348.432
348.432
348.432
348.432
348.432
348.432
348.432
348.432
348.432
348.432
348.432
348.432
348.432
348.432
348.432
348.432
348.432
348.432
348.432
348.432
348.432
348.432
348.432
348.432
348.432
348.432
348.432
348.432
348.432
348.432
348.432
348.432
348.432
348.432
348.432
348.432
348.432
348.432
348.432
348.432
348.432
348.432
348.432
348.432
348.432
348.432
348.432
348.432
348.432
348.432
348.432
348.432
348.432
348.432
348.432
348.432
348.432
348.432
348.432
348.432
348.432
348.432
348.432
348.432
348.432
348.432
348.432
348.432
348.432
348.432
348.432
348.432
348.432
348.432
348.432
348.432
348.432
348.432
348.432
348.432
348.432
348.432
348.432
348.432
348.432
348.432
348.432
348.432
348.432
348.432
348.432
348.432
348.432
348.432
348.432
348.432
348.432
348.432
348.432
348.432
348.432
348.432
348.432
348.432
348.432
348.432
348.432
348.432
348.432
348.432
348.432
348.432
348.432
348.432
348.432
348.432
348.432
348.432
348.432
348.432
348.432
348.432
348.432
348.432
348.432
348.432
348.432
348.432
348.432
348.432
348.432
348.432
348.432
348.432
348.432
348.432
348.432
348.432
348.432
348.432
348.432
348.432
348.432
348.432
348.432
348.432
348.432
348.432
348.432
348.432
348.432
348.432
348.432
348.432
348.432
348.432
348.432
348.432
348.432
348.432
348.432
348.432
348.432
348.432
348.432
348.432
348.432
348.432
348.432
348.432
348.432
348.432
348.432
348.432
348.432
348.432
348.432
348.432
348.432
348.432
348.432
348.432
348.432
348.432
348.432
348.432
348.432
348.432
348.432
348.432
348.432
348.432
348.432
348.432
348.432
348.432
348.432
348.432
348.432
348.432
348.432
348.432
348.432
348.432
348.432
348.432
348.432
348.432
348.432
348.432
348.432
348.432
348.432
348.432
348.432
348.432
348.432
348.432
348.432
348.432
348.432
348.432
348.432
348.432
348.432
348.432
348.432
348.432
348.432
348.432
348.432
348.432
348.432
348.432
348.432
348.432
348.432
348.432
348.432
348.432
348.432
348.432
348.432
348.432
348.432
348.432
348.432
348.432
348.432
348.432
348.432
348.432
348.432
348.432
348.432
348.432
348.432
348.432
348.432
348.432
348.432
348.432
348.432
348.432
348.432
348.432
348.432
348.432
348.432
348.432
348.432
348.432
348.432
348.432
348.432
348.432
348.432
348.432
348.432
348.432
348.432
348.432
348.432
348.432
348.432
348.432
348.432
348.432
348.432
348.432
348.432
348.432
348.432
348.432
348.432
348.432
348.432
348.432
348.432
348.432
348.432
348.432
348.432
348.432
348.432
348.432
348.432
348.432
348.432
348.432
348.432
348.432
348.432
348.432
348.432
348.432
348.432
348.432
348.432
348.432
348.432
348.432
348.432
348.432
348.432
348.432
348.432
348.432
348.432
348.432
348.432
348.432
348.432
348.432
348.432
348.432
348.432
348.432
348.432
348.432
348.432
348.432
348.432
348.432
348.432
348.432
348.432
348.432
348.432
348.432
348.432
348.432
348.432
348.432
348.432
348.432
348.432
348.432
348.432
348.432
348.432
348.432
348.432
348.432
348.432
348.432
348.432
348.432
348.432
348.432
348.432
348.432
348.432
348.432
348.432
348.432
348.432
348.432
348.432
348.432
348.432
348.432
348.432
348.432
348.432
348.432
348.432
348.432
348.432
348.432
348.432
348.432
348.432
348.432
348.432
348.432
348.432
348.432
348.432
348.432
348.432
348.432
348.432
348.432
348.432
348.432
348.432
348.432
348.432
348.432
348.432
348.432
348.432
348.432
348.432
348.432
348.432
348.432
348.432
348.432
348.432
348.432
348.432
348.432
348.432
348.432
348.432
348.432
348.432
348.432
348.432
348.432
348.432
348.432
348.432
348.432
348.432
348.432
348.432
348.432
348.432
348.432
348.432
348.432
348.432
348.432
348.432
348.432
348.432
348.432
348.432
348.432
348.432
348.432
348.432
348.432
348.432
348.432
348.432
348.432
348.432
348.432
348.432
348.432
348.432
348.432
348.432
348.432
348.432
348.432
348.432
348.432
348.432
348.432
348.432
348.432
348.432
348.432
348.432
348.432
348.432
348.432
348.432
348.432
348.432
348.432
348.432
348.432
348.432
348.432
348.432
348.432
348.432
348.432
348.432
348.432
348.432
348.432
348.432
348.432
348.432
348.432
348.432
348.432
348.432
348.432
348.432
348.432
348.432
348.432
348.432
348.432
348.432
348.432
348.432
348.432
348.432
348.432
348.432
348.432
348.432
348.432
348.432
348.432
348.432
348.432
348.432
348.432
348.432
348.432
348.432
348.432
348.432
348.432
348.432
348.432
348.432
348.432
348.432
348.432
348.432
348.432
348.432
348.432
348.432
348.432
348.432
348.432
348.432
348.432
348.432
348.432
348.432
348.432
348.432
348.432
348.432
348.432
348.432
348.432
348.432
348.432
348.432
348.432
348.432
348.432
348.432
348.432
348.432
348.432
348.432
348.432
348.432
348.432
348.432
348.432
348.432
348.432
348.432
348.432
348.432
348.432
348.432
348.432
348.432
348.432
348.432
348.432
348.432
348.432
348.432
348.432
348.432
348.432
348.432
348.432
348.432
348.432
348.432
348.432
348.432
348.432
348.432
348.432
348.432
348.432
348.432
348.432
348.432
348.432
348.432
348.432
348.432
348.432
348.432
348.432
348.432
348.432
348.432
348.432
348.432
348.432
348.432
348.432
348.432
348.432
348.432
348.432
348.432
348.432
348.432
348.432
348.432
348.432
348.432
348.432
348.432
348.432
348.432
348.432
348.432
348.432
348.432
348.432
348.432
348.432
348.432
348.432
348.432
348.432
348.432
348.432
348.432
348.432
348.432
348.432
348.432
348.432
348.432
348.432
348.432
348.432
348.432
348.432
348.432
348.432
348.432
348.432
348.432
348.432
348.432
348.432
348.432
348.432
348.432
348.432
348.432
348.432
348.432
348.432
348.432
348.432
348.432
348.432
348.432
348.432
348.432
348.432
348.432
348.432
348.432
348.432
348.432
348.432
348.432
348.432
348.432
348.432
348.432
348.432
348.432
348.432
348.432
348.432
348.432
348.432
348.432
348.432
348.432
348.432
348.432
348.432
348.432
348.432
348.432
348.432
348.432
348.432
348.432
348.432
348.432
348.432
348.432
348.432
348.432
348.432
348.432
348.432
348.432
348.432
348.432
348.432
348.432
348.432
348.432
348.432
348.432
348.432
348.432
348.432
348.432
348.432
348.432
348.432
348.432
348.432
348.432
348.432
348.432
348.432
348.432
348.432
348.432
348.432
348.432
348.432
348.432
348.432
348.432
348.432
348.432
348.432
348.432
348.432
348.432
348.432
348.432
348.432
348.432
348.432
348.432
348.432
348.432
348.432
348.432
348.432
348.432
348.432
348.432
348.432
348.432
348.432
348.432
348.432
348.432
348.432
348.432
348.432
348.432
348.432
348.432
348.432
348.432
348.432
348.432
348.432
348.432
348.432
348.432
348.432
348.432
348.432
348.432
348.432
348.432
348.432
348.432
348.432
348.432
348.432
348.432
348.432
348.432
348.432
348.432
348.432
348.432
348.432
348.432
348.432
348.432
348.432
348.432
348.432
348.432
348.432
348.432
348.432
348.432
348.432
348.432
348.432
348.432
348.432
348.432
348.432
348.432
348.432
348.432
348.432
348.432
348.432
348.432
348.432
348.432
348.432
348.432
348.432
348.432
348.432
348.432
348.432
348.432
348.432
348.432
348.432
348.432
348.432
348.432
348.432
348.432
348.432
348.432
348.432
348.432
348.432
348.432
348.432
348.432
348.432
348.432
348.432
348.432
348.432
348.432
348.432
348.432
348.432
348.432
348.432
348.432
348.432
348.432
348.432
348.432
348.432
348.432
348.432
348.432
348.432
348.432
348.432
348.432
348.432
348.432
348.432
348.432
348.432
348.432
348.432
348.432
348.432
348.432
348.432
348.432
348.432
348.432
348.432
348.432
348.432
348.432
348.432
348.432
348.432
348.432
348.432
348.432
348.432
348.432
348.432
348.432
348.432
348.432
348.432
348.432
348.432
348.432
348.432
348.432
348.432
348.432
348.432
348.432
348.431
348.431
348.431
348.431
348.431
348.431
348.431
348.431
348.431
348.431
348.43
348.43
348.43
348.43
348.43
348.429
348.429
348.429
348.429
348.428
348.428
348.427
348.427
348.426
348.426
348.425
348.425
348.424
348.423
348.423
348.422
348.421
348.42
348.419
348.417
348.416
348.415
348.413
348.412
348.41
348.408
348.407
348.405
348.402
348.4
348.398
348.395
348.392
348.389
348.386
348.383
348.38
348.376
348.372
348.368
348.364
348.359
348.354
348.349
348.344
348.338
348.332
348.326
348.32
348.313
348.306
348.299
348.291
348.283
348.275
348.266
348.257
348.248
348.238
348.228
348.218
348.207
348.196
348.184
348.172
348.16
348.147
348.134
348.121
348.107
348.093
348.078
348.063
348.047
348.031
348.015
347.998
347.981
347.964
347.946
347.928
347.909
347.89
347.87
347.85
347.83
347.809
347.788
347.767
347.745
347.722
347.7
347.677
347.653
347.63
347.606
347.581
347.556
347.531
347.506
347.48
347.454
347.427
347.401
347.374
347.346
347.318
347.29
347.262
347.233
347.205
347.175
347.146
347.116
347.086
347.056
347.025
346.995
346.964
346.932
346.901
346.869
346.837
346.805
346.773
346.74
346.707
346.674
346.641
346.608
346.574
346.54
346.506
346.472
346.438
346.403
346.368
346.334
346.299
346.263
346.228
346.193
346.157
346.121
346.085
346.049
346.013
345.977
345.94
345.903
345.867
345.83
345.793
345.756
345.719
345.681
345.644
345.606
345.569
345.531
345.493
345.455
345.417
345.379
345.341
345.302
345.264
345.225
345.187
345.148
345.109
345.07
345.031
344.992
344.953
344.914
344.875
344.836
344.796
344.757
344.717
344.678
344.638
344.599
344.559
344.519
344.479
344.439
344.399
344.359
344.319
344.279
344.239
344.198
344.158
344.118
344.077
344.037
343.996
343.956
343.915
343.875
343.834
343.793
343.753
343.712
343.671
343.63
343.589
343.548
343.507
343.466
343.425
343.384
343.343
343.302
343.26
343.219
343.178
343.137
343.095
343.054
343.013
342.971
342.93
342.888
342.847
342.805
342.764
342.722
342.68
342.639
342.597
342.555
342.514
342.472
342.43
342.388
342.347
342.305
342.263
342.221
342.179
342.137
342.095
342.053
342.011
341.969
341.927
341.885
341.843
341.801
341.759
341.717
341.675
341.633
341.591
341.549
341.506
341.464
341.422
341.38
341.338
341.295
341.253
341.211
341.169
341.126
341.084
341.042
340.999
340.957
340.914
340.872
340.83
340.787
340.745
340.702
340.66
340.618
340.575
340.533
340.49
340.448
340.405
340.363
340.32
340.278
340.235
340.192
340.15
340.107
340.065
340.022
339.98
339.937
339.894
339.852
339.809
339.766
339.724
339.681
339.638
339.596
339.553
339.51
339.468
339.425
339.382
339.34
339.297
339.254
339.211
339.169
339.126
339.083
339.04
338.998
338.955
338.912
338.869
338.827
338.784
338.741
338.698
338.655
338.613
338.57
338.527
338.484
338.441
338.399
338.356
338.313
338.27
338.227
338.184
338.141
338.099
338.056
338.013
337.97
337.927
337.884
337.841
337.798
337.756
337.713
337.67
337.627
337.584
337.541
337.498
337.455
337.412
337.369
337.327
337.284
337.241
337.198
337.155
337.112
337.069
337.026
336.983
336.94
336.897
336.854
336.811
336.768
336.725
336.682
336.64
336.597
336.554
336.511
336.468
336.425
336.382
336.339
336.296
336.253
336.21
336.167
336.124
336.081
336.038
335.995
335.952
335.909
335.866
335.823
335.78
335.737
335.694
335.651
335.608
335.565
335.522
335.479
335.436
335.393
335.35
335.307
335.264
335.221
335.178
335.135
335.092
335.049
335.006
334.963
334.92
334.877
334.834
334.791
334.748
334.705
334.662
334.619
334.576
334.533
334.49
334.447
334.404
334.361
334.318
334.275
334.232
334.189
334.146
334.103
334.06
334.017
333.974
333.931
333.888
333.845
333.802
333.759
333.716
333.673
333.63
333.587
333.544
333.501
333.458
333.415
333.372
333.329
333.286
333.243
333.2
333.157
333.114
333.071
333.028
332.985
332.942
332.899
332.856
332.814
332.771
332.728
332.685
332.642
332.599
332.556
332.513
332.47
332.427
332.384
332.341
332.298
332.255
332.212
332.169
332.126
332.083
332.04
331.997
331.954
331.911
331.868
331.825
331.782
331.739
331.696
331.653
331.61
331.567
331.524
331.481
331.438
331.395
331.352
331.309
331.267
331.224
331.181
331.138
331.095
331.052
331.009
330.966
330.923
330.88
330.837
330.794
330.751
330.708
330.665
330.622
330.579
330.536
330.494
330.451
330.408
330.365
330.322
330.279
330.236
330.193
330.15
330.107
330.064
330.021
329.978
329.936
329.893
329.85
329.807
329.764
329.721
329.678
329.635
329.592
329.549
329.506
329.464
329.421
329.378
329.335
329.292
329.249
329.206
329.163
329.12
329.078
329.035
328.992
328.949
328.906
328.863
328.82
328.777
328.735
328.692
328.649
328.606
328.563
328.52
328.477
328.435
328.392
328.349
328.306
328.263
328.22
328.177
328.135
328.092
328.049
328.006
327.963
327.92
327.878
327.835
327.792
327.749
327.706
327.663
327.621
327.578
327.535
327.492
327.449
327.407
327.364
327.321
327.278
327.235
327.193
327.15
327.107
327.064
327.021
326.979
326.936
326.893
326.85
326.807
326.765
326.722
326.679
326.636
326.593
326.551
326.508
326.465
326.422
326.38
326.337
326.294
326.251
326.209
326.166
326.123
326.08
326.038
325.995
325.952
325.909
325.867
325.824
325.781
325.738
325.696
325.653
325.61
325.567
325.525
325.482
325.439
325.397
325.354
325.311
325.268
325.226
325.183
325.14
325.098
325.055
325.012
324.97
324.927
324.884
324.841
324.799
324.756
324.713
324.671
324.628
324.585
324.543
324.5
324.457
324.415
324.372
324.329
324.287
324.244
324.201
324.159
324.116
324.073
324.031
323.988
323.945
323.903
323.86
323.817
323.775
323.732
323.69
323.647
323.604
323.562
323.519
323.476
323.434
323.391
323.349
323.306
323.263
323.221
323.178
323.136
323.093
323.05
323.008
322.965
322.923
322.88
322.837
322.795
322.752
322.71
322.667
322.625
322.582
322.539
322.497
322.454
322.412
322.369
322.327
322.284
322.241
322.199
322.156
322.114
322.071
322.029
321.986
321.944
321.901
321.859
321.816
321.774
321.731
321.689
321.646
321.603
321.561
321.518
321.476
321.433
321.391
321.348
321.306
321.263
321.221
321.178
321.136
321.093
321.051
321.008
320.966
320.924
320.881
320.839
320.796
320.754
320.711
320.669
320.626
320.584
320.541
320.499
320.456
320.414
320.371
320.329
320.287
320.244
320.202
320.159
320.117
320.074
320.032
319.99
319.947
319.905
319.862
319.82
319.777
319.735
319.693
319.65
319.608
319.565
319.523
319.481
319.438
319.396
319.353
319.311
319.269
319.226
319.184
319.142
319.099
319.057
319.014
318.972
318.93
318.887
318.845
318.803
318.76
318.718
318.676
318.633
318.591
318.549
318.506
318.464
318.422
318.379
318.337
318.295
318.252
318.21
318.168
318.125
318.083
318.041
317.998
317.956
317.914
317.871
317.829
317.787
317.745
317.702
317.66
317.618
317.575
317.533
317.491
317.449
317.406
317.364
317.322
317.279
317.237
317.195
317.153
317.11
317.068
317.026
316.984
316.941
316.899
316.857
316.815
316.772
316.73
316.688
316.646
316.604
316.561
316.519
316.477
316.435
316.392
316.35
316.308
316.266
316.224
316.181
316.139
316.097
316.055
316.013
315.97
315.928
315.886
315.844
315.802
315.76
315.717
315.675
315.633
315.591
315.549
315.507
315.464
315.422
315.38
315.338
315.296
315.254
315.212
315.169
315.127
315.085
315.043
315.001
314.959
314.917
314.875
314.832
314.79
314.748
314.706
314.664
314.622
314.58
314.538
314.496
314.453
314.411
314.369
314.327
314.285
314.243
314.201
314.159
314.117
314.075
314.033
313.991
313.949
313.907
313.864
313.822
313.78
313.738
313.696
313.654
313.612
313.57
313.528
313.486
313.444
313.402
313.36
313.318
313.276
313.234
313.192
313.15
313.108
313.066
313.024
312.982
312.94
312.898
312.856
312.814
312.772
312.73
312.688
312.646
312.604
312.562
312.52
312.478
312.436
312.394
312.352
312.31
312.268
312.226
312.184
312.142
312.1
312.059
312.017
311.975
311.933
311.891
311.849
311.807
311.765
311.723
311.681
311.639
311.597
311.555
311.514
311.472
311.43
311.388
311.346
311.304
311.262
311.22
311.178
311.136
311.095
311.053
311.011
310.969
310.927
310.885
310.843
310.801
310.76
310.718
310.676
310.634
310.592
310.55
310.509
310.467
310.425
310.383
310.341
310.299
310.258
310.216
310.174
310.132
310.09
310.048
310.007
309.965
309.923
309.881
309.839
309.798
309.756
309.714
309.672
309.63
309.589
309.547
309.505
309.463
309.422
309.38
309.338
309.296
309.254
309.213
309.171
309.129
309.087
309.046
309.004
308.962
308.92
308.879
308.837
308.795
308.754
308.712
308.67
308.628
308.587
308.545
308.503
308.461
308.42
308.378
308.336
308.295
308.253
308.211
308.17
308.128
308.086
308.045
308.003
307.961
307.92
307.878
307.836
307.794
307.753
307.711
307.67
307.628
307.586
307.545
307.503
307.461
307.42
307.378
307.336
307.295
307.253
307.211
307.17
307.128
307.087
307.045
307.003
306.962
306.92
306.878
306.837
306.795
306.754
306.712
306.671
306.629
306.587
306.546
306.504
306.463
306.421
306.379
306.338
306.296
306.255
306.213
306.172
306.13
306.088
306.047
306.005
305.964
305.922
305.881
305.839
305.798
305.756
305.715
305.673
305.632
305.59
305.549
305.507
305.465
305.424
305.382
305.341
305.299
305.258
305.216
305.175
305.133
305.092
305.05
305.009
304.968
304.926
304.885
304.843
304.802
304.76
304.719
304.677
304.636
304.594
304.553
304.511
304.47
304.429
304.387
304.346
304.304
304.263
304.221
304.18
304.138
304.097
304.056
304.014
303.973
303.931
303.89
303.849
303.807
303.766
303.724
303.683
303.642
303.6
303.559
303.517
303.476
303.435
303.393
303.352
303.311
303.269
303.228
303.186
303.145
303.104
303.062
303.021
302.98
302.938
302.897
302.856
302.814
302.773
302.732
302.69
302.649
302.608
302.566
302.525
302.484
302.442
302.401
302.36
302.318
302.277
302.236
302.195
302.153
302.112
302.071
302.029
301.988
301.947
301.906
301.864
301.823
301.782
301.741
301.699
301.658
301.617
301.575
301.534
301.493
301.452
301.411
301.369
301.328
301.287
301.246
301.204
301.163
301.122
301.081
301.039
300.998
300.957
300.916
300.875
300.833
300.792
300.751
300.71
300.669
300.627
300.586
300.545
300.504
300.463
300.422
300.38
300.339
300.298
300.257
300.216
300.175
300.133
300.092
300.051
300.01
299.969
299.928
299.886
299.845
299.804
299.763
299.722
299.681
299.64
299.599
299.557
299.516
299.475
299.434
299.393
299.352
299.311
299.27
299.229
299.188
299.146
299.105
299.064
299.023
298.982
298.941
298.9
298.859
298.818
298.777
298.736
298.695
298.654
298.613
298.572
298.53
298.489
298.448
298.407
298.366
298.325
298.284
298.243
298.202
298.161
298.12
298.079
298.038
297.997
297.956
297.915
297.874
297.833
297.792
297.751
297.71
297.669
297.628
297.587
297.546
297.505
297.464
297.423
297.382
297.341
297.3
297.259
297.218
297.178
297.137
297.096
297.055
297.014
296.973
296.932
296.891
296.85
296.809
296.768
296.727
296.686
296.645
296.604
296.564
296.523
296.482
296.441
296.4
296.359
296.318
296.277
296.236
296.195
296.155
296.114
296.073
296.032
295.991
295.95
295.909
295.868
295.828
295.787
295.746
295.705
295.664
295.623
295.583
295.542
295.501
295.46
295.419
295.378
295.338
295.297
295.256
295.215
295.174
295.133
295.093
295.052
295.011
294.97
294.929
294.889
294.848
294.807
294.766
294.725
294.685
294.644
294.603
294.562
294.522
294.481
294.44
294.399
294.359
294.318
294.277
294.236
294.196
294.155
294.114
294.073
294.033
293.992
293.951
293.91
293.87
293.829
293.788
293.748
293.707
293.666
293.625
293.585
293.544
293.503
293.463
293.422
293.381
293.34
293.3
293.259
293.218
293.178
293.137
293.096
293.056
293.015
292.974
292.934
292.893
292.852