/*--------------------------------*- C++ -*----------------------------------*\
  =========                 |
  \\      /  F ield         | OpenFOAM: The Open Source CFD Toolbox
   \\    /   O peration     | Website:  https://openfoam.org
    \\  /    A nd           | Version:  9
     \\/     M anipulation  |
\*---------------------------------------------------------------------------*/
FoamFile
{
    format      ascii;
    class       surfaceScalarField;
    location    "11";
    object      phi;
}
// * * * * * * * * * * * * * * * * * * * * * * * * * * * * * * * * * * * * * //

dimensions      [0 3 -1 0 0 0 0];

internalField   nonuniform List<scalar> 
1300
(
1.7582594
5.6264299
-7.489701
1.7582594
-7.3392436
5.6264299
-6.240151
6.240151
-1.9742003
1.9742003
3.7326911
3.6519982
-5.6673132
5.6673132
-5.7930947
5.7930947
-3.8259613
3.8259613
-5.2376912
5.2376912
-5.055641
5.055641
4.7895764
-4.7895764
-5.9740066
5.9740066
-2.5980659
2.5980659
-5.8652376
5.8652376
1.4646705
-1.4646705
-6.1741169
6.1741169
-0.6733135
0.6733135
-0.58622676
5.1577011
1.1720326
1.1720326
-3.4728921
3.4728921
-4.8265802
4.8265802
6.2145345
-6.2145345
11.341971
-11.341971
-3.8522697
-4.0440301
1.6134597
-9.7007368
-5.7257838
-5.7257838
-8.4382738
8.4382738
-2.8118438
2.8145861
2.9904109
-2.9904109
-1.8126433
1.8126433
-6.2774221
0.037271129
-6.2774221
6.1765966
0.063554392
6.1765966
-2.1547881
0.1805877
-2.1547881
5.6103654
-5.6103654
1.7489789
0.22522143
1.7489789
1.7518345
-1.7518345
-3.7322245
7.4649156
3.6524648
-3.0632241
8.2209252
-3.3837269
7.0357251
-6.0545167
6.0545167
-5.6973757
0.030062561
-5.6973757
5.6577003
0.0096130052
5.6577003
-6.3206591
6.3206591
-5.7323737
-0.060721037
-5.7323737
5.8839103
-0.090815589
5.8839103
4.0825315
-4.0825315
-3.8559868
0.030025474
-3.8559868
3.7681079
0.057853428
3.7681079
0.35898471
5.2674452
-5.9854147
8.8000008
-5.2674453
0.029754083
5.2000336
0.037657576
5.2000336
-5.0930693
0.037428335
-5.0930693
5.0109733
0.044667666
5.0109733
4.8920941
-0.10251779
4.8920941
-4.8853827
0.095806331
-4.8853827
-3.9515175
-4.0005877
-6.0838286
0.10982194
-6.0838286
-2.6680986
0.070032698
-2.6680986
2.5256761
0.072389825
2.5256761
-4.4479394
4.4479394
-6.0424323
0.17719474
-6.0424322
1.4212341
0.04343642
1.4212341
2.0156709
2.5558034
3.7739302
-3.7739303
2.3092598
-6.1367872
-0.037329622
-6.1367872
-6.2118962
-5.1300746
6.2118962
-0.037779325
-1.1262738
0.45296031
-1.1262738
1.2716037
-0.099571094
1.2716037
3.6768409
0.091266931
-3.6768409
0.20394882
4.7027746
-4.7027746
2.6085195
0.86437257
2.6085195
-5.5843356
5.5843356
4.9438579
0.067115369
-4.9438579
0.11727775
6.154595
0.059939486
6.154595
-6.1928066
-0.021727893
-6.1928066
4.0597728
-8.1038029
-4.0437794
5.8535935
0.1204131
-5.8535935
0.12780966
3.3917268
-0.40131584
3.3917268
-2.8837404
2.8837404
-2.5886343
-0.40177659
-2.5886343
-2.1315592
0.3189159
-2.1315592
1.5631038
0.24953943
1.5631038
-6.0842288
-0.19319332
-6.0842287
-6.1126392
0.07020699
6.1126391
0.063957468
1.4951559
-1.4951559
-2.3066714
0.1518833
-2.3066714
-5.8036804
-0.28054836
5.8036804
-0.19331495
-5.5161629
-0.09420251
-5.5161629
-2.1574354
-0.43119889
2.1574354
-0.40560093
1.4516785
-0.18007477
-1.4516785
-0.30015593
-3.0558634
5.6116668
-3.3910876
7.0435524
-5.8296716
-0.22484506
-5.8296715
6.1966544
-0.14213773
6.1966544
5.808411
0.056826649
-5.8084111
0.11103542
5.6652013
-0.0075009874
5.6652013
-6.3137086
-0.0069505367
-6.3137086
6.3283787
-0.0077195525
6.3283787
5.6897072
-0.024505832
-5.6897072
-0.042666561
5.9819708
-0.098060478
5.9819707
4.1782079
-0.09567635
4.1782079
-3.9676914
-0.11484006
-3.9676914
3.6248638
-3.6248638
3.8152506
-0.19038679
-3.8152506
-0.040736192
-11.148708
11.12698
-0.035828665
-11.11288
5.164205
5.164205
4.0969171
0.79517699
4.0969171
-5.0681264
0.18274369
-5.0681264
3.9767991
-8.0205784
4.0130986
-7.9646162
4.0017381
-13.702475
3.9686518
-7.9692395
6.2550119
-6.2550119
6.1779552
0.077056617
-6.1779552
0.094126688
-2.6839177
0.015819051
-2.6839177
-3.9335957
-0.5143436
-3.9335957
4.9420254
-0.49408591
4.9420255
-2.0447986
2.0447986
-1.6625245
-0.38227405
1.6625245
-0.2412904
6.0701993
-0.088228591
-6.0701993
-0.066587886
1.4626884
0.28629051
-1.4626884
0.33641453
4.9748991
-0.27212447
4.9748991
-4.4496549
-0.25311975
-4.4496549
-2.6405801
-0.043337552
2.6405802
-0.032060648
-5.8255785
0.24124293
-5.8255785
-11.21343
0.10055001
-11.175772
-6.0922566
-6.0922566
2.3460172
11.146018
-3.7481205
-0.21957093
3.7481205
-0.35639367
2.4735769
-0.42877832
-2.4735769
-0.41016347
-3.2932014
-0.33166241
3.2932014
-0.40946097
-2.5564349
0.42487561
-2.5564348
-1.30831
1.30831
-1.4000211
0.091711031
1.4000211
0.16308268
1.8773088
-0.38215291
1.8773089
2.4273854
0.09829072
-2.4273854
0.12071399
-5.3449845
-0.1711784
-5.3449845
6.2791179
-0.082463458
6.2791178
-4.286481
-0.16317385
4.286481
-0.10827315
-0.035341327
11.162322
-5.1288636
0.03579432
5.1288636
-11.222261
11.258056
-3.14043
0.58399518
3.14043
0.9564871
5.3224661
0.26186949
-5.3224661
0.25433967
6.306209
0.022169704
-6.306209
0.051197125
-3.4481568
-0.48543891
-3.4481567
-5.4298077
-0.39986385
5.4298073
-0.48778187
-11.476603
-0.19256525
11.669168
-11.431935
6.0181438
0.13645125
-6.0181438
11.394507
-1.2922447
-0.20291115
1.2922448
0.016065199
2.3333242
-0.45601534
2.3333243
5.2068211
-0.231922
-5.2068211
-0.13816339
-6.3077776
-0.0059310239
6.3077776
-0.028659752
-2.8793741
-0.56878266
2.8793741
-0.54604982
-5.445772
5.346201
2.7751532
-4.0416282
-4.0621747
-9.1717027
2.5767024
3.0349645
4.8859621
-8.4604509
-5.242024
-8.3326413
7.2926893
-7.0383496
-9.5677153
9.4651975
9.9193446
-10.013547
-7.5093921
7.2681017
8.0752121
-8.480813
3.7532875
3.7116281
11.864317
-11.834255
-13.769061
13.544216
12.197192
-12.257913
12.990601
-12.997552
-14.885722
14.907892
-7.683705
7.7137305
-8.7439454
8.6291053
-9.0517209
8.9434477
-3.9339924
-4.0306238
10.885975
-10.776153
14.084904
-14.122233
-11.123968
11.301163
4.1900443
1.1561567
4.0099695
-3.6062964
7.359584
-3.4294287
6.2045818
4.0293755
-7.9633679
3.9912029
-8.0533776
7.2755844
6.8093192
-7.2378051
-1.9338977
-7.6028799
7.2015641
-7.5538506
7.1443896
12.065313
-12.028042
-3.5827063
7.2943344
-3.4608461
6.4958105
-3.7292538
-3.7801383
3.6858173
1.2001448
6.688615
4.1973601
-6.8090281
-1.5236132
-10.110585
9.8786629
-10.588305
10.335185
-0.48876707
5.807091
-5.318324
4.3378131
-1.4643084
7.2713994
5.8283809
6.0111245
5.8733135
-5.611444
1.1650361
-6.4833601
-6.3660823
-3.5276078
3.6794911
3.5124109
-3.2871895
7.8385972
2.0807474
7.6452823
-7.2058424
-2.8077047
-7.3770208
4.6710819
2.5970198
4.2888078
5.090353
2.984859
4.6591541
5.8603859
-5.8807128
0.020326993
-5.3294387
11.189825
1.4136216
-9.109577
-7.9094322
7.9496929
3.9146244
7.9593059
-7.8070829
-4.0271719
-7.6960474
-8.4789397
-5.2901215
-8.8788036
8.5983795
4.9458365
8.4562417
-9.825664
9.7970042
8.14338
4.0538115
8.0525644
-8.0440323
-4.2138804
-8.0866989
12.571309
-3.1471477
-9.424161
-8.3559946
-6.5297273
8.3637142
4.626887
9.0446159
5.8632757
9.095813
4.2543625
8.3169462
-8.8812494
2.3515221
-5.0451656
-2.6385394
-5.0859018
5.0002624
2.7134681
5.0581158
-5.2699424
-3.474003
-5.4895134
-5.5387937
-3.5129272
5.6344701
2.9946353
-5.7289169
-4.8593881
5.8920907
3.051357
3.6501557
-8.8921797
4.3190838
-8.3497076
-7.5764642
-3.199689
-7.4823375
4.895861
3.1375848
-8.0334458
-3.0675069
13.054782
-6.245463
11.120885
-8.7693296
-5.3529037
-8.8359174
-8.7064137
-2.4175542
-8.6362066
-9.1583029
8.672864
-8.6330072
8.1389214
15.14168
-6.6643165
-8.4773633
-4.6786346
-3.8021783
4.9787905
-0.968821
-7.1622766
7.1826036
0.19730736
6.4018892
7.5580459
6.5892249
-4.2557202
-3.2981304
-4.6658837
4.9959202
2.1484694
4.6642578
9.0216643
3.0436484
9.0852187
-8.5858735
-3.442168
-8.7790668
9.5775641
-9.2586482
3.9231023
-3.9664399
6.8888274
3.4463578
-6.6167029
-3.493882
8.0250608
-4.0346556
-3.9904052
-12.120842
10.72944
1.3914022
-4.8494424
-0.51162928
0.16168422
-5.6061006
-3.9616148
5.5102943
0.50083025
11.23027
7.268655
-5.5206033
5.7618462
6.1485648
6.2156801
-0.15040219
6.121391
-5.5373958
6.909472
-2.8963302
-4.0131419
6.9816916
-7.26224
-1.7973752
-7.0496822
5.252307
0.38304227
2.4569419
-2.0039816
-2.7883801
-0.73922769
-2.6676662
2.1057153
1.4066956
2.3920058
1.3016566
2.3778345
-3.9343628
0.72876731
3.2055955
-2.6327062
-2.5584222
-4.7560691
-1.3041348
6.0602039
7.2407203
2.6379426
-7.1025569
-0.27446397
3.6627356
-3.5903458
-1.1142558
-3.6418133
2.6762899
-3.7905457
-4.651964
-2.4242512
7.0762152
-3.5630447
-1.102839
3.991823
0.29698476
-4.2819833
-3.3208966
4.6837599
-0.024605742
-4.4828528
9.6988654
-5.2160126
-7.7809831
4.6269194
6.5629052
7.2239393
-8.9219287
4.5149318
4.4069969
-2.3590235
6.952606
1.0067
6.945105
-9.7345353
5.7073635
7.9759676
3.3251954
-8.0327943
0.33674694
-9.3977884
11.947507
-9.3482617
-2.5992458
6.9730685
4.9744389
7.045745
8.0959345
-6.456642
13.502387
0.19481164
-9.5430734
9.2029768
-5.8777814
5.1050172
-10.982799
-13.200952
3.6578785
-8.9528049
10.353913
-1.401108
-2.8038412
-7.0218228
11.756646
-1.3519554
-10.404691
7.1042863
-6.5314459
-6.4241658
12.955612
-9.6785936
10.638046
-3.2854008
-7.3526454
-8.2172861
-4.7802657
8.2232172
1.5737869
-11.930422
14.281944
-3.613476
7.105015
0.94754938
7.0069545
4.8574279
-7.1341549
2.276727
4.8211658
-8.1065666
3.4732773
-10.607432
-5.8405848
11.430556
-5.5899708
-9.0402738
-8.0782589
-0.96201486
2.433102
11.848842
-8.2963776
6.3877268
1.9086508
4.4008858
0.26337208
-4.2104989
-0.87540286
0.49482822
5.9311402
-6.4259684
5.552944
5.6442109
4.515796
1.4153442
4.9736439
2.2279202
-4.6172502
-0.87226311
-5.4077199
1.8947928
-2.4130846
-4.8089688
6.7037616
-5.3462396
0.5372708
-3.4915946
-4.8205016
8.3120961
-6.130134
4.9906528
4.7082126
7.1391222
-6.7266962
1.9061946
-3.4503188
-3.2763774
3.440045
-5.8531296
2.5808692
4.1228924
5.6322262
0.77283817
5.7988505
5.6317051
-8.9364352
0.58672766
9.8290652
-8.305452
2.0281066
7.0677064
-8.4158334
0.33757446
-7.144763
1.3275394
-7.5730024
-6.7059063
5.867617
-8.2851711
-5.115182
8.0828331
1.0023855
-8.1467906
-0.489416
-6.3593189
-2.798984
-6.9281016
-2.5769924
-6.0560147
-9.0336346
-2.1025057
-6.9311288
6.5703582
-6.0837008
-2.7951028
6.5714828
1.5674386
-8.1801256
7.9772144
-8.28034
7.8243247
0.29044465
6.892159
6.8796696
3.0774913
-4.5331355
7.6106267
-6.6253044
9.6689528
-11.240424
4.6151193
5.3277801
-8.7699481
-5.9126437
5.4961303
4.0814336
5.7456697
9.5677412
-10.58201
1.0142688
-10.966365
13.117976
-2.1516113
-17.217341
6.2509764
-7.6496003
3.6085491
0.31455318
3.6243682
0.91461373
3.1951722
-4.1097859
-3.0518261
-3.0838868
-3.0058093
-4.4244439
7.4302532
1.4547164
-4.4061528
2.9514364
-4.5534839
6.0082003
-0.13848597
-4.2676668
6.9323246
-3.7371524
7.2468778
-4.6919699
2.5549079
4.2879083
7.2734761
-2.9855678
5.6353591
-2.1890013
2.2829669
-5.2685348
-2.141477
-4.0273188
6.7407869
-4.2847774
4.8220481
-0.31481842
5.1368666
-5.3356284
1.3009728
-0.81983238
4.8243786
5.0283274
5.4816086
-4.0662644
3.7773314
-5.9663326
-1.4912034
-5.1934945
-1.0706021
-0.66034909
-4.9182482
5.5785973
6.5755764
-7.2359255
-5.3804059
9.7381978
-4.3577919
8.0927876
-5.5801151
-2.5126726
-4.5800298
-4.6786184
4.1551542
1.9662367
10.059024
0.27064032
-5.8507554
-5.2667555
-4.3102684
4.297343
2.612129
-2.5813969
3.9727991
2.4197127
0.037229236
0.87360691
1.5183989
2.5165429
-1.642936
0.14916824
2.3673747
-1.8548134
2.6861779
0.97655771
-2.7844686
0.11680243
-1.8698933
4.5461832
1.3357022
-2.7423978
1.0994618
1.6301991
-4.5265293
6.233043
-3.0036666
-3.2293764
7.8632421
1.5925814
-4.5962479
5.4571009
-5.0740586
3.0299789
-4.3341138
-1.566269
-6.6403276
-4.5595801
-3.1967558
6.1481922
-4.2334974
6.87144
1.4962282
-6.596976
8.0932042
-4.6078085
2.1835574
-4.0593547
5.0359124
-1.4003918
-2.6589629
3.5561297
3.5200854
-3.7299223
0.08810898
-0.17379257
3.0350203
-3.2088129
-0.75552539
-3.3882316
-7.017144
6.9925383
-3.5783418
8.0932736
4.032285
-3.0440989
11.137372
3.3261894
-6.3702883
-4.4547938
-5.5576327
-1.9632913
5.2606479
-1.191544
-6.8951549
-8.5441894
6.9196608
0.025444211
-10.258004
12.145334
-1.8873306
-6.3433794
0.63601581
6.3370527
-9.1400283
1.0334617
-5.666751
6.4785836
7.4852836
7.5107278
-10.809085
0.40439468
-5.8632489
2.1799846
-8.0432335
7.1544235
-4.9726443
8.6305223
-10.097181
7.3020786
-8.5297426
6.0312763
-2.0119572
6.6516115
-4.3748846
2.7725495
-7.5528152
-5.9790282
8.4131098
-4.3592982
9.3606591
-4.9828374
14.343496
-8.5963134
8.4004812
5.9430152
-1.7391333
-7.0967841
-8.222423
6.4832897
0.17805822
7.1850127
6.7828526
-4.5549324
5.9105895
3.4165431
-6.8668618
-2.4365866
-9.7462818
2.87942
-5.0380692
-2.3995186
5.2789386
4.7396036
5.0029757
2.0025612
-4.1275728
7.988559
-8.9505739
-2.3985883
-4.3073181
8.0913181
-1.6080284
4.834588
-9.1419061
-2.7384144
6.3794252
-0.82637249
-5.5530527
0.28489101
-5.400073
1.8271785
-7.2272514
6.4579925
-6.9474085
2.4110212
-10.060622
-5.7691043
-5.7530392
-2.5564751
-5.7238648
-8.1221732
5.5656981
-1.8711967
6.1060176
-9.0885295
8.2621572
-4.0294473
9.5951455
-5.8577167
-1.0703849
6.4037667
1.420558
11.015704
0.21928042
-6.1319242
-2.5110196
5.3264384
-2.8154187
1.7863233
-4.6989679
0.62747048
3.3374256
4.5258165
-8.5897326
-0.18021554
-6.3121398
-4.1661944
8.247628
5.5720033
12.14758
1.5655696
9.383465
-1.135837
10.949035
4.6098327
4.7729153
-4.1967118
5.2109806
1.3818852
5.9970045
-1.1571738
3.7120817
2.4671943
2.537227
1.0531188
3.0857932
1.9425342
4.386766
0.27698005
-2.8069067
4.7403401
-9.0506085
-1.1104153
-8.2554316
1.209766
5.9319844
-4.7222185
4.2358467
-1.6237177
1.4204279
0.24107409
-2.5824792
2.3414052
-3.7720678
-2.54525
-0.17787535
-2.0009521
3.1004139
2.5452311
-2.9225385
-0.84952928
0.39565693
-4.9552371
3.9384568
-3.8503479
-0.33026245
7.7629418
-3.6039676
0.39515472
-1.4204102
-2.9930769
-3.7323046
3.6155022
10.458341
0.67903121
5.2423287
7.6715695
4.3506729
-0.20425948
5.9477903
-7.3488983
-4.6596419
-6.9445037
0.20991977
6.5469724
2.4884791
9.3603633
8.4314943
6.8234659
-2.3184402
-11.269014
8.6335401
-3.4225595
6.4819291
-0.92887667
-6.2983747
6.3630782
3.3058745
-7.3654636
0.41805513
-5.8803195
-9.302879
-0.66388818
8.9260455
-10.351816
9.2814308
6.4824464
0.44868244
-4.8604203
-0.89261888
4.7687094
0.0042058925
10.95324
-1.2193471
-7.2369229
8.45627
-4.7126373
3.602222
1.064576
2.9082231
3.4059811
1.7822634
-5.4546596
-10.176878
-2.4011592
-2.1253701
-5.6305356
0.42966835
-2.9748994
6.3277588
-2.7255368
3.8150862
5.7307331
7.151161
-2.105114
-5.1308116
6.462906
-2.6478198
4.5033412
)
;

boundaryField
{
    wall-4
    {
        type            calculated;
        value           uniform 0;
    }
    velocity-inlet-5
    {
        type            calculated;
        value           nonuniform List<scalar> 8(-1.7582594 -1.7582594 -7.3846893 -4.5714743 -7.3846893 -6.446951 -4.5714743 -6.446951);
    }
    velocity-inlet-6
    {
        type            calculated;
        value           uniform -5.6264299;
    }
    pressure-outlet-7
    {
        type            calculated;
        value           nonuniform List<scalar> 8(7.489701 7.3392436 7.8962998 8.087277 7.9521052 8.1035522 7.9898977 7.9703899);
    }
    wall-8
    {
        type            calculated;
        value           uniform 0;
    }
    frontAndBackPlanes
    {
        type            empty;
        value           nonuniform List<scalar> 0();
    }
}


// ************************************************************************* //
