/*--------------------------------*- C++ -*----------------------------------*\
  =========                 |
  \\      /  F ield         | OpenFOAM: The Open Source CFD Toolbox
   \\    /   O peration     | Website:  https://openfoam.org
    \\  /    A nd           | Version:  9
     \\/     M anipulation  |
\*---------------------------------------------------------------------------*/
FoamFile
{
    format      ascii;
    class       volScalarField;
    location    "14";
    object      p;
}
// * * * * * * * * * * * * * * * * * * * * * * * * * * * * * * * * * * * * * //

dimensions      [0 2 -2 0 0 0 0];

internalField   nonuniform List<scalar> 
400
(
3.887114e-09
-0.00067345634
-0.0013856584
-0.0019424157
-0.0022190067
-0.0021548541
-0.0017256435
-0.00092380026
0.00023776703
0.0017093825
0.003388676
0.0051129695
0.0066738232
0.0078494217
0.008459216
0.0084255228
0.0078165659
0.0068490863
0.0058667962
0.0053047791
0.0006557967
-4.2338379e-05
-0.00057114866
-0.00094161828
-0.0011112127
-0.0010395652
-0.00070475228
-9.3959122e-05
0.00079102384
0.0019181901
0.0032114566
0.0045563586
0.0057834872
0.0067179032
0.0072165484
0.0072174781
0.0067739493
0.0060578147
0.0053163173
0.004744662
0.0014196017
0.00043748541
-0.00011918187
-0.00045522347
-0.00061603793
-0.00058514516
-0.00034596794
0.00012121424
0.00083059596
0.0017724245
0.0028969194
0.0041007452
0.0052307619
0.0061135998
0.0065968996
0.0066014343
0.0061604919
0.005427284
0.0046003165
0.003755259
0.002008387
0.00067738085
1.3299032e-05
-0.00036152989
-0.000573229
-0.00062702879
-0.00050923465
-0.00018852376
0.00037165289
0.00118822
0.002234042
0.0034215628
0.0045953701
0.0055608903
0.0061277251
0.0061713318
0.0056893235
0.0048238008
0.003754989
0.0024820596
0.0021603721
0.00049117228
-0.00030013305
-0.00075154137
-0.0010597427
-0.0012450977
-0.0012907454
-0.001147514
-0.00074974496
-4.6756979e-05
0.00096384154
0.0022171127
0.0035512224
0.0047387997
0.0055278297
0.0057161525
0.0052362955
0.0042096378
0.0028153031
0.00099421859
0.0016469602
-0.00031925818
-0.0012422905
-0.0018014617
-0.0022530247
-0.002626028
-0.0028942529
-0.002984265
-0.0027936124
-0.0022272831
-0.0012400564
0.00014196372
0.0017551125
0.003336689
0.0045504559
0.0050742897
0.0047263119
0.0035758465
0.0018004089
-0.00071356615
0.0002811514
-0.0019231478
-0.0029751318
-0.0036718234
-0.0043183997
-0.004948363
-0.0055220092
-0.0059365945
-0.006044824
-0.0056911556
-0.0047583777
-0.0032415182
-0.0012503419
0.00092178166
0.0028360874
0.0039985757
0.0040363655
0.0028993527
0.00072813868
-0.0026658318
-0.0020798304
-0.0044524449
-0.0056264965
-0.0064899543
-0.0073876193
-0.0083567526
-0.0093437679
-0.010214492
-0.010770051
-0.010781257
-0.010038395
-0.0084368242
-0.0060171779
-0.003061933
-0.00010773266
0.0021287415
0.0029783309
0.0021496559
-0.00035113569
-0.0048555429
-0.0055238576
-0.0079900333
-0.0092742306
-0.010327686
-0.011528373
-0.012921318
-0.014443598
-0.015932179
-0.017133874
-0.017734126
-0.017404397
-0.015885717
-0.013090797
-0.0092225621
-0.0048735944
-0.0010084465
0.0012879143
0.0012946585
-0.0013168718
-0.0071823683
-0.010071956
-0.012558956
-0.013928963
-0.01517362
-0.016703985
-0.018583107
-0.020748924
-0.023017692
-0.02508547
-0.026546284
-0.026927162
-0.025770491
-0.022805027
-0.018037253
-0.012018537
-0.0059244777
-0.0013478125
0.00032047481
-0.0019281368
-0.0093612168
-0.015674929
-0.018121935
-0.019525704
-0.020912178
-0.022738819
-0.025105421
-0.027966289
-0.031129386
-0.034248886
-0.036830137
-0.038245159
-0.037794627
-0.035018601
-0.02955806
-0.021784192
-0.01295308
-0.0051581152
-0.00069327529
-0.0017437683
-0.010770611
-0.022228574
-0.024598478
-0.025930034
-0.027316788
-0.029301738
-0.032051179
-0.035554457
-0.039623717
-0.043880729
-0.047750746
-0.05047782
-0.051185021
-0.048907225
-0.043097799
-0.033728426
-0.02189159
-0.01000804
-0.001391709
1.0750418e-05
-0.010204984
-0.029621969
-0.031906054
-0.032960499
-0.034059519
-0.035915312
-0.038801942
-0.042759747
-0.047609427
-0.052943064
-0.058112623
-0.062232114
-0.064214648
-0.062827479
-0.057069066
-0.046438821
-0.031616546
-0.015010601
-0.00084193227
0.0046656777
-0.0055040655
-0.037843847
-0.040028663
-0.040420711
-0.040731858
-0.041991298
-0.044624453
-0.048723617
-0.054103494
-0.060310601
-0.066617136
-0.072012318
-0.075222347
-0.074769882
-0.069233338
-0.057597974
-0.03993615
-0.018226796
0.0028066604
0.014459769
0.0069195192
-0.047207345
-0.049114175
-0.048121869
-0.046863543
-0.046884628
-0.04877354
-0.052637446
-0.058239385
-0.065034906
-0.072188593
-0.078553083
-0.082673272
-0.082847026
-0.077283119
-0.06450422
-0.043920376
-0.016736822
0.012512078
0.032946255
0.032413526
-0.058874775
-0.059621423
-0.055868132
-0.051926565
-0.049956645
-0.050610295
-0.053903274
-0.059464117
-0.066575954
-0.074247352
-0.081154496
-0.085647273
-0.085806698
-0.079505372
-0.064867139
-0.040686256
-0.0072415273
0.032137911
0.064979753
0.077745462
-0.076208402
-0.072599374
-0.063505701
-0.055427355
-0.050716386
-0.049768831
-0.052293468
-0.057638994
-0.064861354
-0.072742259
-0.079747992
-0.084010271
-0.083372852
-0.075339398
-0.057602076
-0.028381762
0.012922088
0.065385637
0.11554081
0.15149444
-0.10808007
-0.089547946
-0.071230188
-0.057232378
-0.049070799
-0.046324345
-0.048064555
-0.0531827
-0.060409065
-0.068267628
-0.075000197
-0.078504456
-0.076374144
-0.065804216
-0.043869498
-0.007830339
0.044376832
0.11298008
0.18836301
0.27184271
-0.17683907
-0.10828598
-0.076204627
-0.054656381
-0.042996563
-0.03899734
-0.040562567
-0.045912486
-0.053419883
-0.061413519
-0.06800324
-0.07094249
-0.067538676
-0.054735563
-0.029153522
0.013550985
0.07812899
0.17004397
0.28947488
0.47419818
-0.37207724
-0.12470606
-0.054976422
-0.031969673
-0.02207042
-0.020303025
-0.024354976
-0.031945853
-0.041242905
-0.050618291
-0.058293716
-0.062167099
-0.059767915
-0.048050924
-0.022661441
0.021463653
0.092802536
0.21013372
0.40286877
0.77638994
)
;

boundaryField
{
    movingWall
    {
        type            zeroGradient;
    }
    fixedWalls
    {
        type            zeroGradient;
    }
    frontAndBack
    {
        type            empty;
    }
}


// ************************************************************************* //
