/*--------------------------------*- C++ -*----------------------------------*\
  =========                 |
  \\      /  F ield         | OpenFOAM: The Open Source CFD Toolbox
   \\    /   O peration     | Website:  https://openfoam.org
    \\  /    A nd           | Version:  9
     \\/     M anipulation  |
\*---------------------------------------------------------------------------*/
FoamFile
{
    format      ascii;
    class       surfaceScalarField;
    location    "14";
    object      phi;
}
// * * * * * * * * * * * * * * * * * * * * * * * * * * * * * * * * * * * * * //

dimensions      [0 3 -1 0 0 0 0];

internalField   nonuniform List<scalar> 
760
(
1.2671262e-05
-1.2670576e-05
-2.8732986e-05
4.1404083e-05
-0.00012222294
9.3489956e-05
-0.00025020873
0.00012798577
-0.00039574741
0.00014553871
-0.00054491742
0.00014916992
-0.00068566
0.00014074257
-0.00080616619
0.00012050612
-0.00089415141
8.7985258e-05
-0.00093756802
4.3416626e-05
-0.00092649328
-1.1074735e-05
-0.00085618427
-7.0308972e-05
-0.00072990594
-0.00012627835
-0.00056100055
-0.00016890544
-0.00037259804
-0.00018840248
-0.0001944549
-0.00017814296
-5.6585919e-05
-0.00013786878
1.9533723e-05
-7.6119549e-05
3.0366827e-05
-1.0833012e-05
3.0366975e-05
-4.3155028e-05
3.0484252e-05
-0.00020438854
0.00020263743
-0.00046788023
0.00035698143
-0.00079991938
0.0004600246
-0.0011661818
0.00051180097
-0.0015349033
0.00051789128
-0.0018763443
0.00048218343
-0.0021615385
0.00040570018
-0.0023622502
0.00028869705
-0.0024530415
0.00013420806
-0.0024159641
-4.815212e-05
-0.0022434458
-0.0002428272
-0.0019460165
-0.00042370751
-0.0015533593
-0.00056156242
-0.0011136381
-0.00062812332
-0.00068715304
-0.00060462776
-0.0003344519
-0.00049056989
-0.00010093614
-0.00030963532
-1.5904846e-06
-0.0001101786
2.8776691e-05
-0.00010991142
0.00014039569
-0.00040259383
0.00049531968
-0.00083047839
0.00078486593
-0.0013441478
0.00097369399
-0.0018965417
0.0010641946
-0.0024439641
0.0010653136
-0.0029449359
0.00098315525
-0.0033591701
0.00081993447
-0.0036482571
0.00057778412
-0.0037786915
0.00026464247
-0.0037264039
-0.00010043981
-0.0034827789
-0.00048645214
-0.003060768
-0.00084571831
-0.0024980952
-0.0011242351
-0.001856952
-0.0012692664
-0.0012174087
-0.001244171
-0.00066341443
-0.0010445641
-0.00026301235
-0.00071003722
-4.7967033e-05
-0.00032522385
-1.9190408e-05
-0.00017323184
0.00031362746
-0.00059259224
0.00091468019
-0.001176329
0.0013686025
-0.0018562547
0.0016536196
-0.0025740379
0.0017819778
-0.0032777413
0.0017690169
-0.0039186495
0.0016240635
-0.0044495839
0.0013508688
-0.0048255058
0.00095370619
-0.005006506
0.00044564265
-0.0049627799
-0.00014416586
-0.0046804176
-0.00076881449
-0.0041689583
-0.0013571775
-0.0034664659
-0.0018267275
-0.0026421096
-0.0020936227
-0.0017920098
-0.002094271
-0.0010252364
-0.0018113374
-0.0004399908
-0.0012952829
-9.6691113e-05
-0.00066852342
-0.00011588156
-0.00022950998
0.00054313724
-0.00076415595
0.0014493263
-0.001489746
0.0020941926
-0.002319917
0.0024837905
-0.0031866377
0.0026486983
-0.0040325376
0.0026149168
-0.0048051192
0.0023966452
-0.0054536104
0.0019993599
-0.0059286168
0.0014287126
-0.0061842772
0.00070130299
-0.0061831262
-0.00014531688
-0.0059007771
-0.0010511637
-0.0053362744
-0.0019216801
-0.0045197659
-0.0026432359
-0.0035204842
-0.0030929045
-0.0024481529
-0.0031666025
-0.0014416181
-0.0028178722
-0.00064084887
-0.0020960519
-0.00014875788
-0.0011606143
-0.00026463942
-0.00027696169
0.00082009887
-0.00091048963
0.0020828543
-0.001758761
0.0029424638
-0.0027198715
0.003444901
-0.0037183476
0.0036471742
-0.0046940178
0.003590587
-0.0055935686
0.0032961959
-0.0063654277
0.0027712189
-0.0069577495
0.0020210344
-0.0073188694
0.0010624229
-0.0074017385
-6.2447764e-05
-0.0071664111
-0.001286491
-0.0065942282
-0.0024938628
-0.0056977974
-0.0035396668
-0.0045370214
-0.0042536806
-0.0032297642
-0.0044738597
-0.0019477975
-0.0040998388
-0.00088674365
-0.0031571055
-0.00021146732
-0.0018358906
-0.00047610658
-0.00031376523
0.001133864
-0.0010252467
0.0027943358
-0.0019714899
0.0038887069
-0.0030387686
0.0045121795
-0.0041468207
0.0047552262
-0.0052352637
0.0046790299
-0.0062527814
0.0043137135
-0.0071498203
0.0036682577
-0.0078744555
0.0027456696
-0.0083709294
0.0015588969
-0.0085796476
0.00014627068
-0.0084459431
-0.0014201953
-0.0079246517
-0.003015154
-0.007000803
-0.0044635156
-0.0057117092
-0.0055427744
-0.0041711661
-0.0060144027
-0.0025803516
-0.0056906532
-0.0012034033
-0.0045340539
-0.00029432725
-0.0027449667
-0.00077043369
-0.00033792518
0.001471789
-0.0011021622
0.0035585728
-0.0021157764
0.0049023209
-0.0032571501
0.0056535532
-0.0044438504
0.0059419264
-0.0056177161
0.0058528955
-0.0067321785
0.0054281758
-0.0077428503
0.0046789296
-0.0086010859
0.0036039052
-0.0092499472
0.0022077584
-0.009621834
0.00051815777
-0.0096442733
-0.0013977558
-0.0092444222
-0.0034150051
-0.0083698954
-0.0053380424
-0.0070186863
-0.0068939836
-0.0052792348
-0.0077538542
-0.0033659821
-0.0076039058
-0.0016165244
-0.0062835117
-0.0004080417
-0.0039534493
-0.0011784753
-0.00034790272
0.0018196916
-0.0011364152
0.0043470853
-0.002181302
0.0059472076
-0.0033564235
0.0068286746
-0.0045793999
0.0071649026
-0.005796453
0.0070699486
-0.0069684462
0.006600169
-0.0080596897
0.0057701731
-0.0090293662
0.0045735818
-0.0098249249
0.0030033174
-0.010377286
0.0010705193
-0.010600669
-0.0011743727
-0.010397106
-0.0036185679
-0.0096714881
-0.0060636608
-0.0083656562
-0.0081998155
-0.0065132265
-0.0096062839
-0.0043081571
-0.0098089753
-0.0021473964
-0.0084442724
-0.00056465258
-0.005536193
-0.0017431278
-0.00034378808
0.0021634796
-0.0011273739
0.0051306711
-0.0021637806
0.0069836142
-0.0033245106
0.0079894046
-0.0045290027
0.0083693947
-0.0057298376
0.0082707836
-0.0068979291
0.0077682605
-0.0080100181
0.0068822622
-0.0090384791
0.0056020428
-0.0099426845
0.0039075228
-0.010661182
0.0017890172
-0.011104558
-0.00073099719
-0.011161234
-0.0035618922
-0.010694932
-0.006529963
-0.0095804467
-0.0093143007
-0.0077648167
-0.011421914
-0.0053699588
-0.012203833
-0.0028062555
-0.011007976
-0.00077806584
-0.0075643826
-0.0025211935
-0.00032889418
0.0024923738
-0.0010823282
0.0058841051
-0.0020705438
0.0079718299
-0.003163222
0.0090820829
-0.0042833878
0.0094895607
-0.0053922882
0.0093796841
-0.0064736092
0.0088495814
-0.0075201237
0.0079287766
-0.0085226406
0.0066045597
-0.0094602091
0.0048450913
-0.010291299
0.0026201072
-0.01093311
-8.9186499e-05
-0.011282968
-0.0032120344
-0.01117313
-0.0066398007
-0.010414901
-0.01007253
-0.0088456866
-0.012991128
-0.0064546875
-0.014594832
-0.0035807479
-0.013881915
-0.00106392
-0.010081211
-0.0035851135
-0.00031191581
0.0028042897
-0.0010210188
0.0065932082
-0.0019266377
0.0088774488
-0.002895665
0.01005111
-0.0038577818
0.010451678
-0.0047866735
0.010308576
-0.005682121
0.0097450289
-0.0065560735
0.0088027291
-0.0074217573
0.0074702434
-0.0082838856
0.0057072196
-0.0091272819
0.0034635034
-0.0099107759
0.00069430741
-0.010529115
-0.0025936951
-0.010828425
-0.0063404903
-0.010574446
-0.010326509
-0.009493395
-0.014072179
-0.0073908369
-0.016697391
-0.0044184549
-0.016854297
-0.0014369585
-0.013062707
-0.0050220718
-0.00031031722
0.003114607
-0.0009811346
0.0072640256
-0.0017803574
0.0096766717
-0.0025711903
0.010841943
-0.0032969011
0.011177388
-0.0039506511
0.010962326
-0.0045531385
0.010347516
-0.0051383192
0.0093879097
-0.0057437478
0.0080756721
-0.0064025461
0.0063660179
-0.0071342129
0.0041951702
-0.0079342496
0.0014943442
-0.0087424924
-0.0017854522
-0.0094335179
-0.0056494648
-0.0097709954
-0.0099890317
-0.0094018654
-0.014441309
-0.007931224
-0.018168032
-0.0052061863
-0.019579335
-0.0019024737
-0.01636642
-0.0069245455
-0.00035643938
0.0034710466
-0.0010251474
0.0079327335
-0.0017062291
0.010357753
-0.0022636203
0.011399335
-0.0026692868
0.011583055
-0.0029482136
0.011241252
-0.0031489724
0.010548275
-0.0033299814
0.0095689187
-0.0035525615
0.0082982523
-0.0038765283
0.0066899847
-0.0043546231
0.004673265
-0.0050236507
0.0021633718
-0.0058815323
-0.00092757059
-0.0068622128
-0.0046687844
-0.0077799048
-0.0090713398
-0.0082684812
-0.013952733
-0.0077703042
-0.018666209
-0.0057516937
-0.021597946
-0.0024367128
-0.019681401
-0.0093612586
-0.00050874781
0.0039797946
-0.0012470556
0.0086710412
-0.0017983956
0.010909093
-0.0020515766
0.011652516
-0.002037029
0.011568507
-0.0018307177
0.011034941
-0.0015180431
0.0102356
-0.0011840614
0.009234937
-0.00091105883
0.0080252499
-0.00078002926
0.0065589552
-0.00086961665
0.0047628524
-0.001253182
0.0025469372
-0.0019882402
-0.00019251251
-0.0030867379
-0.003570287
-0.0044642062
-0.0076938716
-0.00583077
-0.012586169
-0.0065683771
-0.017928602
-0.0057695466
-0.022396776
-0.0029514793
-0.022499468
-0.012312738
-0.00086905676
0.0048488515
-0.0017644892
0.0095664735
-0.0021240629
0.011268667
-0.0019407513
0.011469204
-0.0013558895
0.010983646
-0.00052199123
0.010201043
0.00043066261
0.0092829461
0.0013929401
0.0082726593
0.0022656601
0.0071525298
0.0029543701
0.0058702451
0.003362943
0.0043542795
0.0033910424
0.0025188379
0.0029333115
0.0002652184
0.0019049416
-0.002541917
0.00026564591
-0.0060545757
-0.0018574735
-0.01046305
-0.003954026
-0.015832049
-0.0048622055
-0.021488597
-0.0032551269
-0.024106547
-0.015567865
-0.0015914744
0.006440326
-0.0026121269
0.010587126
-0.0025155336
0.011172074
-0.0015934734
0.010547144
-0.00017679586
0.0095669682
0.0014873132
0.0085369336
0.0032268283
0.0075434311
0.0049168732
0.0065826145
0.0064566175
0.0056127856
0.0077513498
0.0045755128
0.0087017711
0.0034038582
0.0091962995
0.0020243095
0.0090987537
0.00036276408
0.0082711106
-0.0017142739
0.0065620808
-0.0043455458
0.0039014794
-0.0078024486
0.00055693058
-0.0124875
-0.0024693575
-0.018462309
-0.0030278072
-0.023548097
-0.018595672
-0.0027185091
0.0091588352
-0.0031505244
0.011019142
-0.0018044844
0.0098260339
0.00046424636
0.0082784131
0.0030860042
0.0069452104
0.0057695597
0.0058533781
0.0083580252
0.0049549657
0.01075516
0.0041854794
0.012888167
0.0034797792
0.014685503
0.0027781765
0.01606357
0.0020257912
0.016919038
0.0011688413
0.017116088
0.00016571395
0.016487832
-0.0010860175
0.014814426
-0.0026721405
0.011844748
-0.0048327708
0.0074340201
-0.0080767722
0.0022619604
-0.013290249
-0.0012729115
-0.020013225
-0.019868584
-0.0024131534
0.011571988
2.8093197e-05
0.0085778951
0.0042547952
0.0055993321
0.0084151429
0.0041180656
0.01222975
0.0031306033
0.015653792
0.002429336
0.018683465
0.0019252929
0.021325698
0.0015432463
0.023579828
0.0012256493
0.025425637
0.00093236749
0.026816876
0.00063455223
0.027674362
0.0003113542
0.027897856
-5.7779675e-05
0.027345457
-0.00053361928
0.025770367
-0.0010970504
0.022842164
-0.0019045674
0.018054148
-0.0032887568
0.011113176
-0.0063492762
0.0033885019
-0.012288551
-0.016480082
0.011571988
0.020149884
0.025749216
0.029867281
0.032997885
0.03542722
0.037352513
0.038895759
0.040121409
0.041053776
0.041688328
0.041999682
0.041941903
0.041408284
0.040311233
0.038406666
0.035117909
0.028768633
0.016480082
)
;

boundaryField
{
    movingWall
    {
        type            calculated;
        value           uniform 0;
    }
    fixedWalls
    {
        type            calculated;
        value           uniform 0;
    }
    frontAndBack
    {
        type            empty;
        value           nonuniform List<scalar> 0();
    }
}


// ************************************************************************* //
