/*--------------------------------*- C++ -*----------------------------------*\
  =========                 |
  \\      /  F ield         | OpenFOAM: The Open Source CFD Toolbox
   \\    /   O peration     | Website:  https://openfoam.org
    \\  /    A nd           | Version:  9
     \\/     M anipulation  |
\*---------------------------------------------------------------------------*/
FoamFile
{
    format      ascii;
    class       surfaceScalarField;
    location    "14";
    object      phi_0;
}
// * * * * * * * * * * * * * * * * * * * * * * * * * * * * * * * * * * * * * //

dimensions      [0 3 -1 0 0 0 0];

internalField   nonuniform List<scalar> 
760
(
1.2662371e-05
-1.267914e-05
-2.8738117e-05
4.1400549e-05
-0.00012222601
9.3487939e-05
-0.00025021016
0.00012798421
-0.00039574749
0.00014553737
-0.00054491619
0.00014916876
-0.00068565773
0.00014074157
-0.00080616302
0.00012050531
-0.00089414772
8.7984715e-05
-0.00093756409
4.3416393e-05
-0.00092648944
-1.1074632e-05
-0.00085618092
-7.0308522e-05
-0.00072990336
-0.00012627758
-0.0005609989
-0.00016890449
-0.00037259734
-0.00018840158
-0.000194455
-0.00017814234
-5.6586431e-05
-0.00013786854
1.9533241e-05
-7.611964e-05
3.0366614e-05
-1.0833372e-05
3.0366625e-05
-4.3158273e-05
3.0479189e-05
-0.00020439088
0.00020263317
-0.00046788059
0.00035697754
-0.00079991721
0.00046002083
-0.0011661771
0.00051179724
-0.0015348962
0.00051788783
-0.0018763351
0.00048218044
-0.0021615276
0.00040569782
-0.0023622384
0.00028869553
-0.0024530295
0.00013420757
-0.0024159527
-4.8151428e-05
-0.0022434357
-0.00024282539
-0.0019460084
-0.00042370485
-0.0015533535
-0.00056155936
-0.0011136346
-0.00062812037
-0.00068715154
-0.00060462536
-0.00033445164
-0.00049056833
-0.00010093638
-0.00030963478
-1.5906065e-06
-0.00011017899
2.8775957e-05
-0.00010991238
0.00014039163
-0.00040259343
0.00049531429
-0.00083047542
0.00078485948
-0.0013441415
0.000973687
-0.0018965318
0.0010641876
-0.0024439509
0.0010653069
-0.0029449199
0.00098314945
-0.0033591521
0.00081993002
-0.003648238
0.00057778148
-0.0037786723
0.00026464194
-0.0037263857
-0.00010043809
-0.0034827627
-0.00048644835
-0.0030607546
-0.00084571293
-0.0024980851
-0.0011242288
-0.0018569453
-0.0012692602
-0.0012174048
-0.0012441658
-0.00066341274
-0.0010445604
-0.00026301198
-0.00071003548
-4.7967133e-05
-0.00032522383
-1.9191188e-05
-0.00017323153
0.00031362308
-0.00059258973
0.00091467254
-0.0011763229
0.0013685926
-0.0018562445
0.0016536086
-0.0025740234
0.0017819665
-0.0032777228
0.0017690064
-0.0039186277
0.0016240544
-0.0044495597
0.001350862
-0.0048254805
0.00095370237
-0.0050064807
0.00044564221
-0.004962756
-0.00014416278
-0.0046803961
-0.00076880821
-0.0041689402
-0.0013571687
-0.0034664518
-0.0018267173
-0.0026420995
-0.0020936124
-0.0017920034
-0.0020942618
-0.0010252331
-0.0018113306
-0.0004399896
-0.001295279
-9.6691004e-05
-0.00066852242
-0.00011588218
-0.00022950888
0.00054313189
-0.0007641518
0.0014493156
-0.0014897376
0.0020941784
-0.0023199036
0.0024837746
-0.0031866194
0.0026486823
-0.004032515
0.002614902
-0.0048050931
0.0023966326
-0.0054535818
0.0019993507
-0.005928587
0.0014287076
-0.0061842475
0.00070130274
-0.0061830979
-0.00014531228
-0.0059007513
-0.0010511547
-0.0053362523
-0.0019216677
-0.0045197481
-0.0026432214
-0.0035204709
-0.0030928895
-0.0024481439
-0.0031665887
-0.001441613
-0.0028178614
-0.00064084685
-0.0020960452
-0.0001487575
-0.0011606118
-0.00026463964
-0.00027696019
0.00082009203
-0.00091048446
0.00208284
-0.001758751
0.0029424449
-0.0027198563
0.00344488
-0.0037183272
0.0036471532
-0.0046939929
0.0035905677
-0.0055935401
0.0032961799
-0.0063653967
0.0027712073
-0.0069577173
0.0020210283
-0.0073188373
0.0010624227
-0.0074017077
-6.2441826e-05
-0.0071663827
-0.0012864797
-0.0065942033
-0.0024938471
-0.0056977766
-0.003539648
-0.0045370053
-0.0042536608
-0.003229753
-0.004473841
-0.0019477909
-0.0040998235
-0.00088674077
-0.0031570953
-0.00021146661
-0.0018358859
-0.00047610618
-0.00031376356
0.0011338556
-0.0010252412
0.0027943177
-0.0019714795
0.0038886831
-0.0030387529
0.0045121534
-0.0041468
0.0047552004
-0.0052352388
0.0046790065
-0.006252753
0.0043136941
-0.0071497896
0.003668244
-0.0078744236
0.0027456624
-0.0083708976
0.0015588967
-0.0085796168
0.00014627743
-0.0084459144
-0.0014201821
-0.0079246259
-0.0030151355
-0.0070007807
-0.0044634932
-0.0057116912
-0.0055427501
-0.0041711531
-0.0060143791
-0.0025803436
-0.0056906329
-0.0012033995
-0.0045340393
-0.00029432622
-0.002744959
-0.00077043232
-0.00033792358
0.0014717791
-0.0011021571
0.0035585512
-0.0021157667
0.0049022927
-0.0032571357
0.0056535224
-0.0044438315
0.0059418962
-0.0056176934
0.0058528684
-0.0067321529
0.0054281537
-0.0077428228
0.0046789139
-0.0086010574
0.003603897
-0.0092499187
0.002207758
-0.0096218064
0.00051816506
-0.009644247
-0.0013977414
-0.0092443979
-0.0034149846
-0.0083698737
-0.0053380173
-0.007018668
-0.0068939557
-0.0052792209
-0.0077538262
-0.0033659731
-0.0076038807
-0.0016165198
-0.0062834925
-0.00040804038
-0.0039534383
-0.0011784727
-0.00034790146
0.0018196806
-0.0011364112
0.004347061
-0.0021812943
0.0059471759
-0.003356412
0.0068286402
-0.0045793848
0.0071648691
-0.005796435
0.0070699187
-0.0069684261
0.0066001448
-0.0080596684
0.0057701562
-0.0090293443
0.0045735729
-0.0098249032
0.0030033169
-0.010377265
0.001070527
-0.010600649
-0.0011743577
-0.010397087
-0.0036185464
-0.0096714698
-0.0060636342
-0.0083656399
-0.0081997856
-0.0065132133
-0.0096062529
-0.0043081477
-0.0098089462
-0.0021473913
-0.0084442488
-0.00056465101
-0.0055361785
-0.0017431237
-0.00034378739
0.002163468
-0.0011273715
0.0051306451
-0.0021637757
0.0069835802
-0.0033245034
0.0079893678
-0.0045289932
0.008369359
-0.0057298265
0.0082707521
-0.0068979169
0.0077682353
-0.0080100055
0.0068822448
-0.0090384666
0.005602034
-0.0099426724
0.0039075228
-0.010661171
0.0017890253
-0.011104546
-0.0007309819
-0.011161222
-0.0035618706
-0.01069492
-0.0065299363
-0.0095804351
-0.0093142704
-0.0077648062
-0.011421882
-0.0053699504
-0.012203802
-0.0028062504
-0.011007949
-0.0007780641
-0.0075643648
-0.0025211879
-0.00032889419
0.0024923622
-0.0010823279
0.0058840788
-0.0020705427
0.0079717952
-0.0031632201
0.0090820452
-0.0042833853
0.0094895243
-0.0053922854
0.0093796523
-0.0064736065
0.0088495565
-0.0075201216
0.0079287599
-0.0085226393
0.0066045518
-0.0094602087
0.0048450921
-0.010291299
0.002620116
-0.01093311
-8.9171614e-05
-0.011282967
-0.0032120135
-0.011173127
-0.0066397755
-0.010414897
-0.010072501
-0.0088456809
-0.012991098
-0.0064546817
-0.014594801
-0.0035807436
-0.013881887
-0.0010639183
-0.01008119
-0.0035851062
-0.0003119166
0.0028042788
-0.0010210208
0.006593183
-0.0019266408
0.0088774153
-0.0028956691
0.010051074
-0.003857787
0.010451642
-0.0047866798
0.010308545
-0.0056821285
0.0097450053
-0.0065560824
0.0088027139
-0.0074217676
0.007470237
-0.0082838971
0.0057072215
-0.0091272937
0.0034635126
-0.0099107877
0.00069432241
-0.010529125
-0.0025936757
-0.010828433
-0.0063404676
-0.010574451
-0.010326484
-0.009493396
-0.014072152
-0.0073908352
-0.016697362
-0.0044184524
-0.01685427
-0.001436957
-0.013062686
-0.0050220632
-0.00031031881
0.0031145978
-0.00098113899
0.0072640032
-0.0017803647
0.0096766412
-0.0025712005
0.01084191
-0.0032969139
0.011177356
-0.0039506663
0.010962298
-0.0045531558
0.010347495
-0.0051383385
0.0093878966
-0.0057437688
0.0080756673
-0.0064025682
0.0063660208
-0.0071342353
0.0041951797
-0.0079342716
0.0014943586
-0.0087425127
-0.0017854345
-0.0094335352
-0.005649445
-0.0097710086
-0.0099890104
-0.0094018736
-0.014441287
-0.0079312275
-0.018168008
-0.0052061865
-0.019579311
-0.001902473
-0.016366399
-0.0069245361
-0.00035644169
0.0034710395
-0.0010251538
0.0079327152
-0.0017062401
0.010357728
-0.0022636359
0.011399305
-0.0026693065
0.011583026
-0.0029482367
0.011241228
-0.0031489981
0.010548256
-0.0033300092
0.0095689076
-0.0035525908
0.0082982489
-0.0038765583
0.0066899883
-0.004354653
0.0046732743
-0.0050236796
0.0021633853
-0.0058815593
-0.00092755476
-0.0068622368
-0.0046687674
-0.0077799245
-0.0090713226
-0.0082684956
-0.013952716
-0.0077703127
-0.018666191
-0.0057516969
-0.021597926
-0.0024367131
-0.019681383
-0.0093612492
-0.00050875062
0.0039797902
-0.0012470636
0.0086710281
-0.0017984094
0.010909073
-0.0020515964
0.011652492
-0.0020370539
0.011568484
-0.0018307467
0.011034921
-0.001518075
0.010235585
-0.0011840951
0.0092349278
-0.00091109345
0.0080252472
-0.00078006374
0.0065589585
-0.00086965017
0.0047628608
-0.001253214
0.0025469491
-0.0019882699
-0.00019249874
-0.0030867644
-0.0035702727
-0.0044642289
-0.0076938579
-0.0058307878
-0.012586157
-0.0065683891
-0.017928589
-0.0057695525
-0.022396763
-0.0029514807
-0.022499455
-0.01231273
-0.00086905965
0.0048488499
-0.0017644976
0.0095664659
-0.0021240779
0.011268654
-0.0019407729
0.011469187
-0.0013559168
0.010983628
-0.000522023
0.010201027
0.0004306278
0.0092829341
0.0013929038
0.008272652
0.0022656235
0.0071525276
0.0029543344
0.0058702477
0.0033629091
0.0043542862
0.0033910108
0.0025188474
0.0029332829
0.00026522934
0.0019049161
-0.0025419058
0.00026562391
-0.0060545655
-0.0018574914
-0.010463041
-0.0039540392
-0.015832041
-0.004862213
-0.021488589
-0.0032551292
-0.024106539
-0.015567859
-0.0015914766
0.0064403265
-0.0026121341
0.010587123
-0.002515547
0.011172067
-0.0015934931
0.010547134
-0.00017682129
0.0095669564
0.0014872832
0.0085369226
0.0032267952
0.0075434223
0.0049168384
0.0065826088
0.0064565827
0.0056127834
0.0077513162
0.0045755142
0.0087017397
0.0034038627
0.009196271
0.0020243162
0.0090987286
0.00036277182
0.0082710889
-0.001714266
0.0065620623
-0.0043455388
0.0039014645
-0.0078024433
0.00055691968
-0.012487497
-0.0024693646
-0.018462305
-0.0030278098
-0.023548093
-0.018595669
-0.0027185099
0.0091588365
-0.0031505283
0.011019142
-0.0018044928
0.0098260313
0.00046423277
0.0082784082
0.0030859854
0.006945204
0.0057695364
0.0058533717
0.0083579985
0.0049549603
0.010755132
0.0041854757
0.012888138
0.0034797776
0.014685475
0.0027781771
0.016063544
0.0020257937
0.016919015
0.0011688451
0.017116068
0.0001657183
0.016487815
-0.0010860129
0.014814413
-0.0026721365
0.011844738
-0.0048327679
0.0074340122
-0.0080767707
0.0022619552
-0.013290248
-0.001272914
-0.020013224
-0.019868583
-0.0024131526
0.011571989
2.809309e-05
0.0085778957
0.0042547929
0.0055993316
0.0084151373
0.004118064
0.01222974
0.0031306011
0.015653779
0.0024293336
0.018683448
0.0019252909
0.021325679
0.001543245
0.023579808
0.0012256487
0.025425617
0.00093236772
0.026816857
0.00063455321
0.027674347
0.00031135571
0.027897843
-5.7777528e-05
0.027345448
-0.0005336176
0.02577036
-0.0010970492
0.022842159
-0.0019045666
0.018054145
-0.0032887565
0.011113173
-0.0063492763
0.0033885009
-0.012288551
-0.016480082
0.011571989
0.020149885
0.025749217
0.029867281
0.032997882
0.035427216
0.037352507
0.038895752
0.0401214
0.041053768
0.041688321
0.041999677
0.041941899
0.041408282
0.040311233
0.038406666
0.03511791
0.028768633
0.016480082
)
;

boundaryField
{
    movingWall
    {
        type            calculated;
        value           uniform 0;
    }
    fixedWalls
    {
        type            calculated;
        value           uniform 0;
    }
    frontAndBack
    {
        type            empty;
        value           nonuniform List<scalar> 0();
    }
}


// ************************************************************************* //
