/*--------------------------------*- C++ -*----------------------------------*\
  =========                 |
  \\      /  F ield         | OpenFOAM: The Open Source CFD Toolbox
   \\    /   O peration     | Website:  https://openfoam.org
    \\  /    A nd           | Version:  9
     \\/     M anipulation  |
\*---------------------------------------------------------------------------*/
FoamFile
{
    format      ascii;
    class       volVectorField;
    location    "14";
    object      U;
}
// * * * * * * * * * * * * * * * * * * * * * * * * * * * * * * * * * * * * * //

dimensions      [0 1 -1 0 0 0 0];

internalField   nonuniform List<vector> 
400
(
(0.00028397817 -0.00028095776 0)
(0.00010999767 8.0099057e-05 0)
(-0.0013268205 0.00047775729 0)
(-0.0036194581 0.00073535721 0)
(-0.0064185485 0.00086677127 0)
(-0.0094234413 0.00090643444 0)
(-0.012377054 0.00087402602 0)
(-0.015042906 0.0007707765 0)
(-0.017179056 0.00058793265 0)
(-0.018536353 0.00031983874 0)
(-0.018886311 -2.4658667e-05 0)
(-0.018071318 -0.00041768735 0)
(-0.016067721 -0.00079877989 0)
(-0.013040245 -0.0010919373 0)
(-0.0093614284 -0.0012200939 0)
(-0.0055760374 -0.0011286374 0)
(-0.0023010844 -0.00081248692 0)
(-8.4645349e-05 -0.00033809004 0)
(0.00075878369 0.00015179227 0)
(0.00040895711 0.00038887064 0)
(-8.6172164e-05 -0.00012287882 0)
(-0.0018678934 0.001786091 0)
(-0.006300795 0.0036228674 0)
(-0.012440644 0.0048578725 0)
(-0.019581189 0.0054931304 0)
(-0.027079753 0.0056150812 0)
(-0.034324393 0.0052808029 0)
(-0.040728261 0.0045000878 0)
(-0.045713334 0.0032634475 0)
(-0.048729344 0.0015889079 0)
(-0.049321255 -0.00043388602 0)
(-0.047212501 -0.0026143213 0)
(-0.042417228 -0.0046588346 0)
(-0.035334972 -0.0062122134 0)
(-0.026760907 -0.0069309925 0)
(-0.017817663 -0.0065869243 0)
(-0.0097721818 -0.0051765509 0)
(-0.0037465517 -0.0029985906 0)
(-0.00039006417 -0.00066661255 0)
(0.00028925308 0.00078219109 0)
(-0.00058751844 0.0014329808 0)
(-0.0042382958 0.006371679 0)
(-0.01174575 0.01062997 0)
(-0.021445213 0.013469799 0)
(-0.032330966 0.01488298 0)
(-0.043541057 0.01500211 0)
(-0.05422983 0.013922431 0)
(-0.063576464 0.011673524 0)
(-0.070784258 0.0082750256 0)
(-0.075114971 0.0038277532 0)
(-0.075968363 -0.0014008927 0)
(-0.072992661 -0.0069250516 0)
(-0.06621093 -0.012056758 0)
(-0.056125251 -0.015982868 0)
(-0.04374926 -0.017925485 0)
(-0.030549557 -0.017365399 0)
(-0.018240842 -0.014280139 0)
(-0.0084147991 -0.0093079836 0)
(-0.0021511494 -0.0037621629 0)
(-2.3696382e-06 0.00031503488 0)
(-0.0010517881 0.004296437 0)
(-0.0065071045 0.013551658 0)
(-0.016979202 0.020841913 0)
(-0.029996314 0.025534091 0)
(-0.044250595 0.027732401 0)
(-0.058719479 0.027659818 0)
(-0.072409725 0.025463063 0)
(-0.084359059 0.021199915 0)
(-0.093634877 0.014934859 0)
(-0.099368403 0.0068779033 0)
(-0.10083725 -0.0024914475 0)
(-0.097577267 -0.012359055 0)
(-0.089518572 -0.021578534 0)
(-0.077121546 -0.028793674 0)
(-0.061459646 -0.03267478 0)
(-0.044223237 -0.032272675 0)
(-0.027544971 -0.027426137 0)
(-0.013574364 -0.019070094 0)
(-0.0040247578 -0.0092683106 0)
(-0.00026784384 -0.0011099491 0)
(-0.0014539785 0.0083560422 0)
(-0.0085385662 0.023155662 0)
(-0.021720376 0.034014284 0)
(-0.037748808 0.040719155 0)
(-0.055035152 0.043656043 0)
(-0.072440889 0.043215779 0)
(-0.088891288 0.039624558 0)
(-0.10335442 0.032974276 0)
(-0.11482163 0.023369878 0)
(-0.12232453 0.011116986 0)
(-0.12500604 -0.0031136353 0)
(-0.12221826 -0.018190234 0)
(-0.11367152 -0.03250148 0)
(-0.099623023 -0.044085899 0)
(-0.081042071 -0.050918492 0)
(-0.059735245 -0.051398287 0)
(-0.038266201 -0.044980711 0)
(-0.019508517 -0.032735646 0)
(-0.0060889931 -0.017484544 0)
(-0.00051086587 -0.0035226713 0)
(-0.0017866468 0.013460091 0)
(-0.010257456 0.034921409 0)
(-0.025775945 0.049853524 0)
(-0.04441761 0.058731869 0)
(-0.06435911 0.062394295 0)
(-0.084391167 0.061491396 0)
(-0.10341533 0.056366137 0)
(-0.12039127 0.047146258 0)
(-0.1342851 0.033951756 0)
(-0.14405311 0.017133146 0)
(-0.14868536 -0.0025154625 0)
(-0.14728222 -0.023597717 0)
(-0.13921091 -0.044089199 0)
(-0.12434961 -0.061379255 0)
(-0.10336259 -0.072576703 0)
(-0.07800527 -0.075113078 0)
(-0.0512285 -0.067657797 0)
(-0.026792907 -0.051092034 0)
(-0.0086071261 -0.028951144 0)
(-0.00078662567 -0.0070507401 0)
(-0.0020396291 0.019414121 0)
(-0.011592937 0.04847448 0)
(-0.028965406 0.067924427 0)
(-0.049707597 0.079143324 0)
(-0.071822224 0.083574592 0)
(-0.094075389 0.082221968 0)
(-0.11539918 0.07558701 0)
(-0.13480381 0.063832315 0)
(-0.15128591 0.047053183 0)
(-0.16376541 0.025568792 0)
(-0.17107487 0.00018800803 0)
(-0.17204257 -0.02756347 0)
(-0.16561272 -0.055330808 0)
(-0.1511013 -0.079867561 0)
(-0.1286252 -0.097267793 0)
(-0.099612338 -0.10361875 0)
(-0.067203052 -0.096218955 0)
(-0.03609819 -0.075173139 0)
(-0.011922669 -0.044515826 0)
(-0.001170039 -0.011997028 0)
(-0.0021990872 0.025984054 0)
(-0.012473041 0.063350521 0)
(-0.031111958 0.087672357 0)
(-0.053308512 0.10138865 0)
(-0.076954225 0.10667668 0)
(-0.10083322 0.10498297 0)
(-0.12395897 0.09701393 0)
(-0.14545193 0.082969067 0)
(-0.16440471 0.062875586 0)
(-0.17976933 0.036931782 0)
(-0.19029385 0.0058239225 0)
(-0.19455412 -0.02897978 0)
(-0.19104101 -0.064943048 0)
(-0.17840328 -0.09830028 0)
(-0.1559501 -0.12407843 0)
(-0.12438484 -0.13666492 0)
(-0.086603893 -0.13124309 0)
(-0.048039222 -0.10616897 0)
(-0.016420446 -0.065357703 0)
(-0.001752621 -0.018869887 0)
(-0.0022540357 0.032898008 0)
(-0.012844559 0.079006785 0)
(-0.032076656 0.10842713 0)
(-0.054944906 0.12474637 0)
(-0.079283937 0.13097748 0)
(-0.1039313 0.12909608 0)
(-0.12802827 0.12006785 0)
(-0.15086698 0.10414326 0)
(-0.17171609 0.081248946 0)
(-0.18966281 0.051376409 0)
(-0.20349542 0.014945807 0)
(-0.21165051 -0.026818581 0)
(-0.21224977 -0.071451382 0)
(-0.20326716 -0.11492697 0)
(-0.18299811 -0.15133677 0)
(-0.15096248 -0.17317259 0)
(-0.10912314 -0.17271871 0)
(-0.062999977 -0.14516282 0)
(-0.022514466 -0.092929534 0)
(-0.0026573362 -0.028408579 0)
(-0.0022077626 0.039865123 0)
(-0.012711753 0.094853364 0)
(-0.031827607 0.12942063 0)
(-0.054473485 0.14832857 0)
(-0.078467636 0.15550925 0)
(-0.10273117 0.15355466 0)
(-0.12657661 0.14375671 0)
(-0.1495293 0.12645199 0)
(-0.17112329 0.10146215 0)
(-0.19070924 0.068518494 0)
(-0.20728223 0.027659244 0)
(-0.21933395 -0.020335219 0)
(-0.22484431 -0.073379078 0)
(-0.2212629 -0.12758693 0)
(-0.2058111 -0.17650544 0)
(-0.17643446 -0.21087121 0)
(-0.13331055 -0.21949748 0)
(-0.080873943 -0.19265777 0)
(-0.03063051 -0.12879077 0)
(-0.0040679697 -0.041617526 0)
(-0.0020934653 0.046622199 0)
(-0.012189173 0.11032329 0)
(-0.030533271 0.14984017 0)
(-0.05201127 0.17110661 0)
(-0.074455521 0.17906077 0)
(-0.096908484 0.17700561 0)
(-0.11890242 0.16663885 0)
(-0.14025641 0.14844168 0)
(-0.16085477 0.12216367 0)
(-0.1804392 0.087275999 0)
(-0.19840161 0.043385942 0)
(-0.21353593 -0.0093298336 0)
(-0.22401181 -0.069595379 0)
(-0.22707602 -0.13403461 0)
(-0.21907666 -0.19634098 0)
(-0.19624744 -0.24613164 0)
(-0.15619699 -0.26874003 0)
(-0.10068653 -0.247882 0)
(-0.041135081 -0.17426154 0)
(-0.0062681163 -0.059808148 0)
(-0.0019975006 0.053017529 0)
(-0.01157018 0.12498944 0)
(-0.028669919 0.16892 0)
(-0.04806918 0.19197284 0)
(-0.067654341 0.20022544 0)
(-0.086663556 0.19779891 0)
(-0.10492011 0.18687911 0)
(-0.12259885 0.16816125 0)
(-0.13999881 0.14138431 0)
(-0.1573371 0.10580569 0)
(-0.17455814 0.060606634 0)
(-0.19112729 0.005284163 0)
(-0.20564265 -0.059845907 0)
(-0.21553966 -0.13251702 0)
(-0.21692437 -0.20742551 0)
(-0.20458811 -0.27420694 0)
(-0.1731728 -0.31560275 0)
(-0.12016166 -0.30797201 0)
(-0.054139018 -0.22980279 0)
(-0.009672254 -0.084621548 0)
(-0.0021017811 0.059148434 0)
(-0.011424685 0.1387289 0)
(-0.027136223 0.18605561 0)
(-0.043656368 0.20981777 0)
(-0.059022543 0.21747701 0)
(-0.0728283 0.21409052 0)
(-0.085309052 0.20239221 0)
(-0.097068159 0.18334326 0)
(-0.10886241 0.15673699 0)
(-0.12142926 0.12169682 0)
(-0.13533578 0.077051332 0)
(-0.15078463 0.021673769 0)
(-0.16720016 -0.04504064 0)
(-0.18280983 -0.12243595 0)
(-0.19411041 -0.20703851 0)
(-0.19527494 -0.29002019 0)
(-0.17831545 -0.35348479 0)
(-0.13541044 -0.36733845 0)
(-0.069085449 -0.29407124 0)
(-0.01479274 -0.1179487 0)
(-0.002770721 0.065590971 0)
(-0.012755312 0.15192428 0)
(-0.02736141 0.2008936 0)
(-0.040293094 0.2235679 0)
(-0.049992759 0.22921872 0)
(-0.056721292 0.22394132 0)
(-0.061321994 0.2110087 0)
(-0.064914574 0.19163867 0)
(-0.068725854 0.16570697 0)
(-0.073984005 0.13228742 0)
(-0.081838224 0.089996757 0)
(-0.093228226 0.037253154 0)
(-0.10857224 -0.027415619 0)
(-0.127308 -0.10490757 0)
(-0.14713537 -0.19414925 0)
(-0.16286694 -0.28941206 0)
(-0.16513289 -0.37502032 0)
(-0.14092171 -0.41764449 0)
(-0.08406495 -0.36273985 0)
(-0.022010464 -0.1615372 0)
(-0.0047231416 0.073814871 0)
(-0.017239892 0.16566945 0)
(-0.03132351 0.21329448 0)
(-0.039744568 0.23207769 0)
(-0.041964995 0.23370749 0)
(-0.039449674 0.22531271 0)
(-0.033924395 0.2105516 0)
(-0.027121387 0.19077531 0)
(-0.020718151 0.16588873 0)
(-0.016342857 0.13495416 0)
(-0.01560173 0.096505578 0)
(-0.02004604 0.048738568 0)
(-0.031031799 -0.010356615 0)
(-0.049337952 -0.082862405 0)
(-0.074490534 -0.17008654 0)
(-0.1033521 -0.27044769 0)
(-0.12730996 -0.37363925 0)
(-0.12976729 -0.44862796 0)
(-0.094925568 -0.42744799 0)
(-0.030931355 -0.21609424 0)
(-0.0093034953 0.086942562 0)
(-0.027450277 0.18181658 0)
(-0.041023499 0.22297332 0)
(-0.042746109 0.23371633 0)
(-0.034494774 0.22872781 0)
(-0.019730948 0.21585733 0)
(-0.0013606657 0.1987306 0)
(0.018214681 0.17853569 0)
(0.03693716 0.15507609 0)
(0.052922666 0.12737211 0)
(0.064293697 0.093965738 0)
(0.069110989 0.053055722 0)
(0.065304931 0.0025096656 0)
(0.050948032 -0.060291868 0)
(0.024555315 -0.13833286 0)
(-0.013776016 -0.23413275 0)
(-0.058811701 -0.34513455 0)
(-0.09354861 -0.44950313 0)
(-0.094485755 -0.47554873 0)
(-0.039218781 -0.2804562 0)
(-0.018582716 0.11087132 0)
(-0.046054491 0.2017592 0)
(-0.055266421 0.2278953 0)
(-0.044044819 0.22496852 0)
(-0.019455017 0.2105599 0)
(0.012231629 0.19223131 0)
(0.046877079 0.17274691 0)
(0.08162937 0.15263042 0)
(0.11430995 0.13134543 0)
(0.14302741 0.10780377 0)
(0.16589745 0.080613126 0)
(0.18087138 0.048143199 0)
(0.18547793 0.0084852274 0)
(0.17707974 -0.040781501 0)
(0.15268567 -0.10314419 0)
(0.10942712 -0.18388043 0)
(0.04719065 -0.28853452 0)
(-0.021474098 -0.41049155 0)
(-0.072269244 -0.49099599 0)
(-0.041151102 -0.35052622 0)
(-0.033352347 0.155621 0)
(-0.068608161 0.22040139 0)
(-0.055208357 0.21727599 0)
(-0.01611789 0.19529724 0)
(0.034452491 0.17089114 0)
(0.088430956 0.14846313 0)
(0.14167699 0.12858664 0)
(0.19186739 0.11056039 0)
(0.23743437 0.093290823 0)
(0.27701456 0.075578802 0)
(0.30911806 0.056194387 0)
(0.33195243 0.033843059 0)
(0.34309656 0.0070509006 0)
(0.33976232 -0.025886971 0)
(0.31807838 -0.067721399 0)
(0.27323422 -0.12409288 0)
(0.20041353 -0.20583788 0)
(0.10211544 -0.32506218 0)
(-0.01239987 -0.45456417 0)
(-0.023759878 -0.40863401 0)
(-0.033079396 0.23907874 0)
(-0.042644216 0.21792379 0)
(0.042205375 0.16426314 0)
(0.12759207 0.12782609 0)
(0.20767143 0.10142184 0)
(0.28023984 0.081643735 0)
(0.34481747 0.06663567 0)
(0.40151681 0.054694514 0)
(0.45047834 0.044395948 0)
(0.491547 0.034641568 0)
(0.52409209 0.024556733 0)
(0.54692411 0.013391024 0)
(0.55817014 0.00041038951 0)
(0.55566802 -0.015126625 0)
(0.53549589 -0.034960003 0)
(0.49242552 -0.062481889 0)
(0.41795829 -0.10694461 0)
(0.30409597 -0.19317446 0)
(0.12313204 -0.33691844 0)
(0.052372312 -0.39437856 0)
(0.24300124 0.15257673 0)
(0.30530151 0.11854556 0)
(0.45481814 0.076109221 0)
(0.56001165 0.050839398 0)
(0.63222948 0.035123865 0)
(0.68653716 0.024809476 0)
(0.72941826 0.017957474 0)
(0.76377009 0.013254139 0)
(0.79124956 0.0097616137 0)
(0.81272132 0.0068550476 0)
(0.82838367 0.0041202703 0)
(0.83792097 0.0012792611 0)
(0.84055393 -0.0018421238 0)
(0.8349656 -0.0053240987 0)
(0.81886255 -0.0098270598 0)
(0.78942812 -0.016231583 0)
(0.7378442 -0.026935369 0)
(0.65316896 -0.051286786 0)
(0.45609822 -0.1137465 0)
(0.3178899 -0.17206042 0)
)
;

boundaryField
{
    movingWall
    {
        type            fixedValue;
        value           uniform (1 0 0);
    }
    fixedWalls
    {
        type            fixedValue;
        value           uniform (0 0 0);
    }
    frontAndBack
    {
        type            empty;
    }
}


// ************************************************************************* //
