/*--------------------------------*- C++ -*----------------------------------*\
  =========                 |
  \\      /  F ield         | OpenFOAM: The Open Source CFD Toolbox
   \\    /   O peration     | Website:  https://openfoam.org
    \\  /    A nd           | Version:  9
     \\/     M anipulation  |
\*---------------------------------------------------------------------------*/
FoamFile
{
    format      ascii;
    class       volVectorField;
    location    "14";
    object      U_0;
}
// * * * * * * * * * * * * * * * * * * * * * * * * * * * * * * * * * * * * * //

dimensions      [0 1 -1 0 0 0 0];

internalField   nonuniform List<vector> 
400
(
(0.00028389005 -0.00028104119 0)
(0.00010985537 8.0066422e-05 0)
(-0.0013269039 0.00047774013 0)
(-0.0036195039 0.00073534508 0)
(-0.0064185639 0.00086676137 0)
(-0.0094234298 0.00090642617 0)
(-0.012377018 0.0008740188 0)
(-0.01504285 0.00077077048 0)
(-0.017178987 0.00058792828 0)
(-0.018536276 0.00031983628 0)
(-0.018886232 -2.465904e-05 0)
(-0.018071244 -0.00041768531 0)
(-0.016067661 -0.00079877542 0)
(-0.013040203 -0.0010919314 0)
(-0.0093614053 -0.0012200885 0)
(-0.0055760324 -0.0011286343 0)
(-0.0023010921 -0.00081248681 0)
(-8.4656656e-05 -0.00033809239 0)
(0.00075877606 0.00015178798 0)
(0.00040895472 0.000388867 0)
(-8.6205863e-05 -0.00012301384 0)
(-0.0018679529 0.0017860172 0)
(-0.0063008246 0.0036228138 0)
(-0.012440628 0.0048578256 0)
(-0.019581121 0.0054930861 0)
(-0.027079634 0.0056150409 0)
(-0.034324228 0.0052807676 0)
(-0.040728057 0.0045000593 0)
(-0.045713103 0.0032634281 0)
(-0.048729102 0.0015888999 0)
(-0.049321017 -0.00043388103 0)
(-0.047212283 -0.0026143034 0)
(-0.042417043 -0.0046588063 0)
(-0.035334832 -0.00621218 0)
(-0.026760815 -0.0069309607 0)
(-0.017817616 -0.0065869002 0)
(-0.0097721674 -0.0051765378 0)
(-0.0037465548 -0.0029985894 0)
(-0.00039007092 -0.00066662183 0)
(0.0002892502 0.00078217974 0)
(-0.00058753087 0.0014328917 0)
(-0.0042383069 0.0063715868 0)
(-0.011745719 0.010629872 0)
(-0.021445122 0.013469697 0)
(-0.032330805 0.014882877 0)
(-0.043540825 0.015002014 0)
(-0.054229536 0.013922346 0)
(-0.063576119 0.011673457 0)
(-0.070783881 0.008274984 0)
(-0.075114582 0.0038277418 0)
(-0.075967984 -0.0014008712 0)
(-0.072992313 -0.0069249992 0)
(-0.066210632 -0.012056682 0)
(-0.056125016 -0.01598278 0)
(-0.043749094 -0.017925399 0)
(-0.030549454 -0.017365328 0)
(-0.01824079 -0.014280091 0)
(-0.0084147829 -0.0093079646 0)
(-0.0021511506 -0.0037621691 0)
(-2.3722597e-06 0.00031501879 0)
(-0.0010517891 0.0042963544 0)
(-0.0065070834 0.013551532 0)
(-0.01697912 0.020841754 0)
(-0.029996152 0.025533914 0)
(-0.044250346 0.027732221 0)
(-0.058719146 0.027659648 0)
(-0.072409318 0.025462917 0)
(-0.084358594 0.021199804 0)
(-0.093634376 0.014934794 0)
(-0.099367892 0.0068778928 0)
(-0.10083675 -0.002491401 0)
(-0.097576808 -0.012358956 0)
(-0.089518173 -0.021578395 0)
(-0.077121223 -0.028793513 0)
(-0.061459404 -0.032674618 0)
(-0.044223074 -0.032272534 0)
(-0.027544878 -0.027426036 0)
(-0.013574325 -0.019070042 0)
(-0.0040247499 -0.0092683034 0)
(-0.00026784517 -0.0011099643 0)
(-0.0014539726 0.0083559463 0)
(-0.0085385221 0.02315548 0)
(-0.021720254 0.034014046 0)
(-0.037748591 0.040718888 0)
(-0.055034834 0.043655772 0)
(-0.072440477 0.043215526 0)
(-0.088890796 0.039624342 0)
(-0.10335387 0.032974117 0)
(-0.11482104 0.02336979 0)
(-0.12232393 0.011116979 0)
(-0.12500545 -0.0031135591 0)
(-0.12221772 -0.018190082 0)
(-0.11367103 -0.032501269 0)
(-0.099622622 -0.044085653 0)
(-0.081041759 -0.050918241 0)
(-0.059735024 -0.05139806 0)
(-0.038266065 -0.044980539 0)
(-0.019508452 -0.032735544 0)
(-0.0060889758 -0.017484511 0)
(-0.00051086543 -0.0035226809 0)
(-0.0017866375 0.01345997 0)
(-0.010257399 0.034921158 0)
(-0.025775798 0.049853193 0)
(-0.044417358 0.058731501 0)
(-0.064358751 0.062393925 0)
(-0.08439071 0.061491054 0)
(-0.10341479 0.056365851 0)
(-0.12039066 0.04714605 0)
(-0.13428446 0.033951645 0)
(-0.14405246 0.017133142 0)
(-0.14868473 -0.0025153579 0)
(-0.14728163 -0.023597514 0)
(-0.13921037 -0.044088916 0)
(-0.12434915 -0.061378922 0)
(-0.10336222 -0.072576355 0)
(-0.078004996 -0.075112754 0)
(-0.051228324 -0.067657539 0)
(-0.026792818 -0.051091868 0)
(-0.0086070985 -0.028951074 0)
(-0.00078662302 -0.0070507394 0)
(-0.0020396183 0.019413968 0)
(-0.011592875 0.048474154 0)
(-0.028965251 0.067923999 0)
(-0.049707335 0.079142852 0)
(-0.071821857 0.083574123 0)
(-0.094074927 0.082221539 0)
(-0.11539864 0.075586654 0)
(-0.13480321 0.063832061 0)
(-0.15128528 0.047053049 0)
(-0.16376477 0.02556879 0)
(-0.17107424 0.00018813597 0)
(-0.17204197 -0.027563222 0)
(-0.16561217 -0.055330462 0)
(-0.15110082 -0.079867146 0)
(-0.12862479 -0.097267349 0)
(-0.099612026 -0.10361832 0)
(-0.067202842 -0.0962186 0)
(-0.036098078 -0.075172893 0)
(-0.011922631 -0.044515704 0)
(-0.001170034 -0.011997011 0)
(-0.0021990767 0.02598387 0)
(-0.012472982 0.063350122 0)
(-0.031111813 0.087671835 0)
(-0.053308271 0.10138808 0)
(-0.076953888 0.10667612 0)
(-0.1008328 0.10498246 0)
(-0.12395848 0.097013513 0)
(-0.14545139 0.082968772 0)
(-0.16440415 0.062875431 0)
(-0.17976876 0.036931777 0)
(-0.19029329 0.0058240665 0)
(-0.19455358 -0.028979499 0)
(-0.1910405 -0.064942652 0)
(-0.17840282 -0.098299797 0)
(-0.1559497 -0.1240779 0)
(-0.12438452 -0.13666439 0)
(-0.086603663 -0.13124264 0)
(-0.048039089 -0.10616864 0)
(-0.016420396 -0.065357518 0)
(-0.0017526138 -0.018869848 0)
(-0.0022540277 0.032897797 0)
(-0.012844512 0.079006322 0)
(-0.03207654 0.10842653 0)
(-0.054944711 0.12474571 0)
(-0.079283667 0.13097684 0)
(-0.10393097 0.1290955 0)
(-0.12802789 0.12006738 0)
(-0.15086656 0.10414293 0)
(-0.17171566 0.081248774 0)
(-0.18966237 0.051376402 0)
(-0.20349499 0.01494596 0)
(-0.21165009 -0.026818281 0)
(-0.21224937 -0.071450954 0)
(-0.20326678 -0.11492644 0)
(-0.18299776 -0.15133618 0)
(-0.15096218 -0.17317199 0)
(-0.10912291 -0.17271816 0)
(-0.062999833 -0.14516238 0)
(-0.022514407 -0.092929278 0)
(-0.0026573266 -0.028408513 0)
(-0.0022077589 0.039864893 0)
(-0.012711728 0.094852855 0)
(-0.031827537 0.12941996 0)
(-0.054473363 0.14832785 0)
(-0.078467465 0.15550855 0)
(-0.10273096 0.15355404 0)
(-0.12657638 0.14375621 0)
(-0.14952905 0.12645164 0)
(-0.17112304 0.10146197 0)
(-0.190709 0.068518489 0)
(-0.207282 0.027659403 0)
(-0.21933372 -0.020334911 0)
(-0.22484408 -0.073378638 0)
(-0.22126267 -0.12758639 0)
(-0.20581087 -0.17650483 0)
(-0.17643423 -0.21087057 0)
(-0.13331035 -0.21949687 0)
(-0.080873805 -0.19265726 0)
(-0.030630447 -0.12879044 0)
(-0.0040679574 -0.041617429 0)
(-0.0020934668 0.046621963 0)
(-0.012189172 0.11032276 0)
(-0.030533258 0.14983948 0)
(-0.05201124 0.17110585 0)
(-0.074455475 0.17906005 0)
(-0.096908428 0.17700497 0)
(-0.11890237 0.16663834 0)
(-0.14025636 0.14844133 0)
(-0.16085473 0.1221635 0)
(-0.18043918 0.087276005 0)
(-0.19840161 0.043386111 0)
(-0.21353593 -0.009329519 0)
(-0.2240118 -0.069594947 0)
(-0.22707599 -0.13403409 0)
(-0.21907659 -0.19634038 0)
(-0.19624734 -0.246131 0)
(-0.15619687 -0.26873938 0)
(-0.10068642 -0.24788143 0)
(-0.041135021 -0.17426115 0)
(-0.0062681016 -0.059808018 0)
(-0.0019975079 0.053017301 0)
(-0.011570208 0.12498892 0)
(-0.028669971 0.16891931 0)
(-0.048069253 0.19197209 0)
(-0.067654433 0.20022472 0)
(-0.086663669 0.19779828 0)
(-0.10492024 0.18687862 0)
(-0.12259902 0.16816093 0)
(-0.139999 0.14138416 0)
(-0.15733732 0.10580572 0)
(-0.17455838 0.060606813 0)
(-0.19112754 0.0052844708 0)
(-0.20564288 -0.059845501 0)
(-0.21553985 -0.13251654 0)
(-0.2169245 -0.20742496 0)
(-0.20458816 -0.27420635 0)
(-0.17317279 -0.31560213 0)
(-0.12016161 -0.30797143 0)
(-0.054138971 -0.22980236 0)
(-0.0096722386 -0.084621387 0)
(-0.002101794 0.059148231 0)
(-0.011424742 0.13872842 0)
(-0.02713634 0.18605497 0)
(-0.043656543 0.20981706 0)
(-0.059022774 0.21747632 0)
(-0.07282858 0.21408993 0)
(-0.085309377 0.20239176 0)
(-0.097068525 0.18334297 0)
(-0.10886282 0.15673687 0)
(-0.12142969 0.12169687 0)
(-0.13533623 0.077051518 0)
(-0.15078508 0.021674061 0)
(-0.16720059 -0.04504027 0)
(-0.18281021 -0.12243553 0)
(-0.19411072 -0.20703804 0)
(-0.19527515 -0.29001968 0)
(-0.17831556 -0.35348425 0)
(-0.13541047 -0.36733792 0)
(-0.069085429 -0.2940708 0)
(-0.014792728 -0.11794851 0)
(-0.0027707391 0.065590805 0)
(-0.012755394 0.15192387 0)
(-0.027361585 0.20089303 0)
(-0.040293363 0.22356726 0)
(-0.049993114 0.2292181 0)
(-0.05672172 0.22394079 0)
(-0.061322483 0.2110083 0)
(-0.064915112 0.19163843 0)
(-0.068726427 0.16570689 0)
(-0.073984601 0.13228748 0)
(-0.081838827 0.089996945 0)
(-0.093228819 0.037253432 0)
(-0.10857281 -0.027415285 0)
(-0.12730852 -0.1049072 0)
(-0.14713582 -0.19414888 0)
(-0.16286729 -0.28941167 0)
(-0.16513312 -0.3750199 0)
(-0.14092182 -0.41764405 0)
(-0.084064968 -0.36273945 0)
(-0.022010458 -0.16153701 0)
(-0.0047231627 0.073814756 0)
(-0.017239991 0.16566914 0)
(-0.031323727 0.21329402 0)
(-0.039744907 0.23207716 0)
(-0.041965444 0.23370697 0)
(-0.039450216 0.22531226 0)
(-0.033925007 0.21055126 0)
(-0.027122047 0.19077511 0)
(-0.02071884 0.16588867 0)
(-0.016343554 0.13495423 0)
(-0.015602417 0.096505757 0)
(-0.020046701 0.048738823 0)
(-0.031032421 -0.010356318 0)
(-0.049338519 -0.082862097 0)
(-0.074491032 -0.17008624 0)
(-0.10335251 -0.2704474 0)
(-0.12731026 -0.37363896 0)
(-0.12976746 -0.44862764 0)
(-0.094925626 -0.42744768 0)
(-0.030931359 -0.21609406 0)
(-0.0093035159 0.086942503 0)
(-0.02745038 0.18181637 0)
(-0.041023731 0.22297299 0)
(-0.042746477 0.23371592 0)
(-0.034495268 0.2287274 0)
(-0.019731543 0.21585697 0)
(-0.0013613358 0.19873032 0)
(0.018213965 0.17853552 0)
(0.036936425 0.15507604 0)
(0.052921938 0.12737217 0)
(0.064292996 0.093965892 0)
(0.06911033 0.053055939 0)
(0.065304326 0.0025099155 0)
(0.050947488 -0.060291615 0)
(0.024554837 -0.13833263 0)
(-0.013776419 -0.23413255 0)
(-0.058812015 -0.34513436 0)
(-0.093548815 -0.44950294 0)
(-0.09448584 -0.47554852 0)
(-0.039218795 -0.28045606 0)
(-0.01858273 0.11087131 0)
(-0.046054576 0.2017591 0)
(-0.055266626 0.2278951 0)
(-0.044045152 0.22496824 0)
(-0.019455472 0.21055961 0)
(0.012231069 0.19223104 0)
(0.046876444 0.17274669 0)
(0.081628687 0.15263029 0)
(0.11430925 0.13134539 0)
(0.14302672 0.10780381 0)
(0.1658968 0.080613238 0)
(0.18087078 0.048143363 0)
(0.18547739 0.0084854183 0)
(0.17707927 -0.040781309 0)
(0.15268527 -0.10314402 0)
(0.10942678 -0.1838803 0)
(0.04719038 -0.28853442 0)
(-0.021474286 -0.41049145 0)
(-0.072269333 -0.49099588 0)
(-0.041151121 -0.35052613 0)
(-0.033352347 0.15562102 0)
(-0.0686082 0.22040137 0)
(-0.055208479 0.21727589 0)
(-0.01611811 0.19529709 0)
(0.034452167 0.17089096 0)
(0.088430534 0.14846295 0)
(0.14167649 0.12858649 0)
(0.19186684 0.11056029 0)
(0.23743379 0.093290782 0)
(0.27701398 0.075578819 0)
(0.30911751 0.056194454 0)
(0.33195193 0.033843163 0)
(0.34309613 0.0070510256 0)
(0.33976196 -0.025886845 0)
(0.31807809 -0.06772129 0)
(0.27323398 -0.1240928 0)
(0.20041335 -0.20583783 0)
(0.10211531 -0.32506214 0)
(-0.012399939 -0.45456413 0)
(-0.023759896 -0.40863398 0)
(-0.033079386 0.23907877 0)
(-0.042644202 0.21792381 0)
(0.042205359 0.16426312 0)
(0.12759199 0.12782604 0)
(0.20767128 0.10142176 0)
(0.28023961 0.081643654 0)
(0.34481717 0.0666356 0)
(0.40151645 0.054694466 0)
(0.45047794 0.044395927 0)
(0.49154659 0.034641575 0)
(0.52409171 0.024556765 0)
(0.54692377 0.013391073 0)
(0.55816985 0.00041044728 0)
(0.55566779 -0.015126567 0)
(0.53549572 -0.034959953 0)
(0.4924254 -0.062481854 0)
(0.41795821 -0.10694459 0)
(0.30409592 -0.19317446 0)
(0.12313201 -0.33691843 0)
(0.052372302 -0.39437856 0)
(0.24300125 0.15257674 0)
(0.30530154 0.11854558 0)
(0.45481817 0.076109226 0)
(0.56001165 0.050839393 0)
(0.63222945 0.035123852 0)
(0.68653709 0.02480946 0)
(0.72941815 0.017957459 0)
(0.76376994 0.013254128 0)
(0.79124939 0.0097616095 0)
(0.81272115 0.0068550503 0)
(0.82838352 0.0041202795 0)
(0.83792084 0.001279275 0)
(0.84055384 -0.0018421108 0)
(0.83496554 -0.0053240857 0)
(0.81886253 -0.0098270493 0)
(0.78942811 -0.016231576 0)
(0.73784421 -0.026935367 0)
(0.65316897 -0.051286787 0)
(0.45609822 -0.1137465 0)
(0.3178899 -0.17206042 0)
)
;

boundaryField
{
    movingWall
    {
        type            fixedValue;
        value           uniform (1 0 0);
    }
    fixedWalls
    {
        type            fixedValue;
        value           uniform (0 0 0);
    }
    frontAndBack
    {
        type            empty;
    }
}


// ************************************************************************* //
